Protein in INSANE! Membrane UpperLeaflet>POPC=1.0 LowerLeaflet>POPC=1.0
247995
    1AU     AUC    1   3.391  44.628   7.499
    1AU     AUC    2   3.693  44.667   7.335
    1AU     AUC    3   3.665  44.650   7.673
    1AU     AUC    4   3.107  44.610   7.327
    1AU     AUC    5   3.099  44.614   7.678
    1AU     AUC    6   3.200  44.875   7.512
    1AU     AUC    7   3.541  44.906   7.501
    1AU     AUC    8   3.232  44.344   7.500
    1AU     AUC    9   3.592  44.391   7.496
    1AU     AUC   10   3.421  44.461   7.771
    1AU     AUC   11   3.368  44.790   7.777
    1AU     AUC   12   3.414  44.467   7.221
    1AU     AUC   13   3.412  44.803   7.226
    1AU     AUC   14   4.003  44.695   7.187
    1AU     AUC   15   4.035  44.690   7.506
    1AU     AUC   16   3.964  44.657   7.871
    1AU     AUC   17   2.810  44.589   7.148
    1AU     AUC   18   2.767  44.637   7.516
    1AU     AUC   19   2.814  44.604   7.851
    1AU     AUC   20   3.028   0.176   7.489
    1AU     AUC   21   3.372   0.238   7.485
    1AU     AUC   22   3.685   0.222   7.511
    1AU     AUC   23   3.060  44.025   7.501
    1AU     AUC   24   3.405  44.062   7.500
    1AU     AUC   25   3.797  44.112   7.476
    1AU     AUC   26   3.431  44.243   8.059
    1AU     AUC   27   3.379  44.567   8.098
    1AU     AUC   28   3.374  44.947   8.063
    1AU     AUC   29   3.419  44.273   6.933
    1AU     AUC   30   3.416  44.617   6.913
    1AU     AUC   31   3.434  44.977   6.926
    1AU     AUC   32   3.716  44.414   7.973
    1AU     AUC   33   3.683  44.779   8.013
    1AU     AUC   34   3.709  44.481   7.021
    1AU     AUC   35   3.733  44.843   7.009
    1AU     AUC   36   3.090  44.405   7.979
    1AU     AUC   37   3.087  44.767   7.986
    1AU     AUC   38   3.076  44.410   7.044
    1AU     AUC   39   3.084  44.782   7.013
    1AU     AUC   40   3.895  44.963   7.359
    1AU     AUC   41   3.832  44.935   7.714
    1AU     AUC   42   2.914  44.899   7.294
    1AU     AUC   43   2.888  44.922   7.685
    1AU     AUC   44   3.909  44.383   7.315
    1AU     AUC   45   3.915  44.364   7.643
    1AU     AUC   46   2.877  44.325   7.345
    1AU     AUC   47   2.904  44.329   7.676
    1AU     AUC   48   3.187   0.110   7.783
    1AU     AUC   49   3.522   0.113   7.805
    1AU     AUC   50   3.209  44.121   7.772
    1AU     AUC   51   3.618  44.144   7.804
    1AU     AUC   52   3.207   0.063   7.165
    1AU     AUC   53   3.599   0.106   7.173
    1AU     AUC   54   3.199  44.137   7.220
    1AU     AUC   55   3.591  44.170   7.177
    1AU    AUSL   56   3.965  44.558   8.231
    1AU    AUSL   57   3.823  44.091   8.106
    1AU     AUL   58   4.104  44.169   8.289
    1AU       S   59   4.239  43.766   8.113
    1AU     LIG   60   4.192  43.511   8.434
    1AU     LIG   61   4.384  43.346   8.816
    1AU       S   62   4.208  44.606   8.375
    1AU     LIG   63   4.231  44.820   8.751
    1AU     LIG   64   4.364  44.578   9.120
    1AU    AUSL   65   3.569  44.374   8.309
    1AU    AUSL   66   3.231  44.700   8.375
    1AU     AUL   67   3.411  44.558   8.643
    1AU       S   68   3.809  44.321   8.602
    1AU     LIG   69   3.847  44.548   8.955
    1AU     LIG   70   3.930  44.469   9.396
    1AU       S   71   2.698  44.498   8.670
    1AU     LIG   72   2.897  44.859   8.940
    1AU     LIG   73   2.845  44.883   9.397
    1AU    AUSL   74   3.581  44.789   8.174
    1AU    AUSL   75   3.986  44.978   8.144
    1AU     AUL   76   3.796  44.802   8.470
    1AU       S   77   3.405   0.055   8.617
    1AU     LIG   78   3.752   0.048   8.906
    1AU     LIG   79   4.048  44.963   9.231
    1AU       S   80   4.117   0.131   8.355
    1AU     LIG   81   4.537   0.192   8.468
    1AU     LIG   82   4.892   0.492   8.388
    1AU    AUSL   83   3.967  44.727   6.778
    1AU    AUSL   84   3.851   0.167   6.832
    1AU     AUL   85   4.016  44.992   6.516
    1AU       S   86   3.878  44.587   6.315
    1AU     LIG   87   4.279  44.690   6.139
    1AU     LIG   88   4.430  44.557   5.713
    1AU       S   89   4.199   0.300   6.804
    1AU     LIG   90   4.054   0.621   6.587
    1AU     LIG   91   4.390   0.856   6.373
    1AU    AUSL   92   3.626  44.475   6.732
    1AU    AUSL   93   3.945  44.405   7.064
    1AU     AUL   94   4.061  44.431   6.706
    1AU       S   95   4.063  43.658   6.724
    1AU     LIG   96   4.507  43.690   6.569
    1AU     LIG   97   4.883  43.503   6.321
    1AU       S   98   3.708  44.281   6.411
    1AU     LIG   99   3.540  44.204   5.972
    1AU     LIG  100   3.717  44.164   5.516
    1AU    AUSL  101   3.566  44.904   6.653
    1AU    AUSL  102   3.246  44.345   6.620
    1AU     AUL  103   3.423  44.647   6.422
    1AU       S  104   3.048  44.372   6.294
    1AU     LIG  105   3.044  44.290   5.828
    1AU     LIG  106   2.740  44.209   5.480
    1AU       S  107   3.945  44.317   6.237
    1AU     LIG  108   3.906  44.540   5.815
    1AU     LIG  109   4.029  44.613   5.373
    1AU    AUSL  110   2.873  44.572   8.174
    1AU    AUSL  111   3.115   0.034   8.146
    1AU     AUL  112   2.968  44.883   8.446
    1AU       S  113   2.635  44.558   8.364
    1AU     LIG  114   2.476  44.931   8.635
    1AU     LIG  115   2.419  44.767   9.085
    1AU       S  116   2.714   0.249   8.276
    1AU     LIG  117   2.786   0.537   8.577
    1AU     LIG  118   2.692   0.651   9.002
    1AU    AUSL  119   3.156  44.273   8.347
    1AU    AUSL  120   2.754  44.181   8.042
    1AU     AUL  121   2.849  44.144   8.333
    1AU       S  122   2.534  43.838   8.160
    1AU     LIG  123   2.225  43.664   8.435
    1AU     LIG  124   2.159  43.260   8.615
    1AU       S  125   2.939  44.444   8.663
    1AU     LIG  126   3.042  44.397   9.094
    1AU     LIG  127   2.815  44.365   9.505
    1AU    AUSL  128   2.869  44.504   6.754
    1AU    AUSL  129   3.123  44.197   7.002
    1AU     AUL  130   2.983  44.120   6.679
    1AU       S  131   2.671  44.439   6.494
    1AU     LIG  132   2.342  44.535   6.153
    1AU     LIG  133   2.395  44.564   5.677
    1AU       S  134   2.548  43.904   6.695
    1AU     LIG  135   2.702  43.459   6.661
    1AU     LIG  136   2.661  43.028   6.462
    1AU    AUSL  137   3.221  44.747   6.825
    1AU    AUSL  138   2.771  44.886   6.902
    1AU     AUL  139   2.976  44.789   6.544
    1AU       S  140   2.595   0.028   6.691
    1AU     LIG  141   2.350   0.410   6.517
    1AU     LIG  142   2.331   0.844   6.310
    1AU       S  143   2.771  44.301   6.267
    1AU     LIG  144   2.802  44.703   6.014
    1AU     LIG  145   2.884  44.721   5.554
    1AU    AUSL  146   4.066   0.246   7.555
    1AU    AUSL  147   4.077  44.954   7.122
    1AU     AUL  148   4.231   0.340   7.276
    1AU       S  149   4.328  44.996   6.941
    1AU     LIG  150   4.537  44.949   6.511
    1AU     LIG  151   4.690   0.398   6.420
    1AU       S  152   4.567   0.166   7.965
    1AU     LIG  153   4.932   0.395   7.810
    1AU     LIG  154   5.179   0.523   7.445
    1AU    AUSL  155   4.343  44.914   7.439
    1AU    AUSL  156   4.345  44.528   7.678
    1AU     AUL  157   4.654  44.719   7.554
    1AU       S  158   4.513   0.142   7.675
    1AU     LIG  159   4.828   0.147   7.335
    1AU     LIG  160   5.304   0.080   7.205
    1AU       S  161   4.602  44.245   7.525
    1AU     LIG  162   4.893  44.042   7.764
    1AU     LIG  163   5.315  43.829   7.856
    1AU    AUSL  164   4.078  44.848   7.762
    1AU    AUSL  165   3.749   0.152   7.816
    1AU     AUL  166   4.098   0.254   7.897
    1AU       S  167   4.081   0.436   8.357
    1AU     LIG  168   4.440   0.620   8.173
    1AU     LIG  169   4.675   0.977   8.355
    1AU       S  170   4.423  44.908   7.949
    1AU     LIG  171   4.930  44.843   7.952
    1AU     LIG  172   5.327   0.082   7.911
    1AU    AUSL  173   2.728   0.140   7.519
    1AU    AUSL  174   2.747  44.910   7.942
    1AU     AUL  175   2.466   0.256   7.793
    1AU       S  176   2.607  44.987   8.142
    1AU     LIG  177   2.226   0.225   8.259
    1AU     LIG  178   2.275   0.500   8.631
    1AU       S  179   2.672   0.540   7.472
    1AU     LIG  180   2.209   0.390   7.391
    1AU     LIG  181   1.777   0.533   7.406
    1AU    AUSL  182   2.669  44.771   7.286
    1AU    AUSL  183   2.822   0.259   7.126
    1AU     AUL  184   2.520   0.091   7.167
    1AU       S  185   2.369  44.634   6.931
    1AU     LIG  186   1.969  44.897   7.021
    1AU     LIG  187   1.585   0.105   7.211
    1AU       S  188   2.654   0.470   6.909
    1AU     LIG  189   2.437   0.845   6.824
    1AU     LIG  190   1.996   0.867   6.712
    1AU    AUSL  191   2.449  44.826   7.656
    1AU    AUSL  192   2.445  44.434   7.394
    1AU     AUL  193   2.279  44.757   7.375
    1AU       S  194   2.181  44.385   7.648
    1AU     LIG  195   1.973  44.369   7.231
    1AU     LIG  196   1.625  44.095   7.062
    1AU       S  197   2.206  44.867   7.853
    1AU     LIG  198   1.916   0.202   7.796
    1AU     LIG  199   1.458   0.262   7.695
    1AU    AUSL  200   4.113  44.239   7.461
    1AU    AUSL  201   3.980  44.391   7.849
    1AU     AUL  202   4.308  44.293   7.886
    1AU       S  203   4.405  44.085   7.469
    1AU     LIG  204   4.545  43.702   7.485
    1AU     LIG  205   4.951  43.594   7.540
    1AU       S  206   4.465  43.857   7.997
    1AU     LIG  207   4.540  43.934   8.466
    1AU     LIG  208   4.683  43.774   8.874
    1AU    AUSL  209   4.304  44.548   7.222
    1AU    AUSL  210   4.013  43.951   7.175
    1AU     AUL  211   4.243  44.204   7.055
    1AU       S  212   4.613  44.334   7.289
    1AU     LIG  213   4.851  43.974   7.179
    1AU     LIG  214   5.257  43.992   7.349
    1AU       S  215   4.155  43.756   6.964
    1AU     LIG  216   4.470  43.461   7.029
    1AU     LIG  217   4.670  43.187   6.717
    1AU    AUSL  218   2.797  44.191   7.502
    1AU    AUSL  219   2.702  44.310   7.083
    1AU     AUL  220   2.433  44.114   7.319
    1AU       S  221   2.542  44.153   6.871
    1AU     LIG  222   2.118  43.973   6.929
    1AU     LIG  223   2.013  43.608   6.663
    1AU       S  224   2.100  44.209   7.715
    1AU     LIG  225   1.951  43.889   7.422
    1AU     LIG  226   1.608  43.557   7.327
    1AU    AUSL  227   2.635  44.477   7.782
    1AU    AUSL  228   2.865  43.873   7.760
    1AU     AUL  229   2.558  44.057   7.755
    1AU       S  230   2.685  43.620   7.914
    1AU     LIG  231   2.390  43.237   8.092
    1AU     LIG  232   2.198  42.851   8.312
    1AU       S  233   2.293  44.407   7.896
    1AU     LIG  234   1.809  44.415   8.040
    1AU     LIG  235   1.336  44.301   7.991
    1AU    AUSL  236   3.350   0.330   7.942
    1AU    AUSL  237   2.925   0.296   7.861
    1AU     AUL  238   3.167   0.368   8.242
    1AU       S  239   2.826   0.499   7.962
    1AU     LIG  240   2.486   0.679   8.152
    1AU     LIG  241   2.107   0.870   8.295
    1AU       S  242   3.314   0.736   7.969
    1AU     LIG  243   3.468   0.981   8.310
    1AU     LIG  244   3.386   1.396   8.517
    1AU    AUSL  245   3.162   0.513   7.588
    1AU    AUSL  246   3.507   0.557   7.260
    1AU     AUL  247   3.186   0.782   7.361
    1AU       S  248   3.337   0.961   7.795
    1AU     LIG  249   3.186   1.306   8.033
    1AU     LIG  250   2.897   1.596   8.224
    1AU       S  251   3.479   0.799   6.981
    1AU     LIG  252   3.587   1.121   7.293
    1AU     LIG  253   3.789   1.524   7.128
    1AU    AUSL  254   3.625   0.515   7.661
    1AU    AUSL  255   3.620   0.198   8.235
    1AU     AUL  256   3.705   0.479   8.032
    1AU       S  257   3.829   0.298   8.473
    1AU     LIG  258   4.180   0.338   8.826
    1AU     LIG  259   4.557   0.635   8.771
    1AU       S  260   3.560   0.785   7.698
    1AU     LIG  261   3.803   1.087   7.925
    1AU     LIG  262   3.701   1.490   8.134
    1AU    AUSL  263   3.451  43.893   8.114
    1AU    AUSL  264   4.012  43.936   7.739
    1AU     AUL  265   3.773  43.720   8.034
    1AU       S  266   3.360  43.364   8.044
    1AU     LIG  267   3.196  42.980   8.241
    1AU     LIG  268   3.081  42.726   8.623
    1AU       S  269   4.196  43.805   7.820
    1AU     LIG  270   4.102  43.330   7.941
    1AU     LIG  271   4.391  43.003   8.132
    1AU    AUSL  272   3.261  43.742   7.745
    1AU    AUSL  273   3.175  44.151   7.947
    1AU     AUL  274   3.101  43.810   8.093
    1AU       S  275   3.163  43.444   7.803
    1AU     LIG  276   2.852  43.113   7.889
    1AU     LIG  277   2.994  42.662   7.853
    1AU       S  278   2.666  43.643   8.198
    1AU     LIG  279   2.811  43.288   8.378
    1AU     LIG  280   2.617  43.014   8.679
    1AU    AUSL  281   3.606  43.980   7.690
    1AU    AUSL  282   3.239  43.811   7.332
    1AU     AUL  283   3.564  43.625   7.562
    1AU       S  284   3.171  43.497   7.326
    1AU     LIG  285   2.818  43.382   7.176
    1AU     LIG  286   2.699  43.025   6.969
    1AU       S  287   3.336  43.215   7.791
    1AU     LIG  288   3.658  42.943   7.941
    1AU     LIG  289   3.933  42.623   8.127
    1AU    AUSL  290   3.463   0.289   6.931
    1AU    AUSL  291   3.765   0.218   7.266
    1AU     AUL  292   3.821   0.488   7.041
    1AU       S  293   3.477   0.537   6.709
    1AU     LIG  294   3.598   0.912   6.428
    1AU     LIG  295   3.429   1.364   6.440
    1AU       S  296   4.473   0.257   6.870
    1AU     LIG  297   4.518   0.705   6.866
    1AU     LIG  298   4.723   1.110   6.732
    1AU    AUSL  299   3.207   0.240   7.280
    1AU    AUSL  300   3.095   0.152   6.801
    1AU     AUL  301   3.108   0.472   7.003
    1AU       S  302   3.299   0.863   6.807
    1AU     LIG  303   3.270   1.308   6.938
    1AU     LIG  304   3.423   1.722   6.815
    1AU       S  305   2.851   0.277   6.634
    1AU     LIG  306   2.806   0.679   6.463
    1AU     LIG  307   2.803   0.953   6.085
    1AU    AUSL  308   3.385  43.884   6.920
    1AU    AUSL  309   2.849  43.907   7.193
    1AU     AUL  310   3.083  43.768   6.959
    1AU       S  311   2.618  43.847   6.971
    1AU     LIG  312   2.343  43.494   7.037
    1AU     LIG  313   2.221  43.093   6.808
    1AU       S  314   3.346  43.375   7.111
    1AU     LIG  315   3.140  43.198   6.765
    1AU     LIG  316   3.344  42.930   6.435
    1AU    AUSL  317   3.616  44.001   7.276
    1AU    AUSL  318   3.745  44.088   6.851
    1AU     AUL  319   3.692  43.731   7.057
    1AU       S  320   3.350  43.230   7.296
    1AU     LIG  321   3.435  42.853   6.994
    1AU     LIG  322   3.499  42.494   6.675
    1AU       S  323   3.951  43.948   6.695
    1AU     LIG  324   4.103  43.839   6.262
    1AU     LIG  325   4.399  43.511   6.087
    2AU     AUC  326  30.744  28.720   7.501
    2AU     AUC  327  31.046  28.761   7.335
    2AU     AUC  328  31.021  28.740   7.672
    2AU     AUC  329  30.457  28.701   7.333
    2AU     AUC  330  30.453  28.703   7.684
    2AU     AUC  331  30.552  28.965   7.517
    2AU     AUC  332  30.893  28.997   7.504
    2AU     AUC  333  30.587  28.436   7.504
    2AU     AUC  334  30.949  28.484   7.493
    2AU     AUC  335  30.780  28.554   7.772
    2AU     AUC  336  30.724  28.880   7.779
    2AU     AUC  337  30.766  28.561   7.224
    2AU     AUC  338  30.761  28.897   7.230
    2AU     AUC  339  31.354  28.790   7.182
    2AU     AUC  340  31.390  28.781   7.501
    2AU     AUC  341  31.323  28.746   7.868
    2AU     AUC  342  30.159  28.677   7.157
    2AU     AUC  343  30.117  28.725   7.524
    2AU     AUC  344  30.170  28.692   7.859
    2AU     AUC  345  30.380  29.265   7.498
    2AU     AUC  346  30.723  29.330   7.494
    2AU     AUC  347  31.037  29.315   7.516
    2AU     AUC  348  30.418  28.117   7.511
    2AU     AUC  349  30.765  28.157   7.504
    2AU     AUC  350  31.156  28.204   7.469
    2AU     AUC  351  30.793  28.334   8.060
    2AU     AUC  352  30.739  28.656   8.101
    2AU     AUC  353  30.733  29.033   8.067
    2AU     AUC  354  30.767  28.367   6.936
    2AU     AUC  355  30.763  28.713   6.917
    2AU     AUC  356  30.780  29.072   6.933
    2AU     AUC  357  31.076  28.503   7.970
    2AU     AUC  358  31.042  28.869   8.012
    2AU     AUC  359  31.057  28.579   7.018
    2AU     AUC  360  31.080  28.941   7.010
    2AU     AUC  361  30.450  28.494   7.984
    2AU     AUC  362  30.444  28.852   7.991
    2AU     AUC  363  30.426  28.500   7.051
    2AU     AUC  364  30.432  28.874   7.021
    2AU     AUC  365  31.247  29.056   7.359
    2AU     AUC  366  31.188  29.027   7.714
    2AU     AUC  367  30.263  28.988   7.300
    2AU     AUC  368  30.241  29.008   7.692
    2AU     AUC  369  31.264  28.478   7.308
    2AU     AUC  370  31.273  28.454   7.637
    2AU     AUC  371  30.231  28.414   7.354
    2AU     AUC  372  30.259  28.417   7.684
    2AU     AUC  373  30.541  29.197   7.790
    2AU     AUC  374  30.876  29.203   7.810
    2AU     AUC  375  30.567  28.213   7.777
    2AU     AUC  376  30.978  28.235   7.803
    2AU     AUC  377  30.554  29.157   7.173
    2AU     AUC  378  30.946  29.201   7.180
    2AU     AUC  379  30.557  28.230   7.228
    2AU     AUC  380  30.945  28.265   7.176
    2AU    AUSL  381  31.324  28.649   8.225
    2AU    AUSL  382  31.187  28.178   8.099
    2AU     AUL  383  31.453  28.278   8.290
    2AU       S  384  31.583  27.871   8.122
    2AU     LIG  385  31.477  27.534   8.393
    2AU     LIG  386  31.697  27.373   8.768
    2AU       S  387  31.582  28.711   8.383
    2AU     LIG  388  31.560  28.878   8.778
    2AU     LIG  389  31.679  28.640   9.156
    2AU    AUSL  390  30.934  28.459   8.310
    2AU    AUSL  391  30.595  28.786   8.383
    2AU     AUL  392  30.785  28.633   8.643
    2AU       S  393  31.219  28.450   8.643
    2AU     LIG  394  31.161  28.635   9.017
    2AU     LIG  395  31.254  28.570   9.457
    2AU       S  396  30.069  28.604   8.685
    2AU     LIG  397  30.310  28.944   8.944
    2AU     LIG  398  30.303  28.908   9.402
    2AU    AUSL  399  30.939  28.876   8.173
    2AU    AUSL  400  31.346  29.069   8.141
    2AU     AUL  401  31.157  28.892   8.466
    2AU       S  402  30.769  29.138   8.625
    2AU     LIG  403  31.108  29.130   8.910
    2AU     LIG  404  31.390  29.052   9.252
    2AU       S  405  31.474  29.224   8.357
    2AU     LIG  406  31.904  29.235   8.378
    2AU     LIG  407  32.277  29.504   8.220
    2AU    AUSL  408  31.313  28.829   6.771
    2AU    AUSL  409  31.196  29.267   6.836
    2AU     AUL  410  31.342  29.106   6.512
    2AU       S  411  31.229  28.694   6.309
    2AU     LIG  412  31.638  28.746   6.096
    2AU     LIG  413  31.759  28.474   5.717
    2AU       S  414  31.549  29.406   6.800
    2AU     LIG  415  31.516  29.581   6.408
    2AU     LIG  416  31.780  29.881   6.164
    2AU    AUSL  417  30.972  28.579   6.727
    2AU    AUSL  418  31.294  28.504   7.055
    2AU     AUL  419  31.403  28.524   6.700
    2AU       S  420  31.373  27.746   6.689
    2AU     LIG  421  31.772  27.609   6.496
    2AU     LIG  422  32.094  27.372   6.231
    2AU       S  423  31.050  28.378   6.390
    2AU     LIG  424  31.016  28.153   5.930
    2AU     LIG  425  31.319  28.157   5.539
    2AU    AUSL  426  30.905  29.008   6.660
    2AU    AUSL  427  30.592  28.437   6.628
    2AU     AUL  428  30.769  28.747   6.426
    2AU       S  429  30.391  28.466   6.311
    2AU     LIG  430  30.427  28.337   5.863
    2AU     LIG  431  30.079  28.376   5.537
    2AU       S  432  31.297  28.405   6.239
    2AU     LIG  433  31.246  28.598   5.803
    2AU     LIG  434  31.433  28.694   5.378
    2AU    AUSL  435  30.233  28.662   8.183
    2AU    AUSL  436  30.472  29.110   8.144
    2AU     AUL  437  30.332  28.974   8.449
    2AU       S  438  29.992  28.657   8.382
    2AU     LIG  439  29.861  29.043   8.654
    2AU     LIG  440  29.829  28.930   9.111
    2AU       S  441  30.064  29.336   8.283
    2AU     LIG  442  30.042  29.572   8.625
    2AU     LIG  443  29.926  30.024   8.703
    2AU    AUSL  444  30.518  28.360   8.351
    2AU    AUSL  445  30.121  28.269   8.049
    2AU     AUL  446  30.192  28.241   8.342
    2AU       S  447  29.970  27.852   8.165
    2AU     LIG  448  29.647  27.742   8.474
    2AU     LIG  449  29.273  27.468   8.578
    2AU       S  450  30.308  28.532   8.672
    2AU     LIG  451  30.410  28.469   9.110
    2AU     LIG  452  30.272  28.390   9.560
    2AU    AUSL  453  30.215  28.594   6.768
    2AU    AUSL  454  30.475  28.286   7.010
    2AU     AUL  455  30.331  28.201   6.692
    2AU       S  456  30.024  28.524   6.516
    2AU     LIG  457  29.709  28.695   6.213
    2AU     LIG  458  29.656  28.674   5.732
    2AU       S  459  29.890  27.991   6.715
    2AU     LIG  460  29.888  27.561   6.510
    2AU     LIG  461  29.908  27.418   6.035
    2AU    AUSL  462  30.566  28.840   6.832
    2AU    AUSL  463  30.118  28.979   6.911
    2AU     AUL  464  30.320  28.882   6.552
    2AU       S  465  29.943  29.113   6.717
    2AU     LIG  466  29.606  29.416   6.645
    2AU     LIG  467  29.450  29.789   6.406
    2AU       S  468  30.116  28.393   6.273
    2AU     LIG  469  30.139  28.748   5.946
    2AU     LIG  470  30.065  28.893   5.490
    2AU    AUSL  471  31.421  29.339   7.557
    2AU    AUSL  472  31.427  29.049   7.117
    2AU     AUL  473  31.583  29.433   7.272
    2AU       S  474  31.673  29.098   6.936
    2AU     LIG  475  31.828  29.010   6.510
    2AU     LIG  476  31.968  29.380   6.264
    2AU       S  477  31.931  29.313   7.879
    2AU     LIG  478  32.173  29.670   7.718
    2AU     LIG  479  32.505  29.957   7.527
    2AU    AUSL  480  31.694  29.005   7.433
    2AU    AUSL  481  31.704  28.618   7.672
    2AU     AUL  482  32.009  28.806   7.524
    2AU       S  483  31.860  29.217   7.668
    2AU     LIG  484  32.104  29.298   7.329
    2AU     LIG  485  32.458  29.549   7.210
    2AU       S  486  31.976  28.324   7.534
    2AU     LIG  487  32.261  28.008   7.735
    2AU     LIG  488  32.624  27.785   7.974
    2AU    AUSL  489  31.435  28.937   7.758
    2AU    AUSL  490  31.103  29.244   7.817
    2AU     AUL  491  31.451  29.346   7.900
    2AU       S  492  31.437  29.529   8.362
    2AU     LIG  493  31.791  29.704   8.163
    2AU     LIG  494  32.124  30.008   8.275
    2AU       S  495  31.783  29.006   7.932
    2AU     LIG  496  32.279  28.988   7.919
    2AU     LIG  497  32.539  29.316   7.693
    2AU    AUSL  498  30.086  29.222   7.528
    2AU    AUSL  499  30.097  28.996   7.951
    2AU     AUL  500  29.823  29.343   7.798
    2AU       S  501  29.963  29.078   8.152
    2AU     LIG  502  29.579  29.323   8.263
    2AU     LIG  503  29.534  29.682   8.561
    2AU       S  504  30.023  29.629   7.481
    2AU     LIG  505  29.530  29.498   7.423
    2AU     LIG  506  29.089  29.598   7.639
    2AU    AUSL  507  30.013  28.856   7.291
    2AU    AUSL  508  30.167  29.350   7.135
    2AU     AUL  509  29.865  29.184   7.191
    2AU       S  510  29.719  28.723   6.941
    2AU     LIG  511  29.398  29.101   7.022
    2AU     LIG  512  29.013  29.326   7.212
    2AU       S  513  29.992  29.564   6.920
    2AU     LIG  514  29.722  29.939   6.829
    2AU     LIG  515  29.406  30.253   6.652
    2AU    AUSL  516  29.801  28.913   7.663
    2AU    AUSL  517  29.796  28.516   7.408
    2AU     AUL  518  29.618  28.835   7.383
    2AU       S  519  29.546  28.457   7.665
    2AU     LIG  520  29.279  28.448   7.318
    2AU     LIG  521  28.993  28.150   7.123
    2AU       S  522  29.565  28.957   7.855
    2AU     LIG  523  29.211  29.087   7.635
    2AU     LIG  524  28.805  29.131   7.882
    2AU    AUSL  525  31.472  28.325   7.455
    2AU    AUSL  526  31.340  28.481   7.843
    2AU     AUL  527  31.665  28.362   7.877
    2AU       S  528  31.770  28.152   7.458
    2AU     LIG  529  31.896  27.704   7.469
    2AU     LIG  530  32.136  27.362   7.261
    2AU       S  531  31.825  27.899   7.951
    2AU     LIG  532  32.000  27.670   8.333
    2AU     LIG  533  32.176  27.553   8.765
    2AU    AUSL  534  31.656  28.639   7.217
    2AU    AUSL  535  31.371  28.060   7.146
    2AU     AUL  536  31.607  28.311   7.051
    2AU       S  537  31.982  28.388   7.301
    2AU     LIG  538  32.245  28.000   7.216
    2AU     LIG  539  32.704  27.892   7.098
    2AU       S  540  31.502  27.875   6.906
    2AU     LIG  541  31.716  27.479   6.997
    2AU     LIG  542  32.069  27.263   6.757
    2AU    AUSL  543  30.152  28.281   7.515
    2AU    AUSL  544  30.053  28.394   7.095
    2AU     AUL  545  29.796  28.188   7.347
    2AU       S  546  29.894  28.240   6.895
    2AU     LIG  547  29.476  28.057   6.979
    2AU     LIG  548  29.356  27.705   6.721
    2AU       S  549  29.458  28.282   7.789
    2AU     LIG  550  29.340  27.951   7.472
    2AU     LIG  551  29.137  27.620   7.180
    2AU    AUSL  552  29.988  28.566   7.796
    2AU    AUSL  553  30.231  27.960   7.764
    2AU     AUL  554  29.919  28.142   7.790
    2AU       S  555  30.076  27.693   7.884
    2AU     LIG  556  29.658  27.436   8.068
    2AU     LIG  557  29.493  27.061   8.331
    2AU       S  558  29.650  28.501   7.910
    2AU     LIG  559  29.133  28.637   7.878
    2AU     LIG  560  28.821  28.293   7.771
    2AU    AUSL  561  30.703  29.416   7.953
    2AU    AUSL  562  30.278  29.381   7.871
    2AU     AUL  563  30.518  29.436   8.255
    2AU       S  564  30.174  29.590   7.985
    2AU     LIG  565  29.876  29.844   8.200
    2AU     LIG  566  29.734  30.300   8.291
    2AU       S  567  30.653  29.818   8.000
    2AU     LIG  568  30.755  30.167   8.291
    2AU     LIG  569  30.627  30.596   8.425
    2AU    AUSL  570  30.514  29.602   7.602
    2AU    AUSL  571  30.857  29.647   7.272
    2AU     AUL  572  30.538  29.863   7.373
    2AU       S  573  30.631  30.047   7.821
    2AU     LIG  574  30.578  30.505   7.914
    2AU     LIG  575  30.800  30.905   8.045
    2AU       S  576  30.817  29.881   6.986
    2AU     LIG  577  30.927  30.189   7.298
    2AU     LIG  578  30.902  30.644   7.199
    2AU    AUSL  579  30.973  29.611   7.673
    2AU    AUSL  580  30.979  29.284   8.239
    2AU     AUL  581  31.057  29.568   8.037
    2AU       S  582  31.186  29.386   8.477
    2AU     LIG  583  31.550  29.400   8.819
    2AU     LIG  584  31.929  29.655   8.673
    2AU       S  585  30.891  29.896   7.730
    2AU     LIG  586  31.063  30.319   7.873
    2AU     LIG  587  31.271  30.735   7.985
    2AU    AUSL  588  30.813  27.990   8.123
    2AU    AUSL  589  31.367  28.019   7.728
    2AU     AUL  590  31.126  27.802   8.020
    2AU       S  591  30.708  27.489   8.133
    2AU     LIG  592  30.429  27.189   8.290
    2AU     LIG  593  30.508  26.768   8.434
    2AU       S  594  31.552  27.876   7.806
    2AU     LIG  595  31.677  27.426   7.935
    2AU     LIG  596  31.864  27.180   8.308
    2AU    AUSL  597  30.627  27.831   7.760
    2AU    AUSL  598  30.538  28.244   7.949
    2AU     AUL  599  30.457  27.916   8.108
    2AU       S  600  30.577  27.547   7.853
    2AU     LIG  601  30.305  27.231   7.778
    2AU     LIG  602  30.350  26.832   7.945
    2AU       S  603  30.122  27.567   8.160
    2AU     LIG  604  29.919  27.285   8.502
    2AU     LIG  605  29.583  27.167   8.857
    2AU    AUSL  606  30.962  28.076   7.689
    2AU    AUSL  607  30.597  27.915   7.349
    2AU     AUL  608  30.916  27.719   7.553
    2AU       S  609  30.467  27.593   7.376
    2AU     LIG  610  30.195  27.285   7.235
    2AU     LIG  611  30.392  26.887   7.066
    2AU       S  612  30.782  27.382   7.920
    2AU     LIG  613  30.837  26.971   7.832
    2AU     LIG  614  30.991  26.626   8.082
    2AU    AUSL  615  30.808  29.382   6.942
    2AU    AUSL  616  31.116  29.310   7.272
    2AU     AUL  617  31.169  29.583   7.049
    2AU       S  618  30.825  29.586   6.712
    2AU     LIG  619  31.176  29.891   6.644
    2AU     LIG  620  31.044  30.319   6.798
    2AU       S  621  31.844  29.352   6.861
    2AU     LIG  622  31.937  29.758   6.656
    2AU     LIG  623  32.146  30.152   6.481
    2AU    AUSL  624  30.552  29.334   7.290
    2AU    AUSL  625  30.441  29.245   6.809
    2AU     AUL  626  30.451  29.566   7.009
    2AU       S  627  30.681  29.908   6.744
    2AU     LIG  628  30.529  30.314   6.988
    2AU     LIG  629  30.425  30.796   6.948
    2AU       S  630  30.183  29.376   6.643
    2AU     LIG  631  29.975  29.733   6.424
    2AU     LIG  632  29.802  30.176   6.331
    2AU    AUSL  633  30.735  27.970   6.931
    2AU    AUSL  634  30.206  27.995   7.207
    2AU     AUL  635  30.443  27.851   6.983
    2AU       S  636  29.976  27.927   6.982
    2AU     LIG  637  29.751  27.535   7.016
    2AU     LIG  638  29.482  27.207   6.772
    2AU       S  639  30.690  27.454   7.174
    2AU     LIG  640  30.438  27.324   6.790
    2AU     LIG  641  30.346  26.910   6.533
    2AU    AUSL  642  30.980  28.091   7.274
    2AU    AUSL  643  31.081  28.191   6.844
    2AU     AUL  644  31.050  27.827   7.052
    2AU       S  645  30.658  27.312   7.419
    2AU     LIG  646  30.939  26.967   7.308
    2AU     LIG  647  31.034  26.798   6.880
    2AU       S  648  31.282  28.043   6.668
    2AU     LIG  649  31.409  27.889   6.213
    2AU     LIG  650  31.600  27.467   6.025
    3AU     AUC  651  13.911   5.014   7.500
    3AU     AUC  652  14.214   5.054   7.333
    3AU     AUC  653  14.187   5.033   7.670
    3AU     AUC  654  13.623   4.998   7.331
    3AU     AUC  655  13.622   4.998   7.682
    3AU     AUC  656  13.722   5.259   7.517
    3AU     AUC  657  14.062   5.290   7.505
    3AU     AUC  658  13.750   4.731   7.502
    3AU     AUC  659  14.112   4.777   7.492
    3AU     AUC  660  13.943   4.844   7.772
    3AU     AUC  661  13.893   5.172   7.781
    3AU     AUC  662  13.933   4.856   7.222
    3AU     AUC  663  13.930   5.191   7.229
    3AU     AUC  664  14.523   5.084   7.183
    3AU     AUC  665  14.559   5.075   7.501
    3AU     AUC  666  14.491   5.036   7.866
    3AU     AUC  667  13.326   4.978   7.152
    3AU     AUC  668  13.286   5.023   7.521
    3AU     AUC  669  13.338   4.989   7.859
    3AU     AUC  670  13.551   5.559   7.499
    3AU     AUC  671  13.894   5.623   7.496
    3AU     AUC  672  14.208   5.607   7.518
    3AU     AUC  673  13.574   4.414   7.506
    3AU     AUC  674  13.921   4.452   7.499
    3AU     AUC  675  14.315   4.500   7.466
    3AU     AUC  676  13.956   4.623   8.056
    3AU     AUC  677  13.907   4.947   8.100
    3AU     AUC  678  13.905   5.325   8.069
    3AU     AUC  679  13.935   4.663   6.933
    3AU     AUC  680  13.933   5.007   6.914
    3AU     AUC  681  13.950   5.365   6.931
    3AU     AUC  682  14.243   4.792   7.966
    3AU     AUC  683  14.212   5.157   8.013
    3AU     AUC  684  14.227   4.871   7.019
    3AU     AUC  685  14.251   5.233   7.009
    3AU     AUC  686  13.615   4.789   7.984
    3AU     AUC  687  13.614   5.147   7.990
    3AU     AUC  688  13.593   4.800   7.046
    3AU     AUC  689  13.601   5.170   7.017
    3AU     AUC  690  14.416   5.350   7.358
    3AU     AUC  691  14.356   5.319   7.714
    3AU     AUC  692  13.430   5.285   7.299
    3AU     AUC  693  13.411   5.305   7.691
    3AU     AUC  694  14.432   4.770   7.309
    3AU     AUC  695  14.438   4.746   7.633
    3AU     AUC  696  13.394   4.714   7.349
    3AU     AUC  697  13.423   4.713   7.682
    3AU     AUC  698  13.713   5.491   7.791
    3AU     AUC  699  14.048   5.494   7.812
    3AU     AUC  700  13.723   4.508   7.776
    3AU     AUC  701  14.138   4.527   7.796
    3AU     AUC  702  13.723   5.450   7.173
    3AU     AUC  703  14.114   5.494   7.181
    3AU     AUC  704  13.717   4.529   7.222
    3AU     AUC  705  14.109   4.559   7.174
    3AU    AUSL  706  14.498   4.929   8.224
    3AU    AUSL  707  14.356   4.464   8.089
    3AU     AUL  708  14.638   4.525   8.311
    3AU       S  709  14.784   4.175   8.054
    3AU     LIG  710  14.640   3.993   8.402
    3AU     LIG  711  14.766   3.767   8.779
    3AU       S  712  14.727   4.967   8.320
    3AU     LIG  713  14.795   5.137   8.708
    3AU     LIG  714  14.970   4.938   9.078
    3AU    AUSL  715  14.098   4.747   8.297
    3AU    AUSL  716  13.765   5.080   8.383
    3AU     AUL  717  13.938   4.949   8.651
    3AU       S  718  14.266   4.661   8.528
    3AU     LIG  719  14.410   4.864   8.891
    3AU     LIG  720  14.524   4.791   9.336
    3AU       S  721  13.241   4.887   8.680
    3AU     LIG  722  13.486   5.248   8.938
    3AU     LIG  723  13.492   5.224   9.396
    3AU    AUSL  724  14.113   5.165   8.175
    3AU    AUSL  725  14.517   5.352   8.142
    3AU     AUL  726  14.332   5.168   8.469
    3AU       S  727  13.937   5.437   8.623
    3AU     LIG  728  14.252   5.358   8.922
    3AU     LIG  729  14.605   5.280   9.188
    3AU       S  730  14.653   5.496   8.350
    3AU     LIG  731  15.092   5.424   8.412
    3AU     LIG  732  15.514   5.610   8.521
    3AU    AUSL  733  14.484   5.118   6.777
    3AU    AUSL  734  14.365   5.561   6.836
    3AU     AUL  735  14.538   5.383   6.524
    3AU       S  736  14.400   4.988   6.307
    3AU     LIG  737  14.806   5.040   6.093
    3AU     LIG  738  14.907   4.821   5.685
    3AU       S  739  14.693   5.717   6.800
    3AU     LIG  740  14.638   5.894   6.427
    3AU     LIG  741  14.961   6.071   6.145
    3AU    AUSL  742  14.143   4.868   6.728
    3AU    AUSL  743  14.465   4.793   7.059
    3AU     AUL  744  14.572   4.818   6.698
    3AU       S  745  14.560   4.065   6.698
    3AU     LIG  746  14.935   4.248   6.494
    3AU     LIG  747  15.228   4.161   6.133
    3AU       S  748  14.219   4.664   6.395
    3AU     LIG  749  14.148   4.475   5.933
    3AU     LIG  750  14.426   4.466   5.540
    3AU    AUSL  751  14.082   5.298   6.655
    3AU    AUSL  752  13.764   4.731   6.623
    3AU     AUL  753  13.946   5.038   6.424
    3AU       S  754  13.575   4.755   6.310
    3AU     LIG  755  13.663   4.688   5.873
    3AU     LIG  756  13.380   4.736   5.510
    3AU       S  757  14.447   4.721   6.233
    3AU     LIG  758  14.397   4.912   5.797
    3AU     LIG  759  14.527   4.938   5.334
    3AU    AUSL  760  13.405   4.958   8.181
    3AU    AUSL  761  13.643   5.403   8.143
    3AU     AUL  762  13.501   5.266   8.448
    3AU       S  763  13.162   4.946   8.380
    3AU     LIG  764  13.022   5.314   8.667
    3AU     LIG  765  13.030   5.129   9.119
    3AU       S  766  13.232   5.622   8.283
    3AU     LIG  767  13.239   5.787   8.650
    3AU     LIG  768  13.042   6.164   8.821
    3AU    AUSL  769  13.686   4.655   8.354
    3AU    AUSL  770  13.275   4.570   8.053
    3AU     AUL  771  13.377   4.534   8.343
    3AU       S  772  13.056   4.236   8.173
    3AU     LIG  773  12.732   4.089   8.461
    3AU     LIG  774  12.499   3.841   8.770
    3AU       S  775  13.470   4.830   8.674
    3AU     LIG  776  13.511   4.770   9.120
    3AU     LIG  777  13.331   4.727   9.549
    3AU    AUSL  778  13.388   4.892   6.756
    3AU    AUSL  779  13.640   4.588   7.007
    3AU     AUL  780  13.491   4.501   6.688
    3AU       S  781  13.198   4.835   6.508
    3AU     LIG  782  12.955   5.098   6.225
    3AU     LIG  783  12.969   5.004   5.747
    3AU       S  784  13.019   4.375   6.688
    3AU     LIG  785  13.151   3.971   6.538
    3AU     LIG  786  12.901   3.588   6.479
    3AU    AUSL  787  13.739   5.137   6.827
    3AU    AUSL  788  13.288   5.271   6.906
    3AU     AUL  789  13.505   5.180   6.544
    3AU       S  790  13.123   5.388   6.710
    3AU     LIG  791  12.746   5.616   6.689
    3AU     LIG  792  12.503   5.875   6.402
    3AU       S  793  13.302   4.722   6.260
    3AU     LIG  794  13.411   5.117   6.004
    3AU     LIG  795  13.397   5.253   5.549
    3AU    AUSL  796  14.590   5.634   7.558
    3AU    AUSL  797  14.601   5.347   7.116
    3AU     AUL  798  14.753   5.728   7.267
    3AU       S  799  14.847   5.390   6.936
    3AU     LIG  800  15.232   5.297   6.665
    3AU     LIG  801  15.341   5.660   6.385
    3AU       S  802  15.102   5.510   7.859
    3AU     LIG  803  15.452   5.817   7.772
    3AU     LIG  804  15.850   5.852   7.503
    3AU    AUSL  805  14.863   5.301   7.436
    3AU    AUSL  806  14.871   4.912   7.681
    3AU     AUL  807  15.164   5.107   7.544
    3AU       S  808  15.045   5.543   7.630
    3AU     LIG  809  15.279   5.496   7.216
    3AU     LIG  810  15.745   5.478   7.110
    3AU       S  811  15.143   4.634   7.548
    3AU     LIG  812  15.458   4.394   7.759
    3AU     LIG  813  15.916   4.252   7.811
    3AU    AUSL  814  14.601   5.229   7.756
    3AU    AUSL  815  14.275   5.534   7.820
    3AU     AUL  816  14.632   5.631   7.898
    3AU       S  817  14.614   5.805   8.368
    3AU     LIG  818  15.016   5.873   8.187
    3AU     LIG  819  15.424   6.058   8.279
    3AU       S  820  14.964   5.296   7.945
    3AU     LIG  821  15.491   5.358   8.086
    3AU     LIG  822  15.885   5.599   7.983
    3AU    AUSL  823  13.252   5.523   7.529
    3AU    AUSL  824  13.269   5.292   7.949
    3AU     AUL  825  12.993   5.642   7.802
    3AU       S  826  13.134   5.367   8.149
    3AU     LIG  827  12.742   5.541   8.275
    3AU     LIG  828  12.709   5.797   8.645
    3AU       S  829  13.214   5.924   7.487
    3AU     LIG  830  12.766   5.837   7.398
    3AU     LIG  831  12.373   6.012   7.547
    3AU    AUSL  832  13.180   5.161   7.290
    3AU    AUSL  833  13.336   5.641   7.134
    3AU     AUL  834  13.034   5.482   7.179
    3AU       S  835  12.876   5.030   6.945
    3AU     LIG  836  12.504   5.361   7.051
    3AU     LIG  837  12.393   5.823   7.031
    3AU       S  838  13.167   5.843   6.884
    3AU     LIG  839  12.918   6.112   6.604
    3AU     LIG  840  12.617   6.410   6.374
    3AU    AUSL  841  12.969   5.211   7.665
    3AU    AUSL  842  12.963   4.821   7.405
    3AU     AUL  843  12.789   5.146   7.387
    3AU       S  844  12.715   4.768   7.657
    3AU     LIG  845  12.498   4.754   7.226
    3AU     LIG  846  12.172   4.563   6.959
    3AU       S  847  12.729   5.256   7.856
    3AU     LIG  848  12.455   5.553   7.737
    3AU     LIG  849  12.012   5.732   7.833
    3AU    AUSL  850  14.649   4.624   7.452
    3AU    AUSL  851  14.501   4.771   7.837
    3AU     AUL  852  14.820   4.645   7.886
    3AU       S  853  14.941   4.482   7.455
    3AU     LIG  854  15.158   4.132   7.372
    3AU     LIG  855  15.574   3.966   7.508
    3AU       S  856  15.001   4.170   7.867
    3AU     LIG  857  15.185   4.067   8.309
    3AU     LIG  858  15.279   3.813   8.688
    3AU    AUSL  859  14.825   4.938   7.215
    3AU    AUSL  860  14.531   4.344   7.164
    3AU     AUL  861  14.770   4.599   7.045
    3AU       S  862  15.141   4.713   7.291
    3AU     LIG  863  15.523   4.486   7.247
    3AU     LIG  864  15.918   4.296   7.279
    3AU       S  865  14.666   4.153   6.951
    3AU     LIG  866  15.023   3.905   6.870
    3AU     LIG  867  15.102   3.746   6.439
    3AU    AUSL  868  13.315   4.575   7.503
    3AU    AUSL  869  13.218   4.705   7.088
    3AU     AUL  870  12.955   4.501   7.323
    3AU       S  871  13.044   4.555   6.876
    3AU     LIG  872  12.623   4.300   6.989
    3AU     LIG  873  12.423   3.958   6.719
    3AU       S  874  12.589   4.782   7.778
    3AU     LIG  875  12.543   4.325   7.542
    3AU     LIG  876  12.176   4.181   7.307
    3AU    AUSL  877  13.165   4.865   7.787
    3AU    AUSL  878  13.380   4.263   7.769
    3AU     AUL  879  13.065   4.452   7.764
    3AU       S  880  13.207   4.025   7.918
    3AU     LIG  881  12.738   3.895   7.977
    3AU     LIG  882  12.556   3.617   8.304
    3AU       S  883  12.838   4.808   7.944
    3AU     LIG  884  12.557   4.386   8.054
    3AU     LIG  885  12.152   4.213   7.848
    3AU    AUSL  886  13.878   5.711   7.957
    3AU    AUSL  887  13.452   5.677   7.872
    3AU     AUL  888  13.687   5.725   8.258
    3AU       S  889  13.341   5.890   7.996
    3AU     LIG  890  12.948   6.020   8.217
    3AU     LIG  891  12.670   6.295   8.470
    3AU       S  892  13.831   6.103   8.008
    3AU     LIG  893  14.142   6.343   8.240
    3AU     LIG  894  14.267   6.782   8.339
    3AU    AUSL  895  13.692   5.899   7.606
    3AU    AUSL  896  14.029   5.939   7.274
    3AU     AUL  897  13.734   6.171   7.379
    3AU       S  898  13.815   6.340   7.847
    3AU     LIG  899  13.787   6.751   8.106
    3AU     LIG  900  13.865   7.104   8.426
    3AU       S  901  13.976   6.166   6.959
    3AU     LIG  902  14.202   6.531   7.059
    3AU     LIG  903  14.433   6.902   6.843
    3AU    AUSL  904  14.149   5.901   7.675
    3AU    AUSL  905  14.153   5.573   8.242
    3AU     AUL  906  14.238   5.856   8.039
    3AU       S  907  14.357   5.663   8.479
    3AU     LIG  908  14.692   5.636   8.824
    3AU     LIG  909  15.090   5.840   8.716
    3AU       S  910  14.076   6.194   7.739
    3AU     LIG  911  14.208   6.672   7.822
    3AU     LIG  912  14.128   7.141   7.978
    3AU    AUSL  913  13.978   4.277   8.109
    3AU    AUSL  914  14.520   4.312   7.704
    3AU     AUL  915  14.306   4.098   8.011
    3AU       S  916  13.780   3.737   8.127
    3AU     LIG  917  13.591   3.369   8.393
    3AU     LIG  918  13.671   2.888   8.507
    3AU       S  919  14.704   4.158   7.735
    3AU     LIG  920  14.727   3.711   7.933
    3AU     LIG  921  14.967   3.584   8.319
    3AU    AUSL  922  13.773   4.124   7.749
    3AU    AUSL  923  13.696   4.536   7.952
    3AU     AUL  924  13.621   4.202   8.101
    3AU       S  925  13.692   3.824   7.831
    3AU     LIG  926  13.518   3.395   7.868
    3AU     LIG  927  13.807   3.079   8.037
    3AU       S  928  13.185   4.031   8.212
    3AU     LIG  929  13.106   3.637   8.355
    3AU     LIG  930  12.883   3.418   8.693
    3AU    AUSL  931  14.114   4.364   7.685
    3AU    AUSL  932  13.749   4.215   7.339
    3AU     AUL  933  14.062   4.011   7.547
    3AU       S  934  13.616   3.878   7.354
    3AU     LIG  935  13.356   3.474   7.242
    3AU     LIG  936  13.425   3.038   7.031
    3AU       S  937  13.957   3.686   7.911
    3AU     LIG  938  14.103   3.314   7.702
    3AU     LIG  939  14.289   2.927   7.913
    3AU    AUSL  940  13.976   5.671   6.946
    3AU    AUSL  941  14.286   5.600   7.272
    3AU     AUL  942  14.331   5.881   7.054
    3AU       S  943  13.993   5.872   6.713
    3AU     LIG  944  14.291   6.260   6.597
    3AU     LIG  945  14.036   6.676   6.596
    3AU       S  946  14.936   5.649   6.809
    3AU     LIG  947  15.091   6.050   6.653
    3AU     LIG  948  15.366   6.340   6.390
    3AU    AUSL  949  13.720   5.630   7.294
    3AU    AUSL  950  13.610   5.541   6.808
    3AU     AUL  951  13.616   5.862   7.023
    3AU       S  952  13.818   6.153   6.692
    3AU     LIG  953  13.655   6.534   6.936
    3AU     LIG  954  13.563   6.981   6.881
    3AU       S  955  13.376   5.663   6.640
    3AU     LIG  956  13.075   5.710   6.304
    3AU     LIG  957  12.872   6.058   6.071
    3AU    AUSL  958  13.897   4.272   6.922
    3AU    AUSL  959  13.362   4.298   7.187
    3AU     AUL  960  13.602   4.153   6.973
    3AU       S  961  13.131   4.244   6.956
    3AU     LIG  962  12.874   3.838   6.963
    3AU     LIG  963  12.573   3.466   6.850
    3AU       S  964  13.839   3.759   7.162
    3AU     LIG  965  13.691   3.462   6.854
    3AU     LIG  966  13.861   3.054   6.698
    3AU    AUSL  967  14.136   4.386   7.271
    3AU    AUSL  968  14.254   4.480   6.847
    3AU     AUL  969  14.205   4.118   7.052
    3AU       S  970  13.811   3.608   7.391
    3AU     LIG  971  14.082   3.305   7.133
    3AU     LIG  972  14.345   2.952   6.879
    3AU       S  973  14.450   4.341   6.688
    3AU     LIG  974  14.505   4.221   6.224
    3AU     LIG  975  14.785   3.909   6.020
    4AU     AUC  976  15.391  17.160   7.499
    4AU     AUC  977  15.688  17.199   7.335
    4AU     AUC  978  15.666  17.190   7.672
    4AU     AUC  979  15.098  17.148   7.330
    4AU     AUC  980  15.116  17.135   7.680
    4AU     AUC  981  15.196  17.406   7.523
    4AU     AUC  982  15.534  17.440   7.506
    4AU     AUC  983  15.233  16.870   7.487
    4AU     AUC  984  15.598  16.925   7.502
    4AU     AUC  985  15.442  16.990   7.763
    4AU     AUC  986  15.375  17.319   7.789
    4AU     AUC  987  15.410  17.003   7.221
    4AU     AUC  988  15.391  17.336   7.227
    4AU     AUC  989  16.003  17.217   7.185
    4AU     AUC  990  16.036  17.220   7.502
    4AU     AUC  991  15.973  17.203   7.874
    4AU     AUC  992  14.800  17.136   7.160
    4AU     AUC  993  14.772  17.146   7.526
    4AU     AUC  994  14.833  17.106   7.864
    4AU     AUC  995  15.018  17.705   7.520
    4AU     AUC  996  15.362  17.770   7.495
    4AU     AUC  997  15.680  17.759   7.514
    4AU     AUC  998  15.076  16.561   7.472
    4AU     AUC  999  15.427  16.560   7.483
    4AU     AUC 1000  15.787  16.625   7.463
    4AU     AUC 1001  15.470  16.771   8.045
    4AU     AUC 1002  15.397  17.092   8.094
    4AU     AUC 1003  15.380  17.473   8.072
    4AU     AUC 1004  15.421  16.817   6.925
    4AU     AUC 1005  15.403  17.157   6.925
    4AU     AUC 1006  15.404  17.526   6.944
    4AU     AUC 1007  15.733  16.955   7.978
    4AU     AUC 1008  15.694  17.320   8.017
    4AU     AUC 1009  15.713  16.997   7.023
    4AU     AUC 1010  15.732  17.364   7.028
    4AU     AUC 1011  15.114  16.913   7.974
    4AU     AUC 1012  15.098  17.282   7.998
    4AU     AUC 1013  15.079  16.985   7.029
    4AU     AUC 1014  15.066  17.338   7.020
    4AU     AUC 1015  15.887  17.497   7.356
    4AU     AUC 1016  15.834  17.473   7.711
    4AU     AUC 1017  14.899  17.433   7.319
    4AU     AUC 1018  14.893  17.436   7.710
    4AU     AUC 1019  15.907  16.906   7.327
    4AU     AUC 1020  15.913  16.912   7.641
    4AU     AUC 1021  14.877  16.855   7.333
    4AU     AUC 1022  14.925  16.831   7.655
    4AU     AUC 1023  15.183  17.631   7.805
    4AU     AUC 1024  15.525  17.642   7.811
    4AU     AUC 1025  15.279  16.646   7.744
    4AU     AUC 1026  15.639  16.658   7.773
    4AU     AUC 1027  15.182  17.605   7.185
    4AU     AUC 1028  15.582  17.644   7.189
    4AU     AUC 1029  15.179  16.684   7.194
    4AU     AUC 1030  15.581  16.701   7.179
    4AU    AUSL 1031  15.988  17.103   8.246
    4AU    AUSL 1032  15.886  16.633   8.144
    4AU     AUL 1033  16.171  16.715   8.340
    4AU       S 1034  16.211  16.375   8.011
    4AU     LIG 1035  16.142  16.163   8.374
    4AU     LIG 1036  16.245  15.828   8.688
    4AU       S 1037  16.234  17.166   8.386
    4AU     LIG 1038  16.161  17.226   8.825
    4AU     LIG 1039  16.202  16.938   9.189
    4AU    AUSL 1040  15.590  16.907   8.292
    4AU    AUSL 1041  15.238  17.202   8.350
    4AU     AUL 1042  15.429  17.085   8.618
    4AU       S 1043  15.843  16.874   8.623
    4AU     LIG 1044  15.714  17.023   9.031
    4AU     LIG 1045  15.758  16.927   9.484
    4AU       S 1046  14.715  16.967   8.678
    4AU     LIG 1047  14.909  17.313   8.958
    4AU     LIG 1048  14.889  17.465   9.390
    4AU    AUSL 1049  15.597  17.330   8.189
    4AU    AUSL 1050  15.999  17.519   8.138
    4AU     AUL 1051  15.816  17.347   8.472
    4AU       S 1052  15.408  17.570   8.603
    4AU     LIG 1053  15.750  17.548   8.920
    4AU     LIG 1054  15.969  17.389   9.297
    4AU       S 1055  16.138  17.679   8.349
    4AU     LIG 1056  16.565  17.823   8.442
    4AU     LIG 1057  16.880  18.154   8.301
    4AU    AUSL 1058  15.991  17.234   6.770
    4AU    AUSL 1059  15.833  17.714   6.828
    4AU     AUL 1060  15.917  17.526   6.507
    4AU       S 1061  15.939  17.093   6.311
    4AU     LIG 1062  16.239  16.964   5.997
    4AU     LIG 1063  16.403  16.915   5.559
    4AU       S 1064  16.179  17.807   6.776
    4AU     LIG 1065  16.012  18.061   6.479
    4AU     LIG 1066  16.230  18.378   6.203
    4AU    AUSL 1067  15.656  16.970   6.702
    4AU    AUSL 1068  15.942  16.927   7.075
    4AU     AUL 1069  16.079  16.927   6.715
    4AU       S 1070  16.091  16.212   6.767
    4AU     LIG 1071  16.504  16.417   6.730
    4AU     LIG 1072  16.905  16.242   6.542
    4AU       S 1073  15.705  16.810   6.417
    4AU     LIG 1074  15.748  16.544   5.984
    4AU     LIG 1075  15.890  16.800   5.612
    4AU    AUSL 1076  15.581  17.380   6.799
    4AU    AUSL 1077  15.247  16.955   6.617
    4AU     AUL 1078  15.495  17.246   6.469
    4AU       S 1079  15.105  17.005   6.325
    4AU     LIG 1080  15.240  16.844   5.927
    4AU     LIG 1081  14.839  16.739   5.705
    4AU       S 1082  15.746  16.988   6.155
    4AU     LIG 1083  15.857  17.273   5.818
    4AU     LIG 1084  16.052  17.266   5.390
    4AU    AUSL 1085  14.874  17.054   8.183
    4AU    AUSL 1086  15.115  17.572   8.194
    4AU     AUL 1087  14.978  17.353   8.465
    4AU       S 1088  14.639  17.038   8.371
    4AU     LIG 1089  14.487  17.405   8.644
    4AU     LIG 1090  14.431  17.437   9.102
    4AU       S 1091  14.746  17.743   8.332
    4AU     LIG 1092  14.624  17.903   8.719
    4AU     LIG 1093  14.462  18.314   8.886
    4AU    AUSL 1094  15.188  16.771   8.346
    4AU    AUSL 1095  14.775  16.667   8.021
    4AU     AUL 1096  14.864  16.634   8.319
    4AU       S 1097  14.692  16.250   8.113
    4AU     LIG 1098  14.350  16.371   8.294
    4AU     LIG 1099  14.022  16.176   8.552
    4AU       S 1100  14.977  16.914   8.660
    4AU     LIG 1101  15.197  16.898   9.044
    4AU     LIG 1102  15.045  16.966   9.472
    4AU    AUSL 1103  14.847  17.072   6.748
    4AU    AUSL 1104  15.118  16.764   6.974
    4AU     AUL 1105  14.986  16.693   6.659
    4AU       S 1106  14.685  16.996   6.453
    4AU     LIG 1107  14.409  17.079   6.052
    4AU     LIG 1108  14.391  17.323   5.647
    4AU       S 1109  14.543  16.486   6.669
    4AU     LIG 1110  14.582  16.012   6.610
    4AU     LIG 1111  14.329  15.723   6.351
    4AU    AUSL 1112  15.171  17.351   6.788
    4AU    AUSL 1113  14.749  17.442   6.941
    4AU     AUL 1114  14.917  17.392   6.553
    4AU       S 1115  14.548  17.588   6.764
    4AU     LIG 1116  14.249  17.906   6.629
    4AU     LIG 1117  14.135  18.105   6.215
    4AU       S 1118  14.852  16.930   6.237
    4AU     LIG 1119  14.874  17.225   5.884
    4AU     LIG 1120  14.827  17.182   5.412
    4AU    AUSL 1121  16.065  17.789   7.543
    4AU    AUSL 1122  16.053  17.480   7.112
    4AU     AUL 1123  16.220  17.869   7.247
    4AU       S 1124  16.321  17.528   6.928
    4AU     LIG 1125  16.405  17.449   6.480
    4AU     LIG 1126  16.461  17.878   6.296
    4AU       S 1127  16.560  17.750   7.956
    4AU     LIG 1128  16.861  18.053   7.788
    4AU     LIG 1129  17.164  18.170   7.469
    4AU    AUSL 1130  16.334  17.448   7.418
    4AU    AUSL 1131  16.348  17.074   7.685
    4AU     AUL 1132  16.649  17.273   7.522
    4AU       S 1133  16.506  17.691   7.664
    4AU     LIG 1134  16.804  17.749   7.356
    4AU     LIG 1135  17.269  17.670   7.366
    4AU       S 1136  16.631  16.801   7.571
    4AU     LIG 1137  16.871  16.504   7.813
    4AU     LIG 1138  17.327  16.418   7.883
    4AU    AUSL 1139  16.083  17.395   7.753
    4AU    AUSL 1140  15.754  17.691   7.813
    4AU     AUL 1141  16.089  17.803   7.890
    4AU       S 1142  16.082  17.991   8.341
    4AU     LIG 1143  16.402  18.228   8.137
    4AU     LIG 1144  16.603  18.625   8.301
    4AU       S 1145  16.439  17.478   7.920
    4AU     LIG 1146  16.976  17.543   7.814
    4AU     LIG 1147  17.357  17.864   7.843
    4AU    AUSL 1148  14.728  17.642   7.565
    4AU    AUSL 1149  14.773  17.414   7.970
    4AU     AUL 1150  14.463  17.751   7.821
    4AU       S 1151  14.621  17.486   8.170
    4AU     LIG 1152  14.258  17.755   8.299
    4AU     LIG 1153  14.115  17.999   8.658
    4AU       S 1154  14.668  18.077   7.549
    4AU     LIG 1155  14.310  18.195   7.311
    4AU     LIG 1156  13.874  18.299   7.256
    4AU    AUSL 1157  14.640  17.299   7.313
    4AU    AUSL 1158  14.789  17.807   7.186
    4AU     AUL 1159  14.495  17.632   7.241
    4AU       S 1160  14.344  17.190   6.972
    4AU     LIG 1161  14.053  17.569   7.013
    4AU     LIG 1162  13.648  17.793   7.189
    4AU       S 1163  14.618  18.022   6.971
    4AU     LIG 1164  14.476  18.374   6.717
    4AU     LIG 1165  14.115  18.559   6.495
    4AU    AUSL 1166  14.457  17.320   7.705
    4AU    AUSL 1167  14.441  16.945   7.415
    4AU     AUL 1168  14.255  17.268   7.424
    4AU       S 1169  14.231  16.876   7.703
    4AU     LIG 1170  13.944  16.810   7.350
    4AU     LIG 1171  13.621  16.661   7.029
    4AU       S 1172  14.194  17.366   7.908
    4AU     LIG 1173  13.866  17.724   7.966
    4AU     LIG 1174  13.509  18.041   8.080
    4AU    AUSL 1175  16.143  16.749   7.489
    4AU    AUSL 1176  15.979  16.948   7.860
    4AU     AUL 1177  16.298  16.820   7.896
    4AU       S 1178  16.447  16.631   7.487
    4AU     LIG 1179  16.581  16.277   7.312
    4AU     LIG 1180  16.927  16.157   7.046
    4AU       S 1181  16.411  16.293   7.840
    4AU     LIG 1182  16.656  16.224   8.227
    4AU     LIG 1183  16.743  15.965   8.609
    4AU    AUSL 1184  16.302  17.065   7.231
    4AU    AUSL 1185  15.976  16.477   7.215
    4AU     AUL 1186  16.236  16.702   7.084
    4AU       S 1187  16.617  16.853   7.301
    4AU     LIG 1188  17.007  16.590   7.321
    4AU     LIG 1189  17.311  16.489   7.025
    4AU       S 1190  16.138  16.242   7.044
    4AU     LIG 1191  16.507  15.928   6.885
    4AU     LIG 1192  16.942  15.749   6.705
    4AU    AUSL 1193  14.788  16.680   7.478
    4AU    AUSL 1194  14.704  16.883   7.090
    4AU     AUL 1195  14.434  16.636   7.310
    4AU       S 1196  14.525  16.736   6.858
    4AU     LIG 1197  14.115  16.526   6.925
    4AU     LIG 1198  14.067  16.169   6.626
    4AU       S 1199  14.249  16.779   8.010
    4AU     LIG 1200  14.091  16.409   7.713
    4AU     LIG 1201  13.754  16.327   7.421
    4AU    AUSL 1202  14.689  16.980   7.767
    4AU    AUSL 1203  14.936  16.386   7.731
    4AU     AUL 1204  14.586  16.545   7.746
    4AU       S 1205  14.802  16.130   7.819
    4AU     LIG 1206  14.339  16.012   7.906
    4AU     LIG 1207  14.335  15.832   8.307
    4AU       S 1208  14.348  16.911   7.916
    4AU     LIG 1209  13.778  16.795   7.856
    4AU     LIG 1210  13.471  16.425   7.902
    4AU    AUSL 1211  15.349  17.830   7.947
    4AU    AUSL 1212  14.916  17.820   7.899
    4AU     AUL 1213  15.181  17.915   8.238
    4AU       S 1214  14.754  18.009   8.079
    4AU     LIG 1215  14.461  18.247   8.358
    4AU     LIG 1216  14.115  18.541   8.555
    4AU       S 1217  15.308  18.295   7.977
    4AU     LIG 1218  15.634  18.514   8.215
    4AU     LIG 1219  15.609  18.988   8.243
    4AU    AUSL 1220  15.148  18.038   7.620
    4AU    AUSL 1221  15.498  18.087   7.269
    4AU     AUL 1222  15.192  18.314   7.405
    4AU       S 1223  15.376  18.551   7.791
    4AU     LIG 1224  15.386  19.022   7.771
    4AU     LIG 1225  15.145  19.329   8.042
    4AU       S 1226  15.466  18.325   7.014
    4AU     LIG 1227  15.537  18.707   7.278
    4AU     LIG 1228  15.607  19.099   7.015
    4AU    AUSL 1229  15.605  18.052   7.673
    4AU    AUSL 1230  15.636  17.741   8.238
    4AU     AUL 1231  15.689  18.016   8.034
    4AU       S 1232  15.837  17.838   8.474
    4AU     LIG 1233  16.197  17.920   8.807
    4AU     LIG 1234  16.551  18.259   8.711
    4AU       S 1235  15.580  18.347   7.706
    4AU     LIG 1236  15.842  18.766   7.802
    4AU     LIG 1237  15.972  19.220   7.964
    4AU    AUSL 1238  15.510  16.452   8.074
    4AU    AUSL 1239  15.842  16.560   7.728
    4AU     AUL 1240  15.758  16.266   8.023
    4AU       S 1241  15.366  15.889   8.066
    4AU     LIG 1242  15.107  15.520   8.214
    4AU     LIG 1243  15.033  15.052   8.324
    4AU       S 1244  16.131  16.354   7.746
    4AU     LIG 1245  16.112  15.897   7.903
    4AU     LIG 1246  16.440  15.743   8.206
    4AU    AUSL 1247  15.345  16.316   7.700
    4AU    AUSL 1248  15.197  16.684   7.937
    4AU     AUL 1249  15.166  16.344   8.068
    4AU       S 1250  15.280  15.971   7.819
    4AU     LIG 1251  14.986  15.655   7.744
    4AU     LIG 1252  14.921  15.197   7.834
    4AU       S 1253  14.820  15.984   8.100
    4AU     LIG 1254  14.699  16.045   8.570
    4AU     LIG 1255  14.346  15.835   8.834
    4AU    AUSL 1256  15.726  16.219   7.526
    4AU    AUSL 1257  15.185  16.334   7.310
    4AU     AUL 1258  15.437  16.071   7.399
    4AU       S 1259  14.960  16.035   7.343
    4AU     LIG 1260  14.902  15.466   7.299
    4AU     LIG 1261  15.100  15.194   6.997
    4AU       S 1262  15.541  15.834   7.835
    4AU     LIG 1263  15.417  15.373   7.805
    4AU     LIG 1264  15.361  14.911   7.953
    4AU    AUSL 1265  15.439  17.808   6.945
    4AU    AUSL 1266  15.754  17.749   7.267
    4AU     AUL 1267  15.807  18.016   7.034
    4AU       S 1268  15.444  18.031   6.724
    4AU     LIG 1269  15.612  18.368   6.409
    4AU     LIG 1270  15.506  18.798   6.580
    4AU       S 1271  16.480  17.791   6.835
    4AU     LIG 1272  16.444  18.251   6.697
    4AU     LIG 1273  16.538  18.685   6.509
    4AU    AUSL 1274  15.189  17.778   7.301
    4AU    AUSL 1275  15.043  17.745   6.841
    4AU     AUL 1276  15.080  18.025   7.049
    4AU       S 1277  15.340  18.340   6.803
    4AU     LIG 1278  15.140  18.720   6.956
    4AU     LIG 1279  15.117  19.144   6.769
    4AU       S 1280  14.781  17.859   6.696
    4AU     LIG 1281  14.648  18.064   6.331
    4AU     LIG 1282  14.501  18.470   6.155
    4AU    AUSL 1283  15.370  16.437   6.922
    4AU    AUSL 1284  14.836  16.466   7.118
    4AU     AUL 1285  15.087  16.316   6.927
    4AU       S 1286  14.623  16.423   6.926
    4AU     LIG 1287  14.340  16.073   7.052
    4AU     LIG 1288  14.109  15.683   6.815
    4AU       S 1289  14.824  15.926   7.072
    4AU     LIG 1290  15.037  15.727   6.661
    4AU     LIG 1291  15.128  15.283   6.495
    4AU    AUSL 1292  15.571  16.543   7.304
    4AU    AUSL 1293  15.749  16.601   6.871
    4AU     AUL 1294  15.665  16.268   7.042
    4AU       S 1295  15.099  15.864   7.127
    4AU     LIG 1296  15.401  15.522   7.293
    4AU     LIG 1297  15.599  15.094   7.129
    4AU       S 1298  15.956  16.465   6.727
    4AU     LIG 1299  16.143  16.466   6.332
    4AU     LIG 1300  16.438  16.096   6.312
    5AU     AUC 1301  17.720  42.326   7.492
    5AU     AUC 1302  18.022  42.367   7.332
    5AU     AUC 1303  17.991  42.352   7.668
    5AU     AUC 1304  17.438  42.301   7.317
    5AU     AUC 1305  17.433  42.311   7.670
    5AU     AUC 1306  17.526  42.569   7.502
    5AU     AUC 1307  17.866  42.605   7.494
    5AU     AUC 1308  17.564  42.039   7.496
    5AU     AUC 1309  17.921  42.088   7.491
    5AU     AUC 1310  17.748  42.162   7.771
    5AU     AUC 1311  17.693  42.492   7.769
    5AU     AUC 1312  17.748  42.165   7.216
    5AU     AUC 1313  17.739  42.500   7.219
    5AU     AUC 1314  18.334  42.395   7.182
    5AU     AUC 1315  18.362  42.388   7.504
    5AU     AUC 1316  18.288  42.363   7.868
    5AU     AUC 1317  17.143  42.271   7.135
    5AU     AUC 1318  17.099  42.314   7.498
    5AU     AUC 1319  17.139  42.302   7.844
    5AU     AUC 1320  17.349  42.867   7.477
    5AU     AUC 1321  17.691  42.935   7.474
    5AU     AUC 1322  18.008  42.923   7.502
    5AU     AUC 1323  17.395  41.718   7.503
    5AU     AUC 1324  17.740  41.765   7.502
    5AU     AUC 1325  18.130  41.810   7.475
    5AU     AUC 1326  17.758  41.953   8.064
    5AU     AUC 1327  17.707  42.278   8.097
    5AU     AUC 1328  17.697  42.654   8.054
    5AU     AUC 1329  17.759  41.970   6.928
    5AU     AUC 1330  17.749  42.317   6.904
    5AU     AUC 1331  17.760  42.672   6.920
    5AU     AUC 1332  18.041  42.123   7.975
    5AU     AUC 1333  18.007  42.490   8.006
    5AU     AUC 1334  18.041  42.185   7.015
    5AU     AUC 1335  18.062  42.547   7.004
    5AU     AUC 1336  17.419  42.112   7.979
    5AU     AUC 1337  17.411  42.469   7.977
    5AU     AUC 1338  17.415  42.102   7.032
    5AU     AUC 1339  17.413  42.474   7.004
    5AU     AUC 1340  18.222  42.662   7.355
    5AU     AUC 1341  18.159  42.640   7.708
    5AU     AUC 1342  17.239  42.582   7.281
    5AU     AUC 1343  17.211  42.610   7.672
    5AU     AUC 1344  18.239  42.086   7.310
    5AU     AUC 1345  18.238  42.065   7.645
    5AU     AUC 1346  17.216  42.006   7.330
    5AU     AUC 1347  17.240  42.022   7.666
    5AU     AUC 1348  17.506  42.807   7.770
    5AU     AUC 1349  17.843  42.816   7.793
    5AU     AUC 1350  17.536  41.823   7.780
    5AU     AUC 1351  17.943  41.848   7.808
    5AU     AUC 1352  17.527  42.756   7.158
    5AU     AUC 1353  17.919  42.804   7.171
    5AU     AUC 1354  17.546  41.832   7.214
    5AU     AUC 1355  17.929  41.868   7.175
    5AU    AUSL 1356  18.292  42.280   8.227
    5AU    AUSL 1357  18.146  41.804   8.120
    5AU     AUL 1358  18.426  41.901   8.299
    5AU       S 1359  18.550  41.483   8.155
    5AU     LIG 1360  18.617  41.344   8.571
    5AU     LIG 1361  18.848  41.073   8.876
    5AU       S 1362  18.539  42.339   8.375
    5AU     LIG 1363  18.521  42.500   8.769
    5AU     LIG 1364  18.657  42.277   9.144
    5AU    AUSL 1365  17.900  42.095   8.318
    5AU    AUSL 1366  17.560  42.419   8.377
    5AU     AUL 1367  17.744  42.281   8.646
    5AU       S 1368  18.164  42.074   8.630
    5AU     LIG 1369  18.132  42.248   9.007
    5AU     LIG 1370  18.239  42.167   9.439
    5AU       S 1371  17.052  42.203   8.669
    5AU     LIG 1372  17.183  42.533   8.981
    5AU     LIG 1373  17.135  42.582   9.449
    5AU    AUSL 1374  17.905  42.504   8.164
    5AU    AUSL 1375  18.310  42.698   8.135
    5AU     AUL 1376  18.118  42.528   8.460
    5AU       S 1377  17.725  42.783   8.607
    5AU     LIG 1378  18.052  42.744   8.904
    5AU     LIG 1379  18.341  42.668   9.246
    5AU       S 1380  18.432  42.860   8.346
    5AU     LIG 1381  18.839  42.776   8.420
    5AU     LIG 1382  19.162  43.047   8.605
    5AU    AUSL 1383  18.302  42.435   6.769
    5AU    AUSL 1384  18.179  42.872   6.832
    5AU     AUL 1385  18.341  42.704   6.506
    5AU       S 1386  18.217  42.294   6.312
    5AU     LIG 1387  18.580  42.381   6.060
    5AU     LIG 1388  18.659  42.106   5.687
    5AU       S 1389  18.493  43.028   6.796
    5AU     LIG 1390  18.586  43.213   6.402
    5AU     LIG 1391  18.667  43.484   6.028
    5AU    AUSL 1392  17.961  42.184   6.724
    5AU    AUSL 1393  18.274  42.114   7.056
    5AU     AUL 1394  18.394  42.129   6.703
    5AU       S 1395  18.381  41.341   6.684
    5AU     LIG 1396  18.797  41.413   6.473
    5AU     LIG 1397  19.111  41.266   6.120
    5AU       S 1398  18.044  41.987   6.398
    5AU     LIG 1399  17.924  41.790   5.975
    5AU     LIG 1400  18.163  41.792   5.551
    5AU    AUSL 1401  17.896  42.609   6.646
    5AU    AUSL 1402  17.586  42.044   6.607
    5AU     AUL 1403  17.757  42.351   6.412
    5AU       S 1404  17.376  42.072   6.283
    5AU     LIG 1405  17.412  41.926   5.847
    5AU     LIG 1406  17.068  41.888   5.526
    5AU       S 1407  18.281  42.013   6.235
    5AU     LIG 1408  18.150  42.228   5.821
    5AU     LIG 1409  18.297  42.319   5.388
    5AU    AUSL 1410  17.207  42.285   8.168
    5AU    AUSL 1411  17.426  42.727   8.124
    5AU     AUL 1412  17.283  42.599   8.437
    5AU       S 1413  16.958  42.261   8.375
    5AU     LIG 1414  16.643  42.452   8.709
    5AU     LIG 1415  16.742  42.334   9.160
    5AU       S 1416  17.008  42.946   8.255
    5AU     LIG 1417  16.831  43.182   8.582
    5AU     LIG 1418  16.624  43.396   8.939
    5AU    AUSL 1419  17.488  41.991   8.355
    5AU    AUSL 1420  17.070  41.900   8.049
    5AU     AUL 1421  17.192  41.852   8.337
    5AU       S 1422  16.770  41.723   8.189
    5AU     LIG 1423  16.407  41.686   8.503
    5AU     LIG 1424  16.286  41.411   8.843
    5AU       S 1425  17.274  42.161   8.659
    5AU     LIG 1426  17.435  42.082   9.044
    5AU     LIG 1427  17.178  42.066   9.420
    5AU    AUSL 1428  17.207  42.194   6.742
    5AU    AUSL 1429  17.471  41.891   6.989
    5AU     AUL 1430  17.344  41.806   6.666
    5AU       S 1431  17.019  42.120   6.482
    5AU     LIG 1432  16.654  42.214   6.207
    5AU     LIG 1433  16.617  42.158   5.725
    5AU       S 1434  16.906  41.614   6.666
    5AU     LIG 1435  16.871  41.477   6.261
    5AU     LIG 1436  16.604  41.176   6.056
    5AU    AUSL 1437  17.552  42.446   6.815
    5AU    AUSL 1438  17.098  42.572   6.895
    5AU     AUL 1439  17.307  42.484   6.534
    5AU       S 1440  16.924  42.697   6.704
    5AU     LIG 1441  16.557  42.770   6.474
    5AU     LIG 1442  16.372  43.081   6.165
    5AU       S 1443  17.091  41.954   6.259
    5AU     LIG 1444  17.077  42.301   5.931
    5AU     LIG 1445  17.031  42.400   5.466
    5AU    AUSL 1446  18.399  42.944   7.547
    5AU    AUSL 1447  18.403  42.653   7.120
    5AU     AUL 1448  18.569  43.032   7.262
    5AU       S 1449  18.672  42.690   6.939
    5AU     LIG 1450  19.153  42.758   6.758
    5AU     LIG 1451  19.179  43.083   6.424
    5AU       S 1452  18.909  42.854   7.889
    5AU     LIG 1453  19.020  43.240   7.575
    5AU     LIG 1454  19.381  43.244   7.251
    5AU    AUSL 1455  18.669  42.604   7.436
    5AU    AUSL 1456  18.667  42.221   7.676
    5AU     AUL 1457  18.984  42.384   7.535
    5AU       S 1458  18.832  42.798   7.656
    5AU     LIG 1459  19.078  42.830   7.266
    5AU     LIG 1460  19.516  42.744   7.133
    5AU       S 1461  18.914  41.902   7.530
    5AU     LIG 1462  19.180  41.877   7.860
    5AU     LIG 1463  19.615  42.016   7.974
    5AU    AUSL 1464  18.406  42.547   7.761
    5AU    AUSL 1465  18.074  42.859   7.803
    5AU     AUL 1466  18.432  42.960   7.885
    5AU       S 1467  18.407  43.165   8.347
    5AU     LIG 1468  18.844  43.239   8.198
    5AU     LIG 1469  19.311  43.346   8.200
    5AU       S 1470  18.742  42.602   7.940
    5AU     LIG 1471  19.195  42.450   7.985
    5AU     LIG 1472  19.629  42.553   7.809
    5AU    AUSL 1473  17.060  42.808   7.505
    5AU    AUSL 1474  17.057  42.604   7.926
    5AU     AUL 1475  16.784  42.934   7.745
    5AU       S 1476  16.910  42.684   8.127
    5AU     LIG 1477  16.520  42.813   8.358
    5AU     LIG 1478  16.312  43.018   8.745
    5AU       S 1479  17.010  43.235   7.460
    5AU     LIG 1480  16.579  43.240   7.333
    5AU     LIG 1481  16.278  43.629   7.348
    5AU    AUSL 1482  16.991  42.442   7.271
    5AU    AUSL 1483  17.134  42.948   7.115
    5AU     AUL 1484  16.839  42.774   7.177
    5AU       S 1485  16.709  42.298   6.903
    5AU     LIG 1486  16.276  42.446   6.855
    5AU     LIG 1487  15.912  42.754   6.999
    5AU       S 1488  16.954  43.146   6.889
    5AU     LIG 1489  16.587  43.286   6.672
    5AU     LIG 1490  16.241  43.528   6.523
    5AU    AUSL 1491  16.768  42.498   7.637
    5AU    AUSL 1492  16.778  42.097   7.378
    5AU     AUL 1493  16.600  42.412   7.342
    5AU       S 1494  16.528  42.047   7.636
    5AU     LIG 1495  16.267  42.067   7.227
    5AU     LIG 1496  15.868  42.254   7.104
    5AU       S 1497  16.526  42.547   7.808
    5AU     LIG 1498  16.152  42.754   7.897
    5AU     LIG 1499  15.699  42.696   7.873
    5AU    AUSL 1500  18.425  41.933   7.464
    5AU    AUSL 1501  18.301  42.096   7.852
    5AU     AUL 1502  18.631  41.997   7.889
    5AU       S 1503  18.706  41.763   7.482
    5AU     LIG 1504  18.841  41.424   7.326
    5AU     LIG 1505  19.299  41.466   7.284
    5AU       S 1506  18.781  41.561   8.002
    5AU     LIG 1507  19.051  41.514   8.347
    5AU     LIG 1508  19.281  41.261   8.655
    5AU    AUSL 1509  18.635  42.235   7.226
    5AU    AUSL 1510  18.360  41.671   7.144
    5AU     AUL 1511  18.585  41.918   7.060
    5AU       S 1512  18.961  41.962   7.316
    5AU     LIG 1513  19.009  41.682   6.924
    5AU     LIG 1514  19.410  41.510   6.757
    5AU       S 1515  18.505  41.474   6.914
    5AU     LIG 1516  18.812  41.119   6.900
    5AU     LIG 1517  19.087  40.996   6.555
    5AU    AUSL 1518  17.138  41.857   7.482
    5AU    AUSL 1519  17.046  41.991   7.068
    5AU     AUL 1520  16.775  41.784   7.292
    5AU       S 1521  16.898  41.830   6.849
    5AU     LIG 1522  16.507  41.915   6.623
    5AU     LIG 1523  16.425  41.741   6.194
    5AU       S 1524  16.451  41.893   7.770
    5AU     LIG 1525  16.292  41.618   7.422
    5AU     LIG 1526  15.902  41.338   7.516
    5AU    AUSL 1527  16.995  42.167   7.745
    5AU    AUSL 1528  17.192  41.579   7.789
    5AU     AUL 1529  16.901  41.744   7.731
    5AU       S 1530  16.965  41.415   8.055
    5AU     LIG 1531  16.723  41.072   8.014
    5AU     LIG 1532  16.372  41.165   8.310
    5AU       S 1533  16.643  42.098   7.892
    5AU     LIG 1534  16.172  42.234   7.983
    5AU     LIG 1535  16.023  42.377   7.579
    5AU    AUSL 1536  17.665  43.026   7.929
    5AU    AUSL 1537  17.236  42.993   7.845
    5AU     AUL 1538  17.466  43.056   8.223
    5AU       S 1539  17.096  43.199   7.977
    5AU     LIG 1540  16.624  43.253   8.102
    5AU     LIG 1541  16.392  43.442   8.459
    5AU       S 1542  17.623  43.423   7.966
    5AU     LIG 1543  17.800  43.460   8.365
    5AU     LIG 1544  17.817  43.850   8.626
    5AU    AUSL 1545  17.480  43.209   7.576
    5AU    AUSL 1546  17.821  43.248   7.247
    5AU     AUL 1547  17.518  43.478   7.342
    5AU       S 1548  17.662  43.644   7.789
    5AU     LIG 1549  17.618  43.908   8.145
    5AU     LIG 1550  17.647  44.304   8.380
    5AU       S 1551  17.777  43.462   6.930
    5AU     LIG 1552  17.956  43.737   7.205
    5AU     LIG 1553  18.040  44.181   7.151
    5AU    AUSL 1554  17.939  43.219   7.649
    5AU    AUSL 1555  17.940  42.914   8.222
    5AU     AUL 1556  18.030  43.179   8.012
    5AU       S 1557  18.146  43.024   8.463
    5AU     LIG 1558  18.484  43.011   8.822
    5AU     LIG 1559  18.856  43.232   8.983
    5AU       S 1560  17.880  43.485   7.682
    5AU     LIG 1561  18.115  43.680   8.016
    5AU     LIG 1562  18.102  44.072   8.249
    5AU    AUSL 1563  17.776  41.602   8.117
    5AU    AUSL 1564  18.336  41.640   7.759
    5AU     AUL 1565  18.095  41.439   8.044
    5AU       S 1566  17.721  41.078   8.153
    5AU     LIG 1567  17.939  40.857   8.570
    5AU     LIG 1568  18.190  40.483   8.843
    5AU       S 1569  18.556  41.456   7.855
    5AU     LIG 1570  18.844  41.091   8.138
    5AU     LIG 1571  18.882  40.754   8.426
    5AU    AUSL 1572  17.586  41.445   7.753
    5AU    AUSL 1573  17.496  41.861   7.957
    5AU     AUL 1574  17.428  41.511   8.106
    5AU       S 1575  17.524  41.133   7.847
    5AU     LIG 1576  17.185  40.945   8.155
    5AU     LIG 1577  17.066  40.450   8.310
    5AU       S 1578  16.676  41.538   8.110
    5AU     LIG 1579  16.805  41.328   8.522
    5AU     LIG 1580  16.701  41.047   8.863
    5AU    AUSL 1581  17.931  41.681   7.690
    5AU    AUSL 1582  17.578  41.527   7.342
    5AU     AUL 1583  17.882  41.324   7.563
    5AU       S 1584  17.452  41.198   7.355
    5AU     LIG 1585  17.219  41.015   6.981
    5AU     LIG 1586  17.078  40.613   6.707
    5AU       S 1587  17.738  40.994   7.904
    5AU     LIG 1588  17.823  40.627   7.706
    5AU     LIG 1589  17.808  40.196   7.941
    5AU    AUSL 1590  17.784  42.969   6.929
    5AU    AUSL 1591  18.092  42.920   7.265
    5AU     AUL 1592  18.134  43.193   7.050
    5AU       S 1593  17.799  43.157   6.698
    5AU     LIG 1594  18.155  43.452   6.612
    5AU     LIG 1595  17.990  43.893   6.703
    5AU       S 1596  18.703  42.905   6.795
    5AU     LIG 1597  18.930  43.282   6.830
    5AU     LIG 1598  18.973  43.575   6.465
    5AU    AUSL 1599  17.519  42.933   7.270
    5AU    AUSL 1600  17.413  42.847   6.793
    5AU     AUL 1601  17.415  43.163   6.994
    5AU       S 1602  17.648  43.458   6.678
    5AU     LIG 1603  17.504  43.860   6.922
    5AU     LIG 1604  17.600  44.306   6.901
    5AU       S 1605  17.161  42.966   6.623
    5AU     LIG 1606  16.895  43.129   6.303
    5AU     LIG 1607  16.648  43.512   6.184
    5AU    AUSL 1608  17.730  41.570   6.930
    5AU    AUSL 1609  17.199  41.589   7.163
    5AU     AUL 1610  17.448  41.456   6.960
    5AU       S 1611  16.978  41.525   6.937
    5AU     LIG 1612  16.527  41.497   6.948
    5AU     LIG 1613  16.380  41.203   6.630
    5AU       S 1614  17.710  41.076   7.163
    5AU     LIG 1615  17.812  41.099   6.714
    5AU     LIG 1616  17.845  40.654   6.427
    5AU    AUSL 1617  17.969  41.689   7.277
    5AU    AUSL 1618  18.071  41.796   6.842
    5AU     AUL 1619  18.047  41.438   7.043
    5AU       S 1620  17.596  40.932   7.367
    5AU     LIG 1621  17.886  40.582   7.199
    5AU     LIG 1622  18.057  40.337   6.825
    5AU       S 1623  18.285  41.644   6.665
    5AU     LIG 1624  18.355  41.501   6.211
    5AU     LIG 1625  18.608  41.109   6.068
    6AU     AUC 1626   2.352  23.380   7.505
    6AU     AUC 1627   2.652  23.415   7.338
    6AU     AUC 1628   2.627  23.397   7.676
    6AU     AUC 1629   2.063  23.365   7.337
    6AU     AUC 1630   2.066  23.369   7.688
    6AU     AUC 1631   2.164  23.630   7.521
    6AU     AUC 1632   2.503  23.655   7.507
    6AU     AUC 1633   2.193  23.098   7.508
    6AU     AUC 1634   2.552  23.140   7.501
    6AU     AUC 1635   2.384  23.212   7.777
    6AU     AUC 1636   2.334  23.542   7.784
    6AU     AUC 1637   2.369  23.219   7.227
    6AU     AUC 1638   2.369  23.555   7.233
    6AU     AUC 1639   2.961  23.439   7.185
    6AU     AUC 1640   2.998  23.434   7.506
    6AU     AUC 1641   2.930  23.401   7.873
    6AU     AUC 1642   1.763  23.344   7.164
    6AU     AUC 1643   1.728  23.396   7.529
    6AU     AUC 1644   1.782  23.366   7.865
    6AU     AUC 1645   1.996  23.931   7.502
    6AU     AUC 1646   2.340  23.990   7.495
    6AU     AUC 1647   2.653  23.970   7.516
    6AU     AUC 1648   2.017  22.781   7.512
    6AU     AUC 1649   2.363  22.815   7.507
    6AU     AUC 1650   2.755  22.859   7.477
    6AU     AUC 1651   2.394  22.991   8.064
    6AU     AUC 1652   2.345  23.317   8.105
    6AU     AUC 1653   2.346  23.697   8.071
    6AU     AUC 1654   2.368  23.025   6.940
    6AU     AUC 1655   2.366  23.369   6.921
    6AU     AUC 1656   2.388  23.727   6.935
    6AU     AUC 1657   2.678  23.161   7.976
    6AU     AUC 1658   2.652  23.526   8.017
    6AU     AUC 1659   2.663  23.231   7.023
    6AU     AUC 1660   2.687  23.591   7.012
    6AU     AUC 1661   2.056  23.159   7.988
    6AU     AUC 1662   2.054  23.521   7.995
    6AU     AUC 1663   2.026  23.163   7.055
    6AU     AUC 1664   2.038  23.536   7.027
    6AU     AUC 1665   2.857  23.708   7.360
    6AU     AUC 1666   2.798  23.680   7.715
    6AU     AUC 1667   1.874  23.654   7.307
    6AU     AUC 1668   1.855  23.679   7.699
    6AU     AUC 1669   2.867  23.130   7.315
    6AU     AUC 1670   2.876  23.109   7.644
    6AU     AUC 1671   1.831  23.081   7.358
    6AU     AUC 1672   1.871  23.087   7.686
    6AU     AUC 1673   2.157  23.862   7.794
    6AU     AUC 1674   2.493  23.862   7.812
    6AU     AUC 1675   2.171  22.873   7.780
    6AU     AUC 1676   2.580  22.891   7.806
    6AU     AUC 1677   2.165  23.818   7.177
    6AU     AUC 1678   2.556  23.856   7.181
    6AU     AUC 1679   2.154  22.893   7.230
    6AU     AUC 1680   2.546  22.922   7.180
    6AU    AUSL 1681   2.929  23.302   8.233
    6AU    AUSL 1682   2.782  22.837   8.104
    6AU     AUL 1683   3.045  22.919   8.296
    6AU       S 1684   3.209  22.525   8.116
    6AU     LIG 1685   3.330  22.309   8.506
    6AU     LIG 1686   3.492  21.952   8.809
    6AU       S 1687   3.183  23.351   8.393
    6AU     LIG 1688   3.171  23.565   8.781
    6AU     LIG 1689   3.280  23.371   9.183
    6AU    AUSL 1690   2.535  23.121   8.316
    6AU    AUSL 1691   2.201  23.451   8.384
    6AU     AUL 1692   2.388  23.300   8.646
    6AU       S 1693   2.817  23.105   8.647
    6AU     LIG 1694   2.776  23.306   9.016
    6AU     LIG 1695   2.852  23.224   9.463
    6AU       S 1696   1.666  23.257   8.677
    6AU     LIG 1697   1.850  23.629   8.935
    6AU     LIG 1698   1.847  23.649   9.387
    6AU    AUSL 1699   2.549  23.538   8.180
    6AU    AUSL 1700   2.961  23.720   8.143
    6AU     AUL 1701   2.768  23.553   8.471
    6AU       S 1702   2.380  23.805   8.620
    6AU     LIG 1703   2.714  23.800   8.909
    6AU     LIG 1704   2.930  23.724   9.298
    6AU       S 1705   3.096  23.876   8.353
    6AU     LIG 1706   3.504  23.905   8.497
    6AU     LIG 1707   3.882  24.147   8.598
    6AU    AUSL 1708   2.918  23.475   6.772
    6AU    AUSL 1709   2.806  23.912   6.835
    6AU     AUL 1710   2.945  23.757   6.507
    6AU       S 1711   2.825  23.343   6.323
    6AU     LIG 1712   3.177  23.457   6.076
    6AU     LIG 1713   3.255  23.192   5.697
    6AU       S 1714   3.171  24.033   6.800
    6AU     LIG 1715   2.990  24.262   6.496
    6AU     LIG 1716   3.199  24.531   6.191
    6AU    AUSL 1717   2.573  23.226   6.737
    6AU    AUSL 1718   2.901  23.155   7.062
    6AU     AUL 1719   3.011  23.175   6.707
    6AU       S 1720   3.003  22.408   6.714
    6AU     LIG 1721   3.415  22.461   6.507
    6AU     LIG 1722   3.730  22.274   6.192
    6AU       S 1723   2.652  23.024   6.403
    6AU     LIG 1724   2.624  22.794   5.943
    6AU     LIG 1725   2.839  22.886   5.519
    6AU    AUSL 1726   2.513  23.655   6.659
    6AU    AUSL 1727   2.190  23.095   6.632
    6AU     AUL 1728   2.368  23.393   6.430
    6AU       S 1729   1.978  23.126   6.315
    6AU     LIG 1730   2.172  23.027   5.917
    6AU     LIG 1731   2.003  22.925   5.486
    6AU       S 1732   2.882  23.081   6.243
    6AU     LIG 1733   2.740  23.284   5.835
    6AU     LIG 1734   2.883  23.423   5.411
    6AU    AUSL 1735   1.838  23.331   8.186
    6AU    AUSL 1736   2.086  23.783   8.152
    6AU     AUL 1737   1.936  23.641   8.452
    6AU       S 1738   1.595  23.324   8.368
    6AU     LIG 1739   1.412  23.666   8.644
    6AU     LIG 1740   1.394  23.501   9.108
    6AU       S 1741   1.683  24.019   8.293
    6AU     LIG 1742   1.505  24.176   8.676
    6AU     LIG 1743   1.312  24.475   9.009
    6AU    AUSL 1744   2.118  23.026   8.353
    6AU    AUSL 1745   1.720  22.941   8.047
    6AU     AUL 1746   1.796  22.906   8.340
    6AU       S 1747   1.525  22.558   8.155
    6AU     LIG 1748   1.146  22.387   8.368
    6AU     LIG 1749   0.868  22.195   8.724
    6AU       S 1750   1.909  23.201   8.669
    6AU     LIG 1751   2.013  23.177   9.097
    6AU     LIG 1752   1.743  23.144   9.471
    6AU    AUSL 1753   1.817  23.259   6.771
    6AU    AUSL 1754   2.071  22.949   7.015
    6AU     AUL 1755   1.920  22.863   6.699
    6AU       S 1756   1.630  23.189   6.498
    6AU     LIG 1757   1.310  23.301   6.164
    6AU     LIG 1758   1.256  23.306   5.675
    6AU       S 1759   1.478  22.655   6.821
    6AU     LIG 1760   1.698  22.397   6.550
    6AU     LIG 1761   1.525  22.002   6.360
    6AU    AUSL 1762   2.171  23.500   6.836
    6AU    AUSL 1763   1.726  23.643   6.921
    6AU     AUL 1764   1.927  23.545   6.559
    6AU       S 1765   1.557  23.775   6.731
    6AU     LIG 1766   1.231  24.049   6.625
    6AU     LIG 1767   1.073  24.343   6.315
    6AU       S 1768   1.711  22.999   6.267
    6AU     LIG 1769   1.734  23.278   5.882
    6AU     LIG 1770   1.761  23.419   5.438
    6AU    AUSL 1771   3.036  23.991   7.555
    6AU    AUSL 1772   3.036  23.693   7.118
    6AU     AUL 1773   3.198  24.079   7.268
    6AU       S 1774   3.286  23.734   6.941
    6AU     LIG 1775   3.415  23.621   6.530
    6AU     LIG 1776   3.417  24.029   6.307
    6AU       S 1777   3.535  23.956   7.989
    6AU     LIG 1778   3.877  24.195   7.757
    6AU     LIG 1779   4.208  24.063   7.468
    6AU    AUSL 1780   3.304  23.654   7.434
    6AU    AUSL 1781   3.309  23.268   7.679
    6AU     AUL 1782   3.612  23.451   7.535
    6AU       S 1783   3.480  23.876   7.677
    6AU     LIG 1784   3.750  23.882   7.318
    6AU     LIG 1785   4.131  23.591   7.283
    6AU       S 1786   3.568  22.972   7.539
    6AU     LIG 1787   3.911  22.797   7.767
    6AU     LIG 1788   4.380  22.907   7.693
    6AU    AUSL 1789   3.043  23.590   7.759
    6AU    AUSL 1790   2.719  23.898   7.819
    6AU     AUL 1791   3.065  23.996   7.895
    6AU       S 1792   3.098  24.193   8.343
    6AU     LIG 1793   3.542  24.402   8.264
    6AU     LIG 1794   3.825  24.812   8.338
    6AU       S 1795   3.401  23.660   7.936
    6AU     LIG 1796   3.919  23.679   7.862
    6AU     LIG 1797   4.279  23.959   7.994
    6AU    AUSL 1798   1.702  23.890   7.536
    6AU    AUSL 1799   1.709  23.674   7.961
    6AU     AUL 1800   1.438  24.022   7.796
    6AU       S 1801   1.572  23.763   8.161
    6AU     LIG 1802   1.177  24.015   8.269
    6AU     LIG 1803   1.016  24.324   8.602
    6AU       S 1804   1.668  24.308   7.494
    6AU     LIG 1805   1.251  24.256   7.372
    6AU     LIG 1806   1.028  24.349   6.996
    6AU    AUSL 1807   1.619  23.525   7.302
    6AU    AUSL 1808   1.777  24.016   7.142
    6AU     AUL 1809   1.476  23.850   7.203
    6AU       S 1810   1.319  23.401   6.955
    6AU     LIG 1811   1.017  23.796   7.035
    6AU     LIG 1812   0.668  24.066   7.223
    6AU       S 1813   1.599  24.230   6.919
    6AU     LIG 1814   1.364  24.589   6.685
    6AU     LIG 1815   1.028  24.846   6.440
    6AU    AUSL 1816   1.410  23.588   7.675
    6AU    AUSL 1817   1.400  23.188   7.419
    6AU     AUL 1818   1.222  23.502   7.401
    6AU       S 1819   1.166  23.132   7.714
    6AU     LIG 1820   0.851  22.976   7.425
    6AU     LIG 1821   0.417  22.768   7.319
    6AU       S 1822   1.173  23.637   7.877
    6AU     LIG 1823   0.948  23.912   7.624
    6AU     LIG 1824   0.529  24.133   7.720
    6AU    AUSL 1825   3.073  22.981   7.462
    6AU    AUSL 1826   2.942  23.137   7.850
    6AU     AUL 1827   3.265  23.021   7.890
    6AU       S 1828   3.372  22.817   7.466
    6AU     LIG 1829   3.636  22.440   7.468
    6AU     LIG 1830   4.028  22.238   7.333
    6AU       S 1831   3.454  22.575   7.924
    6AU     LIG 1832   3.771  22.373   8.181
    6AU     LIG 1833   3.912  22.167   8.586
    6AU    AUSL 1834   3.265  23.286   7.221
    6AU    AUSL 1835   2.968  22.703   7.169
    6AU     AUL 1836   3.207  22.956   7.058
    6AU       S 1837   3.593  23.038   7.299
    6AU     LIG 1838   4.037  22.829   7.278
    6AU     LIG 1839   4.501  22.955   7.165
    6AU       S 1840   3.106  22.510   6.953
    6AU     LIG 1841   3.440  22.194   6.952
    6AU     LIG 1842   3.556  21.950   6.560
    6AU    AUSL 1843   1.758  22.951   7.512
    6AU    AUSL 1844   1.648  23.063   7.098
    6AU     AUL 1845   1.381  22.875   7.338
    6AU       S 1846   1.483  22.917   6.886
    6AU     LIG 1847   1.230  22.872   6.474
    6AU     LIG 1848   1.180  22.406   6.430
    6AU       S 1849   1.211  23.040   8.059
    6AU     LIG 1850   1.075  22.627   7.831
    6AU     LIG 1851   0.872  22.458   7.435
    6AU    AUSL 1852   1.616  23.246   7.790
    6AU    AUSL 1853   1.828  22.629   7.764
    6AU     AUL 1854   1.526  22.817   7.768
    6AU       S 1855   1.659  22.365   7.863
    6AU     LIG 1856   1.230  22.080   7.966
    6AU     LIG 1857   0.875  21.960   8.273
    6AU       S 1858   1.292  23.187   7.929
    6AU     LIG 1859   0.739  23.065   7.919
    6AU     LIG 1860   0.566  22.655   7.800
    6AU    AUSL 1861   2.326  24.079   7.954
    6AU    AUSL 1862   1.898  24.054   7.875
    6AU     AUL 1863   2.142  24.112   8.251
    6AU       S 1864   1.792  24.261   7.986
    6AU     LIG 1865   1.420  24.450   8.146
    6AU     LIG 1866   1.394  24.666   8.537
    6AU       S 1867   2.290  24.493   7.992
    6AU     LIG 1868   2.564  24.778   8.257
    6AU     LIG 1869   2.550  25.227   8.457
    6AU    AUSL 1870   2.142  24.268   7.605
    6AU    AUSL 1871   2.478  24.303   7.268
    6AU     AUL 1872   2.175  24.535   7.374
    6AU       S 1873   2.344  24.732   7.801
    6AU     LIG 1874   2.364  25.174   7.979
    6AU     LIG 1875   2.235  25.630   7.990
    6AU       S 1876   2.432  24.526   6.967
    6AU     LIG 1877   2.559  24.869   7.208
    6AU     LIG 1878   2.707  25.296   7.073
    6AU    AUSL 1879   2.599  24.265   7.669
    6AU    AUSL 1880   2.600  23.946   8.241
    6AU     AUL 1881   2.681  24.227   8.038
    6AU       S 1882   2.815  24.047   8.472
    6AU     LIG 1883   3.135  24.088   8.825
    6AU     LIG 1884   3.470  24.403   8.778
    6AU       S 1885   2.547  24.542   7.706
    6AU     LIG 1886   2.851  24.865   7.833
    6AU     LIG 1887   2.929  25.235   8.110
    6AU    AUSL 1888   2.412  22.639   8.119
    6AU    AUSL 1889   2.970  22.679   7.737
    6AU     AUL 1890   2.739  22.465   8.031
    6AU       S 1891   2.276  22.128   8.117
    6AU     LIG 1892   2.051  21.742   8.221
    6AU     LIG 1893   2.064  21.304   8.393
    6AU       S 1894   3.167  22.522   7.796
    6AU     LIG 1895   3.369  22.087   7.909
    6AU     LIG 1896   3.567  21.917   8.302
    6AU    AUSL 1897   2.219  22.487   7.755
    6AU    AUSL 1898   2.140  22.902   7.954
    6AU     AUL 1899   2.049  22.572   8.103
    6AU       S 1900   2.153  22.192   7.851
    6AU     LIG 1901   1.856  21.845   7.760
    6AU     LIG 1902   1.859  21.382   7.903
    6AU       S 1903   1.640  22.320   8.132
    6AU     LIG 1904   1.588  21.976   8.332
    6AU     LIG 1905   1.265  21.859   8.600
    6AU    AUSL 1906   2.563  22.723   7.691
    6AU    AUSL 1907   2.191  22.575   7.345
    6AU     AUL 1908   2.504  22.373   7.546
    6AU       S 1909   2.031  22.245   7.374
    6AU     LIG 1910   1.789  21.829   7.205
    6AU     LIG 1911   1.881  21.364   7.023
    6AU       S 1912   2.408  22.030   7.894
    6AU     LIG 1913   2.314  21.602   7.776
    6AU     LIG 1914   2.316  21.176   7.966
    6AU    AUSL 1915   2.420  24.033   6.943
    6AU    AUSL 1916   2.731  23.962   7.270
    6AU     AUL 1917   2.787  24.231   7.039
    6AU       S 1918   2.441  24.247   6.710
    6AU     LIG 1919   2.727  24.675   6.610
    6AU     LIG 1920   2.526  25.100   6.646
    6AU       S 1921   3.462  23.993   6.857
    6AU     LIG 1922   3.451  24.437   6.663
    6AU     LIG 1923   3.543  24.849   6.430
    6AU    AUSL 1924   2.165  23.998   7.292
    6AU    AUSL 1925   2.048  23.907   6.815
    6AU     AUL 1926   2.061  24.228   7.018
    6AU       S 1927   2.265  24.527   6.699
    6AU     LIG 1928   2.106  24.900   6.947
    6AU     LIG 1929   2.196  25.344   6.996
    6AU       S 1930   1.799  24.036   6.652
    6AU     LIG 1931   1.599  24.285   6.339
    6AU     LIG 1932   1.438  24.690   6.156
    6AU    AUSL 1933   2.333  22.638   6.928
    6AU    AUSL 1934   1.799  22.661   7.209
    6AU     AUL 1935   2.041  22.514   6.983
    6AU       S 1936   1.575  22.575   7.027
    6AU     LIG 1937   1.399  22.142   6.892
    6AU     LIG 1938   1.085  21.899   6.624
    6AU       S 1939   2.270  22.115   7.174
    6AU     LIG 1940   2.126  21.853   6.828
    6AU     LIG 1941   2.045  21.492   6.551
    6AU    AUSL 1942   2.573  22.753   7.277
    6AU    AUSL 1943   2.694  22.839   6.851
    6AU     AUL 1944   2.642  22.481   7.057
    6AU       S 1945   2.210  21.995   7.407
    6AU     LIG 1946   2.291  21.593   7.245
    6AU     LIG 1947   2.432  21.346   6.889
    6AU       S 1948   2.896  22.697   6.692
    6AU     LIG 1949   2.987  22.578   6.245
    6AU     LIG 1950   3.229  22.200   6.078
    7AU     AUC 1951  43.538  36.766   7.497
    7AU     AUC 1952  43.841  36.806   7.327
    7AU     AUC 1953  43.818  36.786   7.665
    7AU     AUC 1954  43.248  36.750   7.331
    7AU     AUC 1955  43.246  36.748   7.682
    7AU     AUC 1956  43.348  37.011   7.514
    7AU     AUC 1957  43.688  37.041   7.500
    7AU     AUC 1958  43.379  36.483   7.499
    7AU     AUC 1959  43.742  36.530   7.489
    7AU     AUC 1960  43.576  36.599   7.766
    7AU     AUC 1961  43.522  36.923   7.777
    7AU     AUC 1962  43.557  36.608   7.219
    7AU     AUC 1963  43.555  36.943   7.225
    7AU     AUC 1964  44.148  36.836   7.173
    7AU     AUC 1965  44.186  36.829   7.491
    7AU     AUC 1966  44.123  36.791   7.859
    7AU     AUC 1967  42.950  36.730   7.154
    7AU     AUC 1968  42.908  36.779   7.525
    7AU     AUC 1969  42.964  36.732   7.853
    7AU     AUC 1970  43.177  37.310   7.497
    7AU     AUC 1971  43.520  37.374   7.492
    7AU     AUC 1972  43.834  37.359   7.511
    7AU     AUC 1973  43.209  36.168   7.504
    7AU     AUC 1974  43.557  36.202   7.498
    7AU     AUC 1975  43.948  36.252   7.462
    7AU     AUC 1976  43.592  36.375   8.051
    7AU     AUC 1977  43.538  36.696   8.093
    7AU     AUC 1978  43.534  37.074   8.064
    7AU     AUC 1979  43.556  36.414   6.932
    7AU     AUC 1980  43.555  36.758   6.912
    7AU     AUC 1981  43.573  37.117   6.927
    7AU     AUC 1982  43.875  36.547   7.961
    7AU     AUC 1983  43.843  36.911   8.007
    7AU     AUC 1984  43.849  36.622   7.013
    7AU     AUC 1985  43.873  36.984   7.003
    7AU     AUC 1986  43.247  36.534   7.977
    7AU     AUC 1987  43.242  36.893   7.988
    7AU     AUC 1988  43.215  36.550   7.048
    7AU     AUC 1989  43.224  36.922   7.016
    7AU     AUC 1990  44.043  37.101   7.350
    7AU     AUC 1991  43.986  37.071   7.706
    7AU     AUC 1992  43.057  37.037   7.298
    7AU     AUC 1993  43.038  37.055   7.691
    7AU     AUC 1994  44.056  36.523   7.301
    7AU     AUC 1995  44.070  36.501   7.628
    7AU     AUC 1996  43.019  36.467   7.353
    7AU     AUC 1997  43.052  36.463   7.684
    7AU     AUC 1998  43.339  37.240   7.790
    7AU     AUC 1999  43.676  37.245   7.807
    7AU     AUC 2000  43.365  36.256   7.768
    7AU     AUC 2001  43.778  36.280   7.793
    7AU     AUC 2002  43.349  37.203   7.169
    7AU     AUC 2003  43.739  37.245   7.175
    7AU     AUC 2004  43.341  36.280   7.224
    7AU     AUC 2005  43.733  36.311   7.171
    7AU    AUSL 2006  44.125  36.687   8.219
    7AU    AUSL 2007  43.990  36.222   8.086
    7AU     AUL 2008  44.259  36.304   8.273
    7AU       S 2009  44.414  35.916   8.074
    7AU     LIG 2010  44.287  35.750   8.433
    7AU     LIG 2011  44.368  35.421   8.746
    7AU       S 2012  44.378  36.737   8.377
    7AU     LIG 2013  44.372  36.943   8.769
    7AU     LIG 2014  44.472  36.698   9.149
    7AU    AUSL 2015  43.732  36.498   8.298
    7AU    AUSL 2016  43.393  36.820   8.373
    7AU     AUL 2017  43.585  36.672   8.630
    7AU       S 2018  44.010  36.472   8.621
    7AU     LIG 2019  43.964  36.693   8.983
    7AU     LIG 2020  44.028  36.613   9.426
    7AU       S 2021  42.866  36.625   8.678
    7AU     LIG 2022  43.074  36.966   8.952
    7AU     LIG 2023  43.034  37.093   9.399
    7AU    AUSL 2024  43.741  36.918   8.172
    7AU    AUSL 2025  44.149  37.106   8.133
    7AU     AUL 2026  43.963  36.932   8.462
    7AU       S 2027  43.575  37.173   8.616
    7AU     LIG 2028  43.932  37.197   8.900
    7AU     LIG 2029  44.176  37.096   9.263
    7AU       S 2030  44.287  37.260   8.341
    7AU     LIG 2031  44.724  37.390   8.328
    7AU     LIG 2032   0.047  37.506   8.647
    7AU    AUSL 2033  44.104  36.871   6.768
    7AU    AUSL 2034  43.986  37.312   6.829
    7AU     AUL 2035  44.146  37.138   6.510
    7AU       S 2036  44.012  36.742   6.299
    7AU     LIG 2037  44.384  36.773   6.046
    7AU     LIG 2038  44.446  36.537   5.651
    7AU       S 2039  44.301  37.479   6.777
    7AU     LIG 2040  44.448  37.734   6.430
    7AU     LIG 2041  44.711  37.931   6.097
    7AU    AUSL 2042  43.763  36.619   6.722
    7AU    AUSL 2043  44.087  36.544   7.048
    7AU     AUL 2044  44.189  36.567   6.685
    7AU       S 2045  44.189  35.810   6.705
    7AU     LIG 2046  44.589  35.970   6.549
    7AU     LIG 2047  44.930  35.840   6.260
    7AU       S 2048  43.826  36.407   6.393
    7AU     LIG 2049  43.785  36.182   5.934
    7AU     LIG 2050  44.025  36.219   5.518
    7AU    AUSL 2051  43.699  37.049   6.654
    7AU    AUSL 2052  43.381  36.481   6.626
    7AU     AUL 2053  43.561  36.788   6.422
    7AU       S 2054  43.189  36.506   6.312
    7AU     LIG 2055  43.296  36.376   5.887
    7AU     LIG 2056  43.021  36.411   5.503
    7AU       S 2057  44.003  36.501   6.232
    7AU     LIG 2058  43.939  36.658   5.796
    7AU     LIG 2059  44.063  36.722   5.345
    7AU    AUSL 2060  43.030  36.696   8.177
    7AU    AUSL 2061  43.272  37.153   8.148
    7AU     AUL 2062  43.134  37.004   8.453
    7AU       S 2063  42.795  36.687   8.374
    7AU     LIG 2064  42.651  37.066   8.647
    7AU     LIG 2065  42.588  37.044   9.105
    7AU       S 2066  42.868  37.367   8.291
    7AU     LIG 2067  42.815  37.571   8.659
    7AU     LIG 2068  42.580  37.811   8.981
    7AU    AUSL 2069  43.317  36.394   8.340
    7AU    AUSL 2070  42.926  36.304   8.033
    7AU     AUL 2071  42.989  36.268   8.325
    7AU       S 2072  42.779  35.879   8.124
    7AU     LIG 2073  42.322  35.924   8.128
    7AU     LIG 2074  42.001  35.708   8.405
    7AU       S 2075  43.110  36.556   8.657
    7AU     LIG 2076  43.300  36.518   9.050
    7AU     LIG 2077  43.116  36.576   9.469
    7AU    AUSL 2078  43.006  36.641   6.763
    7AU    AUSL 2079  43.261  36.336   7.010
    7AU     AUL 2080  43.115  36.250   6.693
    7AU       S 2081  42.816  36.574   6.507
    7AU     LIG 2082  42.549  36.756   6.167
    7AU     LIG 2083  42.547  36.644   5.696
    7AU       S 2084  42.658  36.095   6.708
    7AU     LIG 2085  42.774  35.665   6.610
    7AU     LIG 2086  42.599  35.364   6.310
    7AU    AUSL 2087  43.359  36.886   6.827
    7AU    AUSL 2088  42.911  37.027   6.902
    7AU     AUL 2089  43.119  36.927   6.546
    7AU       S 2090  42.744  37.153   6.708
    7AU     LIG 2091  42.415  37.418   6.598
    7AU     LIG 2092  42.284  37.674   6.235
    7AU       S 2093  42.926  36.438   6.261
    7AU     LIG 2094  42.997  36.785   5.926
    7AU     LIG 2095  42.925  36.924   5.472
    7AU    AUSL 2096  44.218  37.387   7.545
    7AU    AUSL 2097  44.224  37.098   7.108
    7AU     AUL 2098  44.380  37.475   7.247
    7AU       S 2099  44.482  37.137   6.918
    7AU     LIG 2100  44.962  37.238   6.717
    7AU     LIG 2101  44.987  37.617   6.447
    7AU       S 2102  44.732  37.411   7.801
    7AU     LIG 2103  44.834  37.664   7.371
    7AU     LIG 2104   0.194  37.583   7.049
    7AU    AUSL 2105  44.493  37.050   7.421
    7AU    AUSL 2106  44.501  36.666   7.661
    7AU     AUL 2107  44.816  36.840   7.554
    7AU       S 2108  44.663  37.267   7.615
    7AU     LIG 2109  44.920  37.187   7.216
    7AU     LIG 2110   0.397  37.130   7.183
    7AU       S 2111  44.754  36.374   7.490
    7AU     LIG 2112   0.071  36.130   7.667
    7AU     LIG 2113   0.465  35.993   7.837
    7AU    AUSL 2114  44.234  36.985   7.746
    7AU    AUSL 2115  43.905  37.287   7.811
    7AU     AUL 2116  44.252  37.392   7.886
    7AU       S 2117  44.239  37.579   8.340
    7AU     LIG 2118  44.527  37.806   8.089
    7AU     LIG 2119  44.704  38.236   8.117
    7AU       S 2120  44.591  37.075   7.913
    7AU     LIG 2121   0.079  37.070   7.938
    7AU     LIG 2122   0.529  37.032   7.727
    7AU    AUSL 2123  42.881  37.278   7.528
    7AU    AUSL 2124  42.901  37.036   7.950
    7AU     AUL 2125  42.618  37.388   7.809
    7AU       S 2126  42.774  37.117   8.153
    7AU     LIG 2127  42.373  37.280   8.263
    7AU     LIG 2128  42.300  37.514   8.640
    7AU       S 2129  42.826  37.668   7.488
    7AU     LIG 2130  42.357  37.553   7.404
    7AU     LIG 2131  41.886  37.628   7.421
    7AU    AUSL 2132  42.808  36.916   7.286
    7AU    AUSL 2133  42.965  37.395   7.132
    7AU     AUL 2134  42.666  37.240   7.179
    7AU       S 2135  42.506  36.782   6.941
    7AU     LIG 2136  42.186  37.175   7.016
    7AU     LIG 2137  41.758  37.423   6.962
    7AU       S 2138  42.793  37.605   6.887
    7AU     LIG 2139  42.620  37.906   6.573
    7AU     LIG 2140  42.335  38.187   6.316
    7AU    AUSL 2141  42.603  36.963   7.662
    7AU    AUSL 2142  42.589  36.580   7.407
    7AU     AUL 2143  42.410  36.906   7.379
    7AU       S 2144  42.320  36.523   7.640
    7AU     LIG 2145  42.137  36.481   7.218
    7AU     LIG 2146  41.763  36.239   7.144
    7AU       S 2147  42.397  36.974   7.861
    7AU     LIG 2148  42.090  37.203   7.681
    7AU     LIG 2149  41.747  37.444   7.877
    7AU    AUSL 2150  44.267  36.379   7.441
    7AU    AUSL 2151  44.139  36.528   7.833
    7AU     AUL 2152  44.466  36.411   7.861
    7AU       S 2153  44.571  36.215   7.434
    7AU     LIG 2154  44.750  35.787   7.442
    7AU     LIG 2155   0.111  35.595   7.695
    7AU       S 2156  44.654  35.966   7.911
    7AU     LIG 2157  44.826  35.778   8.311
    7AU     LIG 2158  44.872  35.478   8.669
    7AU    AUSL 2159  44.449  36.689   7.200
    7AU    AUSL 2160  44.154  36.093   7.158
    7AU     AUL 2161  44.386  36.347   7.033
    7AU       S 2162  44.765  36.485   7.250
    7AU     LIG 2163   0.027  36.109   7.150
    7AU     LIG 2164   0.429  35.921   7.325
    7AU       S 2165  44.289  35.895   6.962
    7AU     LIG 2166  44.643  35.629   6.929
    7AU     LIG 2167  44.743  35.424   6.523
    7AU    AUSL 2168  42.937  36.340   7.518
    7AU    AUSL 2169  42.841  36.451   7.095
    7AU     AUL 2170  42.581  36.249   7.345
    7AU       S 2171  42.671  36.302   6.895
    7AU     LIG 2172  42.241  36.063   6.961
    7AU     LIG 2173  42.201  35.754   6.617
    7AU       S 2174  42.262  36.387   7.737
    7AU     LIG 2175  42.183  36.004   7.559
    7AU     LIG 2176  41.883  35.717   7.720
    7AU    AUSL 2177  42.753  36.606   7.813
    7AU    AUSL 2178  43.035  36.004   7.737
    7AU     AUL 2179  42.702  36.194   7.786
    7AU       S 2180  42.907  35.760   7.795
    7AU     LIG 2181  42.464  35.563   7.798
    7AU     LIG 2182  42.221  35.326   8.132
    7AU       S 2183  42.384  36.510   7.917
    7AU     LIG 2184  41.842  36.393   7.956
    7AU     LIG 2185  41.509  36.273   7.623
    7AU    AUSL 2186  43.505  37.455   7.951
    7AU    AUSL 2187  43.078  37.424   7.875
    7AU     AUL 2188  43.322  37.477   8.255
    7AU       S 2189  42.970  37.633   7.996
    7AU     LIG 2190  42.573  37.756   8.203
    7AU     LIG 2191  42.393  38.017   8.537
    7AU       S 2192  43.454  37.856   8.001
    7AU     LIG 2193  43.730  38.082   8.279
    7AU     LIG 2194  43.669  38.502   8.505
    7AU    AUSL 2195  43.312  37.646   7.605
    7AU    AUSL 2196  43.654  37.692   7.271
    7AU     AUL 2197  43.349  37.917   7.377
    7AU       S 2198  43.486  38.067   7.829
    7AU     LIG 2199  43.457  38.450   8.023
    7AU     LIG 2200  43.400  38.873   8.037
    7AU       S 2201  43.611  37.935   6.973
    7AU     LIG 2202  43.807  38.336   7.149
    7AU     LIG 2203  44.003  38.740   6.943
    7AU    AUSL 2204  43.772  37.653   7.672
    7AU    AUSL 2205  43.786  37.327   8.234
    7AU     AUL 2206  43.857  37.609   8.034
    7AU       S 2207  44.006  37.427   8.469
    7AU     LIG 2208  44.417  37.491   8.775
    7AU     LIG 2209  44.692  37.868   8.598
    7AU       S 2210  43.713  37.933   7.719
    7AU     LIG 2211  43.928  38.341   7.859
    7AU     LIG 2212  43.903  38.741   8.120
    7AU    AUSL 2213  43.616  36.030   8.114
    7AU    AUSL 2214  44.167  36.069   7.710
    7AU     AUL 2215  43.943  35.854   8.013
    7AU       S 2216  43.534  35.507   8.082
    7AU     LIG 2217  43.257  35.134   8.141
    7AU     LIG 2218  43.277  34.670   8.172
    7AU       S 2219  44.363  35.918   7.762
    7AU     LIG 2220  44.588  35.483   7.850
    7AU     LIG 2221  44.603  35.310   8.268
    7AU    AUSL 2222  43.429  35.868   7.751
    7AU    AUSL 2223  43.341  36.282   7.937
    7AU     AUL 2224  43.260  35.943   8.088
    7AU       S 2225  43.379  35.563   7.836
    7AU     LIG 2226  43.050  35.271   7.692
    7AU     LIG 2227  42.981  34.830   7.780
    7AU       S 2228  42.897  35.600   8.068
    7AU     LIG 2229  42.572  35.550   8.434
    7AU     LIG 2230  42.259  35.363   8.738
    7AU    AUSL 2231  43.761  36.118   7.682
    7AU    AUSL 2232  43.380  35.964   7.344
    7AU     AUL 2233  43.711  35.763   7.541
    7AU       S 2234  43.247  35.654   7.373
    7AU     LIG 2235  42.945  35.453   7.146
    7AU     LIG 2236  43.045  34.987   7.150
    7AU       S 2237  43.590  35.356   7.824
    7AU     LIG 2238  43.492  34.884   7.724
    7AU     LIG 2239  43.577  34.403   7.842
    7AU    AUSL 2240  43.600  37.429   6.940
    7AU    AUSL 2241  43.909  37.352   7.266
    7AU     AUL 2242  43.955  37.633   7.056
    7AU       S 2243  43.617  37.622   6.712
    7AU     LIG 2244  43.979  37.905   6.628
    7AU     LIG 2245  43.826  38.350   6.634
    7AU       S 2246  44.509  37.359   6.778
    7AU     LIG 2247  44.727  37.736   6.877
    7AU     LIG 2248  44.804  38.092   6.596
    7AU    AUSL 2249  43.348  37.380   7.291
    7AU    AUSL 2250  43.236  37.292   6.804
    7AU     AUL 2251  43.245  37.616   7.015
    7AU       S 2252  43.479  37.927   6.710
    7AU     LIG 2253  43.355  38.356   6.896
    7AU     LIG 2254  43.502  38.774   7.053
    7AU       S 2255  42.997  37.419   6.637
    7AU     LIG 2256  42.799  37.548   6.255
    7AU     LIG 2257  42.678  37.937   6.004
    7AU    AUSL 2258  43.518  36.020   6.924
    7AU    AUSL 2259  42.988  36.052   7.210
    7AU     AUL 2260  43.221  35.902   6.980
    7AU       S 2261  42.752  35.985   6.986
    7AU     LIG 2262  42.456  35.611   7.041
    7AU     LIG 2263  42.064  35.340   6.889
    7AU       S 2264  43.481  35.519   7.173
    7AU     LIG 2265  43.339  35.321   6.833
    7AU     LIG 2266  43.420  34.884   6.721
    7AU    AUSL 2267  43.760  36.143   7.268
    7AU    AUSL 2268  43.874  36.230   6.842
    7AU     AUL 2269  43.826  35.871   7.049
    7AU       S 2270  43.397  35.387   7.360
    7AU     LIG 2271  43.576  34.993   7.208
    7AU     LIG 2272  43.890  34.721   6.960
    7AU       S 2273  44.071  36.091   6.687
    7AU     LIG 2274  44.176  36.023   6.248
    7AU     LIG 2275  44.452  35.678   6.115
    8AU     AUC 2276  27.078  15.012   7.501
    8AU     AUC 2277  27.382  15.047   7.335
    8AU     AUC 2278  27.357  15.027   7.673
    8AU     AUC 2279  26.791  15.000   7.332
    8AU     AUC 2280  26.784  14.997   7.682
    8AU     AUC 2281  26.892  15.261   7.517
    8AU     AUC 2282  27.234  15.286   7.506
    8AU     AUC 2283  26.915  14.731   7.500
    8AU     AUC 2284  27.278  14.773   7.493
    8AU     AUC 2285  27.111  14.844   7.769
    8AU     AUC 2286  27.060  15.170   7.782
    8AU     AUC 2287  27.098  14.855   7.223
    8AU     AUC 2288  27.101  15.190   7.231
    8AU     AUC 2289  27.690  15.071   7.183
    8AU     AUC 2290  27.727  15.063   7.505
    8AU     AUC 2291  27.657  15.025   7.871
    8AU     AUC 2292  26.493  14.983   7.153
    8AU     AUC 2293  26.450  15.030   7.523
    8AU     AUC 2294  26.500  14.985   7.852
    8AU     AUC 2295  26.726  15.563   7.499
    8AU     AUC 2296  27.071  15.621   7.496
    8AU     AUC 2297  27.385  15.600   7.520
    8AU     AUC 2298  26.742  14.416   7.502
    8AU     AUC 2299  27.090  14.447   7.500
    8AU     AUC 2300  27.479  14.491   7.467
    8AU     AUC 2301  27.120  14.620   8.053
    8AU     AUC 2302  27.068  14.941   8.096
    8AU     AUC 2303  27.070  15.320   8.068
    8AU     AUC 2304  27.097  14.663   6.934
    8AU     AUC 2305  27.099  15.007   6.916
    8AU     AUC 2306  27.123  15.365   6.934
    8AU     AUC 2307  27.406  14.787   7.969
    8AU     AUC 2308  27.378  15.151   8.015
    8AU     AUC 2309  27.391  14.867   7.017
    8AU     AUC 2310  27.420  15.227   7.011
    8AU     AUC 2311  26.776  14.783   7.977
    8AU     AUC 2312  26.777  15.144   7.989
    8AU     AUC 2313  26.756  14.801   7.049
    8AU     AUC 2314  26.771  15.174   7.020
    8AU     AUC 2315  27.589  15.338   7.363
    8AU     AUC 2316  27.529  15.308   7.718
    8AU     AUC 2317  26.604  15.291   7.299
    8AU     AUC 2318  26.582  15.308   7.691
    8AU     AUC 2319  27.593  14.763   7.307
    8AU     AUC 2320  27.602  14.737   7.638
    8AU     AUC 2321  26.558  14.718   7.350
    8AU     AUC 2322  26.584  14.712   7.681
    8AU     AUC 2323  26.884  15.489   7.793
    8AU     AUC 2324  27.220  15.488   7.813
    8AU     AUC 2325  26.895  14.505   7.768
    8AU     AUC 2326  27.308  14.522   7.798
    8AU     AUC 2327  26.899  15.453   7.174
    8AU     AUC 2328  27.292  15.491   7.183
    8AU     AUC 2329  26.880  14.529   7.225
    8AU     AUC 2330  27.272  14.556   7.173
    8AU    AUSL 2331  27.654  14.920   8.232
    8AU    AUSL 2332  27.520  14.460   8.098
    8AU     AUL 2333  27.802  14.530   8.302
    8AU       S 2334  27.936  14.155   8.082
    8AU     LIG 2335  27.779  13.961   8.413
    8AU     LIG 2336  27.927  13.782   8.804
    8AU       S 2337  27.896  14.969   8.359
    8AU     LIG 2338  27.916  15.147   8.752
    8AU     LIG 2339  28.024  14.902   9.127
    8AU    AUSL 2340  27.252  14.739   8.296
    8AU    AUSL 2341  26.919  15.066   8.370
    8AU     AUL 2342  27.091  14.930   8.638
    8AU       S 2343  27.454  14.660   8.562
    8AU     LIG 2344  27.523  14.874   8.932
    8AU     LIG 2345  27.579  14.771   9.379
    8AU       S 2346  26.402  14.867   8.663
    8AU     LIG 2347  26.533  15.228   8.938
    8AU     LIG 2348  26.552  15.188   9.402
    8AU    AUSL 2349  27.274  15.160   8.180
    8AU    AUSL 2350  27.683  15.340   8.147
    8AU     AUL 2351  27.487  15.158   8.474
    8AU       S 2352  27.096  15.420   8.616
    8AU     LIG 2353  27.429  15.384   8.911
    8AU     LIG 2354  27.699  15.274   9.244
    8AU       S 2355  27.806  15.489   8.362
    8AU     LIG 2356  28.228  15.441   8.398
    8AU     LIG 2357  28.633  15.651   8.258
    8AU    AUSL 2358  27.652  15.114   6.770
    8AU    AUSL 2359  27.542  15.550   6.840
    8AU     AUL 2360  27.680  15.397   6.510
    8AU       S 2361  27.559  14.991   6.311
    8AU     LIG 2362  27.928  15.079   6.081
    8AU     LIG 2363  28.016  14.851   5.682
    8AU       S 2364  27.913  15.661   6.808
    8AU     LIG 2365  27.748  15.892   6.510
    8AU     LIG 2366  27.923  16.183   6.226
    8AU    AUSL 2367  27.307  14.869   6.726
    8AU    AUSL 2368  27.628  14.788   7.052
    8AU     AUL 2369  27.735  14.807   6.694
    8AU       S 2370  27.694  14.058   6.685
    8AU     LIG 2371  28.103  14.230   6.529
    8AU     LIG 2372  28.451  14.055   6.284
    8AU       S 2373  27.372  14.666   6.394
    8AU     LIG 2374  27.319  14.448   5.944
    8AU     LIG 2375  27.642  14.456   5.607
    8AU    AUSL 2376  27.247  15.299   6.661
    8AU    AUSL 2377  26.925  14.735   6.625
    8AU     AUL 2378  27.105  15.044   6.425
    8AU       S 2379  26.726  14.769   6.306
    8AU     LIG 2380  26.855  14.655   5.896
    8AU     LIG 2381  26.593  14.614   5.516
    8AU       S 2382  27.576  14.749   6.232
    8AU     LIG 2383  27.502  14.918   5.805
    8AU     LIG 2384  27.608  14.913   5.341
    8AU    AUSL 2385  26.553  14.947   8.177
    8AU    AUSL 2386  26.810  15.410   8.156
    8AU     AUL 2387  26.661  15.249   8.454
    8AU       S 2388  26.306  14.946   8.375
    8AU     LIG 2389  26.046  15.178   8.740
    8AU     LIG 2390  26.178  14.918   9.133
    8AU       S 2391  26.412  15.624   8.289
    8AU     LIG 2392  26.274  15.719   8.662
    8AU     LIG 2393  25.977  16.030   8.810
    8AU    AUSL 2394  26.836  14.641   8.343
    8AU    AUSL 2395  26.451  14.555   8.030
    8AU     AUL 2396  26.501  14.523   8.321
    8AU       S 2397  26.312  14.123   8.122
    8AU     LIG 2398  25.956  14.219   8.330
    8AU     LIG 2399  25.790  14.049   8.726
    8AU       S 2400  26.627  14.804   8.660
    8AU     LIG 2401  26.702  14.769   9.104
    8AU     LIG 2402  26.509  14.670   9.526
    8AU    AUSL 2403  26.550  14.898   6.762
    8AU    AUSL 2404  26.803  14.589   7.008
    8AU     AUL 2405  26.666  14.507   6.688
    8AU       S 2406  26.362  14.827   6.493
    8AU     LIG 2407  26.037  14.899   6.139
    8AU     LIG 2408  26.042  14.825   5.657
    8AU       S 2409  26.257  14.257   6.685
    8AU     LIG 2410  26.181  13.838   6.463
    8AU     LIG 2411  25.811  13.529   6.346
    8AU    AUSL 2412  26.905  15.136   6.832
    8AU    AUSL 2413  26.460  15.284   6.906
    8AU     AUL 2414  26.664  15.182   6.551
    8AU       S 2415  26.294  15.413   6.712
    8AU     LIG 2416  25.937  15.622   6.621
    8AU     LIG 2417  25.723  15.912   6.337
    8AU       S 2418  26.466  14.663   6.256
    8AU     LIG 2419  26.479  14.992   5.901
    8AU     LIG 2420  26.437  15.105   5.437
    8AU    AUSL 2421  27.768  15.617   7.561
    8AU    AUSL 2422  27.767  15.325   7.122
    8AU     AUL 2423  27.932  15.708   7.276
    8AU       S 2424  28.022  15.364   6.945
    8AU     LIG 2425  28.157  15.275   6.520
    8AU     LIG 2426  28.180  15.688   6.308
    8AU       S 2427  28.285  15.547   7.891
    8AU     LIG 2428  28.617  15.817   7.681
    8AU     LIG 2429  28.735  15.915   7.222
    8AU    AUSL 2430  28.036  15.279   7.436
    8AU    AUSL 2431  28.036  14.889   7.672
    8AU     AUL 2432  28.347  15.068   7.545
    8AU       S 2433  28.210  15.494   7.658
    8AU     LIG 2434  28.484  15.481   7.299
    8AU     LIG 2435  28.929  15.433   7.158
    8AU       S 2436  28.276  14.599   7.511
    8AU     LIG 2437  28.558  14.485   7.801
    8AU     LIG 2438  29.023  14.404   7.764
    8AU    AUSL 2439  27.777  15.215   7.763
    8AU    AUSL 2440  27.450  15.525   7.822
    8AU     AUL 2441  27.803  15.619   7.906
    8AU       S 2442  27.787  15.796   8.372
    8AU     LIG 2443  28.180  15.928   8.196
    8AU     LIG 2444  28.592  16.163   8.231
    8AU       S 2445  28.120  15.270   7.938
    8AU     LIG 2446  28.609  15.197   7.963
    8AU     LIG 2447  28.916  15.391   7.676
    8AU    AUSL 2448  26.429  15.530   7.528
    8AU    AUSL 2449  26.444  15.293   7.947
    8AU     AUL 2450  26.167  15.647   7.803
    8AU       S 2451  26.311  15.382   8.159
    8AU     LIG 2452  25.912  15.494   8.338
    8AU     LIG 2453  25.611  15.819   8.481
    8AU       S 2454  26.386  15.929   7.490
    8AU     LIG 2455  25.925  15.835   7.389
    8AU     LIG 2456  25.458  15.816   7.338
    8AU    AUSL 2457  26.354  15.168   7.288
    8AU    AUSL 2458  26.518  15.652   7.134
    8AU     AUL 2459  26.213  15.495   7.181
    8AU       S 2460  26.050  15.041   6.942
    8AU     LIG 2461  25.716  15.421   7.034
    8AU     LIG 2462  25.227  15.496   6.997
    8AU       S 2463  26.344  15.862   6.897
    8AU     LIG 2464  25.988  16.121   6.756
    8AU     LIG 2465  25.915  16.392   6.378
    8AU    AUSL 2466  26.144  15.221   7.661
    8AU    AUSL 2467  26.128  14.834   7.401
    8AU     AUL 2468  25.961  15.163   7.384
    8AU       S 2469  25.865  14.775   7.633
    8AU     LIG 2470  25.692  14.719   7.197
    8AU     LIG 2471  25.372  14.405   7.077
    8AU       S 2472  25.931  15.247   7.872
    8AU     LIG 2473  25.651  15.515   7.704
    8AU     LIG 2474  25.303  15.794   7.861
    8AU    AUSL 2475  27.790  14.612   7.451
    8AU    AUSL 2476  27.671  14.764   7.845
    8AU     AUL 2477  27.991  14.633   7.879
    8AU       S 2478  28.089  14.441   7.452
    8AU     LIG 2479  28.363  14.096   7.468
    8AU     LIG 2480  28.714  13.979   7.746
    8AU       S 2481  28.168  14.166   7.928
    8AU     LIG 2482  28.308  14.043   8.379
    8AU     LIG 2483  28.443  13.784   8.740
    8AU    AUSL 2484  27.991  14.916   7.216
    8AU    AUSL 2485  27.690  14.336   7.153
    8AU     AUL 2486  27.930  14.588   7.045
    8AU       S 2487  28.315  14.670   7.285
    8AU     LIG 2488  28.740  14.428   7.321
    8AU     LIG 2489  29.224  14.460   7.283
    8AU       S 2490  27.815  14.147   6.933
    8AU     LIG 2491  28.123  13.823   6.842
    8AU     LIG 2492  28.231  13.607   6.450
    8AU    AUSL 2493  26.472  14.589   7.512
    8AU    AUSL 2494  26.381  14.702   7.089
    8AU     AUL 2495  26.120  14.502   7.329
    8AU       S 2496  26.222  14.538   6.873
    8AU     LIG 2497  25.812  14.331   6.868
    8AU     LIG 2498  25.711  14.027   6.546
    8AU       S 2499  25.700  14.821   7.728
    8AU     LIG 2500  25.663  14.346   7.550
    8AU     LIG 2501  25.302  14.114   7.580
    8AU    AUSL 2502  26.296  14.861   7.803
    8AU    AUSL 2503  26.562  14.255   7.737
    8AU     AUL 2504  26.231  14.440   7.775
    8AU       S 2505  26.428  13.994   7.834
    8AU     LIG 2506  26.088  13.635   7.960
    8AU     LIG 2507  25.762  13.502   8.287
    8AU       S 2508  25.942  14.780   7.890
    8AU     LIG 2509  25.584  14.447   8.045
    8AU     LIG 2510  25.137  14.246   8.046
    8AU    AUSL 2511  27.052  15.701   7.954
    8AU    AUSL 2512  26.624  15.679   7.874
    8AU     AUL 2513  26.866  15.736   8.251
    8AU       S 2514  26.504  15.900   8.008
    8AU     LIG 2515  26.072  15.985   8.223
    8AU     LIG 2516  25.780  16.311   8.420
    8AU       S 2517  27.017  16.115   8.004
    8AU     LIG 2518  27.248  16.477   8.224
    8AU     LIG 2519  27.160  16.915   8.362
    8AU    AUSL 2520  26.868  15.898   7.608
    8AU    AUSL 2521  27.214  15.939   7.275
    8AU     AUL 2522  26.905  16.164   7.376
    8AU       S 2523  27.009  16.333   7.821
    8AU     LIG 2524  26.894  16.765   7.899
    8AU     LIG 2525  26.667  17.059   8.161
    8AU       S 2526  27.176  16.174   6.984
    8AU     LIG 2527  27.351  16.534   7.197
    8AU     LIG 2528  27.528  16.975   7.079
    8AU    AUSL 2529  27.326  15.894   7.677
    8AU    AUSL 2530  27.323  15.567   8.243
    8AU     AUL 2531  27.410  15.849   8.040
    8AU       S 2532  27.523  15.656   8.483
    8AU     LIG 2533  27.872  15.652   8.833
    8AU     LIG 2534  28.282  15.849   8.706
    8AU       S 2535  27.264  16.191   7.729
    8AU     LIG 2536  27.377  16.687   7.753
    8AU     LIG 2537  27.243  17.144   7.923
    8AU    AUSL 2538  27.142  14.278   8.116
    8AU    AUSL 2539  27.692  14.302   7.719
    8AU     AUL 2540  27.462  14.093   8.017
    8AU       S 2541  27.056  13.771   8.101
    8AU     LIG 2542  26.811  13.442   8.248
    8AU     LIG 2543  26.868  12.977   8.310
    8AU       S 2544  27.883  14.137   7.773
    8AU     LIG 2545  27.952  13.686   7.965
    8AU     LIG 2546  28.137  13.545   8.373
    8AU    AUSL 2547  26.954  14.116   7.753
    8AU    AUSL 2548  26.869  14.532   7.939
    8AU     AUL 2549  26.791  14.204   8.093
    8AU       S 2550  26.911  13.822   7.847
    8AU     LIG 2551  26.593  13.505   7.772
    8AU     LIG 2552  26.464  13.142   8.027
    8AU       S 2553  26.480  13.849   8.133
    8AU     LIG 2554  26.173  13.763   8.466
    8AU     LIG 2555  25.916  13.544   8.779
    8AU    AUSL 2556  27.288  14.362   7.685
    8AU    AUSL 2557  26.915  14.209   7.344
    8AU     AUL 2558  27.233  14.003   7.536
    8AU       S 2559  26.756  13.898   7.379
    8AU     LIG 2560  26.424  13.630   7.227
    8AU     LIG 2561  26.515  13.183   7.125
    8AU       S 2562  27.121  13.622   7.856
    8AU     LIG 2563  26.978  13.170   7.831
    8AU     LIG 2564  26.892  12.691   7.872
    8AU    AUSL 2565  27.157  15.675   6.945
    8AU    AUSL 2566  27.464  15.595   7.275
    8AU     AUL 2567  27.525  15.867   7.046
    8AU       S 2568  27.183  15.896   6.714
    8AU     LIG 2569  27.488  16.298   6.626
    8AU     LIG 2570  27.315  16.722   6.683
    8AU       S 2571  28.207  15.612   6.878
    8AU     LIG 2572  28.213  16.047   6.701
    8AU     LIG 2573  28.386  16.349   6.400
    8AU    AUSL 2574  26.901  15.632   7.294
    8AU    AUSL 2575  26.790  15.544   6.808
    8AU     AUL 2576  26.802  15.865   7.014
    8AU       S 2577  27.020  16.198   6.738
    8AU     LIG 2578  26.893  16.606   6.960
    8AU     LIG 2579  26.788  17.030   6.774
    8AU       S 2580  26.541  15.678   6.639
    8AU     LIG 2581  26.261  15.932   6.361
    8AU     LIG 2582  26.049  16.100   5.965
    8AU    AUSL 2583  27.055  14.268   6.926
    8AU    AUSL 2584  26.527  14.303   7.202
    8AU     AUL 2585  26.762  14.152   6.979
    8AU       S 2586  26.297  14.232   6.974
    8AU     LIG 2587  26.035  13.852   6.952
    8AU     LIG 2588  25.660  13.614   6.835
    8AU       S 2589  26.974  13.745   7.168
    8AU     LIG 2590  26.724  13.536   6.823
    8AU     LIG 2591  26.590  13.104   6.629
    8AU    AUSL 2592  27.298  14.385   7.271
    8AU    AUSL 2593  27.408  14.478   6.844
    8AU     AUL 2594  27.359  14.114   7.052
    8AU       S 2595  26.899  13.626   7.388
    8AU     LIG 2596  26.991  13.179   7.307
    8AU     LIG 2597  27.131  12.827   7.015
    8AU       S 2598  27.593  14.338   6.683
    8AU     LIG 2599  27.695  14.260   6.232
    8AU     LIG 2600  27.973  13.920   6.102
    9AU     AUC 2601  38.020  11.950   7.501
    9AU     AUC 2602  38.321  11.984   7.331
    9AU     AUC 2603  38.298  11.969   7.669
    9AU     AUC 2604  37.731  11.933   7.336
    9AU     AUC 2605  37.726  11.938   7.686
    9AU     AUC 2606  37.831  12.196   7.514
    9AU     AUC 2607  38.173  12.225   7.498
    9AU     AUC 2608  37.858  11.668   7.509
    9AU     AUC 2609  38.222  11.711   7.497
    9AU     AUC 2610  38.056  11.788   7.772
    9AU     AUC 2611  38.003  12.113   7.778
    9AU     AUC 2612  38.037  11.786   7.226
    9AU     AUC 2613  38.037  12.122   7.227
    9AU     AUC 2614  38.628  12.007   7.176
    9AU     AUC 2615  38.667  12.004   7.495
    9AU     AUC 2616  38.602  11.975   7.863
    9AU     AUC 2617  37.432  11.913   7.160
    9AU     AUC 2618  37.389  11.970   7.531
    9AU     AUC 2619  37.441  11.928   7.856
    9AU     AUC 2620  37.664  12.499   7.492
    9AU     AUC 2621  38.007  12.558   7.484
    9AU     AUC 2622  38.322  12.541   7.505
    9AU     AUC 2623  37.687  11.355   7.521
    9AU     AUC 2624  38.036  11.385   7.512
    9AU     AUC 2625  38.427  11.430   7.475
    9AU     AUC 2626  38.069  11.569   8.061
    9AU     AUC 2627  38.016  11.891   8.098
    9AU     AUC 2628  38.015  12.269   8.062
    9AU     AUC 2629  38.033  11.587   6.943
    9AU     AUC 2630  38.034  11.932   6.916
    9AU     AUC 2631  38.056  12.291   6.926
    9AU     AUC 2632  38.353  11.737   7.970
    9AU     AUC 2633  38.323  12.101   8.009
    9AU     AUC 2634  38.327  11.796   7.018
    9AU     AUC 2635  38.355  12.158   7.004
    9AU     AUC 2636  37.725  11.730   7.984
    9AU     AUC 2637  37.722  12.090   7.989
    9AU     AUC 2638  37.695  11.728   7.058
    9AU     AUC 2639  37.706  12.101   7.018
    9AU     AUC 2640  38.527  12.278   7.349
    9AU     AUC 2641  38.469  12.252   7.705
    9AU     AUC 2642  37.541  12.223   7.297
    9AU     AUC 2643  37.522  12.248   7.690
    9AU     AUC 2644  38.535  11.699   7.308
    9AU     AUC 2645  38.548  11.681   7.637
    9AU     AUC 2646  37.501  11.653   7.365
    9AU     AUC 2647  37.529  11.654   7.696
    9AU     AUC 2648  37.824  12.432   7.785
    9AU     AUC 2649  38.161  12.433   7.802
    9AU     AUC 2650  37.844  11.446   7.781
    9AU     AUC 2651  38.257  11.467   7.806
    9AU     AUC 2652  37.834  12.382   7.166
    9AU     AUC 2653  38.226  12.423   7.171
    9AU     AUC 2654  37.821  11.459   7.240
    9AU     AUC 2655  38.211  11.487   7.183
    9AU    AUSL 2656  38.603  11.876   8.226
    9AU    AUSL 2657  38.470  11.416   8.104
    9AU     AUL 2658  38.751  11.482   8.303
    9AU       S 2659  38.898  11.101   8.095
    9AU     LIG 2660  38.830  10.839   8.397
    9AU     LIG 2661  39.095  10.604   8.685
    9AU       S 2662  38.843  11.923   8.339
    9AU     LIG 2663  38.887  12.109   8.722
    9AU     LIG 2664  38.995  11.863   9.099
    9AU    AUSL 2665  38.202  11.695   8.301
    9AU    AUSL 2666  37.869  12.021   8.372
    9AU     AUL 2667  38.044  11.892   8.641
    9AU       S 2668  38.405  11.621   8.561
    9AU     LIG 2669  38.492  11.851   8.916
    9AU     LIG 2670  38.543  11.816   9.368
    9AU       S 2671  37.335  11.822   8.668
    9AU     LIG 2672  37.482  12.191   8.926
    9AU     LIG 2673  37.508  12.184   9.382
    9AU    AUSL 2674  38.221  12.113   8.175
    9AU    AUSL 2675  38.629  12.295   8.132
    9AU     AUL 2676  38.440  12.120   8.466
    9AU       S 2677  38.049  12.382   8.606
    9AU     LIG 2678  38.386  12.355   8.901
    9AU     LIG 2679  38.715  12.279   9.194
    9AU       S 2680  38.763  12.444   8.339
    9AU     LIG 2681  39.196  12.435   8.429
    9AU     LIG 2682  39.612  12.690   8.463
    9AU    AUSL 2683  38.584  12.038   6.767
    9AU    AUSL 2684  38.472  12.481   6.824
    9AU     AUL 2685  38.628  12.305   6.504
    9AU       S 2686  38.487  11.905   6.308
    9AU     LIG 2687  38.875  11.916   6.051
    9AU     LIG 2688  38.915  11.657   5.659
    9AU       S 2689  38.797  12.623   6.788
    9AU     LIG 2690  38.758  12.852   6.459
    9AU     LIG 2691  39.069  13.159   6.325
    9AU    AUSL 2692  38.239  11.791   6.727
    9AU    AUSL 2693  38.565  11.718   7.055
    9AU     AUL 2694  38.667  11.730   6.693
    9AU       S 2695  38.630  10.986   6.691
    9AU     LIG 2696  39.002  11.179   6.490
    9AU     LIG 2697  39.356  10.943   6.319
    9AU       S 2698  38.301  11.583   6.399
    9AU     LIG 2699  38.202  11.404   5.931
    9AU     LIG 2700  38.460  11.439   5.516
    9AU    AUSL 2701  38.180  12.220   6.652
    9AU    AUSL 2702  37.856  11.652   6.636
    9AU     AUL 2703  38.030  11.957   6.424
    9AU       S 2704  37.646  11.676   6.319
    9AU     LIG 2705  37.666  11.560   5.867
    9AU     LIG 2706  37.339  11.465   5.535
    9AU       S 2707  38.501  11.647   6.236
    9AU     LIG 2708  38.424  11.854   5.813
    9AU     LIG 2709  38.563  11.939   5.376
    9AU    AUSL 2710  37.505  11.897   8.179
    9AU    AUSL 2711  37.754  12.356   8.147
    9AU     AUL 2712  37.609  12.204   8.450
    9AU       S 2713  37.266  11.891   8.365
    9AU     LIG 2714  37.018  12.184   8.647
    9AU     LIG 2715  37.029  12.059   9.111
    9AU       S 2716  37.353  12.575   8.286
    9AU     LIG 2717  37.153  12.675   8.644
    9AU     LIG 2718  36.924  13.040   8.779
    9AU    AUSL 2719  37.788  11.596   8.351
    9AU    AUSL 2720  37.405  11.503   8.041
    9AU     AUL 2721  37.461  11.469   8.333
    9AU       S 2722  37.256  11.070   8.148
    9AU     LIG 2723  36.841  10.963   8.305
    9AU     LIG 2724  36.584  10.781   8.648
    9AU       S 2725  37.578  11.764   8.662
    9AU     LIG 2726  37.620  11.732   9.110
    9AU     LIG 2727  37.374  11.687   9.507
    9AU    AUSL 2728  37.483  11.818   6.775
    9AU    AUSL 2729  37.740  11.510   7.022
    9AU     AUL 2730  37.589  11.424   6.708
    9AU       S 2731  37.280  11.746   6.525
    9AU     LIG 2732  36.894  11.764   6.240
    9AU     LIG 2733  36.888  11.782   5.753
    9AU       S 2734  37.141  11.236   6.780
    9AU     LIG 2735  37.247  10.790   6.704
    9AU     LIG 2736  37.065  10.500   6.399
    9AU    AUSL 2737  37.839  12.060   6.830
    9AU    AUSL 2738  37.390  12.210   6.900
    9AU     AUL 2739  37.588  12.099   6.551
    9AU       S 2740  37.213  12.343   6.703
    9AU     LIG 2741  36.863  12.638   6.631
    9AU     LIG 2742  36.697  12.953   6.323
    9AU       S 2743  37.362  11.577   6.298
    9AU     LIG 2744  37.331  11.930   6.005
    9AU     LIG 2745  37.336  11.989   5.542
    9AU    AUSL 2746  38.708  12.562   7.541
    9AU    AUSL 2747  38.705  12.265   7.107
    9AU     AUL 2748  38.876  12.646   7.250
    9AU       S 2749  38.959  12.299   6.922
    9AU     LIG 2750  39.438  12.310   6.779
    9AU     LIG 2751  39.568  12.719   6.590
    9AU       S 2752  39.221  12.555   7.912
    9AU     LIG 2753  39.311  12.876   7.537
    9AU     LIG 2754  39.589  12.922   7.138
    9AU    AUSL 2755  38.973  12.221   7.421
    9AU    AUSL 2756  38.982  11.840   7.666
    9AU     AUL 2757  39.288  12.019   7.512
    9AU       S 2758  39.145  12.429   7.661
    9AU     LIG 2759  39.387  12.456   7.264
    9AU     LIG 2760  39.828  12.456   7.114
    9AU       S 2761  39.246  11.540   7.537
    9AU     LIG 2762  39.585  11.313   7.756
    9AU     LIG 2763  39.980  11.140   7.935
    9AU    AUSL 2764  38.716  12.162   7.749
    9AU    AUSL 2765  38.390  12.472   7.806
    9AU     AUL 2766  38.738  12.571   7.883
    9AU       S 2767  38.743  12.754   8.342
    9AU     LIG 2768  39.167  12.927   8.293
    9AU     LIG 2769  39.475  13.213   8.511
    9AU       S 2770  39.070  12.233   7.924
    9AU     LIG 2771  39.569  12.204   7.889
    9AU     LIG 2772  39.956  12.316   7.622
    9AU    AUSL 2773  37.370  12.470   7.522
    9AU    AUSL 2774  37.384  12.237   7.949
    9AU     AUL 2775  37.107  12.589   7.798
    9AU       S 2776  37.252  12.327   8.157
    9AU     LIG 2777  36.844  12.472   8.254
    9AU     LIG 2778  36.593  12.722   8.522
    9AU       S 2779  37.320  12.862   7.475
    9AU     LIG 2780  36.849  12.781   7.378
    9AU     LIG 2781  36.373  12.881   7.485
    9AU    AUSL 2782  37.298  12.102   7.288
    9AU    AUSL 2783  37.453  12.580   7.124
    9AU     AUL 2784  37.152  12.433   7.176
    9AU       S 2785  36.995  11.948   6.936
    9AU     LIG 2786  36.695  12.293   6.961
    9AU     LIG 2787  36.464  12.696   7.012
    9AU       S 2788  37.277  12.797   6.880
    9AU     LIG 2789  36.978  13.139   6.717
    9AU     LIG 2790  36.854  13.502   6.433
    9AU    AUSL 2791  37.089  12.160   7.660
    9AU    AUSL 2792  37.069  11.773   7.413
    9AU     AUL 2793  36.908  12.096   7.373
    9AU       S 2794  36.778  11.724   7.634
    9AU     LIG 2795  36.627  11.666   7.191
    9AU     LIG 2796  36.340  11.316   7.045
    9AU       S 2797  36.884  12.179   7.854
    9AU     LIG 2798  36.609  12.467   7.707
    9AU     LIG 2799  36.169  12.511   7.817
    9AU    AUSL 2800  38.744  11.551   7.454
    9AU    AUSL 2801  38.618  11.713   7.842
    9AU     AUL 2802  38.937  11.593   7.881
    9AU       S 2803  39.043  11.383   7.456
    9AU     LIG 2804  39.281  10.978   7.505
    9AU     LIG 2805  39.671  10.780   7.722
    9AU       S 2806  39.138  11.151   7.953
    9AU     LIG 2807  39.364  10.883   8.290
    9AU     LIG 2808  39.607  10.567   8.594
    9AU    AUSL 2809  38.929  11.855   7.208
    9AU    AUSL 2810  38.633  11.272   7.161
    9AU     AUL 2811  38.869  11.520   7.047
    9AU       S 2812  39.249  11.607   7.288
    9AU     LIG 2813  39.588  11.299   7.238
    9AU     LIG 2814  39.980  11.129   7.419
    9AU       S 2815  38.758  11.080   6.925
    9AU     LIG 2816  39.109  10.795   6.818
    9AU     LIG 2817  39.283  10.461   6.535
    9AU    AUSL 2818  37.414  11.533   7.538
    9AU    AUSL 2819  37.324  11.629   7.109
    9AU     AUL 2820  37.063  11.448   7.365
    9AU       S 2821  37.153  11.470   6.911
    9AU     LIG 2822  36.715  11.507   6.707
    9AU     LIG 2823  36.407  11.158   6.569
    9AU       S 2824  36.722  11.548   7.732
    9AU     LIG 2825  36.635  11.219   7.456
    9AU     LIG 2826  36.247  11.018   7.453
    9AU    AUSL 2827  37.217  11.800   7.824
    9AU    AUSL 2828  37.510  11.195   7.755
    9AU     AUL 2829  37.177  11.388   7.807
    9AU       S 2830  37.379  10.954   7.829
    9AU     LIG 2831  36.980  10.677   7.880
    9AU     LIG 2832  36.619  10.509   8.138
    9AU       S 2833  36.855  11.715   7.894
    9AU     LIG 2834  36.379  11.617   8.074
    9AU     LIG 2835  35.927  11.556   7.940
    9AU    AUSL 2836  37.992  12.646   7.940
    9AU    AUSL 2837  37.563  12.623   7.868
    9AU     AUL 2838  37.808  12.683   8.241
    9AU       S 2839  37.442  12.845   8.001
    9AU     LIG 2840  37.016  12.954   8.217
    9AU     LIG 2841  36.639  13.222   8.377
    9AU       S 2842  37.948  13.054   7.979
    9AU     LIG 2843  38.228  13.261   8.253
    9AU     LIG 2844  38.225  13.671   8.476
    9AU    AUSL 2845  37.801  12.835   7.593
    9AU    AUSL 2846  38.142  12.872   7.258
    9AU     AUL 2847  37.834  13.098   7.360
    9AU       S 2848  37.982  13.278   7.799
    9AU     LIG 2849  38.003  13.687   8.000
    9AU     LIG 2850  38.006  14.093   8.221
    9AU       S 2851  38.093  13.099   6.954
    9AU     LIG 2852  38.246  13.392   7.241
    9AU     LIG 2853  38.226  13.845   7.194
    9AU    AUSL 2854  38.262  12.837   7.659
    9AU    AUSL 2855  38.270  12.522   8.228
    9AU     AUL 2856  38.348  12.799   8.024
    9AU       S 2857  38.480  12.617   8.464
    9AU     LIG 2858  38.833  12.617   8.807
    9AU     LIG 2859  39.249  12.831   8.811
    9AU       S 2860  38.203  13.115   7.699
    9AU     LIG 2861  38.448  13.499   7.837
    9AU     LIG 2862  38.496  13.899   8.102
    9AU    AUSL 2863  38.095  11.226   8.132
    9AU    AUSL 2864  38.644  11.249   7.732
    9AU     AUL 2865  38.422  11.047   8.038
    9AU       S 2866  38.015  10.708   8.110
    9AU     LIG 2867  37.684  10.399   8.212
    9AU     LIG 2868  37.580   9.940   8.233
    9AU       S 2869  38.850  11.093   7.799
    9AU     LIG 2870  39.056  10.655   7.924
    9AU     LIG 2871  39.271  10.376   8.239
    9AU    AUSL 2872  37.904  11.059   7.774
    9AU    AUSL 2873  37.820  11.475   7.950
    9AU     AUL 2874  37.740  11.143   8.108
    9AU       S 2875  37.848  10.756   7.860
    9AU     LIG 2876  37.487  10.480   7.723
    9AU     LIG 2877  37.246  10.238   7.985
    9AU       S 2878  37.392  10.804   8.109
    9AU     LIG 2879  37.115  10.535   8.370
    9AU     LIG 2880  36.825  10.336   8.674
    9AU    AUSL 2881  38.239  11.303   7.698
    9AU    AUSL 2882  37.860  11.145   7.364
    9AU     AUL 2883  38.185  10.945   7.564
    9AU       S 2884  37.722  10.838   7.396
    9AU     LIG 2885  37.348  10.685   7.250
    9AU     LIG 2886  37.407  10.232   7.192
    9AU       S 2887  38.041  10.553   7.856
    9AU     LIG 2888  37.849  10.128   7.790
    9AU     LIG 2889  37.909   9.676   7.925
    9AU    AUSL 2890  38.087  12.601   6.933
    9AU    AUSL 2891  38.400  12.532   7.260
    9AU     AUL 2892  38.445  12.807   7.040
    9AU       S 2893  38.107  12.812   6.699
    9AU     LIG 2894  38.408  13.196   6.595
    9AU     LIG 2895  38.255  13.623   6.723
    9AU       S 2896  39.018  12.539   6.773
    9AU     LIG 2897  39.176  12.969   6.814
    9AU     LIG 2898  39.515  13.267   6.644
    9AU    AUSL 2899  37.835  12.562   7.285
    9AU    AUSL 2900  37.721  12.466   6.798
    9AU     AUL 2901  37.731  12.790   7.004
    9AU       S 2902  37.932  13.114   6.706
    9AU     LIG 2903  37.809  13.506   6.965
    9AU     LIG 2904  37.848  13.960   6.861
    9AU       S 2905  37.476  12.599   6.629
    9AU     LIG 2906  37.228  12.867   6.347
    9AU     LIG 2907  37.064  13.205   6.058
    9AU    AUSL 2908  37.995  11.190   6.944
    9AU    AUSL 2909  37.466  11.235   7.237
    9AU     AUL 2910  37.696  11.079   7.000
    9AU       S 2911  37.232  11.156   7.039
    9AU     LIG 2912  36.850  10.898   7.048
    9AU     LIG 2913  36.655  10.711   6.672
    9AU       S 2914  37.956  10.695   7.197
    9AU     LIG 2915  37.696  10.545   6.886
    9AU     LIG 2916  37.710  10.107   6.741
    9AU    AUSL 2917  38.242  11.318   7.283
    9AU    AUSL 2918  38.345  11.404   6.853
    9AU     AUL 2919  38.308  11.045   7.070
    9AU       S 2920  37.838  10.574   7.388
    9AU     LIG 2921  37.922  10.150   7.225
    9AU     LIG 2922  38.049   9.721   7.032
    9AU       S 2923  38.523  11.261   6.690
    9AU     LIG 2924  38.564  11.149   6.225
    9AU     LIG 2925  38.895  10.878   6.045
   10AU     AUC 2926  32.750   0.390   7.493
   10AU     AUC 2927  33.053   0.427   7.326
   10AU     AUC 2928  33.028   0.412   7.665
   10AU     AUC 2929  32.461   0.370   7.324
   10AU     AUC 2930  32.461   0.375   7.676
   10AU     AUC 2931  32.559   0.634   7.507
   10AU     AUC 2932  32.901   0.667   7.493
   10AU     AUC 2933  32.591   0.106   7.498
   10AU     AUC 2934  32.953   0.155   7.489
   10AU     AUC 2935  32.784   0.226   7.767
   10AU     AUC 2936  32.731   0.553   7.771
   10AU     AUC 2937  32.771   0.228   7.217
   10AU     AUC 2938  32.768   0.562   7.219
   10AU     AUC 2939  33.361   0.453   7.175
   10AU     AUC 2940  33.397   0.451   7.494
   10AU     AUC 2941  33.331   0.419   7.861
   10AU     AUC 2942  32.164   0.348   7.147
   10AU     AUC 2943  32.125   0.396   7.516
   10AU     AUC 2944  32.179   0.365   7.854
   10AU     AUC 2945  32.385   0.934   7.484
   10AU     AUC 2946  32.730   0.998   7.476
   10AU     AUC 2947  33.045   0.983   7.498
   10AU     AUC 2948  32.419  44.789   7.503
   10AU     AUC 2949  32.764  44.828   7.500
   10AU     AUC 2950  33.157  44.875   7.470
   10AU     AUC 2951  32.797   0.009   8.056
   10AU     AUC 2952  32.745   0.332   8.093
   10AU     AUC 2953  32.741   0.711   8.055
   10AU     AUC 2954  32.774   0.030   6.930
   10AU     AUC 2955  32.771   0.373   6.907
   10AU     AUC 2956  32.787   0.730   6.918
   10AU     AUC 2957  33.082   0.178   7.965
   10AU     AUC 2958  33.050   0.544   8.003
   10AU     AUC 2959  33.066   0.239   7.013
   10AU     AUC 2960  33.088   0.601   6.999
   10AU     AUC 2961  32.455   0.168   7.980
   10AU     AUC 2962  32.452   0.528   7.983
   10AU     AUC 2963  32.431   0.167   7.041
   10AU     AUC 2964  32.438   0.537   7.009
   10AU     AUC 2965  33.254   0.723   7.346
   10AU     AUC 2966  33.195   0.698   7.702
   10AU     AUC 2967  32.267   0.656   7.291
   10AU     AUC 2968  32.249   0.682   7.683
   10AU     AUC 2969  33.269   0.143   7.306
   10AU     AUC 2970  33.280   0.126   7.635
   10AU     AUC 2971  32.234   0.086   7.345
   10AU     AUC 2972  32.267   0.089   7.676
   10AU     AUC 2973  32.550   0.871   7.777
   10AU     AUC 2974  32.885   0.875   7.794
   10AU     AUC 2975  32.570  44.887   7.772
   10AU     AUC 2976  32.982  44.910   7.800
   10AU     AUC 2977  32.560   0.818   7.159
   10AU     AUC 2978  32.953   0.864   7.164
   10AU     AUC 2979  32.555  44.900   7.219
   10AU     AUC 2980  32.948  44.930   7.174
   10AU    AUSL 2981  33.332   0.323   8.221
   10AU    AUSL 2982  33.193  44.856   8.099
   10AU     AUL 2983  33.470  44.934   8.289
   10AU       S 2984  33.617  44.543   8.095
   10AU     LIG 2985  33.515  44.227   8.374
   10AU     LIG 2986  33.660  43.863   8.624
   10AU       S 2987  33.574   0.373   8.360
   10AU     LIG 2988  33.568   0.536   8.762
   10AU     LIG 2989  33.666   0.275   9.137
   10AU    AUSL 2990  32.936   0.139   8.302
   10AU    AUSL 2991  32.599   0.463   8.368
   10AU     AUL 2992  32.777   0.332   8.636
   10AU       S 2993  33.170   0.090   8.593
   10AU     LIG 2994  33.165   0.286   8.969
   10AU     LIG 2995  33.217   0.207   9.412
   10AU       S 2996  32.089   0.264   8.686
   10AU     LIG 2997  32.342   0.623   8.932
   10AU     LIG 2998  32.369   0.606   9.388
   10AU    AUSL 2999  32.948   0.555   8.166
   10AU    AUSL 3000  33.354   0.742   8.130
   10AU     AUL 3001  33.162   0.568   8.459
   10AU       S 3002  32.770   0.825   8.604
   10AU     LIG 3003  33.100   0.792   8.900
   10AU     LIG 3004  33.382   0.689   9.236
   10AU       S 3005  33.486   0.892   8.340
   10AU     LIG 3006  33.922   0.984   8.377
   10AU     LIG 3007  34.275   1.325   8.325
   10AU    AUSL 3008  33.323   0.484   6.765
   10AU    AUSL 3009  33.203   0.924   6.819
   10AU     AUL 3010  33.355   0.752   6.498
   10AU       S 3011  33.242   0.340   6.299
   10AU     LIG 3012  33.646   0.417   6.083
   10AU     LIG 3013  33.793   0.154   5.708
   10AU       S 3014  33.552   1.058   6.782
   10AU     LIG 3015  33.390   1.256   6.444
   10AU     LIG 3016  33.611   1.531   6.143
   10AU    AUSL 3017  32.983   0.230   6.724
   10AU    AUSL 3018  33.303   0.162   7.054
   10AU     AUL 3019  33.415   0.185   6.697
   10AU       S 3020  33.411  44.424   6.714
   10AU     LIG 3021  33.865  44.488   6.599
   10AU     LIG 3022  34.250  44.261   6.432
   10AU       S 3023  33.065   0.021   6.393
   10AU     LIG 3024  33.042  44.791   5.936
   10AU     LIG 3025  33.361  44.792   5.563
   10AU    AUSL 3026  32.918   0.658   6.645
   10AU    AUSL 3027  32.604   0.094   6.618
   10AU     AUL 3028  32.787   0.394   6.417
   10AU       S 3029  32.410   0.116   6.294
   10AU     LIG 3030  32.443  44.937   5.863
   10AU     LIG 3031  32.075  44.948   5.581
   10AU       S 3032  33.305   0.073   6.233
   10AU     LIG 3033  33.265   0.247   5.787
   10AU     LIG 3034  33.496   0.481   5.438
   10AU    AUSL 3035  32.236   0.333   8.178
   10AU    AUSL 3036  32.483   0.798   8.142
   10AU     AUL 3037  32.340   0.643   8.444
   10AU       S 3038  31.998   0.324   8.380
   10AU     LIG 3039  31.867   0.690   8.669
   10AU     LIG 3040  31.884   0.530   9.126
   10AU       S 3041  32.084   1.006   8.274
   10AU     LIG 3042  32.068   1.163   8.650
   10AU     LIG 3043  31.892   1.532   8.852
   10AU    AUSL 3044  32.524   0.036   8.350
   10AU    AUSL 3045  32.119  44.942   8.045
   10AU     AUL 3046  32.208  44.912   8.338
   10AU       S 3047  31.921  44.583   8.157
   10AU     LIG 3048  31.553  44.398   8.318
   10AU     LIG 3049  31.522  44.057   8.616
   10AU       S 3050  32.314   0.205   8.668
   10AU     LIG 3051  32.423   0.151   9.106
   10AU     LIG 3052  32.274   0.107   9.554
   10AU    AUSL 3053  32.225   0.255   6.746
   10AU    AUSL 3054  32.479  44.958   7.002
   10AU     AUL 3055  32.332  44.870   6.682
   10AU       S 3056  32.036   0.192   6.476
   10AU     LIG 3057  31.729   0.332   6.143
   10AU     LIG 3058  31.733   0.330   5.660
   10AU       S 3059  31.857  44.756   6.685
   10AU     LIG 3060  32.007  44.395   6.488
   10AU     LIG 3061  31.887  44.135   6.115
   10AU    AUSL 3062  32.576   0.501   6.818
   10AU    AUSL 3063  32.126   0.633   6.900
   10AU     AUL 3064  32.342   0.537   6.536
   10AU       S 3065  31.960   0.749   6.701
   10AU     LIG 3066  31.581   0.982   6.713
   10AU     LIG 3067  31.376   1.221   6.369
   10AU       S 3068  32.122   0.025   6.255
   10AU     LIG 3069  32.186   0.375   5.931
   10AU     LIG 3070  32.231   0.439   5.476
   10AU    AUSL 3071  33.428   1.009   7.538
   10AU    AUSL 3072  33.434   0.713   7.107
   10AU     AUL 3073  33.589   1.099   7.251
   10AU       S 3074  33.683   0.756   6.929
   10AU     LIG 3075  33.830   0.627   6.529
   10AU     LIG 3076  33.819   1.018   6.276
   10AU       S 3077  33.962   0.971   7.876
   10AU     LIG 3078  34.364   1.114   7.646
   10AU     LIG 3079  34.583   1.340   7.284
   10AU    AUSL 3080  33.702   0.674   7.422
   10AU    AUSL 3081  33.711   0.291   7.669
   10AU     AUL 3082  34.018   0.484   7.531
   10AU       S 3083  33.877   0.911   7.632
   10AU     LIG 3084  34.119   0.900   7.243
   10AU     LIG 3085  34.574   0.824   7.182
   10AU       S 3086  33.967   0.010   7.514
   10AU     LIG 3087  34.243  44.741   7.681
   10AU     LIG 3088  34.624  44.610   7.904
   10AU    AUSL 3089  33.442   0.611   7.747
   10AU    AUSL 3090  33.114   0.916   7.804
   10AU     AUL 3091  33.468   1.016   7.883
   10AU       S 3092  33.443   1.203   8.345
   10AU     LIG 3093  33.782   1.470   8.241
   10AU     LIG 3094  34.057   1.787   8.464
   10AU       S 3095  33.804   0.687   7.923
   10AU     LIG 3096  34.339   0.646   7.882
   10AU     LIG 3097  34.835   0.552   7.791
   10AU    AUSL 3098  32.082   0.900   7.518
   10AU    AUSL 3099  32.115   0.669   7.942
   10AU     AUL 3100  31.829   1.015   7.805
   10AU       S 3101  31.980   0.749   8.151
   10AU     LIG 3102  31.593   0.923   8.286
   10AU     LIG 3103  31.539   1.198   8.646
   10AU       S 3104  32.017   1.281   7.466
   10AU     LIG 3105  31.529   1.110   7.420
   10AU     LIG 3106  31.060   1.207   7.548
   10AU    AUSL 3107  32.017   0.533   7.286
   10AU    AUSL 3108  32.173   1.007   7.121
   10AU     AUL 3109  31.870   0.850   7.167
   10AU       S 3110  31.711   0.397   6.946
   10AU     LIG 3111  31.318   0.672   7.043
   10AU     LIG 3112  31.148   1.107   7.047
   10AU       S 3113  32.003   1.209   6.867
   10AU     LIG 3114  31.728   1.499   6.631
   10AU     LIG 3115  31.386   1.749   6.405
   10AU    AUSL 3116  31.810   0.584   7.665
   10AU    AUSL 3117  31.802   0.191   7.403
   10AU     AUL 3118  31.628   0.519   7.389
   10AU       S 3119  31.553   0.140   7.662
   10AU     LIG 3120  31.320   0.122   7.259
   10AU     LIG 3121  30.931  44.879   7.219
   10AU       S 3122  31.589   0.620   7.866
   10AU     LIG 3123  31.257   0.749   7.687
   10AU     LIG 3124  30.851   0.842   7.867
   10AU    AUSL 3125  33.478  44.998   7.452
   10AU    AUSL 3126  33.346   0.154   7.839
   10AU     AUL 3127  33.672   0.032   7.877
   10AU       S 3128  33.773  44.845   7.456
   10AU     LIG 3129  33.830  44.438   7.366
   10AU     LIG 3130  34.168  44.209   7.181
   10AU       S 3131  33.836  44.550   7.888
   10AU     LIG 3132  34.041  44.280   8.209
   10AU     LIG 3133  34.186  44.013   8.557
   10AU    AUSL 3134  33.663   0.306   7.208
   10AU    AUSL 3135  33.368  44.710   7.170
   10AU     AUL 3136  33.600  44.956   7.044
   10AU       S 3137  33.968   0.091   7.279
   10AU     LIG 3138  34.178  44.734   7.127
   10AU     LIG 3139  34.604  44.761   6.981
   10AU       S 3140  33.512  44.500   6.964
   10AU     LIG 3141  33.759  44.087   6.903
   10AU     LIG 3142  33.971  43.841   6.560
   10AU    AUSL 3143  32.156  44.948   7.500
   10AU    AUSL 3144  32.059   0.078   7.086
   10AU     AUL 3145  31.791  44.872   7.321
   10AU       S 3146  31.887  44.932   6.875
   10AU     LIG 3147  31.458  44.702   6.965
   10AU     LIG 3148  31.335  44.351   6.686
   10AU       S 3149  31.468  44.978   7.761
   10AU     LIG 3150  31.338  44.646   7.467
   10AU     LIG 3151  31.064  44.367   7.165
   10AU    AUSL 3152  32.007   0.238   7.781
   10AU    AUSL 3153  32.234  44.636   7.763
   10AU     AUL 3154  31.922  44.815   7.756
   10AU       S 3155  32.074  44.394   7.918
   10AU     LIG 3156  31.762  44.058   7.984
   10AU     LIG 3157  31.649  43.691   8.261
   10AU       S 3158  31.687   0.171   7.924
   10AU     LIG 3159  31.248   0.288   8.064
   10AU     LIG 3160  30.975  44.921   7.930
   10AU    AUSL 3161  32.715   1.092   7.932
   10AU    AUSL 3162  32.289   1.055   7.855
   10AU     AUL 3163  32.533   1.130   8.230
   10AU       S 3164  32.177   1.278   7.973
   10AU     LIG 3165  31.801   1.406   8.227
   10AU     LIG 3166  31.556   1.702   8.489
   10AU       S 3167  32.675   1.502   7.962
   10AU     LIG 3168  32.943   1.714   8.266
   10AU     LIG 3169  32.951   2.139   8.506
   10AU    AUSL 3170  32.520   1.275   7.581
   10AU    AUSL 3171  32.862   1.312   7.244
   10AU     AUL 3172  32.557   1.544   7.353
   10AU       S 3173  32.738   1.737   7.786
   10AU     LIG 3174  32.754   2.139   8.031
   10AU     LIG 3175  32.603   2.498   8.285
   10AU       S 3176  32.809   1.527   6.946
   10AU     LIG 3177  33.015   1.810   7.178
   10AU     LIG 3178  33.354   2.058   7.005
   10AU    AUSL 3179  32.984   1.276   7.645
   10AU    AUSL 3180  32.989   0.964   8.223
   10AU     AUL 3181  33.071   1.243   8.015
   10AU       S 3182  33.192   1.061   8.460
   10AU     LIG 3183  33.544   1.061   8.808
   10AU     LIG 3184  33.924   1.343   8.746
   10AU       S 3185  32.925   1.543   7.677
   10AU     LIG 3186  33.262   1.718   7.856
   10AU     LIG 3187  33.284   2.093   8.100
   10AU    AUSL 3188  32.819  44.663   8.115
   10AU    AUSL 3189  33.371  44.695   7.725
   10AU     AUL 3190  33.144  44.488   8.029
   10AU       S 3191  32.468  44.101   8.106
   10AU     LIG 3192  32.565  43.842   8.429
   10AU     LIG 3193  32.947  43.586   8.402
   10AU       S 3194  33.554  44.539   7.778
   10AU     LIG 3195  33.679  44.068   7.900
   10AU     LIG 3196  33.904  43.752   8.182
   10AU    AUSL 3197  32.629  44.505   7.751
   10AU    AUSL 3198  32.540  44.918   7.948
   10AU     AUL 3199  32.472  44.589   8.104
   10AU       S 3200  32.567  44.217   7.834
   10AU     LIG 3201  32.242  43.966   7.700
   10AU     LIG 3202  32.117  43.706   8.051
   10AU       S 3203  32.055  44.387   8.231
   10AU     LIG 3204  32.036  44.011   8.447
   10AU     LIG 3205  31.892  43.668   8.725
   10AU    AUSL 3206  32.967  44.749   7.689
   10AU    AUSL 3207  32.589  44.583   7.340
   10AU     AUL 3208  32.923  44.392   7.556
   10AU       S 3209  32.475  44.274   7.358
   10AU     LIG 3210  32.176  43.985   7.161
   10AU     LIG 3211  32.091  43.541   7.009
   10AU       S 3212  32.758  44.128   8.038
   10AU     LIG 3213  32.772  43.723   7.830
   10AU     LIG 3214  33.100  43.416   7.947
   10AU    AUSL 3215  32.813   1.034   6.924
   10AU    AUSL 3216  33.123   0.976   7.254
   10AU     AUL 3217  33.174   1.246   7.024
   10AU       S 3218  32.830   1.247   6.692
   10AU     LIG 3219  33.153   1.653   6.640
   10AU     LIG 3220  32.939   2.063   6.688
   10AU       S 3221  33.831   1.023   6.823
   10AU     LIG 3222  33.851   1.445   6.609
   10AU     LIG 3223  34.070   1.774   6.334
   10AU    AUSL 3224  32.559   0.999   7.276
   10AU    AUSL 3225  32.444   0.904   6.794
   10AU     AUL 3226  32.451   1.225   7.000
   10AU       S 3227  32.662   1.543   6.692
   10AU     LIG 3228  32.523   1.921   6.974
   10AU     LIG 3229  32.748   2.271   7.147
   10AU       S 3230  32.210   1.020   6.626
   10AU     LIG 3231  31.904   1.125   6.322
   10AU     LIG 3232  31.731   1.492   6.088
   10AU    AUSL 3233  32.737  44.641   6.924
   10AU    AUSL 3234  32.202  44.670   7.186
   10AU     AUL 3235  32.438  44.525   6.968
   10AU       S 3236  31.970  44.622   6.947
   10AU     LIG 3237  31.757  44.211   6.942
   10AU     LIG 3238  31.457  43.813   6.879
   10AU       S 3239  32.684  44.130   7.136
   10AU     LIG 3240  32.562  43.733   6.889
   10AU     LIG 3241  32.462  43.302   6.664
   10AU    AUSL 3242  32.972  44.762   7.273
   10AU    AUSL 3243  33.097  44.844   6.847
   10AU     AUL 3244  33.046  44.489   7.056
   10AU       S 3245  32.646  44.039   7.377
   10AU     LIG 3246  32.920  43.694   7.255
   10AU     LIG 3247  32.842  43.303   7.007
   10AU       S 3248  33.305  44.702   6.691
   10AU     LIG 3249  33.465  44.586   6.250
   10AU     LIG 3250  33.756  44.215   6.162
   11POPC   NC3 3251  22.105  36.611   9.768
   11POPC   PO4 3252  22.314  37.124   9.561
   11POPC   GL1 3253  22.357  36.847   9.255
   11POPC   GL2 3254  22.023  36.812   9.168
   11POPC   C1A 3255  22.525  36.697   8.868
   11POPC   D2A 3256  22.586  36.910   8.459
   11POPC   C3A 3257  22.278  36.814   8.145
   11POPC   C4A 3258  22.386  36.962   7.734
   11POPC   C1B 3259  22.123  36.957   8.731
   11POPC   C2B 3260  21.940  37.152   8.362
   11POPC   C3B 3261  21.984  37.255   7.932
   11POPC   C4B 3262  21.864  37.108   7.531
   12POPC   NC3 3263   0.949  10.992   9.635
   12POPC   PO4 3264   1.383  11.522   9.459
   12POPC   GL1 3265   1.125  11.279   9.182
   12POPC   GL2 3266   1.052  11.568   9.018
   12POPC   C1A 3267   0.939  11.154   8.751
   12POPC   D2A 3268   1.122  11.228   8.323
   12POPC   C3A 3269   0.973  11.054   7.953
   12POPC   C4A 3270   1.215  11.127   7.617
   12POPC   C1B 3271   1.260  11.590   8.653
   12POPC   C2B 3272   1.438  11.655   8.267
   12POPC   C3B 3273   1.297  11.567   7.861
   12POPC   C4B 3274   1.497  11.522   7.428
   13POPC   NC3 3275  20.172  35.804   9.790
   13POPC   PO4 3276  19.801  35.235   9.527
   13POPC   GL1 3277  19.922  35.181   9.119
   13POPC   GL2 3278  19.954  35.533   9.102
   13POPC   C1A 3279  20.016  35.240   8.684
   13POPC   D2A 3280  19.720  35.404   8.458
   13POPC   C3A 3281  19.777  35.399   8.035
   13POPC   C4A 3282  19.874  35.119   7.730
   13POPC   C1B 3283  20.114  35.747   8.735
   13POPC   C2B 3284  20.187  35.627   8.337
   13POPC   C3B 3285  20.079  35.813   7.962
   13POPC   C4B 3286  20.014  35.618   7.598
   14POPC   NC3 3287  22.989  31.076   9.480
   14POPC   PO4 3288  22.892  30.356   9.609
   14POPC   GL1 3289  22.766  30.523   9.194
   14POPC   GL2 3290  22.852  30.844   9.069
   14POPC   C1A 3291  22.802  30.446   8.746
   14POPC   D2A 3292  22.993  30.440   8.364
   14POPC   C3A 3293  22.877  30.217   8.015
   14POPC   C4A 3294  22.942  30.421   7.668
   14POPC   C1B 3295  22.576  30.965   8.763
   14POPC   C2B 3296  22.604  30.791   8.364
   14POPC   C3B 3297  22.806  30.766   8.001
   14POPC   C4B 3298  22.869  30.977   7.625
   15POPC   NC3 3299  27.042  39.707   9.338
   15POPC   PO4 3300  26.725  39.109   9.580
   15POPC   GL1 3301  26.743  39.276   9.156
   15POPC   GL2 3302  26.407  39.173   9.115
   15POPC   C1A 3303  26.859  39.155   8.703
   15POPC   D2A 3304  26.606  39.038   8.315
   15POPC   C3A 3305  26.846  38.900   7.989
   15POPC   C4A 3306  26.986  39.054   7.610
   15POPC   C1B 3307  26.384  39.360   8.714
   15POPC   C2B 3308  26.578  39.539   8.346
   15POPC   C3B 3309  26.622  39.398   7.907
   15POPC   C4B 3310  26.715  39.468   7.458
   16POPC   NC3 3311   9.398   3.532   9.499
   16POPC   PO4 3312   8.679   3.431   9.557
   16POPC   GL1 3313   8.942   3.372   9.141
   16POPC   GL2 3314   9.200   3.672   9.032
   16POPC   C1A 3315   8.951   3.348   8.683
   16POPC   D2A 3316   8.962   3.320   8.233
   16POPC   C3A 3317   9.310   3.529   8.016
   16POPC   C4A 3318   9.037   3.535   7.709
   16POPC   C1B 3319   9.047   3.877   8.646
   16POPC   C2B 3320   8.962   3.849   8.199
   16POPC   C3B 3321   8.853   4.020   7.793
   16POPC   C4B 3322   9.101   4.071   7.404
   17POPC   NC3 3323  11.194  42.745   9.493
   17POPC   PO4 3324  11.339  42.078   9.558
   17POPC   GL1 3325  11.436  42.384   9.196
   17POPC   GL2 3326  11.745  42.542   9.095
   17POPC   C1A 3327  11.260  42.543   8.819
   17POPC   D2A 3328  11.280  42.527   8.364
   17POPC   C3A 3329  11.377  42.116   8.148
   17POPC   C4A 3330  11.095  41.868   7.866
   17POPC   C1B 3331  11.735  42.483   8.651
   17POPC   C2B 3332  11.771  42.673   8.261
   17POPC   C3B 3333  11.553  42.545   7.918
   17POPC   C4B 3334  11.388  42.226   7.652
   18POPC   NC3 3335  21.825  11.070   9.341
   18POPC   PO4 3336  22.448  11.205   9.608
   18POPC   GL1 3337  22.242  11.308   9.179
   18POPC   GL2 3338  21.901  11.541   9.137
   18POPC   C1A 3339  22.248  11.299   8.729
   18POPC   D2A 3340  22.055  11.053   8.415
   18POPC   C3A 3341  22.081  11.155   8.001
   18POPC   C4A 3342  22.384  11.119   7.727
   18POPC   C1B 3343  22.056  11.780   8.764
   18POPC   C2B 3344  22.144  11.634   8.338
   18POPC   C3B 3345  22.109  11.649   7.892
   18POPC   C4B 3346  21.714  11.615   7.756
   19POPC   NC3 3347  43.096  15.527   9.525
   19POPC   PO4 3348  43.327  14.849   9.401
   19POPC   GL1 3349  43.027  15.138   9.208
   19POPC   GL2 3350  43.197  15.469   9.039
   19POPC   C1A 3351  42.797  15.193   8.861
   19POPC   D2A 3352  42.726  15.191   8.455
   19POPC   C3A 3353  43.012  15.067   8.142
   19POPC   C4A 3354  42.839  14.963   7.732
   19POPC   C1B 3355  43.316  15.123   8.778
   19POPC   C2B 3356  43.389  14.773   8.533
   19POPC   C3B 3357  43.496  14.815   8.108
   19POPC   C4B 3358  43.367  15.055   7.767
   20POPC   NC3 3359  26.808  17.955   9.501
   20POPC   PO4 3360  26.534  17.330   9.600
   20POPC   GL1 3361  26.712  17.569   9.182
   20POPC   GL2 3362  27.083  17.604   9.124
   20POPC   C1A 3363  26.782  17.600   8.710
   20POPC   D2A 3364  26.992  17.414   8.346
   20POPC   C3A 3365  26.827  17.490   7.944
   20POPC   C4A 3366  26.722  17.195   7.633
   20POPC   C1B 3367  27.219  17.849   8.711
   20POPC   C2B 3368  27.049  17.907   8.312
   20POPC   C3B 3369  27.261  17.749   7.926
   20POPC   C4B 3370  27.187  17.488   7.564
   21POPC   NC3 3371  33.311   3.820   9.509
   21POPC   PO4 3372  33.070   3.198   9.431
   21POPC   GL1 3373  32.997   3.567   9.160
   21POPC   GL2 3374  32.687   3.753   9.115
   21POPC   C1A 3375  33.105   3.567   8.744
   21POPC   D2A 3376  33.380   3.603   8.411
   21POPC   C3A 3377  33.169   3.469   8.057
   21POPC   C4A 3378  33.119   3.340   7.671
   21POPC   C1B 3379  32.776   3.957   8.761
   21POPC   C2B 3380  33.006   3.951   8.401
   21POPC   C3B 3381  32.816   3.853   8.076
   21POPC   C4B 3382  32.929   3.831   7.701
   22POPC   NC3 3383   8.721   1.524   9.560
   22POPC   PO4 3384   9.392   1.431   9.415
   22POPC   GL1 3385   9.074   1.295   9.089
   22POPC   GL2 3386   8.745   1.158   9.188
   22POPC   C1A 3387   8.880   1.102   8.693
   22POPC   D2A 3388   8.934   0.889   8.309
   22POPC   C3A 3389   9.033   1.192   8.007
   22POPC   C4A 3390   9.134   1.324   7.584
   22POPC   C1B 3391   8.623   1.511   8.866
   22POPC   C2B 3392   8.571   1.504   8.407
   22POPC   C3B 3393   8.488   1.203   8.069
   22POPC   C4B 3394   8.662   1.143   7.650
   23POPC   NC3 3395  31.227  10.370   9.599
   23POPC   PO4 3396  31.768  10.811   9.362
   23POPC   GL1 3397  31.715  10.523   9.083
   23POPC   GL2 3398  31.521  10.272   9.182
   23POPC   C1A 3399  31.634  10.519   8.694
   23POPC   D2A 3400  31.563  10.291   8.386
   23POPC   C3A 3401  31.410  10.508   8.045
   23POPC   C4A 3402  31.633  10.632   7.720
   23POPC   C1B 3403  31.303  10.083   8.816
   23POPC   C2B 3404  31.130  10.066   8.348
   23POPC   C3B 3405  31.249  10.049   7.918
   23POPC   C4B 3406  31.147  10.322   7.541
   24POPC   NC3 3407  10.913  37.499   9.353
   24POPC   PO4 3408  11.574  37.422   9.499
   24POPC   GL1 3409  11.370  37.528   9.143
   24POPC   GL2 3410  11.311  37.867   9.237
   24POPC   C1A 3411  11.141  37.576   8.735
   24POPC   D2A 3412  10.921  37.411   8.377
   24POPC   C3A 3413  11.011  37.370   7.957
   24POPC   C4A 3414  11.250  37.643   7.692
   24POPC   C1B 3415  11.516  37.932   8.843
   24POPC   C2B 3416  11.453  37.824   8.414
   24POPC   C3B 3417  11.083  37.849   8.150
   24POPC   C4B 3418  10.925  38.046   7.774
   25POPC   NC3 3419   5.000  40.786   9.551
   25POPC   PO4 3420   5.436  40.369   9.147
   25POPC   GL1 3421   5.171  40.708   9.069
   25POPC   GL2 3422   4.830  40.608   9.110
   25POPC   C1A 3423   5.034  40.794   8.662
   25POPC   D2A 3424   4.953  40.476   8.396
   25POPC   C3A 3425   5.101  40.610   8.029
   25POPC   C4A 3426   5.002  40.991   7.814
   25POPC   C1B 3427   4.594  40.509   8.759
   25POPC   C2B 3428   4.433  40.580   8.374
   25POPC   C3B 3429   4.595  40.689   7.981
   25POPC   C4B 3430   4.818  40.545   7.613
   26POPC   NC3 3431  32.727  18.604   9.425
   26POPC   PO4 3432  32.128  18.263   9.365
   26POPC   GL1 3433  32.499  18.224   9.103
   26POPC   GL2 3434  32.246  18.116   8.860
   26POPC   C1A 3435  32.704  18.347   8.741
   26POPC   D2A 3436  32.430  18.454   8.400
   26POPC   C3A 3437  32.606  18.508   8.018
   26POPC   C4A 3438  32.328  18.441   7.703
   26POPC   C1B 3439  32.047  18.543   8.754
   26POPC   C2B 3440  31.956  18.721   8.373
   26POPC   C3B 3441  31.971  18.384   8.092
   26POPC   C4B 3442  31.812  18.391   7.702
   27POPC   NC3 3443  30.650  13.890   9.320
   27POPC   PO4 3444  30.511  13.223   9.244
   27POPC   GL1 3445  30.761  13.489   9.027
   27POPC   GL2 3446  30.940  13.252   8.821
   27POPC   C1A 3447  30.870  13.767   8.720
   27POPC   D2A 3448  30.962  13.606   8.343
   27POPC   C3A 3449  30.924  13.895   8.031
   27POPC   C4A 3450  30.855  13.754   7.633
   27POPC   C1B 3451  30.555  13.383   8.573
   27POPC   C2B 3452  30.488  13.804   8.340
   27POPC   C3B 3453  30.406  13.774   7.911
   27POPC   C4B 3454  30.417  13.338   7.732
   28POPC   NC3 3455   3.836  19.432   9.439
   28POPC   PO4 3456   3.094  19.277   9.475
   28POPC   GL1 3457   3.461  19.169   9.194
   28POPC   GL2 3458   3.608  18.811   9.190
   28POPC   C1A 3459   3.701  19.203   8.790
   28POPC   D2A 3460   3.503  19.217   8.373
   28POPC   C3A 3461   3.705  19.253   7.963
   28POPC   C4A 3462   3.699  19.013   7.594
   28POPC   C1B 3463   3.335  18.865   8.804
   28POPC   C2B 3464   3.072  18.935   8.416
   28POPC   C3B 3465   3.239  19.023   7.967
   28POPC   C4B 3466   3.236  18.788   7.574
   29POPC   NC3 3467  22.626  26.061   9.536
   29POPC   PO4 3468  23.272  25.833   9.638
   29POPC   GL1 3469  23.190  25.761   9.190
   29POPC   GL2 3470  22.809  25.771   9.151
   29POPC   C1A 3471  23.081  25.981   8.788
   29POPC   D2A 3472  22.886  26.152   8.434
   29POPC   C3A 3473  23.158  26.127   8.090
   29POPC   C4A 3474  23.168  26.312   7.699
   29POPC   C1B 3475  22.702  25.637   8.707
   29POPC   C2B 3476  22.835  25.644   8.258
   29POPC   C3B 3477  22.752  25.913   7.868
   29POPC   C4B 3478  22.502  25.785   7.503
   30POPC   NC3 3479   3.376   8.366   9.497
   30POPC   PO4 3480   3.826   7.944   9.212
   30POPC   GL1 3481   3.511   8.145   9.043
   30POPC   GL2 3482   3.652   8.478   9.097
   30POPC   C1A 3483   3.334   8.017   8.654
   30POPC   D2A 3484   3.214   7.914   8.210
   30POPC   C3A 3485   3.596   7.977   7.917
   30POPC   C4A 3486   4.038   7.958   7.773
   30POPC   C1B 3487   3.320   8.550   8.786
   30POPC   C2B 3488   3.249   8.414   8.347
   30POPC   C3B 3489   3.422   8.552   7.999
   30POPC   C4B 3490   3.248   8.709   7.662
   31POPC   NC3 3491  41.854   3.191   9.447
   31POPC   PO4 3492  41.540   2.627   9.496
   31POPC   GL1 3493  41.624   2.617   9.077
   31POPC   GL2 3494  41.796   2.874   9.045
   31POPC   C1A 3495  41.567   2.450   8.678
   31POPC   D2A 3496  41.211   2.550   8.382
   31POPC   C3A 3497  41.297   2.787   7.982
   31POPC   C4A 3498  41.589   2.628   7.664
   31POPC   C1B 3499  41.526   2.956   8.671
   31POPC   C2B 3500  41.715   2.819   8.296
   31POPC   C3B 3501  41.799   3.027   7.927
   31POPC   C4B 3502  41.484   3.196   7.722
   32POPC   NC3 3503  22.991  31.676   9.366
   32POPC   PO4 3504  23.313  31.130   9.137
   32POPC   GL1 3505  23.013  31.375   8.934
   32POPC   GL2 3506  22.698  31.350   9.076
   32POPC   C1A 3507  22.954  31.790   8.741
   32POPC   D2A 3508  22.954  31.963   8.349
   32POPC   C3A 3509  22.976  31.723   7.966
   32POPC   C4A 3510  22.935  31.823   7.505
   32POPC   C1B 3511  22.541  31.499   8.719
   32POPC   C2B 3512  22.793  31.408   8.388
   32POPC   C3B 3513  22.660  31.276   8.005
   32POPC   C4B 3514  22.530  31.563   7.720
   33POPC   NC3 3515  16.439   0.855   9.418
   33POPC   PO4 3516  16.950   1.339   9.599
   33POPC   GL1 3517  16.763   1.250   9.226
   33POPC   GL2 3518  16.864   0.967   9.175
   33POPC   C1A 3519  16.831   1.310   8.768
   33POPC   D2A 3520  16.573   1.146   8.394
   33POPC   C3A 3521  16.659   1.303   7.952
   33POPC   C4A 3522  16.407   1.258   7.559
   33POPC   C1B 3523  16.812   0.811   8.768
   33POPC   C2B 3524  17.012   0.874   8.339
   33POPC   C3B 3525  16.743   0.806   8.001
   33POPC   C4B 3526  16.796   0.934   7.609
   34POPC   NC3 3527   6.244  16.303   9.429
   34POPC   PO4 3528   5.600  16.064   9.453
   34POPC   GL1 3529   5.816  15.776   9.197
   34POPC   GL2 3530   6.152  15.837   9.196
   34POPC   C1A 3531   5.878  15.928   8.782
   34POPC   D2A 3532   5.929  16.098   8.371
   34POPC   C3A 3533   5.595  15.952   8.104
   34POPC   C4A 3534   5.571  15.874   7.661
   34POPC   C1B 3535   6.361  16.057   8.836
   34POPC   C2B 3536   6.523  16.119   8.435
   34POPC   C3B 3537   6.344  16.214   8.060
   34POPC   C4B 3538   6.037  15.973   7.841
   35POPC   NC3 3539   8.766  34.836   9.685
   35POPC   PO4 3540   9.341  34.514   9.387
   35POPC   GL1 3541   9.094  34.631   8.977
   35POPC   GL2 3542   8.771  34.429   8.786
   35POPC   C1A 3543   9.063  34.766   8.557
   35POPC   D2A 3544   9.167  34.997   8.222
   35POPC   C3A 3545   9.141  34.698   7.871
   35POPC   C4A 3546   8.949  34.302   7.814
   35POPC   C1B 3547   8.622  34.911   8.716
   35POPC   C2B 3548   8.657  35.012   8.327
   35POPC   C3B 3549   8.705  34.664   8.120
   35POPC   C4B 3550   8.568  34.702   7.730
   36POPC   NC3 3551  11.605  33.499   9.318
   36POPC   PO4 3552  11.067  33.896   9.509
   36POPC   GL1 3553  11.308  33.877   9.126
   36POPC   GL2 3554  11.474  34.166   9.001
   36POPC   C1A 3555  11.452  33.736   8.707
   36POPC   D2A 3556  11.455  33.512   8.334
   36POPC   C3A 3557  11.153  33.512   8.028
   36POPC   C4A 3558  11.256  33.611   7.566
   36POPC   C1B 3559  11.122  34.133   8.727
   36POPC   C2B 3560  11.183  33.975   8.319
   36POPC   C3B 3561  11.362  33.960   7.936
   36POPC   C4B 3562  11.165  34.127   7.590
   37POPC   NC3 3563  23.959  16.092   9.419
   37POPC   PO4 3564  23.317  15.844   9.592
   37POPC   GL1 3565  23.478  15.845   9.178
   37POPC   GL2 3566  23.377  16.187   9.130
   37POPC   C1A 3567  23.790  15.878   8.806
   37POPC   D2A 3568  23.948  15.731   8.369
   37POPC   C3A 3569  23.749  15.784   7.926
   37POPC   C4A 3570  23.639  15.699   7.453
   37POPC   C1B 3571  23.300  16.018   8.724
   37POPC   C2B 3572  23.573  16.088   8.392
   37POPC   C3B 3573  23.549  16.231   8.036
   37POPC   C4B 3574  23.611  16.182   7.614
   38POPC   NC3 3575  12.770  12.064   9.532
   38POPC   PO4 3576  12.612  11.519   9.232
   38POPC   GL1 3577  12.899  11.842   9.062
   38POPC   GL2 3578  13.083  12.158   9.146
   38POPC   C1A 3579  13.033  11.826   8.674
   38POPC   D2A 3580  12.753  11.742   8.360
   38POPC   C3A 3581  12.938  11.982   8.072
   38POPC   C4A 3582  12.978  11.998   7.682
   38POPC   C1B 3583  12.952  12.351   8.794
   38POPC   C2B 3584  12.761  12.270   8.428
   38POPC   C3B 3585  12.722  12.432   8.006
   38POPC   C4B 3586  12.536  12.552   7.610
   39POPC   NC3 3587  23.941  34.158   9.599
   39POPC   PO4 3588  23.411  33.878   9.233
   39POPC   GL1 3589  23.835  33.826   9.073
   39POPC   GL2 3590  24.025  34.096   9.103
   39POPC   C1A 3591  23.973  33.717   8.646
   39POPC   D2A 3592  23.655  33.636   8.350
   39POPC   C3A 3593  23.748  33.645   7.938
   39POPC   C4A 3594  23.540  33.611   7.535
   39POPC   C1B 3595  23.887  34.216   8.694
   39POPC   C2B 3596  23.784  34.158   8.248
   39POPC   C3B 3597  23.579  34.113   7.837
   39POPC   C4B 3598  23.798  34.031   7.396
   40POPC   NC3 3599  23.873  31.664   9.728
   40POPC   PO4 3600  23.406  31.211   9.670
   40POPC   GL1 3601  23.578  31.506   9.320
   40POPC   GL2 3602  23.919  31.398   9.293
   40POPC   C1A 3603  23.483  31.688   8.857
   40POPC   D2A 3604  23.325  31.627   8.429
   40POPC   C3A 3605  23.480  31.802   8.055
   40POPC   C4A 3606  23.692  31.531   7.801
   40POPC   C1B 3607  23.975  31.311   8.865
   40POPC   C2B 3608  23.987  31.435   8.444
   40POPC   C3B 3609  24.039  31.266   8.056
   40POPC   C4B 3610  24.138  31.339   7.655
   41POPC   NC3 3611  10.439  29.524   9.473
   41POPC   PO4 3612  10.682  28.888   9.475
   41POPC   GL1 3613  10.446  29.103   9.148
   41POPC   GL2 3614  10.737  29.319   9.113
   41POPC   C1A 3615  10.261  28.991   8.727
   41POPC   D2A 3616  10.060  28.941   8.287
   41POPC   C3A 3617  10.391  29.030   7.975
   41POPC   C4A 3618  10.855  28.988   7.908
   41POPC   C1B 3619  10.458  29.509   8.791
   41POPC   C2B 3620  10.375  29.372   8.367
   41POPC   C3B 3621  10.539  29.514   7.954
   41POPC   C4B 3622  10.215  29.690   7.772
   42POPC   NC3 3623  25.657  33.342   9.341
   42POPC   PO4 3624  25.195  32.864   9.457
   42POPC   GL1 3625  25.353  32.994   9.139
   42POPC   GL2 3626  25.194  33.325   9.149
   42POPC   C1A 3627  25.299  32.877   8.745
   42POPC   D2A 3628  25.168  33.091   8.372
   42POPC   C3A 3629  25.241  32.825   8.033
   42POPC   C4A 3630  25.414  32.905   7.623
   42POPC   C1B 3631  25.410  33.380   8.748
   42POPC   C2B 3632  25.625  33.398   8.373
   42POPC   C3B 3633  25.501  33.262   7.971
   42POPC   C4B 3634  25.444  33.404   7.533
   43POPC   NC3 3635  12.108   3.670   9.646
   43POPC   PO4 3636  11.780   3.131   9.497
   43POPC   GL1 3637  11.922   3.459   9.229
   43POPC   GL2 3638  12.016   3.841   9.164
   43POPC   C1A 3639  12.192   3.455   8.887
   43POPC   D2A 3640  12.082   3.578   8.506
   43POPC   C3A 3641  11.848   3.347   8.215
   43POPC   C4A 3642  12.052   3.344   7.792
   43POPC   C1B 3643  12.030   4.062   8.755
   43POPC   C2B 3644  12.225   4.029   8.336
   43POPC   C3B 3645  12.004   3.788   8.038
   43POPC   C4B 3646  11.791   3.841   7.661
   44POPC   NC3 3647  10.296  30.412   9.318
   44POPC   PO4 3648  10.648  30.928   9.477
   44POPC   GL1 3649  10.532  30.811   9.072
   44POPC   GL2 3650  10.227  31.001   9.155
   44POPC   C1A 3651  10.699  30.493   8.765
   44POPC   D2A 3652  10.811  30.287   8.378
   44POPC   C3A 3653  10.666  30.567   8.058
   44POPC   C4A 3654  10.367  30.572   7.739
   44POPC   C1B 3655  10.006  31.040   8.777
   44POPC   C2B 3656   9.974  30.858   8.335
   44POPC   C3B 3657  10.192  30.979   7.984
   44POPC   C4B 3658  10.496  31.134   7.725
   45POPC   NC3 3659  27.047  23.486   9.269
   45POPC   PO4 3660  26.392  23.731   9.415
   45POPC   GL1 3661  26.704  23.852   9.137
   45POPC   GL2 3662  27.090  23.981   9.178
   45POPC   C1A 3663  26.717  23.672   8.739
   45POPC   D2A 3664  26.865  23.609   8.380
   45POPC   C3A 3665  26.615  23.680   8.064
   45POPC   C4A 3666  26.658  23.904   7.694
   45POPC   C1B 3667  27.245  23.824   8.724
   45POPC   C2B 3668  27.327  23.813   8.246
   45POPC   C3B 3669  27.149  24.029   7.861
   45POPC   C4B 3670  27.081  23.911   7.400
   46POPC   NC3 3671  41.818  41.793   9.388
   46POPC   PO4 3672  41.176  41.500   9.559
   46POPC   GL1 3673  41.395  41.421   9.213
   46POPC   GL2 3674  41.368  41.769   9.141
   46POPC   C1A 3675  41.277  41.414   8.789
   46POPC   D2A 3676  41.487  41.511   8.395
   46POPC   C3A 3677  41.426  41.307   7.996
   46POPC   C4A 3678  41.759  41.237   7.649
   46POPC   C1B 3679  41.261  41.925   8.755
   46POPC   C2B 3680  41.300  41.981   8.325
   46POPC   C3B 3681  41.508  41.825   7.948
   46POPC   C4B 3682  41.340  42.018   7.580
   47POPC   NC3 3683  24.182   4.131   9.492
   47POPC   PO4 3684  23.670   4.427   9.533
   47POPC   GL1 3685  23.778   4.280   9.167
   47POPC   GL2 3686  23.459   4.122   9.160
   47POPC   C1A 3687  23.636   4.399   8.771
   47POPC   D2A 3688  23.813   4.298   8.400
   47POPC   C3A 3689  23.725   4.522   8.060
   47POPC   C4A 3690  23.724   4.292   7.716
   47POPC   C1B 3691  23.213   4.089   8.817
   47POPC   C2B 3692  23.388   4.031   8.457
   47POPC   C3B 3693  23.345   3.749   8.170
   47POPC   C4B 3694  23.404   3.898   7.796
   48POPC   NC3 3695   1.471   2.649   9.483
   48POPC   PO4 3696   2.104   2.490   9.481
   48POPC   GL1 3697   2.145   2.672   9.091
   48POPC   GL2 3698   1.818   2.849   9.101
   48POPC   C1A 3699   2.179   2.894   8.693
   48POPC   D2A 3700   2.380   3.029   8.306
   48POPC   C3A 3701   2.100   3.070   7.969
   48POPC   C4A 3702   1.975   2.674   7.827
   48POPC   C1B 3703   1.664   2.898   8.667
   48POPC   C2B 3704   1.666   3.044   8.236
   48POPC   C3B 3705   1.596   3.007   7.783
   48POPC   C4B 3706   1.717   2.650   7.406
   49POPC   NC3 3707   4.941  42.607   9.622
   49POPC   PO4 3708   5.033  41.989   9.343
   49POPC   GL1 3709   5.074  42.176   8.987
   49POPC   GL2 3710   5.101  42.523   9.089
   49POPC   C1A 3711   4.981  41.992   8.577
   49POPC   D2A 3712   4.671  42.049   8.251
   49POPC   C3A 3713   4.861  41.951   7.877
   49POPC   C4A 3714   5.135  42.255   7.663
   49POPC   C1B 3715   5.263  42.492   8.644
   49POPC   C2B 3716   5.393  42.755   8.282
   49POPC   C3B 3717   5.173  42.697   7.892
   49POPC   C4B 3718   5.149  42.756   7.423
   50POPC   NC3 3719  14.156  43.145   9.509
   50POPC   PO4 3720  13.540  42.831   9.490
   50POPC   GL1 3721  13.542  42.946   9.097
   50POPC   GL2 3722  13.394  43.261   9.147
   50POPC   C1A 3723  13.562  43.083   8.691
   50POPC   D2A 3724  13.593  43.344   8.360
   50POPC   C3A 3725  13.486  43.128   8.020
   50POPC   C4A 3726  13.580  43.055   7.620
   50POPC   C1B 3727  13.295  43.503   8.756
   50POPC   C2B 3728  13.224  43.685   8.321
   50POPC   C3B 3729  13.341  43.608   7.876
   50POPC   C4B 3730  13.249  43.409   7.457
   51POPC   NC3 3731  36.186  21.578   9.742
   51POPC   PO4 3732  36.461  21.193   9.254
   51POPC   GL1 3733  36.124  21.435   9.100
   51POPC   GL2 3734  36.024  21.753   9.258
   51POPC   C1A 3735  35.992  21.336   8.668
   51POPC   D2A 3736  35.936  21.171   8.245
   51POPC   C3A 3737  36.300  21.213   7.991
   51POPC   C4A 3738  36.447  21.458   7.634
   51POPC   C1B 3739  35.784  21.763   8.863
   51POPC   C2B 3740  35.836  21.758   8.389
   51POPC   C3B 3741  35.983  21.627   7.970
   51POPC   C4B 3742  35.846  21.510   7.582
   52POPC   NC3 3743  17.631  33.326   9.901
   52POPC   PO4 3744  17.125  33.711   9.546
   52POPC   GL1 3745  17.532  33.768   9.262
   52POPC   GL2 3746  17.609  33.578   8.983
   52POPC   C1A 3747  17.611  34.060   8.871
   52POPC   D2A 3748  17.309  34.147   8.518
   52POPC   C3A 3749  17.449  34.069   8.113
   52POPC   C4A 3750  17.725  34.041   7.787
   52POPC   C1B 3751  17.810  33.555   8.615
   52POPC   C2B 3752  17.795  33.382   8.219
   52POPC   C3B 3753  17.961  33.504   7.835
   52POPC   C4B 3754  17.771  33.671   7.446
   53POPC   NC3 3755  31.571  15.544   9.519
   53POPC   PO4 3756  31.971  14.984   9.559
   53POPC   GL1 3757  31.885  15.262   9.217
   53POPC   GL2 3758  31.514  15.189   9.152
   53POPC   C1A 3759  31.819  15.288   8.771
   53POPC   D2A 3760  31.834  15.042   8.421
   53POPC   C3A 3761  31.883  15.198   8.031
   53POPC   C4A 3762  31.758  15.227   7.642
   53POPC   C1B 3763  31.304  15.328   8.784
   53POPC   C2B 3764  31.318  15.176   8.371
   53POPC   C3B 3765  31.375  15.039   7.971
   53POPC   C4B 3766  31.301  15.384   7.805
   54POPC   NC3 3767  14.943   0.482   9.618
   54POPC   PO4 3768  15.465   0.506   9.200
   54POPC   GL1 3769  15.057   0.366   9.120
   54POPC   GL2 3770  14.871   0.680   9.165
   54POPC   C1A 3771  15.039   0.296   8.689
   54POPC   D2A 3772  15.367   0.462   8.409
   54POPC   C3A 3773  15.364   0.306   7.978
   54POPC   C4A 3774  15.249   0.500   7.564
   54POPC   C1B 3775  14.978   0.797   8.755
   54POPC   C2B 3776  14.884   0.637   8.339
   54POPC   C3B 3777  14.860   0.457   7.926
   54POPC   C4B 3778  14.759   0.669   7.563
   55POPC   NC3 3779  37.906  43.691   9.603
   55POPC   PO4 3780  37.355  44.187   9.458
   55POPC   GL1 3781  37.701  43.933   9.223
   55POPC   GL2 3782  37.651  43.610   9.152
   55POPC   C1A 3783  37.928  43.889   8.831
   55POPC   D2A 3784  37.873  44.074   8.425
   55POPC   C3A 3785  37.834  43.820   8.047
   55POPC   C4A 3786  37.762  43.991   7.625
   55POPC   C1B 3787  37.533  43.401   8.803
   55POPC   C2B 3788  37.649  43.485   8.425
   55POPC   C3B 3789  37.499  43.414   8.027
   55POPC   C4B 3790  37.652  43.487   7.642
   56POPC   NC3 3791  44.314  11.642   9.463
   56POPC   PO4 3792  44.845  11.149   9.402
   56POPC   GL1 3793  44.603  11.395   9.126
   56POPC   GL2 3794  44.393  11.153   9.037
   56POPC   C1A 3795  44.653  11.558   8.708
   56POPC   D2A 3796  44.437  11.505   8.316
   56POPC   C3A 3797  44.537  11.338   7.908
   56POPC   C4A 3798  44.856  11.500   7.628
   56POPC   C1B 3799  44.740  11.053   8.750
   56POPC   C2B 3800  44.748  11.109   8.350
   56POPC   C3B 3801   0.007  11.184   8.056
   56POPC   C4B 3802  44.955  11.002   7.685
   57POPC   NC3 3803  36.192  36.433   9.447
   57POPC   PO4 3804  36.397  35.808   9.294
   57POPC   GL1 3805  36.151  36.116   9.048
   57POPC   GL2 3806  35.792  36.213   9.095
   57POPC   C1A 3807  36.062  36.009   8.637
   57POPC   D2A 3808  36.304  35.867   8.294
   57POPC   C3A 3809  36.002  35.811   8.026
   57POPC   C4A 3810  36.098  35.994   7.675
   57POPC   C1B 3811  35.938  36.506   8.771
   57POPC   C2B 3812  36.150  36.513   8.392
   57POPC   C3B 3813  36.052  36.386   7.987
   57POPC   C4B 3814  36.128  36.595   7.582
   58POPC   NC3 3815  31.203  18.839   9.376
   58POPC   PO4 3816  31.682  19.329   9.448
   58POPC   GL1 3817  31.635  19.023   9.162
   58POPC   GL2 3818  31.329  19.215   9.052
   58POPC   C1A 3819  31.597  18.873   8.758
   58POPC   D2A 3820  31.485  19.133   8.427
   58POPC   C3A 3821  31.557  18.916   8.095
   58POPC   C4A 3822  31.556  19.041   7.730
   58POPC   C1B 3823  31.264  19.505   8.711
   58POPC   C2B 3824  31.007  19.481   8.377
   58POPC   C3B 3825  31.111  19.255   8.034
   58POPC   C4B 3826  31.249  19.412   7.626
   59POPC   NC3 3827  21.870  37.288   9.515
   59POPC   PO4 3828  22.324  37.794   9.468
   59POPC   GL1 3829  22.226  37.429   9.149
   59POPC   GL2 3830  21.878  37.289   9.027
   59POPC   C1A 3831  22.255  37.448   8.693
   59POPC   D2A 3832  22.356  37.420   8.260
   59POPC   C3A 3833  22.402  37.855   8.086
   59POPC   C4A 3834  22.340  38.044   7.690
   59POPC   C1B 3835  21.726  37.472   8.679
   59POPC   C2B 3836  21.920  37.708   8.317
   59POPC   C3B 3837  21.949  37.755   7.840
   59POPC   C4B 3838  21.823  37.609   7.436
   60POPC   NC3 3839  16.737  10.654   9.368
   60POPC   PO4 3840  16.290  10.194   9.636
   60POPC   GL1 3841  16.456  10.206   9.209
   60POPC   GL2 3842  16.824  10.196   9.159
   60POPC   C1A 3843  16.457  10.243   8.770
   60POPC   D2A 3844  16.594  10.523   8.443
   60POPC   C3A 3845  16.523  10.430   8.009
   60POPC   C4A 3846  16.533  10.774   7.730
   60POPC   C1B 3847  17.035  10.452   8.804
   60POPC   C2B 3848  17.139  10.584   8.384
   60POPC   C3B 3849  16.995  10.643   7.995
   60POPC   C4B 3850  17.062  10.616   7.597
   61POPC   NC3 3851  32.897  41.087   9.781
   61POPC   PO4 3852  32.737  40.511   9.417
   61POPC   GL1 3853  32.936  40.712   9.111
   61POPC   GL2 3854  32.933  41.025   9.273
   61POPC   C1A 3855  33.104  40.656   8.701
   61POPC   D2A 3856  33.325  40.486   8.360
   61POPC   C3A 3857  33.153  40.502   7.939
   61POPC   C4A 3858  33.245  40.716   7.541
   61POPC   C1B 3859  32.796  41.172   8.866
   61POPC   C2B 3860  32.662  40.874   8.536
   61POPC   C3B 3861  32.919  40.891   8.174
   61POPC   C4B 3862  32.880  40.991   7.743
   62POPC   NC3 3863  31.073  26.147   9.324
   62POPC   PO4 3864  31.730  25.906   9.378
   62POPC   GL1 3865  31.468  25.952   9.067
   62POPC   GL2 3866  31.135  25.718   9.058
   62POPC   C1A 3867  31.611  26.120   8.689
   62POPC   D2A 3868  31.923  26.202   8.360
   62POPC   C3A 3869  31.719  26.123   7.990
   62POPC   C4A 3870  31.355  26.131   7.740
   62POPC   C1B 3871  31.239  25.759   8.665
   62POPC   C2B 3872  31.293  25.960   8.286
   62POPC   C3B 3873  31.156  25.724   7.966
   62POPC   C4B 3874  31.342  25.622   7.613
   63POPC   NC3 3875  38.901  31.356   9.650
   63POPC   PO4 3876  39.409  31.759   9.446
   63POPC   GL1 3877  39.325  31.432   9.175
   63POPC   GL2 3878  38.983  31.345   9.158
   63POPC   C1A 3879  39.275  31.563   8.772
   63POPC   D2A 3880  39.463  31.743   8.401
   63POPC   C3A 3881  39.369  31.518   8.044
   63POPC   C4A 3882  39.298  31.684   7.641
   63POPC   C1B 3883  38.971  31.121   8.801
   63POPC   C2B 3884  39.155  31.236   8.418
   63POPC   C3B 3885  39.010  31.155   8.038
   63POPC   C4B 3886  38.918  31.340   7.673
   64POPC   NC3 3887  41.493  38.566   9.606
   64POPC   PO4 3888  41.913  38.177   9.362
   64POPC   GL1 3889  41.553  38.500   9.098
   64POPC   GL2 3890  41.246  38.753   9.158
   64POPC   C1A 3891  41.485  38.766   8.689
   64POPC   D2A 3892  41.770  38.861   8.324
   64POPC   C3A 3893  41.687  38.635   7.921
   64POPC   C4A 3894  41.780  38.187   7.797
   64POPC   C1B 3895  41.000  38.637   8.770
   64POPC   C2B 3896  41.035  38.380   8.366
   64POPC   C3B 3897  41.058  38.346   7.892
   64POPC   C4B 3898  41.343  38.484   7.557
   65POPC   NC3 3899  44.775  19.596   9.573
   65POPC   PO4 3900  44.629  18.927   9.500
   65POPC   GL1 3901  44.690  19.017   9.100
   65POPC   GL2 3902  44.450  19.264   9.131
   65POPC   C1A 3903  44.972  18.955   8.737
   65POPC   D2A 3904  44.941  18.615   8.413
   65POPC   C3A 3905  44.955  18.710   7.962
   65POPC   C4A 3906  44.608  18.683   7.652
   65POPC   C1B 3907  44.342  19.140   8.722
   65POPC   C2B 3908  44.623  19.025   8.366
   65POPC   C3B 3909  44.699  19.142   7.928
   65POPC   C4B 3910  44.388  19.173   7.567
   66POPC   NC3 3911  44.419   2.684   9.775
   66POPC   PO4 3912  44.861   2.238   9.475
   66POPC   GL1 3913  44.616   2.143   9.148
   66POPC   GL2 3914  44.613   1.789   9.090
   66POPC   C1A 3915  44.592   2.144   8.716
   66POPC   D2A 3916  44.382   2.123   8.309
   66POPC   C3A 3917  44.690   2.119   7.974
   66POPC   C4A 3918   0.093   2.328   8.000
   66POPC   C1B 3919  44.747   1.599   8.716
   66POPC   C2B 3920  44.571   1.631   8.313
   66POPC   C3B 3921  44.712   1.549   7.908
   66POPC   C4B 3922  44.573   1.652   7.533
   67POPC   NC3 3923  15.770  31.188   9.327
   67POPC   PO4 3924  16.032  30.565   9.465
   67POPC   GL1 3925  15.811  30.672   9.129
   67POPC   GL2 3926  16.095  30.903   9.037
   67POPC   C1A 3927  15.758  30.789   8.688
   67POPC   D2A 3928  16.032  30.636   8.389
   67POPC   C3A 3929  15.810  30.624   8.066
   67POPC   C4A 3930  15.689  30.770   7.721
   67POPC   C1B 3931  16.272  30.515   8.836
   67POPC   C2B 3932  16.238  30.165   8.492
   67POPC   C3B 3933  16.259  30.278   8.039
   67POPC   C4B 3934  16.162  30.575   7.685
   68POPC   NC3 3935  16.966  35.498   9.542
   68POPC   PO4 3936  16.392  35.239   9.565
   68POPC   GL1 3937  16.539  35.473   9.218
   68POPC   GL2 3938  16.807  35.292   9.094
   68POPC   C1A 3939  16.572  35.638   8.787
   68POPC   D2A 3940  16.635  35.411   8.418
   68POPC   C3A 3941  16.772  35.632   8.075
   68POPC   C4A 3942  16.674  35.611   7.626
   68POPC   C1B 3943  16.939  35.084   8.719
   68POPC   C2B 3944  17.063  35.129   8.315
   68POPC   C3B 3945  16.936  35.176   7.908
   68POPC   C4B 3946  16.980  35.021   7.520
   69POPC   NC3 3947  26.377   9.424   9.454
   69POPC   PO4 3948  26.959   9.763   9.491
   69POPC   GL1 3949  26.783   9.718   9.159
   69POPC   GL2 3950  27.068   9.553   8.949
   69POPC   C1A 3951  26.695   9.852   8.785
   69POPC   D2A 3952  26.652   9.794   8.359
   69POPC   C3A 3953  26.798  10.038   8.023
   69POPC   C4A 3954  26.613   9.745   7.747
   69POPC   C1B 3955  27.159   9.776   8.598
   69POPC   C2B 3956  27.270   9.839   8.233
   69POPC   C3B 3957  27.040   9.586   8.025
   69POPC   C4B 3958  27.090   9.754   7.674
   70POPC   NC3 3959  39.754  20.999   9.311
   70POPC   PO4 3960  40.123  21.459   9.777
   70POPC   GL1 3961  40.047  21.445   9.286
   70POPC   GL2 3962  40.335  21.624   9.165
   70POPC   C1A 3963  39.829  21.395   8.841
   70POPC   D2A 3964  39.793  21.103   8.459
   70POPC   C3A 3965  40.012  21.261   8.050
   70POPC   C4A 3966  39.878  21.311   7.607
   70POPC   C1B 3967  40.213  21.721   8.793
   70POPC   C2B 3968  40.328  21.739   8.401
   70POPC   C3B 3969  40.234  21.782   8.010
   70POPC   C4B 3970  40.325  21.510   7.696
   71POPC   NC3 3971  40.695  17.120   9.651
   71POPC   PO4 3972  41.055  16.540   9.532
   71POPC   GL1 3973  41.100  16.526   9.129
   71POPC   GL2 3974  40.756  16.508   9.069
   71POPC   C1A 3975  41.056  16.681   8.717
   71POPC   D2A 3976  40.878  16.569   8.321
   71POPC   C3A 3977  41.060  16.753   7.952
   71POPC   C4A 3978  41.032  16.611   7.545
   71POPC   C1B 3979  40.518  16.625   8.711
   71POPC   C2B 3980  40.438  16.885   8.345
   71POPC   C3B 3981  40.519  16.793   7.911
   71POPC   C4B 3982  40.515  16.572   7.524
   72POPC   NC3 3983   2.899   9.239   9.399
   72POPC   PO4 3984   2.678   8.653   9.541
   72POPC   GL1 3985   2.759   8.817   9.138
   72POPC   GL2 3986   2.503   9.044   9.108
   72POPC   C1A 3987   2.873   9.034   8.749
   72POPC   D2A 3988   3.053   8.877   8.368
   72POPC   C3A 3989   2.840   8.831   7.969
   72POPC   C4A 3990   2.945   9.120   7.642
   72POPC   C1B 3991   2.351   8.816   8.785
   72POPC   C2B 3992   2.515   8.949   8.391
   72POPC   C3B 3993   2.395   9.121   8.018
   72POPC   C4B 3994   2.454   8.972   7.603
   73POPC   NC3 3995  11.724  32.592   9.520
   73POPC   PO4 3996  11.181  32.226   9.496
   73POPC   GL1 3997  11.440  32.289   9.130
   73POPC   GL2 3998  11.600  32.614   9.043
   73POPC   C1A 3999  11.479  32.181   8.687
   73POPC   D2A 4000  11.655  32.130   8.321
   73POPC   C3A 4001  11.402  31.941   8.060
   73POPC   C4A 4002  11.292  32.055   7.697
   73POPC   C1B 4003  11.317  32.641   8.741
   73POPC   C2B 4004  11.235  32.536   8.336
   73POPC   C3B 4005  11.460  32.484   7.966
   73POPC   C4B 4006  11.467  32.761   7.626
   74POPC   NC3 4007  39.497   2.076   9.386
   74POPC   PO4 4008  38.990   2.222   9.865
   74POPC   GL1 4009  39.046   1.847   9.413
   74POPC   GL2 4010  39.365   1.599   9.247
   74POPC   C1A 4011  39.073   1.806   8.889
   74POPC   D2A 4012  39.087   2.114   8.510
   74POPC   C3A 4013  38.944   2.039   8.082
   74POPC   C4A 4014  39.106   2.116   7.659
   74POPC   C1B 4015  39.580   1.729   8.814
   74POPC   C2B 4016  39.606   1.947   8.433
   74POPC   C3B 4017  39.427   1.960   8.049
   74POPC   C4B 4018  39.435   1.716   7.666
   75POPC   NC3 4019  14.211  40.555   9.569
   75POPC   PO4 4020  14.451  41.137   9.337
   75POPC   GL1 4021  14.606  40.895   9.037
   75POPC   GL2 4022  14.441  40.615   9.117
   75POPC   C1A 4023  14.552  40.920   8.628
   75POPC   D2A 4024  14.265  40.977   8.314
   75POPC   C3A 4025  14.486  40.898   7.946
   75POPC   C4A 4026  14.401  41.004   7.540
   75POPC   C1B 4027  14.190  40.613   8.753
   75POPC   C2B 4028  14.286  40.451   8.358
   75POPC   C3B 4029  14.233  40.475   7.949
   75POPC   C4B 4030  14.432  40.275   7.613
   76POPC   NC3 4031  19.419  23.818   9.509
   76POPC   PO4 4032  18.787  23.831   9.551
   76POPC   GL1 4033  19.024  23.904   9.192
   76POPC   GL2 4034  19.104  23.547   9.151
   76POPC   C1A 4035  19.111  24.034   8.784
   76POPC   D2A 4036  19.328  23.934   8.400
   76POPC   C3A 4037  19.161  24.017   8.006
   76POPC   C4A 4038  19.033  23.911   7.599
   76POPC   C1B 4039  19.133  23.522   8.697
   76POPC   C2B 4040  19.025  23.539   8.245
   76POPC   C3B 4041  19.295  23.534   7.879
   76POPC   C4B 4042  19.343  23.516   7.414
   77POPC   NC3 4043  17.211  25.694   9.485
   77POPC   PO4 4044  17.685  26.146   9.487
   77POPC   GL1 4045  17.582  26.260   9.088
   77POPC   GL2 4046  17.243  26.176   9.076
   77POPC   C1A 4047  17.778  26.218   8.703
   77POPC   D2A 4048  17.752  26.031   8.325
   77POPC   C3A 4049  17.412  26.159   8.148
   77POPC   C4A 4050  17.310  26.085   7.774
   77POPC   C1B 4051  17.203  25.821   8.805
   77POPC   C2B 4052  17.277  25.715   8.387
   77POPC   C3B 4053  17.114  25.582   8.020
   77POPC   C4B 4054  16.965  25.751   7.655
   78POPC   NC3 4055  28.639  32.359   9.522
   78POPC   PO4 4056  27.980  32.292   9.456
   78POPC   GL1 4057  28.351  32.150   9.156
   78POPC   GL2 4058  28.427  32.461   9.043
   78POPC   C1A 4059  28.561  32.061   8.744
   78POPC   D2A 4060  28.330  32.288   8.414
   78POPC   C3A 4061  28.398  32.193   7.984
   78POPC   C4A 4062  28.090  32.066   7.699
   78POPC   C1B 4063  28.018  32.427   8.807
   78POPC   C2B 4064  27.930  32.647   8.407
   78POPC   C3B 4065  27.976  32.476   8.002
   78POPC   C4B 4066  28.212  32.590   7.620
   79POPC   NC3 4067  44.211  31.303   9.594
   79POPC   PO4 4068  43.682  31.747   9.556
   79POPC   GL1 4069  43.679  31.679   9.153
   79POPC   GL2 4070  43.927  31.421   9.176
   79POPC   C1A 4071  43.593  31.463   8.777
   79POPC   D2A 4072  43.870  31.284   8.481
   79POPC   C3A 4073  43.709  31.381   8.086
   79POPC   C4A 4074  43.900  31.323   7.692
   79POPC   C1B 4075  44.088  31.643   8.839
   79POPC   C2B 4076  44.319  31.574   8.477
   79POPC   C3B 4077  44.188  31.556   8.051
   79POPC   C4B 4078  44.197  31.744   7.619
   80POPC   NC3 4079  32.020  24.003   9.347
   80POPC   PO4 4080  32.378  23.456   9.569
   80POPC   GL1 4081  32.175  23.503   9.225
   80POPC   GL2 4082  32.397  23.772   9.121
   80POPC   C1A 4083  32.038  23.453   8.817
   80POPC   D2A 4084  32.168  23.689   8.470
   80POPC   C3A 4085  32.006  23.529   8.076
   80POPC   C4A 4086  31.912  23.805   7.757
   80POPC   C1B 4087  32.596  23.915   8.774
   80POPC   C2B 4088  32.701  23.686   8.426
   80POPC   C3B 4089  32.494  23.641   8.061
   80POPC   C4B 4090  32.429  23.834   7.668
   81POPC   NC3 4091  29.437  36.480   9.802
   81POPC   PO4 4092  29.151  37.048   9.829
   81POPC   GL1 4093  29.134  37.041   9.292
   81POPC   GL2 4094  28.918  37.317   9.137
   81POPC   C1A 4095  29.022  36.816   8.869
   81POPC   D2A 4096  29.120  36.870   8.411
   81POPC   C3A 4097  28.914  36.712   8.062
   81POPC   C4A 4098  28.898  36.525   7.688
   81POPC   C1B 4099  29.123  37.280   8.748
   81POPC   C2B 4100  29.021  37.398   8.350
   81POPC   C3B 4101  28.974  37.212   7.973
   81POPC   C4B 4102  29.173  36.980   7.659
   82POPC   NC3 4103  14.494  44.796   9.531
   82POPC   PO4 4104  14.503   0.430   9.462
   82POPC   GL1 4105  14.385   0.227   9.093
   82POPC   GL2 4106  13.990   0.262   9.126
   82POPC   C1A 4107  14.532   0.414   8.692
   82POPC   D2A 4108  14.381   0.779   8.478
   82POPC   C3A 4109  14.501   0.827   8.061
   82POPC   C4A 4110  14.223   0.678   7.771
   82POPC   C1B 4111  14.024   0.420   8.658
   82POPC   C2B 4112  14.190   0.393   8.223
   82POPC   C3B 4113  14.259   0.121   7.859
   82POPC   C4B 4114  14.147  44.967   7.440
   83POPC   NC3 4115  44.548  24.251  10.015
   83POPC   PO4 4116  44.944  23.958   9.484
   83POPC   GL1 4117  44.646  23.912   9.137
   83POPC   GL2 4118  44.618  23.570   9.015
   83POPC   C1A 4119  44.411  23.955   8.754
   83POPC   D2A 4120  44.614  24.035   8.354
   83POPC   C3A 4121  44.576  23.809   7.972
   83POPC   C4A 4122  44.563  23.474   7.726
   83POPC   C1B 4123  44.756  23.576   8.595
   83POPC   C2B 4124  44.759  23.350   8.184
   83POPC   C3B 4125   0.053  23.405   7.804
   83POPC   C4B 4126   0.383  23.276   7.486
   84POPC   NC3 4127  27.162   2.875   9.464
   84POPC   PO4 4128  26.554   2.618   9.427
   84POPC   GL1 4129  26.783   2.841   9.098
   84POPC   GL2 4130  27.109   2.673   8.963
   84POPC   C1A 4131  26.724   2.813   8.659
   84POPC   D2A 4132  26.838   2.523   8.379
   84POPC   C3A 4133  26.769   2.638   7.967
   84POPC   C4A 4134  26.846   3.040   7.773
   84POPC   C1B 4135  27.110   3.132   8.790
   84POPC   C2B 4136  27.214   3.366   8.383
   84POPC   C3B 4137  27.272   3.202   7.958
   84POPC   C4B 4138  27.324   3.099   7.499
   85POPC   NC3 4139  12.640  21.860   9.440
   85POPC   PO4 4140  13.186  22.404   9.521
   85POPC   GL1 4141  13.135  22.180   9.109
   85POPC   GL2 4142  13.056  21.807   9.064
   85POPC   C1A 4143  12.915  22.213   8.704
   85POPC   D2A 4144  12.649  22.196   8.329
   85POPC   C3A 4145  12.739  22.364   7.909
   85POPC   C4A 4146  12.906  22.179   7.516
   85POPC   C1B 4147  12.645  21.785   8.801
   85POPC   C2B 4148  12.591  21.689   8.383
   85POPC   C3B 4149  12.761  21.807   7.992
   85POPC   C4B 4150  12.564  21.811   7.619
   86POPC   NC3 4151  42.485  39.935   9.660
   86POPC   PO4 4152  41.856  39.973   9.480
   86POPC   GL1 4153  42.131  39.811   9.168
   86POPC   GL2 4154  42.491  39.732   9.205
   86POPC   C1A 4155  42.283  39.925   8.763
   86POPC   D2A 4156  42.347  40.167   8.424
   86POPC   C3A 4157  42.158  39.998   8.076
   86POPC   C4A 4158  42.160  40.225   7.711
   86POPC   C1B 4159  42.741  40.041   8.948
   86POPC   C2B 4160  42.835  40.037   8.508
   86POPC   C3B 4161  42.707  39.985   8.092
   86POPC   C4B 4162  42.523  39.891   7.706
   87POPC   NC3 4163  28.793  33.074   9.375
   87POPC   PO4 4164  29.430  33.344   9.612
   87POPC   GL1 4165  29.257  33.203   9.212
   87POPC   GL2 4166  29.000  33.301   8.976
   87POPC   C1A 4167  29.282  32.885   8.860
   87POPC   D2A 4168  29.107  32.825   8.430
   87POPC   C3A 4169  29.280  33.001   8.050
   87POPC   C4A 4170  29.325  32.819   7.630
   87POPC   C1B 4171  29.189  33.320   8.563
   87POPC   C2B 4172  29.105  33.471   8.145
   87POPC   C3B 4173  28.915  33.278   7.771
   87POPC   C4B 4174  29.077  33.191   7.345
   88POPC   NC3 4175  37.052  25.184   9.349
   88POPC   PO4 4176  36.487  25.550   9.570
   88POPC   GL1 4177  36.584  25.511   9.086
   88POPC   GL2 4178  36.771  25.195   8.937
   88POPC   C1A 4179  36.836  25.671   8.694
   88POPC   D2A 4180  37.190  25.707   8.369
   88POPC   C3A 4181  36.988  25.727   7.954
   88POPC   C4A 4182  37.017  25.567   7.503
   88POPC   C1B 4183  37.088  25.213   8.615
   88POPC   C2B 4184  36.918  25.297   8.220
   88POPC   C3B 4185  36.913  25.170   7.818
   88POPC   C4B 4186  37.213  25.044   7.525
   89POPC   NC3 4187  17.309   1.684   9.493
   89POPC   PO4 4188  17.858   2.113   9.698
   89POPC   GL1 4189  17.574   2.197   9.291
   89POPC   GL2 4190  17.355   1.954   9.070
   89POPC   C1A 4191  17.592   2.316   8.851
   89POPC   D2A 4192  17.458   2.046   8.503
   89POPC   C3A 4193  17.474   2.258   8.092
   89POPC   C4A 4194  17.136   2.259   7.838
   89POPC   C1B 4195  17.695   1.717   8.867
   89POPC   C2B 4196  17.818   1.535   8.471
   89POPC   C3B 4197  17.690   1.753   8.131
   89POPC   C4B 4198  17.389   1.823   7.835
   90POPC   NC3 4199  15.672  36.810   9.484
   90POPC   PO4 4200  16.233  37.166   9.511
   90POPC   GL1 4201  15.963  37.052   9.164
   90POPC   GL2 4202  16.034  36.692   9.147
   90POPC   C1A 4203  15.779  36.917   8.769
   90POPC   D2A 4204  15.973  36.900   8.380
   90POPC   C3A 4205  15.679  36.889   8.095
   90POPC   C4A 4206  15.562  36.995   7.753
   90POPC   C1B 4207  16.207  36.589   8.749
   90POPC   C2B 4208  16.168  36.415   8.338
   90POPC   C3B 4209  16.370  36.485   7.938
   90POPC   C4B 4210  16.332  36.470   7.469
   91POPC   NC3 4211   9.185  15.520   9.821
   91POPC   PO4 4212   8.787  15.842   9.324
   91POPC   GL1 4213   8.766  16.071   8.997
   91POPC   GL2 4214   9.097  16.068   8.966
   91POPC   C1A 4215   8.609  15.940   8.651
   91POPC   D2A 4216   8.792  15.557   8.457
   91POPC   C3A 4217   9.018  15.669   8.127
   91POPC   C4A 4218   8.867  15.720   7.741
   91POPC   C1B 4219   9.080  16.018   8.535
   91POPC   C2B 4220   9.019  16.182   8.125
   91POPC   C3B 4221   9.311  16.144   7.765
   91POPC   C4B 4222   9.413  16.014   7.323
   92POPC   NC3 4223  27.088  25.917   9.727
   92POPC   PO4 4224  26.712  25.941   9.233
   92POPC   GL1 4225  26.893  26.170   8.931
   92POPC   GL2 4226  26.634  26.418   8.912
   92POPC   C1A 4227  26.960  26.090   8.554
   92POPC   D2A 4228  26.730  25.962   8.238
   92POPC   C3A 4229  27.038  25.809   7.994
   92POPC   C4A 4230  27.160  25.997   7.647
   92POPC   C1B 4231  26.444  26.110   8.658
   92POPC   C2B 4232  26.207  26.188   8.298
   92POPC   C3B 4233  26.463  26.368   7.978
   92POPC   C4B 4234  26.646  26.045   7.744
   93POPC   NC3 4235   3.285  38.241   9.465
   93POPC   PO4 4236   3.907  38.348   9.214
   93POPC   GL1 4237   3.549  38.309   9.025
   93POPC   GL2 4238   3.368  38.620   9.126
   93POPC   C1A 4239   3.514  38.091   8.650
   93POPC   D2A 4240   3.309  38.334   8.331
   93POPC   C3A 4241   3.367  38.217   7.917
   93POPC   C4A 4242   3.750  38.303   7.779
   93POPC   C1B 4243   3.554  38.853   8.801
   93POPC   C2B 4244   3.342  39.002   8.446
   93POPC   C3B 4245   3.301  38.781   8.028
   93POPC   C4B 4246   3.499  38.766   7.613
   94POPC   NC3 4247  38.364   5.707   9.558
   94POPC   PO4 4248  38.313   6.326   9.256
   94POPC   GL1 4249  38.517   5.977   9.097
   94POPC   GL2 4250  38.703   5.644   9.193
   94POPC   C1A 4251  38.456   5.998   8.645
   94POPC   D2A 4252  38.118   5.859   8.393
   94POPC   C3A 4253  38.192   6.044   7.977
   94POPC   C4A 4254  38.635   6.136   7.834
   94POPC   C1B 4255  38.445   5.548   8.849
   94POPC   C2B 4256  38.529   5.511   8.448
   94POPC   C3B 4257  38.392   5.580   8.059
   94POPC   C4B 4258  38.672   5.604   7.749
   95POPC   NC3 4259  24.106   3.288   9.433
   95POPC   PO4 4260  23.464   3.393   9.445
   95POPC   GL1 4261  23.597   3.592   9.109
   95POPC   GL2 4262  23.910   3.773   9.184
   95POPC   C1A 4263  23.776   3.415   8.739
   95POPC   D2A 4264  23.865   3.215   8.350
   95POPC   C3A 4265  23.673   3.387   8.003
   95POPC   C4A 4266  23.712   3.415   7.550
   95POPC   C1B 4267  23.766   3.916   8.766
   95POPC   C2B 4268  23.871   3.775   8.324
   95POPC   C3B 4269  23.897   3.823   7.857
   95POPC   C4B 4270  23.781   3.899   7.398
   96POPC   NC3 4271  43.796  23.761   9.575
   96POPC   PO4 4272  44.424  23.826   9.603
   96POPC   GL1 4273  44.164  23.721   9.195
   96POPC   GL2 4274  43.843  23.542   9.132
   96POPC   C1A 4275  44.180  23.495   8.757
   96POPC   D2A 4276  44.318  23.600   8.357
   96POPC   C3A 4277  44.122  23.495   7.999
   96POPC   C4A 4278  44.133  23.676   7.593
   96POPC   C1B 4279  43.725  23.834   8.837
   96POPC   C2B 4280  43.836  23.752   8.432
   96POPC   C3B 4281  43.819  23.900   8.033
   96POPC   C4B 4282  43.650  23.672   7.724
   97POPC   NC3 4283  14.897  44.499   9.812
   97POPC   PO4 4284  15.115  43.882   9.508
   97POPC   GL1 4285  14.983  43.698   9.114
   97POPC   GL2 4286  15.247  43.431   9.025
   97POPC   C1A 4287  15.111  43.931   8.775
   97POPC   D2A 4288  15.138  44.107   8.367
   97POPC   C3A 4289  15.048  43.864   8.034
   97POPC   C4A 4290  14.982  43.961   7.622
   97POPC   C1B 4291  14.950  43.389   8.700
   97POPC   C2B 4292  14.908  43.413   8.251
   97POPC   C3B 4293  14.972  43.420   7.795
   97POPC   C4B 4294  15.264  43.462   7.420
   98POPC   NC3 4295  41.992  20.555   9.851
   98POPC   PO4 4296  42.510  20.558   9.392
   98POPC   GL1 4297  42.384  20.594   8.959
   98POPC   GL2 4298  42.161  20.860   8.963
   98POPC   C1A 4299  42.133  20.505   8.606
   98POPC   D2A 4300  42.356  20.268   8.367
   98POPC   C3A 4301  42.284  20.461   8.018
   98POPC   C4A 4302  42.301  20.490   7.602
   98POPC   C1B 4303  42.479  21.009   8.687
   98POPC   C2B 4304  42.598  20.782   8.306
   98POPC   C3B 4305  42.580  20.892   7.888
   98POPC   C4B 4306  42.445  20.933   7.457
   99POPC   NC3 4307  27.414   1.972   9.504
   99POPC   PO4 4308  27.983   2.404   9.574
   99POPC   GL1 4309  27.794   2.169   9.203
   99POPC   GL2 4310  27.646   1.862   9.090
   99POPC   C1A 4311  27.580   2.272   8.807
   99POPC   D2A 4312  27.335   2.395   8.505
   99POPC   C3A 4313  27.479   2.124   8.204
   99POPC   C4A 4314  27.506   2.127   7.766
   99POPC   C1B 4315  27.771   1.795   8.698
   99POPC   C2B 4316  27.591   1.617   8.346
   99POPC   C3B 4317  27.447   1.670   7.959
   99POPC   C4B 4318  27.872   1.788   7.784
  100POPC   NC3 4319  33.287   4.954   9.805
  100POPC   PO4 4320  32.891   5.427   9.536
  100POPC   GL1 4321  33.071   5.337   9.123
  100POPC   GL2 4322  32.976   5.006   9.106
  100POPC   C1A 4323  32.919   5.221   8.668
  100POPC   D2A 4324  32.813   5.337   8.251
  100POPC   C3A 4325  32.992   5.241   7.859
  100POPC   C4A 4326  32.896   5.304   7.398
  100POPC   C1B 4327  33.268   4.847   8.741
  100POPC   C2B 4328  33.234   4.988   8.320
  100POPC   C3B 4329  33.220   4.783   7.911
  100POPC   C4B 4330  33.384   4.674   7.494
  101POPC   NC3 4331  16.012  38.886   9.718
  101POPC   PO4 4332  15.480  38.735   9.352
  101POPC   GL1 4333  15.859  38.693   9.130
  101POPC   GL2 4334  16.055  38.976   9.155
  101POPC   C1A 4335  15.846  38.530   8.721
  101POPC   D2A 4336  15.648  38.241   8.482
  101POPC   C3A 4337  15.736  38.296   8.100
  101POPC   C4A 4338  15.747  38.683   7.898
  101POPC   C1B 4339  16.163  38.933   8.706
  101POPC   C2B 4340  16.190  38.597   8.343
  101POPC   C3B 4341  16.228  38.517   7.909
  101POPC   C4B 4342  16.331  38.571   7.464
  102POPC   NC3 4343  13.123  30.995   9.445
  102POPC   PO4 4344  12.449  30.600   9.432
  102POPC   GL1 4345  12.812  30.657   9.200
  102POPC   GL2 4346  12.696  30.973   9.156
  102POPC   C1A 4347  13.065  30.660   8.822
  102POPC   D2A 4348  13.213  30.784   8.416
  102POPC   C3A 4349  13.072  30.616   8.026
  102POPC   C4A 4350  12.831  30.931   7.819
  102POPC   C1B 4351  12.549  30.763   8.780
  102POPC   C2B 4352  12.703  30.521   8.403
  102POPC   C3B 4353  12.551  30.527   7.944
  102POPC   C4B 4354  12.614  30.593   7.477
  103POPC   NC3 4355   9.521  33.269   9.427
  103POPC   PO4 4356  10.012  32.855   9.484
  103POPC   GL1 4357   9.715  32.886   9.159
  103POPC   GL2 4358   9.576  32.526   9.155
  103POPC   C1A 4359   9.573  33.117   8.764
  103POPC   D2A 4360   9.257  33.426   8.578
  103POPC   C3A 4361   9.313  33.459   8.116
  103POPC   C4A 4362   9.566  33.194   7.778
  103POPC   C1B 4363   9.807  32.632   8.754
  103POPC   C2B 4364   9.952  32.933   8.444
  103POPC   C3B 4365   9.813  32.843   8.040
  103POPC   C4B 4366   9.674  32.655   7.648
  104POPC   NC3 4367   1.018   8.369   9.377
  104POPC   PO4 4368   1.551   8.055   9.138
  104POPC   GL1 4369   1.176   8.146   8.959
  104POPC   GL2 4370   0.948   7.916   9.148
  104POPC   C1A 4371   1.119   8.410   8.587
  104POPC   D2A 4372   1.433   8.473   8.271
  104POPC   C3A 4373   1.387   8.189   7.943
  104POPC   C4A 4374   1.445   8.218   7.503
  104POPC   C1B 4375   1.025   7.719   8.749
  104POPC   C2B 4376   1.133   7.920   8.362
  104POPC   C3B 4377   1.051   7.823   7.923
  104POPC   C4B 4378   0.937   8.167   7.653
  105POPC   NC3 4379  11.602  36.044   9.449
  105POPC   PO4 4380  11.186  36.522   9.505
  105POPC   GL1 4381  11.255  36.242   9.118
  105POPC   GL2 4382  11.225  35.876   9.124
  105POPC   C1A 4383  11.292  36.115   8.680
  105POPC   D2A 4384  11.468  36.297   8.337
  105POPC   C3A 4385  11.156  36.436   8.093
  105POPC   C4A 4386  11.242  36.258   7.715
  105POPC   C1B 4387  11.586  35.724   8.857
  105POPC   C2B 4388  11.677  35.835   8.413
  105POPC   C3B 4389  11.447  35.863   8.004
  105POPC   C4B 4390  11.654  35.822   7.581
  106POPC   NC3 4391  36.732  19.913   9.737
  106POPC   PO4 4392  36.741  20.574   9.525
  106POPC   GL1 4393  36.842  20.624   9.107
  106POPC   GL2 4394  37.197  20.498   9.113
  106POPC   C1A 4395  36.639  20.716   8.683
  106POPC   D2A 4396  36.448  20.751   8.237
  106POPC   C3A 4397  36.777  20.767   7.906
  106POPC   C4A 4398  36.812  20.625   7.464
  106POPC   C1B 4399  37.008  20.339   8.727
  106POPC   C2B 4400  36.904  20.464   8.299
  106POPC   C3B 4401  36.840  20.245   7.913
  106POPC   C4B 4402  37.141  20.234   7.566
  107POPC   NC3 4403  39.153  35.418   9.612
  107POPC   PO4 4404  38.710  35.054   9.350
  107POPC   GL1 4405  38.995  35.232   9.100
  107POPC   GL2 4406  39.303  35.393   9.112
  107POPC   C1A 4407  39.227  35.058   8.738
  107POPC   D2A 4408  39.302  35.214   8.331
  107POPC   C3A 4409  39.123  35.090   7.937
  107POPC   C4A 4410  39.306  35.063   7.525
  107POPC   C1B 4411  39.060  35.528   8.699
  107POPC   C2B 4412  39.291  35.709   8.389
  107POPC   C3B 4413  39.461  35.560   7.973
  107POPC   C4B 4414  39.135  35.703   7.740
  108POPC   NC3 4415  36.941  30.866   9.418
  108POPC   PO4 4416  36.462  30.349   9.389
  108POPC   GL1 4417  36.660  30.619   9.057
  108POPC   GL2 4418  36.691  31.000   8.993
  108POPC   C1A 4419  36.768  30.626   8.635
  108POPC   D2A 4420  36.957  30.349   8.389
  108POPC   C3A 4421  37.052  30.511   8.016
  108POPC   C4A 4422  36.729  30.542   7.771
  108POPC   C1B 4423  37.008  31.103   8.716
  108POPC   C2B 4424  36.997  30.975   8.333
  108POPC   C3B 4425  36.774  30.987   8.009
  108POPC   C4B 4426  37.081  30.934   7.738
  109POPC   NC3 4427  23.975  10.244   9.355
  109POPC   PO4 4428  24.560  10.521   9.609
  109POPC   GL1 4429  24.525  10.498   9.143
  109POPC   GL2 4430  24.260  10.492   9.011
  109POPC   C1A 4431  24.538  10.224   8.690
  109POPC   D2A 4432  24.366  10.228   8.294
  109POPC   C3A 4433  24.485  10.561   8.078
  109POPC   C4A 4434  24.668  10.683   7.720
  109POPC   C1B 4435  24.309  10.689   8.636
  109POPC   C2B 4436  24.033  10.736   8.312
  109POPC   C3B 4437  24.006  10.659   7.887
  109POPC   C4B 4438  24.190  10.822   7.491
  110POPC   NC3 4439   4.829  33.794   9.706
  110POPC   PO4 4440   5.322  34.091   9.607
  110POPC   GL1 4441   5.213  33.830   9.244
  110POPC   GL2 4442   4.866  33.752   9.191
  110POPC   C1A 4443   5.141  33.759   8.775
  110POPC   D2A 4444   5.085  33.520   8.374
  110POPC   C3A 4445   5.083  33.798   8.029
  110POPC   C4A 4446   5.181  33.826   7.613
  110POPC   C1B 4447   4.649  33.634   8.775
  110POPC   C2B 4448   4.568  33.456   8.394
  110POPC   C3B 4449   4.628  33.577   7.985
  110POPC   C4B 4450   4.796  33.494   7.585
  111POPC   NC3 4451  14.765  42.698   9.531
  111POPC   PO4 4452  14.638  43.370   9.481
  111POPC   GL1 4453  14.422  43.274   9.087
  111POPC   GL2 4454  14.283  42.917   9.052
  111POPC   C1A 4455  14.465  43.248   8.656
  111POPC   D2A 4456  14.493  42.928   8.350
  111POPC   C3A 4457  14.516  43.194   8.025
  111POPC   C4A 4458  14.490  43.303   7.642
  111POPC   C1B 4459  14.054  42.955   8.668
  111POPC   C2B 4460  14.076  43.208   8.301
  111POPC   C3B 4461  13.997  43.192   7.904
  111POPC   C4B 4462  14.042  43.186   7.488
  112POPC   NC3 4463   6.399  35.221   9.321
  112POPC   PO4 4464   6.904  35.642   9.408
  112POPC   GL1 4465   6.827  35.422   9.053
  112POPC   GL2 4466   6.524  35.603   8.977
  112POPC   C1A 4467   6.693  35.115   8.722
  112POPC   D2A 4468   6.426  35.149   8.364
  112POPC   C3A 4469   6.686  35.172   7.972
  112POPC   C4A 4470   6.863  35.545   7.751
  112POPC   C1B 4471   6.157  35.459   8.737
  112POPC   C2B 4472   5.980  35.631   8.400
  112POPC   C3B 4473   6.171  35.519   8.065
  112POPC   C4B 4474   6.350  35.467   7.713
  113POPC   NC3 4475  37.556  35.189   9.555
  113POPC   PO4 4476  38.014  35.767   9.433
  113POPC   GL1 4477  37.980  35.627   9.058
  113POPC   GL2 4478  37.768  35.358   9.138
  113POPC   C1A 4479  37.689  35.580   8.703
  113POPC   D2A 4480  37.782  35.435   8.311
  113POPC   C3A 4481  37.637  35.598   7.947
  113POPC   C4A 4482  37.792  35.571   7.562
  113POPC   C1B 4483  37.767  35.061   8.834
  113POPC   C2B 4484  37.852  34.948   8.436
  113POPC   C3B 4485  37.693  35.033   7.997
  113POPC   C4B 4486  37.847  35.091   7.562
  114POPC   NC3 4487  15.793  32.862   9.379
  114POPC   PO4 4488  16.431  32.858   9.604
  114POPC   GL1 4489  16.209  33.078   9.218
  114POPC   GL2 4490  15.953  33.318   9.180
  114POPC   C1A 4491  16.008  32.978   8.789
  114POPC   D2A 4492  16.160  32.918   8.392
  114POPC   C3A 4493  15.914  32.921   8.038
  114POPC   C4A 4494  16.073  33.250   7.793
  114POPC   C1B 4495  15.694  33.377   8.850
  114POPC   C2B 4496  15.696  33.235   8.394
  114POPC   C3B 4497  15.603  33.346   7.946
  114POPC   C4B 4498  15.664  33.382   7.458
  115POPC   NC3 4499   6.704  11.388   9.452
  115POPC   PO4 4500   6.414  10.767   9.566
  115POPC   GL1 4501   6.374  11.045   9.157
  115POPC   GL2 4502   6.262  11.389   9.229
  115POPC   C1A 4503   6.624  11.275   8.797
  115POPC   D2A 4504   6.949  11.362   8.476
  115POPC   C3A 4505   6.844  11.400   8.049
  115POPC   C4A 4506   6.643  11.118   7.792
  115POPC   C1B 4507   6.244  11.612   8.872
  115POPC   C2B 4508   6.168  11.540   8.464
  115POPC   C3B 4509   6.373  11.587   8.087
  115POPC   C4B 4510   6.280  11.466   7.712
  116POPC   NC3 4511  19.344  40.503   9.551
  116POPC   PO4 4512  18.845  40.808   9.555
  116POPC   GL1 4513  19.120  40.750   9.177
  116POPC   GL2 4514  19.096  40.404   9.087
  116POPC   C1A 4515  19.261  40.763   8.751
  116POPC   D2A 4516  19.477  40.895   8.346
  116POPC   C3A 4517  19.353  41.023   7.943
  116POPC   C4A 4518  19.117  41.327   7.742
  116POPC   C1B 4519  19.175  40.239   8.676
  116POPC   C2B 4520  19.269  40.435   8.274
  116POPC   C3B 4521  19.035  40.637   7.941
  116POPC   C4B 4522  18.763  40.458   7.629
  117POPC   NC3 4523  10.915  21.661   9.404
  117POPC   PO4 4524  10.357  21.398   9.678
  117POPC   GL1 4525  10.431  21.493   9.228
  117POPC   GL2 4526  10.549  21.163   9.160
  117POPC   C1A 4527  10.643  21.533   8.783
  117POPC   D2A 4528  10.511  21.565   8.329
  117POPC   C3A 4529  10.734  21.655   7.928
  117POPC   C4A 4530  10.600  21.880   7.514
  117POPC   C1B 4531  10.381  20.984   8.775
  117POPC   C2B 4532  10.506  21.063   8.389
  117POPC   C3B 4533  10.518  21.131   7.963
  117POPC   C4B 4534  10.672  21.054   7.531
  118POPC   NC3 4535  14.957  37.503   9.395
  118POPC   PO4 4536  15.519  37.866   9.525
  118POPC   GL1 4537  15.207  37.903   9.192
  118POPC   GL2 4538  15.381  37.597   9.088
  118POPC   C1A 4539  15.010  37.763   8.774
  118POPC   D2A 4540  15.033  37.450   8.429
  118POPC   C3A 4541  15.018  37.639   8.046
  118POPC   C4A 4542  14.889  38.019   7.855
  118POPC   C1B 4543  15.539  37.854   8.787
  118POPC   C2B 4544  15.359  37.848   8.381
  118POPC   C3B 4545  15.468  37.861   7.956
  118POPC   C4B 4546  15.409  37.470   7.716
  119POPC   NC3 4547  25.503   0.080   9.544
  119POPC   PO4 4548  25.072  44.601   9.433
  119POPC   GL1 4549  25.336  44.436   9.181
  119POPC   GL2 4550  25.505  44.706   9.113
  119POPC   C1A 4551  25.205  44.306   8.799
  119POPC   D2A 4552  25.138  44.547   8.460
  119POPC   C3A 4553  25.116  44.368   8.070
  119POPC   C4A 4554  25.333  44.555   7.778
  119POPC   C1B 4555  25.173  44.935   8.866
  119POPC   C2B 4556  25.164   0.090   8.430
  119POPC   C3B 4557  25.402  44.994   8.053
  119POPC   C4B 4558  25.414   0.208   7.645
  120POPC   NC3 4559  40.707  16.244   9.494
  120POPC   PO4 4560  41.350  15.974   9.472
  120POPC   GL1 4561  41.027  16.010   9.119
  120POPC   GL2 4562  40.639  15.965   9.082
  120POPC   C1A 4563  40.894  16.171   8.704
  120POPC   D2A 4564  40.552  16.172   8.430
  120POPC   C3A 4565  40.685  16.059   8.032
  120POPC   C4A 4566  40.841  16.173   7.648
  120POPC   C1B 4567  40.428  15.760   8.733
  120POPC   C2B 4568  40.260  15.743   8.321
  120POPC   C3B 4569  40.419  15.629   7.935
  120POPC   C4B 4570  40.717  15.673   7.668
  121POPC   NC3 4571  12.081  33.204   9.723
  121POPC   PO4 4572  12.178  32.644   9.465
  121POPC   GL1 4573  12.064  32.847   9.116
  121POPC   GL2 4574  12.138  33.201   9.186
  121POPC   C1A 4575  11.992  33.017   8.691
  121POPC   D2A 4576  11.880  33.239   8.292
  121POPC   C3A 4577  11.881  32.925   7.967
  121POPC   C4A 4578  12.302  32.728   7.809
  121POPC   C1B 4579  12.214  33.474   8.808
  121POPC   C2B 4580  12.372  33.314   8.394
  121POPC   C3B 4581  12.267  33.254   7.975
  121POPC   C4B 4582  12.102  33.483   7.671
  122POPC   NC3 4583   1.569  42.069   9.346
  122POPC   PO4 4584   1.996  42.550   9.491
  122POPC   GL1 4585   1.957  42.350   9.097
  122POPC   GL2 4586   2.016  41.980   9.105
  122POPC   C1A 4587   2.104  42.446   8.673
  122POPC   D2A 4588   2.302  42.351   8.273
  122POPC   C3A 4589   2.010  42.496   7.936
  122POPC   C4A 4590   2.140  42.492   7.502
  122POPC   C1B 4591   1.779  42.050   8.717
  122POPC   C2B 4592   1.810  42.176   8.310
  122POPC   C3B 4593   1.592  42.142   7.933
  122POPC   C4B 4594   1.834  42.065   7.575
  123POPC   NC3 4595  26.444   6.911   9.786
  123POPC   PO4 4596  26.496   7.511   9.461
  123POPC   GL1 4597  26.654   7.359   9.092
  123POPC   GL2 4598  26.398   7.181   8.837
  123POPC   C1A 4599  26.822   7.479   8.705
  123POPC   D2A 4600  26.631   7.308   8.370
  123POPC   C3A 4601  26.590   7.504   8.013
  123POPC   C4A 4602  26.684   7.319   7.634
  123POPC   C1B 4603  26.781   6.982   8.756
  123POPC   C2B 4604  27.015   6.932   8.422
  123POPC   C3B 4605  26.886   7.030   8.007
  123POPC   C4B 4606  27.111   7.054   7.625
  124POPC   NC3 4607  40.662   0.869   9.578
  124POPC   PO4 4608  40.459   1.535   9.488
  124POPC   GL1 4609  40.457   1.254   9.125
  124POPC   GL2 4610  40.756   1.032   9.112
  124POPC   C1A 4611  40.689   1.277   8.697
  124POPC   D2A 4612  40.982   1.217   8.373
  124POPC   C3A 4613  40.731   1.230   8.023
  124POPC   C4A 4614  40.722   1.559   7.697
  124POPC   C1B 4615  41.067   0.872   8.805
  124POPC   C2B 4616  41.243   0.755   8.409
  124POPC   C3B 4617  41.071   0.826   8.009
  124POPC   C4B 4618  41.184   0.798   7.607
  125POPC   NC3 4619   3.775  30.089   9.399
  125POPC   PO4 4620   3.177  29.981   9.667
  125POPC   GL1 4621   3.293  30.079   9.212
  125POPC   GL2 4622   3.366  30.418   9.257
  125POPC   C1A 4623   3.365  29.886   8.781
  125POPC   D2A 4624   3.268  29.966   8.333
  125POPC   C3A 4625   3.548  29.737   8.053
  125POPC   C4A 4626   3.497  29.813   7.621
  125POPC   C1B 4627   3.510  30.391   8.833
  125POPC   C2B 4628   3.509  30.453   8.401
  125POPC   C3B 4629   3.596  30.249   8.034
  125POPC   C4B 4630   3.591  30.351   7.632
  126POPC   NC3 4631   3.503  35.656   9.826
  126POPC   PO4 4632   3.741  36.077   9.335
  126POPC   GL1 4633   3.439  36.069   9.059
  126POPC   GL2 4634   3.321  36.327   9.108
  126POPC   C1A 4635   3.417  35.897   8.691
  126POPC   D2A 4636   3.588  36.070   8.342
  126POPC   C3A 4637   3.583  35.901   7.946
  126POPC   C4A 4638   3.951  35.841   7.721
  126POPC   C1B 4639   3.517  36.428   8.715
  126POPC   C2B 4640   3.426  36.610   8.362
  126POPC   C3B 4641   3.370  36.379   8.013
  126POPC   C4B 4642   3.533  36.292   7.585
  127POPC   NC3 4643  11.526  23.212   9.674
  127POPC   PO4 4644  11.067  22.810   9.377
  127POPC   GL1 4645  11.344  22.863   9.076
  127POPC   GL2 4646  11.451  23.187   9.074
  127POPC   C1A 4647  11.553  22.868   8.693
  127POPC   D2A 4648  11.499  23.138   8.356
  127POPC   C3A 4649  11.439  22.910   8.012
  127POPC   C4A 4650  11.652  22.715   7.688
  127POPC   C1B 4651  11.120  23.162   8.741
  127POPC   C2B 4652  11.011  22.932   8.357
  127POPC   C3B 4653  11.025  23.224   7.988
  127POPC   C4B 4654  11.393  23.336   7.732
  128POPC   NC3 4655   7.092   6.082   9.408
  128POPC   PO4 4656   7.421   5.477   9.544
  128POPC   GL1 4657   7.285   5.687   9.154
  128POPC   GL2 4658   7.404   6.014   8.995
  128POPC   C1A 4659   7.173   5.642   8.723
  128POPC   D2A 4660   7.430   5.835   8.393
  128POPC   C3A 4661   7.265   5.837   7.971
  128POPC   C4A 4662   7.133   5.465   7.742
  128POPC   C1B 4663   7.336   6.313   8.641
  128POPC   C2B 4664   7.366   6.318   8.195
  128POPC   C3B 4665   7.710   6.093   8.001
  128POPC   C4B 4666   7.669   5.901   7.627
  129POPC   NC3 4667  28.820  10.288   9.564
  129POPC   PO4 4668  28.149  10.518   9.577
  129POPC   GL1 4669  28.484  10.659   9.307
  129POPC   GL2 4670  28.191  10.606   9.068
  129POPC   C1A 4671  28.638  10.727   8.893
  129POPC   D2A 4672  28.405  10.486   8.585
  129POPC   C3A 4673  28.337  10.615   8.170
  129POPC   C4A 4674  28.518  10.474   7.815
  129POPC   C1B 4675  27.985  10.281   8.822
  129POPC   C2B 4676  28.097  10.089   8.445
  129POPC   C3B 4677  28.230  10.129   8.049
  129POPC   C4B 4678  28.058  10.290   7.680
  130POPC   NC3 4679   9.156  38.217   9.681
  130POPC   PO4 4680   9.018  37.650   9.452
  130POPC   GL1 4681   9.089  37.691   9.025
  130POPC   GL2 4682   8.900  37.410   8.968
  130POPC   C1A 4683   8.928  37.799   8.612
  130POPC   D2A 4684   9.086  37.656   8.229
  130POPC   C3A 4685   8.896  37.772   7.867
  130POPC   C4A 4686   9.056  37.797   7.449
  130POPC   C1B 4687   8.798  37.327   8.546
  130POPC   C2B 4688   8.564  37.541   8.234
  130POPC   C3B 4689   8.537  37.395   7.821
  130POPC   C4B 4690   8.862  37.340   7.538
  131POPC   NC3 4691  20.197  25.471   9.568
  131POPC   PO4 4692  20.779  25.148   9.450
  131POPC   GL1 4693  20.596  25.206   9.090
  131POPC   GL2 4694  20.493  25.557   9.140
  131POPC   C1A 4695  20.724  25.071   8.690
  131POPC   D2A 4696  20.591  25.211   8.295
  131POPC   C3A 4697  20.823  25.237   7.943
  131POPC   C4A 4698  20.572  25.052   7.687
  131POPC   C1B 4699  20.495  25.530   8.694
  131POPC   C2B 4700  20.579  25.719   8.297
  131POPC   C3B 4701  20.428  25.558   7.914
  131POPC   C4B 4702  20.252  25.408   7.542
  132POPC   NC3 4703   8.721  41.935   9.781
  132POPC   PO4 4704   8.976  42.533   9.459
  132POPC   GL1 4705   8.910  42.437   9.033
  132POPC   GL2 4706   8.671  42.144   9.031
  132POPC   C1A 4707   9.204  42.324   8.690
  132POPC   D2A 4708   9.123  42.169   8.275
  132POPC   C3A 4709   9.075  42.406   7.872
  132POPC   C4A 4710   9.330  42.361   7.465
  132POPC   C1B 4711   8.768  42.050   8.652
  132POPC   C2B 4712   8.592  41.969   8.300
  132POPC   C3B 4713   8.590  42.127   7.937
  132POPC   C4B 4714   8.520  41.800   7.704
  133POPC   NC3 4715   1.649  40.264   9.813
  133POPC   PO4 4716   1.248  39.973   9.338
  133POPC   GL1 4717   1.367  39.873   8.964
  133POPC   GL2 4718   1.047  40.031   8.836
  133POPC   C1A 4719   1.467  39.973   8.546
  133POPC   D2A 4720   1.114  40.104   8.327
  133POPC   C3A 4721   1.056  39.811   8.042
  133POPC   C4A 4722   1.218  39.520   7.761
  133POPC   C1B 4723   1.289  40.430   8.691
  133POPC   C2B 4724   1.486  40.438   8.265
  133POPC   C3B 4725   1.296  40.257   7.873
  133POPC   C4B 4726   0.822  40.211   7.845
  134POPC   NC3 4727  35.535  41.496   9.594
  134POPC   PO4 4728  34.917  41.127   9.495
  134POPC   GL1 4729  35.209  41.319   9.191
  134POPC   GL2 4730  35.367  41.648   9.154
  134POPC   C1A 4731  35.351  41.323   8.756
  134POPC   D2A 4732  35.402  41.184   8.335
  134POPC   C3A 4733  35.546  41.455   8.013
  134POPC   C4A 4734  35.353  41.435   7.613
  134POPC   C1B 4735  35.199  41.833   8.818
  134POPC   C2B 4736  35.407  41.751   8.445
  134POPC   C3B 4737  35.242  41.875   8.075
  134POPC   C4B 4738  35.533  41.927   7.798
  135POPC   NC3 4739  23.634  13.649   9.439
  135POPC   PO4 4740  24.287  13.719   9.308
  135POPC   GL1 4741  23.958  13.934   9.121
  135POPC   GL2 4742  24.144  13.978   8.840
  135POPC   C1A 4743  23.579  13.901   8.862
  135POPC   D2A 4744  23.446  13.856   8.470
  135POPC   C3A 4745  23.556  13.908   8.039
  135POPC   C4A 4746  23.404  13.585   7.761
  135POPC   C1B 4747  23.948  13.623   8.636
  135POPC   C2B 4748  24.065  13.505   8.218
  135POPC   C3B 4749  23.929  13.603   7.795
  135POPC   C4B 4750  24.025  13.471   7.381
  136POPC   NC3 4751   8.110  24.003   9.401
  136POPC   PO4 4752   7.881  23.322   9.472
  136POPC   GL1 4753   7.915  23.588   9.152
  136POPC   GL2 4754   8.243  23.444   9.064
  136POPC   C1A 4755   8.036  23.804   8.766
  136POPC   D2A 4756   8.188  23.561   8.423
  136POPC   C3A 4757   7.968  23.637   8.049
  136POPC   C4A 4758   7.835  23.556   7.629
  136POPC   C1B 4759   8.557  23.330   8.742
  136POPC   C2B 4760   8.703  23.449   8.310
  136POPC   C3B 4761   8.499  23.720   8.044
  136POPC   C4B 4762   8.317  23.673   7.693
  137POPC   NC3 4763  29.802  20.900   9.327
  137POPC   PO4 4764  30.145  20.300   9.409
  137POPC   GL1 4765  30.225  20.499   9.072
  137POPC   GL2 4766  30.265  20.855   9.148
  137POPC   C1A 4767  29.960  20.302   8.743
  137POPC   D2A 4768  29.768  20.226   8.335
  137POPC   C3A 4769  29.874  20.589   8.075
  137POPC   C4A 4770  30.152  20.551   7.767
  137POPC   C1B 4771  30.056  20.816   8.726
  137POPC   C2B 4772  30.218  20.993   8.383
  137POPC   C3B 4773  30.404  20.900   8.052
  137POPC   C4B 4774  30.074  21.038   7.768
  138POPC   NC3 4775  27.429  20.324   9.634
  138POPC   PO4 4776  27.718  19.701   9.709
  138POPC   GL1 4777  27.620  19.716   9.275
  138POPC   GL2 4778  27.602  20.046   9.228
  138POPC   C1A 4779  27.468  19.659   8.850
  138POPC   D2A 4780  27.259  19.494   8.466
  138POPC   C3A 4781  27.298  19.731   8.071
  138POPC   C4A 4782  27.430  19.578   7.671
  138POPC   C1B 4783  27.740  20.133   8.818
  138POPC   C2B 4784  27.738  20.316   8.421
  138POPC   C3B 4785  27.927  20.201   8.041
  138POPC   C4B 4786  27.664  20.130   7.663
  139POPC   NC3 4787  20.773  38.841   9.526
  139POPC   PO4 4788  20.543  39.515   9.415
  139POPC   GL1 4789  20.629  39.339   9.085
  139POPC   GL2 4790  20.488  39.033   9.018
  139POPC   C1A 4791  20.529  39.473   8.686
  139POPC   D2A 4792  20.702  39.685   8.345
  139POPC   C3A 4793  20.491  39.740   8.003
  139POPC   C4A 4794  20.541  39.360   7.803
  139POPC   C1B 4795  20.766  38.818   8.715
  139POPC   C2B 4796  20.696  38.709   8.294
  139POPC   C3B 4797  20.586  38.855   7.876
  139POPC   C4B 4798  20.372  38.977   7.469
  140POPC   NC3 4799  31.108  21.198   9.550
  140POPC   PO4 4800  30.695  21.614   9.750
  140POPC   GL1 4801  30.842  21.539   9.271
  140POPC   GL2 4802  30.588  21.584   9.067
  140POPC   C1A 4803  30.921  21.291   8.830
  140POPC   D2A 4804  30.761  21.145   8.414
  140POPC   C3A 4805  30.899  21.268   8.020
  140POPC   C4A 4806  30.634  21.220   7.707
  140POPC   C1B 4807  30.806  21.797   8.728
  140POPC   C2B 4808  30.823  21.704   8.277
  140POPC   C3B 4809  30.696  21.704   7.832
  140POPC   C4B 4810  30.854  21.733   7.425
  141POPC   NC3 4811   3.584   5.033   9.492
  141POPC   PO4 4812   3.250   5.468   9.106
  141POPC   GL1 4813   3.505   5.148   8.960
  141POPC   GL2 4814   3.722   4.828   9.051
  141POPC   C1A 4815   3.340   5.116   8.523
  141POPC   D2A 4816   3.443   5.104   8.118
  141POPC   C3A 4817   3.777   5.355   8.027
  141POPC   C4A 4818   3.739   5.432   7.620
  141POPC   C1B 4819   3.798   4.909   8.632
  141POPC   C2B 4820   3.966   4.736   8.262
  141POPC   C3B 4821   3.830   4.865   7.864
  141POPC   C4B 4822   3.706   4.915   7.442
  142POPC   NC3 4823   4.864  28.765   9.411
  142POPC   PO4 4824   5.262  29.404   9.435
  142POPC   GL1 4825   5.203  29.074   9.176
  142POPC   GL2 4826   4.874  29.204   9.048
  142POPC   C1A 4827   5.156  28.870   8.781
  142POPC   D2A 4828   4.925  29.067   8.459
  142POPC   C3A 4829   5.095  29.004   8.078
  142POPC   C4A 4830   4.983  29.077   7.661
  142POPC   C1B 4831   5.194  29.394   8.764
  142POPC   C2B 4832   5.248  29.484   8.324
  142POPC   C3B 4833   5.250  29.448   7.874
  142POPC   C4B 4834   5.324  29.386   7.421
  143POPC   NC3 4835   0.708  38.229   9.365
  143POPC   PO4 4836   0.299  38.732   9.573
  143POPC   GL1 4837   0.269  38.621   9.130
  143POPC   GL2 4838  44.936  38.569   9.084
  143POPC   C1A 4839   0.409  38.599   8.667
  143POPC   D2A 4840   0.577  38.855   8.283
  143POPC   C3A 4841   0.507  38.601   7.917
  143POPC   C4A 4842   0.463  38.121   7.877
  143POPC   C1B 4843  44.940  38.394   8.640
  143POPC   C2B 4844   0.180  38.349   8.234
  143POPC   C3B 4845   0.058  38.431   7.771
  143POPC   C4B 4846  44.993  38.505   7.296
  144POPC   NC3 4847  23.096   0.530   9.607
  144POPC   PO4 4848  23.255   0.010   9.158
  144POPC   GL1 4849  22.914   0.294   9.091
  144POPC   GL2 4850  22.928   0.633   9.159
  144POPC   C1A 4851  22.739   0.362   8.696
  144POPC   D2A 4852  22.581   0.558   8.320
  144POPC   C3A 4853  22.622   0.284   7.960
  144POPC   C4A 4854  22.818   0.527   7.622
  144POPC   C1B 4855  23.176   0.628   8.814
  144POPC   C2B 4856  23.090   0.647   8.416
  144POPC   C3B 4857  23.116   0.441   8.036
  144POPC   C4B 4858  23.293   0.708   7.709
  145POPC   NC3 4859  33.792  14.339   9.410
  145POPC   PO4 4860  34.323  14.064   9.716
  145POPC   GL1 4861  34.274  14.296   9.262
  145POPC   GL2 4862  34.049  14.190   8.995
  145POPC   C1A 4863  34.278  14.597   8.828
  145POPC   D2A 4864  33.940  14.599   8.505
  145POPC   C3A 4865  34.058  14.608   8.060
  145POPC   C4A 4866  34.042  14.291   7.738
  145POPC   C1B 4867  33.736  14.138   8.698
  145POPC   C2B 4868  33.772  14.171   8.263
  145POPC   C3B 4869  33.585  14.373   7.957
  145POPC   C4B 4870  33.413  14.288   7.586
  146POPC   NC3 4871  36.075   7.803   9.302
  146POPC   PO4 4872  36.600   7.516   9.643
  146POPC   GL1 4873  36.356   7.350   9.202
  146POPC   GL2 4874  36.004   7.327   9.105
  146POPC   C1A 4875  36.406   7.295   8.755
  146POPC   D2A 4876  36.220   7.020   8.483
  146POPC   C3A 4877  36.335   7.057   8.090
  146POPC   C4A 4878  36.349   7.355   7.801
  146POPC   C1B 4879  35.922   7.502   8.703
  146POPC   C2B 4880  36.147   7.509   8.319
  146POPC   C3B 4881  35.893   7.414   7.988
  146POPC   C4B 4882  35.581   7.523   7.694
  147POPC   NC3 4883  19.214   1.582   9.342
  147POPC   PO4 4884  18.787   1.991   9.599
  147POPC   GL1 4885  18.889   1.979   9.179
  147POPC   GL2 4886  18.733   1.658   9.162
  147POPC   C1A 4887  19.129   2.121   8.787
  147POPC   D2A 4888  19.224   1.950   8.387
  147POPC   C3A 4889  18.956   2.151   8.130
  147POPC   C4A 4890  18.823   2.302   7.766
  147POPC   C1B 4891  18.879   1.693   8.742
  147POPC   C2B 4892  18.763   1.719   8.332
  147POPC   C3B 4893  19.069   1.638   8.018
  147POPC   C4B 4894  18.880   1.796   7.722
  148POPC   NC3 4895  19.603  26.360   9.474
  148POPC   PO4 4896  20.173  25.940   9.544
  148POPC   GL1 4897  20.012  25.751   9.175
  148POPC   GL2 4898  19.776  25.989   9.094
  148POPC   C1A 4899  20.001  25.657   8.750
  148POPC   D2A 4900  20.082  25.802   8.350
  148POPC   C3A 4901  19.864  26.053   8.101
  148POPC   C4A 4902  19.951  25.777   7.756
  148POPC   C1B 4903  19.856  26.146   8.675
  148POPC   C2B 4904  19.554  26.341   8.391
  148POPC   C3B 4905  19.402  26.287   7.985
  148POPC   C4B 4906  19.641  26.157   7.633
  149POPC   NC3 4907  19.383   8.435   9.433
  149POPC   PO4 4908  20.045   8.125   9.436
  149POPC   GL1 4909  20.019   8.279   9.039
  149POPC   GL2 4910  19.715   8.382   9.063
  149POPC   C1A 4911  19.818   8.189   8.603
  149POPC   D2A 4912  19.944   8.349   8.201
  149POPC   C3A 4913  20.054   8.029   7.888
  149POPC   C4A 4914  19.673   7.793   7.945
  149POPC   C1B 4915  19.705   8.668   8.737
  149POPC   C2B 4916  19.394   8.648   8.449
  149POPC   C3B 4917  19.455   8.408   8.082
  149POPC   C4B 4918  19.745   8.411   7.712
  150POPC   NC3 4919  33.561  31.845   9.469
  150POPC   PO4 4920  32.878  31.682   9.440
  150POPC   GL1 4921  33.139  31.584   9.130
  150POPC   GL2 4922  33.249  31.900   9.100
  150POPC   C1A 4923  33.002  31.604   8.700
  150POPC   D2A 4924  32.919  31.275   8.398
  150POPC   C3A 4925  33.033  31.373   7.995
  150POPC   C4A 4926  32.850  31.369   7.610
  150POPC   C1B 4927  33.493  31.720   8.774
  150POPC   C2B 4928  33.423  31.466   8.393
  150POPC   C3B 4929  33.529  31.551   7.977
  150POPC   C4B 4930  33.369  31.536   7.574
  151POPC   NC3 4931  18.892  20.116   9.422
  151POPC   PO4 4932  19.269  19.516   9.451
  151POPC   GL1 4933  19.153  19.740   9.130
  151POPC   GL2 4934  19.364  20.035   9.180
  151POPC   C1A 4935  18.853  19.741   8.795
  151POPC   D2A 4936  18.752  19.512   8.432
  151POPC   C3A 4937  18.904  19.663   8.048
  151POPC   C4A 4938  18.773  19.593   7.609
  151POPC   C1B 4939  19.416  19.956   8.761
  151POPC   C2B 4940  19.197  19.874   8.415
  151POPC   C3B 4941  19.354  19.978   8.041
  151POPC   C4B 4942  19.254  19.753   7.701
  152POPC   NC3 4943   4.475   3.748   9.540
  152POPC   PO4 4944   3.797   3.723   9.653
  152POPC   GL1 4945   4.023   3.650   9.228
  152POPC   GL2 4946   4.103   3.355   9.160
  152POPC   C1A 4947   4.234   3.789   8.788
  152POPC   D2A 4948   4.349   3.623   8.357
  152POPC   C3A 4949   4.287   3.871   7.982
  152POPC   C4A 4950   4.298   3.697   7.576
  152POPC   C1B 4951   4.229   3.266   8.762
  152POPC   C2B 4952   4.096   3.128   8.370
  152POPC   C3B 4953   4.291   3.187   7.987
  152POPC   C4B 4954   4.426   3.190   7.562
  153POPC   NC3 4955  40.737  43.534   9.368
  153POPC   PO4 4956  41.005  42.924   9.537
  153POPC   GL1 4957  40.964  43.084   9.165
  153POPC   GL2 4958  40.631  43.066   9.153
  153POPC   C1A 4959  40.971  43.050   8.734
  153POPC   D2A 4960  40.809  43.312   8.403
  153POPC   C3A 4961  40.939  43.168   8.012
  153POPC   C4A 4962  41.007  42.839   7.695
  153POPC   C1B 4963  40.468  43.182   8.800
  153POPC   C2B 4964  40.243  42.966   8.464
  153POPC   C3B 4965  40.384  43.060   8.074
  153POPC   C4B 4966  40.557  43.070   7.687
  154POPC   NC3 4967  31.938  40.881   9.586
  154POPC   PO4 4968  31.249  40.711   9.521
  154POPC   GL1 4969  31.526  40.730   9.208
  154POPC   GL2 4970  31.295  40.524   9.046
  154POPC   C1A 4971  31.618  40.790   8.763
  154POPC   D2A 4972  31.425  41.020   8.457
  154POPC   C3A 4973  31.534  41.003   8.072
  154POPC   C4A 4974  31.389  41.280   7.841
  154POPC   C1B 4975  31.141  40.636   8.654
  154POPC   C2B 4976  31.320  40.573   8.252
  154POPC   C3B 4977  31.365  40.625   7.773
  154POPC   C4B 4978  31.672  40.520   7.423
  155POPC   NC3 4979   3.402  10.017   9.426
  155POPC   PO4 4980   3.935   9.743   9.682
  155POPC   GL1 4981   3.789   9.742   9.226
  155POPC   GL2 4982   3.968  10.026   9.191
  155POPC   C1A 4983   3.499   9.764   8.816
  155POPC   D2A 4984   3.340   9.818   8.366
  155POPC   C3A 4985   3.617   9.607   8.058
  155POPC   C4A 4986   3.585   9.732   7.647
  155POPC   C1B 4987   3.849  10.137   8.783
  155POPC   C2B 4988   3.833   9.994   8.378
  155POPC   C3B 4989   3.637  10.115   8.026
  155POPC   C4B 4990   3.768  10.217   7.626
  156POPC   NC3 4991  42.434  15.754   9.561
  156POPC   PO4 4992  42.249  16.413   9.462
  156POPC   GL1 4993  42.275  16.049   9.164
  156POPC   GL2 4994  42.177  15.691   9.128
  156POPC   C1A 4995  42.439  16.082   8.754
  156POPC   D2A 4996  42.249  16.262   8.397
  156POPC   C3A 4997  42.419  16.125   8.053
  156POPC   C4A 4998  42.713  15.873   7.904
  156POPC   C1B 4999  42.020  15.813   8.757
  156POPC   C2B 5000  42.237  15.748   8.393
  156POPC   C3B 5001  42.210  15.668   7.981
  156POPC   C4B 5002  42.401  15.657   7.564
  157POPC   NC3 5003  17.834   4.172   9.566
  157POPC   PO4 5004  17.981   4.747   9.300
  157POPC   GL1 5005  17.697   4.451   9.128
  157POPC   GL2 5006  17.481   4.166   9.215
  157POPC   C1A 5007  17.817   4.179   8.802
  157POPC   D2A 5008  17.856   4.369   8.414
  157POPC   C3A 5009  17.630   4.202   8.100
  157POPC   C4A 5010  17.540   4.503   7.808
  157POPC   C1B 5011  17.311   4.145   8.790
  157POPC   C2B 5012  17.158   4.327   8.392
  157POPC   C3B 5013  17.112   4.210   7.960
  157POPC   C4B 5014  17.396   3.973   7.694
  158POPC   NC3 5015  34.950  42.579   9.418
  158POPC   PO4 5016  35.139  41.933   9.512
  158POPC   GL1 5017  35.398  42.187   9.182
  158POPC   GL2 5018  35.312  42.544   9.047
  158POPC   C1A 5019  35.566  42.193   8.750
  158POPC   D2A 5020  35.283  42.264   8.412
  158POPC   C3A 5021  35.416  42.390   8.030
  158POPC   C4A 5022  35.423  42.599   7.685
  158POPC   C1B 5023  35.110  42.857   8.731
  158POPC   C2B 5024  35.232  42.931   8.272
  158POPC   C3B 5025  35.033  42.884   7.850
  158POPC   C4B 5026  35.110  42.880   7.390
  159POPC   NC3 5027  12.709  20.071   9.489
  159POPC   PO4 5028  12.186  19.597   9.466
  159POPC   GL1 5029  12.257  19.886   9.155
  159POPC   GL2 5030  11.914  19.795   8.987
  159POPC   C1A 5031  12.292  20.012   8.738
  159POPC   D2A 5032  11.993  19.854   8.467
  159POPC   C3A 5033  12.103  19.998   8.081
  159POPC   C4A 5034  12.150  20.340   7.848
  159POPC   C1B 5035  11.716  19.462   8.715
  159POPC   C2B 5036  11.689  19.499   8.265
  159POPC   C3B 5037  12.000  19.519   7.973
  159POPC   C4B 5038  12.320  19.673   7.724
  160POPC   NC3 5039  31.803   7.048   9.506
  160POPC   PO4 5040  32.311   7.579   9.689
  160POPC   GL1 5041  32.410   7.509   9.222
  160POPC   GL2 5042  32.179   7.599   8.950
  160POPC   C1A 5043  32.646   7.527   8.819
  160POPC   D2A 5044  32.472   7.751   8.497
  160POPC   C3A 5045  32.324   7.478   8.126
  160POPC   C4A 5046  32.513   7.438   7.708
  160POPC   C1B 5047  32.227   7.326   8.614
  160POPC   C2B 5048  32.031   7.062   8.308
  160POPC   C3B 5049  31.871   7.234   7.965
  160POPC   C4B 5050  32.015   7.483   7.649
  161POPC   NC3 5051   4.063  20.225   9.515
  161POPC   PO4 5052   4.316  19.571   9.494
  161POPC   GL1 5053   4.147  19.815   9.208
  161POPC   GL2 5054   4.446  20.014   9.178
  161POPC   C1A 5055   4.087  19.865   8.792
  161POPC   D2A 5056   4.246  19.721   8.370
  161POPC   C3A 5057   4.000  19.675   7.980
  161POPC   C4A 5058   4.074  19.833   7.574
  161POPC   C1B 5059   4.585  20.004   8.747
  161POPC   C2B 5060   4.430  20.194   8.381
  161POPC   C3B 5061   4.275  20.113   7.974
  161POPC   C4B 5062   4.478  20.126   7.571
  162POPC   NC3 5063  26.348  24.203   9.404
  162POPC   PO4 5064  26.890  24.587   9.555
  162POPC   GL1 5065  26.862  24.704   9.132
  162POPC   GL2 5066  26.701  24.391   9.091
  162POPC   C1A 5067  26.811  24.662   8.671
  162POPC   D2A 5068  26.516  24.410   8.429
  162POPC   C3A 5069  26.623  24.266   8.049
  162POPC   C4A 5070  26.709  24.464   7.673
  162POPC   C1B 5071  26.847  24.162   8.774
  162POPC   C2B 5072  26.956  24.119   8.400
  162POPC   C3B 5073  27.082  24.446   8.176
  162POPC   C4B 5074  27.194  24.529   7.764
  163POPC   NC3 5075   9.832   9.010   9.659
  163POPC   PO4 5076   9.206   8.953   9.533
  163POPC   GL1 5077   9.562   8.910   9.220
  163POPC   GL2 5078   9.840   9.158   9.179
  163POPC   C1A 5079   9.688   8.853   8.793
  163POPC   D2A 5080   9.503   8.729   8.411
  163POPC   C3A 5081   9.777   8.837   8.094
  163POPC   C4A 5082   9.611   9.032   7.773
  163POPC   C1B 5083   9.636   9.374   8.829
  163POPC   C2B 5084   9.631   9.252   8.387
  163POPC   C3B 5085   9.531   9.480   8.003
  163POPC   C4B 5086   9.652   9.460   7.537
  164POPC   NC3 5087  14.291  10.983   9.394
  164POPC   PO4 5088  14.785  11.351   9.753
  164POPC   GL1 5089  14.697  11.292   9.276
  164POPC   GL2 5090  14.355  11.357   9.063
  164POPC   C1A 5091  14.695  11.013   8.891
  164POPC   D2A 5092  14.479  11.169   8.528
  164POPC   C3A 5093  14.731  11.266   8.166
  164POPC   C4A 5094  14.624  11.179   7.758
  164POPC   C1B 5095  14.012  11.187   8.779
  164POPC   C2B 5096  13.896  11.246   8.350
  164POPC   C3B 5097  14.176  11.296   7.989
  164POPC   C4B 5098  14.177  10.921   7.735
  165POPC   NC3 5099  21.039   0.479   9.416
  165POPC   PO4 5100  21.677   0.680   9.474
  165POPC   GL1 5101  21.485   0.357   9.179
  165POPC   GL2 5102  21.685   0.122   9.036
  165POPC   C1A 5103  21.310   0.292   8.739
  165POPC   D2A 5104  21.175   0.492   8.352
  165POPC   C3A 5105  21.211   0.202   8.040
  165POPC   C4A 5106  21.487   0.489   7.888
  165POPC   C1B 5107  21.805   0.181   8.635
  165POPC   C2B 5108  21.733   0.156   8.201
  165POPC   C3B 5109  21.835   0.181   7.746
  165POPC   C4B 5110  21.808   0.100   7.313
  166POPC   NC3 5111  41.367  15.497   9.410
  166POPC   PO4 5112  41.751  14.859   9.445
  166POPC   GL1 5113  41.576  15.086   9.132
  166POPC   GL2 5114  41.750  15.384   9.073
  166POPC   C1A 5115  41.318  15.207   8.798
  166POPC   D2A 5116  41.288  15.430   8.435
  166POPC   C3A 5117  41.382  15.192   8.108
  166POPC   C4A 5118  41.438  15.399   7.773
  166POPC   C1B 5119  41.799  15.358   8.666
  166POPC   C2B 5120  41.783  15.487   8.270
  166POPC   C3B 5121  41.909  15.257   7.929
  166POPC   C4B 5122  41.935  15.465   7.609
  167POPC   NC3 5123  23.288  12.096   9.422
  167POPC   PO4 5124  22.979  11.664   9.789
  167POPC   GL1 5125  22.932  11.751   9.275
  167POPC   GL2 5126  22.779  12.020   9.200
  167POPC   C1A 5127  23.078  11.863   8.819
  167POPC   D2A 5128  23.044  12.100   8.450
  167POPC   C3A 5129  23.016  11.861   8.087
  167POPC   C4A 5130  22.973  12.007   7.649
  167POPC   C1B 5131  22.662  12.214   8.802
  167POPC   C2B 5132  22.576  12.337   8.377
  167POPC   C3B 5133  22.748  12.343   7.972
  167POPC   C4B 5134  22.652  12.477   7.559
  168POPC   NC3 5135  37.320  43.734   9.513
  168POPC   PO4 5136  36.658  43.868   9.425
  168POPC   GL1 5137  36.905  44.023   9.027
  168POPC   GL2 5138  37.224  43.930   9.040
  168POPC   C1A 5139  36.947  44.053   8.566
  168POPC   D2A 5140  36.758  43.757   8.239
  168POPC   C3A 5141  36.844  43.949   7.837
  168POPC   C4A 5142  37.021  44.365   7.787
  168POPC   C1B 5143  37.435  43.893   8.679
  168POPC   C2B 5144  37.276  43.790   8.279
  168POPC   C3B 5145  37.340  43.882   7.876
  168POPC   C4B 5146  37.275  44.033   7.478
  169POPC   NC3 5147  42.641  32.840   9.474
  169POPC   PO4 5148  42.176  33.230   9.657
  169POPC   GL1 5149  42.348  33.099   9.164
  169POPC   GL2 5150  42.649  33.160   9.049
  169POPC   C1A 5151  42.146  33.043   8.722
  169POPC   D2A 5152  42.135  33.278   8.311
  169POPC   C3A 5153  42.068  33.073   7.926
  169POPC   C4A 5154  42.269  33.178   7.541
  169POPC   C1B 5155  42.549  33.348   8.667
  169POPC   C2B 5156  42.642  33.441   8.234
  169POPC   C3B 5157  42.569  33.137   7.946
  169POPC   C4B 5158  42.802  32.789   7.841
  170POPC   NC3 5159  29.188  21.016   9.525
  170POPC   PO4 5160  28.811  21.415   9.669
  170POPC   GL1 5161  28.933  21.343   9.219
  170POPC   GL2 5162  29.297  21.434   9.210
  170POPC   C1A 5163  28.919  21.330   8.771
  170POPC   D2A 5164  28.689  21.354   8.379
  170POPC   C3A 5165  28.777  21.087   8.012
  170POPC   C4A 5166  29.209  20.989   7.891
  170POPC   C1B 5167  29.453  21.625   8.810
  170POPC   C2B 5168  29.264  21.633   8.407
  170POPC   C3B 5169  29.109  21.519   7.995
  170POPC   C4B 5170  29.262  21.675   7.606
  171POPC   NC3 5171  25.700  44.303   9.533
  171POPC   PO4 5172  26.392  44.244   9.556
  171POPC   GL1 5173  26.203  44.019   9.184
  171POPC   GL2 5174  26.037  43.698   9.143
  171POPC   C1A 5175  26.098  44.043   8.735
  171POPC   D2A 5176  25.911  44.007   8.326
  171POPC   C3A 5177  26.091  44.160   7.928
  171POPC   C4A 5178  26.096  44.013   7.491
  171POPC   C1B 5179  25.873  43.547   8.713
  171POPC   C2B 5180  25.739  43.524   8.255
  171POPC   C3B 5181  25.934  43.643   7.857
  171POPC   C4B 5182  25.836  43.548   7.406
  172POPC   NC3 5183  18.789   0.653   9.650
  172POPC   PO4 5184  19.248   0.154   9.422
  172POPC   GL1 5185  18.875   0.327   9.129
  172POPC   GL2 5186  18.813   0.690   9.108
  172POPC   C1A 5187  18.884   0.413   8.640
  172POPC   D2A 5188  19.210   0.320   8.278
  172POPC   C3A 5189  19.030   0.214   7.860
  172POPC   C4A 5190  19.154   0.144   7.427
  172POPC   C1B 5191  19.054   0.869   8.757
  172POPC   C2B 5192  19.161   0.818   8.339
  172POPC   C3B 5193  19.030   0.708   7.958
  172POPC   C4B 5194  19.113   0.825   7.574
  173POPC   NC3 5195  13.188  15.048   9.391
  173POPC   PO4 5196  12.710  15.428   9.507
  173POPC   GL1 5197  12.783  15.306   9.093
  173POPC   GL2 5198  13.092  15.466   9.032
  173POPC   C1A 5199  12.593  15.121   8.716
  173POPC   D2A 5200  12.679  15.157   8.285
  173POPC   C3A 5201  12.777  15.152   7.847
  173POPC   C4A 5202  12.859  14.943   7.428
  173POPC   C1B 5203  12.938  15.478   8.603
  173POPC   C2B 5204  13.010  15.562   8.149
  173POPC   C3B 5205  13.138  15.553   7.706
  173POPC   C4B 5206  13.252  15.239   7.374
  174POPC   NC3 5207  28.772  21.785   9.407
  174POPC   PO4 5208  29.327  22.247   9.467
  174POPC   GL1 5209  29.027  22.213   9.164
  174POPC   GL2 5210  29.147  21.918   9.077
  174POPC   C1A 5211  28.938  22.363   8.776
  174POPC   D2A 5212  29.175  22.188   8.459
  174POPC   C3A 5213  29.223  22.487   8.182
  174POPC   C4A 5214  29.309  22.530   7.795
  174POPC   C1B 5215  28.903  21.840   8.725
  174POPC   C2B 5216  28.825  21.843   8.281
  174POPC   C3B 5217  29.080  22.057   7.965
  174POPC   C4B 5218  29.113  22.168   7.487
  175POPC   NC3 5219   8.436  10.834   9.356
  175POPC   PO4 5220   7.878  10.383   9.416
  175POPC   GL1 5221   7.992  10.663   9.144
  175POPC   GL2 5222   8.236  10.503   9.035
  175POPC   C1A 5223   8.073  10.807   8.680
  175POPC   D2A 5224   8.033  10.615   8.270
  175POPC   C3A 5225   8.364  10.448   7.959
  175POPC   C4A 5226   8.389  10.506   7.472
  175POPC   C1B 5227   7.974  10.297   8.762
  175POPC   C2B 5228   8.082  10.107   8.413
  175POPC   C3B 5229   7.942  10.173   8.033
  175POPC   C4B 5230   8.094  10.128   7.620
  176POPC   NC3 5231  37.783  38.397   9.549
  176POPC   PO4 5232  38.474  38.618   9.485
  176POPC   GL1 5233  38.176  38.438   9.198
  176POPC   GL2 5234  37.804  38.534   9.077
  176POPC   C1A 5235  38.158  38.420   8.759
  176POPC   D2A 5236  37.938  38.233   8.452
  176POPC   C3A 5237  37.847  38.412   8.061
  176POPC   C4A 5238  37.720  38.403   7.656
  176POPC   C1B 5239  37.544  38.332   8.776
  176POPC   C2B 5240  37.436  38.462   8.370
  176POPC   C3B 5241  37.329  38.345   7.969
  176POPC   C4B 5242  37.208  38.547   7.592
  177POPC   NC3 5243   9.931  10.003   9.598
  177POPC   PO4 5244  10.093   9.399   9.618
  177POPC   GL1 5245   9.923   9.657   9.234
  177POPC   GL2 5246   9.569   9.785   9.236
  177POPC   C1A 5247   9.868   9.857   8.828
  177POPC   D2A 5248   9.688   9.753   8.436
  177POPC   C3A 5249   9.921   9.818   8.076
  177POPC   C4A 5250   9.806   9.934   7.660
  177POPC   C1B 5251   9.352   9.856   8.814
  177POPC   C2B 5252   9.342  10.117   8.415
  177POPC   C3B 5253   9.426   9.991   8.014
  177POPC   C4B 5254   9.278   9.765   7.652
  178POPC   NC3 5255  37.409  31.827   9.383
  178POPC   PO4 5256  37.271  31.250   9.719
  178POPC   GL1 5257  37.190  31.347   9.277
  178POPC   GL2 5258  36.907  31.560   9.342
  178POPC   C1A 5259  37.100  31.584   8.867
  178POPC   D2A 5260  37.239  31.586   8.465
  178POPC   C3A 5261  37.010  31.467   8.116
  178POPC   C4A 5262  37.174  31.417   7.720
  178POPC   C1B 5263  36.615  31.555   8.991
  178POPC   C2B 5264  36.677  31.506   8.530
  178POPC   C3B 5265  36.506  31.425   8.110
  178POPC   C4B 5266  36.674  31.381   7.705
  179POPC   NC3 5267  36.327   7.141   9.642
  179POPC   PO4 5268  35.991   6.599   9.470
  179POPC   GL1 5269  36.174   6.554   9.077
  179POPC   GL2 5270  36.239   6.881   9.022
  179POPC   C1A 5271  36.112   6.548   8.639
  179POPC   D2A 5272  36.453   6.555   8.357
  179POPC   C3A 5273  36.330   6.537   7.925
  179POPC   C4A 5274  35.920   6.367   7.786
  179POPC   C1B 5275  35.823   6.957   8.778
  179POPC   C2B 5276  35.784   6.804   8.323
  179POPC   C3B 5277  35.921   6.863   7.896
  179POPC   C4B 5278  35.901   7.128   7.556
  180POPC   NC3 5279  27.367  34.525   9.570
  180POPC   PO4 5280  27.959  34.168   9.404
  180POPC   GL1 5281  27.751  34.281   8.990
  180POPC   GL2 5282  27.463  34.480   9.086
  180POPC   C1A 5283  27.716  34.596   8.654
  180POPC   D2A 5284  27.983  34.722   8.324
  180POPC   C3A 5285  28.043  34.409   8.027
  180POPC   C4A 5286  27.919  34.626   7.720
  180POPC   C1B 5287  27.213  34.622   8.750
  180POPC   C2B 5288  27.284  34.416   8.371
  180POPC   C3B 5289  27.528  34.529   8.031
  180POPC   C4B 5290  27.479  34.411   7.584
  181POPC   NC3 5291  35.638   4.684   9.404
  181POPC   PO4 5292  35.419   5.333   9.503
  181POPC   GL1 5293  35.412   5.106   9.131
  181POPC   GL2 5294  35.103   4.912   9.063
  181POPC   C1A 5295  35.262   5.237   8.721
  181POPC   D2A 5296  35.094   5.046   8.357
  181POPC   C3A 5297  35.225   5.243   8.002
  181POPC   C4A 5298  35.056   5.305   7.620
  181POPC   C1B 5299  35.393   4.722   8.780
  181POPC   C2B 5300  35.526   4.702   8.369
  181POPC   C3B 5301  35.343   4.760   7.973
  181POPC   C4B 5302  35.495   4.985   7.633
  182POPC   NC3 5303  21.187  25.405   9.444
  182POPC   PO4 5304  21.679  24.982   9.329
  182POPC   GL1 5305  21.556  25.255   9.084
  182POPC   GL2 5306  21.850  25.306   8.946
  182POPC   C1A 5307  21.343  25.185   8.707
  182POPC   D2A 5308  21.108  25.152   8.348
  182POPC   C3A 5309  21.350  25.092   7.978
  182POPC   C4A 5310  21.567  25.142   7.571
  182POPC   C1B 5311  21.666  25.582   8.673
  182POPC   C2B 5312  21.523  25.493   8.303
  182POPC   C3B 5313  21.595  25.563   7.893
  182POPC   C4B 5314  21.217  25.503   7.661
  183POPC   NC3 5315   7.632  15.637   9.372
  183POPC   PO4 5316   7.238  15.033   9.421
  183POPC   GL1 5317   7.406  14.975   9.046
  183POPC   GL2 5318   7.543  15.303   8.998
  183POPC   C1A 5319   7.351  15.018   8.616
  183POPC   D2A 5320   7.536  15.075   8.259
  183POPC   C3A 5321   7.308  14.937   7.942
  183POPC   C4A 5322   7.506  15.173   7.623
  183POPC   C1B 5323   7.211  15.474   8.753
  183POPC   C2B 5324   7.347  15.554   8.365
  183POPC   C3B 5325   7.235  15.428   7.985
  183POPC   C4B 5326   7.187  15.562   7.575
  184POPC   NC3 5327  18.252   5.780   9.292
  184POPC   PO4 5328  18.201   5.260   9.778
  184POPC   GL1 5329  18.133   5.262   9.300
  184POPC   GL2 5330  18.408   5.079   9.140
  184POPC   C1A 5331  18.084   5.359   8.822
  184POPC   D2A 5332  18.251   5.472   8.406
  184POPC   C3A 5333  18.141   5.164   8.083
  184POPC   C4A 5334  18.051   5.125   7.635
  184POPC   C1B 5335  18.510   5.066   8.712
  184POPC   C2B 5336  18.671   4.967   8.331
  184POPC   C3B 5337  18.538   4.880   7.917
  184POPC   C4B 5338  18.578   5.127   7.571
  185POPC   NC3 5339  43.382  25.594   9.168
  185POPC   PO4 5340  43.906  25.343   9.575
  185POPC   GL1 5341  43.863  25.291   9.177
  185POPC   GL2 5342  44.169  25.437   9.120
  185POPC   C1A 5343  43.897  25.170   8.769
  185POPC   D2A 5344  43.690  25.269   8.433
  185POPC   C3A 5345  43.864  24.989   8.152
  185POPC   C4A 5346  43.878  24.989   7.743
  185POPC   C1B 5347  44.379  25.489   8.743
  185POPC   C2B 5348  44.212  25.363   8.360
  185POPC   C3B 5349  44.034  25.444   7.943
  185POPC   C4B 5350  44.028  25.401   7.477
  186POPC   NC3 5351  12.289  31.858   9.364
  186POPC   PO4 5352  12.807  31.338   9.499
  186POPC   GL1 5353  12.479  31.442   9.141
  186POPC   GL2 5354  12.274  31.183   8.962
  186POPC   C1A 5355  12.296  31.634   8.744
  186POPC   D2A 5356  12.286  31.347   8.420
  186POPC   C3A 5357  12.231  31.525   8.010
  186POPC   C4A 5358  12.153  31.789   7.669
  186POPC   C1B 5359  11.887  31.324   8.765
  186POPC   C2B 5360  11.741  31.199   8.389
  186POPC   C3B 5361  11.822  31.044   8.014
  186POPC   C4B 5362  11.940  31.248   7.629
  187POPC   NC3 5363  18.119   7.563   9.479
  187POPC   PO4 5364  18.523   7.076   9.515
  187POPC   GL1 5365  18.393   7.273   9.138
  187POPC   GL2 5366  18.616   7.501   9.105
  187POPC   C1A 5367  18.099   7.416   8.790
  187POPC   D2A 5368  17.980   7.164   8.413
  187POPC   C3A 5369  18.151   7.240   8.016
  187POPC   C4A 5370  18.182   7.630   7.790
  187POPC   C1B 5371  18.579   7.525   8.692
  187POPC   C2B 5372  18.390   7.577   8.310
  187POPC   C3B 5373  18.632   7.432   7.940
  187POPC   C4B 5374  18.623   7.496   7.479
  188POPC   NC3 5375  32.864  14.237   9.517
  188POPC   PO4 5376  33.403  14.608   9.379
  188POPC   GL1 5377  33.141  14.380   9.112
  188POPC   GL2 5378  32.804  14.479   9.088
  188POPC   C1A 5379  33.177  14.097   8.774
  188POPC   D2A 5380  33.258  14.218   8.345
  188POPC   C3A 5381  33.036  14.357   7.984
  188POPC   C4A 5382  33.229  14.697   7.796
  188POPC   C1B 5383  32.687  14.236   8.735
  188POPC   C2B 5384  32.679  14.465   8.362
  188POPC   C3B 5385  32.511  14.389   7.994
  188POPC   C4B 5386  32.597  14.235   7.636
  189POPC   NC3 5387  26.141   7.839   9.516
  189POPC   PO4 5388  25.989   7.130   9.574
  189POPC   GL1 5389  25.952   7.275   9.138
  189POPC   GL2 5390  26.150   7.539   9.103
  189POPC   C1A 5391  25.842   7.458   8.714
  189POPC   D2A 5392  25.589   7.215   8.421
  189POPC   C3A 5393  25.780   7.105   8.010
  189POPC   C4A 5394  25.878   7.304   7.596
  189POPC   C1B 5395  26.350   7.690   8.737
  189POPC   C2B 5396  26.175   7.706   8.366
  189POPC   C3B 5397  26.068   7.559   8.000
  189POPC   C4B 5398  26.274   7.630   7.608
  190POPC   NC3 5399  13.500  33.561   9.618
  190POPC   PO4 5400  14.107  33.498   9.311
  190POPC   GL1 5401  13.731  33.601   9.114
  190POPC   GL2 5402  13.408  33.805   9.193
  190POPC   C1A 5403  13.886  33.759   8.718
  190POPC   D2A 5404  13.822  34.142   8.476
  190POPC   C3A 5405  13.728  34.052   8.045
  190POPC   C4A 5406  13.856  33.703   7.823
  190POPC   C1B 5407  13.407  33.862   8.774
  190POPC   C2B 5408  13.491  33.685   8.367
  190POPC   C3B 5409  13.340  33.737   7.944
  190POPC   C4B 5410  13.442  33.964   7.553
  191POPC   NC3 5411  20.185  23.923   9.349
  191POPC   PO4 5412  19.722  23.478   9.588
  191POPC   GL1 5413  19.685  23.531   9.184
  191POPC   GL2 5414  20.000  23.471   9.104
  191POPC   C1A 5415  19.600  23.795   8.824
  191POPC   D2A 5416  19.836  23.966   8.465
  191POPC   C3A 5417  19.709  23.807   8.054
  191POPC   C4A 5418  19.548  23.954   7.655
  191POPC   C1B 5419  20.070  23.516   8.674
  191POPC   C2B 5420  20.272  23.282   8.348
  191POPC   C3B 5421  20.115  23.359   7.928
  191POPC   C4B 5422  19.756  23.433   7.698
  192POPC   NC3 5423  10.483  13.852   9.535
  192POPC   PO4 5424  10.633  13.223   9.578
  192POPC   GL1 5425  10.590  13.475   9.177
  192POPC   GL2 5426  10.940  13.407   9.122
  192POPC   C1A 5427  10.392  13.673   8.772
  192POPC   D2A 5428  10.375  13.946   8.375
  192POPC   C3A 5429  10.481  13.697   7.997
  192POPC   C4A 5430  10.585  13.321   7.745
  192POPC   C1B 5431  10.747  13.299   8.703
  192POPC   C2B 5432  10.580  13.241   8.294
  192POPC   C3B 5433  10.159  13.355   8.178
  192POPC   C4B 5434  10.057  13.399   7.790
  193POPC   NC3 5435  15.990  29.031   9.397
  193POPC   PO4 5436  15.721  29.632   9.278
  193POPC   GL1 5437  15.727  29.236   9.005
  193POPC   GL2 5438  15.570  28.882   9.141
  193POPC   C1A 5439  16.090  29.153   8.721
  193POPC   D2A 5440  16.278  29.302   8.339
  193POPC   C3A 5441  15.934  29.318   8.098
  193POPC   C4A 5442  15.841  29.139   7.753
  193POPC   C1B 5443  15.712  28.748   8.733
  193POPC   C2B 5444  15.836  28.826   8.293
  193POPC   C3B 5445  16.190  28.859   8.043
  193POPC   C4B 5446  16.285  28.709   7.656
  194POPC   NC3 5447  37.280  31.669   9.899
  194POPC   PO4 5448  37.743  31.393   9.490
  194POPC   GL1 5449  37.694  31.498   9.144
  194POPC   GL2 5450  37.861  31.861   9.131
  194POPC   C1A 5451  37.492  31.261   8.850
  194POPC   D2A 5452  37.631  31.058   8.522
  194POPC   C3A 5453  37.438  31.188   8.161
  194POPC   C4A 5454  37.657  31.255   7.780
  194POPC   C1B 5455  37.655  31.758   8.731
  194POPC   C2B 5456  37.741  31.567   8.355
  194POPC   C3B 5457  37.503  31.675   8.018
  194POPC   C4B 5458  37.167  31.904   7.869
  195POPC   NC3 5459  14.181  37.427   9.344
  195POPC   PO4 5460  14.676  37.900   9.428
  195POPC   GL1 5461  14.576  37.647   9.083
  195POPC   GL2 5462  14.303  37.849   9.044
  195POPC   C1A 5463  14.568  37.509   8.658
  195POPC   D2A 5464  14.580  37.794   8.279
  195POPC   C3A 5465  14.532  37.646   7.846
  195POPC   C4A 5466  14.404  37.534   7.407
  195POPC   C1B 5467  14.180  37.876   8.631
  195POPC   C2B 5468  13.997  38.096   8.313
  195POPC   C3B 5469  14.090  37.856   7.983
  195POPC   C4B 5470  14.042  37.836   7.570
  196POPC   NC3 5471  19.571  16.052   9.667
  196POPC   PO4 5472  20.177  15.858   9.699
  196POPC   GL1 5473  19.934  15.975   9.304
  196POPC   GL2 5474  19.624  15.762   9.226
  196POPC   C1A 5475  19.946  15.945   8.851
  196POPC   D2A 5476  20.012  16.164   8.465
  196POPC   C3A 5477  19.987  15.909   8.084
  196POPC   C4A 5478  19.915  16.085   7.684
  196POPC   C1B 5479  19.448  15.856   8.784
  196POPC   C2B 5480  19.537  16.017   8.363
  196POPC   C3B 5481  19.489  15.944   7.927
  196POPC   C4B 5482  19.498  16.001   7.411
  197POPC   NC3 5483  38.131  14.445   9.495
  197POPC   PO4 5484  38.633  14.053   9.552
  197POPC   GL1 5485  38.597  14.345   9.167
  197POPC   GL2 5486  38.552  14.701   9.126
  197POPC   C1A 5487  38.484  14.431   8.707
  197POPC   D2A 5488  38.649  14.391   8.277
  197POPC   C3A 5489  38.332  14.383   7.966
  197POPC   C4A 5490  38.245  14.027   7.679
  197POPC   C1B 5491  38.651  14.935   8.749
  197POPC   C2B 5492  38.793  14.867   8.314
  197POPC   C3B 5493  38.688  14.760   7.881
  197POPC   C4B 5494  38.814  14.618   7.454
  198POPC   NC3 5495  24.207  12.484   9.493
  198POPC   PO4 5496  24.350  11.787   9.502
  198POPC   GL1 5497  24.356  11.883   9.114
  198POPC   GL2 5498  24.148  12.148   9.140
  198POPC   C1A 5499  24.519  12.114   8.778
  198POPC   D2A 5500  24.715  12.014   8.412
  198POPC   C3A 5501  24.482  11.975   8.035
  198POPC   C4A 5502  24.598  12.220   7.694
  198POPC   C1B 5503  24.054  12.403   8.791
  198POPC   C2B 5504  24.220  12.284   8.380
  198POPC   C3B 5505  24.125  12.331   7.954
  198POPC   C4B 5506  24.197  12.558   7.583
  199POPC   NC3 5507  32.448  33.120   9.631
  199POPC   PO4 5508  32.064  32.653   9.611
  199POPC   GL1 5509  32.079  32.859   9.186
  199POPC   GL2 5510  32.271  33.175   9.142
  199POPC   C1A 5511  32.001  32.959   8.730
  199POPC   D2A 5512  32.165  33.116   8.328
  199POPC   C3A 5513  32.204  32.815   7.997
  199POPC   C4A 5514  32.087  32.787   7.579
  199POPC   C1B 5515  32.380  33.338   8.729
  199POPC   C2B 5516  32.640  33.316   8.344
  199POPC   C3B 5517  32.459  33.250   7.920
  199POPC   C4B 5518  31.977  33.229   7.841
  200POPC   NC3 5519  17.037  24.957   9.395
  200POPC   PO4 5520  17.544  25.336   9.512
  200POPC   GL1 5521  17.598  25.375   9.114
  200POPC   GL2 5522  17.604  25.734   9.127
  200POPC   C1A 5523  17.339  25.315   8.769
  200POPC   D2A 5524  17.481  25.239   8.340
  200POPC   C3A 5525  17.368  25.157   7.923
  200POPC   C4A 5526  17.287  25.386   7.526
  200POPC   C1B 5527  17.697  25.658   8.692
  200POPC   C2B 5528  17.883  25.543   8.285
  200POPC   C3B 5529  17.631  25.669   7.918
  200POPC   C4B 5530  17.773  25.751   7.482
  201POPC   NC3 5531  24.811   4.872   9.728
  201POPC   PO4 5532  24.246   5.242   9.477
  201POPC   GL1 5533  24.350   5.032   9.132
  201POPC   GL2 5534  24.621   5.291   9.083
  201POPC   C1A 5535  24.445   4.921   8.707
  201POPC   D2A 5536  24.489   5.086   8.296
  201POPC   C3A 5537  24.517   4.835   7.947
  201POPC   C4A 5538  24.296   5.038   7.605
  201POPC   C1B 5539  24.679   5.407   8.666
  201POPC   C2B 5540  24.911   5.403   8.277
  201POPC   C3B 5541  24.769   5.278   7.878
  201POPC   C4B 5542  24.534   5.504   7.572
  202POPC   NC3 5543  32.110  22.435   9.694
  202POPC   PO4 5544  32.366  21.836   9.631
  202POPC   GL1 5545  32.317  22.044   9.192
  202POPC   GL2 5546  32.074  22.306   9.183
  202POPC   C1A 5547  32.168  21.988   8.708
  202POPC   D2A 5548  32.282  22.007   8.263
  202POPC   C3A 5549  32.063  22.070   7.863
  202POPC   C4A 5550  32.271  22.187   7.474
  202POPC   C1B 5551  32.315  22.458   8.813
  202POPC   C2B 5552  32.098  22.527   8.459
  202POPC   C3B 5553  32.224  22.514   8.055
  202POPC   C4B 5554  32.271  22.691   7.677
  203POPC   NC3 5555  44.807   0.015   9.505
  203POPC   PO4 5556  44.534  44.387   9.524
  203POPC   GL1 5557  44.703  44.556   9.139
  203POPC   GL2 5558  44.964  44.351   9.173
  203POPC   C1A 5559  44.626  44.765   8.725
  203POPC   D2A 5560  44.379   0.033   8.406
  203POPC   C3A 5561  44.555   0.045   7.984
  203POPC   C4A 5562  44.709  44.868   7.589
  203POPC   C1B 5563  44.939  44.266   8.754
  203POPC   C2B 5564  44.840  44.418   8.356
  203POPC   C3B 5565  44.808  44.559   7.961
  203POPC   C4B 5566  44.918  44.405   7.528
  204POPC   NC3 5567  38.514   0.859   9.457
  204POPC   PO4 5568  38.625   1.433   9.372
  204POPC   GL1 5569  38.284   1.304   9.069
  204POPC   GL2 5570  38.143   0.957   9.123
  204POPC   C1A 5571  38.309   1.424   8.619
  204POPC   D2A 5572  38.574   1.592   8.238
  204POPC   C3A 5573  38.356   1.450   7.859
  204POPC   C4A 5574  38.565   1.174   7.547
  204POPC   C1B 5575  38.316   0.888   8.737
  204POPC   C2B 5576  38.618   0.790   8.416
  204POPC   C3B 5577  38.543   1.002   8.037
  204POPC   C4B 5578  38.142   1.003   7.779
  205POPC   NC3 5579  23.977  19.240   9.564
  205POPC   PO4 5580  23.355  19.196   9.486
  205POPC   GL1 5581  23.710  18.970   9.217
  205POPC   GL2 5582  24.056  19.153   9.083
  205POPC   C1A 5583  23.704  18.981   8.770
  205POPC   D2A 5584  23.477  18.888   8.419
  205POPC   C3A 5585  23.666  18.716   8.068
  205POPC   C4A 5586  23.582  18.835   7.688
  205POPC   C1B 5587  24.085  19.359   8.691
  205POPC   C2B 5588  23.827  19.306   8.318
  205POPC   C3B 5589  23.901  19.180   7.907
  205POPC   C4B 5590  24.111  18.855   7.736
  206POPC   NC3 5591  24.321  17.652   9.455
  206POPC   PO4 5592  24.864  17.148   9.512
  206POPC   GL1 5593  24.665  17.357   9.181
  206POPC   GL2 5594  24.316  17.221   9.198
  206POPC   C1A 5595  24.595  17.620   8.807
  206POPC   D2A 5596  24.729  17.435   8.405
  206POPC   C3A 5597  24.689  17.636   8.024
  206POPC   C4A 5598  24.885  17.571   7.625
  206POPC   C1B 5599  24.379  17.155   8.791
  206POPC   C2B 5600  24.224  17.396   8.475
  206POPC   C3B 5601  24.310  17.311   8.059
  206POPC   C4B 5602  24.275  17.609   7.738
  207POPC   NC3 5603  23.977  38.978   9.481
  207POPC   PO4 5604  23.353  39.295   9.457
  207POPC   GL1 5605  23.668  39.254   9.166
  207POPC   GL2 5606  23.862  39.544   9.244
  207POPC   C1A 5607  23.727  39.037   8.771
  207POPC   D2A 5608  23.493  39.115   8.384
  207POPC   C3A 5609  23.661  39.103   7.970
  207POPC   C4A 5610  23.344  39.059   7.638
  207POPC   C1B 5611  23.994  39.475   8.816
  207POPC   C2B 5612  23.976  39.304   8.390
  207POPC   C3B 5613  24.073  39.424   7.953
  207POPC   C4B 5614  24.023  39.421   7.504
  208POPC   NC3 5615  28.482  28.115   9.868
  208POPC   PO4 5616  28.268  28.627   9.522
  208POPC   GL1 5617  28.300  28.341   9.173
  208POPC   GL2 5618  28.001  28.271   8.978
  208POPC   C1A 5619  28.458  28.141   8.791
  208POPC   D2A 5620  28.456  27.984   8.358
  208POPC   C3A 5621  28.322  28.234   8.005
  208POPC   C4A 5622  28.357  28.079   7.613
  208POPC   C1B 5623  28.018  28.208   8.520
  208POPC   C2B 5624  28.026  28.558   8.286
  208POPC   C3B 5625  27.995  28.643   7.907
  208POPC   C4B 5626  28.155  28.533   7.530
  209POPC   NC3 5627  44.452  21.594   9.561
  209POPC   PO4 5628  44.746  21.024   9.596
  209POPC   GL1 5629  44.786  21.322   9.233
  209POPC   GL2 5630  44.462  21.221   9.039
  209POPC   C1A 5631  44.909  21.260   8.797
  209POPC   D2A 5632  44.916  21.080   8.374
  209POPC   C3A 5633  44.677  21.321   8.081
  209POPC   C4A 5634  44.696  21.494   7.668
  209POPC   C1B 5635  44.448  21.260   8.557
  209POPC   C2B 5636  44.255  21.566   8.254
  209POPC   C3B 5637  44.396  21.829   7.908
  209POPC   C4B 5638  44.357  21.772   7.440
  210POPC   NC3 5639  42.792  16.472   9.409
  210POPC   PO4 5640  43.342  16.685   9.786
  210POPC   GL1 5641  43.332  16.571   9.287
  210POPC   GL2 5642  43.426  16.891   9.119
  210POPC   C1A 5643  43.234  16.562   8.788
  210POPC   D2A 5644  43.067  16.693   8.369
  210POPC   C3A 5645  43.230  16.536   7.970
  210POPC   C4A 5646  43.064  16.195   7.739
  210POPC   C1B 5647  43.366  17.057   8.664
  210POPC   C2B 5648  43.171  17.155   8.216
  210POPC   C3B 5649  43.183  17.031   7.774
  210POPC   C4B 5650  43.408  16.860   7.402
  211POPC   NC3 5651  10.188  13.252   9.414
  211POPC   PO4 5652   9.736  12.783   9.552
  211POPC   GL1 5653   9.628  12.908   9.136
  211POPC   GL2 5654   9.470  12.598   9.084
  211POPC   C1A 5655   9.662  12.872   8.682
  211POPC   D2A 5656   9.721  13.127   8.336
  211POPC   C3A 5657   9.509  13.035   7.966
  211POPC   C4A 5658   9.816  12.969   7.705
  211POPC   C1B 5659   9.907  12.508   8.946
  211POPC   C2B 5660   9.885  12.434   8.499
  211POPC   C3B 5661   9.884  12.619   8.095
  211POPC   C4B 5662   9.801  12.457   7.694
  212POPC   NC3 5663  23.574  16.988   9.504
  212POPC   PO4 5664  24.127  16.517   9.490
  212POPC   GL1 5665  23.763  16.553   9.176
  212POPC   GL2 5666  23.486  16.808   9.047
  212POPC   C1A 5667  23.609  16.436   8.757
  212POPC   D2A 5668  23.498  16.706   8.415
  212POPC   C3A 5669  23.775  16.654   8.087
  212POPC   C4A 5670  23.702  16.733   7.664
  212POPC   C1B 5671  23.348  17.115   8.726
  212POPC   C2B 5672  23.224  17.242   8.320
  212POPC   C3B 5673  23.316  16.992   7.973
  212POPC   C4B 5674  23.514  17.227   7.664
  213POPC   NC3 5675  37.426  21.967   9.494
  213POPC   PO4 5676  38.007  22.121   9.135
  213POPC   GL1 5677  37.629  22.039   8.925
  213POPC   GL2 5678  37.340  22.184   9.047
  213POPC   C1A 5679  37.585  22.071   8.492
  213POPC   D2A 5680  37.695  22.420   8.247
  213POPC   C3A 5681  37.683  22.149   7.943
  213POPC   C4A 5682  37.866  21.991   7.607
  213POPC   C1B 5683  37.400  22.468   8.711
  213POPC   C2B 5684  37.200  22.509   8.326
  213POPC   C3B 5685  37.262  22.515   7.864
  213POPC   C4B 5686  37.425  22.275   7.530
  214POPC   NC3 5687   6.640  25.125   9.517
  214POPC   PO4 5688   6.676  25.781   9.498
  214POPC   GL1 5689   6.709  25.475   9.150
  214POPC   GL2 5690   6.525  25.131   9.037
  214POPC   C1A 5691   6.880  25.399   8.761
  214POPC   D2A 5692   6.763  25.087   8.525
  214POPC   C3A 5693   6.661  25.171   8.164
  214POPC   C4A 5694   6.734  25.115   7.791
  214POPC   C1B 5695   6.356  25.338   8.721
  214POPC   C2B 5696   6.212  25.360   8.319
  214POPC   C3B 5697   6.323  25.433   7.870
  214POPC   C4B 5698   6.426  25.626   7.471
  215POPC   NC3 5699  25.389  42.723   9.890
  215POPC   PO4 5700  25.373  42.187   9.503
  215POPC   GL1 5701  25.208  42.397   9.180
  215POPC   GL2 5702  24.920  42.194   9.056
  215POPC   C1A 5703  25.358  42.210   8.798
  215POPC   D2A 5704  25.206  42.245   8.414
  215POPC   C3A 5705  25.477  42.174   8.116
  215POPC   C4A 5706  25.444  42.333   7.760
  215POPC   C1B 5707  24.934  42.573   8.759
  215POPC   C2B 5708  25.016  42.755   8.353
  215POPC   C3B 5709  24.996  42.500   7.964
  215POPC   C4B 5710  25.045  42.486   7.497
  216POPC   NC3 5711  12.168  20.887   9.677
  216POPC   PO4 5712  12.590  20.482   9.696
  216POPC   GL1 5713  12.211  20.501   9.337
  216POPC   GL2 5714  11.977  20.809   9.216
  216POPC   C1A 5715  12.110  20.463   8.881
  216POPC   D2A 5716  12.098  20.395   8.418
  216POPC   C3A 5717  12.204  20.756   8.155
  216POPC   C4A 5718  12.049  20.817   7.719
  216POPC   C1B 5719  11.780  20.875   8.829
  216POPC   C2B 5720  11.855  21.125   8.466
  216POPC   C3B 5721  11.910  21.182   8.037
  216POPC   C4B 5722  11.627  21.084   7.724
  217POPC   NC3 5723  17.611   4.958   9.488
  217POPC   PO4 5724  17.521   5.519   9.347
  217POPC   GL1 5725  17.651   5.206   9.039
  217POPC   GL2 5726  17.358   5.019   9.040
  217POPC   C1A 5727  17.785   4.923   8.686
  217POPC   D2A 5728  17.715   4.822   8.242
  217POPC   C3A 5729  17.552   5.024   7.883
  217POPC   C4A 5730  17.568   5.211   7.472
  217POPC   C1B 5731  17.315   5.124   8.600
  217POPC   C2B 5732  17.130   4.851   8.282
  217POPC   C3B 5733  17.092   4.732   7.843
  217POPC   C4B 5734  17.327   4.794   7.439
  218POPC   NC3 5735   5.587   6.688   9.556
  218POPC   PO4 5736   5.853   6.180   9.211
  218POPC   GL1 5737   5.708   6.559   9.078
  218POPC   GL2 5738   6.045   6.678   9.189
  218POPC   C1A 5739   5.551   6.644   8.665
  218POPC   D2A 5740   5.865   6.457   8.443
  218POPC   C3A 5741   5.983   6.502   8.043
  218POPC   C4A 5742   5.693   6.392   7.771
  218POPC   C1B 5743   6.046   6.807   8.782
  218POPC   C2B 5744   5.957   6.967   8.366
  218POPC   C3B 5745   6.101   6.985   7.935
  218POPC   C4B 5746   5.979   6.791   7.568
  219POPC   NC3 5747  44.200  19.979   9.377
  219POPC   PO4 5748  44.870  20.048   9.477
  219POPC   GL1 5749  44.676  19.785   9.123
  219POPC   GL2 5750  44.928  19.473   9.117
  219POPC   C1A 5751  44.615  19.947   8.705
  219POPC   D2A 5752  44.411  20.323   8.534
  219POPC   C3A 5753  44.452  20.312   8.074
  219POPC   C4A 5754  44.614  19.999   7.776
  219POPC   C1B 5755  44.743  19.437   8.745
  219POPC   C2B 5756  44.555  19.524   8.355
  219POPC   C3B 5757  44.420  19.558   7.929
  219POPC   C4B 5758  44.748  19.540   7.590
  220POPC   NC3 5759  38.690  32.838   9.430
  220POPC   PO4 5760  38.295  33.362   9.519
  220POPC   GL1 5761  38.467  33.175   9.133
  220POPC   GL2 5762  38.294  32.865   9.048
  220POPC   C1A 5763  38.621  33.085   8.707
  220POPC   D2A 5764  38.291  33.005   8.395
  220POPC   C3A 5765  38.172  33.317   8.055
  220POPC   C4A 5766  38.565  33.322   7.846
  220POPC   C1B 5767  38.589  32.598   8.826
  220POPC   C2B 5768  38.667  32.591   8.402
  220POPC   C3B 5769  38.666  32.863   8.055
  220POPC   C4B 5770  38.294  32.881   7.836
  221POPC   NC3 5771   7.968  39.860   9.545
  221POPC   PO4 5772   7.420  40.240   9.426
  221POPC   GL1 5773   7.317  40.038   9.085
  221POPC   GL2 5774   7.645  39.971   9.076
  221POPC   C1A 5775   7.181  40.078   8.706
  221POPC   D2A 5776   7.220  39.845   8.365
  221POPC   C3A 5777   7.342  40.146   8.115
  221POPC   C4A 5778   7.386  40.041   7.758
  221POPC   C1B 5779   7.587  39.750   8.734
  221POPC   C2B 5780   7.827  39.645   8.416
  221POPC   C3B 5781   7.743  39.812   8.056
  221POPC   C4B 5782   7.734  39.676   7.658
  222POPC   NC3 5783  15.226  11.736   9.475
  222POPC   PO4 5784  14.698  12.225   9.488
  222POPC   GL1 5785  14.867  12.237   9.129
  222POPC   GL2 5786  14.727  12.514   9.034
  222POPC   C1A 5787  14.985  11.952   8.800
  222POPC   D2A 5788  15.225  11.715   8.499
  222POPC   C3A 5789  15.228  11.784   8.084
  222POPC   C4A 5790  15.070  11.809   7.733
  222POPC   C1B 5791  14.998  12.466   8.689
  222POPC   C2B 5792  15.030  12.190   8.348
  222POPC   C3B 5793  15.127  12.313   7.947
  222POPC   C4B 5794  14.982  12.467   7.557
  223POPC   NC3 5795   1.027  31.228   9.430
  223POPC   PO4 5796   1.340  31.782   9.613
  223POPC   GL1 5797   1.273  31.641   9.203
  223POPC   GL2 5798   0.959  31.755   9.178
  223POPC   C1A 5799   1.289  31.348   8.837
  223POPC   D2A 5800   1.196  31.325   8.402
  223POPC   C3A 5801   1.462  31.151   8.099
  223POPC   C4A 5802   1.180  31.061   7.777
  223POPC   C1B 5803   1.052  31.802   8.727
  223POPC   C2B 5804   0.850  31.694   8.319
  223POPC   C3B 5805   0.922  31.483   7.943
  223POPC   C4B 5806   1.134  31.665   7.653
  224POPC   NC3 5807   9.989   3.299   9.547
  224POPC   PO4 5808   9.424   3.220   9.160
  224POPC   GL1 5809   9.753   3.513   9.121
  224POPC   GL2 5810   9.963   3.279   9.037
  224POPC   C1A 5811   9.821   3.778   8.763
  224POPC   D2A 5812   9.519   3.841   8.408
  224POPC   C3A 5813   9.710   3.871   8.010
  224POPC   C4A 5814  10.034   3.682   7.781
  224POPC   C1B 5815   9.845   3.257   8.602
  224POPC   C2B 5816   9.870   3.370   8.157
  224POPC   C3B 5817   9.690   3.299   7.722
  224POPC   C4B 5818   9.617   3.349   7.245
  225POPC   NC3 5819  35.846   8.766   9.361
  225POPC   PO4 5820  36.382   8.492   9.629
  225POPC   GL1 5821  36.334   8.834   9.231
  225POPC   GL2 5822  36.434   9.186   9.224
  225POPC   C1A 5823  36.155   8.995   8.796
  225POPC   D2A 5824  36.045   9.249   8.395
  225POPC   C3A 5825  36.062   8.994   7.981
  225POPC   C4A 5826  36.128   9.052   7.528
  225POPC   C1B 5827  36.673   9.033   8.830
  225POPC   C2B 5828  36.509   9.034   8.373
  225POPC   C3B 5829  36.579   9.120   7.863
  225POPC   C4B 5830  36.623   9.071   7.372
  226POPC   NC3 5831   3.211  34.945   9.661
  226POPC   PO4 5832   3.656  34.384   9.464
  226POPC   GL1 5833   3.579  34.446   9.067
  226POPC   GL2 5834   3.219  34.362   9.094
  226POPC   C1A 5835   3.789  34.443   8.645
  226POPC   D2A 5836   3.823  34.587   8.207
  226POPC   C3A 5837   3.824  34.303   7.861
  226POPC   C4A 5838   3.584  34.259   7.459
  226POPC   C1B 5839   3.264  34.590   8.697
  226POPC   C2B 5840   3.291  34.524   8.265
  226POPC   C3B 5841   3.382  34.551   7.853
  226POPC   C4B 5842   3.618  34.871   7.697
  227POPC   NC3 5843  23.389   9.605   9.537
  227POPC   PO4 5844  23.988   9.766   9.348
  227POPC   GL1 5845  23.709   9.641   9.128
  227POPC   GL2 5846  23.697   9.949   8.953
  227POPC   C1A 5847  23.662   9.486   8.746
  227POPC   D2A 5848  23.661   9.756   8.395
  227POPC   C3A 5849  23.721   9.646   7.971
  227POPC   C4A 5850  23.555   9.511   7.588
  227POPC   C1B 5851  23.465  10.174   8.637
  227POPC   C2B 5852  23.322  10.089   8.235
  227POPC   C3B 5853  23.550  10.176   7.856
  227POPC   C4B 5854  23.717   9.975   7.501
  228POPC   NC3 5855   9.922  16.026   9.567
  228POPC   PO4 5856   9.220  15.953   9.638
  228POPC   GL1 5857   9.520  15.998   9.243
  228POPC   GL2 5858   9.819  15.777   9.143
  228POPC   C1A 5859   9.561  15.991   8.762
  228POPC   D2A 5860   9.457  15.731   8.374
  228POPC   C3A 5861   9.625  15.849   8.029
  228POPC   C4A 5862   9.828  16.130   7.769
  228POPC   C1B 5863  10.073  15.966   8.798
  228POPC   C2B 5864   9.982  16.011   8.360
  228POPC   C3B 5865  10.172  15.832   7.984
  228POPC   C4B 5866  10.330  16.100   7.627
  229POPC   NC3 5867  20.237  41.560   9.519
  229POPC   PO4 5868  19.749  41.231   9.506
  229POPC   GL1 5869  19.835  41.323   9.087
  229POPC   GL2 5870  20.144  41.201   9.037
  229POPC   C1A 5871  19.748  41.479   8.623
  229POPC   D2A 5872  19.534  41.406   8.210
  229POPC   C3A 5873  19.576  41.540   7.768
  229POPC   C4A 5874  19.545  41.880   7.456
  229POPC   C1B 5875  20.142  41.660   8.872
  229POPC   C2B 5876  20.232  41.743   8.421
  229POPC   C3B 5877  20.169  41.871   7.976
  229POPC   C4B 5878  20.040  41.654   7.603
  230POPC   NC3 5879  21.195  37.990   9.288
  230POPC   PO4 5880  21.554  38.398   9.673
  230POPC   GL1 5881  21.415  38.482   9.220
  230POPC   GL2 5882  21.085  38.481   9.018
  230POPC   C1A 5883  21.519  38.520   8.771
  230POPC   D2A 5884  21.238  38.696   8.447
  230POPC   C3A 5885  21.415  38.622   8.027
  230POPC   C4A 5886  21.641  38.660   7.642
  230POPC   C1B 5887  21.158  38.173   8.669
  230POPC   C2B 5888  20.968  37.995   8.304
  230POPC   C3B 5889  21.144  38.166   7.945
  230POPC   C4B 5890  20.974  38.551   7.773
  231POPC   NC3 5891  42.113   9.847   9.528
  231POPC   PO4 5892  42.568   9.448   9.262
  231POPC   GL1 5893  42.263   9.705   9.018
  231POPC   GL2 5894  41.888   9.784   9.095
  231POPC   C1A 5895  42.501   9.853   8.661
  231POPC   D2A 5896  42.789   9.816   8.314
  231POPC   C3A 5897  42.536   9.719   7.969
  231POPC   C4A 5898  42.481   9.915   7.596
  231POPC   C1B 5899  41.867   9.751   8.653
  231POPC   C2B 5900  42.121   9.873   8.296
  231POPC   C3B 5901  42.038   9.823   7.861
  231POPC   C4B 5902  42.146   9.477   7.632
  232POPC   NC3 5903   2.291  33.758   9.464
  232POPC   PO4 5904   2.937  33.767   9.560
  232POPC   GL1 5905   2.738  33.699   9.202
  232POPC   GL2 5906   2.640  34.032   9.183
  232POPC   C1A 5907   2.704  33.680   8.772
  232POPC   D2A 5908   2.543  33.618   8.383
  232POPC   C3A 5909   2.788  33.445   8.094
  232POPC   C4A 5910   2.854  33.724   7.757
  232POPC   C1B 5911   2.823  34.189   8.842
  232POPC   C2B 5912   3.133  34.110   8.518
  232POPC   C3B 5913   3.239  34.040   8.067
  232POPC   C4B 5914   3.135  34.148   7.652
  233POPC   NC3 5915  40.220  30.804   9.366
  233POPC   PO4 5916  39.729  30.437   9.495
  233POPC   GL1 5917  39.981  30.359   9.141
  233POPC   GL2 5918  39.796  30.658   9.019
  233POPC   C1A 5919  40.081  30.391   8.702
  233POPC   D2A 5920  39.827  30.563   8.375
  233POPC   C3A 5921  39.961  30.702   7.947
  233POPC   C4A 5922  40.346  30.641   7.722
  233POPC   C1B 5923  40.026  30.928   8.741
  233POPC   C2B 5924  40.098  31.107   8.355
  233POPC   C3B 5925  39.857  31.221   8.000
  233POPC   C4B 5926  40.154  31.143   7.704
  234POPC   NC3 5927  29.060  38.181   9.533
  234POPC   PO4 5928  28.790  38.744   9.337
  234POPC   GL1 5929  28.957  38.455   9.095
  234POPC   GL2 5930  29.281  38.345   9.000
  234POPC   C1A 5931  28.871  38.185   8.787
  234POPC   D2A 5932  29.232  38.180   8.511
  234POPC   C3A 5933  29.151  38.378   8.143
  234POPC   C4A 5934  28.935  38.283   7.765
  234POPC   C1B 5935  29.242  38.657   8.692
  234POPC   C2B 5936  29.539  38.774   8.362
  234POPC   C3B 5937  29.449  38.848   7.959
  234POPC   C4B 5938  29.505  38.456   7.780
  235POPC   NC3 5939  13.199  28.521   9.637
  235POPC   PO4 5940  12.545  28.195   9.560
  235POPC   GL1 5941  12.775  28.408   9.244
  235POPC   GL2 5942  13.096  28.225   9.227
  235POPC   C1A 5943  12.718  28.312   8.802
  235POPC   D2A 5944  12.532  28.521   8.426
  235POPC   C3A 5945  12.731  28.406   8.068
  235POPC   C4A 5946  12.904  28.517   7.692
  235POPC   C1B 5947  13.124  27.969   8.878
  235POPC   C2B 5948  13.003  28.050   8.467
  235POPC   C3B 5949  13.200  28.152   8.083
  235POPC   C4B 5950  13.247  27.864   7.763
  236POPC   NC3 5951  20.532  13.232   9.292
  236POPC   PO4 5952  20.648  13.823   9.528
  236POPC   GL1 5953  20.619  13.701   9.101
  236POPC   GL2 5954  20.301  13.669   9.095
  236POPC   C1A 5955  20.819  13.632   8.684
  236POPC   D2A 5956  20.760  13.432   8.259
  236POPC   C3A 5957  20.800  13.690   7.860
  236POPC   C4A 5958  20.817  13.755   7.376
  236POPC   C1B 5959  20.341  13.464   8.697
  236POPC   C2B 5960  20.249  13.618   8.326
  236POPC   C3B 5961  20.342  13.506   7.933
  236POPC   C4B 5962  20.351  13.698   7.539
  237POPC   NC3 5963  40.348   6.439   9.450
  237POPC   PO4 5964  39.720   6.438   9.480
  237POPC   GL1 5965  39.770   6.618   9.088
  237POPC   GL2 5966  40.116   6.635   9.040
  237POPC   C1A 5967  39.696   6.724   8.671
  237POPC   D2A 5968  39.630   6.430   8.340
  237POPC   C3A 5969  39.677   6.659   7.970
  237POPC   C4A 5970  40.024   6.812   7.795
  237POPC   C1B 5971  40.130   6.447   8.644
  237POPC   C2B 5972  40.197   6.619   8.234
  237POPC   C3B 5973  40.479   6.510   7.890
  237POPC   C4B 5974  40.449   6.116   7.660
  238POPC   NC3 5975  37.949  42.742   9.395
  238POPC   PO4 5976  37.533  43.311   9.568
  238POPC   GL1 5977  37.642  43.095   9.204
  238POPC   GL2 5978  37.998  43.242   9.281
  238POPC   C1A 5979  37.650  42.882   8.774
  238POPC   D2A 5980  37.512  43.004   8.366
  238POPC   C3A 5981  37.663  42.917   7.974
  238POPC   C4A 5982  37.281  43.038   7.777
  238POPC   C1B 5983  38.017  43.232   8.851
  238POPC   C2B 5984  38.021  43.096   8.444
  238POPC   C3B 5985  37.983  43.305   8.074
  238POPC   C4B 5986  38.080  43.224   7.702
  239POPC   NC3 5987  31.844  12.957   9.593
  239POPC   PO4 5988  32.195  12.550   9.366
  239POPC   GL1 5989  32.147  12.763   9.025
  239POPC   GL2 5990  31.986  13.056   9.109
  239POPC   C1A 5991  32.397  12.811   8.664
  239POPC   D2A 5992  32.520  12.557   8.333
  239POPC   C3A 5993  32.399  12.798   7.987
  239POPC   C4A 5994  32.313  12.737   7.564
  239POPC   C1B 5995  31.875  12.924   8.660
  239POPC   C2B 5996  31.969  12.645   8.299
  239POPC   C3B 5997  31.888  12.733   7.861
  239POPC   C4B 5998  31.998  13.115   7.664
  240POPC   NC3 5999   6.865  10.409   9.571
  240POPC   PO4 6000   6.252  10.094   9.512
  240POPC   GL1 6001   6.554  10.206   9.201
  240POPC   GL2 6002   6.944  10.281   9.088
  240POPC   C1A 6003   6.573  10.108   8.790
  240POPC   D2A 6004   6.653  10.335   8.446
  240POPC   C3A 6005   6.461  10.215   8.092
  240POPC   C4A 6006   6.528  10.269   7.691
  240POPC   C1B 6007   6.666  10.630   8.891
  240POPC   C2B 6008   6.646  10.849   8.469
  240POPC   C3B 6009   6.644  10.676   8.019
  240POPC   C4B 6010   6.969  10.538   7.697
  241POPC   NC3 6011  43.460   5.267   9.853
  241POPC   PO4 6012  42.967   5.276   9.300
  241POPC   GL1 6013  43.140   5.037   8.991
  241POPC   GL2 6014  42.865   4.904   8.907
  241POPC   C1A 6015  43.249   4.700   8.663
  241POPC   D2A 6016  43.093   4.673   8.226
  241POPC   C3A 6017  43.036   5.064   8.033
  241POPC   C4A 6018  43.206   5.234   7.671
  241POPC   C1B 6019  42.817   4.997   8.509
  241POPC   C2B 6020  42.547   5.140   8.212
  241POPC   C3B 6021  42.607   5.127   7.778
  241POPC   C4B 6022  42.838   4.981   7.447
  242POPC   NC3 6023  25.286   1.053   9.621
  242POPC   PO4 6024  25.747   1.448   9.499
  242POPC   GL1 6025  25.563   1.187   9.201
  242POPC   GL2 6026  25.248   1.375   9.164
  242POPC   C1A 6027  25.468   1.089   8.778
  242POPC   D2A 6028  25.525   1.285   8.380
  242POPC   C3A 6029  25.605   1.028   8.065
  242POPC   C4A 6030  25.558   1.179   7.686
  242POPC   C1B 6031  25.013   1.336   8.766
  242POPC   C2B 6032  25.040   1.129   8.383
  242POPC   C3B 6033  25.127   1.236   7.966
  242POPC   C4B 6034  25.067   1.170   7.513
  243POPC   NC3 6035  23.166  22.205   9.758
  243POPC   PO4 6036  23.286  22.547   9.167
  243POPC   GL1 6037  22.890  22.425   8.954
  243POPC   GL2 6038  22.553  22.610   9.042
  243POPC   C1A 6039  22.958  22.182   8.556
  243POPC   D2A 6040  23.228  21.854   8.340
  243POPC   C3A 6041  23.226  21.908   7.900
  243POPC   C4A 6042  22.805  21.876   7.758
  243POPC   C1B 6043  22.545  22.503   8.600
  243POPC   C2B 6044  22.715  22.565   8.225
  243POPC   C3B 6045  22.729  22.360   7.837
  243POPC   C4B 6046  23.094  22.353   7.623
  244POPC   NC3 6047  39.520  36.984   9.737
  244POPC   PO4 6048  40.069  37.032   9.378
  244POPC   GL1 6049  39.975  36.827   9.047
  244POPC   GL2 6050  40.260  36.978   8.914
  244POPC   C1A 6051  40.019  36.599   8.678
  244POPC   D2A 6052  39.937  36.922   8.418
  244POPC   C3A 6053  39.914  36.842   8.005
  244POPC   C4A 6054  40.157  36.521   7.813
  244POPC   C1B 6055  40.271  37.266   8.611
  244POPC   C2B 6056  40.258  37.225   8.175
  244POPC   C3B 6057  40.368  36.989   7.865
  244POPC   C4B 6058  40.449  37.315   7.663
  245POPC   NC3 6059  34.269  12.880   9.426
  245POPC   PO4 6060  34.831  13.215   9.220
  245POPC   GL1 6061  34.530  13.103   8.990
  245POPC   GL2 6062  34.480  12.758   8.974
  245POPC   C1A 6063  34.557  13.225   8.580
  245POPC   D2A 6064  34.765  13.132   8.223
  245POPC   C3A 6065  34.457  12.912   8.006
  245POPC   C4A 6066  34.471  12.939   7.563
  245POPC   C1B 6067  34.368  12.718   8.535
  245POPC   C2B 6068  34.357  12.407   8.170
  245POPC   C3B 6069  34.464  12.471   7.748
  245POPC   C4B 6070  34.241  12.528   7.350
  246POPC   NC3 6071  12.279  27.799   9.470
  246POPC   PO4 6072  11.698  27.600   9.704
  246POPC   GL1 6073  11.904  27.563   9.215
  246POPC   GL2 6074  12.267  27.475   9.087
  246POPC   C1A 6075  11.921  27.862   8.802
  246POPC   D2A 6076  11.868  27.829   8.344
  246POPC   C3A 6077  12.168  27.631   8.099
  246POPC   C4A 6078  12.357  27.747   7.732
  246POPC   C1B 6079  12.095  27.397   8.679
  246POPC   C2B 6080  12.172  27.119   8.358
  246POPC   C3B 6081  12.302  27.052   7.991
  246POPC   C4B 6082  12.147  27.285   7.691
  247POPC   NC3 6083  43.700  10.110   9.405
  247POPC   PO4 6084  43.547   9.430   9.349
  247POPC   GL1 6085  43.855   9.684   9.133
  247POPC   GL2 6086  44.173   9.874   9.262
  247POPC   C1A 6087  44.006   9.601   8.741
  247POPC   D2A 6088  43.903   9.371   8.357
  247POPC   C3A 6089  43.719   9.574   7.999
  247POPC   C4A 6090  43.792   9.973   7.821
  247POPC   C1B 6091  44.281  10.045   8.837
  247POPC   C2B 6092  44.155  10.197   8.408
  247POPC   C3B 6093  44.209  10.293   7.952
  247POPC   C4B 6094  44.185  10.142   7.504
  248POPC   NC3 6095  43.622   6.801   9.550
  248POPC   PO4 6096  44.266   6.718   9.562
  248POPC   GL1 6097  43.974   6.726   9.194
  248POPC   GL2 6098  43.766   6.453   9.161
  248POPC   C1A 6099  43.839   6.887   8.799
  248POPC   D2A 6100  44.054   6.910   8.393
  248POPC   C3A 6101  43.897   6.662   8.000
  248POPC   C4A 6102  44.065   6.859   7.609
  248POPC   C1B 6103  43.518   6.441   8.765
  248POPC   C2B 6104  43.405   6.267   8.344
  248POPC   C3B 6105  43.449   6.334   7.876
  248POPC   C4B 6106  43.720   6.477   7.527
  249POPC   NC3 6107  17.914  29.276   9.452
  249POPC   PO4 6108  18.552  29.057   9.523
  249POPC   GL1 6109  18.336  29.161   9.158
  249POPC   GL2 6110  18.286  29.516   9.063
  249POPC   C1A 6111  18.163  28.941   8.819
  249POPC   D2A 6112  18.048  28.944   8.377
  249POPC   C3A 6113  18.349  29.177   8.153
  249POPC   C4A 6114  18.390  29.295   7.722
  249POPC   C1B 6115  18.088  29.434   8.671
  249POPC   C2B 6116  18.070  29.584   8.262
  249POPC   C3B 6117  17.917  29.338   7.890
  249POPC   C4B 6118  17.889  29.418   7.379
  250POPC   NC3 6119  19.766   1.039   9.599
  250POPC   PO4 6120  19.662   1.592   9.325
  250POPC   GL1 6121  19.958   1.335   9.123
  250POPC   GL2 6122  20.067   0.987   9.176
  250POPC   C1A 6123  20.020   1.519   8.727
  250POPC   D2A 6124  19.959   1.437   8.328
  250POPC   C3A 6125  19.577   1.542   8.111
  250POPC   C4A 6126  19.629   1.679   7.697
  250POPC   C1B 6127  19.943   0.985   8.719
  250POPC   C2B 6128  20.111   0.963   8.268
  250POPC   C3B 6129  19.885   1.183   7.881
  250POPC   C4B 6130  20.006   1.267   7.451
  251POPC   NC3 6131  36.311  11.473   9.787
  251POPC   PO4 6132  35.952  11.869   9.702
  251POPC   GL1 6133  35.963  12.042   9.245
  251POPC   GL2 6134  36.308  12.092   9.075
  251POPC   C1A 6135  35.892  12.062   8.767
  251POPC   D2A 6136  35.998  11.878   8.355
  251POPC   C3A 6137  35.918  12.084   7.969
  251POPC   C4A 6138  35.970  12.004   7.532
  251POPC   C1B 6139  36.466  12.208   8.633
  251POPC   C2B 6140  36.417  12.187   8.173
  251POPC   C3B 6141  36.404  12.016   7.776
  251POPC   C4B 6142  36.419  12.114   7.353
  252POPC   NC3 6143  30.366  24.378   9.344
  252POPC   PO4 6144  30.927  24.778   9.451
  252POPC   GL1 6145  30.773  24.673   9.087
  252POPC   GL2 6146  30.857  24.308   9.126
  252POPC   C1A 6147  30.558  24.594   8.704
  252POPC   D2A 6148  30.606  24.407   8.323
  252POPC   C3A 6149  30.695  24.725   8.036
  252POPC   C4A 6150  30.819  24.665   7.622
  252POPC   C1B 6151  31.052  24.418   8.745
  252POPC   C2B 6152  31.086  24.542   8.348
  252POPC   C3B 6153  31.025  24.332   8.002
  252POPC   C4B 6154  31.225  24.378   7.666
  253POPC   NC3 6155  39.604  37.222   9.269
  253POPC   PO4 6156  39.147  36.730   9.617
  253POPC   GL1 6157  39.120  36.677   9.175
  253POPC   GL2 6158  39.039  36.974   9.124
  253POPC   C1A 6159  39.107  36.767   8.662
  253POPC   D2A 6160  39.380  37.063   8.409
  253POPC   C3A 6161  39.423  36.951   7.971
  253POPC   C4A 6162  39.203  36.729   7.626
  253POPC   C1B 6163  38.853  37.188   8.827
  253POPC   C2B 6164  38.902  37.286   8.410
  253POPC   C3B 6165  38.937  36.948   8.135
  253POPC   C4B 6166  38.753  36.955   7.761
  254POPC   NC3 6167  25.507   3.172   9.398
  254POPC   PO4 6168  25.185   3.767   9.518
  254POPC   GL1 6169  25.220   3.792   9.098
  254POPC   GL2 6170  25.240   3.455   9.083
  254POPC   C1A 6171  25.094   3.688   8.659
  254POPC   D2A 6172  25.299   3.535   8.276
  254POPC   C3A 6173  25.232   3.775   7.922
  254POPC   C4A 6174  25.077   3.724   7.467
  254POPC   C1B 6175  25.454   3.314   8.714
  254POPC   C2B 6176  25.334   3.027   8.399
  254POPC   C3B 6177  25.419   3.042   7.988
  254POPC   C4B 6178  25.228   3.306   7.703
  255POPC   NC3 6179   2.378  19.663   9.299
  255POPC   PO4 6180   1.919  20.204   9.464
  255POPC   GL1 6181   2.046  19.978   9.093
  255POPC   GL2 6182   1.754  19.817   8.938
  255POPC   C1A 6183   2.198  19.755   8.698
  255POPC   D2A 6184   2.029  19.774   8.324
  255POPC   C3A 6185   2.220  19.923   8.010
  255POPC   C4A 6186   2.198  19.792   7.624
  255POPC   C1B 6187   1.564  20.022   8.645
  255POPC   C2B 6188   1.731  20.206   8.312
  255POPC   C3B 6189   1.729  20.025   7.946
  255POPC   C4B 6190   1.452  20.035   7.639
  256POPC   NC3 6191  32.662  32.084   9.362
  256POPC   PO4 6192  33.322  32.306   9.440
  256POPC   GL1 6193  33.024  32.391   9.106
  256POPC   GL2 6194  32.846  32.114   8.886
  256POPC   C1A 6195  32.936  32.569   8.708
  256POPC   D2A 6196  32.979  32.354   8.329
  256POPC   C3A 6197  33.269  32.369   7.993
  256POPC   C4A 6198  33.071  32.387   7.606
  256POPC   C1B 6199  33.284  32.180   8.703
  256POPC   C2B 6200  33.426  31.993   8.310
  256POPC   C3B 6201  33.145  31.881   7.922
  256POPC   C4B 6202  32.990  31.844   7.470
  257POPC   NC3 6203  35.970  10.704   9.247
  257POPC   PO4 6204  35.888  10.192   9.610
  257POPC   GL1 6205  35.934  10.125   9.149
  257POPC   GL2 6206  36.262  10.188   8.956
  257POPC   C1A 6207  35.765  10.285   8.773
  257POPC   D2A 6208  35.764  10.196   8.346
  257POPC   C3A 6209  35.857  10.570   8.126
  257POPC   C4A 6210  36.177  10.642   7.805
  257POPC   C1B 6211  36.231  10.406   8.511
  257POPC   C2B 6212  36.264  10.852   8.263
  257POPC   C3B 6213  36.542  10.976   7.891
  257POPC   C4B 6214  36.647  10.701   7.500
  258POPC   NC3 6215  40.503   9.774   9.545
  258POPC   PO4 6216  41.046   9.407   9.375
  258POPC   GL1 6217  40.743   9.568   9.079
  258POPC   GL2 6218  40.670   9.925   9.088
  258POPC   C1A 6219  40.806   9.575   8.627
  258POPC   D2A 6220  41.151   9.575   8.314
  258POPC   C3A 6221  40.964   9.643   7.927
  258POPC   C4A 6222  40.745   9.418   7.605
  258POPC   C1B 6223  40.434   9.920   8.724
  258POPC   C2B 6224  40.594   9.958   8.299
  258POPC   C3B 6225  40.523  10.162   7.907
  258POPC   C4B 6226  40.296  10.220   7.547
  259POPC   NC3 6227  20.069   6.085   9.366
  259POPC   PO4 6228  19.438   5.635   9.381
  259POPC   GL1 6229  19.720   5.785   9.088
  259POPC   GL2 6230  19.602   6.093   8.973
  259POPC   C1A 6231  19.806   5.645   8.682
  259POPC   D2A 6232  19.960   5.602   8.277
  259POPC   C3A 6233  19.667   5.765   7.943
  259POPC   C4A 6234  19.665   5.766   7.494
  259POPC   C1B 6235  20.014   6.120   8.735
  259POPC   C2B 6236  20.231   6.045   8.374
  259POPC   C3B 6237  20.105   6.002   7.962
  259POPC   C4B 6238  19.917   6.188   7.634
  260POPC   NC3 6239  26.494   0.607   9.341
  260POPC   PO4 6240  26.737   0.118   9.736
  260POPC   GL1 6241  26.900   0.344   9.273
  260POPC   GL2 6242  26.973   0.743   9.238
  260POPC   C1A 6243  26.751   0.267   8.822
  260POPC   D2A 6244  26.861   0.322   8.365
  260POPC   C3A 6245  26.688   0.266   7.913
  260POPC   C4A 6246  26.910   0.247   7.521
  260POPC   C1B 6247  26.798   0.800   8.801
  260POPC   C2B 6248  26.624   0.804   8.367
  260POPC   C3B 6249  26.837   0.771   7.978
  260POPC   C4B 6250  27.073   0.973   7.658
  261POPC   NC3 6251  20.402  31.932   9.259
  261POPC   PO4 6252  21.076  32.068   9.379
  261POPC   GL1 6253  20.863  32.172   9.053
  261POPC   GL2 6254  20.633  32.396   9.234
  261POPC   C1A 6255  20.734  31.992   8.659
  261POPC   D2A 6256  20.394  31.978   8.344
  261POPC   C3A 6257  20.645  31.933   7.976
  261POPC   C4A 6258  20.735  31.948   7.529
  261POPC   C1B 6259  20.524  32.450   8.792
  261POPC   C2B 6260  20.371  32.494   8.374
  261POPC   C3B 6261  20.569  32.445   7.993
  261POPC   C4B 6262  20.498  32.432   7.569
  262POPC   NC3 6263  21.612   3.232   9.660
  262POPC   PO4 6264  21.316   2.534   9.514
  262POPC   GL1 6265  21.438   2.861   9.210
  262POPC   GL2 6266  21.794   2.944   9.206
  262POPC   C1A 6267  21.228   2.891   8.805
  262POPC   D2A 6268  20.869   2.824   8.528
  262POPC   C3A 6269  20.955   2.858   8.101
  262POPC   C4A 6270  21.253   2.735   7.800
  262POPC   C1B 6271  21.749   2.819   8.757
  262POPC   C2B 6272  21.497   2.733   8.368
  262POPC   C3B 6273  21.713   2.849   8.001
  262POPC   C4B 6274  21.758   2.658   7.624
  263POPC   NC3 6275  44.336  33.916   9.332
  263POPC   PO4 6276  43.905  33.406   9.570
  263POPC   GL1 6277  43.788  33.568   9.159
  263POPC   GL2 6278  44.056  33.711   8.969
  263POPC   C1A 6279  43.717  33.462   8.704
  263POPC   D2A 6280  43.881  33.751   8.392
  263POPC   C3A 6281  43.700  33.865   8.000
  263POPC   C4A 6282  43.535  33.593   7.694
  263POPC   C1B 6283  44.088  34.097   8.722
  263POPC   C2B 6284  43.948  34.245   8.298
  263POPC   C3B 6285  44.127  34.168   7.901
  263POPC   C4B 6286  43.900  34.105   7.558
  264POPC   NC3 6287  20.343   6.989   9.429
  264POPC   PO4 6288  19.902   6.482   9.602
  264POPC   GL1 6289  19.809   6.522   9.154
  264POPC   GL2 6290  20.126   6.565   9.019
  264POPC   C1A 6291  19.675   6.507   8.682
  264POPC   D2A 6292  19.790   6.282   8.272
  264POPC   C3A 6293  19.769   6.573   7.919
  264POPC   C4A 6294  19.735   6.606   7.436
  264POPC   C1B 6295  19.875   6.942   8.857
  264POPC   C2B 6296  19.937   7.147   8.445
  264POPC   C3B 6297  20.053   6.984   8.042
  264POPC   C4B 6298  19.808   7.036   7.669
  265POPC   NC3 6299   5.503  19.286   9.530
  265POPC   PO4 6300   5.503  18.663   9.409
  265POPC   GL1 6301   5.870  18.981   9.264
  265POPC   GL2 6302   6.249  19.048   9.239
  265POPC   C1A 6303   5.905  19.195   8.848
  265POPC   D2A 6304   5.700  19.088   8.455
  265POPC   C3A 6305   5.909  19.166   8.068
  265POPC   C4A 6306   5.639  19.141   7.710
  265POPC   C1B 6307   6.189  18.774   8.898
  265POPC   C2B 6308   6.201  18.881   8.461
  265POPC   C3B 6309   6.200  18.708   8.047
  265POPC   C4B 6310   6.038  18.831   7.652
  266POPC   NC3 6311  36.829   5.662   9.521
  266POPC   PO4 6312  37.254   6.114   9.426
  266POPC   GL1 6313  37.022   5.976   9.120
  266POPC   GL2 6314  37.139   5.667   9.135
  266POPC   C1A 6315  36.818   5.919   8.714
  266POPC   D2A 6316  36.589   5.874   8.309
  266POPC   C3A 6317  36.799   6.081   7.974
  266POPC   C4A 6318  36.965   5.851   7.616
  266POPC   C1B 6319  37.246   5.512   8.815
  266POPC   C2B 6320  37.077   5.575   8.462
  266POPC   C3B 6321  37.024   5.638   8.088
  266POPC   C4B 6322  37.301   5.515   7.800
  267POPC   NC3 6323   8.136  36.431   9.466
  267POPC   PO4 6324   8.335  37.100   9.465
  267POPC   GL1 6325   8.232  37.011   9.052
  267POPC   GL2 6326   8.329  36.681   9.084
  267POPC   C1A 6327   8.017  36.827   8.685
  267POPC   D2A 6328   7.942  36.805   8.261
  267POPC   C3A 6329   8.138  36.998   7.987
  267POPC   C4A 6330   8.314  36.966   7.661
  267POPC   C1B 6331   8.471  36.486   8.765
  267POPC   C2B 6332   8.301  36.473   8.405
  267POPC   C3B 6333   8.441  36.570   8.034
  267POPC   C4B 6334   8.382  36.453   7.652
  268POPC   NC3 6335  26.997  17.315   9.591
  268POPC   PO4 6336  27.275  17.956   9.450
  268POPC   GL1 6337  27.564  17.783   9.062
  268POPC   GL2 6338  27.846  17.523   9.111
  268POPC   C1A 6339  27.699  17.631   8.649
  268POPC   D2A 6340  27.496  17.438   8.303
  268POPC   C3A 6341  27.713  17.543   7.947
  268POPC   C4A 6342  27.647  17.696   7.515
  268POPC   C1B 6343  28.021  17.249   8.749
  268POPC   C2B 6344  27.940  17.184   8.300
  268POPC   C3B 6345  27.757  17.021   7.924
  268POPC   C4B 6346  27.578  17.169   7.541
  269POPC   NC3 6347   9.246  14.602   9.429
  269POPC   PO4 6348   8.639  14.683   9.216
  269POPC   GL1 6349   8.933  14.459   9.043
  269POPC   GL2 6350   9.124  14.736   8.911
  269POPC   C1A 6351   9.176  14.216   8.781
  269POPC   D2A 6352   9.435  14.053   8.440
  269POPC   C3A 6353   9.172  14.137   8.092
  269POPC   C4A 6354   9.090  14.382   7.690
  269POPC   C1B 6355   8.821  14.582   8.579
  269POPC   C2B 6356   8.876  14.542   8.156
  269POPC   C3B 6357   9.151  14.813   7.935
  269POPC   C4B 6358   8.793  14.819   7.680
  270POPC   NC3 6359   8.229  18.664   9.327
  270POPC   PO4 6360   8.433  18.007   9.403
  270POPC   GL1 6361   8.170  18.163   9.100
  270POPC   GL2 6362   7.823  18.028   9.153
  270POPC   C1A 6363   8.275  18.331   8.669
  270POPC   D2A 6364   8.517  18.339   8.283
  270POPC   C3A 6365   8.323  18.278   7.893
  270POPC   C4A 6366   8.192  18.548   7.561
  270POPC   C1B 6367   7.785  18.202   8.775
  270POPC   C2B 6368   7.821  18.061   8.386
  270POPC   C3B 6369   7.839  18.338   8.057
  270POPC   C4B 6370   7.756  18.320   7.678
  271POPC   NC3 6371  20.020  31.775   9.630
  271POPC   PO4 6372  20.028  31.208   9.381
  271POPC   GL1 6373  20.002  31.548   9.149
  271POPC   GL2 6374  19.660  31.632   9.281
  271POPC   C1A 6375  20.002  31.369   8.740
  271POPC   D2A 6376  19.943  31.593   8.418
  271POPC   C3A 6377  19.859  31.376   8.073
  271POPC   C4A 6378  19.967  31.582   7.721
  271POPC   C1B 6379  19.535  31.473   8.878
  271POPC   C2B 6380  19.425  31.502   8.446
  271POPC   C3B 6381  19.473  31.686   8.060
  271POPC   C4B 6382  19.489  31.389   7.707
  272POPC   NC3 6383  15.281  13.326   9.562
  272POPC   PO4 6384  15.078  13.886   9.534
  272POPC   GL1 6385  15.234  13.721   9.166
  272POPC   GL2 6386  15.161  13.428   9.096
  272POPC   C1A 6387  15.227  13.812   8.723
  272POPC   D2A 6388  15.473  13.969   8.359
  272POPC   C3A 6389  15.353  13.833   7.942
  272POPC   C4A 6390  15.189  13.720   7.506
  272POPC   C1B 6391  15.345  13.328   8.729
  272POPC   C2B 6392  15.196  13.487   8.334
  272POPC   C3B 6393  15.188  13.357   7.914
  272POPC   C4B 6394  15.314  13.180   7.540
  273POPC   NC3 6395  34.969  15.793   9.524
  273POPC   PO4 6396  34.379  15.639   9.221
  273POPC   GL1 6397  34.653  15.845   9.025
  273POPC   GL2 6398  34.743  16.145   9.228
  273POPC   C1A 6399  34.394  15.919   8.642
  273POPC   D2A 6400  34.380  15.640   8.300
  273POPC   C3A 6401  34.244  15.798   7.956
  273POPC   C4A 6402  34.518  16.041   7.759
  273POPC   C1B 6403  34.749  16.270   8.803
  273POPC   C2B 6404  34.924  16.362   8.412
  273POPC   C3B 6405  34.901  16.312   7.959
  273POPC   C4B 6406  34.765  16.374   7.468
  274POPC   NC3 6407  26.659  42.192   9.550
  274POPC   PO4 6408  27.243  42.484   9.466
  274POPC   GL1 6409  27.111  42.373   9.083
  274POPC   GL2 6410  26.789  42.354   9.101
  274POPC   C1A 6411  26.965  42.384   8.632
  274POPC   D2A 6412  26.976  42.658   8.306
  274POPC   C3A 6413  27.001  42.426   7.912
  274POPC   C4A 6414  26.670  42.513   7.622
  274POPC   C1B 6415  26.551  42.121   8.817
  274POPC   C2B 6416  26.328  42.231   8.459
  274POPC   C3B 6417  26.606  42.286   8.167
  274POPC   C4B 6418  26.720  42.032   7.796
  275POPC   NC3 6419  12.875  42.260   9.849
  275POPC   PO4 6420  12.993  42.127   9.234
  275POPC   GL1 6421  12.696  42.394   9.048
  275POPC   GL2 6422  12.962  42.524   8.873
  275POPC   C1A 6423  12.641  42.235   8.621
  275POPC   D2A 6424  13.010  42.300   8.384
  275POPC   C3A 6425  13.110  42.026   8.130
  275POPC   C4A 6426  12.802  41.933   7.850
  275POPC   C1B 6427  13.241  42.697   8.599
  275POPC   C2B 6428  13.150  42.765   8.184
  275POPC   C3B 6429  13.012  42.479   7.862
  275POPC   C4B 6430  13.068  42.445   7.423
  276POPC   NC3 6431  39.761  40.225   9.499
  276POPC   PO4 6432  39.722  39.573   9.430
  276POPC   GL1 6433  39.873  39.859   9.072
  276POPC   GL2 6434  39.743  40.194   9.011
  276POPC   C1A 6435  40.170  39.778   8.727
  276POPC   D2A 6436  40.205  39.634   8.295
  276POPC   C3A 6437  40.185  39.916   7.898
  276POPC   C4A 6438  40.061  40.038   7.469
  276POPC   C1B 6439  40.125  40.286   8.803
  276POPC   C2B 6440  40.207  40.169   8.379
  276POPC   C3B 6441  40.068  40.404   8.018
  276POPC   C4B 6442  40.307  40.466   7.662
  277POPC   NC3 6443  16.607  13.073   9.717
  277POPC   PO4 6444  17.008  12.641   9.411
  277POPC   GL1 6445  16.800  12.576   9.039
  277POPC   GL2 6446  16.581  12.825   9.083
  277POPC   C1A 6447  16.882  12.701   8.623
  277POPC   D2A 6448  16.744  13.038   8.368
  277POPC   C3A 6449  16.747  12.857   7.972
  277POPC   C4A 6450  16.857  12.813   7.554
  277POPC   C1B 6451  16.389  12.622   8.703
  277POPC   C2B 6452  16.307  12.762   8.281
  277POPC   C3B 6453  16.280  12.663   7.842
  277POPC   C4B 6454  16.374  12.966   7.532
  278POPC   NC3 6455  15.191  11.162   9.915
  278POPC   PO4 6456  15.456  11.331   9.370
  278POPC   GL1 6457  15.187  11.470   9.058
  278POPC   GL2 6458  15.433  11.693   8.980
  278POPC   C1A 6459  14.890  11.452   8.773
  278POPC   D2A 6460  15.055  11.144   8.535
  278POPC   C3A 6461  15.283  11.267   8.169
  278POPC   C4A 6462  15.122  11.306   7.735
  278POPC   C1B 6463  15.619  11.442   8.633
  278POPC   C2B 6464  15.694  11.639   8.236
  278POPC   C3B 6465  15.608  11.481   7.819
  278POPC   C4B 6466  15.543  11.017   7.757
  279POPC   NC3 6467   5.654  18.247   9.563
  279POPC   PO4 6468   6.347  18.259   9.603
  279POPC   GL1 6469   6.140  18.287   9.141
  279POPC   GL2 6470   5.853  18.462   9.125
  279POPC   C1A 6471   5.890  18.146   8.709
  279POPC   D2A 6472   5.797  17.849   8.333
  279POPC   C3A 6473   5.822  17.916   7.899
  279POPC   C4A 6474   5.946  18.334   7.815
  279POPC   C1B 6475   5.725  18.654   8.747
  279POPC   C2B 6476   5.823  18.547   8.345
  279POPC   C3B 6477   5.650  18.712   7.961
  279POPC   C4B 6478   5.558  18.665   7.500
  280POPC   NC3 6479  37.663  17.328   9.712
  280POPC   PO4 6480  38.124  17.846   9.477
  280POPC   GL1 6481  37.684  17.717   9.242
  280POPC   GL2 6482  37.596  17.352   9.121
  280POPC   C1A 6483  37.570  17.713   8.784
  280POPC   D2A 6484  37.407  17.662   8.372
  280POPC   C3A 6485  37.684  17.732   8.017
  280POPC   C4A 6486  37.639  17.714   7.575
  280POPC   C1B 6487  37.807  17.213   8.746
  280POPC   C2B 6488  37.768  17.210   8.323
  280POPC   C3B 6489  38.030  17.319   8.000
  280POPC   C4B 6490  37.898  17.278   7.605
  281POPC   NC3 6491  27.052   4.394   9.759
  281POPC   PO4 6492  27.670   4.404   9.515
  281POPC   GL1 6493  27.567   4.293   9.129
  281POPC   GL2 6494  27.235   4.391   9.102
  281POPC   C1A 6495  27.752   4.223   8.732
  281POPC   D2A 6496  27.551   4.281   8.339
  281POPC   C3A 6497  27.712   4.120   7.954
  281POPC   C4A 6498  27.569   4.285   7.561
  281POPC   C1B 6499  27.427   4.629   8.742
  281POPC   C2B 6500  27.494   4.792   8.318
  281POPC   C3B 6501  27.654   4.645   7.939
  281POPC   C4B 6502  28.035   4.497   7.824
  282POPC   NC3 6503  18.987  31.551   9.588
  282POPC   PO4 6504  19.230  30.941   9.508
  282POPC   GL1 6505  19.200  31.244   9.183
  282POPC   GL2 6506  18.870  31.393   9.127
  282POPC   C1A 6507  19.103  31.219   8.733
  282POPC   D2A 6508  18.803  31.243   8.433
  282POPC   C3A 6509  19.083  31.131   8.098
  282POPC   C4A 6510  19.063  31.089   7.661
  282POPC   C1B 6511  19.083  31.708   8.912
  282POPC   C2B 6512  18.996  31.778   8.506
  282POPC   C3B 6513  18.981  31.612   8.139
  282POPC   C4B 6514  19.073  31.671   7.719
  283POPC   NC3 6515  29.972  31.189   9.458
  283POPC   PO4 6516  29.628  31.711   9.529
  283POPC   GL1 6517  29.788  31.563   9.191
  283POPC   GL2 6518  29.605  31.248   9.127
  283POPC   C1A 6519  29.990  31.659   8.872
  283POPC   D2A 6520  29.818  31.882   8.553
  283POPC   C3A 6521  29.773  31.740   8.153
  283POPC   C4A 6522  29.832  31.799   7.724
  283POPC   C1B 6523  29.896  31.176   8.776
  283POPC   C2B 6524  30.063  31.422   8.422
  283POPC   C3B 6525  30.103  31.405   8.002
  283POPC   C4B 6526  30.082  31.359   7.578
  284POPC   NC3 6527  26.528   0.528   9.850
  284POPC   PO4 6528  26.186   0.280   9.251
  284POPC   GL1 6529  25.929   0.231   8.941
  284POPC   GL2 6530  25.596   0.203   9.054
  284POPC   C1A 6531  25.779   0.493   8.644
  284POPC   D2A 6532  25.861   0.576   8.259
  284POPC   C3A 6533  26.253   0.480   8.100
  284POPC   C4A 6534  26.225   0.582   7.685
  284POPC   C1B 6535  25.628  44.959   8.647
  284POPC   C2B 6536  25.887   0.011   8.284
  284POPC   C3B 6537  25.850   0.226   7.895
  284POPC   C4B 6538  25.891   0.290   7.432
  285POPC   NC3 6539  32.139  36.384   9.709
  285POPC   PO4 6540  32.571  36.006   9.352
  285POPC   GL1 6541  32.253  35.930   9.096
  285POPC   GL2 6542  32.069  36.219   9.192
  285POPC   C1A 6543  32.338  35.963   8.682
  285POPC   D2A 6544  32.288  36.046   8.292
  285POPC   C3A 6545  32.623  36.155   8.083
  285POPC   C4A 6546  32.550  36.171   7.690
  285POPC   C1B 6547  31.846  36.067   8.803
  285POPC   C2B 6548  31.826  35.857   8.385
  285POPC   C3B 6549  31.906  35.952   7.960
  285POPC   C4B 6550  32.031  36.147   7.576
  286POPC   NC3 6551  16.614  40.900   9.487
  286POPC   PO4 6552  16.288  40.315   9.531
  286POPC   GL1 6553  16.586  40.349   9.188
  286POPC   GL2 6554  16.901  40.502   9.245
  286POPC   C1A 6555  16.487  40.492   8.780
  286POPC   D2A 6556  16.479  40.393   8.341
  286POPC   C3A 6557  16.337  40.733   8.057
  286POPC   C4A 6558  16.513  40.843   7.616
  286POPC   C1B 6559  16.971  40.599   8.801
  286POPC   C2B 6560  16.752  40.800   8.420
  286POPC   C3B 6561  16.807  40.575   7.918
  286POPC   C4B 6562  16.982  40.323   7.527
  287POPC   NC3 6563  32.513  31.406   9.525
  287POPC   PO4 6564  32.068  31.863   9.785
  287POPC   GL1 6565  32.102  31.596   9.303
  287POPC   GL2 6566  31.970  31.289   9.337
  287POPC   C1A 6567  32.360  31.543   8.866
  287POPC   D2A 6568  32.347  31.265   8.442
  287POPC   C3A 6569  32.449  31.422   8.005
  287POPC   C4A 6570  32.296  31.831   7.850
  287POPC   C1B 6571  31.933  31.288   8.888
  287POPC   C2B 6572  31.935  31.567   8.534
  287POPC   C3B 6573  31.924  31.515   8.068
  287POPC   C4B 6574  32.025  31.130   7.893
  288POPC   NC3 6575  39.850  26.537   9.481
  288POPC   PO4 6576  39.890  27.249   9.516
  288POPC   GL1 6577  39.922  26.943   9.194
  288POPC   GL2 6578  39.631  26.780   9.074
  288POPC   C1A 6579  40.095  26.790   8.807
  288POPC   D2A 6580  40.303  26.541   8.481
  288POPC   C3A 6581  40.280  26.637   8.045
  288POPC   C4A 6582  40.089  26.701   7.630
  288POPC   C1B 6583  39.608  26.615   8.701
  288POPC   C2B 6584  39.823  26.790   8.355
  288POPC   C3B 6585  39.695  26.623   7.978
  288POPC   C4B 6586  39.581  26.778   7.577
  289POPC   NC3 6587  17.861  22.815   9.836
  289POPC   PO4 6588  17.416  23.172   9.485
  289POPC   GL1 6589  17.667  22.897   9.207
  289POPC   GL2 6590  17.392  22.924   9.020
  289POPC   C1A 6591  17.768  22.756   8.746
  289POPC   D2A 6592  17.779  22.548   8.321
  289POPC   C3A 6593  17.626  22.785   7.949
  289POPC   C4A 6594  17.849  23.047   7.686
  289POPC   C1B 6595  17.183  22.726   8.692
  289POPC   C2B 6596  17.266  22.602   8.274
  289POPC   C3B 6597  17.177  22.572   7.829
  289POPC   C4B 6598  17.281  22.883   7.535
  290POPC   NC3 6599  41.785   4.904   9.440
  290POPC   PO4 6600  41.465   5.500   9.314
  290POPC   GL1 6601  41.468   5.318   8.965
  290POPC   GL2 6602  41.416   4.990   9.110
  290POPC   C1A 6603  41.695   5.365   8.565
  290POPC   D2A 6604  41.775   5.296   8.108
  290POPC   C3A 6605  41.405   5.199   7.900
  290POPC   C4A 6606  41.187   4.836   7.860
  290POPC   C1B 6607  41.630   4.889   8.740
  290POPC   C2B 6608  41.526   4.794   8.342
  290POPC   C3B 6609  41.708   4.773   7.981
  290POPC   C4B 6610  41.760   4.935   7.600
  291POPC   NC3 6611  17.001  29.684   9.464
  291POPC   PO4 6612  16.495  30.073   9.523
  291POPC   GL1 6613  16.710  30.013   9.161
  291POPC   GL2 6614  16.589  29.695   9.126
  291POPC   C1A 6615  16.703  30.043   8.719
  291POPC   D2A 6616  16.922  30.190   8.361
  291POPC   C3A 6617  16.745  30.102   7.974
  291POPC   C4A 6618  16.497  30.028   7.624
  291POPC   C1B 6619  16.482  29.580   8.717
  291POPC   C2B 6620  16.538  29.759   8.297
  291POPC   C3B 6621  16.634  29.583   7.858
  291POPC   C4B 6622  16.642  29.599   7.361
  292POPC   NC3 6623  18.731  14.175   9.406
  292POPC   PO4 6624  19.141  14.664   9.605
  292POPC   GL1 6625  19.067  14.515   9.200
  292POPC   GL2 6626  19.256  14.251   9.190
  292POPC   C1A 6627  18.917  14.608   8.782
  292POPC   D2A 6628  19.065  14.473   8.408
  292POPC   C3A 6629  18.943  14.672   8.046
  292POPC   C4A 6630  19.154  14.728   7.687
  292POPC   C1B 6631  19.046  14.105   8.794
  292POPC   C2B 6632  18.818  14.048   8.374
  292POPC   C3B 6633  19.087  14.120   8.014
  292POPC   C4B 6634  19.309  14.244   7.628
  293POPC   NC3 6635  20.519  14.277   9.570
  293POPC   PO4 6636  20.455  14.926   9.469
  293POPC   GL1 6637  20.594  14.598   9.157
  293POPC   GL2 6638  20.532  14.219   9.076
  293POPC   C1A 6639  20.493  14.604   8.710
  293POPC   D2A 6640  20.418  14.438   8.290
  293POPC   C3A 6641  20.741  14.516   7.976
  293POPC   C4A 6642  20.887  14.806   7.660
  293POPC   C1B 6643  20.765  14.157   8.696
  293POPC   C2B 6644  20.674  13.957   8.306
  293POPC   C3B 6645  20.386  14.017   7.985
  293POPC   C4B 6646  20.622  14.127   7.649
  294POPC   NC3 6647   5.661   0.784   9.566
  294POPC   PO4 6648   5.906   1.448   9.451
  294POPC   GL1 6649   5.783   1.257   9.081
  294POPC   GL2 6650   5.902   0.938   9.125
  294POPC   C1A 6651   5.932   1.209   8.653
  294POPC   D2A 6652   6.291   1.445   8.506
  294POPC   C3A 6653   6.288   1.581   8.071
  294POPC   C4A 6654   6.117   1.472   7.679
  294POPC   C1B 6655   5.585   0.857   8.797
  294POPC   C2B 6656   5.686   0.836   8.347
  294POPC   C3B 6657   5.695   1.059   7.936
  294POPC   C4B 6658   6.004   0.978   7.599
  295POPC   NC3 6659  10.961  20.372   9.376
  295POPC   PO4 6660  11.618  20.530   9.459
  295POPC   GL1 6661  11.484  20.342   9.099
  295POPC   GL2 6662  11.259  20.599   8.963
  295POPC   C1A 6663  11.636  20.395   8.692
  295POPC   D2A 6664  11.414  20.583   8.398
  295POPC   C3A 6665  11.702  20.651   8.088
  295POPC   C4A 6666  11.644  20.378   7.780
  295POPC   C1B 6667  11.121  20.272   8.711
  295POPC   C2B 6668  11.064  20.095   8.328
  295POPC   C3B 6669  11.167  20.354   8.001
  295POPC   C4B 6670  11.257  20.747   7.828
  296POPC   NC3 6671  19.604  14.616   9.655
  296POPC   PO4 6672  20.059  14.163   9.655
  296POPC   GL1 6673  20.071  14.424   9.256
  296POPC   GL2 6674  19.715  14.528   9.172
  296POPC   C1A 6675  20.018  14.382   8.788
  296POPC   D2A 6676  19.939  14.148   8.409
  296POPC   C3A 6677  19.941  14.404   8.091
  296POPC   C4A 6678  20.122  14.415   7.738
  296POPC   C1B 6679  19.444  14.628   8.841
  296POPC   C2B 6680  19.592  14.584   8.449
  296POPC   C3B 6681  19.443  14.524   8.064
  296POPC   C4B 6682  19.655  14.629   7.718
  297POPC   NC3 6683  23.030   7.203   9.346
  297POPC   PO4 6684  23.240   7.712   9.720
  297POPC   GL1 6685  23.040   7.717   9.193
  297POPC   GL2 6686  22.735   7.559   9.157
  297POPC   C1A 6687  23.073   7.394   8.756
  297POPC   D2A 6688  23.246   7.171   8.403
  297POPC   C3A 6689  23.263   7.314   7.984
  297POPC   C4A 6690  23.054   7.144   7.613
  297POPC   C1B 6691  22.793   7.796   8.740
  297POPC   C2B 6692  22.900   7.590   8.331
  297POPC   C3B 6693  22.748   7.365   7.995
  297POPC   C4B 6694  22.683   7.540   7.625
  298POPC   NC3 6695   3.208   2.462   9.528
  298POPC   PO4 6696   3.671   2.829   9.671
  298POPC   GL1 6697   3.582   2.805   9.240
  298POPC   GL2 6698   3.885   2.892   9.180
  298POPC   C1A 6699   3.646   2.582   8.816
  298POPC   D2A 6700   3.523   2.322   8.502
  298POPC   C3A 6701   3.406   2.538   8.148
  298POPC   C4A 6702   3.716   2.525   7.840
  298POPC   C1B 6703   3.744   3.060   8.777
  298POPC   C2B 6704   3.511   2.970   8.428
  298POPC   C3B 6705   3.713   3.010   8.040
  298POPC   C4B 6706   3.570   3.032   7.638
  299POPC   NC3 6707  44.795   0.775   9.471
  299POPC   PO4 6708   0.011   0.180   9.134
  299POPC   GL1 6709  44.806   0.558   8.987
  299POPC   GL2 6710  44.475   0.717   9.053
  299POPC   C1A 6711  44.614   0.465   8.597
  299POPC   D2A 6712  44.463   0.556   8.192
  299POPC   C3A 6713  44.821   0.545   7.885
  299POPC   C4A 6714  44.948   0.289   7.526
  299POPC   C1B 6715  44.509   0.970   8.648
  299POPC   C2B 6716  44.453   1.121   8.212
  299POPC   C3B 6717  44.419   0.915   7.794
  299POPC   C4B 6718  44.267   0.791   7.356
  300POPC   NC3 6719  23.424  44.674   9.425
  300POPC   PO4 6720  24.078  44.507   9.425
  300POPC   GL1 6721  23.807  44.618   9.089
  300POPC   GL2 6722  23.777  44.991   9.135
  300POPC   C1A 6723  23.556  44.487   8.723
  300POPC   D2A 6724  23.643  44.224   8.364
  300POPC   C3A 6725  23.710  44.421   7.950
  300POPC   C4A 6726  24.042  44.549   7.705
  300POPC   C1B 6727  23.841  44.932   8.676
  300POPC   C2B 6728  23.633  44.812   8.282
  300POPC   C3B 6729  23.303  44.903   7.975
  300POPC   C4B 6730  23.300  44.790   7.528
  301POPC   NC3 6731  40.449   2.034   9.471
  301POPC   PO4 6732  39.820   1.757   9.489
  301POPC   GL1 6733  39.993   2.005   9.202
  301POPC   GL2 6734  40.253   1.790   9.075
  301POPC   C1A 6735  39.978   2.083   8.771
  301POPC   D2A 6736  40.139   1.975   8.364
  301POPC   C3A 6737  39.887   2.213   8.062
  301POPC   C4A 6738  39.638   2.237   7.680
  301POPC   C1B 6739  40.259   1.565   8.700
  301POPC   C2B 6740  39.919   1.482   8.438
  301POPC   C3B 6741  39.801   1.644   8.042
  301POPC   C4B 6742  39.968   1.841   7.710
  302POPC   NC3 6743  38.297  39.869   9.638
  302POPC   PO4 6744  38.492  40.536   9.604
  302POPC   GL1 6745  38.427  40.250   9.278
  302POPC   GL2 6746  38.673  39.960   9.294
  302POPC   C1A 6747  38.347  40.241   8.840
  302POPC   D2A 6748  38.348  39.970   8.471
  302POPC   C3A 6749  38.635  40.105   8.144
  302POPC   C4A 6750  38.389  40.172   7.755
  302POPC   C1B 6751  38.618  39.787   8.890
  302POPC   C2B 6752  38.735  39.628   8.469
  302POPC   C3B 6753  38.586  39.597   8.028
  302POPC   C4B 6754  38.776  39.837   7.699
  303POPC   NC3 6755  37.229  14.011   9.516
  303POPC   PO4 6756  37.665  14.541   9.603
  303POPC   GL1 6757  37.742  14.685   9.223
  303POPC   GL2 6758  37.382  14.660   9.134
  303POPC   C1A 6759  37.755  14.491   8.823
  303POPC   D2A 6760  37.599  14.628   8.438
  303POPC   C3A 6761  37.880  14.590   8.119
  303POPC   C4A 6762  37.859  14.384   7.710
  303POPC   C1B 6763  37.180  14.693   8.744
  303POPC   C2B 6764  37.165  14.874   8.309
  303POPC   C3B 6765  37.359  14.643   7.967
  303POPC   C4B 6766  37.391  14.542   7.535
  304POPC   NC3 6767  44.989  39.774   9.482
  304POPC   PO4 6768  44.405  40.134   9.527
  304POPC   GL1 6769  44.623  39.982   9.189
  304POPC   GL2 6770  44.372  39.957   9.030
  304POPC   C1A 6771  44.816  39.865   8.777
  304POPC   D2A 6772  44.755  39.733   8.353
  304POPC   C3A 6773  44.797  39.941   7.947
  304POPC   C4A 6774  44.726  39.700   7.574
  304POPC   C1B 6775  44.298  39.779   8.644
  304POPC   C2B 6776  44.304  39.904   8.222
  304POPC   C3B 6777  44.307  39.862   7.810
  304POPC   C4B 6778  44.460  40.137   7.548
  305POPC   NC3 6779  15.906  33.370   9.669
  305POPC   PO4 6780  15.487  33.897   9.716
  305POPC   GL1 6781  15.829  33.792   9.372
  305POPC   GL2 6782  15.963  34.107   9.253
  305POPC   C1A 6783  16.134  33.739   8.950
  305POPC   D2A 6784  16.182  33.909   8.510
  305POPC   C3A 6785  16.036  33.639   8.172
  305POPC   C4A 6786  15.905  33.711   7.751
  305POPC   C1B 6787  15.678  33.948   8.920
  305POPC   C2B 6788  15.593  33.729   8.516
  305POPC   C3B 6789  15.533  33.820   8.104
  305POPC   C4B 6790  15.545  34.045   7.724
  306POPC   NC3 6791   6.933  14.649   9.428
  306POPC   PO4 6792   6.469  14.147   9.397
  306POPC   GL1 6793   6.781  14.256   9.125
  306POPC   GL2 6794   6.577  14.570   9.057
  306POPC   C1A 6795   6.832  14.322   8.702
  306POPC   D2A 6796   6.559  14.414   8.372
  306POPC   C3A 6797   6.619  14.240   7.965
  306POPC   C4A 6798   6.383  14.522   7.720
  306POPC   C1B 6799   6.881  14.828   8.802
  306POPC   C2B 6800   6.977  14.792   8.369
  306POPC   C3B 6801   6.821  14.715   7.993
  306POPC   C4B 6802   6.883  14.555   7.609
  307POPC   NC3 6803   2.946  40.018   9.802
  307POPC   PO4 6804   2.748  40.320   9.265
  307POPC   GL1 6805   2.898  40.110   8.951
  307POPC   GL2 6806   2.958  40.371   8.756
  307POPC   C1A 6807   2.745  39.904   8.593
  307POPC   D2A 6808   2.867  39.801   8.213
  307POPC   C3A 6809   2.830  40.053   7.887
  307POPC   C4A 6810   2.651  39.781   7.604
  307POPC   C1B 6811   2.503  40.340   8.628
  307POPC   C2B 6812   2.432  40.129   8.234
  307POPC   C3B 6813   2.370  40.297   7.801
  307POPC   C4B 6814   2.679  40.256   7.419
  308POPC   NC3 6815   7.953  12.457   9.530
  308POPC   PO4 6816   8.421  13.079   9.524
  308POPC   GL1 6817   8.381  13.122   9.122
  308POPC   GL2 6818   8.100  12.873   9.137
  308POPC   C1A 6819   8.245  13.092   8.693
  308POPC   D2A 6820   8.284  12.834   8.307
  308POPC   C3A 6821   8.413  12.990   7.864
  308POPC   C4A 6822   8.450  12.921   7.375
  308POPC   C1B 6823   7.872  12.757   8.762
  308POPC   C2B 6824   7.732  12.841   8.331
  308POPC   C3B 6825   7.943  12.705   7.940
  308POPC   C4B 6826   7.820  12.655   7.498
  309POPC   NC3 6827  31.241  17.161   9.256
  309POPC   PO4 6828  31.669  16.708   9.520
  309POPC   GL1 6829  31.533  16.774   9.122
  309POPC   GL2 6830  31.784  16.995   9.062
  309POPC   C1A 6831  31.273  16.808   8.711
  309POPC   D2A 6832  31.102  16.559   8.366
  309POPC   C3A 6833  31.410  16.567   8.046
  309POPC   C4A 6834  31.239  16.788   7.752
  309POPC   C1B 6835  31.792  16.683   8.714
  309POPC   C2B 6836  31.695  16.872   8.356
  309POPC   C3B 6837  31.627  17.054   7.985
  309POPC   C4B 6838  31.695  16.937   7.581
  310POPC   NC3 6839  11.783  42.224   9.552
  310POPC   PO4 6840  12.495  42.407   9.590
  310POPC   GL1 6841  12.199  42.366   9.253
  310POPC   GL2 6842  12.020  42.062   9.132
  310POPC   C1A 6843  12.212  42.408   8.818
  310POPC   D2A 6844  12.223  42.450   8.390
  310POPC   C3A 6845  12.543  42.309   8.110
  310POPC   C4A 6846  12.545  42.340   7.677
  310POPC   C1B 6847  11.892  41.995   8.697
  310POPC   C2B 6848  11.876  42.115   8.235
  310POPC   C3B 6849  11.897  42.208   7.777
  310POPC   C4B 6850  11.724  41.994   7.342
  311POPC   NC3 6851  22.244  42.638   9.592
  311POPC   PO4 6852  22.306  43.266   9.795
  311POPC   GL1 6853  22.410  43.230   9.293
  311POPC   GL2 6854  22.441  42.875   9.194
  311POPC   C1A 6855  22.212  43.154   8.829
  311POPC   D2A 6856  21.898  43.068   8.511
  311POPC   C3A 6857  22.138  43.092   8.108
  311POPC   C4A 6858  22.323  43.236   7.699
  311POPC   C1B 6859  22.481  42.620   8.857
  311POPC   C2B 6860  22.359  42.791   8.476
  311POPC   C3B 6861  22.345  42.637   8.073
  311POPC   C4B 6862  22.550  42.748   7.693
  312POPC   NC3 6863  39.557  35.032   9.404
  312POPC   PO4 6864  39.986  35.475   9.515
  312POPC   GL1 6865  40.110  35.362   9.115
  312POPC   GL2 6866  40.010  35.009   9.096
  312POPC   C1A 6867  40.089  35.573   8.717
  312POPC   D2A 6868  39.797  35.575   8.366
  312POPC   C3A 6869  40.007  35.454   7.984
  312POPC   C4A 6870  39.844  35.521   7.558
  312POPC   C1B 6871  39.742  35.176   8.754
  312POPC   C2B 6872  39.780  35.059   8.324
  312POPC   C3B 6873  39.691  35.077   7.873
  312POPC   C4B 6874  40.072  35.056   7.589
  313POPC   NC3 6875  28.895  43.278   9.400
  313POPC   PO4 6876  29.316  42.882   9.659
  313POPC   GL1 6877  29.166  42.913   9.165
  313POPC   GL2 6878  29.237  43.250   9.052
  313POPC   C1A 6879  29.149  42.984   8.651
  313POPC   D2A 6880  29.486  43.018   8.285
  313POPC   C3A 6881  29.275  42.888   7.907
  313POPC   C4A 6882  28.839  42.887   7.998
  313POPC   C1B 6883  29.251  43.518   8.693
  313POPC   C2B 6884  29.265  43.663   8.300
  313POPC   C3B 6885  29.178  43.359   8.025
  313POPC   C4B 6886  29.311  43.301   7.602
  314POPC   NC3 6887  11.800  37.855   9.568
  314POPC   PO4 6888  12.386  37.440   9.467
  314POPC   GL1 6889  12.229  37.588   9.103
  314POPC   GL2 6890  11.877  37.673   9.106
  314POPC   C1A 6891  12.190  37.547   8.700
  314POPC   D2A 6892  11.944  37.666   8.365
  314POPC   C3A 6893  12.162  37.564   8.024
  314POPC   C4A 6894  12.306  37.725   7.622
  314POPC   C1B 6895  11.691  37.447   8.766
  314POPC   C2B 6896  11.535  37.317   8.378
  314POPC   C3B 6897  11.623  37.495   8.007
  314POPC   C4B 6898  11.810  37.664   7.661
  315POPC   NC3 6899  29.737  20.030   9.405
  315POPC   PO4 6900  30.138  19.528   9.570
  315POPC   GL1 6901  29.968  19.506   9.173
  315POPC   GL2 6902  30.309  19.408   9.066
  315POPC   C1A 6903  29.824  19.707   8.775
  315POPC   D2A 6904  29.691  19.622   8.331
  315POPC   C3A 6905  29.728  19.857   7.929
  315POPC   C4A 6906  29.655  19.543   7.626
  315POPC   C1B 6907  30.320  19.814   8.893
  315POPC   C2B 6908  30.190  19.928   8.475
  315POPC   C3B 6909  30.214  19.945   8.055
  315POPC   C4B 6910  30.267  19.636   7.712
  316POPC   NC3 6911  10.240   1.744   9.415
  316POPC   PO4 6912  10.794   2.120   9.545
  316POPC   GL1 6913  10.553   2.078   9.179
  316POPC   GL2 6914  10.465   2.424   9.072
  316POPC   C1A 6915  10.473   1.876   8.769
  316POPC   D2A 6916  10.259   2.097   8.477
  316POPC   C3A 6917  10.314   2.039   8.058
  316POPC   C4A 6918  10.527   1.868   7.735
  316POPC   C1B 6919  10.778   2.272   8.770
  316POPC   C2B 6920  10.882   2.122   8.390
  316POPC   C3B 6921  11.052   2.261   8.028
  316POPC   C4B 6922  10.924   2.178   7.645
  317POPC   NC3 6923  42.360  31.276   9.465
  317POPC   PO4 6924  42.038  31.920   9.483
  317POPC   GL1 6925  42.190  31.839   9.059
  317POPC   GL2 6926  42.438  31.599   9.073
  317POPC   C1A 6927  42.201  31.700   8.614
  317POPC   D2A 6928  42.122  31.286   8.391
  317POPC   C3A 6929  42.024  31.226   7.932
  317POPC   C4A 6930  42.202  31.315   7.487
  317POPC   C1B 6931  42.613  31.382   8.743
  317POPC   C2B 6932  42.604  31.536   8.344
  317POPC   C3B 6933  42.468  31.487   7.930
  317POPC   C4B 6934  42.810  31.332   7.690
  318POPC   NC3 6935  44.698  32.178   9.870
  318POPC   PO4 6936   0.005  32.192   9.238
  318POPC   GL1 6937  44.602  32.232   9.061
  318POPC   GL2 6938  44.677  32.550   8.937
  318POPC   C1A 6939  44.319  32.100   8.715
  318POPC   D2A 6940  44.271  32.043   8.278
  318POPC   C3A 6941  44.575  31.880   7.985
  318POPC   C4A 6942  44.804  32.144   7.671
  318POPC   C1B 6943  44.690  32.405   8.534
  318POPC   C2B 6944  44.880  32.236   8.185
  318POPC   C3B 6945  44.880  32.588   7.934
  318POPC   C4B 6946  44.484  32.758   7.829
  319POPC   NC3 6947  43.601  38.869   9.542
  319POPC   PO4 6948  43.837  39.415   9.517
  319POPC   GL1 6949  43.705  39.290   9.080
  319POPC   GL2 6950  43.751  38.964   8.987
  319POPC   C1A 6951  44.018  39.328   8.716
  319POPC   D2A 6952  44.199  39.126   8.344
  319POPC   C3A 6953  44.193  39.402   7.988
  319POPC   C4A 6954  44.024  39.465   7.562
  319POPC   C1B 6955  43.652  39.031   8.524
  319POPC   C2B 6956  43.704  39.261   8.150
  319POPC   C3B 6957  43.783  39.091   7.777
  319POPC   C4B 6958  43.635  38.711   7.565
  320POPC   NC3 6959   1.628  26.813   9.550
  320POPC   PO4 6960   2.242  26.598   9.649
  320POPC   GL1 6961   2.213  26.756   9.221
  320POPC   GL2 6962   1.955  27.027   9.199
  320POPC   C1A 6963   2.023  26.677   8.831
  320POPC   D2A 6964   1.867  26.839   8.445
  320POPC   C3A 6965   1.960  26.686   8.040
  320POPC   C4A 6966   1.664  26.958   7.835
  320POPC   C1B 6967   2.036  27.189   8.769
  320POPC   C2B 6968   2.283  27.146   8.350
  320POPC   C3B 6969   2.204  27.101   7.872
  320POPC   C4B 6970   1.939  27.317   7.585
  321POPC   NC3 6971  29.905  34.404   9.730
  321POPC   PO4 6972  30.240  34.797   9.370
  321POPC   GL1 6973  30.113  34.528   9.059
  321POPC   GL2 6974  29.805  34.448   9.224
  321POPC   C1A 6975  29.994  34.707   8.667
  321POPC   D2A 6976  29.918  34.947   8.277
  321POPC   C3A 6977  29.997  34.686   7.963
  321POPC   C4A 6978  29.988  34.515   7.598
  321POPC   C1B 6979  29.663  34.337   8.802
  321POPC   C2B 6980  29.716  34.429   8.330
  321POPC   C3B 6981  29.623  34.301   7.898
  321POPC   C4B 6982  29.571  34.311   7.412
  322POPC   NC3 6983  43.654   2.994   9.560
  322POPC   PO4 6984  43.699   2.365   9.359
  322POPC   GL1 6985  43.862   2.543   9.016
  322POPC   GL2 6986  43.937   2.860   9.135
  322POPC   C1A 6987  44.080   2.633   8.642
  322POPC   D2A 6988  43.761   2.747   8.328
  322POPC   C3A 6989  43.854   2.516   7.963
  322POPC   C4A 6990  44.261   2.395   7.860
  322POPC   C1B 6991  43.823   3.051   8.743
  322POPC   C2B 6992  44.130   3.078   8.387
  322POPC   C3B 6993  44.051   2.983   7.975
  322POPC   C4B 6994  44.004   2.936   7.548
  323POPC   NC3 6995   6.920  13.862   9.455
  323POPC   PO4 6996   6.417  13.460   9.569
  323POPC   GL1 6997   6.541  13.640   9.167
  323POPC   GL2 6998   6.256  13.538   8.994
  323POPC   C1A 6999   6.780  13.717   8.780
  323POPC   D2A 7000   6.804  13.940   8.373
  323POPC   C3A 7001   6.881  13.750   7.973
  323POPC   C4A 7002   6.754  13.395   7.752
  323POPC   C1B 7003   6.396  13.351   8.621
  323POPC   C2B 7004   6.473  13.445   8.180
  323POPC   C3B 7005   6.233  13.450   7.782
  323POPC   C4B 7006   6.169  13.334   7.342
  324POPC   NC3 7007  11.838   8.448   9.815
  324POPC   PO4 7008  11.981   7.944   9.415
  324POPC   GL1 7009  11.980   8.001   8.998
  324POPC   GL2 7010  12.183   8.244   8.996
  324POPC   C1A 7011  12.158   7.987   8.571
  324POPC   D2A 7012  12.449   8.283   8.393
  324POPC   C3A 7013  12.329   8.301   7.984
  324POPC   C4A 7014  11.950   8.213   7.778
  324POPC   C1B 7015  11.889   8.412   8.685
  324POPC   C2B 7016  11.913   8.491   8.291
  324POPC   C3B 7017  11.634   8.596   7.999
  324POPC   C4B 7018  11.851   8.717   7.676
  325POPC   NC3 7019   2.341   8.982   9.573
  325POPC   PO4 7020   1.688   8.795   9.527
  325POPC   GL1 7021   1.920   8.924   9.177
  325POPC   GL2 7022   2.038   9.240   9.211
  325POPC   C1A 7023   1.832   9.083   8.774
  325POPC   D2A 7024   2.007   8.951   8.409
  325POPC   C3A 7025   1.782   8.806   8.075
  325POPC   C4A 7026   1.946   8.875   7.679
  325POPC   C1B 7027   2.256   9.338   8.772
  325POPC   C2B 7028   2.001   9.462   8.413
  325POPC   C3B 7029   1.914   9.303   8.020
  325POPC   C4B 7030   2.117   9.352   7.640
  326POPC   NC3 7031  22.132  40.962   9.625
  326POPC   PO4 7032  22.435  40.478   9.483
  326POPC   GL1 7033  22.207  40.782   9.144
  326POPC   GL2 7034  21.837  40.890   9.205
  326POPC   C1A 7035  22.083  40.687   8.695
  326POPC   D2A 7036  21.968  40.575   8.244
  326POPC   C3A 7037  22.049  40.615   7.781
  326POPC   C4A 7038  21.816  40.659   7.371
  326POPC   C1B 7039  21.825  41.098   8.802
  326POPC   C2B 7040  22.009  41.085   8.366
  326POPC   C3B 7041  21.823  41.061   7.974
  326POPC   C4B 7042  21.864  41.394   7.708
  327POPC   NC3 7043  38.758  43.326   9.227
  327POPC   PO4 7044  39.227  42.927   9.534
  327POPC   GL1 7045  39.258  43.163   9.170
  327POPC   GL2 7046  39.400  42.851   9.029
  327POPC   C1A 7047  39.452  43.302   8.794
  327POPC   D2A 7048  39.474  43.104   8.407
  327POPC   C3A 7049  39.420  43.332   8.041
  327POPC   C4A 7050  39.595  42.982   7.808
  327POPC   C1B 7051  39.088  42.951   8.708
  327POPC   C2B 7052  38.939  43.021   8.307
  327POPC   C3B 7053  39.053  43.000   7.893
  327POPC   C4B 7054  38.948  43.421   7.820
  328POPC   NC3 7055  38.580  28.747   9.426
  328POPC   PO4 7056  38.827  28.147   9.327
  328POPC   GL1 7057  38.705  28.447   9.031
  328POPC   GL2 7058  38.344  28.479   9.061
  328POPC   C1A 7059  38.603  28.440   8.615
  328POPC   D2A 7060  38.345  28.395   8.291
  328POPC   C3A 7061  38.571  28.230   8.029
  328POPC   C4A 7062  38.528  28.306   7.660
  328POPC   C1B 7063  38.077  28.534   8.711
  328POPC   C2B 7064  37.839  28.525   8.331
  328POPC   C3B 7065  38.037  28.580   7.916
  328POPC   C4B 7066  38.271  28.806   7.592
  329POPC   NC3 7067  21.869   4.194   9.623
  329POPC   PO4 7068  21.340   4.544   9.559
  329POPC   GL1 7069  21.489   4.341   9.224
  329POPC   GL2 7070  21.808   4.297   9.125
  329POPC   C1A 7071  21.401   4.383   8.810
  329POPC   D2A 7072  21.489   4.375   8.404
  329POPC   C3A 7073  21.243   4.575   8.081
  329POPC   C4A 7074  21.112   4.350   7.721
  329POPC   C1B 7075  21.809   4.045   8.729
  329POPC   C2B 7076  21.694   3.916   8.311
  329POPC   C3B 7077  21.559   4.159   7.950
  329POPC   C4B 7078  21.533   4.109   7.527
  330POPC   NC3 7079  35.442  30.082   9.574
  330POPC   PO4 7080  34.884  30.158   9.315
  330POPC   GL1 7081  35.192  29.929   9.092
  330POPC   GL2 7082  35.455  29.709   9.211
  330POPC   C1A 7083  35.422  30.007   8.727
  330POPC   D2A 7084  35.400  30.160   8.335
  330POPC   C3A 7085  35.202  29.939   8.017
  330POPC   C4A 7086  35.442  30.091   7.709
  330POPC   C1B 7087  35.689  29.595   8.830
  330POPC   C2B 7088  35.706  29.465   8.386
  330POPC   C3B 7089  35.616  29.645   7.982
  330POPC   C4B 7090  35.511  29.608   7.526
  331POPC   NC3 7091  26.442   6.025   9.479
  331POPC   PO4 7092  25.757   5.756   9.406
  331POPC   GL1 7093  25.972   5.932   9.038
  331POPC   GL2 7094  26.325   5.912   9.006
  331POPC   C1A 7095  26.042   5.917   8.582
  331POPC   D2A 7096  26.299   6.169   8.294
  331POPC   C3A 7097  26.174   6.190   7.853
  331POPC   C4A 7098  26.064   5.990   7.437
  331POPC   C1B 7099  26.396   5.540   8.770
  331POPC   C2B 7100  26.339   5.563   8.361
  331POPC   C3B 7101  26.115   5.703   8.085
  331POPC   C4B 7102  26.352   5.738   7.788
  332POPC   NC3 7103   8.351   3.110   9.699
  332POPC   PO4 7104   8.175   3.733   9.511
  332POPC   GL1 7105   7.979   3.708   9.132
  332POPC   GL2 7106   8.251   3.531   9.011
  332POPC   C1A 7107   7.882   3.817   8.748
  332POPC   D2A 7108   8.137   3.780   8.415
  332POPC   C3A 7109   8.004   3.722   8.012
  332POPC   C4A 7110   7.905   3.562   7.618
  332POPC   C1B 7111   7.976   3.294   8.724
  332POPC   C2B 7112   7.917   3.325   8.290
  332POPC   C3B 7113   8.182   3.228   7.945
  332POPC   C4B 7114   8.573   3.458   7.899
  333POPC   NC3 7115  30.623  42.958   9.621
  333POPC   PO4 7116  31.106  43.455   9.573
  333POPC   GL1 7117  30.857  43.198   9.227
  333POPC   GL2 7118  30.873  42.799   9.220
  333POPC   C1A 7119  30.737  43.189   8.774
  333POPC   D2A 7120  30.934  43.067   8.361
  333POPC   C3A 7121  30.831  43.149   7.915
  333POPC   C4A 7122  31.087  43.285   7.580
  333POPC   C1B 7123  30.653  42.694   8.852
  333POPC   C2B 7124  30.510  42.806   8.462
  333POPC   C3B 7125  30.577  42.746   8.069
  333POPC   C4B 7126  30.565  42.773   7.637
  334POPC   NC3 7127  10.825  38.269   9.554
  334POPC   PO4 7128  10.453  38.773   9.682
  334POPC   GL1 7129  10.474  38.557   9.255
  334POPC   GL2 7130  10.448  38.210   9.221
  334POPC   C1A 7131  10.661  38.603   8.845
  334POPC   D2A 7132  10.714  38.833   8.460
  334POPC   C3A 7133  10.809  38.570   8.097
  334POPC   C4A 7134  10.783  38.711   7.693
  334POPC   C1B 7135  10.666  38.065   8.861
  334POPC   C2B 7136  10.572  37.957   8.427
  334POPC   C3B 7137  10.383  38.152   8.077
  334POPC   C4B 7138  10.480  38.299   7.688
  335POPC   NC3 7139  12.527  36.921   9.472
  335POPC   PO4 7140  13.169  36.824   9.547
  335POPC   GL1 7141  12.946  36.838   9.184
  335POPC   GL2 7142  12.874  37.172   9.145
  335POPC   C1A 7143  12.770  36.802   8.799
  335POPC   D2A 7144  12.818  36.967   8.420
  335POPC   C3A 7145  12.830  36.728   8.096
  335POPC   C4A 7146  12.937  36.700   7.659
  335POPC   C1B 7147  12.654  37.330   8.772
  335POPC   C2B 7148  12.523  37.379   8.338
  335POPC   C3B 7149  12.749  37.250   7.966
  335POPC   C4B 7150  12.764  37.172   7.527
  336POPC   NC3 7151  36.529  37.001   9.623
  336POPC   PO4 7152  36.039  37.274   9.380
  336POPC   GL1 7153  36.340  37.136   9.133
  336POPC   GL2 7154  36.402  36.801   9.166
  336POPC   C1A 7155  36.254  36.952   8.711
  336POPC   D2A 7156  36.092  37.083   8.340
  336POPC   C3A 7157  36.212  36.902   7.986
  336POPC   C4A 7158  36.234  37.110   7.600
  336POPC   C1B 7159  36.684  36.718   8.827
  336POPC   C2B 7160  36.649  36.629   8.383
  336POPC   C3B 7161  36.546  36.499   7.950
  336POPC   C4B 7162  36.604  36.742   7.580
  337POPC   NC3 7163  43.804   0.904   9.520
  337POPC   PO4 7164  44.014   1.561   9.563
  337POPC   GL1 7165  43.884   1.310   9.206
  337POPC   GL2 7166  43.593   1.534   9.120
  337POPC   C1A 7167  44.063   1.016   8.896
  337POPC   D2A 7168  44.003   0.920   8.440
  337POPC   C3A 7169  43.913   1.068   8.015
  337POPC   C4A 7170  43.850   0.829   7.619
  337POPC   C1B 7171  43.640   1.253   8.749
  337POPC   C2B 7172  43.564   1.267   8.341
  337POPC   C3B 7173  43.376   1.123   7.981
  337POPC   C4B 7174  43.561   1.243   7.610
  338POPC   NC3 7175  16.505   1.638   9.594
  338POPC   PO4 7176  17.038   2.111   9.450
  338POPC   GL1 7177  16.854   2.063   9.081
  338POPC   GL2 7178  16.839   1.729   9.123
  338POPC   C1A 7179  16.934   1.897   8.656
  338POPC   D2A 7180  16.787   1.617   8.357
  338POPC   C3A 7181  16.893   1.798   7.998
  338POPC   C4A 7182  16.668   2.088   7.817
  338POPC   C1B 7183  16.481   1.652   8.812
  338POPC   C2B 7184  16.239   1.607   8.442
  338POPC   C3B 7185  16.359   1.711   8.016
  338POPC   C4B 7186  16.239   1.892   7.611
  339POPC   NC3 7187  31.186   6.423   9.488
  339POPC   PO4 7188  31.239   7.179   9.462
  339POPC   GL1 7189  31.473   6.783   9.207
  339POPC   GL2 7190  31.323   6.508   9.017
  339POPC   C1A 7191  31.696   6.751   8.766
  339POPC   D2A 7192  31.624   6.667   8.312
  339POPC   C3A 7193  31.835   6.730   7.929
  339POPC   C4A 7194  31.812   6.937   7.551
  339POPC   C1B 7195  31.263   6.511   8.634
  339POPC   C2B 7196  31.213   6.340   8.284
  339POPC   C3B 7197  31.205   6.568   7.918
  339POPC   C4B 7198  31.398   6.623   7.540
  340POPC   NC3 7199  18.565  40.451   9.534
  340POPC   PO4 7200  18.020  40.714   9.464
  340POPC   GL1 7201  18.369  40.846   9.148
  340POPC   GL2 7202  18.636  40.638   9.080
  340POPC   C1A 7203  18.445  40.862   8.657
  340POPC   D2A 7204  18.307  41.054   8.274
  340POPC   C3A 7205  18.222  41.011   7.838
  340POPC   C4A 7206  18.261  40.774   7.501
  340POPC   C1B 7207  18.684  40.380   8.743
  340POPC   C2B 7208  18.478  40.414   8.370
  340POPC   C3B 7209  18.548  40.687   8.023
  340POPC   C4B 7210  18.711  40.983   7.670
  341POPC   NC3 7211   7.969   2.347   9.495
  341POPC   PO4 7212   8.340   1.813   9.419
  341POPC   GL1 7213   8.235   1.936   9.069
  341POPC   GL2 7214   8.249   2.310   9.041
  341POPC   C1A 7215   8.398   1.961   8.648
  341POPC   D2A 7216   8.252   2.160   8.256
  341POPC   C3A 7217   8.272   1.875   7.909
  341POPC   C4A 7218   8.522   1.965   7.570
  341POPC   C1B 7219   7.931   2.144   8.739
  341POPC   C2B 7220   7.727   2.029   8.377
  341POPC   C3B 7221   7.771   2.258   8.023
  341POPC   C4B 7222   8.062   2.302   7.722
  342POPC   NC3 7223  34.842   4.298   9.540
  342POPC   PO4 7224  34.243   4.489   9.619
  342POPC   GL1 7225  34.460   4.443   9.243
  342POPC   GL2 7226  34.411   4.099   9.260
  342POPC   C1A 7227  34.703   4.635   8.921
  342POPC   D2A 7228  34.703   4.724   8.482
  342POPC   C3A 7229  35.000   4.538   8.262
  342POPC   C4A 7230  34.839   4.288   7.973
  342POPC   C1B 7231  34.620   4.105   8.863
  342POPC   C2B 7232  34.610   3.997   8.412
  342POPC   C3B 7233  34.306   4.146   8.158
  342POPC   C4B 7234  34.291   4.490   7.894
  343POPC   NC3 7235  13.961  33.062   9.305
  343POPC   PO4 7236  14.572  32.725   9.506
  343POPC   GL1 7237  14.408  32.934   9.102
  343POPC   GL2 7238  14.108  32.706   8.994
  343POPC   C1A 7239  14.544  33.214   8.746
  343POPC   D2A 7240  14.662  33.456   8.341
  343POPC   C3A 7241  14.383  33.441   7.928
  343POPC   C4A 7242  14.041  33.248   7.641
  343POPC   C1B 7243  14.092  33.006   8.668
  343POPC   C2B 7244  14.299  33.062   8.274
  343POPC   C3B 7245  14.381  32.913   7.860
  343POPC   C4B 7246  14.110  32.757   7.508
  344POPC   NC3 7247  13.429  29.179   9.605
  344POPC   PO4 7248  14.075  29.365   9.466
  344POPC   GL1 7249  13.835  29.186   9.131
  344POPC   GL2 7250  13.489  29.174   9.123
  344POPC   C1A 7251  13.778  29.073   8.702
  344POPC   D2A 7252  13.515  28.912   8.397
  344POPC   C3A 7253  13.655  28.900   7.963
  344POPC   C4A 7254  13.558  28.930   7.493
  344POPC   C1B 7255  13.241  29.096   8.798
  344POPC   C2B 7256  13.154  29.274   8.434
  344POPC   C3B 7257  13.417  29.344   8.113
  344POPC   C4B 7258  13.332  29.404   7.726
  345POPC   NC3 7259  14.417  10.894   9.871
  345POPC   PO4 7260  14.102  11.423   9.507
  345POPC   GL1 7261  13.756  11.362   9.172
  345POPC   GL2 7262  13.577  11.035   9.116
  345POPC   C1A 7263  13.533  11.463   8.761
  345POPC   D2A 7264  13.489  11.756   8.391
  345POPC   C3A 7265  13.536  11.475   8.034
  345POPC   C4A 7266  13.724  11.107   7.853
  345POPC   C1B 7267  13.333  10.973   8.709
  345POPC   C2B 7268  13.422  10.966   8.251
  345POPC   C3B 7269  13.226  11.083   7.863
  345POPC   C4B 7270  13.147  11.006   7.430
  346POPC   NC3 7271  32.617  16.105   9.419
  346POPC   PO4 7272  32.028  15.776   9.467
  346POPC   GL1 7273  32.133  16.052   9.107
  346POPC   GL2 7274  32.435  16.165   8.947
  346POPC   C1A 7275  31.948  16.164   8.714
  346POPC   D2A 7276  31.922  16.000   8.289
  346POPC   C3A 7277  32.313  16.050   8.111
  346POPC   C4A 7278  32.280  16.012   7.672
  346POPC   C1B 7279  32.686  15.797   8.795
  346POPC   C2B 7280  32.660  15.560   8.403
  346POPC   C3B 7281  32.763  15.747   7.998
  346POPC   C4B 7282  32.735  16.201   7.835
  347POPC   NC3 7283  23.528  26.228   9.741
  347POPC   PO4 7284  24.112  26.157   9.478
  347POPC   GL1 7285  23.779  26.030   9.200
  347POPC   GL2 7286  23.477  26.223   9.211
  347POPC   C1A 7287  23.600  25.919   8.797
  347POPC   D2A 7288  23.614  26.159   8.392
  347POPC   C3A 7289  23.628  25.975   7.981
  347POPC   C4A 7290  23.613  25.796   7.587
  347POPC   C1B 7291  23.363  26.394   8.775
  347POPC   C2B 7292  23.261  26.553   8.357
  347POPC   C3B 7293  23.549  26.510   7.986
  347POPC   C4B 7294  23.654  26.306   7.571
  348POPC   NC3 7295  12.428   1.243   9.344
  348POPC   PO4 7296  11.992   0.721   9.424
  348POPC   GL1 7297  12.049   1.013   9.073
  348POPC   GL2 7298  12.364   0.957   8.909
  348POPC   C1A 7299  11.744   1.219   8.765
  348POPC   D2A 7300  11.897   1.181   8.348
  348POPC   C3A 7301  11.732   1.034   7.993
  348POPC   C4A 7302  11.793   1.148   7.550
  348POPC   C1B 7303  12.223   1.370   8.710
  348POPC   C2B 7304  12.315   1.508   8.281
  348POPC   C3B 7305  12.133   1.349   7.892
  348POPC   C4B 7306  12.281   1.334   7.454
  349POPC   NC3 7307  15.792  31.729   9.953
  349POPC   PO4 7308  16.053  31.549   9.295
  349POPC   GL1 7309  15.824  31.574   8.954
  349POPC   GL2 7310  15.551  31.839   8.965
  349POPC   C1A 7311  15.969  31.265   8.648
  349POPC   D2A 7312  16.255  31.199   8.291
  349POPC   C3A 7313  16.051  31.090   7.910
  349POPC   C4A 7314  15.643  31.264   7.742
  349POPC   C1B 7315  15.756  31.954   8.593
  349POPC   C2B 7316  16.081  31.709   8.414
  349POPC   C3B 7317  16.020  31.597   8.018
  349POPC   C4B 7318  15.804  31.761   7.672
  350POPC   NC3 7319  18.149  31.011   9.516
  350POPC   PO4 7320  18.588  30.549   9.482
  350POPC   GL1 7321  18.272  30.598   9.216
  350POPC   GL2 7322  18.341  30.905   9.063
  350POPC   C1A 7323  18.136  30.463   8.811
  350POPC   D2A 7324  17.947  30.514   8.390
  350POPC   C3A 7325  18.252  30.591   8.082
  350POPC   C4A 7326  18.539  30.309   7.896
  350POPC   C1B 7327  18.122  30.976   8.662
  350POPC   C2B 7328  18.323  31.094   8.257
  350POPC   C3B 7329  18.225  31.059   7.820
  350POPC   C4B 7330  18.017  31.042   7.439
  351POPC   NC3 7331  12.567  27.026   9.286
  351POPC   PO4 7332  13.031  26.531   9.407
  351POPC   GL1 7333  12.940  26.673   9.050
  351POPC   GL2 7334  12.600  26.534   9.084
  351POPC   C1A 7335  12.957  26.996   8.755
  351POPC   D2A 7336  12.743  27.067   8.399
  351POPC   C3A 7337  12.862  26.935   8.013
  351POPC   C4A 7338  12.660  27.023   7.616
  351POPC   C1B 7339  12.752  26.396   8.677
  351POPC   C2B 7340  13.007  26.608   8.395
  351POPC   C3B 7341  12.923  26.411   8.051
  351POPC   C4B 7342  12.930  26.547   7.680
  352POPC   NC3 7343  43.941  20.778   9.494
  352POPC   PO4 7344  43.452  20.302   9.608
  352POPC   GL1 7345  43.620  20.372   9.175
  352POPC   GL2 7346  43.775  20.686   9.026
  352POPC   C1A 7347  43.660  20.309   8.701
  352POPC   D2A 7348  43.755  20.160   8.287
  352POPC   C3A 7349  43.975  20.485   8.119
  352POPC   C4A 7350  44.151  20.671   7.787
  352POPC   C1B 7351  44.133  20.862   8.811
  352POPC   C2B 7352  44.274  20.800   8.423
  352POPC   C3B 7353  44.150  21.060   8.132
  352POPC   C4B 7354  44.306  21.168   7.747
  353POPC   NC3 7355  26.675  25.028   9.533
  353POPC   PO4 7356  26.779  25.593   9.797
  353POPC   GL1 7357  26.867  25.475   9.366
  353POPC   GL2 7358  26.538  25.428   9.198
  353POPC   C1A 7359  26.976  25.343   8.928
  353POPC   D2A 7360  26.821  25.524   8.528
  353POPC   C3A 7361  26.810  25.365   8.087
  353POPC   C4A 7362  26.624  25.526   7.692
  353POPC   C1B 7363  26.507  25.157   8.832
  353POPC   C2B 7364  26.538  24.999   8.407
  353POPC   C3B 7365  26.773  24.845   8.040
  353POPC   C4B 7366  26.689  24.999   7.631
  354POPC   NC3 7367  16.723  33.946   9.638
  354POPC   PO4 7368  16.343  33.461   9.526
  354POPC   GL1 7369  16.680  33.624   9.216
  354POPC   GL2 7370  16.870  33.975   9.150
  354POPC   C1A 7371  16.640  33.688   8.791
  354POPC   D2A 7372  16.818  33.926   8.489
  354POPC   C3A 7373  16.552  33.833   8.129
  354POPC   C4A 7374  16.396  33.822   7.715
  354POPC   C1B 7375  17.158  33.762   8.864
  354POPC   C2B 7376  17.306  33.641   8.436
  354POPC   C3B 7377  17.058  33.756   8.077
  354POPC   C4B 7378  16.865  33.588   7.743
  355POPC   NC3 7379  39.932  13.620   9.595
  355POPC   PO4 7380  39.546  14.072   9.468
  355POPC   GL1 7381  39.968  13.929   9.187
  355POPC   GL2 7382  40.097  13.543   9.137
  355POPC   C1A 7383  40.100  13.833   8.727
  355POPC   D2A 7384  39.980  13.607   8.357
  355POPC   C3A 7385  40.129  13.677   7.967
  355POPC   C4A 7386  39.839  13.599   7.609
  355POPC   C1B 7387  40.432  13.439   8.846
  355POPC   C2B 7388  40.397  13.275   8.432
  355POPC   C3B 7389  40.300  13.205   8.011
  355POPC   C4B 7390  40.296  13.361   7.598
  356POPC   NC3 7391  20.920  41.596   9.523
  356POPC   PO4 7392  20.444  41.149   9.470
  356POPC   GL1 7393  20.547  41.487   9.140
  356POPC   GL2 7394  20.834  41.484   9.040
  356POPC   C1A 7395  20.495  41.370   8.691
  356POPC   D2A 7396  20.530  41.142   8.354
  356POPC   C3A 7397  20.350  41.373   8.038
  356POPC   C4A 7398  20.452  41.226   7.681
  356POPC   C1B 7399  20.982  41.268   8.674
  356POPC   C2B 7400  21.100  41.397   8.280
  356POPC   C3B 7401  20.881  41.493   7.890
  356POPC   C4B 7402  20.938  41.518   7.407
  357POPC   NC3 7403  35.905  23.126   9.415
  357POPC   PO4 7404  36.571  22.952   9.468
  357POPC   GL1 7405  36.241  22.882   9.155
  357POPC   GL2 7406  36.258  23.245   9.076
  357POPC   C1A 7407  36.065  22.708   8.778
  357POPC   D2A 7408  35.898  22.693   8.367
  357POPC   C3A 7409  36.221  22.598   8.101
  357POPC   C4A 7410  36.343  22.832   7.763
  357POPC   C1B 7411  36.079  23.208   8.674
  357POPC   C2B 7412  36.144  23.419   8.300
  357POPC   C3B 7413  36.078  23.227   7.936
  357POPC   C4B 7414  36.002  23.181   7.500
  358POPC   NC3 7415  18.030  13.501   9.637
  358POPC   PO4 7416  17.802  14.006   9.359
  358POPC   GL1 7417  18.189  13.796   9.216
  358POPC   GL2 7418  18.410  13.461   9.200
  358POPC   C1A 7419  18.263  13.764   8.798
  358POPC   D2A 7420  18.124  13.680   8.392
  358POPC   C3A 7421  18.341  13.985   8.118
  358POPC   C4A 7422  18.320  13.986   7.647
  358POPC   C1B 7423  18.429  13.283   8.740
  358POPC   C2B 7424  18.532  13.044   8.374
  358POPC   C3B 7425  18.516  13.237   7.973
  358POPC   C4B 7426  18.228  13.537   7.914
  359POPC   NC3 7427   3.845  34.884   9.424
  359POPC   PO4 7428   4.413  34.482   9.470
  359POPC   GL1 7429   4.459  34.669   9.090
  359POPC   GL2 7430   4.340  35.016   9.195
  359POPC   C1A 7431   4.339  34.468   8.701
  359POPC   D2A 7432   4.206  34.238   8.330
  359POPC   C3A 7433   4.307  34.474   7.986
  359POPC   C4A 7434   4.627  34.507   7.676
  359POPC   C1B 7435   4.195  34.986   8.768
  359POPC   C2B 7436   4.267  34.873   8.342
  359POPC   C3B 7437   4.065  34.966   7.950
  359POPC   C4B 7438   4.086  34.699   7.598
  360POPC   NC3 7439   6.524  32.811   9.336
  360POPC   PO4 7440   6.909  33.416   9.474
  360POPC   GL1 7441   6.741  33.247   9.102
  360POPC   GL2 7442   6.932  32.968   9.036
  360POPC   C1A 7443   6.467  33.221   8.673
  360POPC   D2A 7444   6.281  33.391   8.317
  360POPC   C3A 7445   6.298  33.069   8.070
  360POPC   C4A 7446   6.589  32.980   7.789
  360POPC   C1B 7447   6.968  33.216   8.655
  360POPC   C2B 7448   6.807  33.140   8.271
  360POPC   C3B 7449   6.958  32.753   8.176
  360POPC   C4B 7450   6.948  32.543   7.817
  361POPC   NC3 7451  23.410  36.628   9.534
  361POPC   PO4 7452  23.028  36.001   9.405
  361POPC   GL1 7453  22.747  36.050   9.047
  361POPC   GL2 7454  22.898  36.369   9.000
  361POPC   C1A 7455  22.572  36.223   8.646
  361POPC   D2A 7456  22.765  36.258   8.259
  361POPC   C3A 7457  22.838  35.881   8.019
  361POPC   C4A 7458  22.621  35.809   7.640
  361POPC   C1B 7459  23.131  36.125   8.688
  361POPC   C2B 7460  23.270  36.146   8.269
  361POPC   C3B 7461  23.145  36.256   7.873
  361POPC   C4B 7462  23.440  36.032   7.630
  362POPC   NC3 7463  11.710  10.767   9.364
  362POPC   PO4 7464  12.218  10.289   9.441
  362POPC   GL1 7465  12.215  10.459   9.048
  362POPC   GL2 7466  11.880  10.444   9.003
  362POPC   C1A 7467  12.218  10.518   8.623
  362POPC   D2A 7468  12.084  10.359   8.252
  362POPC   C3A 7469  12.096  10.589   7.868
  362POPC   C4A 7470  12.371  10.797   7.584
  362POPC   C1B 7471  11.797  10.137   8.681
  362POPC   C2B 7472  11.614  10.085   8.301
  362POPC   C3B 7473  11.625  10.440   8.053
  362POPC   C4B 7474  11.658  10.455   7.641
  363POPC   NC3 7475  36.528  40.088   9.534
  363POPC   PO4 7476  37.056  39.650   9.483
  363POPC   GL1 7477  36.824  39.847   9.166
  363POPC   GL2 7478  36.910  40.211   9.213
  363POPC   C1A 7479  36.898  40.010   8.751
  363POPC   D2A 7480  37.137  40.144   8.402
  363POPC   C3A 7481  37.061  39.979   7.981
  363POPC   C4A 7482  37.025  39.922   7.525
  363POPC   C1B 7483  36.539  40.341   8.938
  363POPC   C2B 7484  36.560  40.446   8.495
  363POPC   C3B 7485  36.746  40.342   8.118
  363POPC   C4B 7486  36.611  40.107   7.762
  364POPC   NC3 7487  33.408  21.608   9.657
  364POPC   PO4 7488  33.821  21.170   9.832
  364POPC   GL1 7489  33.880  21.312   9.364
  364POPC   GL2 7490  33.624  21.470   9.172
  364POPC   C1A 7491  34.084  21.487   8.941
  364POPC   D2A 7492  33.965  21.737   8.547
  364POPC   C3A 7493  34.007  21.595   8.147
  364POPC   C4A 7494  33.955  21.430   7.770
  364POPC   C1B 7495  33.523  21.535   8.735
  364POPC   C2B 7496  33.464  21.806   8.359
  364POPC   C3B 7497  33.528  21.683   7.941
  364POPC   C4B 7498  33.468  21.356   7.682
  365POPC   NC3 7499   1.629  37.842   9.416
  365POPC   PO4 7500   2.175  37.384   9.394
  365POPC   GL1 7501   1.963  37.625   9.050
  365POPC   GL2 7502   2.123  37.940   8.966
  365POPC   C1A 7503   2.012  37.476   8.607
  365POPC   D2A 7504   2.116  37.319   8.152
  365POPC   C3A 7505   1.823  37.388   7.800
  365POPC   C4A 7506   1.599  37.402   7.397
  365POPC   C1B 7507   1.848  37.951   8.585
  365POPC   C2B 7508   1.803  37.756   8.194
  365POPC   C3B 7509   2.105  37.787   7.897
  365POPC   C4B 7510   2.166  38.093   7.618
  366POPC   NC3 7511  13.278  43.574   9.525
  366POPC   PO4 7512  13.913  43.802   9.505
  366POPC   GL1 7513  13.713  43.658   9.110
  366POPC   GL2 7514  13.899  43.343   9.111
  366POPC   C1A 7515  13.605  43.884   8.685
  366POPC   D2A 7516  13.766  44.192   8.415
  366POPC   C3A 7517  13.630  44.004   8.056
  366POPC   C4A 7518  13.695  44.073   7.646
  366POPC   C1B 7519  13.976  43.487   8.711
  366POPC   C2B 7520  13.960  43.714   8.322
  366POPC   C3B 7521  14.015  43.693   7.870
  366POPC   C4B 7522  13.741  43.582   7.549
  367POPC   NC3 7523   7.652  17.207   9.536
  367POPC   PO4 7524   7.468  17.828   9.598
  367POPC   GL1 7525   7.476  17.592   9.204
  367POPC   GL2 7526   7.816  17.475   9.145
  367POPC   C1A 7527   7.242  17.420   8.802
  367POPC   D2A 7528   7.011  17.540   8.417
  367POPC   C3A 7529   7.082  17.366   8.052
  367POPC   C4A 7530   7.263  17.562   7.732
  367POPC   C1B 7531   7.734  17.550   8.753
  367POPC   C2B 7532   7.517  17.553   8.381
  367POPC   C3B 7533   7.610  17.326   8.035
  367POPC   C4B 7534   7.742  17.371   7.637
  368POPC   NC3 7535  31.850  16.274   9.462
  368POPC   PO4 7536  31.309  15.913   9.560
  368POPC   GL1 7537  31.317  15.745   9.129
  368POPC   GL2 7538  31.688  15.727   9.056
  368POPC   C1A 7539  31.257  16.050   8.807
  368POPC   D2A 7540  31.490  16.243   8.473
  368POPC   C3A 7541  31.458  16.064   8.055
  368POPC   C4A 7542  31.809  16.217   7.788
  368POPC   C1B 7543  31.642  15.738   8.624
  368POPC   C2B 7544  31.597  15.583   8.201
  368POPC   C3B 7545  31.708  15.708   7.783
  368POPC   C4B 7546  31.985  15.628   7.419
  369POPC   NC3 7547  12.569  32.428   9.555
  369POPC   PO4 7548  11.895  32.119   9.535
  369POPC   GL1 7549  11.998  32.268   9.141
  369POPC   GL2 7550  12.352  32.349   9.094
  369POPC   C1A 7551  11.940  32.400   8.729
  369POPC   D2A 7552  11.780  32.624   8.391
  369POPC   C3A 7553  11.958  32.434   8.034
  369POPC   C4A 7554  11.802  32.131   7.780
  369POPC   C1B 7555  12.377  32.139   8.697
  369POPC   C2B 7556  12.174  32.087   8.333
  369POPC   C3B 7557  12.379  32.150   7.956
  369POPC   C4B 7558  12.303  32.270   7.552
  370POPC   NC3 7559  31.401  22.332   9.452
  370POPC   PO4 7560  31.663  21.690   9.510
  370POPC   GL1 7561  31.503  21.928   9.151
  370POPC   GL2 7562  31.131  21.962   9.152
  370POPC   C1A 7563  31.656  22.002   8.729
  370POPC   D2A 7564  31.771  22.140   8.323
  370POPC   C3A 7565  31.477  22.178   7.973
  370POPC   C4A 7566  31.651  22.210   7.572
  370POPC   C1B 7567  31.254  22.285   8.838
  370POPC   C2B 7568  31.165  22.330   8.432
  370POPC   C3B 7569  31.186  22.586   8.124
  370POPC   C4B 7570  31.076  22.566   7.715
  371POPC   NC3 7571  35.824  38.506   9.461
  371POPC   PO4 7572  36.270  39.026   9.569
  371POPC   GL1 7573  36.256  38.728   9.190
  371POPC   GL2 7574  35.962  38.600   8.996
  371POPC   C1A 7575  36.411  38.488   8.805
  371POPC   D2A 7576  36.431  38.635   8.387
  371POPC   C3A 7577  36.393  38.426   7.979
  371POPC   C4A 7578  36.211  38.367   7.526
  371POPC   C1B 7579  35.921  38.574   8.579
  371POPC   C2B 7580  35.909  38.491   8.152
  371POPC   C3B 7581  35.898  38.662   7.781
  371POPC   C4B 7582  35.898  39.069   7.696
  372POPC   NC3 7583  30.305  23.408   9.435
  372POPC   PO4 7584  29.719  23.821   9.608
  372POPC   GL1 7585  29.895  23.651   9.231
  372POPC   GL2 7586  29.849  23.338   9.089
  372POPC   C1A 7587  29.720  23.796   8.854
  372POPC   D2A 7588  29.757  23.628   8.449
  372POPC   C3A 7589  29.993  23.878   8.147
  372POPC   C4A 7590  29.844  24.046   7.785
  372POPC   C1B 7591  30.157  23.506   8.771
  372POPC   C2B 7592  30.242  23.451   8.326
  372POPC   C3B 7593  30.029  23.424   7.920
  372POPC   C4B 7594  30.233  23.327   7.549
  373POPC   NC3 7595  24.480  23.982   9.598
  373POPC   PO4 7596  24.640  23.328   9.484
  373POPC   GL1 7597  24.484  23.585   9.126
  373POPC   GL2 7598  24.574  23.917   9.107
  373POPC   C1A 7599  24.260  23.559   8.721
  373POPC   D2A 7600  24.200  23.756   8.291
  373POPC   C3A 7601  24.329  23.590   7.894
  373POPC   C4A 7602  24.557  23.436   7.542
  373POPC   C1B 7603  24.403  24.028   8.712
  373POPC   C2B 7604  24.176  24.249   8.422
  373POPC   C3B 7605  24.283  24.195   8.008
  373POPC   C4B 7606  24.524  24.006   7.722
  374POPC   NC3 7607   3.940  11.724   9.274
  374POPC   PO4 7608   4.472  11.932   9.599
  374POPC   GL1 7609   4.330  12.058   9.166
  374POPC   GL2 7610   4.644  12.049   9.121
  374POPC   C1A 7611   4.155  12.027   8.696
  374POPC   D2A 7612   3.842  11.869   8.384
  374POPC   C3A 7613   4.024  12.152   8.133
  374POPC   C4A 7614   4.164  12.276   7.747
  374POPC   C1B 7615   4.565  11.764   8.795
  374POPC   C2B 7616   4.579  11.866   8.399
  374POPC   C3B 7617   4.506  12.004   8.016
  374POPC   C4B 7618   4.656  12.092   7.636
  375POPC   NC3 7619  44.306   4.849   9.523
  375POPC   PO4 7620  44.871   5.127   9.563
  375POPC   GL1 7621  44.706   5.101   9.181
  375POPC   GL2 7622   0.018   4.946   9.065
  375POPC   C1A 7623  44.574   5.124   8.754
  375POPC   D2A 7624  44.783   4.947   8.418
  375POPC   C3A 7625  44.640   5.125   8.040
  375POPC   C4A 7626  44.385   5.212   7.684
  375POPC   C1B 7627   0.037   5.369   8.873
  375POPC   C2B 7628  44.861   5.486   8.456
  375POPC   C3B 7629   0.040   5.476   8.061
  375POPC   C4B 7630  44.848   5.431   7.676
  376POPC   NC3 7631  19.978  22.325   9.523
  376POPC   PO4 7632  19.388  22.159   9.323
  376POPC   GL1 7633  19.748  22.052   9.140
  376POPC   GL2 7634  20.009  22.273   9.025
  376POPC   C1A 7635  19.827  21.850   8.776
  376POPC   D2A 7636  20.003  21.775   8.396
  376POPC   C3A 7637  19.795  21.740   8.021
  376POPC   C4A 7638  20.034  21.789   7.676
  376POPC   C1B 7639  19.970  22.542   8.708
  376POPC   C2B 7640  19.891  22.469   8.299
  376POPC   C3B 7641  19.969  22.236   7.938
  376POPC   C4B 7642  20.001  22.293   7.492
  377POPC   NC3 7643  32.654  27.134   9.468
  377POPC   PO4 7644  32.084  26.755   9.518
  377POPC   GL1 7645  32.121  26.688   9.115
  377POPC   GL2 7646  31.986  26.321   9.122
  377POPC   C1A 7647  32.419  26.883   8.770
  377POPC   D2A 7648  32.630  26.861   8.326
  377POPC   C3A 7649  32.336  27.002   8.006
  377POPC   C4A 7650  32.157  27.378   7.797
  377POPC   C1B 7651  32.237  26.399   8.736
  377POPC   C2B 7652  32.183  26.639   8.377
  377POPC   C3B 7653  32.046  26.574   7.963
  377POPC   C4B 7654  31.815  26.949   7.868
  378POPC   NC3 7655  44.933  38.979   9.685
  378POPC   PO4 7656  44.653  39.476   9.403
  378POPC   GL1 7657  44.412  39.446   9.050
  378POPC   GL2 7658  44.191  39.225   9.196
  378POPC   C1A 7659  44.554  39.338   8.653
  378POPC   D2A 7660  44.832  39.242   8.344
  378POPC   C3A 7661  44.719  39.293   7.927
  378POPC   C4A 7662  44.976  39.265   7.559
  378POPC   C1B 7663  44.304  38.933   8.871
  378POPC   C2B 7664  44.613  38.812   8.564
  378POPC   C3B 7665  44.631  38.796   8.120
  378POPC   C4B 7666  44.301  38.931   7.852
  379POPC   NC3 7667  27.690   8.306   9.480
  379POPC   PO4 7668  27.242   7.844   9.408
  379POPC   GL1 7669  27.426   8.099   9.076
  379POPC   GL2 7670  27.310   8.444   9.167
  379POPC   C1A 7671  27.803   8.165   8.780
  379POPC   D2A 7672  27.992   8.423   8.420
  379POPC   C3A 7673  27.848   8.298   7.988
  379POPC   C4A 7674  27.978   7.926   7.755
  379POPC   C1B 7675  27.421   8.508   8.750
  379POPC   C2B 7676  27.508   8.562   8.310
  379POPC   C3B 7677  27.314   8.413   7.930
  379POPC   C4B 7678  27.333   7.994   7.761
  380POPC   NC3 7679  10.632  22.619   9.375
  380POPC   PO4 7680  10.570  21.961   9.484
  380POPC   GL1 7681  10.303  21.998   9.147
  380POPC   GL2 7682  10.386  22.334   9.025
  380POPC   C1A 7683  10.285  21.916   8.722
  380POPC   D2A 7684  10.523  22.065   8.401
  380POPC   C3A 7685  10.354  21.979   8.018
  380POPC   C4A 7686  10.253  22.211   7.674
  380POPC   C1B 7687  10.784  22.126   8.839
  380POPC   C2B 7688  11.017  22.145   8.420
  380POPC   C3B 7689  10.836  22.171   8.012
  380POPC   C4B 7690  10.811  22.370   7.625
  381POPC   NC3 7691   6.319  39.387   9.499
  381POPC   PO4 7692   6.792  39.775   9.459
  381POPC   GL1 7693   6.752  39.457   9.105
  381POPC   GL2 7694   6.544  39.129   9.114
  381POPC   C1A 7695   6.758  39.256   8.682
  381POPC   D2A 7696   6.508  39.390   8.335
  381POPC   C3A 7697   6.789  39.396   8.010
  381POPC   C4A 7698   6.743  39.393   7.581
  381POPC   C1B 7699   6.270  39.076   8.710
  381POPC   C2B 7700   6.226  38.959   8.251
  381POPC   C3B 7701   6.293  39.213   7.853
  381POPC   C4B 7702   6.402  39.040   7.425
  382POPC   NC3 7703  15.798  40.579   9.503
  382POPC   PO4 7704  16.218  41.156   9.483
  382POPC   GL1 7705  15.967  40.916   9.160
  382POPC   GL2 7706  16.212  40.686   9.161
  382POPC   C1A 7707  15.881  40.573   8.788
  382POPC   D2A 7708  15.933  40.380   8.343
  382POPC   C3A 7709  15.726  40.504   7.929
  382POPC   C4A 7710  15.520  40.927   7.765
  382POPC   C1B 7711  16.229  40.920   8.735
  382POPC   C2B 7712  15.931  40.913   8.399
  382POPC   C3B 7713  15.933  41.093   8.011
  382POPC   C4B 7714  16.025  40.851   7.667
  383POPC   NC3 7715   9.263  12.880   9.496
  383POPC   PO4 7716   9.083  13.518   9.369
  383POPC   GL1 7717   8.907  13.111   9.185
  383POPC   GL2 7718   8.785  12.777   9.296
  383POPC   C1A 7719   9.103  12.877   8.850
  383POPC   D2A 7720   9.226  13.034   8.452
  383POPC   C3A 7721   9.195  12.696   8.157
  383POPC   C4A 7722   9.055  12.730   7.727
  383POPC   C1B 7723   8.595  12.733   8.885
  383POPC   C2B 7724   8.743  12.590   8.494
  383POPC   C3B 7725   8.732  12.500   8.050
  383POPC   C4B 7726   8.542  12.518   7.654
  384POPC   NC3 7727  11.095   6.034   9.399
  384POPC   PO4 7728  11.700   6.198   9.152
  384POPC   GL1 7729  11.356   5.967   8.966
  384POPC   GL2 7730  11.276   5.629   9.117
  384POPC   C1A 7731  11.111   5.777   8.633
  384POPC   D2A 7732  11.098   5.676   8.200
  384POPC   C3A 7733  11.187   5.998   7.897
  384POPC   C4A 7734  11.172   5.969   7.446
  384POPC   C1B 7735  11.562   5.528   8.757
  384POPC   C2B 7736  11.597   5.678   8.310
  384POPC   C3B 7737  11.508   5.555   7.870
  384POPC   C4B 7738  11.630   5.761   7.458
  385POPC   NC3 7739  34.983  20.056   9.414
  385POPC   PO4 7740  35.472  19.599   9.542
  385POPC   GL1 7741  35.347  19.793   9.164
  385POPC   GL2 7742  35.398  20.161   9.127
  385POPC   C1A 7743  35.419  19.771   8.749
  385POPC   D2A 7744  35.681  19.694   8.431
  385POPC   C3A 7745  35.437  19.561   8.146
  385POPC   C4A 7746  35.185  19.649   7.786
  385POPC   C1B 7747  35.211  20.238   8.709
  385POPC   C2B 7748  35.267  20.047   8.276
  385POPC   C3B 7749  35.222  20.191   7.818
  385POPC   C4B 7750  34.961  20.084   7.434
  386POPC   NC3 7751  15.772   3.617  10.172
  386POPC   PO4 7752  16.052   3.202   9.700
  386POPC   GL1 7753  16.100   3.324   9.208
  386POPC   GL2 7754  16.265   3.090   9.045
  386POPC   C1A 7755  16.147   3.503   8.724
  386POPC   D2A 7756  16.244   3.605   8.243
  386POPC   C3A 7757  16.072   3.763   7.813
  386POPC   C4A 7758  16.026   3.799   7.334
  386POPC   C1B 7759  15.934   3.039   8.737
  386POPC   C2B 7760  15.789   3.278   8.372
  386POPC   C3B 7761  15.889   3.312   7.940
  386POPC   C4B 7762  16.015   3.321   7.482
  387POPC   NC3 7763  32.939  20.177   9.514
  387POPC   PO4 7764  33.106  19.577   9.828
  387POPC   GL1 7765  33.176  19.708   9.308
  387POPC   GL2 7766  32.982  19.993   9.047
  387POPC   C1A 7767  33.156  19.577   8.831
  387POPC   D2A 7768  33.344  19.803   8.450
  387POPC   C3A 7769  33.114  19.846   8.058
  387POPC   C4A 7770  32.733  19.957   7.882
  387POPC   C1B 7771  33.182  20.242   8.667
  387POPC   C2B 7772  33.291  20.315   8.197
  387POPC   C3B 7773  33.190  20.276   7.729
  387POPC   C4B 7774  33.184  20.458   7.279
  388POPC   NC3 7775   2.587  13.173   9.398
  388POPC   PO4 7776   2.968  12.642   9.434
  388POPC   GL1 7777   2.968  12.924   9.089
  388POPC   GL2 7778   2.692  12.713   8.971
  388POPC   C1A 7779   3.027  12.939   8.640
  388POPC   D2A 7780   2.828  12.628   8.377
  388POPC   C3A 7781   2.714  12.790   7.997
  388POPC   C4A 7782   2.870  13.071   7.709
  388POPC   C1B 7783   2.575  12.331   8.710
  388POPC   C2B 7784   2.410  12.314   8.276
  388POPC   C3B 7785   2.296  12.497   7.879
  388POPC   C4B 7786   2.512  12.735   7.518
  389POPC   NC3 7787  32.544  40.088   9.523
  389POPC   PO4 7788  32.200  39.587   9.553
  389POPC   GL1 7789  32.125  39.970   9.257
  389POPC   GL2 7790  31.808  40.067   9.140
  389POPC   C1A 7791  32.176  40.182   8.828
  389POPC   D2A 7792  32.355  40.196   8.414
  389POPC   C3A 7793  32.186  40.214   8.003
  389POPC   C4A 7794  32.346  39.895   7.726
  389POPC   C1B 7795  31.898  39.713   8.878
  389POPC   C2B 7796  31.903  39.549   8.462
  389POPC   C3B 7797  31.989  39.731   8.074
  389POPC   C4B 7798  31.972  39.558   7.672
  390POPC   NC3 7799   6.414   0.298   9.431
  390POPC   PO4 7800   6.591   0.914   9.477
  390POPC   GL1 7801   6.688   0.599   9.127
  390POPC   GL2 7802   6.750   0.214   9.093
  390POPC   C1A 7803   6.820   0.539   8.711
  390POPC   D2A 7804   6.861   0.731   8.330
  390POPC   C3A 7805   6.803   0.526   7.925
  390POPC   C4A 7806   6.407   0.695   7.780
  390POPC   C1B 7807   6.412   0.252   8.763
  390POPC   C2B 7808   6.557   0.317   8.321
  390POPC   C3B 7809   6.350   0.217   7.915
  390POPC   C4B 7810   6.286  44.993   7.526
  391POPC   NC3 7811   4.472   4.746   9.476
  391POPC   PO4 7812   4.230   4.098   9.364
  391POPC   GL1 7813   4.156   4.459   9.154
  391POPC   GL2 7814   4.509   4.467   9.061
  391POPC   C1A 7815   4.096   4.495   8.715
  391POPC   D2A 7816   4.083   4.203   8.341
  391POPC   C3A 7817   4.120   4.365   7.907
  391POPC   C4A 7818   4.161   4.189   7.483
  391POPC   C1B 7819   4.610   4.636   8.711
  391POPC   C2B 7820   4.448   4.580   8.339
  391POPC   C3B 7821   4.593   4.391   8.027
  391POPC   C4B 7822   4.668   4.638   7.719
  392POPC   NC3 7823   5.826  26.260   9.729
  392POPC   PO4 7824   5.512  26.860   9.659
  392POPC   GL1 7825   5.770  26.923   9.229
  392POPC   GL2 7826   5.662  26.695   8.954
  392POPC   C1A 7827   6.094  26.954   8.865
  392POPC   D2A 7828   6.166  26.999   8.417
  392POPC   C3A 7829   5.913  26.840   8.064
  392POPC   C4A 7830   5.985  27.110   7.713
  392POPC   C1B 7831   5.651  26.751   8.526
  392POPC   C2B 7832   5.388  26.947   8.216
  392POPC   C3B 7833   5.487  27.113   7.814
  392POPC   C4B 7834   5.551  26.994   7.385
  393POPC   NC3 7835  42.561  41.522   9.501
  393POPC   PO4 7836  42.019  41.299   9.351
  393POPC   GL1 7837  42.220  41.628   9.081
  393POPC   GL2 7838  42.552  41.806   9.075
  393POPC   C1A 7839  42.226  41.655   8.618
  393POPC   D2A 7840  42.033  41.431   8.245
  393POPC   C3A 7841  42.081  41.624   7.831
  393POPC   C4A 7842  42.153  41.480   7.400
  393POPC   C1B 7843  42.641  41.450   8.849
  393POPC   C2B 7844  42.628  41.396   8.417
  393POPC   C3B 7845  42.558  41.468   8.011
  393POPC   C4B 7846  42.575  41.732   7.676
  394POPC   NC3 7847  13.943   1.048   9.595
  394POPC   PO4 7848  13.683   1.610   9.732
  394POPC   GL1 7849  13.698   1.352   9.266
  394POPC   GL2 7850  13.981   1.169   9.093
  394POPC   C1A 7851  13.576   1.312   8.796
  394POPC   D2A 7852  13.675   1.262   8.373
  394POPC   C3A 7853  13.368   0.976   8.150
  394POPC   C4A 7854  13.175   1.150   7.790
  394POPC   C1B 7855  13.891   0.913   8.681
  394POPC   C2B 7856  13.885   0.833   8.205
  394POPC   C3B 7857  13.727   1.124   7.857
  394POPC   C4B 7858  13.886   1.000   7.502
  395POPC   NC3 7859  34.453  24.904   9.430
  395POPC   PO4 7860  34.562  24.262   9.722
  395POPC   GL1 7861  34.579  24.295   9.266
  395POPC   GL2 7862  34.853  24.525   9.203
  395POPC   C1A 7863  34.424  24.513   8.874
  395POPC   D2A 7864  34.353  24.796   8.511
  395POPC   C3A 7865  34.371  24.574   8.120
  395POPC   C4A 7866  34.350  24.427   7.688
  395POPC   C1B 7867  34.935  24.533   8.756
  395POPC   C2B 7868  34.843  24.648   8.334
  395POPC   C3B 7869  34.831  24.453   7.922
  395POPC   C4B 7870  34.750  24.733   7.596
  396POPC   NC3 7871  29.929  17.509   9.512
  396POPC   PO4 7872  29.557  17.028   9.362
  396POPC   GL1 7873  29.847  17.264   9.073
  396POPC   GL2 7874  30.038  17.555   9.013
  396POPC   C1A 7875  30.027  17.172   8.701
  396POPC   D2A 7876  30.153  17.367   8.337
  396POPC   C3A 7877  29.802  17.433   8.159
  396POPC   C4A 7878  29.896  17.100   7.898
  396POPC   C1B 7879  29.931  17.706   8.629
  396POPC   C2B 7880  30.045  17.934   8.266
  396POPC   C3B 7881  30.195  17.894   7.857
  396POPC   C4B 7882  30.013  17.539   7.704
  397POPC   NC3 7883  31.429  20.434   9.544
  397POPC   PO4 7884  31.834  20.873   9.212
  397POPC   GL1 7885  31.558  20.557   9.060
  397POPC   GL2 7886  31.221  20.620   9.136
  397POPC   C1A 7887  31.658  20.411   8.664
  397POPC   D2A 7888  31.888  20.656   8.381
  397POPC   C3A 7889  31.601  20.854   8.136
  397POPC   C4A 7890  31.455  20.591   7.819
  397POPC   C1B 7891  31.179  20.611   8.688
  397POPC   C2B 7892  31.263  20.422   8.271
  397POPC   C3B 7893  31.051  20.289   7.841
  397POPC   C4B 7894  30.827  20.322   7.426
  398POPC   NC3 7895  11.441   3.452   9.514
  398POPC   PO4 7896  10.921   3.839   9.423
  398POPC   GL1 7897  11.131   3.480   9.114
  398POPC   GL2 7898  11.476   3.274   9.047
  398POPC   C1A 7899  11.234   3.530   8.667
  398POPC   D2A 7900  11.131   3.350   8.299
  398POPC   C3A 7901  10.931   3.643   8.036
  398POPC   C4A 7902  11.109   3.583   7.664
  398POPC   C1B 7903  11.689   3.652   8.831
  398POPC   C2B 7904  11.660   3.877   8.427
  398POPC   C3B 7905  11.461   3.720   8.062
  398POPC   C4B 7906  11.546   3.390   7.779
  399POPC   NC3 7907  18.971   1.614   9.793
  399POPC   PO4 7908  19.237   0.992   9.514
  399POPC   GL1 7909  18.941   1.174   9.204
  399POPC   GL2 7910  19.189   1.316   8.935
  399POPC   C1A 7911  18.718   1.230   8.804
  399POPC   D2A 7912  18.999   1.284   8.434
  399POPC   C3A 7913  18.846   1.184   8.025
  399POPC   C4A 7914  18.950   1.308   7.613
  399POPC   C1B 7915  19.528   1.277   8.659
  399POPC   C2B 7916  19.606   1.056   8.303
  399POPC   C3B 7917  19.374   1.088   7.936
  399POPC   C4B 7918  19.454   1.240   7.543
  400POPC   NC3 7919  25.287  33.241   9.706
  400POPC   PO4 7920  25.386  33.845   9.410
  400POPC   GL1 7921  25.439  33.823   9.017
  400POPC   GL2 7922  25.120  33.895   8.975
  400POPC   C1A 7923  25.449  33.873   8.567
  400POPC   D2A 7924  25.173  33.628   8.329
  400POPC   C3A 7925  25.155  33.633   7.906
  400POPC   C4A 7926  24.992  33.624   7.524
  400POPC   C1B 7927  24.948  34.176   8.696
  400POPC   C2B 7928  25.202  34.309   8.394
  400POPC   C3B 7929  25.305  34.114   8.060
  400POPC   C4B 7930  25.059  34.115   7.721
  401POPC   NC3 7931  23.545  29.310   9.499
  401POPC   PO4 7932  24.075  28.919   9.237
  401POPC   GL1 7933  23.692  29.036   9.103
  401POPC   GL2 7934  23.829  29.334   9.067
  401POPC   C1A 7935  23.426  29.159   8.777
  401POPC   D2A 7936  23.510  29.058   8.352
  401POPC   C3A 7937  23.499  29.357   8.014
  401POPC   C4A 7938  23.570  29.259   7.581
  401POPC   C1B 7939  23.962  29.197   8.657
  401POPC   C2B 7940  23.925  29.396   8.286
  401POPC   C3B 7941  24.117  29.553   7.910
  401POPC   C4B 7942  24.035  29.436   7.467
  402POPC   NC3 7943  34.334  15.971   9.542
  402POPC   PO4 7944  33.664  16.084   9.615
  402POPC   GL1 7945  33.949  16.008   9.210
  402POPC   GL2 7946  34.254  16.182   9.085
  402POPC   C1A 7947  33.879  15.943   8.750
  402POPC   D2A 7948  33.576  16.013   8.408
  402POPC   C3A 7949  33.756  15.937   7.988
  402POPC   C4A 7950  33.714  15.784   7.605
  402POPC   C1B 7951  34.181  16.378   8.703
  402POPC   C2B 7952  34.093  16.192   8.294
  402POPC   C3B 7953  34.159  16.372   7.884
  402POPC   C4B 7954  34.222  16.262   7.408
  403POPC   NC3 7955  31.490   4.669   9.508
  403POPC   PO4 7956  31.314   5.280   9.588
  403POPC   GL1 7957  31.451   5.168   9.205
  403POPC   GL2 7958  31.734   5.407   9.177
  403POPC   C1A 7959  31.252   5.049   8.817
  403POPC   D2A 7960  31.397   4.867   8.437
  403POPC   C3A 7961  31.343   5.109   8.069
  403POPC   C4A 7962  31.319   4.889   7.684
  403POPC   C1B 7963  31.746   5.170   8.788
  403POPC   C2B 7964  31.877   5.069   8.383
  403POPC   C3B 7965  31.878   5.323   8.054
  403POPC   C4B 7966  31.733   5.170   7.710
  404POPC   NC3 7967   2.627  26.835   9.513
  404POPC   PO4 7968   3.331  27.065   9.477
  404POPC   GL1 7969   2.975  26.926   9.156
  404POPC   GL2 7970   3.060  26.604   9.037
  404POPC   C1A 7971   2.604  26.799   8.842
  404POPC   D2A 7972   2.374  26.650   8.467
  404POPC   C3A 7973   2.544  26.781   8.075
  404POPC   C4A 7974   2.472  26.727   7.622
  404POPC   C1B 7975   3.094  26.755   8.655
  404POPC   C2B 7976   3.008  26.624   8.272
  404POPC   C3B 7977   3.045  26.841   7.901
  404POPC   C4B 7978   2.968  26.589   7.586
  405POPC   NC3 7979   5.352   4.956   9.358
  405POPC   PO4 7980   4.906   5.390   9.712
  405POPC   GL1 7981   4.940   5.226   9.233
  405POPC   GL2 7982   4.830   4.900   9.086
  405POPC   C1A 7983   5.209   5.271   8.800
  405POPC   D2A 7984   5.057   5.453   8.415
  405POPC   C3A 7985   5.342   5.408   8.119
  405POPC   C4A 7986   5.320   5.209   7.777
  405POPC   C1B 7987   5.088   4.797   8.748
  405POPC   C2B 7988   5.210   4.949   8.377
  405POPC   C3B 7989   5.108   4.799   7.980
  405POPC   C4B 7990   5.438   4.661   7.712
  406POPC   NC3 7991  15.382  27.761   9.232
  406POPC   PO4 7992  14.754  27.516   9.378
  406POPC   GL1 7993  15.027  27.384   9.095
  406POPC   GL2 7994  15.308  27.219   9.282
  406POPC   C1A 7995  15.012  27.570   8.707
  406POPC   D2A 7996  14.887  27.516   8.309
  406POPC   C3A 7997  15.239  27.669   8.098
  406POPC   C4A 7998  15.059  27.625   7.725
  406POPC   C1B 7999  15.355  27.069   8.845
  406POPC   C2B 8000  15.309  27.239   8.430
  406POPC   C3B 8001  15.179  27.168   8.002
  406POPC   C4B 8002  15.456  27.194   7.657
  407POPC   NC3 8003  31.031  39.560   9.329
  407POPC   PO4 8004  30.580  39.091   9.627
  407POPC   GL1 8005  30.683  39.180   9.214
  407POPC   GL2 8006  30.533  39.514   9.155
  407POPC   C1A 8007  30.591  39.039   8.785
  407POPC   D2A 8008  30.791  39.186   8.422
  407POPC   C3A 8009  30.792  39.035   8.019
  407POPC   C4A 8010  30.922  39.238   7.642
  407POPC   C1B 8011  30.237  39.449   8.798
  407POPC   C2B 8012  30.242  39.559   8.363
  407POPC   C3B 8013  30.521  39.456   8.031
  407POPC   C4B 8014  30.498  39.534   7.591
  408POPC   NC3 8015  16.178  20.881   9.818
  408POPC   PO4 8016  16.593  20.552   9.399
  408POPC   GL1 8017  16.658  20.797   9.041
  408POPC   GL2 8018  16.889  21.076   9.087
  408POPC   C1A 8019  16.537  20.762   8.636
  408POPC   D2A 8020  16.641  20.463   8.338
  408POPC   C3A 8021  16.492  20.594   7.937
  408POPC   C4A 8022  16.429  20.709   7.492
  408POPC   C1B 8023  17.008  20.964   8.653
  408POPC   C2B 8024  16.917  20.896   8.232
  408POPC   C3B 8025  16.797  20.970   7.807
  408POPC   C4B 8026  16.911  20.783   7.407
  409POPC   NC3 8027  39.442  23.685   9.540
  409POPC   PO4 8028  38.821  23.855   9.607
  409POPC   GL1 8029  38.991  23.825   9.205
  409POPC   GL2 8030  39.096  23.510   9.141
  409POPC   C1A 8031  39.065  23.951   8.769
  409POPC   D2A 8032  38.971  24.033   8.338
  409POPC   C3A 8033  39.298  23.914   8.093
  409POPC   C4A 8034  39.301  23.644   7.751
  409POPC   C1B 8035  39.052  23.395   8.701
  409POPC   C2B 8036  39.055  23.484   8.241
  409POPC   C3B 8037  38.903  23.336   7.828
  409POPC   C4B 8038  39.104  23.384   7.339
  410POPC   NC3 8039  34.260  21.101   9.893
  410POPC   PO4 8040  34.762  21.408   9.556
  410POPC   GL1 8041  34.602  21.291   9.165
  410POPC   GL2 8042  34.320  21.082   9.250
  410POPC   C1A 8043  34.566  21.417   8.742
  410POPC   D2A 8044  34.473  21.614   8.358
  410POPC   C3A 8045  34.778  21.646   8.035
  410POPC   C4A 8046  34.581  21.699   7.638
  410POPC   C1B 8047  34.311  20.952   8.810
  410POPC   C2B 8048  34.481  21.062   8.367
  410POPC   C3B 8049  34.440  21.265   7.935
  410POPC   C4B 8050  34.231  21.085   7.544
  411POPC   NC3 8051  27.438  40.994   9.775
  411POPC   PO4 8052  27.888  40.509   9.538
  411POPC   GL1 8053  27.693  40.878   9.203
  411POPC   GL2 8054  27.344  41.016   9.074
  411POPC   C1A 8055  27.593  40.773   8.736
  411POPC   D2A 8056  27.394  40.856   8.340
  411POPC   C3A 8057  27.483  40.516   8.047
  411POPC   C4A 8058  27.753  40.385   7.717
  411POPC   C1B 8059  27.075  40.713   8.823
  411POPC   C2B 8060  27.084  40.458   8.437
  411POPC   C3B 8061  26.987  40.652   8.058
  411POPC   C4B 8062  27.175  40.756   7.676
  412POPC   NC3 8063  24.822   4.840   9.218
  412POPC   PO4 8064  25.239   5.266   9.513
  412POPC   GL1 8065  25.236   5.126   9.112
  412POPC   GL2 8066  25.331   4.758   9.123
  412POPC   C1A 8067  25.183   5.303   8.716
  412POPC   D2A 8068  25.435   5.333   8.360
  412POPC   C3A 8069  25.296   5.310   7.938
  412POPC   C4A 8070  25.230   4.942   7.728
  412POPC   C1B 8071  25.174   4.757   8.686
  412POPC   C2B 8072  25.225   4.848   8.256
  412POPC   C3B 8073  25.629   4.842   8.101
  412POPC   C4B 8074  25.790   4.859   7.681
  413POPC   NC3 8075   0.590  29.491   9.491
  413POPC   PO4 8076   1.143  29.050   9.474
  413POPC   GL1 8077   1.306  28.976   9.117
  413POPC   GL2 8078   0.978  28.780   9.042
  413POPC   C1A 8079   1.443  29.187   8.749
  413POPC   D2A 8080   1.223  29.137   8.357
  413POPC   C3A 8081   1.505  29.200   7.993
  413POPC   C4A 8082   1.449  29.043   7.556
  413POPC   C1B 8083   0.897  29.184   8.843
  413POPC   C2B 8084   0.739  29.295   8.441
  413POPC   C3B 8085   0.860  29.310   8.020
  413POPC   C4B 8086   0.966  29.057   7.703
  414POPC   NC3 8087  22.372   2.449   9.716
  414POPC   PO4 8088  21.791   2.050   9.542
  414POPC   GL1 8089  21.962   1.963   9.107
  414POPC   GL2 8090  22.271   1.784   9.039
  414POPC   C1A 8091  21.859   1.972   8.710
  414POPC   D2A 8092  22.111   1.982   8.369
  414POPC   C3A 8093  21.934   2.012   8.022
  414POPC   C4A 8094  22.200   1.996   7.715
  414POPC   C1B 8095  22.497   1.890   8.688
  414POPC   C2B 8096  22.596   2.190   8.393
  414POPC   C3B 8097  22.594   2.326   7.996
  414POPC   C4B 8098  22.627   2.235   7.598
  415POPC   NC3 8099  41.329   3.421   9.709
  415POPC   PO4 8100  41.922   3.666   9.355
  415POPC   GL1 8101  41.532   3.591   9.153
  415POPC   GL2 8102  41.461   3.252   9.092
  415POPC   C1A 8103  41.481   3.586   8.697
  415POPC   D2A 8104  41.463   3.364   8.321
  415POPC   C3A 8105  41.437   3.689   8.047
  415POPC   C4A 8106  41.456   3.693   7.668
  415POPC   C1B 8107  41.871   3.310   8.795
  415POPC   C2B 8108  41.956   3.579   8.430
  415POPC   C3B 8109  41.911   3.530   7.991
  415POPC   C4B 8110  41.933   3.454   7.545
  416POPC   NC3 8111   6.697  23.469   9.478
  416POPC   PO4 8112   7.108  23.937   9.315
  416POPC   GL1 8113   6.838  23.665   9.028
  416POPC   GL2 8114   6.433  23.633   9.064
  416POPC   C1A 8115   6.676  23.413   8.693
  416POPC   D2A 8116   6.424  23.344   8.318
  416POPC   C3A 8117   6.633  23.580   7.987
  416POPC   C4A 8118   7.002  23.736   7.799
  416POPC   C1B 8119   6.442  23.863   8.662
  416POPC   C2B 8120   6.771  23.938   8.357
  416POPC   C3B 8121   6.732  24.141   7.969
  416POPC   C4B 8122   6.386  23.984   7.743
  417POPC   NC3 8123   5.665  40.048   9.432
  417POPC   PO4 8124   6.202  40.560   9.385
  417POPC   GL1 8125   6.005  40.276   9.068
  417POPC   GL2 8126   5.817  39.949   8.976
  417POPC   C1A 8127   5.854  40.309   8.641
  417POPC   D2A 8128   5.714  40.160   8.248
  417POPC   C3A 8129   5.891  40.174   7.851
  417POPC   C4A 8130   5.680  40.259   7.460
  417POPC   C1B 8131   5.884  39.809   8.593
  417POPC   C2B 8132   5.541  39.695   8.337
  417POPC   C3B 8133   5.520  39.799   7.915
  417POPC   C4B 8134   5.515  39.437   7.710
  418POPC   NC3 8135  43.246   6.015   9.701
  418POPC   PO4 8136  43.031   5.460   9.798
  418POPC   GL1 8137  43.078   5.745   9.336
  418POPC   GL2 8138  42.875   6.038   9.308
  418POPC   C1A 8139  43.115   5.733   8.848
  418POPC   D2A 8140  43.122   5.411   8.487
  418POPC   C3A 8141  43.336   5.506   8.086
  418POPC   C4A 8142  43.272   5.738   7.686
  418POPC   C1B 8143  42.738   6.102   8.851
  418POPC   C2B 8144  42.784   6.153   8.371
  418POPC   C3B 8145  42.985   6.078   7.953
  418POPC   C4B 8146  42.869   5.975   7.486
  419POPC   NC3 8147   3.769  36.528   9.321
  419POPC   PO4 8148   3.317  36.989   9.496
  419POPC   GL1 8149   3.621  37.039   9.146
  419POPC   GL2 8150   3.427  36.805   9.028
  419POPC   C1A 8151   3.774  36.918   8.680
  419POPC   D2A 8152   3.804  36.907   8.210
  419POPC   C3A 8153   3.596  36.776   7.805
  419POPC   C4A 8154   3.790  36.926   7.405
  419POPC   C1B 8155   3.229  37.137   8.825
  419POPC   C2B 8156   3.058  37.128   8.438
  419POPC   C3B 8157   3.155  36.930   8.078
  419POPC   C4B 8158   3.230  37.105   7.716
  420POPC   NC3 8159  29.785   9.474   9.411
  420POPC   PO4 8160  30.149  10.065   9.572
  420POPC   GL1 8161  30.082   9.902   9.149
  420POPC   GL2 8162  30.205   9.582   9.138
  420POPC   C1A 8163  29.849   9.720   8.786
  420POPC   D2A 8164  29.984   9.501   8.433
  420POPC   C3A 8165  29.781   9.638   8.108
  420POPC   C4A 8166  29.765   9.721   7.707
  420POPC   C1B 8167  30.358   9.713   8.734
  420POPC   C2B 8168  30.275   9.925   8.339
  420POPC   C3B 8169  30.254   9.766   7.904
  420POPC   C4B 8170  30.213   9.936   7.473
  421POPC   NC3 8171   8.327  25.694   9.532
  421POPC   PO4 8172   8.022  25.166   9.547
  421POPC   GL1 8173   8.072  25.429   9.179
  421POPC   GL2 8174   8.400  25.346   9.120
  421POPC   C1A 8175   7.964  25.339   8.761
  421POPC   D2A 8176   8.236  25.303   8.409
  421POPC   C3A 8177   8.073  25.155   8.032
  421POPC   C4A 8178   8.209  24.963   7.687
  421POPC   C1B 8179   8.662  25.349   8.745
  421POPC   C2B 8180   8.696  25.531   8.361
  421POPC   C3B 8181   8.492  25.499   7.980
  421POPC   C4B 8182   8.577  25.314   7.578
  422POPC   NC3 8183  13.078  15.798   9.431
  422POPC   PO4 8184  12.639  16.274   9.270
  422POPC   GL1 8185  12.747  15.912   9.030
  422POPC   GL2 8186  12.472  15.723   9.167
  422POPC   C1A 8187  12.857  15.982   8.583
  422POPC   D2A 8188  12.980  16.277   8.246
  422POPC   C3A 8189  13.043  16.039   7.869
  422POPC   C4A 8190  13.272  16.186   7.488
  422POPC   C1B 8191  12.441  15.610   8.742
  422POPC   C2B 8192  12.524  15.693   8.295
  422POPC   C3B 8193  12.615  15.679   7.839
  422POPC   C4B 8194  12.719  15.463   7.441
  423POPC   NC3 8195  24.802   4.033   9.464
  423POPC   PO4 8196  24.461   4.639   9.484
  423POPC   GL1 8197  24.288   4.501   9.132
  423POPC   GL2 8198  24.571   4.281   9.079
  423POPC   C1A 8199  24.152   4.253   8.789
  423POPC   D2A 8200  24.297   4.082   8.400
  423POPC   C3A 8201  24.155   4.241   8.019
  423POPC   C4A 8202  24.174   4.554   7.715
  423POPC   C1B 8203  24.655   3.942   8.762
  423POPC   C2B 8204  24.792   3.956   8.303
  423POPC   C3B 8205  24.663   4.314   8.005
  423POPC   C4B 8206  24.642   4.424   7.550
  424POPC   NC3 8207  19.563  39.849   9.533
  424POPC   PO4 8208  18.960  40.160   9.514
  424POPC   GL1 8209  19.121  39.896   9.130
  424POPC   GL2 8210  19.436  39.966   9.062
  424POPC   C1A 8211  19.168  39.721   8.679
  424POPC   D2A 8212  19.085  39.550   8.251
  424POPC   C3A 8213  18.976  39.872   7.935
  424POPC   C4A 8214  19.234  40.197   7.811
  424POPC   C1B 8215  19.623  39.965   8.668
  424POPC   C2B 8216  19.467  39.959   8.246
  424POPC   C3B 8217  19.450  39.706   7.875
  424POPC   C4B 8218  19.332  39.674   7.449
  425POPC   NC3 8219   5.371  13.523   9.404
  425POPC   PO4 8220   4.868  13.934   9.305
  425POPC   GL1 8221   5.164  13.789   9.010
  425POPC   GL2 8222   4.999  13.470   9.038
  425POPC   C1A 8223   5.089  13.734   8.574
  425POPC   D2A 8224   4.744  13.859   8.287
  425POPC   C3A 8225   4.944  13.839   7.896
  425POPC   C4A 8226   5.393  13.768   7.766
  425POPC   C1B 8227   4.774  13.212   8.734
  425POPC   C2B 8228   4.822  13.311   8.329
  425POPC   C3B 8229   5.186  13.417   8.116
  425POPC   C4B 8230   5.099  13.368   7.691
  426POPC   NC3 8231   3.923  39.550   9.485
  426POPC   PO4 8232   3.512  38.986   9.484
  426POPC   GL1 8233   3.334  39.194   9.110
  426POPC   GL2 8234   3.234  39.520   9.239
  426POPC   C1A 8235   3.526  39.427   8.776
  426POPC   D2A 8236   3.749  39.449   8.402
  426POPC   C3A 8237   3.702  39.146   8.134
  426POPC   C4A 8238   3.687  39.228   7.743
  426POPC   C1B 8239   3.041  39.549   8.821
  426POPC   C2B 8240   2.933  39.323   8.427
  426POPC   C3B 8241   3.161  39.300   8.027
  426POPC   C4B 8242   3.085  39.502   7.623
  427POPC   NC3 8243  38.130  33.093   9.857
  427POPC   PO4 8244  37.540  33.208   9.396
  427POPC   GL1 8245  37.526  33.148   8.990
  427POPC   GL2 8246  37.264  32.920   9.048
  427POPC   C1A 8247  37.754  33.217   8.606
  427POPC   D2A 8248  37.813  32.984   8.225
  427POPC   C3A 8249  37.677  33.240   7.930
  427POPC   C4A 8250  37.712  33.599   7.669
  427POPC   C1B 8251  37.365  32.651   8.684
  427POPC   C2B 8252  37.541  32.565   8.279
  427POPC   C3B 8253  37.438  32.770   7.888
  427POPC   C4B 8254  37.329  32.632   7.471
  428POPC   NC3 8255  13.625   2.931   9.470
  428POPC   PO4 8256  13.852   2.401   9.233
  428POPC   GL1 8257  13.542   2.626   8.973
  428POPC   GL2 8258  13.439   2.966   8.996
  428POPC   C1A 8259  13.364   2.436   8.630
  428POPC   D2A 8260  13.463   2.494   8.220
  428POPC   C3A 8261  13.867   2.570   8.061
  428POPC   C4A 8262  13.914   2.695   7.651
  428POPC   C1B 8263  13.173   2.932   8.638
  428POPC   C2B 8264  13.272   3.003   8.205
  428POPC   C3B 8265  13.427   2.859   7.816
  428POPC   C4B 8266  13.674   3.113   7.478
  429POPC   NC3 8267  38.171  16.495   9.298
  429POPC   PO4 8268  37.887  17.065   9.412
  429POPC   GL1 8269  37.740  16.794   9.066
  429POPC   GL2 8270  37.680  16.412   9.124
  429POPC   C1A 8271  37.510  16.788   8.657
  429POPC   D2A 8272  37.398  16.816   8.219
  429POPC   C3A 8273  37.734  16.874   7.917
  429POPC   C4A 8274  37.771  16.710   7.506
  429POPC   C1B 8275  37.914  16.430   8.722
  429POPC   C2B 8276  37.850  16.558   8.312
  429POPC   C3B 8277  37.574  16.374   8.006
  429POPC   C4B 8278  37.309  16.579   7.741
  430POPC   NC3 8279  33.434  13.415   9.549
  430POPC   PO4 8280  33.914  13.892   9.367
  430POPC   GL1 8281  33.715  13.685   8.984
  430POPC   GL2 8282  33.655  13.392   9.105
  430POPC   C1A 8283  33.627  13.304   8.628
  430POPC   D2A 8284  33.638  13.324   8.190
  430POPC   C3A 8285  33.835  13.699   8.111
  430POPC   C4A 8286  33.723  13.894   7.741
  430POPC   C1B 8287  34.068  13.297   8.882
  430POPC   C2B 8288  34.093  13.195   8.425
  430POPC   C3B 8289  34.178  13.330   8.028
  430POPC   C4B 8290  33.900  13.391   7.722
  431POPC   NC3 8291  37.203  28.519   9.579
  431POPC   PO4 8292  36.643  28.178   9.647
  431POPC   GL1 8293  36.932  28.356   9.207
  431POPC   GL2 8294  37.039  28.049   9.150
  431POPC   C1A 8295  36.804  28.537   8.745
  431POPC   D2A 8296  36.809  28.349   8.330
  431POPC   C3A 8297  36.886  28.527   7.882
  431POPC   C4A 8298  36.894  28.782   7.503
  431POPC   C1B 8299  37.085  28.119   8.735
  431POPC   C2B 8300  37.066  27.922   8.336
  431POPC   C3B 8301  36.815  28.020   7.942
  431POPC   C4B 8302  37.101  28.089   7.628
  432POPC   NC3 8303  30.935  12.811   9.769
  432POPC   PO4 8304  31.446  13.183   9.594
  432POPC   GL1 8305  31.466  12.960   9.199
  432POPC   GL2 8306  31.661  12.655   9.212
  432POPC   C1A 8307  31.378  12.998   8.762
  432POPC   D2A 8308  31.488  12.848   8.348
  432POPC   C3A 8309  31.677  13.143   8.070
  432POPC   C4A 8310  31.489  13.164   7.681
  432POPC   C1B 8311  31.545  12.500   8.807
  432POPC   C2B 8312  31.414  12.346   8.411
  432POPC   C3B 8313  31.146  12.529   8.105
  432POPC   C4B 8314  31.366  12.682   7.753
  433POPC   NC3 8315  32.528   4.323   9.544
  433POPC   PO4 8316  31.912   4.500   9.406
  433POPC   GL1 8317  32.058   4.414   9.046
  433POPC   GL2 8318  32.311   4.187   9.106
  433POPC   C1A 8319  31.965   4.197   8.680
  433POPC   D2A 8320  32.162   4.127   8.291
  433POPC   C3A 8321  32.041   4.344   7.906
  433POPC   C4A 8322  32.115   4.206   7.444
  433POPC   C1B 8323  32.443   4.332   8.708
  433POPC   C2B 8324  32.646   4.310   8.327
  433POPC   C3B 8325  32.522   4.223   7.909
  433POPC   C4B 8326  32.708   4.271   7.530
  434POPC   NC3 8327  36.223  44.075   9.533
  434POPC   PO4 8328  35.959  43.539   9.220
  434POPC   GL1 8329  36.094  43.917   9.072
  434POPC   GL2 8330  36.395  44.136   9.066
  434POPC   C1A 8331  36.070  44.004   8.664
  434POPC   D2A 8332  35.981  43.740   8.382
  434POPC   C3A 8333  35.969  43.998   8.105
  434POPC   C4A 8334  35.920  44.047   7.725
  434POPC   C1B 8335  36.525  43.850   8.729
  434POPC   C2B 8336  36.467  44.158   8.361
  434POPC   C3B 8337  36.415  44.193   7.937
  434POPC   C4B 8338  36.354  43.757   7.856
  435POPC   NC3 8339  12.656  29.408   9.496
  435POPC   PO4 8340  13.046  28.953   9.719
  435POPC   GL1 8341  12.989  29.071   9.267
  435POPC   GL2 8342  13.159  28.766   9.186
  435POPC   C1A 8343  12.766  29.299   8.864
  435POPC   D2A 8344  12.702  29.528   8.446
  435POPC   C3A 8345  12.870  29.408   8.025
  435POPC   C4A 8346  12.632  29.300   7.638
  435POPC   C1B 8347  12.828  28.797   8.853
  435POPC   C2B 8348  12.693  28.998   8.437
  435POPC   C3B 8349  12.730  28.918   7.995
  435POPC   C4B 8350  13.069  28.986   7.692
  436POPC   NC3 8351  29.797  39.549   9.494
  436POPC   PO4 8352  29.710  38.879   9.485
  436POPC   GL1 8353  29.593  39.181   9.168
  436POPC   GL2 8354  29.536  39.013   8.880
  436POPC   C1A 8355  29.709  39.503   8.854
  436POPC   D2A 8356  29.726  39.593   8.430
  436POPC   C3A 8357  29.773  39.293   8.105
  436POPC   C4A 8358  30.008  39.450   7.769
  436POPC   C1B 8359  29.891  39.104   8.570
  436POPC   C2B 8360  30.226  39.064   8.217
  436POPC   C3B 8361  30.337  39.074   7.748
  436POPC   C4B 8362  30.246  38.833   7.367
  437POPC   NC3 8363   5.410  12.698   9.275
  437POPC   PO4 8364   5.971  12.625   9.701
  437POPC   GL1 8365   5.930  12.614   9.222
  437POPC   GL2 8366   5.944  12.939   9.147
  437POPC   C1A 8367   5.741  12.639   8.746
  437POPC   D2A 8368   5.843  12.414   8.351
  437POPC   C3A 8369   5.780  12.688   7.992
  437POPC   C4A 8370   5.905  12.945   7.617
  437POPC   C1B 8371   5.871  13.150   8.765
  437POPC   C2B 8372   5.660  13.109   8.323
  437POPC   C3B 8373   5.682  13.309   7.887
  437POPC   C4B 8374   5.564  13.265   7.430
  438POPC   NC3 8375   8.528   4.841   9.450
  438POPC   PO4 8376   8.090   5.378   9.534
  438POPC   GL1 8377   8.159   5.092   9.190
  438POPC   GL2 8378   8.470   5.130   9.007
  438POPC   C1A 8379   7.963   5.088   8.796
  438POPC   D2A 8380   8.181   5.037   8.436
  438POPC   C3A 8381   7.982   5.093   8.055
  438POPC   C4A 8382   8.022   5.345   7.677
  438POPC   C1B 8383   8.330   4.725   8.822
  438POPC   C2B 8384   8.331   4.544   8.401
  438POPC   C3B 8385   8.216   4.627   7.984
  438POPC   C4B 8386   8.373   4.980   7.744
  439POPC   NC3 8387  31.817  36.882   9.480
  439POPC   PO4 8388  31.291  36.621   9.513
  439POPC   GL1 8389  31.425  36.885   9.138
  439POPC   GL2 8390  31.711  37.141   9.065
  439POPC   C1A 8391  31.400  36.989   8.705
  439POPC   D2A 8392  31.572  36.787   8.376
  439POPC   C3A 8393  31.330  36.851   8.064
  439POPC   C4A 8394  31.196  36.665   7.740
  439POPC   C1B 8395  31.877  36.842   8.782
  439POPC   C2B 8396  32.053  36.949   8.364
  439POPC   C3B 8397  31.840  37.063   7.996
  439POPC   C4B 8398  31.749  36.751   7.763
  440POPC   NC3 8399  39.037   5.468   9.573
  440POPC   PO4 8400  39.128   4.773   9.520
  440POPC   GL1 8401  39.035   5.090   9.191
  440POPC   GL2 8402  39.303   5.363   9.149
  440POPC   C1A 8403  39.212   5.017   8.771
  440POPC   D2A 8404  39.552   4.908   8.488
  440POPC   C3A 8405  39.395   5.005   8.077
  440POPC   C4A 8406  39.050   4.923   7.804
  440POPC   C1B 8407  39.004   5.492   8.824
  440POPC   C2B 8408  39.035   5.336   8.391
  440POPC   C3B 8409  39.129   5.421   7.953
  440POPC   C4B 8410  39.415   5.274   7.626
  441POPC   NC3 8411  15.689  27.104   9.763
  441POPC   PO4 8412  16.165  26.754   9.478
  441POPC   GL1 8413  15.989  26.886   9.137
  441POPC   GL2 8414  15.644  26.832   9.198
  441POPC   C1A 8415  16.152  27.022   8.744
  441POPC   D2A 8416  16.162  27.236   8.339
  441POPC   C3A 8417  16.179  26.954   7.979
  441POPC   C4A 8418  15.953  27.014   7.618
  441POPC   C1B 8419  15.723  26.631   8.793
  441POPC   C2B 8420  15.866  26.794   8.403
  441POPC   C3B 8421  15.700  27.086   8.120
  441POPC   C4B 8422  15.621  26.744   7.899
  442POPC   NC3 8423   4.919  11.887   9.518
  442POPC   PO4 8424   5.053  12.557   9.544
  442POPC   GL1 8425   5.099  12.285   9.160
  442POPC   GL2 8426   5.298  11.980   9.145
  442POPC   C1A 8427   4.969  12.072   8.747
  442POPC   D2A 8428   4.931  12.224   8.336
  442POPC   C3A 8429   5.030  11.939   8.009
  442POPC   C4A 8430   5.160  12.084   7.610
  442POPC   C1B 8431   5.459  12.195   8.764
  442POPC   C2B 8432   5.479  12.037   8.361
  442POPC   C3B 8433   5.540  12.070   7.934
  442POPC   C4B 8434   5.431  11.652   7.772
  443POPC   NC3 8435  36.351  18.055   9.519
  443POPC   PO4 8436  35.717  18.020   9.308
  443POPC   GL1 8437  35.923  18.288   9.041
  443POPC   GL2 8438  36.255  18.305   9.012
  443POPC   C1A 8439  35.853  18.389   8.646
  443POPC   D2A 8440  35.756  18.203   8.276
  443POPC   C3A 8441  36.117  18.034   8.029
  443POPC   C4A 8442  36.251  18.132   7.618
  443POPC   C1B 8443  36.319  18.597   8.688
  443POPC   C2B 8444  36.284  18.444   8.292
  443POPC   C3B 8445  36.471  18.489   7.897
  443POPC   C4B 8446  36.433  18.558   7.433
  444POPC   NC3 8447  24.009   7.240   9.545
  444POPC   PO4 8448  23.425   7.443   9.279
  444POPC   GL1 8449  23.793   7.558   9.069
  444POPC   GL2 8450  23.864   7.215   9.054
  444POPC   C1A 8451  23.869   7.817   8.683
  444POPC   D2A 8452  23.531   7.774   8.339
  444POPC   C3A 8453  23.641   7.667   7.887
  444POPC   C4A 8454  23.679   7.583   7.434
  444POPC   C1B 8455  23.724   7.333   8.642
  444POPC   C2B 8456  23.930   7.441   8.295
  444POPC   C3B 8457  23.888   7.210   7.932
  444POPC   C4B 8458  23.595   7.118   7.621
  445POPC   NC3 8459  16.319  20.179   9.499
  445POPC   PO4 8460  15.898  19.588   9.464
  445POPC   GL1 8461  16.024  19.880   9.162
  445POPC   GL2 8462  15.828  20.138   9.291
  445POPC   C1A 8463  16.180  19.832   8.738
  445POPC   D2A 8464  16.021  19.803   8.324
  445POPC   C3A 8465  16.227  19.736   7.954
  445POPC   C4A 8466  16.067  19.625   7.566
  445POPC   C1B 8467  15.831  20.231   8.820
  445POPC   C2B 8468  15.682  20.209   8.355
  445POPC   C3B 8469  15.735  19.986   7.922
  445POPC   C4B 8470  15.750  20.015   7.474
  446POPC   NC3 8471  27.291  30.518   9.380
  446POPC   PO4 8472  27.905  30.813   9.422
  446POPC   GL1 8473  27.711  30.689   9.048
  446POPC   GL2 8474  27.452  30.932   9.055
  446POPC   C1A 8475  27.702  30.864   8.612
  446POPC   D2A 8476  27.898  31.171   8.320
  446POPC   C3A 8477  27.792  31.014   7.899
  446POPC   C4A 8478  27.806  30.546   7.880
  446POPC   C1B 8479  27.172  30.960   8.737
  446POPC   C2B 8480  27.183  30.687   8.386
  446POPC   C3B 8481  27.341  30.727   7.958
  446POPC   C4B 8482  27.398  30.472   7.584
  447POPC   NC3 8483  42.900   1.291   9.524
  447POPC   PO4 8484  43.417   1.119   9.348
  447POPC   GL1 8485  43.121   1.291   9.070
  447POPC   GL2 8486  43.068   1.612   9.141
  447POPC   C1A 8487  42.885   1.233   8.716
  447POPC   D2A 8488  43.033   1.046   8.373
  447POPC   C3A 8489  42.835   1.170   8.023
  447POPC   C4A 8490  42.928   1.077   7.657
  447POPC   C1B 8491  43.252   1.587   8.685
  447POPC   C2B 8492  43.142   1.530   8.231
  447POPC   C3B 8493  43.120   1.525   7.778
  447POPC   C4B 8494  43.111   1.426   7.316
  448POPC   NC3 8495  20.660  36.199   9.648
  448POPC   PO4 8496  20.215  35.900   9.353
  448POPC   GL1 8497  20.624  36.061   9.159
  448POPC   GL2 8498  20.614  36.383   9.156
  448POPC   C1A 8499  20.914  36.199   8.796
  448POPC   D2A 8500  20.949  36.436   8.419
  448POPC   C3A 8501  20.721  36.152   8.182
  448POPC   C4A 8502  20.689  36.094   7.774
  448POPC   C1B 8503  20.377  36.224   8.758
  448POPC   C2B 8504  20.185  36.149   8.359
  448POPC   C3B 8505  20.248  36.292   7.930
  448POPC   C4B 8506  20.276  36.071   7.517
  449POPC   NC3 8507  19.356  21.855   9.670
  449POPC   PO4 8508  18.881  21.456   9.431
  449POPC   GL1 8509  19.109  21.484   9.095
  449POPC   GL2 8510  19.391  21.659   9.179
  449POPC   C1A 8511  19.114  21.308   8.711
  449POPC   D2A 8512  18.878  21.526   8.451
  449POPC   C3A 8513  18.954  21.413   8.058
  449POPC   C4A 8514  18.806  21.655   7.731
  449POPC   C1B 8515  19.315  21.789   8.731
  449POPC   C2B 8516  19.379  21.596   8.316
  449POPC   C3B 8517  19.302  21.723   7.870
  449POPC   C4B 8518  19.251  21.771   7.413
  450POPC   NC3 8519  35.585  37.224   9.380
  450POPC   PO4 8520  35.755  36.550   9.485
  450POPC   GL1 8521  35.603  36.704   9.117
  450POPC   GL2 8522  35.888  36.889   9.095
  450POPC   C1A 8523  35.274  36.842   8.839
  450POPC   D2A 8524  35.257  37.103   8.501
  450POPC   C3A 8525  35.218  36.877   8.144
  450POPC   C4A 8526  35.212  37.069   7.789
  450POPC   C1B 8527  35.740  37.006   8.709
  450POPC   C2B 8528  35.685  36.771   8.337
  450POPC   C3B 8529  35.702  36.740   7.883
  450POPC   C4B 8530  35.756  36.950   7.480
  451POPC   NC3 8531  32.794  10.238   9.545
  451POPC   PO4 8532  33.304   9.797   9.606
  451POPC   GL1 8533  33.074   9.926   9.231
  451POPC   GL2 8534  32.875   9.639   9.190
  451POPC   C1A 8535  32.793   9.968   8.820
  451POPC   D2A 8536  33.061  10.074   8.481
  451POPC   C3A 8537  32.950  10.005   8.075
  451POPC   C4A 8538  32.897   9.714   7.786
  451POPC   C1B 8539  33.179   9.650   8.813
  451POPC   C2B 8540  33.123   9.549   8.395
  451POPC   C3B 8541  33.325   9.299   8.098
  451POPC   C4B 8542  33.239   9.359   7.690
  452POPC   NC3 8543  39.208  20.342   9.491
  452POPC   PO4 8544  39.260  21.007   9.551
  452POPC   GL1 8545  39.321  20.768   9.163
  452POPC   GL2 8546  39.112  20.489   8.998
  452POPC   C1A 8547  39.496  20.709   8.759
  452POPC   D2A 8548  39.230  20.519   8.461
  452POPC   C3A 8549  39.326  20.617   8.038
  452POPC   C4A 8550  39.166  20.599   7.591
  452POPC   C1B 8551  38.967  20.863   8.759
  452POPC   C2B 8552  39.076  21.018   8.314
  452POPC   C3B 8553  39.079  21.033   7.840
  452POPC   C4B 8554  39.050  21.125   7.380
  453POPC   NC3 8555  39.406  10.093   9.739
  453POPC   PO4 8556  39.304   9.526   9.595
  453POPC   GL1 8557  39.428   9.507   9.182
  453POPC   GL2 8558  39.662   9.778   9.194
  453POPC   C1A 8559  39.461   9.525   8.754
  453POPC   D2A 8560  39.331   9.725   8.370
  453POPC   C3A 8561  39.477   9.502   7.999
  453POPC   C4A 8562  39.393   9.590   7.557
  453POPC   C1B 8563  39.552  10.047   8.807
  453POPC   C2B 8564  39.684  10.093   8.355
  453POPC   C3B 8565  39.492  10.010   7.924
  453POPC   C4B 8566  39.443  10.098   7.452
  454POPC   NC3 8567  44.637  30.548   9.497
  454POPC   PO4 8568  44.970  31.263   9.381
  454POPC   GL1 8569  44.735  30.936   9.154
  454POPC   GL2 8570  44.907  30.579   9.063
  454POPC   C1A 8571  44.702  30.872   8.716
  454POPC   D2A 8572   0.003  30.720   8.454
  454POPC   C3A 8573  44.810  30.803   8.047
  454POPC   C4A 8574  44.722  30.855   7.610
  454POPC   C1B 8575  44.600  30.373   8.767
  454POPC   C2B 8576  44.682  30.361   8.323
  454POPC   C3B 8577  44.780  30.318   7.905
  454POPC   C4B 8578  44.491  30.370   7.571
  455POPC   NC3 8579   2.217  16.880   9.401
  455POPC   PO4 8580   1.765  16.475   9.458
  455POPC   GL1 8581   1.945  16.559   9.090
  455POPC   GL2 8582   1.979  16.885   8.912
  455POPC   C1A 8583   2.008  16.382   8.730
  455POPC   D2A 8584   2.013  16.626   8.390
  455POPC   C3A 8585   2.074  16.429   8.022
  455POPC   C4A 8586   1.922  16.518   7.605
  455POPC   C1B 8587   2.216  17.081   8.534
  455POPC   C2B 8588   2.416  16.876   8.233
  455POPC   C3B 8589   2.190  16.906   7.888
  455POPC   C4B 8590   2.240  16.930   7.480
  456POPC   NC3 8591  12.173  34.868   9.617
  456POPC   PO4 8592  11.808  34.322   9.354
  456POPC   GL1 8593  12.021  34.568   9.096
  456POPC   GL2 8594  12.308  34.687   9.175
  456POPC   C1A 8595  12.219  34.426   8.730
  456POPC   D2A 8596  12.221  34.199   8.341
  456POPC   C3A 8597  12.070  34.516   8.060
  456POPC   C4A 8598  12.022  34.461   7.626
  456POPC   C1B 8599  12.456  34.875   8.837
  456POPC   C2B 8600  12.255  35.022   8.470
  456POPC   C3B 8601  12.417  34.998   8.055
  456POPC   C4B 8602  12.415  34.829   7.660
  457POPC   NC3 8603  21.619  41.342   9.452
  457POPC   PO4 8604  21.280  41.913   9.515
  457POPC   GL1 8605  21.301  41.668   9.146
  457POPC   GL2 8606  21.298  41.290   9.069
  457POPC   C1A 8607  21.115  41.792   8.757
  457POPC   D2A 8608  21.330  41.869   8.407
  457POPC   C3A 8609  21.179  41.899   8.013
  457POPC   C4A 8610  21.353  41.784   7.626
  457POPC   C1B 8611  21.463  41.425   8.700
  457POPC   C2B 8612  21.752  41.541   8.440
  457POPC   C3B 8613  21.583  41.584   8.067
  457POPC   C4B 8614  21.346  41.299   7.838
  458POPC   NC3 8615  34.629  38.094   9.648
  458POPC   PO4 8616  34.609  38.774   9.680
  458POPC   GL1 8617  34.573  38.840   9.252
  458POPC   GL2 8618  34.349  38.551   9.162
  458POPC   C1A 8619  34.630  38.786   8.807
  458POPC   D2A 8620  34.443  38.488   8.516
  458POPC   C3A 8621  34.492  38.588   8.097
  458POPC   C4A 8622  34.360  38.713   7.679
  458POPC   C1B 8623  34.401  38.143   8.911
  458POPC   C2B 8624  34.639  37.962   8.546
  458POPC   C3B 8625  34.575  38.073   8.104
  458POPC   C4B 8626  34.343  38.219   7.745
  459POPC   NC3 8627   4.018  21.782   9.516
  459POPC   PO4 8628   4.531  21.283   9.682
  459POPC   GL1 8629   4.544  21.342   9.229
  459POPC   GL2 8630   4.202  21.395   9.113
  459POPC   C1A 8631   4.569  21.434   8.771
  459POPC   D2A 8632   4.340  21.425   8.363
  459POPC   C3A 8633   4.531  21.405   7.956
  459POPC   C4A 8634   4.419  21.504   7.501
  459POPC   C1B 8635   4.148  21.108   8.729
  459POPC   C2B 8636   4.027  21.037   8.279
  459POPC   C3B 8637   4.044  21.265   7.863
  459POPC   C4B 8638   3.922  21.546   7.494
  460POPC   NC3 8639  17.258   5.882   9.341
  460POPC   PO4 8640  17.901   6.094   9.316
  460POPC   GL1 8641  17.670   5.933   9.028
  460POPC   GL2 8642  17.480   6.262   9.058
  460POPC   C1A 8643  17.624   5.626   8.690
  460POPC   D2A 8644  17.731   5.341   8.346
  460POPC   C3A 8645  17.674   5.530   7.926
  460POPC   C4A 8646  17.728   5.958   7.787
  460POPC   C1B 8647  17.555   6.190   8.612
  460POPC   C2B 8648  17.445   5.921   8.286
  460POPC   C3B 8649  17.230   5.997   7.930
  460POPC   C4B 8650  17.336   6.184   7.527
  461POPC   NC3 8651   5.531  29.831   9.440
  461POPC   PO4 8652   6.108  30.224   9.381
  461POPC   GL1 8653   6.242  30.094   9.045
  461POPC   GL2 8654   6.026  29.805   9.067
  461POPC   C1A 8655   6.003  30.174   8.708
  461POPC   D2A 8656   5.655  30.121   8.450
  461POPC   C3A 8657   5.986  30.034   8.180
  461POPC   C4A 8658   5.989  30.044   7.744
  461POPC   C1B 8659   5.668  29.693   8.817
  461POPC   C2B 8660   5.726  29.609   8.413
  461POPC   C3B 8661   5.582  29.781   8.036
  461POPC   C4B 8662   5.676  29.663   7.622
  462POPC   NC3 8663  18.037  11.530   9.512
  462POPC   PO4 8664  18.690  11.231   9.432
  462POPC   GL1 8665  18.413  11.329   9.097
  462POPC   GL2 8666  18.080  11.164   9.106
  462POPC   C1A 8667  18.313  11.233   8.648
  462POPC   D2A 8668  18.482  11.402   8.283
  462POPC   C3A 8669  18.318  11.173   7.982
  462POPC   C4A 8670  18.304  11.096   7.580
  462POPC   C1B 8671  18.037  11.603   8.878
  462POPC   C2B 8672  17.928  11.717   8.458
  462POPC   C3B 8673  18.066  11.616   8.025
  462POPC   C4B 8674  18.033  11.535   7.582
  463POPC   NC3 8675  29.448  24.201   9.701
  463POPC   PO4 8676  28.841  24.579   9.562
  463POPC   GL1 8677  29.010  24.333   9.193
  463POPC   GL2 8678  29.392  24.205   9.200
  463POPC   C1A 8679  28.909  24.456   8.773
  463POPC   D2A 8680  28.738  24.607   8.371
  463POPC   C3A 8681  28.943  24.487   7.973
  463POPC   C4A 8682  29.329  24.655   7.787
  463POPC   C1B 8683  29.265  24.091   8.791
  463POPC   C2B 8684  29.126  24.234   8.362
  463POPC   C3B 8685  29.332  24.148   7.934
  463POPC   C4B 8686  29.480  24.220   7.472
  464POPC   NC3 8687   0.648  42.403   9.546
  464POPC   PO4 8688   0.034  42.127   9.455
  464POPC   GL1 8689   0.344  42.334   9.137
  464POPC   GL2 8690   0.722  42.213   9.063
  464POPC   C1A 8691   0.487  42.572   8.780
  464POPC   D2A 8692   0.383  42.480   8.390
  464POPC   C3A 8693   0.563  42.508   8.021
  464POPC   C4A 8694   0.351  42.703   7.720
  464POPC   C1B 8695   0.498  42.061   8.664
  464POPC   C2B 8696   0.503  42.021   8.177
  464POPC   C3B 8697   0.704  42.103   7.731
  464POPC   C4B 8698   0.753  41.941   7.293
  465POPC   NC3 8699  40.948  39.979   9.413
  465POPC   PO4 8700  40.223  40.123   9.446
  465POPC   GL1 8701  40.478  40.071   9.143
  465POPC   GL2 8702  40.706  40.341   9.151
  465POPC   C1A 8703  40.607  40.050   8.745
  465POPC   D2A 8704  40.682  39.735   8.485
  465POPC   C3A 8705  40.669  39.932   8.099
  465POPC   C4A 8706  40.642  39.740   7.708
  465POPC   C1B 8707  41.031  40.382   8.826
  465POPC   C2B 8708  40.984  40.206   8.425
  465POPC   C3B 8709  40.963  40.393   8.050
  465POPC   C4B 8710  40.766  40.277   7.699
  466POPC   NC3 8711  36.569  18.793   9.265
  466POPC   PO4 8712  36.755  18.245   9.637
  466POPC   GL1 8713  36.723  18.174   9.150
  466POPC   GL2 8714  37.017  18.297   8.948
  466POPC   C1A 8715  36.614  18.139   8.692
  466POPC   D2A 8716  36.828  18.354   8.343
  466POPC   C3A 8717  36.813  18.099   7.970
  466POPC   C4A 8718  36.803  18.214   7.521
  466POPC   C1B 8719  37.260  18.118   8.603
  466POPC   C2B 8720  37.307  18.129   8.153
  466POPC   C3B 8721  37.289  18.220   7.712
  466POPC   C4B 8722  37.309  18.037   7.326
  467POPC   NC3 8723  10.424  41.251   9.706
  467POPC   PO4 8724  10.180  41.804   9.491
  467POPC   GL1 8725  10.287  41.597   9.133
  467POPC   GL2 8726  10.626  41.672   9.027
  467POPC   C1A 8727  10.244  41.829   8.741
  467POPC   D2A 8728  10.416  41.971   8.384
  467POPC   C3A 8729  10.284  41.698   8.135
  467POPC   C4A 8730  10.403  41.423   7.801
  467POPC   C1B 8731  10.792  41.683   8.622
  467POPC   C2B 8732  10.783  41.603   8.183
  467POPC   C3B 8733  10.878  41.280   7.881
  467POPC   C4B 8734  10.844  41.564   7.526
  468POPC   NC3 8735   9.399   5.333   9.470
  468POPC   PO4 8736   9.718   4.666   9.566
  468POPC   GL1 8737   9.748   4.987   9.212
  468POPC   GL2 8738  10.085   5.166   9.154
  468POPC   C1A 8739   9.645   5.132   8.798
  468POPC   D2A 8740   9.573   5.129   8.361
  468POPC   C3A 8741   9.828   5.319   8.038
  468POPC   C4A 8742   9.626   5.358   7.647
  468POPC   C1B 8743  10.081   4.863   8.799
  468POPC   C2B 8744   9.887   4.730   8.402
  468POPC   C3B 8745  10.041   4.731   7.952
  468POPC   C4B 8746  10.003   5.013   7.627
  469POPC   NC3 8747  30.666  35.327   9.464
  469POPC   PO4 8748  31.036  35.946   9.710
  469POPC   GL1 8749  30.937  35.736   9.264
  469POPC   GL2 8750  30.558  35.678   9.100
  469POPC   C1A 8751  30.972  35.581   8.829
  469POPC   D2A 8752  30.681  35.705   8.507
  469POPC   C3A 8753  30.634  35.459   8.160
  469POPC   C4A 8754  30.793  35.321   7.816
  469POPC   C1B 8755  30.520  35.315   8.791
  469POPC   C2B 8756  30.432  34.998   8.440
  469POPC   C3B 8757  30.343  35.073   7.984
  469POPC   C4B 8758  30.325  35.442   7.685
  470POPC   NC3 8759  39.250  34.330   9.485
  470POPC   PO4 8760  39.152  34.951   9.640
  470POPC   GL1 8761  39.164  34.761   9.166
  470POPC   GL2 8762  39.289  34.454   8.982
  470POPC   C1A 8763  38.868  34.708   8.798
  470POPC   D2A 8764  38.901  34.880   8.367
  470POPC   C3A 8765  38.877  34.619   8.026
  470POPC   C4A 8766  39.100  34.596   7.655
  470POPC   C1B 8767  39.557  34.679   8.666
  470POPC   C2B 8768  39.409  34.715   8.232
  470POPC   C3B 8769  39.301  34.327   8.062
  470POPC   C4B 8770  39.355  34.031   7.780
  471POPC   NC3 8771  39.479  42.467   9.378
  471POPC   PO4 8772  38.926  42.025   9.572
  471POPC   GL1 8773  39.021  42.297   9.183
  471POPC   GL2 8774  39.102  42.013   9.039
  471POPC   C1A 8775  39.205  42.434   8.753
  471POPC   D2A 8776  39.086  42.546   8.318
  471POPC   C3A 8777  39.349  42.548   7.929
  471POPC   C4A 8778  39.306  42.288   7.518
  471POPC   C1B 8779  39.269  41.913   8.625
  471POPC   C2B 8780  39.219  42.031   8.204
  471POPC   C3B 8781  39.426  41.911   7.841
  471POPC   C4B 8782  39.727  42.000   7.529
  472POPC   NC3 8783   8.554   5.689   9.531
  472POPC   PO4 8784   9.048   6.095   9.468
  472POPC   GL1 8785   8.813   5.877   9.113
  472POPC   GL2 8786   8.828   5.496   9.101
  472POPC   C1A 8787   9.009   5.872   8.689
  472POPC   D2A 8788   9.369   6.049   8.420
  472POPC   C3A 8789   9.191   6.180   8.022
  472POPC   C4A 8790   8.879   6.143   7.680
  472POPC   C1B 8791   8.687   5.468   8.649
  472POPC   C2B 8792   8.760   5.731   8.248
  472POPC   C3B 8793   8.974   5.662   7.835
  472POPC   C4B 8794   9.118   5.582   7.366
  473POPC   NC3 8795  25.587  38.835   9.588
  473POPC   PO4 8796  25.257  38.266   9.482
  473POPC   GL1 8797  25.454  38.531   9.191
  473POPC   GL2 8798  25.142  38.643   9.128
  473POPC   C1A 8799  25.576  38.467   8.765
  473POPC   D2A 8800  25.423  38.169   8.438
  473POPC   C3A 8801  25.299  38.345   8.048
  473POPC   C4A 8802  25.480  38.214   7.681
  473POPC   C1B 8803  25.074  38.336   8.791
  473POPC   C2B 8804  24.860  38.350   8.386
  473POPC   C3B 8805  24.815  38.323   7.952
  473POPC   C4B 8806  25.008  38.368   7.556
  474POPC   NC3 8807  22.768  33.166   9.892
  474POPC   PO4 8808  23.333  32.911   9.452
  474POPC   GL1 8809  23.119  32.936   9.050
  474POPC   GL2 8810  23.190  33.240   8.982
  474POPC   C1A 8811  22.801  33.004   8.703
  474POPC   D2A 8812  22.677  32.867   8.279
  474POPC   C3A 8813  23.022  32.818   7.961
  474POPC   C4A 8814  22.982  32.762   7.498
  474POPC   C1B 8815  23.262  33.199   8.549
  474POPC   C2B 8816  23.007  33.273   8.212
  474POPC   C3B 8817  23.038  33.275   7.754
  474POPC   C4B 8818  22.691  33.345   7.520
  475POPC   NC3 8819   9.213   2.887   9.384
  475POPC   PO4 8820   9.062   2.299   9.302
  475POPC   GL1 8821   8.747   2.577   9.099
  475POPC   GL2 8822   8.903   2.884   8.957
  475POPC   C1A 8823   8.523   2.629   8.719
  475POPC   D2A 8824   8.774   2.885   8.437
  475POPC   C3A 8825   8.987   2.598   8.165
  475POPC   C4A 8826   9.105   2.567   7.736
  475POPC   C1B 8827   9.245   2.895   8.629
  475POPC   C2B 8828   9.417   3.114   8.282
  475POPC   C3B 8829   9.270   3.031   7.876
  475POPC   C4B 8830   9.144   3.069   7.459
  476POPC   NC3 8831  11.712   4.947   9.709
  476POPC   PO4 8832  12.188   5.208   9.760
  476POPC   GL1 8833  12.019   5.029   9.305
  476POPC   GL2 8834  11.774   4.731   9.239
  476POPC   C1A 8835  11.942   5.117   8.835
  476POPC   D2A 8836  11.855   5.241   8.385
  476POPC   C3A 8837  12.110   5.205   7.956
  476POPC   C4A 8838  12.279   5.119   7.520
  476POPC   C1B 8839  11.920   4.592   8.815
  476POPC   C2B 8840  11.915   4.429   8.373
  476POPC   C3B 8841  12.023   4.679   8.002
  476POPC   C4B 8842  12.142   4.638   7.574
  477POPC   NC3 8843  33.735   9.948   9.433
  477POPC   PO4 8844  33.849  10.597   9.355
  477POPC   GL1 8845  33.929  10.411   9.042
  477POPC   GL2 8846  33.610  10.224   9.032
  477POPC   C1A 8847  33.945  10.686   8.708
  477POPC   D2A 8848  33.932  10.431   8.389
  477POPC   C3A 8849  33.796  10.689   8.127
  477POPC   C4A 8850  34.103  10.679   7.876
  477POPC   C1B 8851  33.498  10.397   8.634
  477POPC   C2B 8852  33.478  10.245   8.232
  477POPC   C3B 8853  33.793  10.222   7.927
  477POPC   C4B 8854  33.742  10.473   7.554
  478POPC   NC3 8855  17.347  26.479   9.492
  478POPC   PO4 8856  17.983  26.838   9.490
  478POPC   GL1 8857  17.720  26.978   9.139
  478POPC   GL2 8858  17.351  27.065   9.091
  478POPC   C1A 8859  17.591  26.706   8.810
  478POPC   D2A 8860  17.381  26.608   8.427
  478POPC   C3A 8861  17.583  26.647   8.030
  478POPC   C4A 8862  17.847  26.317   7.886
  478POPC   C1B 8863  17.087  26.907   8.745
  478POPC   C2B 8864  16.898  26.746   8.356
  478POPC   C3B 8865  17.054  26.531   8.010
  478POPC   C4B 8866  17.104  26.837   7.751
  479POPC   NC3 8867  16.597  28.772   9.548
  479POPC   PO4 8868  16.366  29.320   9.436
  479POPC   GL1 8869  16.772  29.232   9.234
  479POPC   GL2 8870  16.881  28.911   9.166
  479POPC   C1A 8871  16.899  29.278   8.793
  479POPC   D2A 8872  16.923  29.418   8.353
  479POPC   C3A 8873  16.925  29.159   7.959
  479POPC   C4A 8874  17.011  29.269   7.503
  479POPC   C1B 8875  16.550  28.916   8.836
  479POPC   C2B 8876  16.654  28.936   8.399
  479POPC   C3B 8877  16.895  28.661   8.124
  479POPC   C4B 8878  16.800  28.721   7.709
  480POPC   NC3 8879  20.272  26.795   9.561
  480POPC   PO4 8880  19.703  26.879   9.286
  480POPC   GL1 8881  20.057  26.924   9.069
  480POPC   GL2 8882  20.033  26.517   9.150
  480POPC   C1A 8883  19.885  27.164   8.666
  480POPC   D2A 8884  19.633  27.310   8.287
  480POPC   C3A 8885  19.689  27.089   7.900
  480POPC   C4A 8886  20.105  26.926   7.746
  480POPC   C1B 8887  19.857  26.642   8.716
  480POPC   C2B 8888  20.014  26.569   8.332
  480POPC   C3B 8889  19.831  26.555   7.944
  480POPC   C4B 8890  19.506  26.685   7.677
  481POPC   NC3 8891  18.749  38.725   9.403
  481POPC   PO4 8892  18.063  38.718   9.470
  481POPC   GL1 8893  18.257  38.537   9.147
  481POPC   GL2 8894  18.459  38.214   9.167
  481POPC   C1A 8895  18.030  38.379   8.795
  481POPC   D2A 8896  18.070  38.650   8.455
  481POPC   C3A 8897  18.207  38.566   8.068
  481POPC   C4A 8898  18.360  38.777   7.734
  481POPC   C1B 8899  18.521  38.408   8.753
  481POPC   C2B 8900  18.708  38.364   8.406
  481POPC   C3B 8901  18.727  38.562   8.043
  481POPC   C4B 8902  18.735  38.376   7.657
  482POPC   NC3 8903  15.956   7.040   9.596
  482POPC   PO4 8904  16.266   6.445   9.653
  482POPC   GL1 8905  16.007   6.622   9.252
  482POPC   GL2 8906  16.093   6.900   8.994
  482POPC   C1A 8907  15.829   6.562   8.777
  482POPC   D2A 8908  16.027   6.780   8.401
  482POPC   C3A 8909  16.048   6.608   7.939
  482POPC   C4A 8910  15.677   6.524   7.627
  482POPC   C1B 8911  16.232   7.199   8.675
  482POPC   C2B 8912  16.268   7.226   8.221
  482POPC   C3B 8913  16.340   7.042   7.816
  482POPC   C4B 8914  16.313   6.808   7.431
  483POPC   NC3 8915   4.414  35.560   9.424
  483POPC   PO4 8916   3.855  35.343   9.266
  483POPC   GL1 8917   4.007  35.671   9.038
  483POPC   GL2 8918   4.333  35.482   8.931
  483POPC   C1A 8919   3.948  35.611   8.607
  483POPC   D2A 8920   4.311  35.389   8.427
  483POPC   C3A 8921   4.386  35.407   8.024
  483POPC   C4A 8922   4.182  35.363   7.648
  483POPC   C1B 8923   4.674  35.190   8.757
  483POPC   C2B 8924   4.768  35.074   8.318
  483POPC   C3B 8925   4.569  34.952   7.921
  483POPC   C4B 8926   4.501  34.984   7.479
  484POPC   NC3 8927  43.864  17.720   9.646
  484POPC   PO4 8928  44.010  18.429   9.476
  484POPC   GL1 8929  44.157  18.183   9.169
  484POPC   GL2 8930  43.808  18.090   9.134
  484POPC   C1A 8931  44.133  18.280   8.742
  484POPC   D2A 8932  43.891  18.449   8.385
  484POPC   C3A 8933  43.967  18.223   8.037
  484POPC   C4A 8934  44.045  17.818   7.869
  484POPC   C1B 8935  43.689  18.020   8.702
  484POPC   C2B 8936  43.718  17.839   8.284
  484POPC   C3B 8937  43.527  17.962   7.891
  484POPC   C4B 8938  43.718  18.215   7.574
  485POPC   NC3 8939   0.965  26.167   9.541
  485POPC   PO4 8940   1.182  25.530   9.532
  485POPC   GL1 8941   1.120  25.779   9.169
  485POPC   GL2 8942   0.761  25.924   9.139
  485POPC   C1A 8943   1.349  25.892   8.782
  485POPC   D2A 8944   1.535  25.929   8.377
  485POPC   C3A 8945   1.315  25.883   7.978
  485POPC   C4A 8946   1.417  25.949   7.581
  485POPC   C1B 8947   0.855  25.786   8.732
  485POPC   C2B 8948   1.046  25.664   8.349
  485POPC   C3B 8949   0.844  25.672   7.916
  485POPC   C4B 8950   0.935  25.812   7.475
  486POPC   NC3 8951   0.805   9.848   9.753
  486POPC   PO4 8952   1.470   9.719   9.471
  486POPC   GL1 8953   1.243   9.796   9.116
  486POPC   GL2 8954   0.874   9.739   9.177
  486POPC   C1A 8955   1.315   9.692   8.704
  486POPC   D2A 8956   1.183   9.831   8.315
  486POPC   C3A 8957   1.253   9.581   8.001
  486POPC   C4A 8958   0.899   9.436   7.843
  486POPC   C1B 8959   0.837   9.906   8.729
  486POPC   C2B 8960   0.695  10.056   8.329
  486POPC   C3B 8961   0.865   9.967   7.922
  486POPC   C4B 8962   0.850   9.833   7.485
  487POPC   NC3 8963  11.885  30.285   9.404
  487POPC   PO4 8964  12.400  29.810   9.446
  487POPC   GL1 8965  12.266  30.025   9.071
  487POPC   GL2 8966  12.504  30.285   9.001
  487POPC   C1A 8967  12.155  29.850   8.637
  487POPC   D2A 8968  12.306  29.754   8.227
  487POPC   C3A 8969  12.057  29.636   7.861
  487POPC   C4A 8970  12.274  29.642   7.458
  487POPC   C1B 8971  12.237  30.364   8.666
  487POPC   C2B 8972  12.254  30.261   8.274
  487POPC   C3B 8973  12.225  30.124   7.876
  487POPC   C4B 8974  11.892  30.136   7.611
  488POPC   NC3 8975  28.288  30.514   9.459
  488POPC   PO4 8976  28.870  31.059   9.518
  488POPC   GL1 8977  28.452  30.975   9.253
  488POPC   GL2 8978  28.473  30.675   9.024
  488POPC   C1A 8979  28.148  31.002   8.855
  488POPC   D2A 8980  28.227  30.749   8.511
  488POPC   C3A 8981  28.258  30.861   8.079
  488POPC   C4A 8982  28.211  30.714   7.650
  488POPC   C1B 8983  28.572  30.405   8.691
  488POPC   C2B 8984  28.666  30.551   8.292
  488POPC   C3B 8985  28.619  30.539   7.874
  488POPC   C4B 8986  28.676  30.230   7.556
  489POPC   NC3 8987  13.805  42.418   9.517
  489POPC   PO4 8988  13.223  41.955   9.718
  489POPC   GL1 8989  13.493  42.073   9.294
  489POPC   GL2 8990  13.477  42.406   9.119
  489POPC   C1A 8991  13.588  42.022   8.828
  489POPC   D2A 8992  13.527  42.245   8.432
  489POPC   C3A 8993  13.668  42.120   8.027
  489POPC   C4A 8994  13.379  42.153   7.727
  489POPC   C1B 8995  13.714  42.583   8.774
  489POPC   C2B 8996  13.695  42.736   8.317
  489POPC   C3B 8997  13.528  42.610   7.903
  489POPC   C4B 8998  13.548  42.579   7.458
  490POPC   NC3 8999  38.504  35.448   9.496
  490POPC   PO4 9000  38.002  35.031   9.560
  490POPC   GL1 9001  38.221  35.150   9.138
  490POPC   GL2 9002  38.488  35.362   9.023
  490POPC   C1A 9003  38.151  35.344   8.681
  490POPC   D2A 9004  38.288  35.567   8.329
  490POPC   C3A 9005  38.146  35.331   7.961
  490POPC   C4A 9006  38.287  35.399   7.554
  490POPC   C1B 9007  38.674  35.204   8.683
  490POPC   C2B 9008  38.782  35.371   8.274
  490POPC   C3B 9009  38.714  35.431   7.839
  490POPC   C4B 9010  38.905  35.410   7.401
  491POPC   NC3 9011  40.202  39.628   9.369
  491POPC   PO4 9012  40.134  38.975   9.385
  491POPC   GL1 9013  39.959  39.278   9.064
  491POPC   GL2 9014  39.726  39.031   8.984
  491POPC   C1A 9015  39.777  39.438   8.647
  491POPC   D2A 9016  39.707  39.491   8.178
  491POPC   C3A 9017  40.060  39.421   7.855
  491POPC   C4A 9018  40.223  39.553   7.430
  491POPC   C1B 9019  40.010  38.937   8.682
  491POPC   C2B 9020  40.048  39.095   8.297
  491POPC   C3B 9021  39.819  38.990   7.972
  491POPC   C4B 9022  39.873  39.008   7.592
  492POPC   NC3 9023   2.414  17.846   9.566
  492POPC   PO4 9024   2.869  18.323   9.478
  492POPC   GL1 9025   2.726  18.317   9.090
  492POPC   GL2 9026   2.593  18.664   9.067
  492POPC   C1A 9027   2.804  18.029   8.739
  492POPC   D2A 9028   2.606  17.906   8.346
  492POPC   C3A 9029   2.758  17.927   7.957
  492POPC   C4A 9030   2.998  18.238   7.822
  492POPC   C1B 9031   2.593  18.516   8.625
  492POPC   C2B 9032   2.839  18.456   8.270
  492POPC   C3B 9033   2.829  18.697   7.895
  492POPC   C4B 9034   2.736  18.668   7.454
  493POPC   NC3 9035   6.370  26.614   9.446
  493POPC   PO4 9036   7.032  26.582   9.415
  493POPC   GL1 9037   6.947  26.638   9.025
  493POPC   GL2 9038   6.589  26.681   8.989
  493POPC   C1A 9039   6.919  26.790   8.608
  493POPC   D2A 9040   6.612  26.780   8.279
  493POPC   C3A 9041   6.842  26.871   7.904
  493POPC   C4A 9042   6.822  26.791   7.456
  493POPC   C1B 9043   6.280  26.427   8.797
  493POPC   C2B 9044   6.092  26.481   8.442
  493POPC   C3B 9045   6.264  26.455   8.042
  493POPC   C4B 9046   6.371  26.735   7.743
  494POPC   NC3 9047  37.000   3.948   9.488
  494POPC   PO4 9048  36.810   4.536   9.476
  494POPC   GL1 9049  36.818   4.299   9.109
  494POPC   GL2 9050  37.142   4.264   9.076
  494POPC   C1A 9051  36.765   4.535   8.734
  494POPC   D2A 9052  36.734   4.367   8.317
  494POPC   C3A 9053  36.865   4.632   7.967
  494POPC   C4A 9054  36.899   4.501   7.538
  494POPC   C1B 9055  37.034   4.102   8.647
  494POPC   C2B 9056  37.040   3.933   8.214
  494POPC   C3B 9057  37.110   4.072   7.773
  494POPC   C4B 9058  37.199   4.173   7.314
  495POPC   NC3 9059  12.762  26.150   9.475
  495POPC   PO4 9060  12.456  25.586   9.356
  495POPC   GL1 9061  12.880  25.769   9.100
  495POPC   GL2 9062  13.012  26.151   9.036
  495POPC   C1A 9063  13.022  25.853   8.649
  495POPC   D2A 9064  12.846  25.877   8.235
  495POPC   C3A 9065  12.497  26.135   8.116
  495POPC   C4A 9066  12.612  26.128   7.692
  495POPC   C1B 9067  13.292  26.284   8.651
  495POPC   C2B 9068  13.334  26.131   8.206
  495POPC   C3B 9069  13.206  26.097   7.750
  495POPC   C4B 9070  13.343  26.420   7.418
  496POPC   NC3 9071  18.800   8.464   9.902
  496POPC   PO4 9072  19.269   7.979   9.509
  496POPC   GL1 9073  19.288   8.078   9.097
  496POPC   GL2 9074  18.956   8.277   9.151
  496POPC   C1A 9075  19.301   8.188   8.675
  496POPC   D2A 9076  18.996   8.295   8.364
  496POPC   C3A 9077  19.012   8.267   7.885
  496POPC   C4A 9078  19.340   8.066   7.700
  496POPC   C1B 9079  18.863   7.916   8.897
  496POPC   C2B 9080  18.952   7.803   8.492
  496POPC   C3B 9081  18.726   7.920   8.144
  496POPC   C4B 9082  18.590   7.937   7.759
  497POPC   NC3 9083  19.269  26.842   9.474
  497POPC   PO4 9084  18.838  26.385   9.239
  497POPC   GL1 9085  19.139  26.635   9.018
  497POPC   GL2 9086  19.238  27.017   9.017
  497POPC   C1A 9087  19.002  26.790   8.636
  497POPC   D2A 9088  19.103  26.582   8.289
  497POPC   C3A 9089  18.879  26.733   7.987
  497POPC   C4A 9090  19.006  26.606   7.616
  497POPC   C1B 9091  19.236  27.251   8.625
  497POPC   C2B 9092  19.176  27.109   8.181
  497POPC   C3B 9093  19.152  27.099   7.714
  497POPC   C4B 9094  19.286  26.936   7.288
  498POPC   NC3 9095   4.148  10.223   9.757
  498POPC   PO4 9096   4.712  10.047   9.376
  498POPC   GL1 9097   4.415   9.800   9.054
  498POPC   GL2 9098   4.232   9.475   9.133
  498POPC   C1A 9099   4.177   9.735   8.678
  498POPC   D2A 9100   4.252   9.739   8.234
  498POPC   C3A 9101   4.060   9.848   7.863
  498POPC   C4A 9102   4.352  10.055   7.578
  498POPC   C1B 9103   4.576   9.380   8.822
  498POPC   C2B 9104   4.742   9.484   8.396
  498POPC   C3B 9105   4.595   9.279   8.012
  498POPC   C4B 9106   4.397   9.496   7.689
  499POPC   NC3 9107  33.120  29.944   9.605
  499POPC   PO4 9108  32.566  30.067   9.429
  499POPC   GL1 9109  32.974  30.154   9.161
  499POPC   GL2 9110  33.125  29.807   9.117
  499POPC   C1A 9111  33.152  30.129   8.712
  499POPC   D2A 9112  33.140  29.794   8.382
  499POPC   C3A 9113  33.223  29.948   7.980
  499POPC   C4A 9114  32.997  30.096   7.607
  499POPC   C1B 9115  32.767  29.813   8.794
  499POPC   C2B 9116  32.634  29.915   8.350
  499POPC   C3B 9117  32.738  29.738   7.941
  499POPC   C4B 9118  33.036  29.396   7.867
  500POPC   NC3 9119  22.166  23.610   9.649
  500POPC   PO4 9120  21.524  23.655   9.506
  500POPC   GL1 9121  21.871  23.698   9.168
  500POPC   GL2 9122  22.191  23.495   9.153
  500POPC   C1A 9123  22.143  23.901   8.832
  500POPC   D2A 9124  22.191  24.062   8.408
  500POPC   C3A 9125  21.964  23.879   8.066
  500POPC   C4A 9126  22.122  23.996   7.714
  500POPC   C1B 9127  22.363  23.448   8.722
  500POPC   C2B 9128  22.148  23.467   8.303
  500POPC   C3B 9129  22.135  23.437   7.824
  500POPC   C4B 9130  22.516  23.303   7.589
  501POPC   NC3 9131   6.642  32.674   9.826
  501POPC   PO4 9132   6.298  32.113   9.559
  501POPC   GL1 9133   6.401  32.150   9.138
  501POPC   GL2 9134   6.681  32.328   9.179
  501POPC   C1A 9135   6.525  32.063   8.732
  501POPC   D2A 9136   6.684  32.225   8.354
  501POPC   C3A 9137   6.442  32.068   8.001
  501POPC   C4A 9138   6.752  32.086   7.718
  501POPC   C1B 9139   6.687  32.563   8.774
  501POPC   C2B 9140   6.499  32.749   8.432
  501POPC   C3B 9141   6.479  32.574   8.038
  501POPC   C4B 9142   6.482  32.507   7.596
  502POPC   NC3 9143  29.546   6.439   9.549
  502POPC   PO4 9144  28.902   6.296   9.726
  502POPC   GL1 9145  29.122   6.595   9.304
  502POPC   GL2 9146  29.380   6.640   9.089
  502POPC   C1A 9147  28.981   6.728   8.810
  502POPC   D2A 9148  28.819   6.480   8.483
  502POPC   C3A 9149  28.981   6.625   8.116
  502POPC   C4A 9150  28.991   6.467   7.711
  502POPC   C1B 9151  29.434   6.938   8.734
  502POPC   C2B 9152  29.439   6.826   8.288
  502POPC   C3B 9153  29.359   6.797   7.834
  502POPC   C4B 9154  29.376   7.121   7.548
  503POPC   NC3 9155  21.235   7.438   9.484
  503POPC   PO4 9156  21.843   7.114   9.542
  503POPC   GL1 9157  21.595   7.365   9.132
  503POPC   GL2 9158  21.178   7.291   9.018
  503POPC   C1A 9159  21.499   7.446   8.655
  503POPC   D2A 9160  21.448   7.679   8.250
  503POPC   C3A 9161  21.712   7.483   7.947
  503POPC   C4A 9162  21.591   7.350   7.504
  503POPC   C1B 9163  21.093   7.090   8.634
  503POPC   C2B 9164  21.450   6.969   8.354
  503POPC   C3B 9165  21.469   7.037   7.915
  503POPC   C4B 9166  21.101   7.292   7.791
  504POPC   NC3 9167  35.572  14.148   9.471
  504POPC   PO4 9168  35.113  14.672   9.641
  504POPC   GL1 9169  35.232  14.620   9.204
  504POPC   GL2 9170  35.066  14.912   9.107
  504POPC   C1A 9171  35.421  14.344   8.861
  504POPC   D2A 9172  35.261  14.326   8.453
  504POPC   C3A 9173  35.258  14.022   8.149
  504POPC   C4A 9174  35.489  14.146   7.788
  504POPC   C1B 9175  35.285  14.808   8.720
  504POPC   C2B 9176  35.652  14.663   8.496
  504POPC   C3B 9177  35.568  14.598   8.065
  504POPC   C4B 9178  35.278  14.844   7.837
  505POPC   NC3 9179  14.327   8.628   9.542
  505POPC   PO4 9180  14.462   8.099   9.859
  505POPC   GL1 9181  14.423   8.129   9.313
  505POPC   GL2 9182  14.346   8.387   9.113
  505POPC   C1A 9183  14.570   8.030   8.855
  505POPC   D2A 9184  14.510   8.252   8.462
  505POPC   C3A 9185  14.418   8.068   8.076
  505POPC   C4A 9186  14.708   7.913   7.795
  505POPC   C1B 9187  14.215   8.669   8.865
  505POPC   C2B 9188  14.171   8.636   8.476
  505POPC   C3B 9189  14.094   8.618   8.056
  505POPC   C4B 9190  14.363   8.492   7.766
  506POPC   NC3 9191  42.960  18.149   9.639
  506POPC   PO4 9192  42.200  18.276   9.583
  506POPC   GL1 9193  42.205  18.346   9.129
  506POPC   GL2 9194  42.511  18.481   8.961
  506POPC   C1A 9195  42.174  18.219   8.696
  506POPC   D2A 9196  42.329  18.146   8.265
  506POPC   C3A 9197  42.066  18.288   7.890
  506POPC   C4A 9198  42.140  18.107   7.443
  506POPC   C1B 9199  42.702  18.393   8.633
  506POPC   C2B 9200  42.962  18.514   8.329
  506POPC   C3B 9201  42.750  18.587   7.940
  506POPC   C4B 9202  42.489  18.413   7.639
  507POPC   NC3 9203  34.509  44.015   9.612
  507POPC   PO4 9204  35.095  43.964   9.492
  507POPC   GL1 9205  34.801  43.869   9.220
  507POPC   GL2 9206  34.774  44.197   9.061
  507POPC   C1A 9207  34.506  43.786   8.901
  507POPC   D2A 9208  34.622  43.686   8.473
  507POPC   C3A 9209  34.398  43.625   8.118
  507POPC   C4A 9210  34.618  43.711   7.741
  507POPC   C1B 9211  34.690  44.165   8.593
  507POPC   C2B 9212  34.530  44.114   8.152
  507POPC   C3B 9213  34.322  44.208   7.731
  507POPC   C4B 9214  34.543  44.466   7.400
  508POPC   NC3 9215   9.924  34.139   9.708
  508POPC   PO4 9216   9.412  33.703   9.506
  508POPC   GL1 9217   9.693  33.703   9.164
  508POPC   GL2 9218   9.913  33.427   9.141
  508POPC   C1A 9219   9.626  33.769   8.730
  508POPC   D2A 9220   9.622  34.107   8.407
  508POPC   C3A 9221   9.857  34.060   7.992
  508POPC   C4A 9222   9.875  34.005   7.520
  508POPC   C1B 9223  10.026  33.370   8.738
  508POPC   C2B 9224   9.768  33.423   8.372
  508POPC   C3B 9225   9.861  33.545   7.980
  508POPC   C4B 9226  10.098  33.216   7.806
  509POPC   NC3 9227  34.043   4.899   9.557
  509POPC   PO4 9228  33.529   5.326   9.702
  509POPC   GL1 9229  33.506   5.085   9.292
  509POPC   GL2 9230  33.662   5.361   9.146
  509POPC   C1A 9231  33.745   4.926   8.886
  509POPC   D2A 9232  33.797   5.100   8.433
  509POPC   C3A 9233  33.951   4.906   8.029
  509POPC   C4A 9234  33.852   5.060   7.608
  509POPC   C1B 9235  33.432   5.338   8.738
  509POPC   C2B 9236  33.435   5.460   8.303
  509POPC   C3B 9237  33.523   5.193   7.956
  509POPC   C4B 9238  33.373   5.187   7.512
  510POPC   NC3 9239  39.342   8.439   9.528
  510POPC   PO4 9240  39.297   7.760   9.633
  510POPC   GL1 9241  39.232   8.035   9.218
  510POPC   GL2 9242  38.989   8.299   9.163
  510POPC   C1A 9243  39.444   8.162   8.823
  510POPC   D2A 9244  39.760   8.127   8.518
  510POPC   C3A 9245  39.572   8.045   8.112
  510POPC   C4A 9246  39.463   8.408   7.925
  510POPC   C1B 9247  39.029   8.417   8.717
  510POPC   C2B 9248  39.084   8.193   8.313
  510POPC   C3B 9249  38.997   8.162   7.859
  510POPC   C4B 9250  38.724   7.834   7.711
  511POPC   NC3 9251  44.765  22.509   9.305
  511POPC   PO4 9252  44.871  21.827   9.511
  511POPC   GL1 9253  44.579  21.994   9.179
  511POPC   GL2 9254  44.343  21.728   9.077
  511POPC   C1A 9255  44.471  22.218   8.773
  511POPC   D2A 9256  44.370  22.116   8.353
  511POPC   C3A 9257  44.440  22.348   7.992
  511POPC   C4A 9258  44.683  22.207   7.693
  511POPC   C1B 9259  44.614  21.712   8.721
  511POPC   C2B 9260  44.744  21.774   8.290
  511POPC   C3B 9261  44.987  21.849   7.918
  511POPC   C4B 9262  44.974  21.860   7.434
  512POPC   NC3 9263  43.592  22.363   9.281
  512POPC   PO4 9264  43.176  21.937   9.540
  512POPC   GL1 9265  43.201  22.077   9.069
  512POPC   GL2 9266  42.985  22.278   8.909
  512POPC   C1A 9267  43.247  21.990   8.596
  512POPC   D2A 9268  43.003  22.213   8.305
  512POPC   C3A 9269  43.102  22.051   7.903
  512POPC   C4A 9270  43.456  21.787   7.846
  512POPC   C1B 9271  42.896  22.639   8.700
  512POPC   C2B 9272  43.032  22.725   8.319
  512POPC   C3B 9273  42.899  22.557   7.934
  512POPC   C4B 9274  42.878  22.342   7.523
  513POPC   NC3 9275  35.166  19.135   9.545
  513POPC   PO4 9276  35.791  18.904   9.528
  513POPC   GL1 9277  35.700  19.169   9.146
  513POPC   GL2 9278  35.388  19.277   9.132
  513POPC   C1A 9279  35.531  19.252   8.662
  513POPC   D2A 9280  35.396  19.060   8.301
  513POPC   C3A 9281  35.404  19.146   7.862
  513POPC   C4A 9282  35.633  18.781   7.870
  513POPC   C1B 9283  35.067  19.388   8.869
  513POPC   C2B 9284  35.045  19.461   8.447
  513POPC   C3B 9285  34.950  19.189   8.104
  513POPC   C4B 9286  34.841  19.234   7.700
  514POPC   NC3 9287  10.244  10.694   9.548
  514POPC   PO4 9288  10.711  10.185   9.653
  514POPC   GL1 9289  10.657  10.419   9.212
  514POPC   GL2 9290  10.684  10.732   9.222
  514POPC   C1A 9291  10.647  10.285   8.771
  514POPC   D2A 9292  10.423  10.283   8.368
  514POPC   C3A 9293  10.544  10.544   8.060
  514POPC   C4A 9294  10.511  10.280   7.726
  514POPC   C1B 9295  10.454  10.777   8.818
  514POPC   C2B 9296  10.319  10.980   8.398
  514POPC   C3B 9297  10.147  10.846   7.963
  514POPC   C4B 9298  10.449  10.763   7.585
  515POPC   NC3 9299  19.133   9.283   9.434
  515POPC   PO4 9300  18.685   8.790   9.534
  515POPC   GL1 9301  18.939   8.836   9.118
  515POPC   GL2 9302  19.257   8.658   8.991
  515POPC   C1A 9303  18.831   8.857   8.641
  515POPC   D2A 9304  18.896   8.732   8.172
  515POPC   C3A 9305  18.910   8.993   7.822
  515POPC   C4A 9306  19.161   9.343   7.691
  515POPC   C1B 9307  19.292   9.056   8.770
  515POPC   C2B 9308  19.172   9.164   8.344
  515POPC   C3B 9309  19.361   8.924   8.034
  515POPC   C4B 9310  19.311   8.698   7.683
  516POPC   NC3 9311  13.855  23.763   9.501
  516POPC   PO4 9312  13.213  24.124   9.524
  516POPC   GL1 9313  13.417  23.818   9.249
  516POPC   GL2 9314  13.696  24.046   9.110
  516POPC   C1A 9315  13.575  23.608   8.870
  516POPC   D2A 9316  13.702  23.820   8.486
  516POPC   C3A 9317  13.505  23.746   8.101
  516POPC   C4A 9318  13.388  23.552   7.724
  516POPC   C1B 9319  13.953  24.196   8.753
  516POPC   C2B 9320  14.156  24.039   8.357
  516POPC   C3B 9321  13.976  24.045   7.963
  516POPC   C4B 9322  13.623  24.023   7.676
  517POPC   NC3 9323  12.908  27.913   9.603
  517POPC   PO4 9324  12.652  27.444   9.449
  517POPC   GL1 9325  12.795  27.649   9.135
  517POPC   GL2 9326  12.655  27.927   9.141
  517POPC   C1A 9327  12.822  27.557   8.713
  517POPC   D2A 9328  12.529  27.511   8.415
  517POPC   C3A 9329  12.653  27.402   8.010
  517POPC   C4A 9330  12.860  27.530   7.678
  517POPC   C1B 9331  12.429  27.860   8.797
  517POPC   C2B 9332  12.473  28.007   8.402
  517POPC   C3B 9333  12.725  27.896   8.066
  517POPC   C4B 9334  12.759  28.040   7.674
  518POPC   NC3 9335  18.411   9.305   9.527
  518POPC   PO4 9336  18.160   8.711   9.746
  518POPC   GL1 9337  18.244   8.785   9.240
  518POPC   GL2 9338  18.447   9.056   9.090
  518POPC   C1A 9339  18.327   8.672   8.776
  518POPC   D2A 9340  18.182   8.831   8.363
  518POPC   C3A 9341  18.078   8.594   8.008
  518POPC   C4A 9342  18.142   8.675   7.559
  518POPC   C1B 9343  18.414   9.236   8.669
  518POPC   C2B 9344  18.576   9.106   8.264
  518POPC   C3B 9345  18.406   8.985   7.862
  518POPC   C4B 9346  18.518   9.031   7.395
  519POPC   NC3 9347  38.180  33.864   9.533
  519POPC   PO4 9348  38.824  34.195   9.361
  519POPC   GL1 9349  38.639  33.866   9.125
  519POPC   GL2 9350  38.318  33.663   9.110
  519POPC   C1A 9351  38.556  33.830   8.723
  519POPC   D2A 9352  38.374  34.023   8.424
  519POPC   C3A 9353  38.799  34.131   8.241
  519POPC   C4A 9354  38.835  34.167   7.783
  519POPC   C1B 9355  38.248  33.419   8.730
  519POPC   C2B 9356  38.515  33.515   8.343
  519POPC   C3B 9357  38.478  33.804   7.978
  519POPC   C4B 9358  38.241  33.661   7.634
  520POPC   NC3 9359  14.717  22.499   9.455
  520POPC   PO4 9360  15.200  22.024   9.594
  520POPC   GL1 9361  15.115  22.088   9.159
  520POPC   GL2 9362  14.756  22.115   9.094
  520POPC   C1A 9363  15.366  22.110   8.761
  520POPC   D2A 9364  15.504  22.000   8.339
  520POPC   C3A 9365  15.364  22.180   7.957
  520POPC   C4A 9366  15.060  22.482   7.805
  520POPC   C1B 9367  14.870  21.992   8.649
  520POPC   C2B 9368  14.966  21.869   8.215
  520POPC   C3B 9369  14.921  21.979   7.782
  520POPC   C4B 9370  14.972  21.972   7.317
  521POPC   NC3 9371  29.280  17.321   9.579
  521POPC   PO4 9372  29.584  17.923   9.562
  521POPC   GL1 9373  29.517  17.630   9.200
  521POPC   GL2 9374  29.237  17.363   9.085
  521POPC   C1A 9375  29.447  17.719   8.769
  521POPC   D2A 9376  29.138  17.791   8.468
  521POPC   C3A 9377  29.315  17.592   8.122
  521POPC   C4A 9378  29.493  17.465   7.719
  521POPC   C1B 9379  28.940  17.413   8.728
  521POPC   C2B 9380  28.881  17.369   8.257
  521POPC   C3B 9381  28.995  17.333   7.805
  521POPC   C4B 9382  28.752  17.161   7.453
  522POPC   NC3 9383  42.058  20.507   9.303
  522POPC   PO4 9384  41.542  20.504   9.727
  522POPC   GL1 9385  41.544  20.519   9.272
  522POPC   GL2 9386  41.259  20.733   9.220
  522POPC   C1A 9387  41.533  20.556   8.817
  522POPC   D2A 9388  41.637  20.365   8.420
  522POPC   C3A 9389  41.780  20.534   8.043
  522POPC   C4A 9390  41.607  20.719   7.676
  522POPC   C1B 9391  41.089  20.931   8.846
  522POPC   C2B 9392  41.230  20.799   8.435
  522POPC   C3B 9393  41.274  20.596   8.044
  522POPC   C4B 9394  41.199  20.415   7.621
  523POPC   NC3 9395  23.936  20.874   9.542
  523POPC   PO4 9396  23.291  20.843   9.580
  523POPC   GL1 9397  23.572  20.633   9.235
  523POPC   GL2 9398  23.823  20.325   9.222
  523POPC   C1A 9399  23.707  20.681   8.802
  523POPC   D2A 9400  23.471  20.734   8.403
  523POPC   C3A 9401  23.653  20.806   7.995
  523POPC   C4A 9402  23.448  20.553   7.696
  523POPC   C1B 9403  23.996  20.261   8.793
  523POPC   C2B 9404  23.958  20.489   8.384
  523POPC   C3B 9405  23.732  20.295   8.051
  523POPC   C4B 9406  23.901  20.099   7.701
  524POPC   NC3 9407   6.074  10.502   9.357
  524POPC   PO4 9408   5.468  10.695   9.669
  524POPC   GL1 9409   5.697  10.779   9.181
  524POPC   GL2 9410   5.772  10.453   8.943
  524POPC   C1A 9411   5.666  10.856   8.705
  524POPC   D2A 9412   5.721  10.495   8.419
  524POPC   C3A 9413   5.623  10.618   8.009
  524POPC   C4A 9414   5.702  10.810   7.627
  524POPC   C1B 9415   6.164  10.564   8.720
  524POPC   C2B 9416   6.204  10.611   8.280
  524POPC   C3B 9417   6.080  10.458   7.858
  524POPC   C4B 9418   6.129  10.618   7.438
  525POPC   NC3 9419  43.836  27.741   9.616
  525POPC   PO4 9420  44.473  27.481   9.577
  525POPC   GL1 9421  44.232  27.517   9.177
  525POPC   GL2 9422  43.868  27.410   9.195
  525POPC   C1A 9423  44.138  27.535   8.721
  525POPC   D2A 9424  44.172  27.497   8.254
  525POPC   C3A 9425  43.888  27.761   8.070
  525POPC   C4A 9426  43.708  27.807   7.683
  525POPC   C1B 9427  43.631  27.213   8.825
  525POPC   C2B 9428  43.433  27.314   8.396
  525POPC   C3B 9429  43.465  27.345   7.944
  525POPC   C4B 9430  43.860  27.301   7.774
  526POPC   NC3 9431  35.537   8.233   9.612
  526POPC   PO4 9432  34.902   8.122   9.594
  526POPC   GL1 9433  35.189   8.256   9.197
  526POPC   GL2 9434  35.499   8.103   9.136
  526POPC   C1A 9435  35.389   8.469   8.780
  526POPC   D2A 9436  35.171   8.650   8.383
  526POPC   C3A 9437  35.223   8.397   7.966
  526POPC   C4A 9438  35.250   7.962   7.756
  526POPC   C1B 9439  35.643   8.002   8.771
  526POPC   C2B 9440  35.373   7.931   8.471
  526POPC   C3B 9441  35.524   7.763   8.132
  526POPC   C4B 9442  35.729   8.059   7.835
  527POPC   NC3 9443  19.038  30.528   9.610
  527POPC   PO4 9444  19.038  29.851   9.663
  527POPC   GL1 9445  18.921  29.800   9.215
  527POPC   GL2 9446  18.942  30.156   9.253
  527POPC   C1A 9447  19.032  29.619   8.777
  527POPC   D2A 9448  19.023  29.871   8.420
  527POPC   C3A 9449  19.024  29.757   8.028
  527POPC   C4A 9450  19.102  29.577   7.641
  527POPC   C1B 9451  19.057  30.174   8.834
  527POPC   C2B 9452  18.826  30.320   8.495
  527POPC   C3B 9453  18.992  30.272   8.085
  527POPC   C4B 9454  18.958  30.112   7.667
  528POPC   NC3 9455  12.226  28.635   9.493
  528POPC   PO4 9456  11.885  28.055   9.405
  528POPC   GL1 9457  12.191  28.228   9.155
  528POPC   GL2 9458  11.922  28.485   9.107
  528POPC   C1A 9459  12.205  28.300   8.732
  528POPC   D2A 9460  12.041  28.320   8.322
  528POPC   C3A 9461  12.275  28.188   7.976
  528POPC   C4A 9462  12.231  28.225   7.561
  528POPC   C1B 9463  11.696  28.397   8.722
  528POPC   C2B 9464  11.654  28.644   8.352
  528POPC   C3B 9465  11.761  28.547   7.932
  528POPC   C4B 9466  11.935  28.649   7.560
  529POPC   NC3 9467  11.475  31.840   9.519
  529POPC   PO4 9468  12.018  31.475   9.367
  529POPC   GL1 9469  11.567  31.457   9.174
  529POPC   GL2 9470  11.368  31.771   9.031
  529POPC   C1A 9471  11.375  31.319   8.785
  529POPC   D2A 9472  11.339  31.546   8.397
  529POPC   C3A 9473  11.313  31.221   8.092
  529POPC   C4A 9474  11.443  31.103   7.673
  529POPC   C1B 9475  11.790  31.819   8.818
  529POPC   C2B 9476  11.882  31.680   8.386
  529POPC   C3B 9477  11.712  31.552   7.981
  529POPC   C4B 9478  11.665  31.697   7.557
  530POPC   NC3 9479  43.961  29.772   9.589
  530POPC   PO4 9480  43.355  30.221   9.564
  530POPC   GL1 9481  43.591  30.211   9.133
  530POPC   GL2 9482  43.938  30.063   9.175
  530POPC   C1A 9483  43.838  30.263   8.732
  530POPC   D2A 9484  43.909  29.996   8.394
  530POPC   C3A 9485  43.832  30.200   8.031
  530POPC   C4A 9486  43.698  30.008   7.662
  530POPC   C1B 9487  44.256  29.943   8.840
  530POPC   C2B 9488  44.415  29.951   8.413
  530POPC   C3B 9489  44.320  30.038   8.000
  530POPC   C4B 9490  44.006  29.690   7.912
  531POPC   NC3 9491  37.994   4.050   9.446
  531POPC   PO4 9492  37.802   4.636   9.557
  531POPC   GL1 9493  37.624   4.428   9.164
  531POPC   GL2 9494  37.635   4.060   9.090
  531POPC   C1A 9495  37.490   4.342   8.718
  531POPC   D2A 9496  37.717   4.395   8.386
  531POPC   C3A 9497  37.472   4.354   8.030
  531POPC   C4A 9498  37.421   4.503   7.628
  531POPC   C1B 9499  37.994   4.230   8.815
  531POPC   C2B 9500  38.162   4.056   8.419
  531POPC   C3B 9501  37.978   4.156   8.041
  531POPC   C4B 9502  37.978   4.301   7.665
  532POPC   NC3 9503   1.605  40.251   9.277
  532POPC   PO4 9504   1.940  40.858   9.505
  532POPC   GL1 9505   2.052  40.808   9.095
  532POPC   GL2 9506   1.724  40.687   8.978
  532POPC   C1A 9507   2.127  40.714   8.669
  532POPC   D2A 9508   1.821  40.802   8.347
  532POPC   C3A 9509   2.047  40.754   7.961
  532POPC   C4A 9510   2.329  40.795   7.626
  532POPC   C1B 9511   1.785  41.118   8.771
  532POPC   C2B 9512   1.769  41.348   8.382
  532POPC   C3B 9513   1.762  41.175   7.986
  532POPC   C4B 9514   1.765  41.076   7.546
  533POPC   NC3 9515   9.644  39.759   9.479
  533POPC   PO4 9516  10.317  39.612   9.340
  533POPC   GL1 9517   9.988  39.382   9.122
  533POPC   GL2 9518   9.598  39.349   9.183
  533POPC   C1A 9519  10.012  39.310   8.689
  533POPC   D2A 9520   9.963  39.475   8.282
  533POPC   C3A 9521  10.049  39.184   7.978
  533POPC   C4A 9522   9.860  39.420   7.667
  533POPC   C1B 9523   9.541  39.098   8.817
  533POPC   C2B 9524   9.666  39.024   8.388
  533POPC   C3B 9525   9.539  39.173   7.987
  533POPC   C4B 9526   9.700  38.943   7.659
  534POPC   NC3 9527  37.078  40.922   9.582
  534POPC   PO4 9528  36.576  41.294   9.348
  534POPC   GL1 9529  36.576  40.878   9.258
  534POPC   GL2 9530  36.896  40.725   9.163
  534POPC   C1A 9531  36.533  40.843   8.833
  534POPC   D2A 9532  36.751  41.018   8.506
  534POPC   C3A 9533  36.719  40.839   8.137
  534POPC   C4A 9534  36.858  40.924   7.739
  534POPC   C1B 9535  36.984  40.536   8.790
  534POPC   C2B 9536  37.128  40.662   8.418
  534POPC   C3B 9537  37.212  40.637   8.015
  534POPC   C4B 9538  37.054  40.413   7.676
  535POPC   NC3 9539  10.192  20.986   9.550
  535POPC   PO4 9540   9.712  21.545   9.543
  535POPC   GL1 9541   9.789  21.413   9.128
  535POPC   GL2 9542  10.037  21.170   9.100
  535POPC   C1A 9543   9.655  21.299   8.696
  535POPC   D2A 9544   9.601  21.567   8.319
  535POPC   C3A 9545   9.691  21.376   7.943
  535POPC   C4A 9546   9.467  21.095   7.728
  535POPC   C1B 9547  10.141  21.425   8.744
  535POPC   C2B 9548  10.060  21.324   8.319
  535POPC   C3B 9549  10.185  21.500   7.914
  535POPC   C4B 9550  10.099  21.230   7.588
  536POPC   NC3 9551  35.769  19.951   9.470
  536POPC   PO4 9552  36.388  19.621   9.640
  536POPC   GL1 9553  36.246  19.849   9.279
  536POPC   GL2 9554  36.018  19.579   9.232
  536POPC   C1A 9555  36.083  19.998   8.862
  536POPC   D2A 9556  36.214  19.783   8.502
  536POPC   C3A 9557  36.073  19.775   8.104
  536POPC   C4A 9558  36.199  19.973   7.724
  536POPC   C1B 9559  35.942  19.492   8.829
  536POPC   C2B 9560  36.013  19.306   8.429
  536POPC   C3B 9561  35.866  19.309   8.005
  536POPC   C4B 9562  35.715  19.715   7.763
  537POPC   NC3 9563  34.902  12.887   9.542
  537POPC   PO4 9564  35.567  12.690   9.610
  537POPC   GL1 9565  35.313  12.930   9.240
  537POPC   GL2 9566  35.013  12.747   9.076
  537POPC   C1A 9567  35.333  13.048   8.781
  537POPC   D2A 9568  35.260  12.932   8.334
  537POPC   C3A 9569  35.643  12.960   8.060
  537POPC   C4A 9570  35.775  12.801   7.658
  537POPC   C1B 9571  34.874  12.831   8.668
  537POPC   C2B 9572  34.809  12.606   8.316
  537POPC   C3B 9573  34.918  12.711   7.937
  537POPC   C4B 9574  35.297  12.669   7.794
  538POPC   NC3 9575   3.460  32.555   9.498
  538POPC   PO4 9576   3.234  32.047   9.181
  538POPC   GL1 9577   3.366  32.330   8.921
  538POPC   GL2 9578   3.669  32.319   9.077
  538POPC   C1A 9579   3.449  32.268   8.497
  538POPC   D2A 9580   3.511  32.513   8.151
  538POPC   C3A 9581   3.508  32.261   7.828
  538POPC   C4A 9582   3.204  32.298   7.579
  538POPC   C1B 9583   3.825  32.041   8.769
  538POPC   C2B 9584   3.793  31.923   8.351
  538POPC   C3B 9585   3.683  31.789   7.934
  538POPC   C4B 9586   3.884  31.947   7.579
  539POPC   NC3 9587   1.976  32.750   9.584
  539POPC   PO4 9588   2.282  33.318   9.627
  539POPC   GL1 9589   2.003  33.249   9.201
  539POPC   GL2 9590   1.824  32.962   9.146
  539POPC   C1A 9591   1.971  33.272   8.750
  539POPC   D2A 9592   2.051  33.500   8.383
  539POPC   C3A 9593   2.275  33.316   8.044
  539POPC   C4A 9594   2.142  33.013   7.741
  539POPC   C1B 9595   1.681  32.860   8.741
  539POPC   C2B 9596   1.568  32.674   8.386
  539POPC   C3B 9597   1.794  32.774   8.039
  539POPC   C4B 9598   1.707  32.712   7.627
  540POPC   NC3 9599  11.432  41.613   9.569
  540POPC   PO4 9600  10.809  41.430   9.488
  540POPC   GL1 9601  11.110  41.715   9.183
  540POPC   GL2 9602  11.480  41.871   9.125
  540POPC   C1A 9603  11.258  41.509   8.810
  540POPC   D2A 9604  11.135  41.316   8.415
  540POPC   C3A 9605  11.318  41.460   8.053
  540POPC   C4A 9606  11.364  41.378   7.652
  540POPC   C1B 9607  11.370  42.015   8.715
  540POPC   C2B 9608  11.547  41.706   8.435
  540POPC   C3B 9609  11.825  41.603   8.114
  540POPC   C4B 9610  11.627  41.781   7.778
  541POPC   NC3 9611  25.716  42.489   9.401
  541POPC   PO4 9612  26.475  42.618   9.449
  541POPC   GL1 9613  26.271  42.456   9.119
  541POPC   GL2 9614  26.062  42.725   9.086
  541POPC   C1A 9615  26.018  42.166   8.874
  541POPC   D2A 9616  25.782  42.079   8.506
  541POPC   C3A 9617  25.978  42.003   8.098
  541POPC   C4A 9618  26.245  42.288   7.827
  541POPC   C1B 9619  26.019  42.621   8.636
  541POPC   C2B 9620  25.929  42.481   8.205
  541POPC   C3B 9621  25.866  42.626   7.800
  541POPC   C4B 9622  26.249  42.811   7.746
  542POPC   NC3 9623   7.759  21.899   9.300
  542POPC   PO4 9624   7.325  22.441   9.411
  542POPC   GL1 9625   7.379  22.169   9.045
  542POPC   GL2 9626   7.306  21.849   8.844
  542POPC   C1A 9627   7.153  22.340   8.729
  542POPC   D2A 9628   7.216  22.485   8.358
  542POPC   C3A 9629   7.265  22.154   8.082
  542POPC   C4A 9630   7.157  22.010   7.676
  542POPC   C1B 9631   7.556  22.128   8.538
  542POPC   C2B 9632   7.707  22.382   8.179
  542POPC   C3B 9633   7.627  22.256   7.743
  542POPC   C4B 9634   7.614  21.828   7.597
  543POPC   NC3 9635  34.744  18.358   9.634
  543POPC   PO4 9636  35.082  18.790   9.247
  543POPC   GL1 9637  34.818  18.445   9.100
  543POPC   GL2 9638  34.566  18.169   9.183
  543POPC   C1A 9639  34.742  18.346   8.684
  543POPC   D2A 9640  34.592  18.249   8.302
  543POPC   C3A 9641  34.808  18.197   7.921
  543POPC   C4A 9642  34.565  18.524   7.744
  543POPC   C1B 9643  34.367  17.976   8.825
  543POPC   C2B 9644  34.276  17.871   8.371
  543POPC   C3B 9645  34.298  18.063   7.921
  543POPC   C4B 9646  34.472  18.107   7.465
  544POPC   NC3 9647  28.213   5.358   9.415
  544POPC   PO4 9648  28.523   4.788   9.596
  544POPC   GL1 9649  28.580   5.037   9.227
  544POPC   GL2 9650  28.273   4.964   9.026
  544POPC   C1A 9651  28.677   5.199   8.820
  544POPC   D2A 9652  28.449   5.102   8.430
  544POPC   C3A 9653  28.668   5.154   8.027
  544POPC   C4A 9654  28.567   5.132   7.581
  544POPC   C1B 9655  28.180   5.370   8.783
  544POPC   C2B 9656  28.201   5.559   8.394
  544POPC   C3B 9657  28.176   5.349   8.010
  544POPC   C4B 9658  28.090   4.999   7.751
  545POPC   NC3 9659  20.963  16.792   9.455
  545POPC   PO4 9660  21.721  16.554   9.536
  545POPC   GL1 9661  21.454  16.675   9.234
  545POPC   GL2 9662  21.723  16.823   9.068
  545POPC   C1A 9663  21.325  16.665   8.794
  545POPC   D2A 9664  21.321  16.911   8.409
  545POPC   C3A 9665  21.250  16.783   7.991
  545POPC   C4A 9666  21.218  16.968   7.541
  545POPC   C1B 9667  21.812  16.484   8.817
  545POPC   C2B 9668  21.623  16.406   8.402
  545POPC   C3B 9669  21.716  16.479   7.970
  545POPC   C4B 9670  21.470  16.521   7.627
  546POPC   NC3 9671  13.441  12.484   9.406
  546POPC   PO4 9672  13.533  13.099   9.382
  546POPC   GL1 9673  13.780  12.819   9.166
  546POPC   GL2 9674  14.018  13.101   9.162
  546POPC   C1A 9675  13.616  12.645   8.779
  546POPC   D2A 9676  13.468  12.827   8.403
  546POPC   C3A 9677  13.475  12.602   8.035
  546POPC   C4A 9678  13.563  12.757   7.654
  546POPC   C1B 9679  13.864  13.114   8.752
  546POPC   C2B 9680  13.740  13.261   8.376
  546POPC   C3B 9681  13.811  13.024   8.026
  546POPC   C4B 9682  13.978  13.190   7.650
  547POPC   NC3 9683   3.679   9.358   9.578
  547POPC   PO4 9684   3.675   8.718   9.594
  547POPC   GL1 9685   3.755   8.961   9.257
  547POPC   GL2 9686   3.390   9.053   9.227
  547POPC   C1A 9687   3.727   8.905   8.824
  547POPC   D2A 9688   3.565   8.830   8.427
  547POPC   C3A 9689   3.841   8.852   8.103
  547POPC   C4A 9690   3.738   8.855   7.672
  547POPC   C1B 9691   3.338   9.260   8.827
  547POPC   C2B 9692   3.360   9.296   8.380
  547POPC   C3B 9693   3.371   9.096   7.983
  547POPC   C4B 9694   3.425   9.255   7.551
  548POPC   NC3 9695  41.911  23.992   9.329
  548POPC   PO4 9696  41.971  23.320   9.503
  548POPC   GL1 9697  42.200  23.637   9.122
  548POPC   GL2 9698  42.602  23.714   9.075
  548POPC   C1A 9699  42.261  23.973   8.776
  548POPC   D2A 9700  42.514  23.985   8.413
  548POPC   C3A 9701  42.344  23.921   8.020
  548POPC   C4A 9702  42.047  23.664   7.811
  548POPC   C1B 9703  42.486  23.518   8.704
  548POPC   C2B 9704  42.358  23.493   8.298
  548POPC   C3B 9705  42.584  23.454   7.926
  548POPC   C4B 9706  42.794  23.404   7.530
  549POPC   NC3 9707  39.773   4.043   9.299
  549POPC   PO4 9708  40.298   4.352   9.637
  549POPC   GL1 9709  40.033   4.466   9.214
  549POPC   GL2 9710  39.815   4.742   9.181
  549POPC   C1A 9711  39.834   4.396   8.763
  549POPC   D2A 9712  39.985   4.351   8.332
  549POPC   C3A 9713  39.851   4.247   7.913
  549POPC   C4A 9714  40.057   4.374   7.522
  549POPC   C1B 9715  40.059   4.843   8.824
  549POPC   C2B 9716  40.264   4.765   8.434
  549POPC   C3B 9717  40.208   4.669   7.983
  549POPC   C4B 9718  40.174   4.854   7.595
  550POPC   NC3 9719   8.501  35.501   9.447
  550POPC   PO4 9720   9.092  35.128   9.541
  550POPC   GL1 9721   8.908  35.198   9.091
  550POPC   GL2 9722   8.859  35.560   9.103
  550POPC   C1A 9723   8.801  35.385   8.645
  550POPC   D2A 9724   8.845  35.491   8.187
  550POPC   C3A 9725   8.857  35.141   7.866
  550POPC   C4A 9726   8.924  34.968   7.469
  550POPC   C1B 9727   9.214  35.647   8.835
  550POPC   C2B 9728   9.314  35.773   8.422
  550POPC   C3B 9729   9.363  35.457   8.129
  550POPC   C4B 9730   9.235  35.467   7.742
  551POPC   NC3 9731  14.814   8.229   9.604
  551POPC   PO4 9732  15.416   8.049   9.564
  551POPC   GL1 9733  15.127   8.080   9.188
  551POPC   GL2 9734  14.867   8.376   9.135
  551POPC   C1A 9735  15.077   8.126   8.740
  551POPC   D2A 9736  15.339   8.046   8.381
  551POPC   C3A 9737  15.325   8.263   8.030
  551POPC   C4A 9738  15.173   8.108   7.686
  551POPC   C1B 9739  14.778   8.573   8.760
  551POPC   C2B 9740  14.971   8.447   8.363
  551POPC   C3B 9741  14.833   8.384   7.945
  551POPC   C4B 9742  14.753   8.356   7.475
  552POPC   NC3 9743  42.485  23.530   9.530
  552POPC   PO4 9744  43.123  23.726   9.434
  552POPC   GL1 9745  43.164  23.702   9.035
  552POPC   GL2 9746  43.357  23.410   9.015
  552POPC   C1A 9747  42.926  23.812   8.697
  552POPC   D2A 9748  42.864  23.637   8.332
  552POPC   C3A 9749  42.878  23.869   8.004
  552POPC   C4A 9750  43.147  23.584   7.826
  552POPC   C1B 9751  43.370  23.536   8.589
  552POPC   C2B 9752  43.357  23.794   8.232
  552POPC   C3B 9753  43.357  24.065   7.851
  552POPC   C4B 9754  43.427  24.117   7.390
  553POPC   NC3 9755  10.344  11.457   9.829
  553POPC   PO4 9756   9.825  11.170   9.457
  553POPC   GL1 9757   9.674  11.415   9.140
  553POPC   GL2 9758   9.342  11.251   9.058
  553POPC   C1A 9759   9.571  11.628   8.759
  553POPC   D2A 9760   9.701  11.547   8.335
  553POPC   C3A 9761   9.693  11.692   7.910
  553POPC   C4A 9762   9.899  11.451   7.558
  553POPC   C1B 9763   9.598  11.116   8.703
  553POPC   C2B 9764   9.814  11.056   8.336
  553POPC   C3B 9765   9.660  11.180   7.955
  553POPC   C4B 9766   9.628  10.961   7.610
  554POPC   NC3 9767   3.730  27.220   9.262
  554POPC   PO4 9768   3.258  27.681   9.563
  554POPC   GL1 9769   3.502  27.672   9.211
  554POPC   GL2 9770   3.258  27.402   9.095
  554POPC   C1A 9771   3.664  27.995   8.874
  554POPC   D2A 9772   3.764  28.105   8.445
  554POPC   C3A 9773   3.755  27.761   8.175
  554POPC   C4A 9774   3.605  27.584   7.825
  554POPC   C1B 9775   3.217  27.761   8.817
  554POPC   C2B 9776   3.279  27.786   8.406
  554POPC   C3B 9777   3.140  27.510   8.101
  554POPC   C4B 9778   3.168  27.367   7.706
  555POPC   NC3 9779  27.264  18.508   9.470
  555POPC   PO4 9780  26.542  18.326   9.514
  555POPC   GL1 9781  26.601  18.216   9.090
  555POPC   GL2 9782  26.908  18.076   9.029
  555POPC   C1A 9783  26.419  18.367   8.711
  555POPC   D2A 9784  26.383  18.185   8.341
  555POPC   C3A 9785  26.738  18.264   8.138
  555POPC   C4A 9786  26.841  17.991   7.832
  555POPC   C1B 9787  26.923  18.306   8.663
  555POPC   C2B 9788  27.246  18.425   8.421
  555POPC   C3B 9789  27.256  18.285   8.037
  555POPC   C4B 9790  27.079  18.415   7.713
  556POPC   NC3 9791  30.857  25.236   9.489
  556POPC   PO4 9792  30.208  25.371   9.424
  556POPC   GL1 9793  30.503  25.157   9.098
  556POPC   GL2 9794  30.895  25.193   9.005
  556POPC   C1A 9795  30.519  25.153   8.649
  556POPC   D2A 9796  30.579  25.443   8.332
  556POPC   C3A 9797  30.453  25.224   7.988
  556POPC   C4A 9798  30.506  25.574   7.722
  556POPC   C1B 9799  30.973  24.923   8.665
  556POPC   C2B 9800  30.951  25.098   8.265
  556POPC   C3B 9801  30.939  25.269   7.854
  556POPC   C4B 9802  30.674  25.129   7.520
  557POPC   NC3 9803  40.833  26.417   9.614
  557POPC   PO4 9804  40.677  25.706   9.566
  557POPC   GL1 9805  40.866  25.981   9.237
  557POPC   GL2 9806  40.645  26.249   9.176
  557POPC   C1A 9807  41.007  25.800   8.846
  557POPC   D2A 9808  40.787  25.813   8.460
  557POPC   C3A 9809  40.985  25.936   8.046
  557POPC   C4A 9810  40.906  26.154   7.674
  557POPC   C1B 9811  40.502  26.129   8.786
  557POPC   C2B 9812  40.331  26.043   8.409
  557POPC   C3B 9813  40.496  26.068   8.024
  557POPC   C4B 9814  40.415  26.299   7.671
  558POPC   NC3 9815  21.145  13.966   9.585
  558POPC   PO4 9816  21.396  13.291   9.513
  558POPC   GL1 9817  21.443  13.467   9.115
  558POPC   GL2 9818  21.519  13.799   9.180
  558POPC   C1A 9819  21.285  13.409   8.723
  558POPC   D2A 9820  21.247  13.630   8.337
  558POPC   C3A 9821  21.269  13.383   7.999
  558POPC   C4A 9822  21.202  13.519   7.604
  558POPC   C1B 9823  21.724  13.975   8.836
  558POPC   C2B 9824  21.816  14.079   8.432
  558POPC   C3B 9825  21.608  14.111   8.063
  558POPC   C4B 9826  21.476  13.929   7.681
  559POPC   NC3 9827  34.528   7.857   9.560
  559POPC   PO4 9828  34.397   8.485   9.377
  559POPC   GL1 9829  34.615   8.304   9.063
  559POPC   GL2 9830  34.721   8.004   9.099
  559POPC   C1A 9831  34.491   8.146   8.638
  559POPC   D2A 9832  34.155   8.211   8.345
  559POPC   C3A 9833  34.260   8.195   7.941
  559POPC   C4A 9834  34.460   8.274   7.567
  559POPC   C1B 9835  34.987   8.162   8.755
  559POPC   C2B 9836  34.937   8.160   8.336
  559POPC   C3B 9837  34.775   8.101   7.940
  559POPC   C4B 9838  34.812   7.795   7.631
  560POPC   NC3 9839  25.364  35.074   9.608
  560POPC   PO4 9840  25.224  35.751   9.444
  560POPC   GL1 9841  25.082  35.359   9.209
  560POPC   GL2 9842  25.304  35.064   9.105
  560POPC   C1A 9843  24.937  35.236   8.793
  560POPC   D2A 9844  25.161  35.182   8.398
  560POPC   C3A 9845  25.273  35.511   8.129
  560POPC   C4A 9846  24.987  35.456   7.802
  560POPC   C1B 9847  25.444  35.389   8.826
  560POPC   C2B 9848  25.660  35.232   8.513
  560POPC   C3B 9849  25.653  35.128   8.105
  560POPC   C4B 9850  25.415  35.129   7.759
  561POPC   NC3 9851  31.657  30.897   9.427
  561POPC   PO4 9852  32.350  30.947   9.498
  561POPC   GL1 9853  32.346  31.029   9.078
  561POPC   GL2 9854  32.053  30.825   9.076
  561POPC   C1A 9855  32.395  30.813   8.673
  561POPC   D2A 9856  32.221  30.793   8.243
  561POPC   C3A 9857  32.486  30.909   7.876
  561POPC   C4A 9858  32.386  31.170   7.524
  561POPC   C1B 9859  31.871  30.797   8.670
  561POPC   C2B 9860  31.728  30.629   8.255
  561POPC   C3B 9861  31.749  30.708   7.806
  561POPC   C4B 9862  31.522  30.647   7.404
  562POPC   NC3 9863  44.988  40.691   9.493
  562POPC   PO4 9864  44.336  40.846   9.393
  562POPC   GL1 9865  44.582  40.523   9.181
  562POPC   GL2 9866  44.869  40.679   9.011
  562POPC   C1A 9867  44.541  40.346   8.770
  562POPC   D2A 9868  44.678  40.254   8.368
  562POPC   C3A 9869  44.505  40.389   7.992
  562POPC   C4A 9870  44.503  40.701   7.659
  562POPC   C1B 9871  44.818  40.775   8.613
  562POPC   C2B 9872  44.539  40.945   8.346
  562POPC   C3B 9873  44.782  40.826   8.061
  562POPC   C4B 9874  44.957  40.953   7.727
  563POPC   NC3 9875  32.606  39.341   9.500
  563POPC   PO4 9876  32.074  38.924   9.719
  563POPC   GL1 9877  32.188  39.161   9.283
  563POPC   GL2 9878  32.513  39.002   9.131
  563POPC   C1A 9879  32.187  39.284   8.817
  563POPC   D2A 9880  32.439  39.391   8.410
  563POPC   C3A 9881  32.335  39.344   7.978
  563POPC   C4A 9882  32.072  39.058   7.802
  563POPC   C1B 9883  32.495  38.888   8.690
  563POPC   C2B 9884  32.347  38.872   8.258
  563POPC   C3B 9885  32.520  38.816   7.851
  563POPC   C4B 9886  32.520  38.812   7.394
  564POPC   NC3 9887  29.098   0.767   9.452
  564POPC   PO4 9888  28.792   0.103   9.561
  564POPC   GL1 9889  28.981   0.134   9.143
  564POPC   GL2 9890  29.064   0.506   9.017
  564POPC   C1A 9891  29.027   0.106   8.703
  564POPC   D2A 9892  28.949   0.432   8.406
  564POPC   C3A 9893  28.985   0.329   7.962
  564POPC   C4A 9894  28.784   0.058   7.657
  564POPC   C1B 9895  29.182   0.848   8.698
  564POPC   C2B 9896  29.325   0.773   8.256
  564POPC   C3B 9897  29.249   0.751   7.781
  564POPC   C4B 9898  29.340   0.689   7.301
  565POPC   NC3 9899   7.233  24.321   9.540
  565POPC   PO4 9900   7.462  24.940   9.467
  565POPC   GL1 9901   7.475  24.592   9.166
  565POPC   GL2 9902   7.103  24.484   9.072
  565POPC   C1A 9903   7.502  24.420   8.753
  565POPC   D2A 9904   7.340  24.426   8.329
  565POPC   C3A 9905   7.614  24.328   8.009
  565POPC   C4A 9906   7.866  24.586   7.797
  565POPC   C1B 9907   7.112  24.749   8.685
  565POPC   C2B 9908   7.141  24.896   8.242
  565POPC   C3B 9909   7.193  24.644   7.840
  565POPC   C4B 9910   7.191  24.206   7.735
  566POPC   NC3 9911  29.281   7.974   9.555
  566POPC   PO4 9912  28.940   8.493   9.561
  566POPC   GL1 9913  29.016   8.248   9.189
  566POPC   GL2 9914  29.347   8.182   9.081
  566POPC   C1A 9915  28.880   8.199   8.770
  566POPC   D2A 9916  29.110   8.126   8.406
  566POPC   C3A 9917  28.892   8.264   8.078
  566POPC   C4A 9918  28.840   8.049   7.726
  566POPC   C1B 9919  29.492   7.959   8.715
  566POPC   C2B 9920  29.586   7.896   8.282
  566POPC   C3B 9921  29.329   8.005   7.915
  566POPC   C4B 9922  29.377   8.019   7.443
  567POPC   NC3 9923  11.771  10.106   9.482
  567POPC   PO4 9924  12.061   9.632   9.656
  567POPC   GL1 9925  12.081   9.639   9.218
  567POPC   GL2 9926  12.053   9.955   9.080
  567POPC   C1A 9927  11.976   9.550   8.777
  567POPC   D2A 9928  12.030   9.366   8.381
  567POPC   C3A 9929  12.238   9.449   7.992
  567POPC   C4A 9930  12.042   9.599   7.634
  567POPC   C1B 9931  12.275   9.965   8.667
  567POPC   C2B 9932  12.094   9.867   8.264
  567POPC   C3B 9933  11.961  10.062   7.843
  567POPC   C4B 9934  11.766  10.013   7.410
  568POPC   NC3 9935  21.780   9.164   9.242
  568POPC   PO4 9936  22.321   8.995   9.567
  568POPC   GL1 9937  22.193   8.902   9.143
  568POPC   GL2 9938  21.909   8.660   9.078
  568POPC   C1A 9939  22.074   8.989   8.713
  568POPC   D2A 9940  22.185   9.189   8.345
  568POPC   C3A 9941  22.352   9.003   8.008
  568POPC   C4A 9942  22.245   8.833   7.598
  568POPC   C1B 9943  21.761   8.580   8.670
  568POPC   C2B 9944  21.806   8.822   8.295
  568POPC   C3B 9945  21.838   8.975   7.857
  568POPC   C4B 9946  21.775   8.734   7.432
  569POPC   NC3 9947  30.905  38.703   9.552
  569POPC   PO4 9948  30.313  38.252   9.560
  569POPC   GL1 9949  30.527  38.291   9.158
  569POPC   GL2 9950  30.216  38.338   9.022
  569POPC   C1A 9951  30.662  38.497   8.740
  569POPC   D2A 9952  30.556  38.695   8.336
  569POPC   C3A 9953  30.781  38.530   7.959
  569POPC   C4A 9954  30.720  38.765   7.580
  569POPC   C1B 9955  30.249  38.179   8.617
  569POPC   C2B 9956  30.514  38.199   8.263
  569POPC   C3B 9957  30.463  38.120   7.842
  569POPC   C4B 9958  30.327  38.317   7.401
  570POPC   NC3 9959  21.648  34.205   9.443
  570POPC   PO4 9960  21.371  33.539   9.618
  570POPC   GL1 9961  21.461  33.486   9.209
  570POPC   GL2 9962  21.636  33.759   9.186
  570POPC   C1A 9963  21.288  33.618   8.806
  570POPC   D2A 9964  21.252  33.947   8.513
  570POPC   C3A 9965  21.374  33.787   8.136
  570POPC   C4A 9966  21.274  33.882   7.740
  570POPC   C1B 9967  21.693  33.996   8.796
  570POPC   C2B 9968  21.684  34.173   8.369
  570POPC   C3B 9969  21.682  34.143   7.929
  570POPC   C4B 9970  21.766  33.927   7.511
  571POPC   NC3 9971  18.738  25.015   9.508
  571POPC   PO4 9972  19.451  25.097   9.302
  571POPC   GL1 9973  19.196  25.439   9.068
  571POPC   GL2 9974  18.854  25.389   9.111
  571POPC   C1A 9975  19.060  25.568   8.660
  571POPC   D2A 9976  18.949  25.293   8.341
  571POPC   C3A 9977  19.251  25.240   8.008
  571POPC   C4A 9978  19.035  25.304   7.636
  571POPC   C1B 9979  18.957  25.025   8.808
  571POPC   C2B 9980  18.748  24.823   8.437
  571POPC   C3B 9981  18.817  24.941   7.976
  571POPC   C4B 9982  18.703  24.936   7.543
  572POPC   NC3 9983  18.790  27.744   9.310
  572POPC   PO4 9984  18.337  27.410   9.686
  572POPC   GL1 9985  18.329  27.322   9.219
  572POPC   GL2 9986  18.156  27.624   9.154
  572POPC   C1A 9987  18.063  27.223   8.854
  572POPC   D2A 9988  18.007  27.457   8.459
  572POPC   C3A 9989  18.214  27.327   8.102
  572POPC   C4A 9990  18.176  27.176   7.711
  572POPC   C1B 9991  18.427  27.557   8.783
  572POPC   C2B 9992  18.476  27.681   8.379
  572POPC   C3B 9993  18.280  27.852   8.046
  572POPC   C4B 9994  18.419  27.630   7.733
  573POPC   NC3 9995  29.582   4.207   9.306
  573POPC   PO4 9996  30.140   4.661   9.268
  573POPC   GL1 9997  30.021   4.339   9.007
  573POPC   GL2 9998  30.027   3.985   9.065
  573POPC   C1A 9999  29.964   4.251   8.609
  573POPC   D2A10000  29.744   4.297   8.252
  573POPC   C3A10001  29.896   4.416   7.871
  573POPC   C4A10002  30.275   4.291   7.773
  573POPC   C1B10003  29.678   3.866   8.765
  573POPC   C2B10004  29.709   3.780   8.330
  573POPC   C3B10005  29.884   3.900   7.907
  573POPC   C4B10006  29.995   3.999   7.471
  574POPC   NC310007   2.550   2.503   9.409
  574POPC   PO410008   3.086   2.887   9.386
  574POPC   GL110009   2.842   2.746   9.076
  574POPC   GL210010   2.975   2.430   9.085
  574POPC   C1A10011   2.710   2.906   8.691
  574POPC   D2A10012   2.981   3.064   8.378
  574POPC   C3A10013   2.821   3.006   7.982
  574POPC   C4A10014   2.482   2.760   7.862
  574POPC   C1B10015   3.104   2.567   8.670
  574POPC   C2B10016   2.846   2.550   8.308
  574POPC   C3B10017   2.901   2.495   7.902
  574POPC   C4B10018   3.183   2.745   7.710
  575POPC   NC310019  33.774  34.109   9.896
  575POPC   PO410020  34.148  33.771   9.309
  575POPC   GL110021  33.756  33.791   9.145
  575POPC   GL210022  33.477  33.576   9.201
  575POPC   C1A10023  33.734  34.049   8.792
  575POPC   D2A10024  33.836  34.300   8.448
  575POPC   C3A10025  33.831  34.062   8.050
  575POPC   C4A10026  33.618  34.001   7.639
  575POPC   C1B10027  33.634  33.550   8.739
  575POPC   C2B10028  33.812  33.563   8.320
  575POPC   C3B10029  33.749  33.565   7.881
  575POPC   C4B10030  34.115  33.355   7.746
  576POPC   NC310031  11.603  22.591   9.401
  576POPC   PO410032  11.562  21.970   9.612
  576POPC   GL110033  11.273  22.027   9.251
  576POPC   GL210034  11.110  22.350   9.172
  576POPC   C1A10035  11.322  22.013   8.806
  576POPC   D2A10036  11.322  21.717   8.464
  576POPC   C3A10037  11.307  21.907   8.041
  576POPC   C4A10038  11.094  21.944   7.641
  576POPC   C1B10039  11.120  22.541   8.747
  576POPC   C2B10040  11.353  22.532   8.354
  576POPC   C3B10041  11.285  22.406   7.927
  576POPC   C4B10042  11.317  22.380   7.477
  577POPC   NC310043  33.570  23.389   9.477
  577POPC   PO410044  34.012  23.867   9.421
  577POPC   GL110045  33.799  23.831   9.055
  577POPC   GL210046  33.786  23.482   9.036
  577POPC   C1A10047  33.960  23.744   8.637
  577POPC   D2A10048  33.694  23.774   8.268
  577POPC   C3A10049  33.875  23.672   7.888
  577POPC   C4A10050  34.101  23.970   7.664
  577POPC   C1B10051  33.511  23.513   8.688
  577POPC   C2B10052  33.377  23.316   8.324
  577POPC   C3B10053  33.374  23.525   7.911
  577POPC   C4B10054  33.574  23.367   7.538
  578POPC   NC310055  15.970  35.170   9.749
  578POPC   PO410056  16.046  34.500   9.581
  578POPC   GL110057  15.902  34.613   9.167
  578POPC   GL210058  16.177  34.733   8.995
  578POPC   C1A10059  15.968  34.334   8.778
  578POPC   D2A10060  15.717  34.210   8.434
  578POPC   C3A10061  15.940  34.159   8.051
  578POPC   C4A10062  15.802  34.510   7.799
  578POPC   C1B10063  15.934  34.821   8.645
  578POPC   C2B10064  16.119  34.605   8.270
  578POPC   C3B10065  16.215  34.793   7.872
  578POPC   C4B10066  15.892  35.040   7.686
  579POPC   NC310067  20.177  39.219   9.385
  579POPC   PO410068  19.598  38.710   9.515
  579POPC   GL110069  19.639  38.977   9.113
  579POPC   GL210070  19.680  39.262   9.227
  579POPC   C1A10071  19.989  39.180   8.775
  579POPC   D2A10072  20.329  39.060   8.458
  579POPC   C3A10073  20.156  39.070   8.032
  579POPC   C4A10074  20.058  39.341   7.694
  579POPC   C1B10075  19.597  39.501   8.880
  579POPC   C2B10076  19.609  39.498   8.429
  579POPC   C3B10077  19.699  39.303   8.048
  579POPC   C4B10078  19.571  39.257   7.600
  580POPC   NC310079  24.795  25.103   9.497
  580POPC   PO410080  24.196  25.450   9.612
  580POPC   GL110081  24.451  25.424   9.246
  580POPC   GL210082  24.415  25.083   9.124
  580POPC   C1A10083  24.493  25.526   8.834
  580POPC   D2A10084  24.213  25.323   8.561
  580POPC   C3A10085  24.301  25.342   8.159
  580POPC   C4A10086  24.098  25.172   7.826
  580POPC   C1B10087  24.588  25.021   8.703
  580POPC   C2B10088  24.673  24.994   8.280
  580POPC   C3B10089  24.573  25.026   7.851
  580POPC   C4B10090  24.529  25.490   7.725
  581POPC   NC310091  12.711   2.482   9.573
  581POPC   PO410092  13.237   2.711   9.406
  581POPC   GL110093  12.964   2.483   9.080
  581POPC   GL210094  12.624   2.276   9.113
  581POPC   C1A10095  12.854   2.512   8.630
  581POPC   D2A10096  12.971   2.583   8.172
  581POPC   C3A10097  12.890   2.956   7.869
  581POPC   C4A10098  13.118   3.048   7.456
  581POPC   C1B10099  12.374   2.284   8.741
  581POPC   C2B10100  12.466   2.487   8.301
  581POPC   C3B10101  12.578   2.538   7.865
  581POPC   C4B10102  12.609   2.749   7.450
  582POPC   NC310103  18.492  33.316   9.393
  582POPC   PO410104  17.975  32.926   9.529
  582POPC   GL110105  18.180  32.975   9.159
  582POPC   GL210106  18.488  32.789   9.250
  582POPC   C1A10107  18.148  33.181   8.770
  582POPC   D2A10108  18.328  33.106   8.382
  582POPC   C3A10109  18.100  32.997   8.030
  582POPC   C4A10110  18.174  33.049   7.583
  582POPC   C1B10111  18.585  32.894   8.816
  582POPC   C2B10112  18.733  32.800   8.384
  582POPC   C3B10113  18.628  32.920   7.970
  582POPC   C4B10114  18.690  32.868   7.533
  583POPC   NC310115  42.849  10.446   9.505
  583POPC   PO410116  43.249  10.825   9.155
  583POPC   GL110117  43.151  10.385   9.028
  583POPC   GL210118  42.784  10.309   9.003
  583POPC   C1A10119  43.215  10.272   8.595
  583POPC   D2A10120  43.313  10.622   8.311
  583POPC   C3A10121  43.151  10.572   7.904
  583POPC   C4A10122  43.145  10.837   7.554
  583POPC   C1B10123  42.835  10.634   8.676
  583POPC   C2B10124  42.799  10.608   8.252
  583POPC   C3B10125  42.710  10.832   7.900
  583POPC   C4B10126  42.713  11.106   7.588
  584POPC   NC310127  17.571  35.767   9.448
  584POPC   PO410128  17.786  36.516   9.468
  584POPC   GL110129  17.606  36.374   9.087
  584POPC   GL210130  17.421  36.043   9.055
  584POPC   C1A10131  17.479  36.349   8.677
  584POPC   D2A10132  17.281  36.065   8.416
  584POPC   C3A10133  17.454  36.060   8.001
  584POPC   C4A10134  17.601  36.425   7.737
  584POPC   C1B10135  17.665  35.861   8.733
  584POPC   C2B10136  17.848  36.066   8.389
  584POPC   C3B10137  17.980  35.873   8.042
  584POPC   C4B10138  17.820  35.952   7.648
  585POPC   NC310139  19.279   0.585   9.288
  585POPC   PO410140  19.918   0.582   9.514
  585POPC   GL110141  19.752   0.605   9.108
  585POPC   GL210142  19.559   0.949   9.068
  585POPC   C1A10143  19.866   0.328   8.762
  585POPC   D2A10144  19.623   0.038   8.482
  585POPC   C3A10145  19.653   0.099   8.037
  585POPC   C4A10146  20.049   0.172   7.847
  585POPC   C1B10147  19.524   0.691   8.665
  585POPC   C2B10148  19.742   0.551   8.284
  585POPC   C3B10149  19.916   0.670   7.869
  585POPC   C4B10150  19.745   0.842   7.485
  586POPC   NC310151   7.740  21.114   9.538
  586POPC   PO410152   7.337  21.647   9.306
  586POPC   GL110153   7.267  21.334   9.028
  586POPC   GL210154   7.447  21.091   9.111
  586POPC   C1A10155   7.287  21.317   8.603
  586POPC   D2A10156   7.518  21.638   8.381
  586POPC   C3A10157   7.623  21.502   7.980
  586POPC   C4A10158   7.255  21.428   7.739
  586POPC   C1B10159   7.702  21.029   8.757
  586POPC   C2B10160   7.702  21.142   8.359
  586POPC   C3B10161   7.348  21.096   8.128
  586POPC   C4B10162   7.448  20.948   7.749
  587POPC   NC310163   3.791  33.164   9.362
  587POPC   PO410164   3.183  32.938   9.485
  587POPC   GL110165   3.380  33.053   9.069
  587POPC   GL210166   3.581  32.806   9.064
  587POPC   C1A10167   3.665  33.243   8.717
  587POPC   D2A10168   3.697  33.444   8.281
  587POPC   C3A10169   3.716  33.255   7.835
  587POPC   C4A10170   3.366  33.173   7.518
  587POPC   C1B10171   3.549  32.746   8.643
  587POPC   C2B10172   3.766  32.930   8.312
  587POPC   C3B10173   3.921  32.791   7.967
  587POPC   C4B10174   3.644  32.734   7.664
  588POPC   NC310175  35.495  44.171   9.569
  588POPC   PO410176  35.544  44.856   9.532
  588POPC   GL110177  35.426  44.675   9.162
  588POPC   GL210178  35.066  44.632   9.123
  588POPC   C1A10179  35.400  44.527   8.757
  588POPC   D2A10180  35.349  44.662   8.370
  588POPC   C3A10181  35.616  44.838   8.147
  588POPC   C4A10182  35.589  44.973   7.780
  588POPC   C1B10183  34.919  44.602   8.656
  588POPC   C2B10184  34.980  44.380   8.206
  588POPC   C3B10185  35.145  44.585   7.796
  588POPC   C4B10186  34.891  44.842   7.466
  589POPC   NC310187  29.865  44.152   9.424
  589POPC   PO410188  29.618  44.786   9.467
  589POPC   GL110189  29.814  44.589   9.137
  589POPC   GL210190  29.872  44.881   8.976
  589POPC   C1A10191  30.000  44.328   8.770
  589POPC   D2A10192  30.105  44.241   8.302
  589POPC   C3A10193  30.037  44.531   7.970
  589POPC   C4A10194  30.168  44.744   7.578
  589POPC   C1B10195  29.570  44.908   8.637
  589POPC   C2B10196  29.784  44.944   8.224
  589POPC   C3B10197  29.728  44.926   7.792
  589POPC   C4B10198  29.742  44.948   7.362
  590POPC   NC310199  20.388  37.598   9.599
  590POPC   PO410200  20.955  37.763   9.616
  590POPC   GL110201  20.830  37.643   9.193
  590POPC   GL210202  20.466  37.609   9.101
  590POPC   C1A10203  20.819  37.725   8.748
  590POPC   D2A10204  20.491  37.559   8.483
  590POPC   C3A10205  20.552  37.741   8.122
  590POPC   C4A10206  20.553  37.556   7.727
  590POPC   C1B10207  20.300  37.918   8.821
  590POPC   C2B10208  20.109  37.892   8.414
  590POPC   C3B10209  20.162  38.044   7.975
  590POPC   C4B10210  20.240  37.961   7.519
  591POPC   NC310211  43.230   7.153   9.304
  591POPC   PO410212  43.045   7.728   9.458
  591POPC   GL110213  43.126   7.608   9.072
  591POPC   GL210214  42.838   7.437   9.061
  591POPC   C1A10215  43.166   7.385   8.681
  591POPC   D2A10216  43.003   7.150   8.337
  591POPC   C3A10217  43.079   7.418   7.994
  591POPC   C4A10218  43.418   7.417   7.747
  591POPC   C1B10219  42.636   7.312   8.679
  591POPC   C2B10220  42.557   7.414   8.288
  591POPC   C3B10221  42.639   7.185   7.940
  591POPC   C4B10222  42.766   7.358   7.582
  592POPC   NC310223  40.372   4.785   9.431
  592POPC   PO410224  40.631   5.417   9.426
  592POPC   GL110225  40.930   5.215   9.133
  592POPC   GL210226  40.936   4.839   9.217
  592POPC   C1A10227  41.042   5.257   8.702
  592POPC   D2A10228  41.099   5.060   8.335
  592POPC   C3A10229  40.876   5.241   8.036
  592POPC   C4A10230  40.970   5.244   7.647
  592POPC   C1B10231  41.092   4.769   8.799
  592POPC   C2B10232  40.769   4.717   8.534
  592POPC   C3B10233  40.718   4.759   8.135
  592POPC   C4B10234  40.655   4.853   7.757
  593POPC   NC310235  26.217   1.418   9.624
  593POPC   PO410236  26.142   0.698   9.637
  593POPC   GL110237  26.175   0.991   9.284
  593POPC   GL210238  26.089   1.285   9.165
  593POPC   C1A10239  26.229   0.948   8.828
  593POPC   D2A10240  25.932   1.012   8.503
  593POPC   C3A10241  26.120   0.983   8.102
  593POPC   C4A10242  26.063   1.078   7.705
  593POPC   C1B10243  25.876   1.416   8.824
  593POPC   C2B10244  25.960   1.561   8.418
  593POPC   C3B10245  25.893   1.458   8.006
  593POPC   C4B10246  26.215   1.562   7.722
  594POPC   NC310247   1.703  36.093   9.579
  594POPC   PO410248   2.254  35.641   9.538
  594POPC   GL110249   2.052  35.941   9.231
  594POPC   GL210250   1.975  35.663   9.052
  594POPC   C1A10251   1.860  36.103   8.788
  594POPC   D2A10252   1.664  35.918   8.380
  594POPC   C3A10253   1.734  36.137   7.961
  594POPC   C4A10254   1.658  36.506   7.689
  594POPC   C1B10255   2.290  35.855   8.789
  594POPC   C2B10256   2.187  35.972   8.399
  594POPC   C3B10257   2.089  35.779   8.063
  594POPC   C4B10258   2.211  35.875   7.700
  595POPC   NC310259  31.898   7.762   9.787
  595POPC   PO410260  31.564   8.171   9.388
  595POPC   GL110261  31.489   8.068   9.001
  595POPC   GL210262  31.177   8.012   9.040
  595POPC   C1A10263  31.482   8.203   8.571
  595POPC   D2A10264  31.771   8.348   8.237
  595POPC   C3A10265  31.630   8.263   7.803
  595POPC   C4A10266  31.765   8.284   7.369
  595POPC   C1B10267  31.108   8.434   8.859
  595POPC   C2B10268  30.992   8.501   8.437
  595POPC   C3B10269  30.971   8.378   8.011
  595POPC   C4B10270  31.149   8.523   7.616
  596POPC   NC310271  38.859  21.220   9.487
  596POPC   PO410272  39.544  21.497   9.464
  596POPC   GL110273  39.342  21.325   9.157
  596POPC   GL210274  39.370  21.633   8.973
  596POPC   C1A10275  39.354  21.187   8.753
  596POPC   D2A10276  39.350  21.432   8.433
  596POPC   C3A10277  39.489  21.241   8.058
  596POPC   C4A10278  39.380  21.412   7.659
  596POPC   C1B10279  38.948  21.507   8.847
  596POPC   C2B10280  38.803  21.509   8.430
  596POPC   C3B10281  38.995  21.481   8.053
  596POPC   C4B10282  39.012  21.804   7.782
  597POPC   NC310283  39.030  15.411   9.707
  597POPC   PO410284  39.473  15.970   9.541
  597POPC   GL110285  39.234  15.952   9.187
  597POPC   GL210286  38.869  16.062   9.176
  597POPC   C1A10287  39.173  15.772   8.804
  597POPC   D2A10288  39.359  15.687   8.427
  597POPC   C3A10289  39.285  15.977   8.076
  597POPC   C4A10290  39.239  15.817   7.662
  597POPC   C1B10291  39.052  16.284   8.811
  597POPC   C2B10292  38.918  16.328   8.398
  597POPC   C3B10293  39.049  16.440   8.008
  597POPC   C4B10294  39.053  16.268   7.608
  598POPC   NC310295  30.378   1.916   9.469
  598POPC   PO410296  30.982   1.707   9.305
  598POPC   GL110297  30.669   2.071   9.063
  598POPC   GL210298  30.298   2.234   9.081
  598POPC   C1A10299  30.574   2.082   8.592
  598POPC   D2A10300  30.613   1.764   8.232
  598POPC   C3A10301  30.754   1.871   7.785
  598POPC   C4A10302  30.836   2.183   7.456
  598POPC   C1B10303  30.105   1.998   8.763
  598POPC   C2B10304  30.115   1.934   8.311
  598POPC   C3B10305  30.252   1.830   7.871
  598POPC   C4B10306  30.330   2.100   7.478
  599POPC   NC310307  26.750  44.499   9.729
  599POPC   PO410308  27.109  44.924   9.400
  599POPC   GL110309  26.943  44.825   9.076
  599POPC   GL210310  27.120  44.515   9.030
  599POPC   C1A10311  27.122  44.907   8.687
  599POPC   D2A10312  27.207  44.911   8.283
  599POPC   C3A10313  26.812  44.807   8.105
  599POPC   C4A10314  26.667  44.719   7.673
  599POPC   C1B10315  26.737  44.476   8.757
  599POPC   C2B10316  26.604  44.384   8.319
  599POPC   C3B10317  26.867  44.302   7.967
  599POPC   C4B10318  27.054  44.396   7.587
  600POPC   NC310319   0.285  26.564   9.658
  600POPC   PO410320   0.543  27.121   9.336
  600POPC   GL110321   0.460  26.694   9.188
  600POPC   GL210322   0.732  26.461   9.196
  600POPC   C1A10323   0.371  26.576   8.771
  600POPC   D2A10324   0.467  26.519   8.329
  600POPC   C3A10325   0.154  26.686   8.059
  600POPC   C4A10326   0.162  26.852   7.649
  600POPC   C1B10327   0.895  26.730   8.856
  600POPC   C2B10328   0.929  26.772   8.404
  600POPC   C3B10329   0.813  26.781   7.976
  600POPC   C4B10330   0.543  26.515   7.747
  601POPC   NC310331  21.576   1.148   9.515
  601POPC   PO410332  20.857   0.925   9.501
  601POPC   GL110333  21.138   1.126   9.220
  601POPC   GL210334  21.337   0.861   9.154
  601POPC   C1A10335  21.370   1.315   8.833
  601POPC   D2A10336  21.601   1.456   8.424
  601POPC   C3A10337  21.465   1.345   7.964
  601POPC   C4A10338  21.284   1.437   7.515
  601POPC   C1B10339  21.260   0.806   8.755
  601POPC   C2B10340  21.356   0.999   8.380
  601POPC   C3B10341  21.213   0.901   7.989
  601POPC   C4B10342  21.349   0.939   7.591
  602POPC   NC310343  16.883  38.279   9.489
  602POPC   PO410344  16.464  38.799   9.634
  602POPC   GL110345  16.502  38.692   9.184
  602POPC   GL210346  16.808  38.533   9.025
  602POPC   C1A10347  16.379  38.474   8.798
  602POPC   D2A10348  16.692  38.522   8.469
  602POPC   C3A10349  16.668  38.276   8.115
  602POPC   C4A10350  16.742  38.382   7.679
  602POPC   C1B10351  17.037  38.277   8.764
  602POPC   C2B10352  17.149  38.184   8.331
  602POPC   C3B10353  17.094  38.091   7.868
  602POPC   C4B10354  17.093  38.096   7.382
  603POPC   NC310355  30.226  35.936   9.435
  603POPC   PO410356  29.755  36.328   9.500
  603POPC   GL110357  29.956  36.226   9.099
  603POPC   GL210358  29.886  35.867   9.062
  603POPC   C1A10359  29.858  36.200   8.659
  603POPC   D2A10360  29.752  35.937   8.312
  603POPC   C3A10361  29.852  36.176   7.965
  603POPC   C4A10362  29.874  36.543   7.732
  603POPC   C1B10363  30.175  35.762   8.754
  603POPC   C2B10364  30.261  35.990   8.387
  603POPC   C3B10365  30.252  35.839   8.010
  603POPC   C4B10366  30.187  35.940   7.589
  604POPC   NC310367  14.195  25.745   9.531
  604POPC   PO410368  14.494  25.151   9.413
  604POPC   GL110369  14.269  25.300   9.116
  604POPC   GL210370  13.976  25.510   9.137
  604POPC   C1A10371  14.386  25.276   8.706
  604POPC   D2A10372  14.556  25.036   8.378
  604POPC   C3A10373  14.503  25.331   8.071
  604POPC   C4A10374  14.339  25.054   7.780
  604POPC   C1B10375  13.962  25.596   8.738
  604POPC   C2B10376  14.114  25.594   8.340
  604POPC   C3B10377  14.005  25.379   7.971
  604POPC   C4B10378  14.008  25.417   7.536
  605POPC   NC310379  13.892  14.989   9.482
  605POPC   PO410380  13.428  15.469   9.427
  605POPC   GL110381  13.588  15.256   9.099
  605POPC   GL210382  13.577  14.906   9.059
  605POPC   C1A10383  13.755  15.205   8.684
  605POPC   D2A10384  13.616  15.373   8.315
  605POPC   C3A10385  13.757  15.213   7.977
  605POPC   C4A10386  13.620  15.381   7.661
  605POPC   C1B10387  13.269  15.072   8.736
  605POPC   C2B10388  13.187  15.116   8.313
  605POPC   C3B10389  13.276  15.079   7.893
  605POPC   C4B10390  13.579  14.786   7.756
  606POPC   NC310391  36.934  21.003   9.455
  606POPC   PO410392  36.654  21.552   9.717
  606POPC   GL110393  36.974  21.463   9.274
  606POPC   GL210394  37.253  21.654   9.117
  606POPC   C1A10395  36.870  21.426   8.795
  606POPC   D2A10396  36.582  21.226   8.467
  606POPC   C3A10397  36.791  21.275   8.067
  606POPC   C4A10398  36.842  21.665   7.893
  606POPC   C1B10399  37.225  21.789   8.709
  606POPC   C2B10400  37.139  21.563   8.341
  606POPC   C3B10401  37.328  21.502   7.962
  606POPC   C4B10402  37.317  21.801   7.648
  607POPC   NC310403   5.595  20.803   9.469
  607POPC   PO410404   6.129  20.362   9.325
  607POPC   GL110405   5.897  20.332   8.980
  607POPC   GL210406   5.789  20.639   9.031
  607POPC   C1A10407   6.096  20.364   8.614
  607POPC   D2A10408   6.063  20.624   8.286
  607POPC   C3A10409   5.713  20.556   8.057
  607POPC   C4A10410   5.679  20.430   7.640
  607POPC   C1B10411   5.606  20.610   8.600
  607POPC   C2B10412   5.355  20.850   8.285
  607POPC   C3B10413   5.480  20.983   7.885
  607POPC   C4B10414   5.749  20.894   7.485
  608POPC   NC310415  23.365  17.723   9.494
  608POPC   PO410416  23.931  17.358   9.513
  608POPC   GL110417  23.770  17.612   9.191
  608POPC   GL210418  23.553  17.328   9.136
  608POPC   C1A10419  23.524  17.682   8.805
  608POPC   D2A10420  23.673  17.421   8.463
  608POPC   C3A10421  23.567  17.574   8.042
  608POPC   C4A10422  23.825  17.833   7.795
  608POPC   C1B10423  23.873  17.091   8.871
  608POPC   C2B10424  23.966  16.975   8.436
  608POPC   C3B10425  23.831  17.140   8.058
  608POPC   C4B10426  24.002  17.177   7.667
  609POPC   NC310427   9.875  27.039   9.395
  609POPC   PO410428  10.049  27.656   9.455
  609POPC   GL110429   9.845  27.659   9.074
  609POPC   GL210430   9.526  27.854   9.034
  609POPC   C1A10431   9.705  27.375   8.779
  609POPC   D2A10432   9.500  27.332   8.395
  609POPC   C3A10433   9.768  27.429   8.065
  609POPC   C4A10434   9.606  27.298   7.679
  609POPC   C1B10435   9.697  27.879   8.633
  609POPC   C2B10436   9.534  27.853   8.262
  609POPC   C3B10437   9.417  27.747   7.864
  609POPC   C4B10438   9.358  27.986   7.521
  610POPC   NC310439  19.319  33.283   9.753
  610POPC   PO410440  19.123  32.707   9.481
  610POPC   GL110441  18.952  32.994   9.178
  610POPC   GL210442  19.249  32.897   9.025
  610POPC   C1A10443  18.901  33.276   8.802
  610POPC   D2A10444  19.223  33.254   8.534
  610POPC   C3A10445  19.053  33.168   8.146
  610POPC   C4A10446  18.943  33.278   7.731
  610POPC   C1B10447  19.117  32.723   8.697
  610POPC   C2B10448  19.188  32.557   8.309
  610POPC   C3B10449  19.188  32.732   7.892
  610POPC   C4B10450  19.097  32.583   7.488
  611POPC   NC310451  36.836  23.326   9.555
  611POPC   PO410452  36.903  22.707   9.868
  611POPC   GL110453  37.029  22.790   9.341
  611POPC   GL210454  36.875  23.111   9.103
  611POPC   C1A10455  37.006  22.722   8.846
  611POPC   D2A10456  36.968  22.996   8.491
  611POPC   C3A10457  37.028  22.916   8.085
  611POPC   C4A10458  36.857  22.920   7.705
  611POPC   C1B10459  36.558  22.962   8.785
  611POPC   C2B10460  36.429  22.963   8.378
  611POPC   C3B10461  36.586  23.193   8.045
  611POPC   C4B10462  36.475  23.308   7.618
  612POPC   NC310463  33.633  41.193   9.397
  612POPC   PO410464  34.042  40.657   9.611
  612POPC   GL110465  33.845  40.749   9.169
  612POPC   GL210466  33.797  41.010   8.946
  612POPC   C1A10467  33.701  40.574   8.720
  612POPC   D2A10468  33.716  40.838   8.329
  612POPC   C3A10469  33.872  40.802   7.887
  612POPC   C4A10470  33.732  40.707   7.455
  612POPC   C1B10471  33.896  41.251   8.618
  612POPC   C2B10472  33.920  41.285   8.166
  612POPC   C3B10473  33.943  41.317   7.757
  612POPC   C4B10474  34.055  41.112   7.394
  613POPC   NC310475   9.042  42.090   9.364
  613POPC   PO410476   8.923  41.504   9.636
  613POPC   GL110477   8.875  41.441   9.189
  613POPC   GL210478   8.990  41.726   9.047
  613POPC   C1A10479   8.657  41.489   8.775
  613POPC   D2A10480   8.405  41.494   8.429
  613POPC   C3A10481   8.616  41.448   8.049
  613POPC   C4A10482   8.896  41.401   7.682
  613POPC   C1B10483   9.227  41.810   8.695
  613POPC   C2B10484   8.994  41.651   8.359
  613POPC   C3B10485   9.006  41.802   7.951
  613POPC   C4B10486   9.369  41.876   7.684
  614POPC   NC310487  28.516  42.457   9.391
  614POPC   PO410488  28.075  41.954   9.313
  614POPC   GL110489  28.282  42.180   8.964
  614POPC   GL210490  28.622  42.285   8.921
  614POPC   C1A10491  28.221  42.585   8.735
  614POPC   D2A10492  27.963  42.605   8.362
  614POPC   C3A10493  28.141  42.348   8.047
  614POPC   C4A10494  28.062  42.098   7.693
  614POPC   C1B10495  28.829  42.207   8.525
  614POPC   C2B10496  28.623  42.455   8.221
  614POPC   C3B10497  28.575  42.454   7.790
  614POPC   C4B10498  28.540  42.176   7.469
  615POPC   NC310499  44.818  26.278   9.343
  615POPC   PO410500   0.463  26.143   9.529
  615POPC   GL110501   0.288  26.161   9.127
  615POPC   GL210502   0.023  25.904   9.018
  615POPC   C1A10503   0.429  26.078   8.717
  615POPC   D2A10504   0.221  26.046   8.330
  615POPC   C3A10505   0.533  26.081   8.038
  615POPC   C4A10506   0.475  26.001   7.635
  615POPC   C1B10507  44.944  26.252   8.716
  615POPC   C2B10508  44.820  26.369   8.310
  615POPC   C3B10509  44.942  26.268   7.860
  615POPC   C4B10510   0.137  26.372   7.453
  616POPC   NC310511   6.361   8.909   9.569
  616POPC   PO410512   7.039   8.976   9.489
  616POPC   GL110513   6.741   8.985   9.187
  616POPC   GL210514   6.483   9.250   9.161
  616POPC   C1A10515   6.904   8.907   8.801
  616POPC   D2A10516   6.815   9.090   8.460
  616POPC   C3A10517   6.852   8.852   8.113
  616POPC   C4A10518   6.819   9.044   7.743
  616POPC   C1B10519   6.392   8.910   8.822
  616POPC   C2B10520   6.311   9.038   8.382
  616POPC   C3B10521   6.517   9.292   8.080
  616POPC   C4B10522   6.419   9.346   7.640
  617POPC   NC310523  41.895  13.685   9.503
  617POPC   PO410524  41.347  13.355   9.451
  617POPC   GL110525  41.530  13.589   9.127
  617POPC   GL210526  41.792  13.817   9.019
  617POPC   C1A10527  41.523  13.387   8.758
  617POPC   D2A10528  41.288  13.491   8.417
  617POPC   C3A10529  41.544  13.514   8.069
  617POPC   C4A10530  41.310  13.519   7.705
  617POPC   C1B10531  41.794  13.773   8.564
  617POPC   C2B10532  41.487  13.994   8.329
  617POPC   C3B10533  41.384  13.997   7.903
  617POPC   C4B10534  41.766  13.826   7.718
  618POPC   NC310535  30.761   7.323   9.500
  618POPC   PO410536  30.664   6.570   9.470
  618POPC   GL110537  30.633   6.912   9.181
  618POPC   GL210538  30.971   6.856   9.148
  618POPC   C1A10539  30.362   6.881   8.804
  618POPC   D2A10540  30.378   6.552   8.486
  618POPC   C3A10541  30.300   6.674   8.098
  618POPC   C4A10542  30.401   6.613   7.676
  618POPC   C1B10543  30.801   6.594   8.802
  618POPC   C2B10544  30.855   6.691   8.353
  618POPC   C3B10545  30.735   6.408   8.030
  618POPC   C4B10546  30.857   6.330   7.609
  619POPC   NC310547  17.984  20.455   9.498
  619POPC   PO410548  18.384  21.061   9.495
  619POPC   GL110549  18.178  20.822   9.148
  619POPC   GL210550  18.205  20.446   9.043
  619POPC   C1A10551  18.241  20.808   8.706
  619POPC   D2A10552  18.089  20.636   8.338
  619POPC   C3A10553  18.399  20.715   8.072
  619POPC   C4A10554  18.299  20.834   7.703
  619POPC   C1B10555  17.945  20.291   8.697
  619POPC   C2B10556  17.992  20.116   8.280
  619POPC   C3B10557  18.169  20.299   7.911
  619POPC   C4B10558  18.538  20.408   7.640
  620POPC   NC310559  30.224  14.522   9.593
  620POPC   PO410560  29.534  14.361   9.482
  620POPC   GL110561  29.895  14.400   9.184
  620POPC   GL210562  30.137  14.691   9.112
  620POPC   C1A10563  30.040  14.248   8.779
  620POPC   D2A10564  30.217  14.450   8.411
  620POPC   C3A10565  30.088  14.358   7.986
  620POPC   C4A10566  30.160  14.137   7.616
  620POPC   C1B10567  30.041  14.889   8.691
  620POPC   C2B10568  29.967  14.859   8.224
  620POPC   C3B10569  29.859  14.795   7.798
  620POPC   C4B10570  29.584  14.819   7.422
  621POPC   NC310571   7.239  39.825   9.532
  621POPC   PO410572   7.554  39.247   9.507
  621POPC   GL110573   7.489  39.483   9.173
  621POPC   GL210574   7.848  39.525   9.168
  621POPC   C1A10575   7.278  39.353   8.784
  621POPC   D2A10576   7.164  39.297   8.356
  621POPC   C3A10577   7.308  39.506   7.976
  621POPC   C4A10578   7.190  39.174   7.704
  621POPC   C1B10579   7.813  39.291   8.818
  621POPC   C2B10580   7.673  39.132   8.446
  621POPC   C3B10581   7.774  39.277   8.039
  621POPC   C4B10582   7.695  39.179   7.612
  622POPC   NC310583  20.674  34.433   9.459
  622POPC   PO410584  20.764  35.082   9.306
  622POPC   GL110585  20.785  34.789   9.028
  622POPC   GL210586  20.473  34.681   9.056
  622POPC   C1A10587  20.855  34.697   8.596
  622POPC   D2A10588  20.608  34.584   8.227
  622POPC   C3A10589  20.803  34.544   7.808
  622POPC   C4A10590  20.914  34.596   7.373
  622POPC   C1B10591  20.264  34.580   8.693
  622POPC   C2B10592  20.118  34.803   8.337
  622POPC   C3B10593  20.131  34.719   7.900
  622POPC   C4B10594  20.411  34.713   7.507
  623POPC   NC310595  31.642  26.766   9.595
  623POPC   PO410596  31.101  26.587   9.443
  623POPC   GL110597  31.505  26.546   9.149
  623POPC   GL210598  31.610  26.914   9.080
  623POPC   C1A10599  31.761  26.593   8.737
  623POPC   D2A10600  31.691  26.697   8.312
  623POPC   C3A10601  31.485  26.574   7.965
  623POPC   C4A10602  31.323  26.856   7.678
  623POPC   C1B10603  31.408  26.987   8.619
  623POPC   C2B10604  31.333  27.087   8.138
  623POPC   C3B10605  31.231  27.352   7.727
  623POPC   C4B10606  31.385  27.630   7.391
  624POPC   NC310607  21.375  21.432   9.465
  624POPC   PO410608  21.753  20.945   9.689
  624POPC   GL110609  21.720  21.199   9.204
  624POPC   GL210610  21.461  21.232   8.931
  624POPC   C1A10611  21.761  21.602   8.869
  624POPC   D2A10612  21.604  21.439   8.458
  624POPC   C3A10613  21.563  21.625   8.074
  624POPC   C4A10614  21.634  21.510   7.611
  624POPC   C1B10615  21.134  21.296   8.653
  624POPC   C2B10616  21.058  21.492   8.256
  624POPC   C3B10617  21.142  21.466   7.830
  624POPC   C4B10618  21.174  21.688   7.442
  625POPC   NC310619  28.398   3.460   9.581
  625POPC   PO410620  28.129   3.838   9.136
  625POPC   GL110621  28.568   3.731   9.088
  625POPC   GL210622  28.677   3.421   9.140
  625POPC   C1A10623  28.632   3.849   8.681
  625POPC   D2A10624  28.339   3.724   8.385
  625POPC   C3A10625  28.439   3.636   7.978
  625POPC   C4A10626  28.086   3.425   7.814
  625POPC   C1B10627  28.577   3.127   8.781
  625POPC   C2B10628  28.602   2.967   8.343
  625POPC   C3B10629  28.482   3.094   7.918
  625POPC   C4B10630  28.630   3.342   7.561
  626POPC   NC310631  23.221  38.882   9.294
  626POPC   PO410632  22.950  38.407   9.695
  626POPC   GL110633  22.991  38.440   9.271
  626POPC   GL210634  23.320  38.392   9.125
  626POPC   C1A10635  22.823  38.419   8.861
  626POPC   D2A10636  22.563  38.259   8.498
  626POPC   C3A10637  22.689  38.465   8.116
  626POPC   C4A10638  22.605  38.488   7.682
  626POPC   C1B10639  23.511  38.531   8.745
  626POPC   C2B10640  23.443  38.271   8.368
  626POPC   C3B10641  23.352  38.212   7.934
  626POPC   C4B10642  23.092  38.592   7.789
  627POPC   NC310643  40.188  43.731   9.609
  627POPC   PO410644  39.631  43.808   9.783
  627POPC   GL110645  39.753  43.888   9.302
  627POPC   GL210646  40.089  44.030   9.164
  627POPC   C1A10647  39.763  43.868   8.811
  627POPC   D2A10648  40.091  43.915   8.486
  627POPC   C3A10649  40.020  43.789   8.046
  627POPC   C4A10650  40.079  43.973   7.618
  627POPC   C1B10651  40.237  43.652   8.902
  627POPC   C2B10652  40.318  43.480   8.438
  627POPC   C3B10653  40.492  43.542   8.052
  627POPC   C4B10654  40.269  43.485   7.686
  628POPC   NC310655  27.419   0.232   9.518
  628POPC   PO410656  27.562   0.894   9.455
  628POPC   GL110657  27.663   0.642   9.139
  628POPC   GL210658  27.386   0.486   9.095
  628POPC   C1A10659  27.731   0.550   8.711
  628POPC   D2A10660  27.921   0.635   8.320
  628POPC   C3A10661  27.768   0.480   7.936
  628POPC   C4A10662  27.954   0.522   7.531
  628POPC   C1B10663  27.231   0.413   8.737
  628POPC   C2B10664  27.387   0.393   8.343
  628POPC   C3B10665  27.185   0.378   7.985
  628POPC   C4B10666  27.327   0.504   7.645
  629POPC   NC310667  40.025  42.002   9.335
  629POPC   PO410668  39.927  42.682   9.448
  629POPC   GL110669  40.260  42.413   9.197
  629POPC   GL210670  39.952  42.366   8.979
  629POPC   C1A10671  40.401  42.225   8.816
  629POPC   D2A10672  40.197  42.441   8.479
  629POPC   C3A10673  40.265  42.258   8.100
  629POPC   C4A10674  40.234  42.269   7.692
  629POPC   C1B10675  39.929  42.017   8.655
  629POPC   C2B10676  39.844  41.969   8.232
  629POPC   C3B10677  39.774  42.282   7.934
  629POPC   C4B10678  39.753  42.539   7.540
  630POPC   NC310679   0.245  44.100   9.506
  630POPC   PO410680   0.408  43.473   9.677
  630POPC   GL110681   0.503  43.649   9.214
  630POPC   GL210682   0.303  43.929   9.033
  630POPC   C1A10683   0.537  43.515   8.755
  630POPC   D2A10684   0.419  43.475   8.295
  630POPC   C3A10685   0.490  43.771   7.936
  630POPC   C4A10686   0.877  43.913   7.730
  630POPC   C1B10687   0.131  43.810   8.653
  630POPC   C2B10688   0.220  44.059   8.298
  630POPC   C3B10689   0.037  44.083   7.903
  630POPC   C4B10690   0.243  43.967   7.506
  631POPC   NC310691   3.256  29.105   9.589
  631POPC   PO410692   3.594  29.635   9.358
  631POPC   GL110693   3.415  29.330   9.139
  631POPC   GL210694   3.551  29.002   9.151
  631POPC   C1A10695   3.544  29.347   8.745
  631POPC   D2A10696   3.310  29.468   8.440
  631POPC   C3A10697   3.398  29.204   8.150
  631POPC   C4A10698   3.484  29.307   7.773
  631POPC   C1B10699   3.386  28.859   8.748
  631POPC   C2B10700   3.191  28.764   8.354
  631POPC   C3B10701   3.407  28.713   7.953
  631POPC   C4B10702   3.433  28.859   7.515
  632POPC   NC310703  39.904   1.382   9.227
  632POPC   PO410704  40.181   0.852   9.589
  632POPC   GL110705  39.997   0.876   9.161
  632POPC   GL210706  40.311   0.697   9.106
  632POPC   C1A10707  39.788   1.041   8.728
  632POPC   D2A10708  39.867   0.897   8.362
  632POPC   C3A10709  39.839   1.147   8.039
  632POPC   C4A10710  39.451   1.214   7.858
  632POPC   C1B10711  40.291   0.960   8.735
  632POPC   C2B10712  40.321   1.170   8.347
  632POPC   C3B10713  40.266   1.455   8.020
  632POPC   C4B10714  40.301   1.172   7.733
  633POPC   NC310715  16.426  28.137   9.412
  633POPC   PO410716  17.004  28.541   9.505
  633POPC   GL110717  16.885  28.306   9.173
  633POPC   GL210718  16.591  28.487   9.099
  633POPC   C1A10719  16.968  28.183   8.746
  633POPC   D2A10720  16.808  28.137   8.316
  633POPC   C3A10721  17.030  28.038   7.920
  633POPC   C4A10722  17.142  28.358   7.603
  633POPC   C1B10723  16.425  28.320   8.725
  633POPC   C2B10724  16.419  28.473   8.306
  633POPC   C3B10725  16.545  28.315   7.897
  633POPC   C4B10726  16.326  28.240   7.493
  634POPC   NC310727   0.301   4.961   9.540
  634POPC   PO410728   0.959   4.637   9.454
  634POPC   GL110729   0.621   4.787   9.166
  634POPC   GL210730   0.516   5.143   9.126
  634POPC   C1A10731   0.401   4.815   8.769
  634POPC   D2A10732   0.252   5.136   8.474
  634POPC   C3A10733   0.170   4.986   8.055
  634POPC   C4A10734   0.316   5.165   7.685
  634POPC   C1B10735   0.672   5.294   8.791
  634POPC   C2B10736   0.660   5.485   8.429
  634POPC   C3B10737   0.549   5.351   8.088
  634POPC   C4B10738   0.782   5.353   7.754
  635POPC   NC310739  21.948  16.959   9.492
  635POPC   PO410740  22.517  16.496   9.479
  635POPC   GL110741  22.232  16.613   9.181
  635POPC   GL210742  22.356  16.936   9.155
  635POPC   C1A10743  22.376  16.555   8.773
  635POPC   D2A10744  22.153  16.491   8.428
  635POPC   C3A10745  22.376  16.463   8.068
  635POPC   C4A10746  22.215  16.582   7.684
  635POPC   C1B10747  22.096  16.987   8.782
  635POPC   C2B10748  21.837  16.885   8.450
  635POPC   C3B10749  22.034  16.858   8.076
  635POPC   C4B10750  22.044  17.087   7.730
  636POPC   NC310751   8.616  13.520   9.450
  636POPC   PO410752   9.032  14.153   9.434
  636POPC   GL110753   8.873  13.898   9.078
  636POPC   GL210754   8.731  13.546   8.975
  636POPC   C1A10755   9.045  13.744   8.666
  636POPC   D2A10756   8.920  13.500   8.326
  636POPC   C3A10757   9.072  13.657   7.971
  636POPC   C4A10758   8.822  13.959   7.758
  636POPC   C1B10759   8.738  13.188   8.675
  636POPC   C2B10760   8.780  13.021   8.218
  636POPC   C3B10761   8.935  13.198   7.811
  636POPC   C4B10762   8.913  13.113   7.359
  637POPC   NC310763  42.225  24.610   9.614
  637POPC   PO410764  42.411  24.028   9.418
  637POPC   GL110765  42.288  24.361   9.163
  637POPC   GL210766  42.565  24.597   9.173
  637POPC   C1A10767  42.188  24.554   8.766
  637POPC   D2A10768  42.099  24.317   8.402
  637POPC   C3A10769  42.261  24.424   8.023
  637POPC   C4A10770  42.354  24.249   7.630
  637POPC   C1B10771  42.654  24.334   8.778
  637POPC   C2B10772  42.642  24.458   8.352
  637POPC   C3B10773  42.755  24.370   7.946
  637POPC   C4B10774  42.593  24.686   7.689
  638POPC   NC310775  33.769  11.753   9.600
  638POPC   PO410776  33.985  11.032   9.653
  638POPC   GL110777  33.931  11.104   9.190
  638POPC   GL210778  33.832  11.463   9.170
  638POPC   C1A10779  34.033  11.247   8.753
  638POPC   D2A10780  33.834  11.465   8.410
  638POPC   C3A10781  33.948  11.190   8.045
  638POPC   C4A10782  33.722  10.976   7.682
  638POPC   C1B10783  33.555  11.651   8.859
  638POPC   C2B10784  33.400  11.820   8.474
  638POPC   C3B10785  33.510  11.678   8.056
  638POPC   C4B10786  33.708  11.489   7.725
  639POPC   NC310787  13.341   7.895   9.510
  639POPC   PO410788  13.947   8.337   9.466
  639POPC   GL110789  13.544   8.292   9.212
  639POPC   GL210790  13.631   7.971   9.070
  639POPC   C1A10791  13.385   8.336   8.777
  639POPC   D2A10792  13.496   8.070   8.456
  639POPC   C3A10793  13.342   8.107   8.045
  639POPC   C4A10794  13.540   8.146   7.632
  639POPC   C1B10795  13.892   8.256   8.811
  639POPC   C2B10796  14.011   8.150   8.422
  639POPC   C3B10797  13.856   8.158   8.047
  639POPC   C4B10798  14.055   8.104   7.693
  640POPC   NC310799  42.182   0.800   9.361
  640POPC   PO410800  42.454   1.405   9.559
  640POPC   GL110801  42.585   1.433   9.148
  640POPC   GL210802  42.618   1.067   9.124
  640POPC   C1A10803  42.424   1.435   8.758
  640POPC   D2A10804  42.231   1.434   8.362
  640POPC   C3A10805  42.291   1.271   7.942
  640POPC   C4A10806  42.019   0.930   7.763
  640POPC   C1B10807  42.379   0.930   8.749
  640POPC   C2B10808  42.499   0.979   8.342
  640POPC   C3B10809  42.492   0.791   7.921
  640POPC   C4B10810  42.473   0.940   7.466
  641POPC   NC310811  21.430  30.911   9.532
  641POPC   PO410812  21.964  30.515   9.533
  641POPC   GL110813  21.629  30.406   9.192
  641POPC   GL210814  21.275  30.526   9.192
  641POPC   C1A10815  21.494  30.571   8.753
  641POPC   D2A10816  21.378  30.843   8.424
  641POPC   C3A10817  21.586  30.666   8.089
  641POPC   C4A10818  21.536  30.845   7.694
  641POPC   C1B10819  20.968  30.407   8.876
  641POPC   C2B10820  21.052  30.467   8.429
  641POPC   C3B10821  21.051  30.687   8.009
  641POPC   C4B10822  20.816  30.385   7.720
  642POPC   NC310823  41.950  27.413   9.803
  642POPC   PO410824  42.496  27.390   9.427
  642POPC   GL110825  42.379  27.645   9.083
  642POPC   GL210826  42.548  27.953   8.998
  642POPC   C1A10827  42.188  27.662   8.681
  642POPC   D2A10828  42.107  27.848   8.290
  642POPC   C3A10829  42.112  27.551   7.980
  642POPC   C4A10830  42.289  27.530   7.595
  642POPC   C1B10831  42.698  27.668   8.698
  642POPC   C2B10832  42.548  27.596   8.303
  642POPC   C3B10833  42.567  27.793   7.920
  642POPC   C4B10834  42.732  27.768   7.477
  643POPC   NC310835  17.977  34.858   9.247
  643POPC   PO410836  18.547  34.366   9.387
  643POPC   GL110837  18.344  34.562   9.074
  643POPC   GL210838  18.001  34.440   8.940
  643POPC   C1A10839  18.459  34.498   8.685
  643POPC   D2A10840  18.454  34.695   8.328
  643POPC   C3A10841  18.192  34.469   8.065
  643POPC   C4A10842  18.352  34.579   7.702
  643POPC   C1B10843  18.018  34.792   8.598
  643POPC   C2B10844  17.978  34.931   8.159
  643POPC   C3B10845  17.907  34.954   7.701
  643POPC   C4B10846  17.812  35.049   7.219
  644POPC   NC310847   7.169  29.854   9.354
  644POPC   PO410848   7.875  30.112   9.384
  644POPC   GL110849   7.591  30.006   9.114
  644POPC   GL210850   7.687  29.704   8.979
  644POPC   C1A10851   7.445  30.077   8.724
  644POPC   D2A10852   7.566  29.854   8.363
  644POPC   C3A10853   7.407  30.143   8.078
  644POPC   C4A10854   7.425  30.337   7.704
  644POPC   C1B10855   7.319  29.586   8.789
  644POPC   C2B10856   7.186  29.468   8.442
  644POPC   C3B10857   7.115  29.711   8.108
  644POPC   C4B10858   7.204  29.680   7.702
  645POPC   NC310859   9.490   6.216   9.579
  645POPC   PO410860   9.800   5.588   9.579
  645POPC   GL110861   9.741   5.869   9.248
  645POPC   GL210862   9.757   5.551   9.074
  645POPC   C1A10863   9.816   5.991   8.829
  645POPC   D2A10864   9.803   5.749   8.452
  645POPC   C3A10865   9.771   6.026   8.095
  645POPC   C4A10866   9.863   5.787   7.716
  645POPC   C1B10867   9.430   5.616   8.810
  645POPC   C2B10868   9.315   5.564   8.386
  645POPC   C3B10869   9.442   5.676   8.007
  645POPC   C4B10870   9.385   5.929   7.633
  646POPC   NC310871  21.131  31.604   9.489
  646POPC   PO410872  20.458  31.580   9.553
  646POPC   GL110873  20.533  31.429   9.162
  646POPC   GL210874  20.822  31.657   9.093
  646POPC   C1A10875  20.463  31.555   8.741
  646POPC   D2A10876  20.654  31.539   8.390
  646POPC   C3A10877  20.361  31.501   8.085
  646POPC   C4A10878  20.533  31.495   7.718
  646POPC   C1B10879  20.944  31.365   8.795
  646POPC   C2B10880  21.138  31.338   8.395
  646POPC   C3B10881  21.053  31.643   8.094
  646POPC   C4B10882  21.037  31.574   7.693
  647POPC   NC310883  20.438  31.031   9.521
  647POPC   PO410884  21.024  30.703   9.593
  647POPC   GL110885  20.795  30.781   9.252
  647POPC   GL210886  20.958  31.122   9.248
  647POPC   C1A10887  20.567  30.794   8.874
  647POPC   D2A10888  20.561  30.508   8.533
  647POPC   C3A10889  20.557  30.650   8.125
  647POPC   C4A10890  20.464  30.735   7.708
  647POPC   C1B10891  21.097  30.899   8.857
  647POPC   C2B10892  20.852  30.934   8.463
  647POPC   C3B10893  20.768  31.148   8.073
  647POPC   C4B10894  20.875  31.084   7.672
  648POPC   NC310895   7.986  13.217   9.505
  648POPC   PO410896   8.148  13.834   9.410
  648POPC   GL110897   8.237  13.609   9.076
  648POPC   GL210898   7.954  13.395   9.018
  648POPC   C1A10899   8.363  13.604   8.636
  648POPC   D2A10900   8.411  13.359   8.285
  648POPC   C3A10901   8.574  13.523   7.935
  648POPC   C4A10902   8.527  13.396   7.504
  648POPC   C1B10903   7.889  13.786   8.762
  648POPC   C2B10904   8.114  14.022   8.477
  648POPC   C3B10905   8.109  13.765   8.132
  648POPC   C4B10906   8.171  13.682   7.703
  649POPC   NC310907  13.500  27.312   9.508
  649POPC   PO410908  13.360  28.008   9.627
  649POPC   GL110909  13.495  27.803   9.260
  649POPC   GL210910  13.290  27.541   9.105
  649POPC   C1A10911  13.691  27.761   8.871
  649POPC   D2A10912  13.515  27.982   8.504
  649POPC   C3A10913  13.577  27.746   8.137
  649POPC   C4A10914  13.753  27.607   7.743
  649POPC   C1B10915  13.311  27.522   8.643
  649POPC   C2B10916  13.098  27.574   8.251
  649POPC   C3B10917  13.268  27.359   7.908
  649POPC   C4B10918  13.187  27.005   7.627
  650POPC   NC310919  25.870  36.704   9.365
  650POPC   PO410920  26.241  37.304   9.416
  650POPC   GL110921  26.205  36.995   9.088
  650POPC   GL210922  26.269  36.599   9.084
  650POPC   C1A10923  26.168  37.082   8.666
  650POPC   D2A10924  26.042  37.333   8.328
  650POPC   C3A10925  25.944  37.143   7.958
  650POPC   C4A10926  26.153  37.117   7.582
  650POPC   C1B10927  26.075  36.566   8.683
  650POPC   C2B10928  26.039  36.764   8.271
  650POPC   C3B10929  25.965  36.661   7.801
  650POPC   C4B10930  25.953  36.369   7.407
  651POPC   NC310931  33.729  20.717   9.646
  651POPC   PO410932  33.666  20.088   9.429
  651POPC   GL110933  33.837  20.418   9.119
  651POPC   GL210934  33.898  20.786   9.181
  651POPC   C1A10935  33.873  20.639   8.691
  651POPC   D2A10936  33.624  20.765   8.345
  651POPC   C3A10937  33.748  20.541   8.007
  651POPC   C4A10938  33.629  20.496   7.570
  651POPC   C1B10939  33.767  21.086   8.884
  651POPC   C2B10940  33.966  21.200   8.495
  651POPC   C3B10941  34.026  21.003   8.085
  651POPC   C4B10942  33.770  20.958   7.728
  652POPC   NC310943  26.424  30.786   9.580
  652POPC   PO410944  27.108  31.000   9.427
  652POPC   GL110945  26.860  30.700   9.139
  652POPC   GL210946  26.499  30.567   9.139
  652POPC   C1A10947  26.694  30.791   8.721
  652POPC   D2A10948  26.758  30.968   8.340
  652POPC   C3A10949  26.838  30.684   7.997
  652POPC   C4A10950  26.965  30.757   7.583
  652POPC   C1B10951  26.361  30.417   8.758
  652POPC   C2B10952  26.478  30.523   8.311
  652POPC   C3B10953  26.401  30.446   7.846
  652POPC   C4B10954  26.562  30.429   7.417
  653POPC   NC310955  25.236   5.735   9.456
  653POPC   PO410956  25.350   6.365   9.652
  653POPC   GL110957  25.245   6.205   9.213
  653POPC   GL210958  25.467   5.998   9.075
  653POPC   C1A10959  25.190   6.256   8.760
  653POPC   D2A10960  25.459   6.249   8.393
  653POPC   C3A10961  25.247   6.108   8.022
  653POPC   C4A10962  25.125   6.177   7.596
  653POPC   C1B10963  25.475   5.782   8.690
  653POPC   C2B10964  25.654   5.781   8.273
  653POPC   C3B10965  25.699   5.946   7.858
  653POPC   C4B10966  25.391   5.707   7.614
  654POPC   NC310967   5.159  10.104   9.356
  654POPC   PO410968   5.476   9.494   9.420
  654POPC   GL110969   5.306   9.726   9.064
  654POPC   GL210970   4.943   9.674   9.086
  654POPC   C1A10971   5.259  10.053   8.720
  654POPC   D2A10972   5.119   9.893   8.317
  654POPC   C3A10973   5.196   9.872   7.884
  654POPC   C4A10974   5.047   9.442   7.832
  654POPC   C1B10975   4.773   9.890   8.728
  654POPC   C2B10976   4.635  10.036   8.360
  654POPC   C3B10977   4.678   9.800   7.975
  654POPC   C4B10978   4.806   9.827   7.545
  655POPC   NC310979  31.999  20.459   9.321
  655POPC   PO410980  32.652  20.554   9.460
  655POPC   GL110981  32.445  20.548   9.093
  655POPC   GL210982  32.516  20.205   9.090
  655POPC   C1A10983  32.278  20.755   8.724
  655POPC   D2A10984  32.343  20.993   8.349
  655POPC   C3A10985  32.338  20.747   7.981
  655POPC   C4A10986  31.963  20.606   7.861
  655POPC   C1B10987  32.274  20.215   8.710
  655POPC   C2B10988  32.310  20.384   8.340
  655POPC   C3B10989  32.290  20.218   7.970
  655POPC   C4B10990  32.468  20.330   7.643
  656POPC   NC310991  27.086  33.541   9.356
  656POPC   PO410992  27.040  34.203   9.529
  656POPC   GL110993  26.952  33.974   9.107
  656POPC   GL210994  26.648  33.724   9.096
  656POPC   C1A10995  26.913  33.796   8.658
  656POPC   D2A10996  26.610  33.627   8.338
  656POPC   C3A10997  26.805  33.547   7.944
  656POPC   C4A10998  26.800  33.928   7.728
  656POPC   C1B10999  26.408  33.932   8.729
  656POPC   C2B11000  26.319  34.069   8.292
  656POPC   C3B11001  26.303  33.853   7.868
  656POPC   C4B11002  26.360  34.037   7.423
  657POPC   NC311003  10.095  42.222   9.317
  657POPC   PO411004   9.467  42.190   9.549
  657POPC   GL111005   9.462  42.254   9.121
  657POPC   GL211006   9.709  42.487   9.116
  657POPC   C1A11007   9.694  42.082   8.756
  657POPC   D2A11008   9.845  41.857   8.384
  657POPC   C3A11009   9.710  42.061   8.012
  657POPC   C4A11010   9.810  42.224   7.576
  657POPC   C1B11011   9.711  42.614   8.722
  657POPC   C2B11012   9.542  42.493   8.335
  657POPC   C3B11013   9.566  42.550   7.914
  657POPC   C4B11014   9.738  42.735   7.576
  658POPC   NC311015   9.189  15.620   9.301
  658POPC   PO411016   8.945  15.132   9.678
  658POPC   GL111017   8.848  15.171   9.173
  658POPC   GL211018   8.807  15.498   8.965
  658POPC   C1A11019   8.653  15.082   8.721
  658POPC   D2A11020   8.868  15.036   8.317
  658POPC   C3A11021   8.772  15.251   7.938
  658POPC   C4A11022   9.003  15.255   7.501
  658POPC   C1B11023   9.121  15.264   8.714
  658POPC   C2B11024   9.376  15.201   8.360
  658POPC   C3B11025   9.307  15.301   7.946
  658POPC   C4B11026   9.346  15.629   7.652
  659POPC   NC311027  13.276  13.473   9.433
  659POPC   PO411028  13.854  13.762   9.596
  659POPC   GL111029  13.929  13.823   9.187
  659POPC   GL211030  13.655  13.583   9.078
  659POPC   C1A11031  13.787  13.983   8.800
  659POPC   D2A11032  13.530  13.748   8.480
  659POPC   C3A11033  13.694  13.728   8.050
  659POPC   C4A11034  13.433  13.779   7.678
  659POPC   C1B11035  13.395  13.316   8.788
  659POPC   C2B11036  13.177  13.236   8.440
  659POPC   C3B11037  13.332  13.381   8.102
  659POPC   C4B11038  13.506  13.289   7.727
  660POPC   NC311039  12.503  25.118   9.451
  660POPC   PO411040  13.231  24.970   9.497
  660POPC   GL111041  13.136  24.982   9.099
  660POPC   GL211042  12.832  24.871   9.129
  660POPC   C1A11043  13.034  25.326   8.840
  660POPC   D2A11044  12.712  25.463   8.564
  660POPC   C3A11045  12.707  25.365   8.133
  660POPC   C4A11046  12.700  25.404   7.698
  660POPC   C1B11047  12.662  24.987   8.755
  660POPC   C2B11048  12.728  24.875   8.321
  660POPC   C3B11049  12.598  24.921   7.883
  660POPC   C4B11050  12.560  24.920   7.413
  661POPC   NC311051  12.480  35.816   9.704
  661POPC   PO411052  13.108  35.966   9.529
  661POPC   GL111053  13.084  36.157   9.139
  661POPC   GL211054  12.784  36.359   9.151
  661POPC   C1A11055  13.073  35.973   8.735
  661POPC   D2A11056  12.810  35.887   8.373
  661POPC   C3A11057  13.035  36.009   8.022
  661POPC   C4A11058  13.078  36.159   7.614
  661POPC   C1B11059  12.676  36.309   8.715
  661POPC   C2B11060  12.520  36.315   8.291
  661POPC   C3B11061  12.653  36.329   7.864
  661POPC   C4B11062  12.660  36.341   7.409
  662POPC   NC311063  15.443  38.331   9.579
  662POPC   PO411064  14.842  38.666   9.620
  662POPC   GL111065  15.004  38.392   9.230
  662POPC   GL211066  14.744  38.167   9.018
  662POPC   C1A11067  15.186  38.248   8.791
  662POPC   D2A11068  14.975  38.164   8.383
  662POPC   C3A11069  15.211  38.357   8.050
  662POPC   C4A11070  15.403  38.374   7.670
  662POPC   C1B11071  14.734  38.540   8.809
  662POPC   C2B11072  14.847  38.657   8.420
  662POPC   C3B11073  14.747  38.600   8.028
  662POPC   C4B11074  14.955  38.763   7.718
  663POPC   NC311075   8.074  36.015   9.834
  663POPC   PO411076   8.065  35.603   9.336
  663POPC   GL111077   8.367  35.790   9.065
  663POPC   GL211078   8.322  36.122   9.103
  663POPC   C1A11079   8.389  35.743   8.651
  663POPC   D2A11080   8.164  35.985   8.407
  663POPC   C3A11081   8.130  35.844   8.008
  663POPC   C4A11082   8.091  36.059   7.683
  663POPC   C1B11083   7.999  36.276   8.833
  663POPC   C2B11084   7.750  36.414   8.508
  663POPC   C3B11085   7.919  36.326   8.091
  663POPC   C4B11086   7.891  36.533   7.725
  664POPC   NC311087  33.286   9.381   9.391
  664POPC   PO411088  32.920   8.881   9.490
  664POPC   GL111089  32.976   8.816   9.116
  664POPC   GL211090  32.992   9.168   9.015
  664POPC   C1A11091  33.157   8.772   8.748
  664POPC   D2A11092  33.015   9.048   8.460
  664POPC   C3A11093  33.065   8.854   8.114
  664POPC   C4A11094  33.027   8.770   7.718
  664POPC   C1B11095  32.720   9.385   8.757
  664POPC   C2B11096  32.533   9.215   8.390
  664POPC   C3B11097  32.783   9.306   8.063
  664POPC   C4B11098  32.776   9.230   7.662
  665POPC   NC311099  16.732  21.855   9.521
  665POPC   PO411100  16.315  21.327   9.623
  665POPC   GL111101  16.534  21.435   9.181
  665POPC   GL211102  16.857  21.601   9.094
  665POPC   C1A11103  16.576  21.280   8.714
  665POPC   D2A11104  16.467  21.128   8.268
  665POPC   C3A11105  16.519  21.400   7.906
  665POPC   C4A11106  16.620  21.732   7.592
  665POPC   C1B11107  17.055  21.465   8.709
  665POPC   C2B11108  16.925  21.413   8.248
  665POPC   C3B11109  17.022  21.437   7.767
  665POPC   C4B11110  17.028  21.552   7.302
  666POPC   NC311111  26.210  21.567   9.424
  666POPC   PO411112  25.621  21.634   9.654
  666POPC   GL111113  25.783  21.430   9.175
  666POPC   GL211114  26.108  21.281   9.041
  666POPC   C1A11115  25.935  21.577   8.692
  666POPC   D2A11116  25.844  21.414   8.295
  666POPC   C3A11117  25.793  21.556   7.886
  666POPC   C4A11118  26.173  21.569   7.708
  666POPC   C1B11119  26.208  20.996   8.762
  666POPC   C2B11120  26.002  20.931   8.388
  666POPC   C3B11121  26.165  21.098   8.016
  666POPC   C4B11122  26.240  20.841   7.686
  667POPC   NC311123  32.024  19.635   9.451
  667POPC   PO411124  32.684  19.763   9.405
  667POPC   GL111125  32.360  19.717   9.078
  667POPC   GL211126  32.055  19.958   9.073
  667POPC   C1A11127  32.234  19.678   8.665
  667POPC   D2A11128  32.395  19.839   8.299
  667POPC   C3A11129  32.381  19.596   7.930
  667POPC   C4A11130  32.293  19.848   7.548
  667POPC   C1B11131  31.801  19.939   8.722
  667POPC   C2B11132  31.910  20.040   8.324
  667POPC   C3B11133  31.943  19.850   7.929
  667POPC   C4B11134  31.885  20.178   7.627
  668POPC   NC311135  17.205   0.927   9.655
  668POPC   PO411136  17.671   1.339   9.455
  668POPC   GL111137  17.320   1.202   9.215
  668POPC   GL211138  17.282   1.454   9.020
  668POPC   C1A11139  17.261   1.049   8.753
  668POPC   D2A11140  17.282   1.450   8.496
  668POPC   C3A11141  17.189   1.384   8.071
  668POPC   C4A11142  17.242   1.036   7.825
  668POPC   C1B11143  17.716   1.205   8.841
  668POPC   C2B11144  17.881   0.979   8.444
  668POPC   C3B11145  17.816   1.102   8.018
  668POPC   C4B11146  17.611   1.391   7.762
  669POPC   NC311147   0.528  41.352   9.432
  669POPC   PO411148   0.696  41.952   9.666
  669POPC   GL111149   0.448  41.840   9.291
  669POPC   GL211150   0.692  41.675   9.043
  669POPC   C1A11151   0.210  41.706   8.917
  669POPC   D2A11152   0.362  41.562   8.513
  669POPC   C3A11153   0.161  41.637   8.141
  669POPC   C4A11154   0.409  41.704   7.801
  669POPC   C1B11155   0.636  41.249   8.824
  669POPC   C2B11156   0.681  41.101   8.437
  669POPC   C3B11157   0.820  41.308   8.093
  669POPC   C4B11158   0.825  41.141   7.667
  670POPC   NC311159  43.352  33.544   9.489
  670POPC   PO411160  42.846  33.915   9.371
  670POPC   GL111161  42.938  33.586   9.053
  670POPC   GL211162  43.299  33.592   8.991
  670POPC   C1A11163  43.021  33.488   8.596
  670POPC   D2A11164  43.371  33.580   8.343
  670POPC   C3A11165  43.190  33.762   8.012
  670POPC   C4A11166  43.003  33.827   7.660
  670POPC   C1B11167  43.238  33.943   8.688
  670POPC   C2B11168  43.325  34.161   8.275
  670POPC   C3B11169  43.072  34.285   7.882
  670POPC   C4B11170  43.105  34.457   7.443
  671POPC   NC311171   2.612   7.185   9.538
  671POPC   PO411172   3.179   7.183   9.180
  671POPC   GL111173   2.722   7.349   9.072
  671POPC   GL211174   2.559   7.639   9.294
  671POPC   C1A11175   2.598   7.370   8.641
  671POPC   D2A11176   2.938   7.399   8.309
  671POPC   C3A11177   2.832   7.160   7.959
  671POPC   C4A11178   2.866   7.244   7.546
  671POPC   C1B11179   2.450   7.812   8.903
  671POPC   C2B11180   2.621   7.863   8.514
  671POPC   C3B11181   2.516   7.643   8.155
  671POPC   C4B11182   2.773   7.717   7.821
  672POPC   NC311183  32.426   5.279   9.413
  672POPC   PO411184  32.766   4.714   9.494
  672POPC   GL111185  32.439   4.768   9.134
  672POPC   GL211186  32.086   4.959   9.130
  672POPC   C1A11187  32.305   4.828   8.681
  672POPC   D2A11188  32.253   4.647   8.273
  672POPC   C3A11189  32.187   4.922   7.920
  672POPC   C4A11190  32.504   5.137   7.677
  672POPC   C1B11191  32.234   5.319   8.812
  672POPC   C2B11192  32.331   5.297   8.382
  672POPC   C3B11193  32.381   5.526   7.999
  672POPC   C4B11194  32.133   5.482   7.633
  673POPC   NC311195  19.407  29.906   9.374
  673POPC   PO411196  20.117  29.748   9.477
  673POPC   GL111197  20.133  29.936   9.116
  673POPC   GL211198  19.797  29.959   9.007
  673POPC   C1A11199  20.212  29.759   8.711
  673POPC   D2A11200  20.117  29.622   8.277
  673POPC   C3A11201  19.950  29.949   8.022
  673POPC   C4A11202  19.907  30.035   7.614
  673POPC   C1B11203  19.476  29.937   8.682
  673POPC   C2B11204  19.514  29.812   8.252
  673POPC   C3B11205  19.472  29.867   7.813
  673POPC   C4B11206  19.558  29.651   7.418
  674POPC   NC311207  13.610  38.131   9.815
  674POPC   PO411208  13.720  37.607   9.398
  674POPC   GL111209  13.554  37.471   9.038
  674POPC   GL211210  13.853  37.613   8.921
  674POPC   C1A11211  13.538  37.418   8.579
  674POPC   D2A11212  13.692  37.226   8.208
  674POPC   C3A11213  13.661  37.580   7.941
  674POPC   C4A11214  13.534  37.678   7.533
  674POPC   C1B11215  14.066  37.358   8.685
  674POPC   C2B11216  14.212  37.413   8.297
  674POPC   C3B11217  14.140  37.339   7.904
  674POPC   C4B11218  13.935  37.356   7.577
  675POPC   NC311219  16.884  40.075   9.528
  675POPC   PO411220  16.529  39.606   9.274
  675POPC   GL111221  16.527  39.861   9.001
  675POPC   GL211222  16.851  39.938   9.037
  675POPC   C1A11223  16.536  39.709   8.594
  675POPC   D2A11224  16.644  39.663   8.211
  675POPC   C3A11225  16.715  40.058   8.020
  675POPC   C4A11226  16.442  39.845   7.751
  675POPC   C1B11227  16.823  40.126   8.658
  675POPC   C2B11228  17.046  39.887   8.398
  675POPC   C3B11229  17.125  39.715   8.007
  675POPC   C4B11230  16.954  39.825   7.632
  676POPC   NC311231  35.546  33.944   9.490
  676POPC   PO411232  34.969  33.732   9.628
  676POPC   GL111233  35.115  33.799   9.200
  676POPC   GL211234  35.400  33.638   9.129
  676POPC   C1A11235  35.199  33.923   8.764
  676POPC   D2A11236  35.295  33.743   8.398
  676POPC   C3A11237  35.317  34.063   8.121
  676POPC   C4A11238  35.215  33.993   7.730
  676POPC   C1B11239  35.668  33.716   8.775
  676POPC   C2B11240  35.758  33.964   8.421
  676POPC   C3B11241  35.716  33.755   8.087
  676POPC   C4B11242  35.610  33.639   7.724
  677POPC   NC311243  43.121  29.300   9.415
  677POPC   PO411244  43.562  28.759   9.263
  677POPC   GL111245  43.216  28.930   9.097
  677POPC   GL211246  42.863  28.887   9.202
  677POPC   C1A11247  43.128  29.167   8.749
  677POPC   D2A11248  43.102  28.970   8.379
  677POPC   C3A11249  43.321  29.137   8.084
  677POPC   C4A11250  43.155  29.046   7.733
  677POPC   C1B11251  42.673  28.950   8.801
  677POPC   C2B11252  42.628  29.157   8.436
  677POPC   C3B11253  42.808  29.285   8.060
  677POPC   C4B11254  42.649  29.006   7.759
  678POPC   NC311255  17.329  28.100   9.436
  678POPC   PO411256  17.810  28.542   9.609
  678POPC   GL111257  17.728  28.593   9.150
  678POPC   GL211258  17.401  28.421   9.038
  678POPC   C1A11259  17.692  28.717   8.702
  678POPC   D2A11260  17.340  28.469   8.504
  678POPC   C3A11261  17.360  28.412   8.078
  678POPC   C4A11262  17.668  28.552   7.829
  678POPC   C1B11263  17.729  28.220   8.761
  678POPC   C2B11264  17.931  27.970   8.429
  678POPC   C3B11265  17.780  28.037   7.981
  678POPC   C4B11266  17.609  28.137   7.541
  679POPC   NC311267  25.030  29.771   9.361
  679POPC   PO411268  25.439  30.241   9.456
  679POPC   GL111269  25.471  30.028   9.029
  679POPC   GL211270  25.121  30.047   8.930
  679POPC   C1A11271  25.447  30.054   8.534
  679POPC   D2A11272  25.170  30.006   8.165
  679POPC   C3A11273  25.459  29.961   7.796
  679POPC   C4A11274  25.542  30.196   7.364
  679POPC   C1B11275  25.167  29.645   8.691
  679POPC   C2B11276  25.375  29.545   8.288
  679POPC   C3B11277  25.135  29.562   7.901
  679POPC   C4B11278  25.069  29.755   7.504
  680POPC   NC311279  36.779   8.715   9.718
  680POPC   PO411280  36.874   9.356   9.594
  680POPC   GL111281  37.133   9.111   9.272
  680POPC   GL211282  37.050   8.796   9.255
  680POPC   C1A11283  37.198   9.103   8.819
  680POPC   D2A11284  37.003   9.127   8.392
  680POPC   C3A11285  37.032   8.889   8.006
  680POPC   C4A11286  37.083   9.001   7.568
  680POPC   C1B11287  37.037   8.620   8.827
  680POPC   C2B11288  36.839   8.613   8.417
  680POPC   C3B11289  36.567   8.654   8.061
  680POPC   C4B11290  36.721   8.641   7.658
  681POPC   NC311291  33.493  30.869   9.672
  681POPC   PO411292  34.058  30.615   9.465
  681POPC   GL111293  33.803  30.873   9.221
  681POPC   GL211294  34.064  30.994   9.009
  681POPC   C1A11295  33.609  30.763   8.835
  681POPC   D2A11296  33.548  30.423   8.526
  681POPC   C3A11297  33.419  30.498   8.079
  681POPC   C4A11298  33.632  30.660   7.708
  681POPC   C1B11299  34.102  30.598   8.757
  681POPC   C2B11300  34.156  30.583   8.289
  681POPC   C3B11301  34.113  30.804   7.856
  681POPC   C4B11302  34.000  30.830   7.390
  682POPC   NC311303  32.781  22.786   9.598
  682POPC   PO411304  33.292  23.049   9.620
  682POPC   GL111305  33.057  23.064   9.207
  682POPC   GL211306  32.917  22.725   9.124
  682POPC   C1A11307  33.214  22.960   8.772
  682POPC   D2A11308  33.069  22.672   8.457
  682POPC   C3A11309  33.202  22.836   8.070
  682POPC   C4A11310  33.201  23.071   7.719
  682POPC   C1B11311  32.697  22.866   8.784
  682POPC   C2B11312  32.556  22.739   8.394
  682POPC   C3B11313  32.719  22.698   7.973
  682POPC   C4B11314  32.703  22.957   7.570
  683POPC   NC311315   3.805  15.610   9.727
  683POPC   PO411316   3.355  15.965   9.390
  683POPC   GL111317   3.421  15.866   9.022
  683POPC   GL211318   3.761  15.991   9.089
  683POPC   C1A11319   3.266  15.610   8.689
  683POPC   D2A11320   3.289  15.405   8.290
  683POPC   C3A11321   3.496  15.626   7.941
  683POPC   C4A11322   3.358  15.890   7.623
  683POPC   C1B11323   3.805  15.795   8.716
  683POPC   C2B11324   3.575  15.872   8.378
  683POPC   C3B11325   3.528  16.144   8.037
  683POPC   C4B11326   3.773  16.172   7.674
  684POPC   NC311327  19.186   2.301   9.533
  684POPC   PO411328  18.816   2.945   9.652
  684POPC   GL111329  18.995   2.798   9.241
  684POPC   GL211330  18.976   2.488   9.075
  684POPC   C1A11331  19.159   2.906   8.824
  684POPC   D2A11332  19.132   2.939   8.382
  684POPC   C3A11333  19.468   3.028   8.115
  684POPC   C4A11334  19.381   3.143   7.694
  684POPC   C1B11335  18.807   2.571   8.609
  684POPC   C2B11336  18.753   2.680   8.138
  684POPC   C3B11337  18.854   2.776   7.660
  684POPC   C4B11338  18.838   2.548   7.197
  685POPC   NC311339  10.139   0.404   9.503
  685POPC   PO411340  10.738   0.586   9.360
  685POPC   GL111341  10.520   0.363   9.085
  685POPC   GL211342  10.239   0.558   9.004
  685POPC   C1A11343  10.605   0.420   8.671
  685POPC   D2A11344  10.514   0.553   8.311
  685POPC   C3A11345  10.697   0.451   7.971
  685POPC   C4A11346  10.368   0.229   7.802
  685POPC   C1B11347  10.316   0.896   8.673
  685POPC   C2B11348  10.381   1.028   8.245
  685POPC   C3B11349  10.207   0.725   7.943
  685POPC   C4B11350  10.230   0.606   7.494
  686POPC   NC311351   4.469  32.343   9.569
  686POPC   PO411352   3.886  32.734   9.500
  686POPC   GL111353   4.235  32.558   9.210
  686POPC   GL211354   4.141  32.202   9.189
  686POPC   C1A11355   4.490  32.250   8.861
  686POPC   D2A11356   4.285  32.055   8.460
  686POPC   C3A11357   4.463  32.094   8.025
  686POPC   C4A11358   4.421  31.851   7.667
  686POPC   C1B11359   4.037  32.495   8.778
  686POPC   C2B11360   3.943  32.444   8.395
  686POPC   C3B11361   3.975  32.248   8.018
  686POPC   C4B11362   4.102  32.405   7.662
  687POPC   NC311363  27.063   3.556   9.623
  687POPC   PO411364  26.527   3.318   9.418
  687POPC   GL111365  26.791   3.571   9.177
  687POPC   GL211366  26.553   3.722   8.978
  687POPC   C1A11367  26.990   3.628   8.768
  687POPC   D2A11368  26.738   3.691   8.375
  687POPC   C3A11369  26.983   3.615   7.983
  687POPC   C4A11370  26.964   3.484   7.539
  687POPC   C1B11371  26.611   3.305   8.731
  687POPC   C2B11372  26.741   3.179   8.279
  687POPC   C3B11373  26.526   3.418   7.922
  687POPC   C4B11374  26.479   3.268   7.475
  688POPC   NC311375  42.845  14.689   9.483
  688POPC   PO411376  43.187  14.041   9.456
  688POPC   GL111377  43.135  14.069   9.039
  688POPC   GL211378  42.917  14.338   9.101
  688POPC   C1A11379  43.138  14.284   8.629
  688POPC   D2A11380  43.289  14.367   8.240
  688POPC   C3A11381  43.158  14.194   7.892
  688POPC   C4A11382  43.186  14.575   7.687
  688POPC   C1B11383  42.955  14.707   8.847
  688POPC   C2B11384  42.830  14.689   8.450
  688POPC   C3B11385  42.847  14.578   8.061
  688POPC   C4B11386  42.692  14.339   7.727
  689POPC   NC311387  14.610  42.020   9.425
  689POPC   PO411388  14.289  42.686   9.514
  689POPC   GL111389  14.253  42.369   9.185
  689POPC   GL211390  14.595  42.452   9.109
  689POPC   C1A11391  14.067  42.207   8.772
  689POPC   D2A11392  14.098  42.071   8.306
  689POPC   C3A11393  14.141  42.404   7.979
  689POPC   C4A11394  13.972  42.724   7.700
  689POPC   C1B11395  14.507  42.471   8.675
  689POPC   C2B11396  14.743  42.481   8.301
  689POPC   C3B11397  14.652  42.362   7.906
  689POPC   C4B11398  14.573  42.121   7.550
  690POPC   NC311399  41.085  29.388   9.387
  690POPC   PO411400  40.732  28.814   9.407
  690POPC   GL111401  40.914  28.958   9.066
  690POPC   GL211402  40.688  29.243   9.076
  690POPC   C1A11403  40.978  29.124   8.678
  690POPC   D2A11404  40.738  29.231   8.332
  690POPC   C3A11405  40.888  29.111   7.897
  690POPC   C4A11406  40.924  28.906   7.454
  690POPC   C1B11407  40.752  29.585   8.778
  690POPC   C2B11408  40.539  29.697   8.393
  690POPC   C3B11409  40.650  29.585   7.972
  690POPC   C4B11410  40.504  29.734   7.630
  691POPC   NC311411  34.687  37.317   9.473
  691POPC   PO411412  34.211  37.861   9.577
  691POPC   GL111413  34.465  37.716   9.198
  691POPC   GL211414  34.776  37.571   9.043
  691POPC   C1A11415  34.357  37.591   8.767
  691POPC   D2A11416  34.123  37.536   8.404
  691POPC   C3A11417  34.436  37.581   8.132
  691POPC   C4A11418  34.408  37.706   7.708
  691POPC   C1B11419  34.800  37.298   8.691
  691POPC   C2B11420  34.808  37.212   8.259
  691POPC   C3B11421  34.872  37.450   7.900
  691POPC   C4B11422  34.866  37.327   7.488
  692POPC   NC311423  28.992  34.717   9.614
  692POPC   PO411424  29.492  34.220   9.658
  692POPC   GL111425  29.299  34.502   9.280
  692POPC   GL211426  28.918  34.475   9.189
  692POPC   C1A11427  29.250  34.671   8.849
  692POPC   D2A11428  29.479  34.844   8.532
  692POPC   C3A11429  29.358  34.773   8.099
  692POPC   C4A11430  29.548  34.768   7.690
  692POPC   C1B11431  28.760  34.421   8.759
  692POPC   C2B11432  28.904  34.615   8.399
  692POPC   C3B11433  28.844  34.700   8.001
  692POPC   C4B11434  28.927  34.462   7.632
  693POPC   NC311435  30.512  34.346   9.346
  693POPC   PO411436  31.159  34.572   9.382
  693POPC   GL111437  30.899  34.503   9.022
  693POPC   GL211438  30.687  34.785   9.130
  693POPC   C1A11439  30.539  34.547   8.698
  693POPC   D2A11440  30.272  34.449   8.327
  693POPC   C3A11441  30.505  34.499   7.950
  693POPC   C4A11442  30.950  34.358   7.929
  693POPC   C1B11443  30.930  35.020   8.859
  693POPC   C2B11444  30.950  35.172   8.452
  693POPC   C3B11445  30.818  34.919   8.121
  693POPC   C4B11446  30.857  34.810   7.722
  694POPC   NC311447  38.849   3.710   9.490
  694POPC   PO411448  38.178   3.634   9.431
  694POPC   GL111449  38.292   3.820   9.036
  694POPC   GL211450  38.654   3.853   9.057
  694POPC   C1A11451  38.333   3.565   8.650
  694POPC   D2A11452  38.362   3.179   8.359
  694POPC   C3A11453  38.316   3.370   7.948
  694POPC   C4A11454  38.511   3.690   7.744
  694POPC   C1B11455  38.839   3.849   8.683
  694POPC   C2B11456  38.648   3.785   8.295
  694POPC   C3B11457  38.919   3.880   7.988
  694POPC   C4B11458  38.956   3.925   7.574
  695POPC   NC311459  29.547  18.267   9.239
  695POPC   PO411460  30.162  17.886   9.353
  695POPC   GL111461  30.052  18.218   9.037
  695POPC   GL211462  30.247  18.106   8.761
  695POPC   C1A11463  30.085  18.583   8.680
  695POPC   D2A11464  30.197  18.462   8.261
  695POPC   C3A11465  29.912  18.324   7.938
  695POPC   C4A11466  29.449  18.332   7.904
  695POPC   C1B11467  29.772  18.190   8.623
  695POPC   C2B11468  29.552  18.023   8.302
  695POPC   C3B11469  29.677  17.880   7.911
  695POPC   C4B11470  29.750  17.974   7.499
  696POPC   NC311471  29.521  25.994   9.357
  696POPC   PO411472  30.158  26.281   9.403
  696POPC   GL111473  30.048  26.006   9.069
  696POPC   GL211474  29.733  26.018   8.910
  696POPC   C1A11475  30.276  25.892   8.708
  696POPC   D2A11476  30.194  25.814   8.311
  696POPC   C3A11477  30.204  26.039   7.925
  696POPC   C4A11478  30.043  26.459   7.821
  696POPC   C1B11479  29.920  26.261   8.599
  696POPC   C2B11480  29.790  26.211   8.183
  696POPC   C3B11481  29.719  25.937   7.831
  696POPC   C4B11482  29.591  25.857   7.384
  697POPC   NC311483   1.829  17.496   9.469
  697POPC   PO411484   2.369  17.200   9.127
  697POPC   GL111485   2.046  17.395   8.905
  697POPC   GL211486   1.730  17.346   9.011
  697POPC   C1A11487   1.753  17.367   8.522
  697POPC   D2A11488   1.799  17.088   8.192
  697POPC   C3A11489   1.947  17.381   7.907
  697POPC   C4A11490   2.164  17.813   7.889
  697POPC   C1B11491   1.795  17.816   8.872
  697POPC   C2B11492   1.785  17.913   8.467
  697POPC   C3B11493   1.632  17.735   8.096
  697POPC   C4B11494   1.683  17.910   7.693
  698POPC   NC311495  22.922  30.016   9.928
  698POPC   PO411496  23.141  29.570   9.445
  698POPC   GL111497  22.849  29.698   9.163
  698POPC   GL211498  22.874  30.043   9.041
  698POPC   C1A11499  22.776  29.639   8.737
  698POPC   D2A11500  22.849  29.923   8.422
  698POPC   C3A11501  23.056  29.715   8.077
  698POPC   C4A11502  22.877  29.782   7.702
  698POPC   C1B11503  23.208  30.112   8.724
  698POPC   C2B11504  23.349  30.096   8.269
  698POPC   C3B11505  23.317  30.085   7.768
  698POPC   C4B11506  23.062  30.071   7.334
  699POPC   NC311507  20.991   5.807   9.570
  699POPC   PO411508  21.531   6.226   9.639
  699POPC   GL111509  21.591   5.961   9.249
  699POPC   GL211510  21.280   5.796   9.151
  699POPC   C1A11511  21.662   5.765   8.819
  699POPC   D2A11512  21.555   5.971   8.425
  699POPC   C3A11513  21.574   5.810   8.009
  699POPC   C4A11514  21.874   5.934   7.630
  699POPC   C1B11515  21.089   5.964   8.773
  699POPC   C2B11516  21.073   5.815   8.356
  699POPC   C3B11517  21.061   5.938   7.958
  699POPC   C4B11518  20.960   6.280   7.697
  700POPC   NC311519   6.017  38.677   9.816
  700POPC   PO411520   5.915  39.295   9.689
  700POPC   GL111521   5.876  39.355   9.218
  700POPC   GL211522   6.043  39.032   9.169
  700POPC   C1A11523   5.655  39.431   8.818
  700POPC   D2A11524   5.875  39.308   8.424
  700POPC   C3A11525   6.040  39.607   8.145
  700POPC   C4A11526   5.959  39.664   7.737
  700POPC   C1B11527   5.763  38.959   8.806
  700POPC   C2B11528   5.732  38.824   8.391
  700POPC   C3B11529   5.779  39.036   7.953
  700POPC   C4B11530   5.893  39.177   7.499
  701POPC   NC311531   0.815  34.597   9.419
  701POPC   PO411532   1.375  34.905   9.598
  701POPC   GL111533   1.240  34.846   9.156
  701POPC   GL211534   1.438  34.625   8.928
  701POPC   C1A11535   0.952  34.746   8.785
  701POPC   D2A11536   0.828  34.675   8.360
  701POPC   C3A11537   1.114  34.688   8.049
  701POPC   C4A11538   0.989  34.369   7.817
  701POPC   C1B11539   1.373  34.579   8.493
  701POPC   C2B11540   1.528  34.328   8.168
  701POPC   C3B11541   1.478  34.442   7.776
  701POPC   C4B11542   1.440  34.819   7.652
  702POPC   NC311543  11.128  30.943   9.484
  702POPC   PO411544  10.833  30.295   9.481
  702POPC   GL111545  11.031  30.513   9.172
  702POPC   GL211546  11.370  30.358   9.145
  702POPC   C1A11547  11.156  30.786   8.818
  702POPC   D2A11548  11.418  30.820   8.439
  702POPC   C3A11549  11.266  30.721   7.994
  702POPC   C4A11550  10.950  30.923   7.758
  702POPC   C1B11551  11.187  30.278   8.738
  702POPC   C2B11552  11.315  30.333   8.304
  702POPC   C3B11553  11.438  30.217   7.880
  702POPC   C4B11554  11.364  30.369   7.453
  703POPC   NC311555  36.466   0.961   9.470
  703POPC   PO411556  35.852   0.990   9.757
  703POPC   GL111557  35.979   0.860   9.268
  703POPC   GL211558  36.281   0.903   9.016
  703POPC   C1A11559  35.817   0.957   8.821
  703POPC   D2A11560  35.977   0.799   8.405
  703POPC   C3A11561  35.838   0.969   7.977
  703POPC   C4A11562  35.909   1.394   7.781
  703POPC   C1B11563  36.662   1.046   8.753
  703POPC   C2B11564  36.641   1.077   8.299
  703POPC   C3B11565  36.473   1.095   7.846
  703POPC   C4B11566  36.579   1.086   7.371
  704POPC   NC311567   3.061  29.660   9.362
  704POPC   PO411568   2.769  29.072   9.579
  704POPC   GL111569   2.796  29.248   9.176
  704POPC   GL211570   3.018  28.998   9.077
  704POPC   C1A11571   2.885  29.423   8.745
  704POPC   D2A11572   2.900  29.193   8.326
  704POPC   C3A11573   2.618  29.281   7.956
  704POPC   C4A11574   2.507  29.663   7.755
  704POPC   C1B11575   2.687  28.961   8.756
  704POPC   C2B11576   2.448  28.944   8.378
  704POPC   C3B11577   2.741  28.778   8.087
  704POPC   C4B11578   3.035  29.033   7.839
  705POPC   NC311579  31.183  23.032   9.664
  705POPC   PO411580  31.749  22.680   9.525
  705POPC   GL111581  31.522  23.009   9.265
  705POPC   GL211582  31.140  22.926   9.183
  705POPC   C1A11583  31.505  23.105   8.804
  705POPC   D2A11584  31.507  22.703   8.543
  705POPC   C3A11585  31.700  22.624   8.142
  705POPC   C4A11586  31.737  22.710   7.706
  705POPC   C1B11587  31.054  22.823   8.784
  705POPC   C2B11588  31.113  23.035   8.391
  705POPC   C3B11589  31.023  23.024   7.942
  705POPC   C4B11590  31.334  23.018   7.617
  706POPC   NC311591  32.464   8.814   9.461
  706POPC   PO411592  31.815   9.161   9.501
  706POPC   GL111593  32.075   8.954   9.142
  706POPC   GL211594  32.399   9.116   9.051
  706POPC   C1A11595  32.142   8.792   8.708
  706POPC   D2A11596  31.929   8.846   8.318
  706POPC   C3A11597  32.073   8.885   7.890
  706POPC   C4A11598  32.282   9.244   7.701
  706POPC   C1B11599  32.632   8.876   8.767
  706POPC   C2B11600  32.639   8.685   8.381
  706POPC   C3B11601  32.570   8.848   7.991
  706POPC   C4B11602  32.517   8.815   7.573
  707POPC   NC311603  20.418  20.472   9.811
  707POPC   PO411604  21.049  20.238   9.620
  707POPC   GL111605  20.975  20.501   9.250
  707POPC   GL211606  20.608  20.588   9.272
  707POPC   C1A11607  20.871  20.622   8.816
  707POPC   D2A11608  20.541  20.665   8.483
  707POPC   C3A11609  20.681  20.536   8.097
  707POPC   C4A11610  20.949  20.671   7.764
  707POPC   C1B11611  20.437  20.346   8.896
  707POPC   C2B11612  20.551  20.141   8.503
  707POPC   C3B11613  20.305  20.180   8.142
  707POPC   C4B11614  20.227  20.323   7.737
  708POPC   NC311615   1.586  28.647   9.484
  708POPC   PO411616   0.963  28.298   9.545
  708POPC   GL111617   1.165  28.306   9.132
  708POPC   GL211618   1.421  28.489   9.044
  708POPC   C1A11619   1.278  28.169   8.692
  708POPC   D2A11620   1.123  28.403   8.323
  708POPC   C3A11621   1.222  28.193   7.959
  708POPC   C4A11622   1.433  28.028   7.668
  708POPC   C1B11623   1.360  28.694   8.682
  708POPC   C2B11624   1.548  28.763   8.298
  708POPC   C3B11625   1.345  28.712   7.934
  708POPC   C4B11626   1.435  28.512   7.548
  709POPC   NC311627  43.729  16.763   9.543
  709POPC   PO411628  44.379  16.603   9.535
  709POPC   GL111629  44.224  16.571   9.109
  709POPC   GL211630  43.855  16.540   9.099
  709POPC   C1A11631  44.243  16.840   8.725
  709POPC   D2A11632  44.071  16.906   8.295
  709POPC   C3A11633  44.032  16.549   7.988
  709POPC   C4A11634  43.874  16.544   7.555
  709POPC   C1B11635  43.738  16.698   8.686
  709POPC   C2B11636  43.570  16.795   8.269
  709POPC   C3B11637  43.683  16.932   7.859
  709POPC   C4B11638  43.772  17.184   7.477
  710POPC   NC311639   8.942  29.689   9.553
  710POPC   PO411640   8.838  30.355   9.496
  710POPC   GL111641   8.876  30.073   9.169
  710POPC   GL211642   9.227  29.975   9.156
  710POPC   C1A11643   8.926  30.037   8.738
  710POPC   D2A11644   8.859  29.785   8.402
  710POPC   C3A11645   8.977  29.919   8.054
  710POPC   C4A11646   8.766  29.966   7.665
  710POPC   C1B11647   9.365  29.734   8.770
  710POPC   C2B11648   9.398  29.708   8.352
  710POPC   C3B11649   9.328  29.537   7.986
  710POPC   C4B11650   9.233  29.791   7.645
  711POPC   NC311651   1.486  41.148   9.374
  711POPC   PO411652   1.330  40.518   9.588
  711POPC   GL111653   1.250  40.700   9.187
  711POPC   GL211654   1.057  40.430   9.158
  711POPC   C1A11655   1.088  40.913   8.798
  711POPC   D2A11656   1.340  41.061   8.435
  711POPC   C3A11657   1.265  41.050   7.993
  711POPC   C4A11658   1.519  40.727   7.823
  711POPC   C1B11659   0.779  40.479   8.852
  711POPC   C2B11660   0.802  40.602   8.470
  711POPC   C3B11661   1.029  40.615   8.141
  711POPC   C4B11662   1.025  40.671   7.724
  712POPC   NC311663  20.963  33.481   9.367
  712POPC   PO411664  20.485  33.981   9.480
  712POPC   GL111665  20.541  33.726   9.120
  712POPC   GL211666  20.478  33.354   9.131
  712POPC   C1A11667  20.800  33.887   8.801
  712POPC   D2A11668  20.759  34.090   8.401
  712POPC   C3A11669  20.584  33.834   8.084
  712POPC   C4A11670  20.785  34.000   7.749
  712POPC   C1B11671  20.802  33.338   8.777
  712POPC   C2B11672  20.915  33.572   8.426
  712POPC   C3B11673  20.975  33.503   8.037
  712POPC   C4B11674  20.871  33.496   7.635
  713POPC   NC311675   4.082  40.323   9.485
  713POPC   PO411676   4.496  39.800   9.491
  713POPC   GL111677   4.231  39.927   9.196
  713POPC   GL211678   4.421  40.216   9.112
  713POPC   C1A11679   4.242  39.849   8.780
  713POPC   D2A11680   4.164  39.732   8.382
  713POPC   C3A11681   4.458  39.761   8.062
  713POPC   C4A11682   4.174  39.819   7.751
  713POPC   C1B11683   4.099  40.339   8.821
  713POPC   C2B11684   4.070  40.227   8.411
  713POPC   C3B11685   4.171  40.320   8.018
  713POPC   C4B11686   4.387  40.298   7.680
  714POPC   NC311687   4.118  12.416   9.495
  714POPC   PO411688   4.230  13.067   9.291
  714POPC   GL111689   4.450  12.881   8.990
  714POPC   GL211690   4.529  12.570   9.193
  714POPC   C1A11691   4.403  12.857   8.547
  714POPC   D2A11692   4.447  13.006   8.127
  714POPC   C3A11693   4.146  13.194   7.872
  714POPC   C4A11694   4.198  13.204   7.405
  714POPC   C1B11695   4.563  12.404   8.772
  714POPC   C2B11696   4.444  12.380   8.354
  714POPC   C3B11697   4.555  12.527   7.949
  714POPC   C4B11698   4.283  12.762   7.663
  715POPC   NC311699  32.810   2.818   9.501
  715POPC   PO411700  33.421   2.749   9.664
  715POPC   GL111701  33.211   2.776   9.174
  715POPC   GL211702  32.917   2.597   9.045
  715POPC   C1A11703  33.011   3.051   8.811
  715POPC   D2A11704  33.181   3.097   8.394
  715POPC   C3A11705  32.935   2.981   8.012
  715POPC   C4A11706  32.759   2.600   7.795
  715POPC   C1B11707  33.180   2.599   8.660
  715POPC   C2B11708  33.093   2.558   8.228
  715POPC   C3B11709  33.273   2.532   7.844
  715POPC   C4B11710  33.551   2.228   7.629
  716POPC   NC311711  44.445   1.708   9.559
  716POPC   PO411712  44.956   1.243   9.458
  716POPC   GL111713  44.807   1.118   9.066
  716POPC   GL211714  44.473   1.274   9.081
  716POPC   C1A11715   0.007   1.142   8.671
  716POPC   D2A11716   0.017   1.356   8.292
  716POPC   C3A11717  44.918   1.066   7.946
  716POPC   C4A11718  44.794   1.177   7.534
  716POPC   C1B11719  44.250   1.455   8.718
  716POPC   C2B11720  44.039   1.499   8.337
  716POPC   C3B11721  44.198   1.510   7.948
  716POPC   C4B11722  44.124   1.273   7.588
  717POPC   NC311723  40.503   7.361   9.565
  717POPC   PO411724  41.015   6.992   9.526
  717POPC   GL111725  40.974   7.134   9.104
  717POPC   GL211726  40.826   7.450   9.116
  717POPC   C1A11727  40.822   7.162   8.685
  717POPC   D2A11728  40.891   7.400   8.322
  717POPC   C3A11729  40.970   7.195   7.958
  717POPC   C4A11730  40.816   7.339   7.589
  717POPC   C1B11731  41.085   7.629   8.735
  717POPC   C2B11732  41.055   7.878   8.287
  717POPC   C3B11733  40.930   7.800   7.864
  717POPC   C4B11734  41.072   7.740   7.439
  718POPC   NC311735  11.109  33.439   9.683
  718POPC   PO411736  11.656  33.089   9.556
  718POPC   GL111737  11.346  33.072   9.213
  718POPC   GL211738  11.121  32.836   9.152
  718POPC   C1A11739  11.256  33.197   8.782
  718POPC   D2A11740  11.474  33.019   8.463
  718POPC   C3A11741  11.365  32.987   8.078
  718POPC   C4A11742  11.108  33.090   7.774
  718POPC   C1B11743  10.866  32.849   8.769
  718POPC   C2B11744  10.937  33.051   8.368
  718POPC   C3B11745  10.848  32.757   8.050
  718POPC   C4B11746  10.989  32.447   7.788
  719POPC   NC311747  18.870  36.409   9.306
  719POPC   PO411748  19.383  36.027   9.488
  719POPC   GL111749  19.183  36.022   9.134
  719POPC   GL211750  19.358  36.285   8.995
  719POPC   C1A11751  19.091  35.927   8.721
  719POPC   D2A11752  19.243  36.095   8.353
  719POPC   C3A11753  18.987  35.916   8.083
  719POPC   C4A11754  19.031  35.790   7.720
  719POPC   C1B11755  19.020  36.436   8.694
  719POPC   C2B11756  18.751  36.285   8.355
  719POPC   C3B11757  18.995  36.443   8.011
  719POPC   C4B11758  19.310  36.254   7.791
  720POPC   NC311759  36.164  19.197   9.567
  720POPC   PO411760  36.273  18.518   9.456
  720POPC   GL111761  36.079  18.788   9.132
  720POPC   GL211762  36.231  19.125   9.068
  720POPC   C1A11763  35.882  18.896   8.763
  720POPC   D2A11764  35.871  18.815   8.349
  720POPC   C3A11765  36.256  18.934   8.181
  720POPC   C4A11766  36.141  18.879   7.808
  720POPC   C1B11767  36.461  19.423   8.799
  720POPC   C2B11768  36.536  19.376   8.357
  720POPC   C3B11769  36.393  19.364   7.937
  720POPC   C4B11770  36.139  19.476   7.605
  721POPC   NC311771  32.118  37.380   9.620
  721POPC   PO411772  32.467  37.891   9.563
  721POPC   GL111773  32.287  37.706   9.226
  721POPC   GL211774  32.127  37.999   9.125
  721POPC   C1A11775  32.125  37.523   8.881
  721POPC   D2A11776  32.261  37.536   8.484
  721POPC   C3A11777  32.076  37.509   8.104
  721POPC   C4A11778  32.224  37.507   7.697
  721POPC   C1B11779  31.975  37.990   8.710
  721POPC   C2B11780  31.779  37.867   8.344
  721POPC   C3B11781  31.889  37.990   7.931
  721POPC   C4B11782  31.920  37.910   7.499
  722POPC   NC311783  37.127  37.653   9.422
  722POPC   PO411784  36.555  38.096   9.339
  722POPC   GL111785  36.751  37.742   9.064
  722POPC   GL211786  37.117  37.702   8.931
  722POPC   C1A11787  36.648  37.715   8.623
  722POPC   D2A11788  36.580  37.870   8.216
  722POPC   C3A11789  36.753  37.662   7.862
  722POPC   C4A11790  36.890  37.887   7.517
  722POPC   C1B11791  37.090  37.445   8.602
  722POPC   C2B11792  37.035  37.618   8.273
  722POPC   C3B11793  37.225  37.773   7.938
  722POPC   C4B11794  37.199  37.423   7.678
  723POPC   NC311795  41.671  20.107   9.575
  723POPC   PO411796  41.365  19.536   9.522
  723POPC   GL111797  41.372  19.863   9.215
  723POPC   GL211798  41.701  19.763   9.181
  723POPC   C1A11799  41.439  20.029   8.790
  723POPC   D2A11800  41.491  19.856   8.369
  723POPC   C3A11801  41.428  20.093   8.012
  723POPC   C4A11802  41.581  19.956   7.652
  723POPC   C1B11803  41.930  19.597   8.858
  723POPC   C2B11804  41.886  19.504   8.401
  723POPC   C3B11805  41.788  19.616   7.982
  723POPC   C4B11806  41.959  19.637   7.538
  724POPC   NC311807  44.826  32.585   9.428
  724POPC   PO411808  44.564  33.255   9.504
  724POPC   GL111809  44.629  32.998   9.182
  724POPC   GL211810   0.012  32.958   9.155
  724POPC   C1A11811  44.612  33.030   8.735
  724POPC   D2A11812  44.456  32.873   8.337
  724POPC   C3A11813  44.464  33.220   8.028
  724POPC   C4A11814  44.501  33.437   7.609
  724POPC   C1B11815   0.107  32.772   8.777
  724POPC   C2B11816  44.969  32.897   8.380
  724POPC   C3B11817  44.997  33.198   8.067
  724POPC   C4B11818  44.848  33.071   7.666
  725POPC   NC311819  42.607   5.464   9.539
  725POPC   PO411820  42.372   6.132   9.461
  725POPC   GL111821  42.360   5.783   9.156
  725POPC   GL211822  42.657   5.640   9.064
  725POPC   C1A11823  42.313   5.838   8.702
  725POPC   D2A11824  42.210   5.946   8.274
  725POPC   C3A11825  42.477   6.003   7.919
  725POPC   C4A11826  42.362   6.032   7.484
  725POPC   C1B11827  42.644   5.444   8.684
  725POPC   C2B11828  42.667   5.643   8.299
  725POPC   C3B11829  42.831   5.570   7.910
  725POPC   C4B11830  42.559   5.584   7.586
  726POPC   NC311831  21.856  13.417   9.429
  726POPC   PO411832  22.277  13.896   9.326
  726POPC   GL111833  22.257  13.608   9.043
  726POPC   GL211834  21.942  13.552   8.958
  726POPC   C1A11835  22.275  13.760   8.612
  726POPC   D2A11836  22.515  13.831   8.233
  726POPC   C3A11837  22.226  13.680   7.926
  726POPC   C4A11838  22.203  13.320   7.654
  726POPC   C1B11839  21.751  13.564   8.549
  726POPC   C2B11840  21.729  13.608   8.120
  726POPC   C3B11841  21.722  13.495   7.702
  726POPC   C4B11842  21.813  13.704   7.335
  727POPC   NC311843  30.586  22.053   9.786
  727POPC   PO411844  30.994  22.550   9.560
  727POPC   GL111845  30.795  22.371   9.196
  727POPC   GL211846  30.610  22.061   9.249
  727POPC   C1A11847  30.762  22.304   8.769
  727POPC   D2A11848  30.646  22.178   8.374
  727POPC   C3A11849  30.904  22.154   8.013
  727POPC   C4A11850  30.641  22.178   7.668
  727POPC   C1B11851  30.353  22.019   8.868
  727POPC   C2B11852  30.179  21.997   8.457
  727POPC   C3B11853  30.303  21.944   8.043
  727POPC   C4B11854  30.112  21.992   7.619
  728POPC   NC311855  16.467   7.637  10.035
  728POPC   PO411856  16.775   7.125   9.731
  728POPC   GL111857  16.828   7.182   9.228
  728POPC   GL211858  16.772   7.504   9.027
  728POPC   C1A11859  16.728   7.074   8.801
  728POPC   D2A11860  16.694   7.357   8.469
  728POPC   C3A11861  16.758   7.230   8.067
  728POPC   C4A11862  16.897   7.362   7.710
  728POPC   C1B11863  16.447   7.679   8.779
  728POPC   C2B11864  16.345   7.729   8.335
  728POPC   C3B11865  16.648   7.741   7.994
  728POPC   C4B11866  17.062   7.898   7.865
  729POPC   NC311867  19.973   2.897   9.327
  729POPC   PO411868  19.498   2.513   9.268
  729POPC   GL111869  19.671   2.749   8.936
  729POPC   GL211870  19.988   2.531   8.921
  729POPC   C1A11871  19.842   2.782   8.510
  729POPC   D2A11872  20.061   2.399   8.389
  729POPC   C3A11873  20.091   2.489   7.989
  729POPC   C4A11874  19.946   2.938   7.931
  729POPC   C1B11875  19.621   2.328   8.648
  729POPC   C2B11876  19.272   2.458   8.417
  729POPC   C3B11877  19.242   2.569   7.990
  729POPC   C4B11878  19.634   2.574   7.777
  730POPC   NC311879  38.992   7.536   9.280
  730POPC   PO411880  38.407   7.306   9.611
  730POPC   GL111881  38.331   7.379   9.161
  730POPC   GL211882  38.618   7.480   8.942
  730POPC   C1A11883  38.143   7.658   8.869
  730POPC   D2A11884  38.359   7.584   8.491
  730POPC   C3A11885  38.148   7.629   8.120
  730POPC   C4A11886  38.267   7.607   7.700
  730POPC   C1B11887  38.922   7.225   8.706
  730POPC   C2B11888  38.823   7.160   8.296
  730POPC   C3B11889  38.616   7.430   8.046
  730POPC   C4B11890  38.484   7.148   7.776
  731POPC   NC311891  41.037  32.496   9.297
  731POPC   PO411892  40.677  32.557   9.850
  731POPC   GL111893  40.571  32.327   9.345
  731POPC   GL211894  40.757  32.021   9.216
  731POPC   C1A11895  40.541  32.324   8.876
  731POPC   D2A11896  40.557  32.311   8.450
  731POPC   C3A11897  40.683  32.565   8.114
  731POPC   C4A11898  40.606  32.255   7.823
  731POPC   C1B11899  40.980  31.967   8.826
  731POPC   C2B11900  41.032  32.114   8.410
  731POPC   C3B11901  40.933  31.915   8.021
  731POPC   C4B11902  40.922  31.974   7.554
  732POPC   NC311903  24.385  32.035   9.535
  732POPC   PO411904  24.844  32.524   9.594
  732POPC   GL111905  24.681  32.417   9.141
  732POPC   GL211906  24.394  32.185   9.056
  732POPC   C1A11907  24.736  32.218   8.686
  732POPC   D2A11908  24.548  32.399   8.310
  732POPC   C3A11909  24.516  32.198   7.951
  732POPC   C4A11910  24.795  32.244   7.610
  732POPC   C1B11911  24.200  32.251   8.674
  732POPC   C2B11912  24.035  32.347   8.261
  732POPC   C3B11913  24.224  32.612   7.957
  732POPC   C4B11914  24.386  32.549   7.570
  733POPC   NC311915  33.425  35.221   9.485
  733POPC   PO411916  32.814  35.426   9.605
  733POPC   GL111917  32.980  35.307   9.156
  733POPC   GL211918  33.288  35.457   9.065
  733POPC   C1A11919  33.042  35.241   8.666
  733POPC   D2A11920  33.117  35.477   8.259
  733POPC   C3A11921  33.228  35.291   7.859
  733POPC   C4A11922  33.034  35.247   7.445
  733POPC   C1B11923  33.267  35.731   8.695
  733POPC   C2B11924  33.484  35.843   8.313
  733POPC   C3B11925  33.343  35.804   7.896
  733POPC   C4B11926  33.341  35.642   7.457
  734POPC   NC311927   8.228  40.523   9.515
  734POPC   PO411928   8.705  40.967   9.286
  734POPC   GL111929   8.352  40.909   9.093
  734POPC   GL211930   8.334  40.602   9.029
  734POPC   C1A11931   8.316  41.026   8.680
  734POPC   D2A11932   8.460  40.972   8.266
  734POPC   C3A11933   8.182  40.790   7.911
  734POPC   C4A11934   8.325  40.865   7.483
  734POPC   C1B11935   8.093  40.565   8.693
  734POPC   C2B11936   8.270  40.490   8.322
  734POPC   C3B11937   8.420  40.356   7.918
  734POPC   C4B11938   8.258  40.371   7.512
  735POPC   NC311939  18.834  39.649   9.457
  735POPC   PO411940  18.091  39.717   9.435
  735POPC   GL111941  18.256  40.022   9.112
  735POPC   GL211942  18.600  40.097   9.166
  735POPC   C1A11943  18.244  40.014   8.652
  735POPC   D2A11944  18.033  39.668   8.462
  735POPC   C3A11945  18.132  39.643   8.051
  735POPC   C4A11946  18.083  39.843   7.689
  735POPC   C1B11947  18.704  39.863   8.826
  735POPC   C2B11948  18.763  39.961   8.408
  735POPC   C3B11949  18.495  40.011   8.048
  735POPC   C4B11950  18.552  40.008   7.584
  736POPC   NC311951  41.817  39.534   9.621
  736POPC   PO411952  41.425  39.010   9.619
  736POPC   GL111953  41.547  39.195   9.189
  736POPC   GL211954  41.646  39.547   9.153
  736POPC   C1A11955  41.653  39.251   8.721
  736POPC   D2A11956  41.409  39.212   8.334
  736POPC   C3A11957  41.657  39.159   7.926
  736POPC   C4A11958  41.560  38.951   7.505
  736POPC   C1B11959  41.290  39.591   8.846
  736POPC   C2B11960  41.213  39.699   8.407
  736POPC   C3B11961  41.357  39.585   8.010
  736POPC   C4B11962  41.293  39.375   7.679
  737POPC   NC311963  41.279  43.195   9.801
  737POPC   PO411964  41.942  43.081   9.525
  737POPC   GL111965  41.720  43.163   9.137
  737POPC   GL211966  41.420  43.289   9.300
  737POPC   C1A11967  41.610  42.914   8.726
  737POPC   D2A11968  41.282  42.738   8.413
  737POPC   C3A11969  41.435  42.881   8.026
  737POPC   C4A11970  41.799  43.180   7.955
  737POPC   C1B11971  41.316  43.429   8.881
  737POPC   C2B11972  41.348  43.263   8.457
  737POPC   C3B11973  41.386  43.432   8.085
  737POPC   C4B11974  41.355  43.261   7.711
  738POPC   NC311975  24.081   9.805   9.794
  738POPC   PO411976  24.655   9.788   9.453
  738POPC   GL111977  24.570   9.974   9.114
  738POPC   GL211978  24.249   9.987   9.005
  738POPC   C1A11979  24.646   9.707   8.750
  738POPC   D2A11980  24.509   9.471   8.392
  738POPC   C3A11981  24.644   9.772   8.102
  738POPC   C4A11982  24.467   9.878   7.715
  738POPC   C1B11983  24.111   9.775   8.664
  738POPC   C2B11984  24.144   9.779   8.242
  738POPC   C3B11985  24.235   9.496   7.935
  738POPC   C4B11986  24.071   9.590   7.555
  739POPC   NC311987   5.386  41.693   9.383
  739POPC   PO411988   4.901  41.271   9.629
  739POPC   GL111989   4.938  41.473   9.174
  739POPC   GL211990   5.201  41.679   8.934
  739POPC   C1A11991   4.831  41.444   8.717
  739POPC   D2A11992   4.674  41.554   8.338
  739POPC   C3A11993   4.928  41.464   8.007
  739POPC   C4A11994   4.785  41.467   7.596
  739POPC   C1B11995   5.603  41.834   8.730
  739POPC   C2B11996   5.689  41.717   8.301
  739POPC   C3B11997   5.372  41.762   7.963
  739POPC   C4B11998   5.422  41.867   7.535
  740POPC   NC311999  22.303  39.226   9.489
  740POPC   PO412000  21.617  39.392   9.582
  740POPC   GL112001  21.821  39.231   9.162
  740POPC   GL212002  22.187  39.094   9.025
  740POPC   C1A12003  21.868  39.338   8.702
  740POPC   D2A12004  22.158  39.149   8.413
  740POPC   C3A12005  22.302  39.329   8.016
  740POPC   C4A12006  22.463  39.581   7.666
  740POPC   C1B12007  21.915  38.832   8.789
  740POPC   C2B12008  21.739  38.839   8.374
  740POPC   C3B12009  21.970  38.911   7.962
  740POPC   C4B12010  22.339  38.954   7.661
  741POPC   NC312011  37.646   0.817   9.383
  741POPC   PO412012  37.404   1.368   9.632
  741POPC   GL112013  37.514   1.478   9.168
  741POPC   GL212014  37.738   1.252   9.143
  741POPC   C1A12015  37.783   1.528   8.736
  741POPC   D2A12016  37.548   1.385   8.368
  741POPC   C3A12017  37.679   1.347   7.944
  741POPC   C4A12018  37.455   1.199   7.560
  741POPC   C1B12019  37.790   1.009   8.746
  741POPC   C2B12020  37.881   0.959   8.302
  741POPC   C3B12021  37.681   0.834   7.921
  741POPC   C4B12022  37.796   0.857   7.444
  742POPC   NC312023  24.325  37.483   9.374
  742POPC   PO412024  23.782  37.861   9.595
  742POPC   GL112025  23.542  37.767   9.225
  742POPC   GL212026  23.869  37.695   9.104
  742POPC   C1A12027  23.391  37.587   8.840
  742POPC   D2A12028  23.409  37.743   8.419
  742POPC   C3A12029  23.696  37.644   8.079
  742POPC   C4A12030  23.727  37.859   7.664
  742POPC   C1B12031  23.874  37.564   8.679
  742POPC   C2B12032  24.169  37.416   8.397
  742POPC   C3B12033  24.196  37.516   7.984
  742POPC   C4B12034  23.934  37.364   7.688
  743POPC   NC312035  43.703  25.736   9.715
  743POPC   PO412036  43.949  26.366   9.630
  743POPC   GL112037  43.825  26.239   9.189
  743POPC   GL212038  43.909  25.877   9.193
  743POPC   C1A12039  43.686  26.135   8.763
  743POPC   D2A12040  43.580  26.168   8.337
  743POPC   C3A12041  43.876  26.351   8.066
  743POPC   C4A12042  43.775  26.281   7.661
  743POPC   C1B12043  43.904  25.682   8.771
  743POPC   C2B12044  43.862  25.743   8.349
  743POPC   C3B12045  43.722  25.851   7.951
  743POPC   C4B12046  44.114  25.913   7.736
  744POPC   NC312047  29.871  25.071   9.521
  744POPC   PO412048  29.715  25.704   9.655
  744POPC   GL112049  29.789  25.549   9.192
  744POPC   GL212050  29.920  25.182   9.038
  744POPC   C1A12051  29.897  25.566   8.730
  744POPC   D2A12052  30.087  25.314   8.383
  744POPC   C3A12053  30.029  25.509   7.963
  744POPC   C4A12054  29.693  25.446   7.704
  744POPC   C1B12055  30.111  24.852   8.754
  744POPC   C2B12056  30.228  24.817   8.296
  744POPC   C3B12057  29.965  25.007   7.944
  744POPC   C4B12058  30.138  25.213   7.552
  745POPC   NC312059   9.288  21.704   9.447
  745POPC   PO412060   8.891  21.172   9.541
  745POPC   GL112061   8.931  21.437   9.160
  745POPC   GL212062   8.772  21.760   9.006
  745POPC   C1A12063   9.187  21.442   8.817
  745POPC   D2A12064   9.211  21.209   8.442
  745POPC   C3A12065   9.175  21.372   8.042
  745POPC   C4A12066   9.032  21.431   7.622
  745POPC   C1B12067   8.717  21.504   8.617
  745POPC   C2B12068   8.722  21.212   8.263
  745POPC   C3B12069   8.603  21.288   7.833
  745POPC   C4B12070   8.571  21.589   7.457
  746POPC   NC312071  10.924   1.015   9.441
  746POPC   PO412072  10.241   1.254   9.456
  746POPC   GL112073  10.544   1.328   9.152
  746POPC   GL212074  10.569   0.984   9.086
  746POPC   C1A12075  10.520   1.372   8.699
  746POPC   D2A12076  10.321   1.566   8.318
  746POPC   C3A12077  10.513   1.399   7.920
  746POPC   C4A12078  10.279   1.252   7.545
  746POPC   C1B12079  10.852   0.979   8.752
  746POPC   C2B12080  10.963   0.760   8.403
  746POPC   C3B12081  10.867   0.973   8.032
  746POPC   C4B12082  10.590   0.920   7.724
  747POPC   NC312083  11.165  29.945   9.443
  747POPC   PO412084  11.749  29.954   9.128
  747POPC   GL112085  11.403  29.869   8.958
  747POPC   GL212086  11.190  29.602   9.072
  747POPC   C1A12087  11.491  29.926   8.525
  747POPC   D2A12088  11.134  29.844   8.291
  747POPC   C3A12089  10.976  30.000   7.936
  747POPC   C4A12090  11.097  29.930   7.531
  747POPC   C1B12091  11.317  29.470   8.648
  747POPC   C2B12092  11.523  29.526   8.210
  747POPC   C3B12093  11.516  29.693   7.789
  747POPC   C4B12094  11.312  29.476   7.438
  748POPC   NC312095   7.302  33.230   9.321
  748POPC   PO412096   7.742  32.676   9.315
  748POPC   GL112097   7.710  33.076   9.094
  748POPC   GL212098   7.448  32.916   8.930
  748POPC   C1A12099   7.718  33.380   8.737
  748POPC   D2A12100   7.890  33.396   8.309
  748POPC   C3A12101   7.631  33.213   7.944
  748POPC   C4A12102   7.404  32.789   7.907
  748POPC   C1B12103   7.406  33.000   8.504
  748POPC   C2B12104   7.360  33.375   8.339
  748POPC   C3B12105   7.166  33.530   7.994
  748POPC   C4B12106   7.040  33.177   7.817
  749POPC   NC312107   1.526   9.228   9.445
  749POPC   PO412108   0.944   8.872   9.389
  749POPC   GL112109   1.047   8.712   9.001
  749POPC   GL212110   1.420   8.595   9.067
  749POPC   C1A12111   0.909   8.903   8.604
  749POPC   D2A12112   1.116   8.877   8.210
  749POPC   C3A12113   0.949   8.926   7.805
  749POPC   C4A12114   1.181   9.018   7.434
  749POPC   C1B12115   1.429   8.824   8.649
  749POPC   C2B12116   1.517   9.189   8.333
  749POPC   C3B12117   1.448   9.125   7.868
  749POPC   C4B12118   1.382   8.670   7.778
  750POPC   NC312119   9.355  11.165   9.567
  750POPC   PO412120   8.789  11.524   9.610
  750POPC   GL112121   8.680  11.444   9.165
  750POPC   GL212122   8.802  11.103   9.084
  750POPC   C1A12123   8.877  11.503   8.745
  750POPC   D2A12124   9.186  11.630   8.418
  750POPC   C3A12125   9.172  11.487   7.992
  750POPC   C4A12126   8.813  11.567   7.742
  750POPC   C1B12127   9.055  11.018   8.697
  750POPC   C2B12128   9.268  11.103   8.320
  750POPC   C3B12129   9.220  10.945   7.933
  750POPC   C4B12130   9.010  11.106   7.632
  751POPC   NC312131  31.497  12.208   9.466
  751POPC   PO412132  30.899  12.041   9.679
  751POPC   GL112133  31.169  11.880   9.256
  751POPC   GL212134  31.517  11.916   9.063
  751POPC   C1A12135  31.161  12.116   8.808
  751POPC   D2A12136  31.261  11.856   8.435
  751POPC   C3A12137  31.413  12.006   8.027
  751POPC   C4A12138  31.154  12.178   7.728
  751POPC   C1B12139  31.711  11.990   8.673
  751POPC   C2B12140  31.911  11.945   8.266
  751POPC   C3B12141  31.887  12.238   7.942
  751POPC   C4B12142  31.649  12.314   7.547
  752POPC   NC312143   0.184  27.401   9.351
  752POPC   PO412144   0.862  27.636   9.452
  752POPC   GL112145   0.539  27.703   9.126
  752POPC   GL212146   0.169  27.723   8.970
  752POPC   C1A12147   0.561  27.928   8.756
  752POPC   D2A12148   0.235  27.924   8.465
  752POPC   C3A12149   0.404  27.673   8.130
  752POPC   C4A12150   0.396  27.857   7.736
  752POPC   C1B12151   0.348  27.438   8.673
  752POPC   C2B12152   0.371  27.039   8.443
  752POPC   C3B12153   0.425  27.116   8.017
  752POPC   C4B12154   0.254  27.369   7.704
  753POPC   NC312155  10.928  13.125   9.947
  753POPC   PO412156  10.722  12.629   9.604
  753POPC   GL112157  10.625  12.576   9.183
  753POPC   GL212158  10.876  12.358   9.085
  753POPC   C1A12159  10.499  12.774   8.748
  753POPC   D2A12160  10.186  12.900   8.412
  753POPC   C3A12161  10.308  12.898   7.921
  753POPC   C4A12162  10.607  12.860   7.520
  753POPC   C1B12163  10.810  12.344   8.633
  753POPC   C2B12164  10.842  12.659   8.340
  753POPC   C3B12165  10.764  12.631   7.935
  753POPC   C4B12166  10.799  12.393   7.563
  754POPC   NC312167  19.507  43.097   9.260
  754POPC   PO412168  19.983  42.860   9.742
  754POPC   GL112169  20.115  42.952   9.255
  754POPC   GL212170  19.948  43.205   9.003
  754POPC   C1A12171  20.184  42.826   8.777
  754POPC   D2A12172  20.168  43.098   8.370
  754POPC   C3A12173  19.889  43.033   7.978
  754POPC   C4A12174  19.775  42.977   7.527
  754POPC   C1B12175  19.700  43.040   8.602
  754POPC   C2B12176  19.455  42.842   8.233
  754POPC   C3B12177  19.380  43.001   7.830
  754POPC   C4B12178  19.562  43.409   7.708
  755POPC   NC312179  28.579  25.686   9.492
  755POPC   PO412180  28.182  26.249   9.472
  755POPC   GL112181  28.360  26.097   9.117
  755POPC   GL212182  28.309  25.752   9.088
  755POPC   C1A12183  28.168  26.085   8.701
  755POPC   D2A12184  27.894  26.237   8.386
  755POPC   C3A12185  28.095  26.328   7.997
  755POPC   C4A12186  28.403  26.322   7.636
  755POPC   C1B12187  28.197  25.588   8.746
  755POPC   C2B12188  28.317  25.720   8.345
  755POPC   C3B12189  28.096  25.809   7.960
  755POPC   C4B12190  28.392  25.693   7.665
  756POPC   NC312191  24.963  37.836   9.418
  756POPC   PO412192  25.386  37.410   9.650
  756POPC   GL112193  25.301  37.515   9.182
  756POPC   GL212194  25.495  37.817   9.164
  756POPC   C1A12195  25.107  37.781   8.779
  756POPC   D2A12196  24.959  37.863   8.336
  756POPC   C3A12197  25.179  37.830   7.935
  756POPC   C4A12198  25.165  37.455   7.650
  756POPC   C1B12199  25.567  37.593   8.753
  756POPC   C2B12200  25.448  37.650   8.354
  756POPC   C3B12201  25.566  37.505   7.970
  756POPC   C4B12202  25.579  37.722   7.550
  757POPC   NC312203  15.713  28.091   9.602
  757POPC   PO412204  16.189  28.566   9.458
  757POPC   GL112205  15.985  28.248   9.184
  757POPC   GL212206  15.654  28.366   9.152
  757POPC   C1A12207  15.941  28.077   8.772
  757POPC   D2A12208  15.886  28.333   8.414
  757POPC   C3A12209  16.043  28.332   7.990
  757POPC   C4A12210  15.869  28.135   7.629
  757POPC   C1B12211  15.458  28.275   8.768
  757POPC   C2B12212  15.427  28.085   8.386
  757POPC   C3B12213  15.538  28.270   8.009
  757POPC   C4B12214  15.684  28.662   7.809
  758POPC   NC312215  31.220  42.176   9.443
  758POPC   PO412216  30.668  42.496   9.659
  758POPC   GL112217  30.703  42.304   9.209
  758POPC   GL212218  30.856  42.002   9.123
  758POPC   C1A12219  30.557  42.203   8.752
  758POPC   D2A12220  30.673  42.318   8.326
  758POPC   C3A12221  30.530  42.288   7.845
  758POPC   C4A12222  30.733  42.348   7.407
  758POPC   C1B12223  31.091  41.932   8.734
  758POPC   C2B12224  31.122  42.050   8.310
  758POPC   C3B12225  30.809  41.915   8.033
  758POPC   C4B12226  30.723  41.861   7.619
  759POPC   NC312227   0.175  21.164   9.628
  759POPC   PO412228   0.670  21.653   9.544
  759POPC   GL112229   0.355  21.474   9.252
  759POPC   GL212230   0.357  21.115   9.170
  759POPC   C1A12231   0.369  21.453   8.803
  759POPC   D2A12232   0.167  21.524   8.416
  759POPC   C3A12233   0.463  21.645   8.123
  759POPC   C4A12234   0.432  21.769   7.682
  759POPC   C1B12235   0.654  20.998   8.875
  759POPC   C2B12236   0.662  21.160   8.469
  759POPC   C3B12237   0.383  21.135   8.156
  759POPC   C4B12238   0.147  21.353   7.853
  760POPC   NC312239  39.975   8.633   9.400
  760POPC   PO412240  40.266   9.271   9.495
  760POPC   GL112241  39.986   9.114   9.170
  760POPC   GL212242  40.195   8.861   8.976
  760POPC   C1A12243  39.845   9.184   8.762
  760POPC   D2A12244  40.062   9.031   8.409
  760POPC   C3A12245  40.000   9.266   8.041
  760POPC   C4A12246  40.194   9.227   7.671
  760POPC   C1B12247  39.835   8.659   8.754
  760POPC   C2B12248  39.721   8.626   8.329
  760POPC   C3B12249  39.890   8.761   7.940
  760POPC   C4B12250  39.680   8.687   7.558
  761POPC   NC312251  31.829  21.317   9.293
  761POPC   PO412252  31.441  20.895   9.630
  761POPC   GL112253  31.384  21.091   9.156
  761POPC   GL212254  31.343  21.440   9.147
  761POPC   C1A12255  31.407  21.092   8.709
  761POPC   D2A12256  31.269  21.333   8.357
  761POPC   C3A12257  31.472  21.307   7.949
  761POPC   C4A12258  31.562  21.035   7.590
  761POPC   C1B12259  31.289  21.651   8.764
  761POPC   C2B12260  31.312  21.845   8.352
  761POPC   C3B12261  31.200  21.739   7.919
  761POPC   C4B12262  31.431  21.751   7.557
  762POPC   NC312263   9.409   1.905   9.515
  762POPC   PO412264  10.059   2.231   9.344
  762POPC   GL112265   9.782   1.985   9.168
  762POPC   GL212266  10.009   1.891   8.938
  762POPC   C1A12267   9.518   2.060   8.828
  762POPC   D2A12268   9.682   2.278   8.476
  762POPC   C3A12269   9.782   2.084   8.088
  762POPC   C4A12270   9.574   1.869   7.753
  762POPC   C1B12271   9.852   1.787   8.536
  762POPC   C2B12272   9.796   1.569   8.160
  762POPC   C3B12273  10.061   1.644   7.802
  762POPC   C4B12274  10.223   1.711   7.356
  763POPC   NC312275  40.135  34.217   9.438
  763POPC   PO412276  39.613  34.587   9.348
  763POPC   GL112277  39.943  34.497   9.048
  763POPC   GL212278  40.324  34.544   9.093
  763POPC   C1A12279  40.090  34.675   8.661
  763POPC   D2A12280  40.389  34.820   8.363
  763POPC   C3A12281  40.104  34.780   8.041
  763POPC   C4A12282  39.745  34.569   7.830
  763POPC   C1B12283  40.307  34.202   8.755
  763POPC   C2B12284  40.212  34.027   8.323
  763POPC   C3B12285  40.295  34.219   7.915
  763POPC   C4B12286  40.278  34.576   7.630
  764POPC   NC312287  21.419   2.155   9.795
  764POPC   PO412288  21.219   1.569   9.522
  764POPC   GL112289  21.443   1.756   9.136
  764POPC   GL212290  21.458   2.129   9.133
  764POPC   C1A12291  21.358   1.854   8.678
  764POPC   D2A12292  21.232   1.786   8.217
  764POPC   C3A12293  21.458   1.834   7.808
  764POPC   C4A12294  21.290   1.958   7.380
  764POPC   C1B12295  21.512   2.352   8.737
  764POPC   C2B12296  21.559   2.194   8.333
  764POPC   C3B12297  21.544   2.326   7.924
  764POPC   C4B12298  21.759   2.160   7.538
  765POPC   NC312299  18.344   4.826   9.577
  765POPC   PO412300  18.276   4.080   9.677
  765POPC   GL112301  18.211   4.113   9.212
  765POPC   GL212302  18.399   4.429   9.129
  765POPC   C1A12303  18.291   3.997   8.784
  765POPC   D2A12304  18.427   4.209   8.412
  765POPC   C3A12305  18.234   4.225   8.022
  765POPC   C4A12306  17.934   4.192   7.665
  765POPC   C1B12307  18.201   4.554   8.736
  765POPC   C2B12308  18.231   4.702   8.312
  765POPC   C3B12309  18.051   4.676   7.889
  765POPC   C4B12310  18.305   4.535   7.552
  766POPC   NC312311  44.815   9.255   9.690
  766POPC   PO412312  44.427   8.793   9.414
  766POPC   GL112313  44.673   8.846   9.076
  766POPC   GL212314  44.776   9.160   9.182
  766POPC   C1A12315  44.652   9.014   8.679
  766POPC   D2A12316  44.390   9.192   8.393
  766POPC   C3A12317  44.583   9.052   8.029
  766POPC   C4A12318  44.582   8.796   7.676
  766POPC   C1B12319  44.985   9.357   8.825
  766POPC   C2B12320  44.919   9.341   8.337
  766POPC   C3B12321  44.997   9.291   7.851
  766POPC   C4B12322  44.917   9.549   7.475
  767POPC   NC312323   8.669  34.602   9.237
  767POPC   PO412324   8.323  34.753   9.794
  767POPC   GL112325   8.098  34.709   9.324
  767POPC   GL212326   8.125  34.374   9.139
  767POPC   C1A12327   8.112  34.810   8.838
  767POPC   D2A12328   8.323  34.591   8.474
  767POPC   C3A12329   8.194  34.566   8.045
  767POPC   C4A12330   8.079  34.912   7.786
  767POPC   C1B12331   8.303  34.153   8.731
  767POPC   C2B12332   8.567  34.166   8.343
  767POPC   C3B12333   8.464  34.127   7.909
  767POPC   C4B12334   8.286  34.310   7.526
  768POPC   NC312335  43.462  32.127   9.701
  768POPC   PO412336  42.942  32.476   9.494
  768POPC   GL112337  43.102  32.263   9.150
  768POPC   GL212338  43.253  31.953   9.273
  768POPC   C1A12339  42.947  32.331   8.738
  768POPC   D2A12340  42.997  32.590   8.396
  768POPC   C3A12341  43.034  32.306   8.080
  768POPC   C4A12342  42.725  32.291   7.789
  768POPC   C1B12343  43.304  31.914   8.833
  768POPC   C2B12344  43.397  32.120   8.464
  768POPC   C3B12345  43.374  31.845   8.134
  768POPC   C4B12346  43.270  31.973   7.751
  769POPC   NC312347  19.235  15.102   9.505
  769POPC   PO412348  18.679  15.380   9.579
  769POPC   GL112349  18.900  15.314   9.181
  769POPC   GL212350  18.878  14.975   9.154
  769POPC   C1A12351  19.274  15.136   8.862
  769POPC   D2A12352  19.200  14.944   8.463
  769POPC   C3A12353  19.359  15.043   8.058
  769POPC   C4A12354  19.319  15.226   7.645
  769POPC   C1B12355  18.765  15.102   8.727
  769POPC   C2B12356  18.829  15.286   8.326
  769POPC   C3B12357  18.851  15.165   7.888
  769POPC   C4B12358  18.721  15.439   7.575
  770POPC   NC312359  40.106  27.700   9.451
  770POPC   PO412360  39.484  27.673   9.511
  770POPC   GL112361  39.706  27.631   9.098
  770POPC   GL212362  40.021  27.415   9.042
  770POPC   C1A12363  39.915  27.778   8.706
  770POPC   D2A12364  40.131  28.032   8.384
  770POPC   C3A12365  40.263  27.777   8.045
  770POPC   C4A12366  39.963  27.587   7.793
  770POPC   C1B12367  39.731  27.259   8.708
  770POPC   C2B12368  39.644  27.380   8.270
  770POPC   C3B12369  39.810  27.124   7.956
  770POPC   C4B12370  40.260  27.128   7.881
  771POPC   NC312371  11.824   8.383   9.310
  771POPC   PO412372  11.274   8.069   9.594
  771POPC   GL112373  11.191   8.139   9.166
  771POPC   GL212374  11.469   8.216   8.984
  771POPC   C1A12375  10.977   8.158   8.759
  771POPC   D2A12376  10.978   8.301   8.338
  771POPC   C3A12377  11.293   8.200   8.048
  771POPC   C4A12378  11.252   8.051   7.622
  771POPC   C1B12379  11.456   8.147   8.554
  771POPC   C2B12380  11.740   8.001   8.250
  771POPC   C3B12381  11.626   7.836   7.862
  771POPC   C4B12382  11.689   7.933   7.390
  772POPC   NC312383  38.128  17.436   9.264
  772POPC   PO412384  38.775  17.483   9.604
  772POPC   GL112385  38.628  17.622   9.199
  772POPC   GL212386  38.632  17.270   9.118
  772POPC   C1A12387  38.474  17.744   8.765
  772POPC   D2A12388  38.170  17.615   8.447
  772POPC   C3A12389  38.364  17.709   8.052
  772POPC   C4A12390  38.113  17.804   7.695
  772POPC   C1B12391  38.438  17.248   8.718
  772POPC   C2B12392  38.578  17.308   8.331
  772POPC   C3B12393  38.563  17.218   7.941
  772POPC   C4B12394  38.392  17.393   7.622
  773POPC   NC312395  25.529   4.115   9.463
  773POPC   PO412396  24.973   4.488   9.478
  773POPC   GL112397  25.093   4.290   9.115
  773POPC   GL212398  25.440   4.253   9.001
  773POPC   C1A12399  25.063   4.228   8.690
  773POPC   D2A12400  25.346   4.071   8.423
  773POPC   C3A12401  25.167   4.264   8.106
  773POPC   C4A12402  25.081   4.190   7.678
  773POPC   C1B12403  25.637   4.459   8.693
  773POPC   C2B12404  25.827   4.278   8.347
  773POPC   C3B12405  25.656   4.123   8.001
  773POPC   C4B12406  25.468   4.483   7.779
  774POPC   NC312407  34.831   6.413   9.514
  774POPC   PO412408  34.200   6.712   9.563
  774POPC   GL112409  34.392   6.643   9.193
  774POPC   GL212410  34.436   6.307   9.217
  774POPC   C1A12411  34.477   6.687   8.741
  774POPC   D2A12412  34.491   6.955   8.420
  774POPC   C3A12413  34.533   6.844   7.982
  774POPC   C4A12414  34.616   6.514   7.678
  774POPC   C1B12415  34.198   6.295   8.866
  774POPC   C2B12416  34.185   6.173   8.467
  774POPC   C3B12417  34.324   6.371   8.110
  774POPC   C4B12418  34.179   6.234   7.737
  775POPC   NC312419  25.308  32.408   9.477
  775POPC   PO412420  24.788  31.935   9.296
  775POPC   GL112421  25.111  32.137   9.094
  775POPC   GL212422  25.427  32.002   9.159
  775POPC   C1A12423  25.241  32.352   8.752
  775POPC   D2A12424  25.192  32.102   8.416
  775POPC   C3A12425  25.030  32.308   8.074
  775POPC   C4A12426  25.262  32.416   7.727
  775POPC   C1B12427  25.584  31.973   8.741
  775POPC   C2B12428  25.721  31.942   8.308
  775POPC   C3B12429  25.630  32.009   7.891
  775POPC   C4B12430  25.277  31.934   7.631
  776POPC   NC312431  36.302  13.984   9.567
  776POPC   PO412432  35.685  13.695   9.425
  776POPC   GL112433  35.830  13.851   9.036
  776POPC   GL212434  36.184  13.786   9.002
  776POPC   C1A12435  35.901  13.773   8.573
  776POPC   D2A12436  36.115  13.583   8.219
  776POPC   C3A12437  36.051  13.788   7.832
  776POPC   C4A12438  35.742  13.808   7.515
  776POPC   C1B12439  36.196  13.376   8.703
  776POPC   C2B12440  36.133  13.083   8.319
  776POPC   C3B12441  36.104  13.164   7.854
  776POPC   C4B12442  36.111  13.439   7.456
  777POPC   NC312443  44.936  28.901   9.587
  777POPC   PO412444  44.293  29.162   9.497
  777POPC   GL112445  44.557  29.030   9.149
  777POPC   GL212446  44.898  29.128   9.132
  777POPC   C1A12447  44.454  28.982   8.699
  777POPC   D2A12448  44.298  29.189   8.317
  777POPC   C3A12449  44.495  29.058   7.931
  777POPC   C4A12450  44.764  28.774   7.722
  777POPC   C1B12451  44.971  28.934   8.774
  777POPC   C2B12452  44.875  29.026   8.370
  777POPC   C3B12453  44.996  29.164   7.997
  777POPC   C4B12454  44.852  29.310   7.600
  778POPC   NC312455  37.017  18.653   9.622
  778POPC   PO412456  36.665  19.211   9.396
  778POPC   GL112457  37.019  19.069   9.113
  778POPC   GL212458  37.273  19.383   9.006
  778POPC   C1A12459  36.994  18.783   8.764
  778POPC   D2A12460  36.697  18.881   8.463
  778POPC   C3A12461  36.925  18.895   8.125
  778POPC   C4A12462  36.974  18.580   7.849
  778POPC   C1B12463  36.989  19.309   8.668
  778POPC   C2B12464  37.037  19.457   8.271
  778POPC   C3B12465  36.922  19.338   7.881
  778POPC   C4B12466  37.093  19.020   7.605
  779POPC   NC312467  18.155  34.123   9.349
  779POPC   PO412468  18.053  33.497   9.378
  779POPC   GL112469  18.132  33.718   9.025
  779POPC   GL212470  18.497  33.794   9.087
  779POPC   C1A12471  18.105  33.987   8.657
  779POPC   D2A12472  17.934  33.913   8.235
  779POPC   C3A12473  18.227  33.943   7.872
  779POPC   C4A12474  18.260  33.706   7.481
  779POPC   C1B12475  18.476  33.573   8.677
  779POPC   C2B12476  18.346  33.594   8.240
  779POPC   C3B12477  18.451  33.382   7.856
  779POPC   C4B12478  18.562  33.331   7.390
  780POPC   NC312479  21.853  15.403   9.508
  780POPC   PO412480  22.245  14.878   9.471
  780POPC   GL112481  22.153  15.152   9.160
  780POPC   GL212482  21.816  15.096   9.115
  780POPC   C1A12483  22.157  15.152   8.734
  780POPC   D2A12484  22.348  15.311   8.390
  780POPC   C3A12485  22.135  15.136   8.073
  780POPC   C4A12486  22.316  15.207   7.701
  780POPC   C1B12487  21.737  14.838   8.779
  780POPC   C2B12488  21.879  14.605   8.434
  780POPC   C3B12489  21.791  14.734   8.010
  780POPC   C4B12490  21.864  15.013   7.648
  781POPC   NC312491  23.488   8.749   9.518
  781POPC   PO412492  24.074   9.076   9.498
  781POPC   GL112493  23.850   8.872   9.157
  781POPC   GL212494  23.537   9.047   9.093
  781POPC   C1A12495  23.911   9.011   8.713
  781POPC   D2A12496  23.957   9.314   8.372
  781POPC   C3A12497  23.951   9.099   8.011
  781POPC   C4A12498  23.870   8.868   7.692
  781POPC   C1B12499  23.303   9.131   8.707
  781POPC   C2B12500  23.397   9.310   8.330
  781POPC   C3B12501  23.454   9.161   7.929
  781POPC   C4B12502  23.408   9.010   7.518
  782POPC   NC312503   2.835   4.768   9.602
  782POPC   PO412504   3.200   5.369   9.624
  782POPC   GL112505   3.095   5.029   9.277
  782POPC   GL212506   2.723   5.020   9.168
  782POPC   C1A12507   3.125   4.826   8.878
  782POPC   D2A12508   2.980   4.711   8.443
  782POPC   C3A12509   2.962   4.913   8.064
  782POPC   C4A12510   3.064   5.253   7.802
  782POPC   C1B12511   2.618   4.834   8.774
  782POPC   C2B12512   2.513   4.874   8.347
  782POPC   C3B12513   2.467   4.906   7.942
  782POPC   C4B12514   2.676   5.008   7.603
  783POPC   NC312515  28.585  31.431   9.517
  783POPC   PO412516  27.960  31.510   9.544
  783POPC   GL112517  28.196  31.421   9.128
  783POPC   GL212518  28.475  31.638   9.055
  783POPC   C1A12519  28.267  31.437   8.623
  783POPC   D2A12520  28.618  31.585   8.364
  783POPC   C3A12521  28.459  31.514   7.948
  783POPC   C4A12522  28.245  31.211   7.704
  783POPC   C1B12523  28.643  31.209   8.846
  783POPC   C2B12524  28.629  31.070   8.380
  783POPC   C3B12525  28.723  31.048   7.912
  783POPC   C4B12526  28.633  30.924   7.466
  784POPC   NC312527   2.556  28.685   9.722
  784POPC   PO412528   2.858  28.186   9.336
  784POPC   GL112529   2.736  28.551   9.088
  784POPC   GL212530   2.476  28.813   9.187
  784POPC   C1A12531   2.839  28.490   8.657
  784POPC   D2A12532   2.849  28.117   8.396
  784POPC   C3A12533   2.772  28.255   7.951
  784POPC   C4A12534   2.982  28.560   7.699
  784POPC   C1B12535   2.303  28.614   8.771
  784POPC   C2B12536   2.446  28.444   8.336
  784POPC   C3B12537   2.311  28.547   7.902
  784POPC   C4B12538   2.515  28.867   7.649
  785POPC   NC312539  13.469  41.505   9.712
  785POPC   PO412540  13.946  41.922   9.459
  785POPC   GL112541  13.781  41.641   9.123
  785POPC   GL212542  13.529  41.406   9.013
  785POPC   C1A12543  13.891  41.630   8.681
  785POPC   D2A12544  14.072  41.469   8.307
  785POPC   C3A12545  14.060  41.725   7.899
  785POPC   C4A12546  13.714  41.778   7.596
  785POPC   C1B12547  13.357  41.598   8.670
  785POPC   C2B12548  13.506  41.721   8.303
  785POPC   C3B12549  13.638  41.458   8.009
  785POPC   C4B12550  13.571  41.299   7.631
  786POPC   NC312551  26.570  29.833   9.483
  786POPC   PO412552  25.949  29.551   9.468
  786POPC   GL112553  26.009  29.805   9.099
  786POPC   GL212554  26.250  30.099   9.184
  786POPC   C1A12555  25.788  29.695   8.735
  786POPC   D2A12556  25.876  29.815   8.346
  786POPC   C3A12557  25.815  29.616   7.976
  786POPC   C4A12558  25.901  29.853   7.602
  786POPC   C1B12559  26.447  29.902   8.837
  786POPC   C2B12560  26.473  30.030   8.442
  786POPC   C3B12561  26.337  29.874   8.056
  786POPC   C4B12562  26.401  29.985   7.640
  787POPC   NC312563  19.265  12.498   9.820
  787POPC   PO412564  18.932  12.135   9.369
  787POPC   GL112565  19.146  12.195   9.024
  787POPC   GL212566  19.373  12.473   9.123
  787POPC   C1A12567  19.281  11.939   8.647
  787POPC   D2A12568  19.418  11.785   8.233
  787POPC   C3A12569  19.108  11.820   7.884
  787POPC   C4A12570  19.204  11.922   7.455
  787POPC   C1B12571  19.363  12.444   8.655
  787POPC   C2B12572  19.200  12.292   8.277
  787POPC   C3B12573  18.936  12.295   7.947
  787POPC   C4B12574  18.534  12.380   7.793
  788POPC   NC312575   5.034  32.816   9.654
  788POPC   PO412576   4.910  32.250   9.693
  788POPC   GL112577   4.952  32.300   9.245
  788POPC   GL212578   4.768  32.551   9.162
  788POPC   C1A12579   4.980  32.074   8.834
  788POPC   D2A12580   4.798  32.140   8.407
  788POPC   C3A12581   4.973  31.991   7.976
  788POPC   C4A12582   5.253  32.240   7.671
  788POPC   C1B12583   4.929  32.581   8.759
  788POPC   C2B12584   5.061  32.591   8.345
  788POPC   C3B12585   4.861  32.503   7.967
  788POPC   C4B12586   4.940  32.669   7.577
  789POPC   NC312587  39.220  43.967   9.687
  789POPC   PO412588  38.839  43.776   9.174
  789POPC   GL112589  39.112  43.643   8.901
  789POPC   GL212590  38.913  43.426   8.740
  789POPC   C1A12591  39.363  43.733   8.511
  789POPC   D2A12592  39.641  44.055   8.295
  789POPC   C3A12593  39.600  44.022   7.841
  789POPC   C4A12594  39.323  43.747   7.633
  789POPC   C1B12595  38.853  43.818   8.470
  789POPC   C2B12596  39.108  43.900   8.085
  789POPC   C3B12597  39.126  44.207   7.749
  789POPC   C4B12598  38.901  44.228   7.309
  790POPC   NC312599  27.000   8.667   9.516
  790POPC   PO412600  26.433   8.919   9.387
  790POPC   GL112601  26.733   8.919   9.124
  790POPC   GL212602  26.864   9.215   9.271
  790POPC   C1A12603  26.631   8.878   8.693
  790POPC   D2A12604  26.668   8.623   8.387
  790POPC   C3A12605  26.784   8.823   8.019
  790POPC   C4A12606  26.577   8.843   7.626
  790POPC   C1B12607  26.623   9.345   8.863
  790POPC   C2B12608  26.800   9.315   8.463
  790POPC   C3B12609  26.586   9.329   8.081
  790POPC   C4B12610  26.797   9.281   7.700
  791POPC   NC312611   3.137   1.721   9.579
  791POPC   PO412612   3.736   2.011   9.586
  791POPC   GL112613   3.381   2.050   9.282
  791POPC   GL212614   3.553   2.295   9.187
  791POPC   C1A12615   3.217   2.080   8.843
  791POPC   D2A12616   3.265   1.882   8.454
  791POPC   C3A12617   3.114   2.104   8.137
  791POPC   C4A12618   3.295   2.228   7.737
  791POPC   C1B12619   3.698   1.967   8.881
  791POPC   C2B12620   3.797   1.887   8.456
  791POPC   C3B12621   3.621   2.022   8.085
  791POPC   C4B12622   3.346   1.742   7.845
  792POPC   NC312623  38.318  25.996   9.544
  792POPC   PO412624  39.041  25.839   9.530
  792POPC   GL112625  38.715  25.948   9.205
  792POPC   GL212626  38.722  26.319   9.194
  792POPC   C1A12627  38.467  25.846   8.790
  792POPC   D2A12628  38.188  25.945   8.409
  792POPC   C3A12629  38.250  25.784   7.983
  792POPC   C4A12630  38.602  25.760   7.699
  792POPC   C1B12631  38.535  26.342   8.796
  792POPC   C2B12632  38.454  26.414   8.395
  792POPC   C3B12633  38.494  26.263   8.015
  792POPC   C4B12634  38.362  26.199   7.645
  793POPC   NC312635  10.149   4.206   9.535
  793POPC   PO412636  10.475   4.730   9.508
  793POPC   GL112637  10.739   4.463   9.206
  793POPC   GL212638  10.537   4.153   9.159
  793POPC   C1A12639  10.919   4.239   8.814
  793POPC   D2A12640  10.903   3.967   8.441
  793POPC   C3A12641  10.921   4.162   8.020
  793POPC   C4A12642  10.553   4.354   7.809
  793POPC   C1B12643  10.419   4.016   8.724
  793POPC   C2B12644  10.172   3.845   8.342
  793POPC   C3B12645  10.442   3.908   7.985
  793POPC   C4B12646  10.348   3.976   7.517
  794POPC   NC312647  32.723  24.638   9.385
  794POPC   PO412648  33.378  24.640   9.443
  794POPC   GL112649  33.107  24.582   9.056
  794POPC   GL212650  32.882  24.275   9.030
  794POPC   C1A12651  33.019  24.779   8.653
  794POPC   D2A12652  33.087  24.792   8.191
  794POPC   C3A12653  32.798  24.655   7.843
  794POPC   C4A12654  32.937  24.568   7.384
  794POPC   C1B12655  32.898  24.285   8.554
  794POPC   C2B12656  33.105  24.285   8.163
  794POPC   C3B12657  33.372  24.056   7.837
  794POPC   C4B12658  33.289  24.206   7.381
  795POPC   NC312659   5.015  10.539   9.707
  795POPC   PO412660   5.584  10.292   9.366
  795POPC   GL112661   5.260  10.532   9.101
  795POPC   GL212662   4.895  10.516   9.199
  795POPC   C1A12663   5.254  10.578   8.651
  795POPC   D2A12664   5.225  10.385   8.251
  795POPC   C3A12665   5.123  10.669   7.910
  795POPC   C4A12666   5.290  10.563   7.506
  795POPC   C1B12667   4.798  10.412   8.751
  795POPC   C2B12668   4.740  10.528   8.298
  795POPC   C3B12669   4.831  10.262   7.892
  795POPC   C4B12670   4.758  10.351   7.436
  796POPC   NC312671  25.762  11.955   9.475
  796POPC   PO412672  26.320  12.404   9.506
  796POPC   GL112673  26.113  12.167   9.142
  796POPC   GL212674  25.732  12.245   9.064
  796POPC   C1A12675  26.067  12.053   8.703
  796POPC   D2A12676  26.004  11.812   8.349
  796POPC   C3A12677  25.945  12.094   8.054
  796POPC   C4A12678  26.221  11.933   7.755
  796POPC   C1B12679  25.616  11.863   8.819
  796POPC   C2B12680  25.525  11.924   8.406
  796POPC   C3B12681  25.511  11.749   8.022
  796POPC   C4B12682  25.717  11.837   7.691
  797POPC   NC312683  33.250  40.275   9.315
  797POPC   PO412684  32.894  39.748   9.517
  797POPC   GL112685  32.920  39.916   9.110
  797POPC   GL212686  33.256  39.825   9.067
  797POPC   C1A12687  32.797  40.222   8.759
  797POPC   D2A12688  32.802  40.419   8.329
  797POPC   C3A12689  32.737  40.142   7.971
  797POPC   C4A12690  32.822  39.713   7.836
  797POPC   C1B12691  33.302  40.074   8.688
  797POPC   C2B12692  33.124  40.016   8.288
  797POPC   C3B12693  33.269  40.004   7.878
  797POPC   C4B12694  33.434  40.262   7.555
  798POPC   NC312695  36.498  16.284   9.764
  798POPC   PO412696  36.191  15.750   9.450
  798POPC   GL112697  36.038  16.081   9.210
  798POPC   GL212698  35.966  15.822   8.983
  798POPC   C1A12699  35.946  16.329   8.853
  798POPC   D2A12700  35.795  16.054   8.540
  798POPC   C3A12701  35.867  16.102   8.102
  798POPC   C4A12702  36.204  16.120   7.845
  798POPC   C1B12703  35.982  15.570   8.602
  798POPC   C2B12704  35.929  15.456   8.178
  798POPC   C3B12705  35.917  15.669   7.778
  798POPC   C4B12706  35.917  15.516   7.344
  799POPC   NC312707  27.644  12.419   9.372
  799POPC   PO412708  27.854  11.757   9.502
  799POPC   GL112709  27.743  11.979   9.128
  799POPC   GL212710  27.460  11.883   9.010
  799POPC   C1A12711  27.674  12.223   8.720
  799POPC   D2A12712  27.461  12.176   8.316
  799POPC   C3A12713  27.660  12.334   7.974
  799POPC   C4A12714  27.744  12.185   7.583
  799POPC   C1B12715  27.467  11.694   8.658
  799POPC   C2B12716  27.309  11.683   8.253
  799POPC   C3B12717  27.500  11.794   7.880
  799POPC   C4B12718  27.429  11.822   7.433
  800POPC   NC312719  36.447  14.631   9.457
  800POPC   PO412720  35.971  14.271   9.680
  800POPC   GL112721  36.060  14.284   9.203
  800POPC   GL212722  36.426  14.241   9.125
  800POPC   C1A12723  35.905  14.257   8.737
  800POPC   D2A12724  35.747  14.155   8.278
  800POPC   C3A12725  35.965  14.296   7.889
  800POPC   C4A12726  35.938  14.698   7.686
  800POPC   C1B12727  36.318  14.533   8.799
  800POPC   C2B12728  36.148  14.544   8.374
  800POPC   C3B12729  36.336  14.626   8.010
  800POPC   C4B12730  36.464  14.397   7.673
  801POPC   NC312731  28.952  18.856   9.346
  801POPC   PO412732  29.607  18.681   9.533
  801POPC   GL112733  29.498  19.082   9.223
  801POPC   GL212734  29.154  19.300   9.198
  801POPC   C1A12735  29.494  19.311   8.817
  801POPC   D2A12736  29.286  19.166   8.465
  801POPC   C3A12737  29.423  19.178   8.051
  801POPC   C4A12738  29.245  18.790   7.854
  801POPC   C1B12739  28.966  19.460   8.792
  801POPC   C2B12740  28.982  19.543   8.347
  801POPC   C3B12741  28.903  19.257   8.020
  801POPC   C4B12742  28.639  19.177   7.667
  802POPC   NC312743  44.118   6.017   9.920
  802POPC   PO412744  43.572   5.679   9.659
  802POPC   GL112745  43.637   5.787   9.212
  802POPC   GL212746  43.428   6.066   9.120
  802POPC   C1A12747  43.878   5.511   8.883
  802POPC   D2A12748  44.083   5.319   8.509
  802POPC   C3A12749  43.995   5.564   8.139
  802POPC   C4A12750  44.112   5.674   7.732
  802POPC   C1B12751  43.806   6.036   8.786
  802POPC   C2B12752  43.950   6.221   8.358
  802POPC   C3B12753  43.972   6.159   7.882
  802POPC   C4B12754  43.713   5.927   7.550
  803POPC   NC312755  21.032   1.974   9.367
  803POPC   PO412756  20.406   2.127   9.432
  803POPC   GL112757  20.581   1.846   9.134
  803POPC   GL212758  20.895   1.968   8.903
  803POPC   C1A12759  20.500   1.744   8.733
  803POPC   D2A12760  20.760   1.965   8.407
  803POPC   C3A12761  20.741   1.761   8.042
  803POPC   C4A12762  20.449   1.843   7.744
  803POPC   C1B12763  21.010   2.337   8.677
  803POPC   C2B12764  21.088   2.376   8.235
  803POPC   C3B12765  21.060   2.160   7.838
  803POPC   C4B12766  20.869   2.244   7.445
  804POPC   NC312767  18.591  15.855   9.638
  804POPC   PO412768  19.131  16.158   9.582
  804POPC   GL112769  18.946  16.176   9.172
  804POPC   GL212770  19.090  15.830   9.149
  804POPC   C1A12771  18.862  16.031   8.737
  804POPC   D2A12772  19.050  15.916   8.342
  804POPC   C3A12773  19.092  16.255   8.023
  804POPC   C4A12774  19.063  16.233   7.571
  804POPC   C1B12775  19.031  15.563   8.763
  804POPC   C2B12776  19.310  15.460   8.439
  804POPC   C3B12777  19.184  15.534   8.030
  804POPC   C4B12778  19.154  15.714   7.649
  805POPC   NC312779  42.067  21.966   9.334
  805POPC   PO412780  41.454  21.775   9.452
  805POPC   GL112781  41.548  22.084   9.104
  805POPC   GL212782  41.767  22.366   9.188
  805POPC   C1A12783  41.495  22.333   8.723
  805POPC   D2A12784  41.672  22.134   8.375
  805POPC   C3A12785  41.529  22.321   7.992
  805POPC   C4A12786  41.323  22.161   7.595
  805POPC   C1B12787  41.986  22.473   8.769
  805POPC   C2B12788  41.833  22.610   8.364
  805POPC   C3B12789  42.006  22.688   8.010
  805POPC   C4B12790  41.957  22.412   7.721
  806POPC   NC312791  35.401   3.950   9.472
  806POPC   PO412792  35.175   4.623   9.478
  806POPC   GL112793  35.142   4.400   9.136
  806POPC   GL212794  35.445   4.282   9.091
  806POPC   C1A12795  35.069   4.312   8.722
  806POPC   D2A12796  35.139   4.053   8.392
  806POPC   C3A12797  35.365   4.188   8.033
  806POPC   C4A12798  35.402   3.867   7.726
  806POPC   C1B12799  35.602   4.249   8.669
  806POPC   C2B12800  35.847   4.250   8.289
  806POPC   C3B12801  35.789   4.537   7.948
  806POPC   C4B12802  35.535   4.473   7.612
  807POPC   NC312803   6.169   3.595   9.701
  807POPC   PO412804   5.630   3.867   9.481
  807POPC   GL112805   5.710   3.626   9.137
  807POPC   GL212806   6.069   3.596   9.050
  807POPC   C1A12807   5.678   3.427   8.769
  807POPC   D2A12808   5.987   3.468   8.458
  807POPC   C3A12809   5.810   3.369   8.066
  807POPC   C4A12810   5.439   3.357   7.823
  807POPC   C1B12811   5.884   3.904   8.728
  807POPC   C2B12812   5.725   3.913   8.354
  807POPC   C3B12813   5.960   3.887   7.991
  807POPC   C4B12814   5.769   3.727   7.627
  808POPC   NC312815  19.276  16.597   9.515
  808POPC   PO412816  18.591  16.785   9.469
  808POPC   GL112817  18.917  16.753   9.135
  808POPC   GL212818  19.272  16.724   9.033
  808POPC   C1A12819  18.920  16.526   8.738
  808POPC   D2A12820  19.158  16.626   8.370
  808POPC   C3A12821  19.001  16.902   8.053
  808POPC   C4A12822  19.123  16.722   7.700
  808POPC   C1B12823  19.081  17.008   8.693
  808POPC   C2B12824  19.313  17.164   8.341
  808POPC   C3B12825  19.507  16.888   8.038
  808POPC   C4B12826  19.584  16.892   7.612
  809POPC   NC312827   5.169  30.955   9.557
  809POPC   PO412828   4.582  31.155   9.334
  809POPC   GL112829   4.942  31.023   9.070
  809POPC   GL212830   5.186  30.724   9.113
  809POPC   C1A12831   4.938  30.774   8.675
  809POPC   D2A12832   5.095  30.507   8.370
  809POPC   C3A12833   4.968  30.604   7.963
  809POPC   C4A12834   4.844  30.219   7.838
  809POPC   C1B12835   5.397  30.955   8.765
  809POPC   C2B12836   5.356  30.936   8.308
  809POPC   C3B12837   5.422  30.798   7.902
  809POPC   C4B12838   5.315  30.895   7.512
  810POPC   NC312839  24.281   8.643   9.493
  810POPC   PO412840  24.872   8.356   9.458
  810POPC   GL112841  24.535   8.315   9.121
  810POPC   GL212842  24.179   8.201   9.218
  810POPC   C1A12843  24.361   8.121   8.726
  810POPC   D2A12844  24.279   7.850   8.362
  810POPC   C3A12845  24.416   8.051   7.993
  810POPC   C4A12846  24.786   7.975   7.789
  810POPC   C1B12847  24.014   8.473   8.891
  810POPC   C2B12848  23.985   8.491   8.476
  810POPC   C3B12849  24.034   8.572   8.065
  810POPC   C4B12850  24.268   8.447   7.696
  811POPC   NC312851  25.118  37.092   9.437
  811POPC   PO412852  25.673  37.033   9.080
  811POPC   GL112853  25.273  37.033   8.957
  811POPC   GL212854  25.165  36.708   9.112
  811POPC   C1A12855  25.113  37.287   8.619
  811POPC   D2A12856  25.112  37.308   8.159
  811POPC   C3A12857  25.388  37.029   7.940
  811POPC   C4A12858  25.594  37.180   7.577
  811POPC   C1B12859  25.321  36.543   8.771
  811POPC   C2B12860  25.388  36.460   8.373
  811POPC   C3B12861  25.274  36.485   7.959
  811POPC   C4B12862  25.493  36.652   7.601
  812POPC   NC312863  31.877  11.289   9.357
  812POPC   PO412864  31.431  11.490   9.896
  812POPC   GL112865  31.373  11.426   9.412
  812POPC   GL212866  31.324  11.088   9.277
  812POPC   C1A12867  31.330  11.479   8.940
  812POPC   D2A12868  31.275  11.353   8.505
  812POPC   C3A12869  31.572  11.513   8.190
  812POPC   C4A12870  31.446  11.561   7.767
  812POPC   C1B12871  31.401  10.963   8.829
  812POPC   C2B12872  31.308  10.867   8.384
  812POPC   C3B12873  31.468  11.042   8.000
  812POPC   C4B12874  31.477  11.093   7.560
  813POPC   NC312875   7.791  15.753   9.893
  813POPC   PO412876   7.178  15.796   9.542
  813POPC   GL112877   7.262  15.828   9.093
  813POPC   GL212878   7.534  16.057   9.057
  813POPC   C1A12879   7.276  15.980   8.660
  813POPC   D2A12880   7.580  16.080   8.357
  813POPC   C3A12881   7.371  15.930   8.006
  813POPC   C4A12882   7.220  16.092   7.651
  813POPC   C1B12883   7.731  15.738   8.740
  813POPC   C2B12884   7.834  15.456   8.391
  813POPC   C3B12885   7.724  15.522   7.954
  813POPC   C4B12886   7.662  15.821   7.590
  814POPC   NC312887  37.071   7.735   9.338
  814POPC   PO412888  37.149   8.399   9.609
  814POPC   GL112889  36.949   8.263   9.192
  814POPC   GL212890  36.675   8.479   9.166
  814POPC   C1A12891  36.799   8.175   8.733
  814POPC   D2A12892  36.946   8.086   8.290
  814POPC   C3A12893  37.196   8.407   8.075
  814POPC   C4A12894  37.228   8.532   7.634
  814POPC   C1B12895  36.464   8.562   8.759
  814POPC   C2B12896  36.432   8.275   8.383
  814POPC   C3B12897  36.559   8.176   7.940
  814POPC   C4B12898  36.929   8.130   7.723
  815POPC   NC312899   5.850  32.237   9.656
  815POPC   PO412900   6.214  32.787   9.709
  815POPC   GL112901   6.095  32.549   9.287
  815POPC   GL212902   5.901  32.237   9.152
  815POPC   C1A12903   6.162  32.566   8.827
  815POPC   D2A12904   6.196  32.332   8.438
  815POPC   C3A12905   6.022  32.391   8.039
  815POPC   C4A12906   5.718  32.435   7.722
  815POPC   C1B12907   6.017  31.971   8.783
  815POPC   C2B12908   6.067  31.852   8.325
  815POPC   C3B12909   5.894  31.923   7.915
  815POPC   C4B12910   6.124  32.141   7.583
  816POPC   NC312911  37.170  14.707   9.583
  816POPC   PO412912  36.770  14.129   9.529
  816POPC   GL112913  36.948  14.313   9.176
  816POPC   GL212914  36.851  14.614   9.158
  816POPC   C1A12915  36.806  14.347   8.737
  816POPC   D2A12916  37.039  14.372   8.349
  816POPC   C3A12917  36.808  14.173   8.021
  816POPC   C4A12918  36.943  14.226   7.602
  816POPC   C1B12919  36.692  14.867   8.819
  816POPC   C2B12920  36.668  14.721   8.381
  816POPC   C3B12921  36.846  14.663   7.935
  816POPC   C4B12922  36.920  14.715   7.489
  817POPC   NC312923  31.955  13.899   9.277
  817POPC   PO412924  32.188  13.296   9.527
  817POPC   GL112925  32.322  13.475   9.148
  817POPC   GL212926  32.601  13.752   9.133
  817POPC   C1A12927  32.244  13.296   8.733
  817POPC   D2A12928  32.156  13.164   8.296
  817POPC   C3A12929  32.307  13.406   7.933
  817POPC   C4A12930  32.506  13.230   7.576
  817POPC   C1B12931  32.366  13.800   8.764
  817POPC   C2B12932  32.427  13.631   8.373
  817POPC   C3B12933  32.595  13.848   8.020
  817POPC   C4B12934  32.552  13.735   7.592
  818POPC   NC312935  39.861  35.909   9.452
  818POPC   PO412936  40.084  36.447   9.729
  818POPC   GL112937  39.917  36.348   9.217
  818POPC   GL212938  39.582  36.202   9.148
  818POPC   C1A12939  40.051  36.113   8.812
  818POPC   D2A12940  40.116  35.971   8.372
  818POPC   C3A12941  40.341  36.075   8.014
  818POPC   C4A12942  40.312  35.744   7.681
  818POPC   C1B12943  39.518  36.517   8.858
  818POPC   C2B12944  39.566  36.577   8.433
  818POPC   C3B12945  39.864  36.386   8.193
  818POPC   C4B12946  39.665  36.405   7.774
  819POPC   NC312947  21.633  36.317   9.470
  819POPC   PO412948  20.929  36.579   9.525
  819POPC   GL112949  21.210  36.425   9.136
  819POPC   GL212950  21.365  36.053   9.115
  819POPC   C1A12951  21.399  36.372   8.671
  819POPC   D2A12952  21.432  36.416   8.184
  819POPC   C3A12953  21.172  36.205   7.884
  819POPC   C4A12954  21.043  35.736   7.817
  819POPC   C1B12955  21.716  35.985   8.794
  819POPC   C2B12956  21.766  35.847   8.331
  819POPC   C3B12957  21.615  35.922   7.886
  819POPC   C4B12958  21.652  36.284   7.612
  820POPC   NC312959  41.210  28.665   9.368
  820POPC   PO412960  41.482  29.193   9.508
  820POPC   GL112961  41.440  29.130   9.087
  820POPC   GL212962  41.728  28.927   9.000
  820POPC   C1A12963  41.474  29.277   8.659
  820POPC   D2A12964  41.237  29.333   8.287
  820POPC   C3A12965  41.474  29.316   7.949
  820POPC   C4A12966  41.422  29.547   7.603
  820POPC   C1B12967  41.349  28.769   8.748
  820POPC   C2B12968  41.146  28.765   8.343
  820POPC   C3B12969  41.296  28.816   7.936
  820POPC   C4B12970  41.528  28.955   7.591
  821POPC   NC312971  42.665   6.556   9.392
  821POPC   PO412972  43.324   6.450   9.582
  821POPC   GL112973  43.299   6.669   9.166
  821POPC   GL212974  43.078   6.450   9.088
  821POPC   C1A12975  43.332   6.902   8.720
  821POPC   D2A12976  43.559   6.766   8.363
  821POPC   C3A12977  43.389   6.852   7.957
  821POPC   C4A12978  43.114   7.000   7.662
  821POPC   C1B12979  42.991   6.520   8.687
  821POPC   C2B12980  43.057   6.643   8.306
  821POPC   C3B12981  42.864   6.609   7.954
  821POPC   C4B12982  42.989   6.460   7.605
  822POPC   NC312983   4.956  28.081   9.739
  822POPC   PO412984   5.344  28.515   9.437
  822POPC   GL112985   5.076  28.251   9.212
  822POPC   GL212986   4.844  28.461   9.007
  822POPC   C1A12987   5.147  28.145   8.765
  822POPC   D2A12988   5.076  28.483   8.427
  822POPC   C3A12989   5.410  28.596   8.105
  822POPC   C4A12990   5.217  28.615   7.713
  822POPC   C1B12991   4.664  28.245   8.644
  822POPC   C2B12992   4.697  28.114   8.226
  822POPC   C3B12993   4.739  28.348   7.835
  822POPC   C4B12994   4.731  28.202   7.409
  823POPC   NC312995  22.917  44.970   9.475
  823POPC   PO412996  22.585  44.426   9.618
  823POPC   GL112997  22.662  44.544   9.181
  823POPC   GL212998  23.006  44.573   9.135
  823POPC   C1A12999  22.736  44.837   8.782
  823POPC   D2A13000  22.930  44.999   8.364
  823POPC   C3A13001  22.831  44.745   7.996
  823POPC   C4A13002  22.494  44.735   7.742
  823POPC   C1B13003  22.970  44.333   8.806
  823POPC   C2B13004  22.911  44.344   8.385
  823POPC   C3B13005  23.217  44.400   8.098
  823POPC   C4B13006  23.252  44.265   7.701
  824POPC   NC313007   8.005  26.308   9.540
  824POPC   PO413008   8.627  25.978   9.751
  824POPC   GL113009   8.458  26.128   9.299
  824POPC   GL213010   8.497  25.853   9.098
  824POPC   C1A13011   8.152  26.175   8.931
  824POPC   D2A13012   8.067  26.352   8.549
  824POPC   C3A13013   8.309  26.302   8.182
  824POPC   C4A13014   8.197  26.065   7.825
  824POPC   C1B13015   8.325  25.726   8.736
  824POPC   C2B13016   8.238  25.823   8.331
  824POPC   C3B13017   7.958  25.659   8.057
  824POPC   C4B13018   8.114  25.559   7.654
  825POPC   NC313019  25.175  20.098   9.340
  825POPC   PO413020  25.275  20.711   9.486
  825POPC   GL113021  25.244  20.572   9.111
  825POPC   GL213022  25.535  20.366   9.090
  825POPC   C1A13023  25.354  20.727   8.731
  825POPC   D2A13024  25.514  20.528   8.381
  825POPC   C3A13025  25.319  20.633   8.027
  825POPC   C4A13026  25.291  20.874   7.684
  825POPC   C1B13027  25.675  20.108   8.755
  825POPC   C2B13028  25.665  19.960   8.346
  825POPC   C3B13029  25.594  20.156   7.988
  825POPC   C4B13030  25.178  20.184   7.822
  826POPC   NC313031  44.509  25.423   9.485
  826POPC   PO413032  44.373  24.778   9.446
  826POPC   GL113033  44.516  25.068   9.116
  826POPC   GL213034  44.900  25.183   9.215
  826POPC   C1A13035  44.395  24.984   8.690
  826POPC   D2A13036  44.649  25.040   8.339
  826POPC   C3A13037  44.391  25.073   7.982
  826POPC   C4A13038  44.488  25.367   7.673
  826POPC   C1B13039  44.880  25.384   8.811
  826POPC   C2B13040   0.006  25.426   8.373
  826POPC   C3B13041  44.909  25.269   7.947
  826POPC   C4B13042   0.179  25.055   7.639
  827POPC   NC313043   2.382  37.813   9.402
  827POPC   PO413044   3.034  37.852   9.434
  827POPC   GL113045   2.777  37.803   9.096
  827POPC   GL213046   2.666  37.457   9.168
  827POPC   C1A13047   2.551  37.880   8.722
  827POPC   D2A13048   2.332  37.779   8.352
  827POPC   C3A13049   2.548  38.001   8.000
  827POPC   C4A13050   2.918  37.986   7.781
  827POPC   C1B13051   2.807  37.426   8.762
  827POPC   C2B13052   2.766  37.535   8.337
  827POPC   C3B13053   2.725  37.510   7.893
  827POPC   C4B13054   2.902  37.403   7.470
  828POPC   NC313055  18.306  37.235   9.332
  828POPC   PO413056  18.667  36.718   9.585
  828POPC   GL113057  18.472  36.716   9.175
  828POPC   GL213058  18.127  36.755   9.138
  828POPC   C1A13059  18.509  36.522   8.774
  828POPC   D2A13060  18.674  36.773   8.440
  828POPC   C3A13061  18.542  36.660   8.041
  828POPC   C4A13062  18.516  36.650   7.607
  828POPC   C1B13063  18.222  36.934   8.710
  828POPC   C2B13064  18.249  37.033   8.264
  828POPC   C3B13065  18.269  37.036   7.817
  828POPC   C4B13066  18.267  37.094   7.355
  829POPC   NC313067   8.410  30.529   9.493
  829POPC   PO413068   7.811  30.908   9.490
  829POPC   GL113069   8.008  30.661   9.219
  829POPC   GL213070   8.316  30.856   9.128
  829POPC   C1A13071   8.034  30.542   8.819
  829POPC   D2A13072   8.113  30.736   8.441
  829POPC   C3A13073   8.256  30.506   8.109
  829POPC   C4A13074   8.349  30.388   7.699
  829POPC   C1B13075   8.536  30.538   8.849
  829POPC   C2B13076   8.649  30.599   8.440
  829POPC   C3B13077   8.623  30.865   8.091
  829POPC   C4B13078   8.730  30.796   7.673
  830POPC   NC313079   4.361  31.240   9.720
  830POPC   PO413080   4.518  31.884   9.462
  830POPC   GL113081   4.256  31.614   9.159
  830POPC   GL213082   4.377  31.331   8.932
  830POPC   C1A13083   3.980  31.562   8.777
  830POPC   D2A13084   4.225  31.424   8.444
  830POPC   C3A13085   4.165  31.661   8.086
  830POPC   C4A13086   4.076  31.484   7.711
  830POPC   C1B13087   4.701  31.232   8.665
  830POPC   C2B13088   4.585  30.984   8.355
  830POPC   C3B13089   4.368  31.124   8.040
  830POPC   C4B13090   4.639  30.973   7.766
  831POPC   NC313091  25.568  18.959   9.337
  831POPC   PO413092  26.106  19.222   9.596
  831POPC   GL113093  26.226  19.187   9.175
  831POPC   GL213094  26.031  18.915   9.118
  831POPC   C1A13095  26.274  19.162   8.724
  831POPC   D2A13096  26.037  19.125   8.354
  831POPC   C3A13097  26.246  19.111   7.986
  831POPC   C4A13098  26.008  19.210   7.658
  831POPC   C1B13099  25.739  19.128   8.764
  831POPC   C2B13100  25.537  18.857   8.440
  831POPC   C3B13101  25.740  18.807   8.050
  831POPC   C4B13102  25.755  18.775   7.617
  832POPC   NC313103  20.672   3.511   9.465
  832POPC   PO413104  21.154   3.949   9.282
  832POPC   GL113105  20.882   3.651   9.023
  832POPC   GL213106  20.856   3.240   9.085
  832POPC   C1A13107  20.505   3.742   8.771
  832POPC   D2A13108  20.386   3.583   8.375
  832POPC   C3A13109  20.556   3.734   7.984
  832POPC   C4A13110  20.418   3.634   7.571
  832POPC   C1B13111  20.669   3.261   8.697
  832POPC   C2B13112  20.834   3.340   8.283
  832POPC   C3B13113  20.745   3.274   7.861
  832POPC   C4B13114  21.032   3.129   7.567
  833POPC   NC313115  33.385   7.453   9.504
  833POPC   PO413116  34.073   7.692   9.462
  833POPC   GL113117  34.029   7.527   9.058
  833POPC   GL213118  33.673   7.511   9.071
  833POPC   C1A13119  34.111   7.213   8.723
  833POPC   D2A13120  34.190   7.329   8.299
  833POPC   C3A13121  34.125   7.127   7.920
  833POPC   C4A13122  34.123   7.351   7.546
  833POPC   C1B13123  33.591   7.149   8.828
  833POPC   C2B13124  33.709   7.139   8.421
  833POPC   C3B13125  33.710   7.370   8.064
  833POPC   C4B13126  33.439   7.229   7.802
  834POPC   NC313127  10.203  23.991   9.382
  834POPC   PO413128  10.463  23.400   9.611
  834POPC   GL113129  10.476  23.553   9.186
  834POPC   GL213130  10.493  23.871   8.993
  834POPC   C1A13131  10.692  23.479   8.770
  834POPC   D2A13132  10.616  23.808   8.486
  834POPC   C3A13133  10.656  23.667   8.096
  834POPC   C4A13134  10.591  23.526   7.717
  834POPC   C1B13135  10.203  24.036   8.723
  834POPC   C2B13136  10.275  24.183   8.359
  834POPC   C3B13137  10.581  24.186   8.114
  834POPC   C4B13138  10.460  24.008   7.772
  835POPC   NC313139  33.302  15.774   9.564
  835POPC   PO413140  32.972  16.404   9.495
  835POPC   GL113141  33.086  16.089   9.190
  835POPC   GL213142  33.444  16.017   9.139
  835POPC   C1A13143  33.091  16.104   8.753
  835POPC   D2A13144  32.858  16.086   8.365
  835POPC   C3A13145  33.187  16.053   8.048
  835POPC   C4A13146  33.276  16.161   7.631
  835POPC   C1B13147  33.407  15.708   8.821
  835POPC   C2B13148  33.185  15.678   8.435
  835POPC   C3B13149  33.399  15.587   8.044
  835POPC   C4B13150  33.187  15.675   7.685
  836POPC   NC313151  28.745  18.106   9.401
  836POPC   PO413152  28.151  17.727   9.443
  836POPC   GL113153  28.331  18.010   9.116
  836POPC   GL213154  28.016  18.044   9.027
  836POPC   C1A13155  28.438  18.335   8.745
  836POPC   D2A13156  28.322  18.482   8.277
  836POPC   C3A13157  28.478  18.525   7.809
  836POPC   C4A13158  28.272  18.336   7.416
  836POPC   C1B13159  28.121  17.936   8.641
  836POPC   C2B13160  28.074  18.004   8.246
  836POPC   C3B13161  28.409  18.040   7.982
  836POPC   C4B13162  28.606  18.002   7.590
  837POPC   NC313163   6.359   7.199   9.591
  837POPC   PO413164   6.998   7.259   9.513
  837POPC   GL113165   6.873   7.116   9.101
  837POPC   GL213166   6.484   7.166   9.093
  837POPC   C1A13167   6.781   7.278   8.676
  837POPC   D2A13168   6.617   7.589   8.391
  837POPC   C3A13169   6.856   7.581   8.008
  837POPC   C4A13170   6.991   7.924   7.793
  837POPC   C1B13171   6.266   7.260   8.696
  837POPC   C2B13172   6.439   7.132   8.289
  837POPC   C3B13173   6.402   7.378   7.902
  837POPC   C4B13174   6.248   7.314   7.458
  838POPC   NC313175   4.510  19.431   9.926
  838POPC   PO413176   4.061  19.047   9.583
  838POPC   GL113177   4.088  19.102   9.147
  838POPC   GL213178   4.111  18.771   9.061
  838POPC   C1A13179   4.181  19.362   8.776
  838POPC   D2A13180   4.051  19.218   8.358
  838POPC   C3A13181   4.354  19.297   8.045
  838POPC   C4A13182   4.495  19.661   7.837
  838POPC   C1B13183   4.309  18.870   8.687
  838POPC   C2B13184   4.194  18.698   8.305
  838POPC   C3B13185   4.191  18.830   7.898
  838POPC   C4B13186   4.563  18.931   7.648
  839POPC   NC313187  19.267  13.343   9.459
  839POPC   PO413188  18.730  13.705   9.580
  839POPC   GL113189  18.920  13.745   9.176
  839POPC   GL213190  19.287  13.749   9.166
  839POPC   C1A13191  18.777  13.680   8.760
  839POPC   D2A13192  18.617  13.566   8.349
  839POPC   C3A13193  18.770  13.719   7.958
  839POPC   C4A13194  19.018  13.809   7.568
  839POPC   C1B13195  19.330  13.624   8.761
  839POPC   C2B13196  19.144  13.670   8.382
  839POPC   C3B13197  19.288  13.625   8.002
  839POPC   C4B13198  19.513  13.649   7.657
  840POPC   NC313199   1.971   5.372   9.497
  840POPC   PO413200   2.363   4.834   9.506
  840POPC   GL113201   1.966   4.931   9.250
  840POPC   GL213202   2.206   5.153   9.076
  840POPC   C1A13203   1.771   5.029   8.818
  840POPC   D2A13204   1.628   5.288   8.456
  840POPC   C3A13205   1.557   5.090   8.041
  840POPC   C4A13206   1.723   5.252   7.632
  840POPC   C1B13207   2.234   5.197   8.633
  840POPC   C2B13208   2.052   5.090   8.219
  840POPC   C3B13209   1.984   4.872   7.821
  840POPC   C4B13210   2.239   4.805   7.447
  841POPC   NC313211  36.186   3.336   9.555
  841POPC   PO413212  35.762   2.814   9.440
  841POPC   GL113213  36.065   2.860   9.142
  841POPC   GL213214  36.321   3.109   9.134
  841POPC   C1A13215  36.109   2.942   8.712
  841POPC   D2A13216  36.048   2.744   8.349
  841POPC   C3A13217  36.023   2.922   7.971
  841POPC   C4A13218  36.202   2.543   7.835
  841POPC   C1B13219  36.580   3.152   8.786
  841POPC   C2B13220  36.566   2.880   8.453
  841POPC   C3B13221  36.523   2.908   8.037
  841POPC   C4B13222  36.423   2.937   7.600
  842POPC   NC313223  16.575  36.412   9.441
  842POPC   PO413224  17.125  35.915   9.447
  842POPC   GL113225  16.903  35.993   9.076
  842POPC   GL213226  16.557  35.977   9.178
  842POPC   C1A13227  16.942  36.359   8.786
  842POPC   D2A13228  16.688  36.411   8.400
  842POPC   C3A13229  16.892  36.197   8.102
  842POPC   C4A13230  17.100  36.382   7.806
  842POPC   C1B13231  16.482  36.149   8.783
  842POPC   C2B13232  16.461  35.965   8.359
  842POPC   C3B13233  16.479  35.996   7.908
  842POPC   C4B13234  16.281  35.964   7.550
  843POPC   NC313235  12.733  30.206   9.446
  843POPC   PO413236  13.145  29.631   9.499
  843POPC   GL113237  13.072  29.945   9.172
  843POPC   GL213238  12.756  29.795   9.067
  843POPC   C1A13239  12.963  30.167   8.789
  843POPC   D2A13240  12.635  30.032   8.551
  843POPC   C3A13241  12.708  30.068   8.115
  843POPC   C4A13242  12.611  29.794   7.806
  843POPC   C1B13243  13.100  29.676   8.751
  843POPC   C2B13244  13.112  29.840   8.326
  843POPC   C3B13245  13.132  29.848   7.867
  843POPC   C4B13246  13.238  29.783   7.422
  844POPC   NC313247   6.447  22.027   9.904
  844POPC   PO413248   5.919  22.199   9.543
  844POPC   GL113249   6.156  22.285   9.177
  844POPC   GL213250   5.884  22.219   8.995
  844POPC   C1A13251   6.314  22.177   8.751
  844POPC   D2A13252   6.089  22.251   8.390
  844POPC   C3A13253   6.353  22.306   8.042
  844POPC   C4A13254   6.203  22.335   7.638
  844POPC   C1B13255   5.870  21.887   8.700
  844POPC   C2B13256   5.675  21.917   8.288
  844POPC   C3B13257   5.799  22.027   7.859
  844POPC   C4B13258   5.896  21.815   7.466
  845POPC   NC313259  28.044   9.991   9.526
  845POPC   PO413260  28.731   9.820   9.512
  845POPC   GL113261  28.488   9.742   9.179
  845POPC   GL213262  28.291  10.020   9.092
  845POPC   C1A13263  28.665   9.844   8.803
  845POPC   D2A13264  28.589   9.991   8.407
  845POPC   C3A13265  28.379   9.680   8.225
  845POPC   C4A13266  28.525   9.526   7.842
  845POPC   C1B13267  28.125   9.705   8.782
  845POPC   C2B13268  28.052   9.361   8.476
  845POPC   C3B13269  28.066   9.317   8.029
  845POPC   C4B13270  28.052   9.682   7.783
  846POPC   NC313271  30.115  38.688   9.582
  846POPC   PO413272  29.494  38.369   9.436
  846POPC   GL113273  29.740  38.563   9.084
  846POPC   GL213274  30.007  38.835   9.077
  846POPC   C1A13275  29.715  38.418   8.686
  846POPC   D2A13276  29.652  38.268   8.253
  846POPC   C3A13277  30.013  38.078   8.135
  846POPC   C4A13278  29.974  38.201   7.763
  846POPC   C1B13279  30.184  38.711   8.698
  846POPC   C2B13280  30.044  38.578   8.332
  846POPC   C3B13281  29.938  38.689   7.965
  846POPC   C4B13282  30.300  38.592   7.824
  847POPC   NC313283  33.638   9.640   9.901
  847POPC   PO413284  34.117   9.999   9.681
  847POPC   GL113285  34.114   9.694   9.223
  847POPC   GL213286  33.748   9.674   9.020
  847POPC   C1A13287  34.159   9.660   8.728
  847POPC   D2A13288  34.067   9.936   8.347
  847POPC   C3A13289  33.971   9.734   7.944
  847POPC   C4A13290  33.726   9.418   7.759
  847POPC   C1B13291  33.630   9.884   8.653
  847POPC   C2B13292  33.590   9.711   8.276
  847POPC   C3B13293  33.416   9.814   7.915
  847POPC   C4B13294  33.308  10.212   7.749
  848POPC   NC313295  38.825  43.131   9.741
  848POPC   PO413296  38.408  42.782   9.359
  848POPC   GL113297  38.508  42.943   9.033
  848POPC   GL213298  38.870  42.816   9.135
  848POPC   C1A13299  38.514  43.113   8.638
  848POPC   D2A13300  38.604  43.399   8.335
  848POPC   C3A13301  38.493  43.171   8.008
  848POPC   C4A13302  38.160  42.835   8.020
  848POPC   C1B13303  38.724  42.610   8.750
  848POPC   C2B13304  38.548  42.674   8.367
  848POPC   C3B13305  38.648  42.697   7.959
  848POPC   C4B13306  38.441  42.854   7.600
  849POPC   NC313307  29.532  12.192   9.478
  849POPC   PO413308  30.156  11.825   9.522
  849POPC   GL113309  29.959  11.868   9.141
  849POPC   GL213310  29.938  12.236   9.107
  849POPC   C1A13311  30.180  11.866   8.739
  849POPC   D2A13312  30.329  12.118   8.373
  849POPC   C3A13313  30.220  11.955   7.951
  849POPC   C4A13314  30.049  11.971   7.507
  849POPC   C1B13315  29.799  12.228   8.680
  849POPC   C2B13316  29.635  12.344   8.278
  849POPC   C3B13317  29.755  12.246   7.881
  849POPC   C4B13318  29.910  12.493   7.579
  850POPC   NC313319  15.417  39.655   9.493
  850POPC   PO413320  16.059  39.342   9.560
  850POPC   GL113321  15.767  39.396   9.206
  850POPC   GL213322  15.793  39.737   9.151
  850POPC   C1A13323  15.727  39.242   8.769
  850POPC   D2A13324  15.773  38.965   8.377
  850POPC   C3A13325  16.102  39.019   8.093
  850POPC   C4A13326  16.136  38.973   7.688
  850POPC   C1B13327  16.072  39.622   8.829
  850POPC   C2B13328  16.155  39.403   8.439
  850POPC   C3B13329  16.039  39.519   8.027
  850POPC   C4B13330  16.098  39.466   7.592
  851POPC   NC313331   1.198  38.807   9.285
  851POPC   PO413332   1.222  38.142   9.387
  851POPC   GL113333   1.524  38.406   9.172
  851POPC   GL213334   1.667  38.140   9.024
  851POPC   C1A13335   1.529  38.580   8.731
  851POPC   D2A13336   1.419  38.866   8.354
  851POPC   C3A13337   1.326  38.640   7.939
  851POPC   C4A13338   0.934  38.397   7.763
  851POPC   C1B13339   1.383  38.091   8.726
  851POPC   C2B13340   1.447  38.259   8.325
  851POPC   C3B13341   1.345  38.126   7.929
  851POPC   C4B13342   1.256  38.080   7.539
  852POPC   NC313343  22.689   2.958   9.418
  852POPC   PO413344  23.190   2.508   9.468
  852POPC   GL113345  22.880   2.543   9.162
  852POPC   GL213346  23.056   2.853   9.058
  852POPC   C1A13347  22.731   2.575   8.727
  852POPC   D2A13348  22.983   2.525   8.305
  852POPC   C3A13349  22.849   2.768   7.924
  852POPC   C4A13350  22.502   2.782   7.657
  852POPC   C1B13351  23.366   3.070   8.792
  852POPC   C2B13352  23.353   3.142   8.345
  852POPC   C3B13353  23.356   2.841   8.015
  852POPC   C4B13354  23.298   2.848   7.590
  853POPC   NC313355  37.901   6.506   9.361
  853POPC   PO413356  37.384   7.021   9.467
  853POPC   GL113357  37.549   6.775   9.103
  853POPC   GL213358  37.486   6.419   9.050
  853POPC   C1A13359  37.774   6.744   8.701
  853POPC   D2A13360  37.890   6.768   8.280
  853POPC   C3A13361  37.591   6.873   7.976
  853POPC   C4A13362  37.565   6.673   7.603
  853POPC   C1B13363  37.813   6.228   8.761
  853POPC   C2B13364  37.703   6.170   8.351
  853POPC   C3B13365  37.742   6.348   7.973
  853POPC   C4B13366  37.871   6.189   7.582
  854POPC   NC313367  24.836  38.555   9.528
  854POPC   PO413368  24.515  37.898   9.598
  854POPC   GL113369  24.272  38.017   9.235
  854POPC   GL213370  24.400  38.356   9.165
  854POPC   C1A13371  24.149  38.102   8.815
  854POPC   D2A13372  24.329  38.365   8.478
  854POPC   C3A13373  24.345  38.486   8.059
  854POPC   C4A13374  24.132  38.809   7.821
  854POPC   C1B13375  24.618  38.569   8.829
  854POPC   C2B13376  24.656  38.805   8.454
  854POPC   C3B13377  24.853  38.804   8.071
  854POPC   C4B13378  24.687  38.757   7.678
  855POPC   NC313379  40.452  44.439   9.206
  855POPC   PO413380  41.026  44.462   9.631
  855POPC   GL113381  40.920  44.704   9.254
  855POPC   GL213382  40.986  44.428   9.083
  855POPC   C1A13383  40.926  44.864   8.788
  855POPC   D2A13384  41.198  44.724   8.405
  855POPC   C3A13385  41.022  44.794   7.980
  855POPC   C4A13386  40.635   0.039   7.934
  855POPC   C1B13387  40.864  44.382   8.665
  855POPC   C2B13388  40.663  44.685   8.368
  855POPC   C3B13389  40.531  44.544   7.980
  855POPC   C4B13390  40.845  44.309   7.782
  856POPC   NC313391  14.728   9.278   9.449
  856POPC   PO413392  14.085   9.032   9.464
  856POPC   GL113393  14.264   9.142   9.109
  856POPC   GL213394  14.572   8.951   9.073
  856POPC   C1A13395  14.061   9.148   8.723
  856POPC   D2A13396  13.959   9.063   8.335
  856POPC   C3A13397  14.262   9.105   7.979
  856POPC   C4A13398  14.121   9.095   7.539
  856POPC   C1B13399  14.538   9.007   8.619
  856POPC   C2B13400  14.593   8.764   8.229
  856POPC   C3B13401  14.721   8.862   7.823
  856POPC   C4B13402  14.616   9.206   7.586
  857POPC   NC313403  41.830  19.304   9.476
  857POPC   PO413404  41.484  18.720   9.375
  857POPC   GL113405  41.707  18.955   9.103
  857POPC   GL213406  41.508  19.269   9.094
  857POPC   C1A13407  41.825  19.109   8.721
  857POPC   D2A13408  41.945  18.984   8.333
  857POPC   C3A13409  41.649  19.077   8.070
  857POPC   C4A13410  41.823  19.188   7.713
  857POPC   C1B13411  41.425  19.500   8.735
  857POPC   C2B13412  41.293  19.366   8.321
  857POPC   C3B13413  41.342  19.422   7.871
  857POPC   C4B13414  41.462  19.463   7.421
  858POPC   NC313415   7.754   3.958   9.506
  858POPC   PO413416   7.528   3.364   9.419
  858POPC   GL113417   7.517   3.485   9.030
  858POPC   GL213418   7.468   3.828   9.050
  858POPC   C1A13419   7.527   3.478   8.600
  858POPC   D2A13420   7.595   3.826   8.310
  858POPC   C3A13421   7.501   3.654   7.902
  858POPC   C4A13422   7.421   3.400   7.521
  858POPC   C1B13423   7.170   3.828   8.682
  858POPC   C2B13424   7.138   3.573   8.286
  858POPC   C3B13425   7.004   3.758   7.894
  858POPC   C4B13426   7.061   3.793   7.477
  859POPC   NC313427  37.530   1.797   9.558
  859POPC   PO413428  38.086   2.079   9.461
  859POPC   GL113429  37.755   1.955   9.137
  859POPC   GL213430  37.614   2.239   9.058
  859POPC   C1A13431  37.432   1.873   8.784
  859POPC   D2A13432  37.648   1.938   8.411
  859POPC   C3A13433  37.452   1.817   8.049
  859POPC   C4A13434  37.580   1.732   7.608
  859POPC   C1B13435  37.777   2.426   8.733
  859POPC   C2B13436  37.589   2.449   8.346
  859POPC   C3B13437  37.698   2.243   7.964
  859POPC   C4B13438  37.926   2.205   7.623
  860POPC   NC313439  44.089  22.811   9.468
  860POPC   PO413440  43.660  23.273   9.539
  860POPC   GL113441  43.697  23.054   9.147
  860POPC   GL213442  43.775  22.739   9.013
  860POPC   C1A13443  43.759  23.196   8.724
  860POPC   D2A13444  43.735  22.887   8.392
  860POPC   C3A13445  43.798  23.102   8.002
  860POPC   C4A13446  43.456  23.202   7.724
  860POPC   C1B13447  43.958  22.495   8.669
  860POPC   C2B13448  44.101  22.561   8.292
  860POPC   C3B13449  44.007  22.645   7.885
  860POPC   C4B13450  43.777  22.809   7.552
  861POPC   NC313451   5.365  15.648   9.468
  861POPC   PO413452   4.902  16.152   9.480
  861POPC   GL113453   5.022  15.865   9.170
  861POPC   GL213454   5.362  15.894   8.999
  861POPC   C1A13455   4.939  15.681   8.812
  861POPC   D2A13456   5.195  15.675   8.427
  861POPC   C3A13457   5.085  15.973   8.103
  861POPC   C4A13458   5.056  15.906   7.683
  861POPC   C1B13459   5.449  16.116   8.596
  861POPC   C2B13460   5.334  16.394   8.241
  861POPC   C3B13461   5.428  16.358   7.793
  861POPC   C4B13462   5.314  16.181   7.329
  862POPC   NC313463  13.712  44.134   9.259
  862POPC   PO413464  13.805  44.713   9.513
  862POPC   GL113465  13.670  44.781   9.098
  862POPC   GL213466  13.305  44.829   9.030
  862POPC   C1A13467  13.700  44.604   8.726
  862POPC   D2A13468  13.501  44.657   8.362
  862POPC   C3A13469  13.811  44.594   8.063
  862POPC   C4A13470  13.748  44.870   7.733
  862POPC   C1B13471  13.206  44.432   8.773
  862POPC   C2B13472  13.263  44.216   8.352
  862POPC   C3B13473  13.369  44.398   7.880
  862POPC   C4B13474  13.417  44.396   7.372
  863POPC   NC313475  34.684  27.943   9.336
  863POPC   PO413476  34.852  28.535   9.520
  863POPC   GL113477  34.739  28.379   9.113
  863POPC   GL213478  34.370  28.302   9.141
  863POPC   C1A13479  34.659  28.141   8.714
  863POPC   D2A13480  34.543  28.362   8.333
  863POPC   C3A13481  34.735  28.313   7.909
  863POPC   C4A13482  35.018  28.579   7.693
  863POPC   C1B13483  34.176  28.282   8.752
  863POPC   C2B13484  34.094  28.118   8.379
  863POPC   C3B13485  34.223  28.242   7.953
  863POPC   C4B13486  34.150  28.365   7.519
  864POPC   NC313487  22.678   8.714   9.462
  864POPC   PO413488  23.110   9.222   9.589
  864POPC   GL113489  23.024   9.001   9.216
  864POPC   GL213490  22.669   9.102   9.150
  864POPC   C1A13491  22.961   8.788   8.834
  864POPC   D2A13492  23.098   8.695   8.412
  864POPC   C3A13493  22.785   8.700   8.073
  864POPC   C4A13494  23.010   8.634   7.672
  864POPC   C1B13495  22.573   9.083   8.698
  864POPC   C2B13496  22.872   9.211   8.398
  864POPC   C3B13497  22.946   9.186   7.982
  864POPC   C4B13498  22.715   9.054   7.658
  865POPC   NC313499   7.138  29.210   9.618
  865POPC   PO413500   7.531  29.629   9.504
  865POPC   GL113501   7.495  29.287   9.204
  865POPC   GL213502   7.140  29.276   9.125
  865POPC   C1A13503   7.647  29.197   8.767
  865POPC   D2A13504   7.501  29.074   8.334
  865POPC   C3A13505   7.603  29.271   7.896
  865POPC   C4A13506   7.578  29.435   7.446
  865POPC   C1B13507   7.164  29.027   8.760
  865POPC   C2B13508   6.960  28.987   8.379
  865POPC   C3B13509   7.092  29.199   8.018
  865POPC   C4B13510   7.027  29.208   7.619
  866POPC   NC313511   7.872  35.182   9.399
  866POPC   PO413512   8.490  35.039   9.353
  866POPC   GL113513   8.346  35.273   9.007
  866POPC   GL213514   7.973  35.301   8.945
  866POPC   C1A13515   8.278  35.255   8.576
  866POPC   D2A13516   8.151  35.049   8.264
  866POPC   C3A13517   8.378  35.295   7.964
  866POPC   C4A13518   8.458  35.182   7.547
  866POPC   C1B13519   7.842  35.603   8.695
  866POPC   C2B13520   7.914  35.500   8.301
  866POPC   C3B13521   7.889  35.401   7.887
  866POPC   C4B13522   7.826  35.650   7.598
  867POPC   NC313523  27.046   6.439   9.416
  867POPC   PO413524  26.816   5.746   9.534
  867POPC   GL113525  26.821   5.851   9.107
  867POPC   GL213526  27.092   6.054   9.097
  867POPC   C1A13527  26.762   5.982   8.653
  867POPC   D2A13528  26.812   6.307   8.275
  867POPC   C3A13529  26.698   6.164   7.830
  867POPC   C4A13530  26.591   5.959   7.422
  867POPC   C1B13531  27.309   5.680   8.943
  867POPC   C2B13532  27.245   5.648   8.527
  867POPC   C3B13533  27.187   5.753   8.129
  867POPC   C4B13534  27.077   5.838   7.696
  868POPC   NC313535  15.634  23.970   9.486
  868POPC   PO413536  16.207  24.213   9.637
  868POPC   GL113537  15.974  24.389   9.264
  868POPC   GL213538  16.135  24.674   9.060
  868POPC   C1A13539  15.651  24.539   8.957
  868POPC   D2A13540  15.761  24.738   8.567
  868POPC   C3A13541  15.850  24.400   8.263
  868POPC   C4A13542  16.058  24.301   7.879
  868POPC   C1B13543  16.264  24.809   8.653
  868POPC   C2B13544  16.182  24.796   8.220
  868POPC   C3B13545  16.431  24.670   7.872
  868POPC   C4B13546  16.520  24.872   7.490
  869POPC   NC313547  25.591  22.853   9.410
  869POPC   PO413548  26.236  22.750   9.529
  869POPC   GL113549  26.085  22.779   9.117
  869POPC   GL213550  26.144  23.082   9.062
  869POPC   C1A13551  25.799  22.808   8.739
  869POPC   D2A13552  25.718  23.052   8.338
  869POPC   C3A13553  26.004  22.914   8.004
  869POPC   C4A13554  26.133  22.486   7.865
  869POPC   C1B13555  26.133  23.199   8.637
  869POPC   C2B13556  26.142  23.455   8.284
  869POPC   C3B13557  26.295  23.321   7.897
  869POPC   C4B13558  26.309  23.164   7.522
  870POPC   NC313559  15.390   8.958   9.596
  870POPC   PO413560  14.772   8.785   9.511
  870POPC   GL113561  15.077   8.844   9.217
  870POPC   GL213562  15.331   8.558   9.270
  870POPC   C1A13563  15.037   9.086   8.869
  870POPC   D2A13564  15.030   8.946   8.465
  870POPC   C3A13565  15.052   9.248   8.152
  870POPC   C4A13566  15.128   9.168   7.740
  870POPC   C1B13567  15.293   8.608   8.813
  870POPC   C2B13568  15.449   8.643   8.378
  870POPC   C3B13569  15.215   8.755   8.021
  870POPC   C4B13570  15.260   8.607   7.611
  871POPC   NC313571  38.148  24.303   9.429
  871POPC   PO413572  37.498  24.224   9.549
  871POPC   GL113573  37.654  24.351   9.153
  871POPC   GL213574  37.331  24.327   9.039
  871POPC   C1A13575  37.753  24.569   8.731
  871POPC   D2A13576  37.748  24.845   8.378
  871POPC   C3A13577  37.842  24.656   7.991
  871POPC   C4A13578  37.739  24.466   7.596
  871POPC   C1B13579  37.304  24.377   8.618
  871POPC   C2B13580  37.431  24.491   8.244
  871POPC   C3B13581  37.322  24.647   7.860
  871POPC   C4B13582  37.186  24.300   7.647
  872POPC   NC313583  41.741  24.973   9.422
  872POPC   PO413584  41.679  25.655   9.424
  872POPC   GL113585  41.486  25.687   9.054
  872POPC   GL213586  41.332  25.373   9.045
  872POPC   C1A13587  41.547  25.628   8.635
  872POPC   D2A13588  41.661  25.207   8.560
  872POPC   C3A13589  41.851  25.174   8.170
  872POPC   C4A13590  41.649  25.332   7.804
  872POPC   C1B13591  41.169  25.036   8.786
  872POPC   C2B13592  41.279  24.902   8.386
  872POPC   C3B13593  41.223  25.076   7.991
  872POPC   C4B13594  41.233  24.819   7.654
  873POPC   NC313595  19.752  28.978   9.457
  873POPC   PO413596  19.298  29.443   9.314
  873POPC   GL113597  19.640  29.263   9.061
  873POPC   GL213598  19.976  29.432   9.066
  873POPC   C1A13599  19.838  29.032   8.706
  873POPC   D2A13600  19.776  28.754   8.361
  873POPC   C3A13601  19.764  28.917   7.938
  873POPC   C4A13602  19.686  28.767   7.486
  873POPC   C1B13603  19.757  29.525   8.655
  873POPC   C2B13604  19.700  29.313   8.276
  873POPC   C3B13605  19.781  29.469   7.888
  873POPC   C4B13606  20.001  29.450   7.513
  874POPC   NC313607  11.004  25.847   9.506
  874POPC   PO413608  11.650  26.021   9.247
  874POPC   GL113609  11.222  25.879   9.050
  874POPC   GL213610  10.949  25.558   9.103
  874POPC   C1A13611  11.132  26.185   8.729
  874POPC   D2A13612  11.421  26.496   8.522
  874POPC   C3A13613  11.536  26.363   8.088
  874POPC   C4A13614  11.266  26.244   7.742
  874POPC   C1B13615  10.921  25.673   8.689
  874POPC   C2B13616  10.938  25.533   8.285
  874POPC   C3B13617  10.986  25.662   7.877
  874POPC   C4B13618  11.400  25.753   7.742
  875POPC   NC313619  27.692   2.838   9.920
  875POPC   PO413620  27.466   2.539   9.365
  875POPC   GL113621  27.495   2.980   9.093
  875POPC   GL213622  27.782   3.217   9.176
  875POPC   C1A13623  27.535   2.891   8.647
  875POPC   D2A13624  27.207   2.863   8.335
  875POPC   C3A13625  27.294   2.574   8.008
  875POPC   C4A13626  27.602   2.607   7.674
  875POPC   C1B13627  27.946   3.206   8.750
  875POPC   C2B13628  27.742   3.256   8.340
  875POPC   C3B13629  27.737   3.023   7.966
  875POPC   C4B13630  27.844   3.027   7.550
  876POPC   NC313631  15.253  38.872   9.720
  876POPC   PO413632  15.093  39.478   9.781
  876POPC   GL113633  15.261  39.196   9.297
  876POPC   GL213634  14.997  38.915   9.158
  876POPC   C1A13635  15.182  39.250   8.799
  876POPC   D2A13636  15.411  39.333   8.380
  876POPC   C3A13637  15.305  39.525   7.975
  876POPC   C4A13638  15.103  39.270   7.656
  876POPC   C1B13639  15.193  38.752   8.790
  876POPC   C2B13640  15.361  38.668   8.412
  876POPC   C3B13641  15.322  38.930   8.048
  876POPC   C4B13642  15.667  39.183   7.865
  877POPC   NC313643  35.748   9.755   9.470
  877POPC   PO413644  35.055   9.709   9.487
  877POPC   GL113645  35.123   9.813   9.071
  877POPC   GL213646  35.408  10.031   9.172
  877POPC   C1A13647  35.122   9.563   8.666
  877POPC   D2A13648  35.237   9.262   8.315
  877POPC   C3A13649  35.390   9.461   7.945
  877POPC   C4A13650  35.119   9.773   7.780
  877POPC   C1B13651  35.533   9.838   8.778
  877POPC   C2B13652  35.626   9.669   8.378
  877POPC   C3B13653  35.740   9.845   7.978
  877POPC   C4B13654  35.561   9.891   7.594
  878POPC   NC313655   8.547  22.373   9.400
  878POPC   PO413656   8.213  21.803   9.226
  878POPC   GL113657   8.212  22.208   9.061
  878POPC   GL213658   7.881  22.315   8.990
  878POPC   C1A13659   8.353  22.373   8.664
  878POPC   D2A13660   8.485  22.450   8.226
  878POPC   C3A13661   8.454  22.079   7.941
  878POPC   C4A13662   8.199  22.330   7.679
  878POPC   C1B13663   8.010  21.980   8.664
  878POPC   C2B13664   8.106  22.078   8.298
  878POPC   C3B13665   7.968  21.933   7.934
  878POPC   C4B13666   8.111  21.835   7.496
  879POPC   NC313667  17.255  13.059   9.387
  879POPC   PO413668  17.853  12.748   9.349
  879POPC   GL113669  17.582  12.883   9.033
  879POPC   GL213670  17.273  12.752   8.964
  879POPC   C1A13671  17.726  12.812   8.651
  879POPC   D2A13672  17.555  12.615   8.347
  879POPC   C3A13673  17.736  12.793   8.009
  879POPC   C4A13674  17.731  12.684   7.596
  879POPC   C1B13675  17.269  13.052   8.627
  879POPC   C2B13676  17.230  12.979   8.177
  879POPC   C3B13677  17.270  12.689   7.820
  879POPC   C4B13678  17.302  12.757   7.347
  880POPC   NC313679  40.379  40.587   9.454
  880POPC   PO413680  41.086  40.509   9.462
  880POPC   GL113681  40.931  40.795   9.146
  880POPC   GL213682  40.604  40.865   9.077
  880POPC   C1A13683  41.109  40.922   8.792
  880POPC   D2A13684  40.975  40.747   8.431
  880POPC   C3A13685  41.077  40.898   8.040
  880POPC   C4A13686  40.887  40.770   7.668
  880POPC   C1B13687  40.566  40.570   8.718
  880POPC   C2B13688  40.517  40.555   8.271
  880POPC   C3B13689  40.503  40.870   7.967
  880POPC   C4B13690  40.486  41.006   7.514
  881POPC   NC313691  44.087  32.029   9.478
  881POPC   PO413692  44.454  32.588   9.705
  881POPC   GL113693  44.274  32.595   9.248
  881POPC   GL213694  44.070  32.328   9.083
  881POPC   C1A13695  44.218  32.695   8.787
  881POPC   D2A13696  43.967  32.440   8.508
  881POPC   C3A13697  44.075  32.468   8.075
  881POPC   C4A13698  44.330  32.270   7.805
  881POPC   C1B13699  43.798  32.061   8.815
  881POPC   C2B13700  43.830  31.807   8.414
  881POPC   C3B13701  43.850  31.957   7.977
  881POPC   C4B13702  43.618  32.334   7.864
  882POPC   NC313703  43.790  14.978   9.325
  882POPC   PO413704  43.598  15.568   9.516
  882POPC   GL113705  43.776  15.520   9.114
  882POPC   GL213706  44.121  15.419   9.138
  882POPC   C1A13707  43.828  15.274   8.736
  882POPC   D2A13708  43.900  15.049   8.379
  882POPC   C3A13709  43.856  15.220   7.989
  882POPC   C4A13710  43.883  14.863   7.769
  882POPC   C1B13711  44.294  15.546   8.733
  882POPC   C2B13712  44.182  15.534   8.291
  882POPC   C3B13713  44.247  15.546   7.846
  882POPC   C4B13714  44.226  15.204   7.586
  883POPC   NC313715   7.109  35.127   9.401
  883POPC   PO413716   7.638  35.456   9.683
  883POPC   GL113717   7.493  35.449   9.216
  883POPC   GL213718   7.488  35.124   9.042
  883POPC   C1A13719   7.309  35.550   8.825
  883POPC   D2A13720   7.401  35.512   8.391
  883POPC   C3A13721   7.195  35.285   8.062
  883POPC   C4A13722   7.365  35.505   7.731
  883POPC   C1B13723   7.641  35.095   8.618
  883POPC   C2B13724   7.640  35.075   8.172
  883POPC   C3B13725   7.556  35.041   7.722
  883POPC   C4B13726   7.162  35.088   7.506
  884POPC   NC313727  34.010  19.802   9.310
  884POPC   PO413728  34.684  19.680   9.472
  884POPC   GL113729  34.541  19.885   9.127
  884POPC   GL213730  34.860  19.857   8.946
  884POPC   C1A13731  34.355  19.828   8.731
  884POPC   D2A13732  34.625  19.793   8.364
  884POPC   C3A13733  34.447  19.918   7.954
  884POPC   C4A13734  34.688  19.734   7.636
  884POPC   C1B13735  34.726  20.171   8.661
  884POPC   C2B13736  34.800  20.313   8.243
  884POPC   C3B13737  34.700  20.320   7.807
  884POPC   C4B13738  34.461  20.226   7.445
  885POPC   NC313739   6.474  19.490   9.409
  885POPC   PO413740   6.911  20.004   9.481
  885POPC   GL113741   6.709  19.939   9.128
  885POPC   GL213742   6.910  19.708   8.999
  885POPC   C1A13743   6.598  20.129   8.744
  885POPC   D2A13744   6.362  19.971   8.420
  885POPC   C3A13745   6.550  19.855   8.023
  885POPC   C4A13746   6.429  20.035   7.625
  885POPC   C1B13747   6.604  19.588   8.635
  885POPC   C2B13748   6.365  19.418   8.237
  885POPC   C3B13749   6.220  19.545   7.791
  885POPC   C4B13750   6.595  19.586   7.496
  886POPC   NC313751   0.154  19.045   9.416
  886POPC   PO413752   0.659  18.601   9.452
  886POPC   GL113753   0.698  18.896   9.121
  886POPC   GL213754   0.638  19.246   9.243
  886POPC   C1A13755   0.511  19.065   8.738
  886POPC   D2A13756   0.317  18.957   8.332
  886POPC   C3A13757   0.541  18.894   7.945
  886POPC   C4A13758   0.373  18.918   7.517
  886POPC   C1B13759   0.808  19.484   8.884
  886POPC   C2B13760   0.747  19.458   8.464
  886POPC   C3B13761   0.539  19.384   8.085
  886POPC   C4B13762   0.676  19.314   7.654
  887POPC   NC313763   0.733   4.179   9.545
  887POPC   PO413764   0.178   4.515   9.573
  887POPC   GL113765   0.311   4.381   9.198
  887POPC   GL213766   0.084   4.137   9.065
  887POPC   C1A13767   0.611   4.323   8.875
  887POPC   D2A13768   0.571   4.149   8.484
  887POPC   C3A13769   0.686   4.417   8.199
  887POPC   C4A13770   0.686   4.342   7.774
  887POPC   C1B13771   0.008   4.488   8.789
  887POPC   C2B13772   0.161   4.584   8.385
  887POPC   C3B13773   0.225   4.481   7.987
  887POPC   C4B13774   0.336   4.674   7.649
  888POPC   NC313775  30.895  15.752   9.469
  888POPC   PO413776  30.331  16.118   9.572
  888POPC   GL113777  30.486  16.050   9.169
  888POPC   GL213778  30.495  15.706   9.046
  888POPC   C1A13779  30.694  16.127   8.773
  888POPC   D2A13780  30.704  15.910   8.397
  888POPC   C3A13781  30.714  16.095   7.997
  888POPC   C4A13782  30.492  15.917   7.709
  888POPC   C1B13783  30.906  15.659   8.813
  888POPC   C2B13784  31.167  15.700   8.456
  888POPC   C3B13785  31.050  15.719   8.067
  888POPC   C4B13786  30.774  15.496   7.789
  889POPC   NC313787  15.272  29.531   9.755
  889POPC   PO413788  14.832  30.015   9.531
  889POPC   GL113789  15.019  30.208   9.172
  889POPC   GL213790  15.377  30.222   9.122
  889POPC   C1A13791  14.992  30.077   8.759
  889POPC   D2A13792  14.865  29.955   8.385
  889POPC   C3A13793  15.167  30.006   8.107
  889POPC   C4A13794  15.163  29.758   7.777
  889POPC   C1B13795  15.481  29.948   8.761
  889POPC   C2B13796  15.363  29.697   8.477
  889POPC   C3B13797  15.495  29.573   8.100
  889POPC   C4B13798  15.693  29.677   7.726
  890POPC   NC313799  23.387  33.435   9.397
  890POPC   PO413800  23.909  33.696   9.680
  890POPC   GL113801  23.855  33.366   9.286
  890POPC   GL213802  23.781  32.996   9.200
  890POPC   C1A13803  23.690  33.337   8.831
  890POPC   D2A13804  23.753  33.142   8.429
  890POPC   C3A13805  23.498  33.211   8.050
  890POPC   C4A13806  23.769  33.194   7.680
  890POPC   C1B13807  23.543  32.832   8.810
  890POPC   C2B13808  23.638  32.648   8.413
  890POPC   C3B13809  23.758  32.779   8.016
  890POPC   C4B13810  23.458  32.750   7.690
  891POPC   NC313811  44.152  13.179   9.418
  891POPC   PO413812  43.696  12.696   9.490
  891POPC   GL113813  43.828  12.869   9.121
  891POPC   GL213814  44.164  12.798   9.078
  891POPC   C1A13815  43.755  13.053   8.698
  891POPC   D2A13816  43.602  12.938   8.296
  891POPC   C3A13817  43.913  13.001   7.970
  891POPC   C4A13818  43.839  13.120   7.580
  891POPC   C1B13819  43.925  12.570   8.713
  891POPC   C2B13820  43.973  12.600   8.289
  891POPC   C3B13821  43.819  12.500   7.895
  891POPC   C4B13822  44.037  12.635   7.531
  892POPC   NC313823  42.518  26.635   9.536
  892POPC   PO413824  41.909  26.973   9.636
  892POPC   GL113825  42.346  26.952   9.192
  892POPC   GL213826  42.334  26.699   8.951
  892POPC   C1A13827  42.331  27.181   8.768
  892POPC   D2A13828  42.177  27.237   8.366
  892POPC   C3A13829  42.509  27.137   8.061
  892POPC   C4A13830  42.510  26.729   7.863
  892POPC   C1B13831  42.468  26.432   8.645
  892POPC   C2B13832  42.381  26.411   8.229
  892POPC   C3B13833  42.049  26.577   7.963
  892POPC   C4B13834  42.104  26.626   7.495
  893POPC   NC313835  40.818  20.628   9.537
  893POPC   PO413836  40.194  21.002   9.479
  893POPC   GL113837  40.517  20.838   9.162
  893POPC   GL213838  40.634  20.474   9.085
  893POPC   C1A13839  40.600  20.814   8.711
  893POPC   D2A13840  40.771  20.578   8.374
  893POPC   C3A13841  40.810  20.807   7.991
  893POPC   C4A13842  40.819  20.774   7.540
  893POPC   C1B13843  41.020  20.425   8.820
  893POPC   C2B13844  41.152  20.257   8.415
  893POPC   C3B13845  40.905  20.239   8.000
  893POPC   C4B13846  40.728  20.158   7.579
  894POPC   NC313847  42.808  39.315   9.580
  894POPC   PO413848  42.280  39.511   9.722
  894POPC   GL113849  42.178  39.325   9.293
  894POPC   GL213850  42.506  39.218   9.158
  894POPC   C1A13851  42.185  39.417   8.814
  894POPC   D2A13852  42.308  39.573   8.373
  894POPC   C3A13853  42.148  39.295   8.020
  894POPC   C4A13854  42.065  38.990   7.650
  894POPC   C1B13855  42.659  39.088   8.734
  894POPC   C2B13856  42.577  39.101   8.277
  894POPC   C3B13857  42.555  39.004   7.816
  894POPC   C4B13858  42.430  38.638   7.538
  895POPC   NC313859   3.647  14.633   9.580
  895POPC   PO413860   3.766  13.926   9.501
  895POPC   GL113861   3.611  14.238   9.206
  895POPC   GL213862   3.802  14.553   9.117
  895POPC   C1A13863   3.538  14.150   8.776
  895POPC   D2A13864   3.414  14.291   8.358
  895POPC   C3A13865   3.576  14.151   7.959
  895POPC   C4A13866   3.560  14.228   7.499
  895POPC   C1B13867   3.436  14.637   8.883
  895POPC   C2B13868   3.261  14.767   8.490
  895POPC   C3B13869   3.239  14.660   8.041
  895POPC   C4B13870   3.577  14.639   7.774
  896POPC   NC313871  23.207  22.104   9.194
  896POPC   PO413872  23.586  22.386   9.666
  896POPC   GL113873  23.718  22.268   9.197
  896POPC   GL213874  23.900  21.939   9.191
  896POPC   C1A13875  23.660  22.092   8.727
  896POPC   D2A13876  23.686  22.077   8.266
  896POPC   C3A13877  23.473  22.380   7.983
  896POPC   C4A13878  23.581  22.447   7.543
  896POPC   C1B13879  24.123  21.875   8.803
  896POPC   C2B13880  24.177  21.742   8.384
  896POPC   C3B13881  24.084  21.873   7.982
  896POPC   C4B13882  23.730  21.977   7.731
  897POPC   NC313883  18.235  36.500   9.595
  897POPC   PO413884  18.621  36.024   9.280
  897POPC   GL113885  18.224  36.240   9.148
  897POPC   GL213886  17.956  35.998   9.142
  897POPC   C1A13887  18.007  36.389   8.768
  897POPC   D2A13888  18.180  36.513   8.362
  897POPC   C3A13889  18.183  36.321   7.926
  897POPC   C4A13890  18.606  36.177   7.812
  897POPC   C1B13891  18.200  35.911   8.748
  897POPC   C2B13892  18.350  35.705   8.382
  897POPC   C3B13893  18.519  35.701   7.970
  897POPC   C4B13894  18.301  35.813   7.631
  898POPC   NC313895  24.131   1.324   9.513
  898POPC   PO413896  24.834   1.194   9.483
  898POPC   GL113897  24.661   1.166   9.092
  898POPC   GL213898  24.314   1.095   9.108
  898POPC   C1A13899  24.542   1.144   8.648
  898POPC   D2A13900  24.583   0.979   8.247
  898POPC   C3A13901  24.621   1.178   7.866
  898POPC   C4A13902  24.583   1.267   7.460
  898POPC   C1B13903  24.111   0.862   8.777
  898POPC   C2B13904  24.133   0.794   8.340
  898POPC   C3B13905  24.292   0.772   7.883
  898POPC   C4B13906  24.182   0.938   7.467
  899POPC   NC313907  20.848  40.706   9.425
  899POPC   PO413908  20.206  40.454   9.352
  899POPC   GL113909  20.400  40.747   9.099
  899POPC   GL213910  20.653  40.998   9.043
  899POPC   C1A13911  20.281  40.827   8.700
  899POPC   D2A13912  20.444  40.626   8.348
  899POPC   C3A13913  20.289  40.819   7.989
  899POPC   C4A13914  20.430  40.659   7.611
  899POPC   C1B13915  20.785  40.802   8.713
  899POPC   C2B13916  20.955  40.831   8.319
  899POPC   C3B13917  20.833  40.711   7.917
  899POPC   C4B13918  20.917  41.037   7.626
  900POPC   NC313919  23.476  32.461   9.403
  900POPC   PO413920  23.937  32.110   9.668
  900POPC   GL113921  23.907  32.232   9.235
  900POPC   GL213922  23.649  31.999   9.228
  900POPC   C1A13923  23.692  32.290   8.791
  900POPC   D2A13924  23.435  32.177   8.401
  900POPC   C3A13925  23.606  32.293   7.950
  900POPC   C4A13926  23.657  32.335   7.445
  900POPC   C1B13927  23.951  31.847   8.925
  900POPC   C2B13928  23.868  31.909   8.480
  900POPC   C3B13929  23.995  31.877   8.050
  900POPC   C4B13930  24.053  32.180   7.719
  901POPC   NC313931  28.699  26.551   9.471
  901POPC   PO413932  28.127  27.014   9.441
  901POPC   GL113933  28.316  26.724   9.186
  901POPC   GL213934  28.644  26.869   9.036
  901POPC   C1A13935  28.343  26.550   8.785
  901POPC   D2A13936  28.249  26.653   8.373
  901POPC   C3A13937  28.524  26.613   8.049
  901POPC   C4A13938  28.631  26.785   7.641
  901POPC   C1B13939  28.319  27.090   8.793
  901POPC   C2B13940  28.151  27.151   8.426
  901POPC   C3B13941  28.338  27.091   8.037
  901POPC   C4B13942  28.144  27.243   7.692
  902POPC   NC313943  41.465  26.788   9.582
  902POPC   PO413944  42.095  26.562   9.355
  902POPC   GL113945  41.837  26.870   9.132
  902POPC   GL213946  41.535  26.724   9.083
  902POPC   C1A13947  41.770  27.143   8.754
  902POPC   D2A13948  41.736  26.954   8.361
  902POPC   C3A13949  41.815  27.051   7.946
  902POPC   C4A13950  41.610  26.678   7.714
  902POPC   C1B13951  41.253  26.962   8.807
  902POPC   C2B13952  41.289  27.203   8.415
  902POPC   C3B13953  41.268  27.064   7.995
  902POPC   C4B13954  41.454  27.153   7.603
  903POPC   NC313955   1.019  11.834   9.439
  903POPC   PO413956   1.481  12.315   9.675
  903POPC   GL113957   1.395  12.125   9.258
  903POPC   GL213958   1.075  12.227   9.129
  903POPC   C1A13959   1.449  12.013   8.823
  903POPC   D2A13960   1.290  12.179   8.434
  903POPC   C3A13961   1.434  12.129   8.034
  903POPC   C4A13962   1.569  11.947   7.679
  903POPC   C1B13963   0.941  11.994   8.753
  903POPC   C2B13964   0.805  12.075   8.302
  903POPC   C3B13965   0.929  12.102   7.858
  903POPC   C4B13966   0.736  12.138   7.421
  904POPC   NC313967  15.627   0.869   9.421
  904POPC   PO413968  16.156   1.268   9.465
  904POPC   GL113969  16.025   1.167   9.073
  904POPC   GL213970  16.044   1.519   9.028
  904POPC   C1A13971  16.094   1.092   8.621
  904POPC   D2A13972  16.077   1.192   8.178
  904POPC   C3A13973  15.704   1.110   7.867
  904POPC   C4A13974  15.912   1.000   7.467
  904POPC   C1B13975  15.781   1.490   8.712
  904POPC   C2B13976  15.611   1.352   8.373
  904POPC   C3B13977  15.753   1.577   8.079
  904POPC   C4B13978  16.006   1.481   7.752
  905POPC   NC313979  37.551  33.546   9.709
  905POPC   PO413980  37.830  34.162   9.460
  905POPC   GL113981  37.597  33.889   9.179
  905POPC   GL213982  37.810  33.601   9.188
  905POPC   C1A13983  37.467  33.690   8.758
  905POPC   D2A13984  37.452  33.548   8.303
  905POPC   C3A13985  37.434  33.883   7.981
  905POPC   C4A13986  37.426  34.004   7.543
  905POPC   C1B13987  37.960  33.851   8.804
  905POPC   C2B13988  37.973  33.667   8.390
  905POPC   C3B13989  37.967  33.860   8.024
  905POPC   C4B13990  38.098  34.141   7.708
  906POPC   NC313991  30.330  26.705   9.448
  906POPC   PO413992  29.838  27.032   9.609
  906POPC   GL113993  29.786  26.794   9.190
  906POPC   GL213994  29.661  26.460   9.220
  906POPC   C1A13995  29.854  26.762   8.721
  906POPC   D2A13996  29.983  26.692   8.287
  906POPC   C3A13997  29.856  26.973   7.943
  906POPC   C4A13998  29.820  27.301   7.608
  906POPC   C1B13999  29.448  26.451   8.825
  906POPC   C2B14000  29.472  26.556   8.405
  906POPC   C3B14001  29.492  26.601   7.964
  906POPC   C4B14002  29.633  26.676   7.534
  907POPC   NC314003  24.884  44.174   9.414
  907POPC   PO414004  25.471  43.856   9.523
  907POPC   GL114005  25.306  43.927   9.147
  907POPC   GL214006  25.658  44.045   9.075
  907POPC   C1A14007  25.064  43.804   8.764
  907POPC   D2A14008  25.242  43.572   8.434
  907POPC   C3A14009  25.241  43.732   8.025
  907POPC   C4A14010  24.996  44.003   7.749
  907POPC   C1B14011  25.555  43.924   8.696
  907POPC   C2B14012  25.392  44.081   8.371
  907POPC   C3B14013  25.566  44.143   7.974
  907POPC   C4B14014  25.549  43.896   7.644
  908POPC   NC314015   0.985  35.633   9.619
  908POPC   PO414016   1.517  35.823   9.264
  908POPC   GL114017   1.484  36.228   9.101
  908POPC   GL214018   1.135  36.188   9.070
  908POPC   C1A14019   1.408  36.320   8.641
  908POPC   D2A14020   1.194  36.093   8.293
  908POPC   C3A14021   1.233  36.277   7.904
  908POPC   C4A14022   1.400  36.090   7.538
  908POPC   C1B14023   0.902  36.284   8.682
  908POPC   C2B14024   0.890  36.501   8.262
  908POPC   C3B14025   0.741  36.438   7.825
  908POPC   C4B14026   0.650  36.476   7.382
  909POPC   NC314027  20.382  16.225   9.496
  909POPC   PO414028  20.393  16.885   9.442
  909POPC   GL114029  20.385  16.680   9.091
  909POPC   GL214030  20.668  16.491   9.154
  909POPC   C1A14031  20.611  16.728   8.700
  909POPC   D2A14032  20.802  16.994   8.399
  909POPC   C3A14033  20.481  16.990   8.118
  909POPC   C4A14034  20.428  16.751   7.755
  909POPC   C1B14035  20.909  16.340   8.830
  909POPC   C2B14036  21.006  16.497   8.430
  909POPC   C3B14037  20.785  16.579   8.078
  909POPC   C4B14038  20.893  16.606   7.662
  910POPC   NC314039  20.178  13.713   9.594
  910POPC   PO414040  19.684  13.355   9.294
  910POPC   GL114041  19.799  13.683   9.103
  910POPC   GL214042  19.763  14.003   9.231
  910POPC   C1A14043  19.925  13.755   8.728
  910POPC   D2A14044  19.682  13.692   8.385
  910POPC   C3A14045  19.832  13.544   8.038
  910POPC   C4A14046  19.944  13.393   7.645
  910POPC   C1B14047  19.570  14.110   8.820
  910POPC   C2B14048  19.412  14.108   8.408
  910POPC   C3B14049  19.601  14.033   8.000
  910POPC   C4B14050  19.938  13.942   7.724
  911POPC   NC314051  44.164  32.966   9.568
  911POPC   PO414052  43.722  32.429   9.462
  911POPC   GL114053  43.769  32.738   9.096
  911POPC   GL214054  43.720  33.070   9.180
  911POPC   C1A14055  43.772  32.921   8.670
  911POPC   D2A14056  43.950  32.913   8.290
  911POPC   C3A14057  43.776  32.829   7.886
  911POPC   C4A14058  44.084  32.651   7.546
  911POPC   C1B14059  44.123  33.200   8.922
  911POPC   C2B14060  44.173  33.338   8.465
  911POPC   C3B14061  43.889  33.347   8.059
  911POPC   C4B14062  44.089  33.146   7.685
  912POPC   NC314063  28.968  43.975   9.479
  912POPC   PO414064  29.440  43.475   9.451
  912POPC   GL114065  29.236  43.754   9.125
  912POPC   GL214066  28.904  43.656   9.074
  912POPC   C1A14067  29.068  44.032   8.781
  912POPC   D2A14068  29.218  44.219   8.389
  912POPC   C3A14069  29.167  44.098   8.008
  912POPC   C4A14070  29.267  43.779   7.772
  912POPC   C1B14071  28.742  43.574   8.702
  912POPC   C2B14072  28.809  43.861   8.373
  912POPC   C3B14073  28.805  43.717   7.992
  912POPC   C4B14074  28.719  43.347   7.801
  913POPC   NC314075  30.406  10.805   9.556
  913POPC   PO414076  30.926  10.628   9.854
  913POPC   GL114077  30.888  10.790   9.361
  913POPC   GL214078  31.139  10.620   9.155
  913POPC   C1A14079  30.698  10.736   8.885
  913POPC   D2A14080  30.446  10.378   8.648
  913POPC   C3A14081  30.374  10.511   8.196
  913POPC   C4A14082  30.525  10.834   7.862
  913POPC   C1B14083  31.127  10.536   8.724
  913POPC   C2B14084  30.872  10.513   8.388
  913POPC   C3B14085  30.895  10.472   7.966
  913POPC   C4B14086  31.086  10.794   7.716
  914POPC   NC314087  10.487  31.684   9.531
  914POPC   PO414088  11.135  31.469   9.537
  914POPC   GL114089  10.822  31.427   9.233
  914POPC   GL214090  10.852  31.805   9.187
  914POPC   C1A14091  10.490  31.353   8.894
  914POPC   D2A14092  10.407  31.184   8.449
  914POPC   C3A14093  10.357  31.479   8.082
  914POPC   C4A14094  10.354  31.843   7.795
  914POPC   C1B14095  10.940  31.601   8.767
  914POPC   C2B14096  10.790  31.583   8.342
  914POPC   C3B14097  10.859  31.445   7.919
  914POPC   C4B14098  11.226  31.558   7.736
  915POPC   NC314099  23.349  22.780   9.561
  915POPC   PO414100  23.887  23.029   9.652
  915POPC   GL114101  23.929  22.959   9.197
  915POPC   GL214102  23.645  22.889   9.149
  915POPC   C1A14103  23.957  22.868   8.748
  915POPC   D2A14104  23.721  22.601   8.469
  915POPC   C3A14105  23.618  22.861   8.142
  915POPC   C4A14106  23.833  22.832   7.770
  915POPC   C1B14107  23.455  23.012   8.763
  915POPC   C2B14108  23.434  23.298   8.466
  915POPC   C3B14109  23.361  23.298   8.056
  915POPC   C4B14110  23.530  23.375   7.681
  916POPC   NC314111  38.437   8.430   9.416
  916POPC   PO414112  38.791   7.914   9.439
  916POPC   GL114113  38.588   7.997   9.034
  916POPC   GL214114  38.256   8.148   9.024
  916POPC   C1A14115  38.548   8.088   8.592
  916POPC   D2A14116  38.539   7.965   8.161
  916POPC   C3A14117  38.331   8.155   7.804
  916POPC   C4A14118  38.482   8.528   7.622
  916POPC   C1B14119  38.145   8.438   8.675
  916POPC   C2B14120  38.213   8.402   8.235
  916POPC   C3B14121  38.053   8.636   7.872
  916POPC   C4B14122  38.009   8.528   7.440
  917POPC   NC314123  18.507  18.087   9.538
  917POPC   PO414124  17.996  18.454   9.442
  917POPC   GL114125  18.259  18.283   9.113
  917POPC   GL214126  18.609  18.368   9.122
  917POPC   C1A14127  18.105  18.334   8.704
  917POPC   D2A14128  17.901  18.242   8.325
  917POPC   C3A14129  17.903  18.514   7.987
  917POPC   C4A14130  18.201  18.387   7.700
  917POPC   C1B14131  18.587  18.451   8.670
  917POPC   C2B14132  18.428  18.311   8.275
  917POPC   C3B14133  18.677  18.400   7.929
  917POPC   C4B14134  18.676  18.204   7.536
  918POPC   NC314135  41.050   5.597   9.473
  918POPC   PO414136  40.665   6.140   9.621
  918POPC   GL114137  40.536   5.875   9.199
  918POPC   GL214138  40.428   6.033   8.836
  918POPC   C1A14139  40.709   5.623   8.822
  918POPC   D2A14140  40.834   5.636   8.386
  918POPC   C3A14141  40.573   5.709   8.045
  918POPC   C4A14142  40.645   5.626   7.652
  918POPC   C1B14143  40.913   6.070   8.643
  918POPC   C2B14144  41.169   6.042   8.274
  918POPC   C3B14145  40.885   6.140   7.933
  918POPC   C4B14146  40.902   5.996   7.495
  919POPC   NC314147   9.670  24.681   9.601
  919POPC   PO414148  10.240  24.375   9.624
  919POPC   GL114149   9.888  24.382   9.235
  919POPC   GL214150   9.581  24.618   9.115
  919POPC   C1A14151   9.750  24.257   8.816
  919POPC   D2A14152   9.705  24.520   8.521
  919POPC   C3A14153   9.671  24.486   8.107
  919POPC   C4A14154   9.705  24.452   7.694
  919POPC   C1B14155   9.281  24.540   8.766
  919POPC   C2B14156   9.266  24.735   8.368
  919POPC   C3B14157   9.300  24.844   7.983
  919POPC   C4B14158   9.195  24.686   7.584
  920POPC   NC314159  44.694  27.351   9.951
  920POPC   PO414160   0.089  27.813   9.552
  920POPC   GL114161  44.754  27.755   9.260
  920POPC   GL214162  44.463  27.975   9.251
  920POPC   C1A14163  44.673  27.600   8.881
  920POPC   D2A14164  44.591  27.671   8.474
  920POPC   C3A14165  44.893  27.624   8.154
  920POPC   C4A14166  44.821  27.622   7.715
  920POPC   C1B14167  44.362  28.006   8.811
  920POPC   C2B14168  44.262  28.085   8.355
  920POPC   C3B14169  44.452  27.866   8.009
  920POPC   C4B14170  44.295  27.559   7.743
  921POPC   NC314171  35.110  38.896   9.297
  921POPC   PO414172  35.344  39.354   9.757
  921POPC   GL114173  35.415  39.349   9.274
  921POPC   GL214174  35.325  39.179   8.942
  921POPC   C1A14175  35.577  39.606   8.886
  921POPC   D2A14176  35.619  39.597   8.401
  921POPC   C3A14177  35.600  39.204   8.150
  921POPC   C4A14178  35.410  39.185   7.738
  921POPC   C1B14179  35.114  38.840   8.682
  921POPC   C2B14180  34.887  38.831   8.339
  921POPC   C3B14181  35.039  39.159   8.106
  921POPC   C4B14182  35.020  38.874   7.777
  922POPC   NC314183   3.233  15.477   9.349
  922POPC   PO414184   3.705  15.155   9.752
  922POPC   GL114185   3.634  15.163   9.287
  922POPC   GL214186   3.765  15.487   9.193
  922POPC   C1A14187   3.512  15.148   8.825
  922POPC   D2A14188   3.760  14.899   8.547
  922POPC   C3A14189   3.655  14.968   8.153
  922POPC   C4A14190   3.385  15.132   7.868
  922POPC   C1B14191   3.978  15.336   8.823
  922POPC   C2B14192   3.789  15.394   8.414
  922POPC   C3B14193   3.944  15.382   8.011
  922POPC   C4B14194   3.812  15.378   7.594
  923POPC   NC314195  14.152  41.483   9.445
  923POPC   PO414196  14.830  41.585   9.544
  923POPC   GL114197  14.529  41.591   9.132
  923POPC   GL214198  14.272  41.833   9.070
  923POPC   C1A14199  14.357  41.365   8.752
  923POPC   D2A14200  14.628  41.374   8.384
  923POPC   C3A14201  14.469  41.392   7.991
  923POPC   C4A14202  14.467  41.511   7.597
  923POPC   C1B14203  14.392  41.840   8.640
  923POPC   C2B14204  14.693  41.973   8.369
  923POPC   C3B14205  14.692  41.852   7.977
  923POPC   C4B14206  14.918  41.748   7.647
  924POPC   NC314207  11.702   2.766   9.217
  924POPC   PO414208  12.249   2.482   9.573
  924POPC   GL114209  12.361   2.718   9.211
  924POPC   GL214210  12.123   3.001   9.099
  924POPC   C1A14211  12.422   2.778   8.772
  924POPC   D2A14212  12.069   2.694   8.525
  924POPC   C3A14213  12.163   2.919   8.166
  924POPC   C4A14214  12.212   2.868   7.730
  924POPC   C1B14215  11.844   3.129   8.708
  924POPC   C2B14216  11.625   2.899   8.372
  924POPC   C3B14217  11.713   2.934   7.943
  924POPC   C4B14218  11.776   3.028   7.513
  925POPC   NC314219  42.745  13.872   9.324
  925POPC   PO414220  43.213  13.381   9.488
  925POPC   GL114221  43.048  13.521   9.089
  925POPC   GL214222  42.706  13.539   8.910
  925POPC   C1A14223  43.160  13.662   8.702
  925POPC   D2A14224  42.948  13.654   8.333
  925POPC   C3A14225  43.234  13.688   8.016
  925POPC   C4A14226  43.175  13.532   7.640
  925POPC   C1B14227  42.743  13.981   8.699
  925POPC   C2B14228  42.781  14.124   8.264
  925POPC   C3B14229  42.768  13.859   7.873
  925POPC   C4B14230  42.927  13.919   7.432
  926POPC   NC314231   8.130   7.993   9.459
  926POPC   PO414232   8.518   8.438   9.735
  926POPC   GL114233   8.544   8.212   9.260
  926POPC   GL214234   8.215   8.365   9.105
  926POPC   C1A14235   8.465   8.018   8.800
  926POPC   D2A14236   8.201   8.005   8.389
  926POPC   C3A14237   8.415   8.071   8.026
  926POPC   C4A14238   8.424   8.379   7.742
  926POPC   C1B14239   7.868   8.573   8.853
  926POPC   C2B14240   7.837   8.738   8.457
  926POPC   C3B14241   7.969   8.541   8.074
  926POPC   C4B14242   7.916   8.632   7.625
  927POPC   NC314243  42.743   3.277   9.258
  927POPC   PO414244  42.519   3.738   9.702
  927POPC   GL114245  42.416   3.659   9.250
  927POPC   GL214246  42.253   3.327   9.140
  927POPC   C1A14247  42.314   3.707   8.789
  927POPC   D2A14248  42.602   3.631   8.441
  927POPC   C3A14249  42.490   3.661   8.012
  927POPC   C4A14250  42.204   3.852   7.734
  927POPC   C1B14251  42.360   3.217   8.684
  927POPC   C2B14252  42.180   3.126   8.263
  927POPC   C3B14253  42.306   3.221   7.819
  927POPC   C4B14254  42.748   3.331   7.709
  928POPC   NC314255  40.249   0.368   9.517
  928POPC   PO414256  39.537   0.159   9.524
  928POPC   GL114257  39.814   0.378   9.169
  928POPC   GL214258  40.097   0.166   9.081
  928POPC   C1A14259  39.959   0.555   8.747
  928POPC   D2A14260  40.260   0.573   8.375
  928POPC   C3A14261  40.149   0.753   7.963
  928POPC   C4A14262  39.919   0.821   7.563
  928POPC   C1B14263  40.257   0.134   8.680
  928POPC   C2B14264  39.947   0.170   8.369
  928POPC   C3B14265  39.927   0.312   7.982
  928POPC   C4B14266  40.236   0.221   7.691
  929POPC   NC314267  22.956  20.549   9.729
  929POPC   PO414268  22.877  20.980   9.254
  929POPC   GL114269  23.048  20.610   9.183
  929POPC   GL214270  22.761  20.395   9.237
  929POPC   C1A14271  23.226  20.487   8.807
  929POPC   D2A14272  23.046  20.260   8.455
  929POPC   C3A14273  23.125  20.349   8.051
  929POPC   C4A14274  22.844  20.186   7.754
  929POPC   C1B14275  22.715  20.505   8.778
  929POPC   C2B14276  22.946  20.762   8.451
  929POPC   C3B14277  23.105  20.860   8.031
  929POPC   C4B14278  22.922  20.710   7.615
  930POPC   NC314279   1.674  11.862   9.597
  930POPC   PO414280   2.157  12.180   9.386
  930POPC   GL114281   1.888  11.994   9.140
  930POPC   GL214282   1.808  12.287   8.995
  930POPC   C1A14283   1.940  11.824   8.748
  930POPC   D2A14284   2.172  11.874   8.406
  930POPC   C3A14285   1.911  11.838   8.087
  930POPC   C4A14286   2.066  12.050   7.764
  930POPC   C1B14287   2.030  12.337   8.653
  930POPC   C2B14288   1.877  12.315   8.253
  930POPC   C3B14289   1.762  12.497   7.877
  930POPC   C4B14290   1.759  12.332   7.436
  931POPC   NC314291   4.117   7.030   9.698
  931POPC   PO414292   4.504   6.510   9.489
  931POPC   GL114293   4.261   6.623   9.157
  931POPC   GL214294   4.183   6.966   9.203
  931POPC   C1A14295   4.332   6.587   8.709
  931POPC   D2A14296   4.574   6.761   8.352
  931POPC   C3A14297   4.666   6.523   7.943
  931POPC   C4A14298   4.549   6.638   7.501
  931POPC   C1B14299   4.148   7.080   8.789
  931POPC   C2B14300   4.063   6.886   8.393
  931POPC   C3B14301   3.986   6.695   7.993
  931POPC   C4B14302   3.731   6.922   7.684
  932POPC   NC314303  19.590  38.197   9.522
  932POPC   PO414304  20.145  38.762   9.517
  932POPC   GL114305  20.002  38.625   9.121
  932POPC   GL214306  19.706  38.429   9.100
  932POPC   C1A14307  19.802  38.724   8.704
  932POPC   D2A14308  19.565  38.905   8.359
  932POPC   C3A14309  19.708  38.783   7.960
  932POPC   C4A14310  19.883  38.857   7.543
  932POPC   C1B14311  19.884  38.224   8.765
  932POPC   C2B14312  19.677  38.309   8.398
  932POPC   C3B14313  19.544  38.239   8.023
  932POPC   C4B14314  19.782  38.258   7.682
  933POPC   NC314315  27.720   3.832   9.313
  933POPC   PO414316  27.430   3.251   9.546
  933POPC   GL114317  27.316   3.484   9.165
  933POPC   GL214318  27.215   3.861   9.198
  933POPC   C1A14319  27.515   3.522   8.763
  933POPC   D2A14320  27.718   3.780   8.435
  933POPC   C3A14321  27.535   3.647   8.050
  933POPC   C4A14322  27.605   3.453   7.681
  933POPC   C1B14323  27.301   4.013   8.778
  933POPC   C2B14324  27.219   3.886   8.383
  933POPC   C3B14325  27.210   4.066   7.994
  933POPC   C4B14326  27.295   3.875   7.636
  934POPC   NC314327  38.608  38.948   9.781
  934POPC   PO414328  38.895  38.210   9.617
  934POPC   GL114329  38.691  38.255   9.187
  934POPC   GL214330  38.684  38.530   9.034
  934POPC   C1A14331  38.554  38.104   8.793
  934POPC   D2A14332  38.502  38.284   8.397
  934POPC   C3A14333  38.280  38.134   8.064
  934POPC   C4A14334  38.379  38.459   7.777
  934POPC   C1B14335  38.561  38.740   8.692
  934POPC   C2B14336  38.172  38.893   8.580
  934POPC   C3B14337  38.227  38.723   8.190
  934POPC   C4B14338  38.020  38.817   7.794
  935POPC   NC314339  20.042  17.134   9.256
  935POPC   PO414340  19.681  17.747   9.452
  935POPC   GL114341  19.853  17.673   9.057
  935POPC   GL214342  19.661  17.401   9.061
  935POPC   C1A14343  19.832  17.601   8.599
  935POPC   D2A14344  19.738  17.895   8.246
  935POPC   C3A14345  19.921  17.755   7.846
  935POPC   C4A14346  19.597  17.621   7.589
  935POPC   C1B14347  19.592  17.054   8.769
  935POPC   C2B14348  19.826  17.063   8.442
  935POPC   C3B14349  19.784  17.329   8.111
  935POPC   C4B14350  19.926  17.239   7.722
  936POPC   NC314351   5.491  44.047   9.847
  936POPC   PO414352   5.585  43.471   9.488
  936POPC   GL114353   5.899  43.680   9.170
  936POPC   GL214354   6.071  44.015   9.245
  936POPC   C1A14355   5.992  43.654   8.717
  936POPC   D2A14356   5.668  43.629   8.386
  936POPC   C3A14357   5.831  43.724   7.978
  936POPC   C4A14358   6.112  43.544   7.693
  936POPC   C1B14359   6.118  44.152   8.817
  936POPC   C2B14360   5.927  44.086   8.398
  936POPC   C3B14361   5.959  44.229   7.964
  936POPC   C4B14362   5.660  44.219   7.606
  937POPC   NC314363  25.821  19.640   9.552
  937POPC   PO414364  26.253  20.208   9.514
  937POPC   GL114365  26.244  20.003   9.157
  937POPC   GL214366  25.919  19.982   9.165
  937POPC   C1A14367  26.204  20.044   8.744
  937POPC   D2A14368  26.439  20.097   8.387
  937POPC   C3A14369  26.144  20.002   8.066
  937POPC   C4A14370  26.026  20.167   7.672
  937POPC   C1B14371  25.982  19.601   8.918
  937POPC   C2B14372  25.991  19.607   8.494
  937POPC   C3B14373  25.918  19.551   8.055
  937POPC   C4B14374  25.813  19.689   7.660
  938POPC   NC314375  19.685  30.866   9.381
  938POPC   PO414376  20.308  30.592   9.578
  938POPC   GL114377  20.150  30.727   9.185
  938POPC   GL214378  19.912  30.452   9.151
  938POPC   C1A14379  19.979  30.827   8.769
  938POPC   D2A14380  19.584  30.974   8.543
  938POPC   C3A14381  19.696  30.885   8.108
  938POPC   C4A14382  20.154  30.975   8.020
  938POPC   C1B14383  19.643  30.427   8.763
  938POPC   C2B14384  19.775  30.260   8.403
  938POPC   C3B14385  20.047  30.491   8.187
  938POPC   C4B14386  19.987  30.544   7.773
  939POPC   NC314387  34.223  10.452   9.584
  939POPC   PO414388  34.819  10.817   9.463
  939POPC   GL114389  34.540  10.607   9.164
  939POPC   GL214390  34.833  10.467   9.038
  939POPC   C1A14391  34.392  10.449   8.749
  939POPC   D2A14392  34.402  10.590   8.335
  939POPC   C3A14393  34.348  10.282   8.057
  939POPC   C4A14394  34.521  10.446   7.700
  939POPC   C1B14395  34.853  10.622   8.611
  939POPC   C2B14396  34.902  10.648   8.174
  939POPC   C3B14397  34.966  10.691   7.762
  939POPC   C4B14398  35.017  10.415   7.471
  940POPC   NC314399  35.034  32.524   9.350
  940POPC   PO414400  34.789  33.158   9.511
  940POPC   GL114401  34.665  33.160   9.120
  940POPC   GL214402  34.347  33.032   9.160
  940POPC   C1A14403  34.840  33.132   8.737
  940POPC   D2A14404  34.826  32.884   8.386
  940POPC   C3A14405  34.769  33.122   8.005
  940POPC   C4A14406  34.678  32.796   7.726
  940POPC   C1B14407  34.391  32.866   8.744
  940POPC   C2B14408  34.320  33.040   8.327
  940POPC   C3B14409  34.216  32.891   7.919
  940POPC   C4B14410  34.278  32.948   7.452
  941POPC   NC314411  24.757  42.540   9.418
  941POPC   PO414412  24.382  42.069   9.560
  941POPC   GL114413  24.407  42.208   9.133
  941POPC   GL214414  24.488  42.475   8.957
  941POPC   C1A14415  24.546  42.047   8.713
  941POPC   D2A14416  24.733  42.141   8.326
  941POPC   C3A14417  24.526  42.163   7.946
  941POPC   C4A14418  24.309  42.044   7.605
  941POPC   C1B14419  24.346  42.627   8.601
  941POPC   C2B14420  24.524  42.601   8.208
  941POPC   C3B14421  24.520  42.641   7.784
  941POPC   C4B14422  24.221  42.769   7.494
  942POPC   NC314423  17.777   2.562   9.589
  942POPC   PO414424  17.213   2.877   9.676
  942POPC   GL114425  17.367   2.714   9.287
  942POPC   GL214426  17.716   2.780   9.137
  942POPC   C1A14427  17.289   2.749   8.864
  942POPC   D2A14428  17.351   2.572   8.475
  942POPC   C3A14429  17.205   2.771   8.116
  942POPC   C4A14430  17.363   2.683   7.743
  942POPC   C1B14431  17.805   2.754   8.698
  942POPC   C2B14432  17.662   2.974   8.352
  942POPC   C3B14433  17.813   2.970   7.960
  942POPC   C4B14434  17.864   2.607   7.700
  943POPC   NC314435   3.023  18.764   9.406
  943POPC   PO414436   2.325  18.998   9.508
  943POPC   GL114437   2.547  19.184   9.134
  943POPC   GL214438   2.903  19.084   9.020
  943POPC   C1A14439   2.469  19.066   8.705
  943POPC   D2A14440   2.507  18.899   8.289
  943POPC   C3A14441   2.773  19.162   8.070
  943POPC   C4A14442   2.779  19.235   7.640
  943POPC   C1B14443   3.172  19.350   8.750
  943POPC   C2B14444   3.055  19.515   8.328
  943POPC   C3B14445   3.139  19.512   7.889
  943POPC   C4B14446   3.277  19.296   7.517
  944POPC   NC314447  40.094  38.538   9.493
  944POPC   PO414448  40.393  37.976   9.315
  944POPC   GL114449  40.214  38.334   9.053
  944POPC   GL214450  39.869  38.539   9.054
  944POPC   C1A14451  40.150  38.443   8.651
  944POPC   D2A14452  40.207  38.205   8.346
  944POPC   C3A14453  39.941  38.132   8.046
  944POPC   C4A14454  40.147  38.154   7.668
  944POPC   C1B14455  39.618  38.585   8.692
  944POPC   C2B14456  39.818  38.593   8.298
  944POPC   C3B14457  40.152  38.601   7.990
  944POPC   C4B14458  39.784  38.521   7.751
  945POPC   NC314459   7.225  27.132   9.460
  945POPC   PO414460   7.731  26.679   9.385
  945POPC   GL114461   7.443  26.830   9.060
  945POPC   GL214462   7.210  27.085   8.971
  945POPC   C1A14463   7.430  26.740   8.614
  945POPC   D2A14464   7.714  26.608   8.283
  945POPC   C3A14465   7.565  26.570   7.859
  945POPC   C4A14466   7.680  26.826   7.519
  945POPC   C1B14467   7.494  27.239   8.729
  945POPC   C2B14468   7.245  27.185   8.386
  945POPC   C3B14469   7.344  26.993   8.028
  945POPC   C4B14470   7.222  27.051   7.603
  946POPC   NC314471  41.462   9.488   9.541
  946POPC   PO414472  41.717  10.092   9.528
  946POPC   GL114473  41.385   9.862   9.203
  946POPC   GL214474  41.452   9.506   9.034
  946POPC   C1A14475  41.244   9.865   8.752
  946POPC   D2A14476  41.501  10.004   8.403
  946POPC   C3A14477  41.462   9.898   7.977
  946POPC   C4A14478  41.635   9.984   7.587
  946POPC   C1B14479  41.862   9.304   8.912
  946POPC   C2B14480  41.995   9.281   8.489
  946POPC   C3B14481  41.764   9.519   8.177
  946POPC   C4B14482  41.622   9.457   7.765
  947POPC   NC314483   2.911   5.640   9.365
  947POPC   PO414484   2.819   6.281   9.467
  947POPC   GL114485   2.639   6.008   9.120
  947POPC   GL214486   2.495   5.616   9.056
  947POPC   C1A14487   2.778   5.860   8.715
  947POPC   D2A14488   2.542   5.781   8.358
  947POPC   C3A14489   2.690   6.038   8.033
  947POPC   C4A14490   2.917   5.823   7.733
  947POPC   C1B14491   2.720   5.342   8.740
  947POPC   C2B14492   2.869   5.354   8.309
  947POPC   C3B14493   2.607   5.438   7.943
  947POPC   C4B14494   2.240   5.313   7.694
  948POPC   NC314495  14.650  30.687   9.512
  948POPC   PO414496  13.997  31.012   9.514
  948POPC   GL114497  14.271  30.870   9.152
  948POPC   GL214498  14.660  30.899   9.060
  948POPC   C1A14499  14.280  30.683   8.719
  948POPC   D2A14500  14.102  30.435   8.361
  948POPC   C3A14501  14.264  30.534   7.928
  948POPC   C4A14502  14.465  30.779   7.587
  948POPC   C1B14503  14.796  30.557   8.814
  948POPC   C2B14504  14.922  30.470   8.391
  948POPC   C3B14505  14.750  30.308   8.009
  948POPC   C4B14506  14.871  30.445   7.605
  949POPC   NC314507  42.341  28.105   9.439
  949POPC   PO414508  41.908  28.591   9.521
  949POPC   GL114509  42.126  28.422   9.122
  949POPC   GL214510  42.036  28.062   9.042
  949POPC   C1A14511  42.529  28.462   8.837
  949POPC   D2A14512  42.693  28.618   8.410
  949POPC   C3A14513  42.581  28.492   8.007
  949POPC   C4A14514  42.384  28.220   7.718
  949POPC   C1B14515  42.164  28.163   8.683
  949POPC   C2B14516  42.165  28.379   8.350
  949POPC   C3B14517  41.975  28.250   8.009
  949POPC   C4B14518  41.912  28.027   7.628
  950POPC   NC314519  31.433  34.944   9.408
  950POPC   PO414520  31.753  34.286   9.412
  950POPC   GL114521  31.595  34.572   9.115
  950POPC   GL214522  31.733  34.933   8.998
  950POPC   C1A14523  31.330  34.707   8.761
  950POPC   D2A14524  31.083  34.596   8.421
  950POPC   C3A14525  31.281  34.721   8.038
  950POPC   C4A14526  31.346  34.663   7.650
  950POPC   C1B14527  31.822  34.597   8.694
  950POPC   C2B14528  31.659  34.543   8.314
  950POPC   C3B14529  31.804  34.602   7.896
  950POPC   C4B14530  31.989  34.224   7.731
  951POPC   NC314531  44.451  10.186   9.692
  951POPC   PO414532  44.507   9.576   9.584
  951POPC   GL114533  44.643   9.651   9.173
  951POPC   GL214534  44.773   9.959   9.217
  951POPC   C1A14535  44.542   9.597   8.728
  951POPC   D2A14536  44.313   9.699   8.354
  951POPC   C3A14537  44.507   9.561   8.011
  951POPC   C4A14538  44.534   9.822   7.664
  951POPC   C1B14539  44.992   9.859   8.832
  951POPC   C2B14540   0.131   9.805   8.409
  951POPC   C3B14541  44.968   9.775   7.992
  951POPC   C4B14542   0.001  10.020   7.623
  952POPC   NC314543   9.186  44.412   9.560
  952POPC   PO414544   8.782  44.949   9.554
  952POPC   GL114545   9.055  44.779   9.223
  952POPC   GL214546   9.271   0.000   9.117
  952POPC   C1A14547   9.042  44.548   8.804
  952POPC   D2A14548   8.870  44.319   8.443
  952POPC   C3A14549   8.902  44.474   8.068
  952POPC   C4A14550   8.763  44.690   7.741
  952POPC   C1B14551   8.990   0.052   8.788
  952POPC   C2B14552   9.174   0.081   8.416
  952POPC   C3B14553   9.125  44.944   8.026
  952POPC   C4B14554   9.010   0.152   7.686
  953POPC   NC314555  40.445  22.486   9.359
  953POPC   PO414556  41.152  22.748   9.458
  953POPC   GL114557  40.904  22.601   9.143
  953POPC   GL214558  40.667  22.839   8.986
  953POPC   C1A14559  40.933  22.467   8.735
  953POPC   D2A14560  40.742  22.779   8.469
  953POPC   C3A14561  40.689  22.635   8.072
  953POPC   C4A14562  40.417  22.516   7.771
  953POPC   C1B14563  40.816  23.248   8.767
  953POPC   C2B14564  40.748  23.492   8.350
  953POPC   C3B14565  40.545  23.254   7.994
  953POPC   C4B14566  40.645  22.969   7.628
  954POPC   NC314567  39.932  17.315   9.521
  954POPC   PO414568  40.565  17.528   9.470
  954POPC   GL114569  40.342  17.655   9.098
  954POPC   GL214570  39.989  17.653   9.113
  954POPC   C1A14571  40.208  17.654   8.652
  954POPC   D2A14572  40.090  17.361   8.307
  954POPC   C3A14573  40.095  17.606   7.944
  954POPC   C4A14574  40.525  17.743   7.803
  954POPC   C1B14575  39.814  17.321   8.777
  954POPC   C2B14576  39.592  17.263   8.338
  954POPC   C3B14577  39.667  17.239   7.905
  954POPC   C4B14578  39.762  17.517   7.547
  955POPC   NC314579  11.104  29.113   9.572
  955POPC   PO414580  11.515  29.639   9.511
  955POPC   GL114581  11.546  29.251   9.185
  955POPC   GL214582  11.207  29.095   9.070
  955POPC   C1A14583  11.600  29.043   8.749
  955POPC   D2A14584  11.363  29.059   8.343
  955POPC   C3A14585  11.669  29.064   8.003
  955POPC   C4A14586  11.628  29.056   7.555
  955POPC   C1B14587  10.944  29.118   8.690
  955POPC   C2B14588  10.917  29.375   8.320
  955POPC   C3B14589  11.060  29.473   7.906
  955POPC   C4B14590  10.837  29.346   7.520
  956POPC   NC314591  18.887  19.201   9.424
  956POPC   PO414592  19.272  18.659   9.438
  956POPC   GL114593  19.165  18.882   9.062
  956POPC   GL214594  19.269  19.214   9.056
  956POPC   C1A14595  18.871  19.054   8.739
  956POPC   D2A14596  18.681  18.893   8.357
  956POPC   C3A14597  18.693  19.193   7.995
  956POPC   C4A14598  19.111  19.269   7.777
  956POPC   C1B14599  19.279  19.410   8.655
  956POPC   C2B14600  19.113  19.181   8.293
  956POPC   C3B14601  19.093  18.817   7.998
  956POPC   C4B14602  19.332  18.804   7.612
  957POPC   NC314603  25.776  26.386   9.313
  957POPC   PO414604  26.412  26.320   9.579
  957POPC   GL114605  26.229  26.111   9.164
  957POPC   GL214606  26.073  25.754   9.182
  957POPC   C1A14607  25.955  26.040   8.772
  957POPC   D2A14608  25.673  26.247   8.507
  957POPC   C3A14609  25.720  26.152   8.065
  957POPC   C4A14610  26.075  26.145   7.772
  957POPC   C1B14611  26.233  25.603   8.801
  957POPC   C2B14612  26.350  25.673   8.398
  957POPC   C3B14613  26.278  25.741   7.987
  957POPC   C4B14614  26.140  25.706   7.534
  958POPC   NC314615   6.684  31.828   9.426
  958POPC   PO414616   6.370  31.187   9.443
  958POPC   GL114617   6.657  31.347   9.134
  958POPC   GL214618   6.989  31.352   9.233
  958POPC   C1A14619   6.742  31.590   8.754
  958POPC   D2A14620   6.578  31.697   8.325
  958POPC   C3A14621   6.743  31.586   7.893
  958POPC   C4A14622   6.705  31.688   7.412
  958POPC   C1B14623   7.088  31.204   8.813
  958POPC   C2B14624   6.888  31.254   8.387
  958POPC   C3B14625   7.115  31.199   7.994
  958POPC   C4B14626   7.023  31.290   7.545
  959POPC   NC314627  24.015  22.591   9.527
  959POPC   PO414628  24.552  22.158   9.542
  959POPC   GL114629  24.432  22.095   9.139
  959POPC   GL214630  24.228  22.317   9.138
  959POPC   C1A14631  24.553  22.194   8.726
  959POPC   D2A14632  24.611  21.983   8.343
  959POPC   C3A14633  24.529  22.173   7.971
  959POPC   C4A14634  24.604  21.964   7.583
  959POPC   C1B14635  24.079  22.384   8.778
  959POPC   C2B14636  24.151  22.277   8.365
  959POPC   C3B14637  23.982  22.373   7.970
  959POPC   C4B14638  24.169  22.231   7.611
  960POPC   NC314639  21.228   8.342   9.384
  960POPC   PO414640  21.570   7.793   9.473
  960POPC   GL114641  21.358   7.879   9.081
  960POPC   GL214642  21.065   8.125   8.949
  960POPC   C1A14643  21.467   7.978   8.659
  960POPC   D2A14644  21.544   8.253   8.327
  960POPC   C3A14645  21.355   8.134   7.983
  960POPC   C4A14646  21.468   7.827   7.680
  960POPC   C1B14647  21.248   8.448   8.710
  960POPC   C2B14648  21.222   8.650   8.315
  960POPC   C3B14649  21.452   8.652   7.974
  960POPC   C4B14650  21.158   8.583   7.742
  961POPC   NC314651  27.400   4.775   9.398
  961POPC   PO414652  27.740   5.382   9.412
  961POPC   GL114653  27.501   5.156   9.038
  961POPC   GL214654  27.123   4.974   9.032
  961POPC   C1A14655  27.783   5.007   8.696
  961POPC   D2A14656  27.965   4.984   8.279
  961POPC   C3A14657  27.681   5.164   7.986
  961POPC   C4A14658  27.391   5.437   7.800
  961POPC   C1B14659  27.189   5.090   8.608
  961POPC   C2B14660  27.172   5.185   8.176
  961POPC   C3B14661  27.265   4.945   7.808
  961POPC   C4B14662  27.291   4.707   7.433
  962POPC   NC314663   4.074  34.115   9.445
  962POPC   PO414664   4.499  33.523   9.553
  962POPC   GL114665   4.346  33.754   9.182
  962POPC   GL214666   4.497  34.100   9.151
  962POPC   C1A14667   4.221  33.923   8.751
  962POPC   D2A14668   4.121  33.715   8.351
  962POPC   C3A14669   4.211  33.865   7.918
  962POPC   C4A14670   4.329  33.717   7.463
  962POPC   C1B14671   4.737  34.134   8.797
  962POPC   C2B14672   4.789  33.977   8.412
  962POPC   C3B14673   4.688  34.129   8.038
  962POPC   C4B14674   4.681  33.999   7.655
  963POPC   NC314675   3.704  41.832   9.434
  963POPC   PO414676   3.342  41.361   9.575
  963POPC   GL114677   3.687  41.404   9.189
  963POPC   GL214678   3.421  41.568   9.093
  963POPC   C1A14679   3.844  41.563   8.733
  963POPC   D2A14680   3.690  41.638   8.271
  963POPC   C3A14681   3.858  41.776   7.850
  963POPC   C4A14682   3.883  41.712   7.379
  963POPC   C1B14683   3.344  41.383   8.749
  963POPC   C2B14684   3.147  41.533   8.413
  963POPC   C3B14685   3.276  41.422   8.030
  963POPC   C4B14686   3.504  41.454   7.673
  964POPC   NC314687  32.833  11.587   9.487
  964POPC   PO414688  32.804  12.264   9.640
  964POPC   GL114689  33.165  12.195   9.313
  964POPC   GL214690  33.199  11.817   9.200
  964POPC   C1A14691  33.214  12.197   8.847
  964POPC   D2A14692  32.961  12.125   8.449
  964POPC   C3A14693  33.139  12.021   8.034
  964POPC   C4A14694  33.021  11.986   7.562
  964POPC   C1B14695  32.947  11.753   8.803
  964POPC   C2B14696  32.900  11.628   8.340
  964POPC   C3B14697  32.741  11.724   7.903
  964POPC   C4B14698  32.712  11.475   7.505
  965POPC   NC314699   1.743  35.474   9.468
  965POPC   PO414700   2.030  34.846   9.547
  965POPC   GL114701   2.034  35.134   9.208
  965POPC   GL214702   1.683  35.110   9.113
  965POPC   C1A14703   2.092  35.250   8.781
  965POPC   D2A14704   2.280  35.447   8.423
  965POPC   C3A14705   2.185  35.271   7.980
  965POPC   C4A14706   2.283  35.121   7.530
  965POPC   C1B14707   1.619  35.433   8.774
  965POPC   C2B14708   1.776  35.420   8.385
  965POPC   C3B14709   1.668  35.513   8.008
  965POPC   C4B14710   1.714  35.716   7.647
  966POPC   NC314711  24.118  35.635   9.692
  966POPC   PO414712  23.473  35.456   9.502
  966POPC   GL114713  23.676  35.383   9.135
  966POPC   GL214714  23.713  35.034   9.151
  966POPC   C1A14715  23.804  35.616   8.767
  966POPC   D2A14716  23.742  35.447   8.381
  966POPC   C3A14717  23.898  35.593   7.998
  966POPC   C4A14718  23.675  35.528   7.616
  966POPC   C1B14719  23.478  34.917   8.818
  966POPC   C2B14720  23.397  35.032   8.402
  966POPC   C3B14721  23.622  35.103   8.034
  966POPC   C4B14722  23.339  35.167   7.745
  967POPC   NC314723  35.003  24.203   9.592
  967POPC   PO414724  35.729  24.352   9.481
  967POPC   GL114725  35.722  24.633   9.185
  967POPC   GL214726  35.386  24.478   9.074
  967POPC   C1A14727  35.731  24.694   8.779
  967POPC   D2A14728  35.360  24.714   8.528
  967POPC   C3A14729  35.521  24.565   8.166
  967POPC   C4A14730  35.364  24.426   7.794
  967POPC   C1B14731  35.461  24.239   8.655
  967POPC   C2B14732  35.121  24.230   8.348
  967POPC   C3B14733  34.977  23.968   8.001
  967POPC   C4B14734  35.050  24.124   7.564
  968POPC   NC314735  10.299  39.192   9.523
  968POPC   PO414736  10.906  39.538   9.672
  968POPC   GL114737  10.740  39.392   9.212
  968POPC   GL214738  10.645  39.026   9.174
  968POPC   C1A14739  10.547  39.286   8.762
  968POPC   D2A14740  10.415  39.235   8.333
  968POPC   C3A14741  10.643  39.126   7.973
  968POPC   C4A14742  10.382  39.034   7.618
  968POPC   C1B14743  10.253  38.905   8.928
  968POPC   C2B14744  10.150  38.845   8.499
  968POPC   C3B14745  10.314  38.733   8.087
  968POPC   C4B14746  10.099  38.629   7.721
  969POPC   NC314747  44.552  16.223   9.365
  969POPC   PO414748  44.424  15.596   9.505
  969POPC   GL114749  44.546  15.748   9.137
  969POPC   GL214750  44.891  15.818   9.192
  969POPC   C1A14751  44.573  15.989   8.755
  969POPC   D2A14752  44.796  16.167   8.405
  969POPC   C3A14753  44.557  16.207   8.039
  969POPC   C4A14754  44.742  16.174   7.618
  969POPC   C1B14755  44.890  15.574   8.794
  969POPC   C2B14756  44.703  15.661   8.369
  969POPC   C3B14757  44.718  15.747   7.890
  969POPC   C4B14758  44.575  15.729   7.424
  970POPC   NC314759  28.412  34.097   9.518
  970POPC   PO414760  28.245  33.459   9.600
  970POPC   GL114761  28.280  33.708   9.236
  970POPC   GL214762  28.639  33.813   9.162
  970POPC   C1A14763  28.317  33.708   8.802
  970POPC   D2A14764  28.431  33.966   8.484
  970POPC   C3A14765  28.173  33.916   8.140
  970POPC   C4A14766  28.288  33.866   7.720
  970POPC   C1B14767  28.844  33.757   8.754
  970POPC   C2B14768  28.917  33.905   8.336
  970POPC   C3B14769  28.791  33.802   7.897
  970POPC   C4B14770  28.710  34.016   7.509
  971POPC   NC314771  16.695   8.404   9.435
  971POPC   PO414772  16.951   7.725   9.523
  971POPC   GL114773  16.832   7.988   9.166
  971POPC   GL214774  17.082   8.219   9.078
  971POPC   C1A14775  16.690   8.134   8.734
  971POPC   D2A14776  16.897   8.078   8.325
  971POPC   C3A14777  16.708   8.258   7.940
  971POPC   C4A14778  16.469   8.481   7.633
  971POPC   C1B14779  17.045   8.505   8.750
  971POPC   C2B14780  17.228   8.509   8.325
  971POPC   C3B14781  17.207   8.437   7.901
  971POPC   C4B14782  16.914   8.721   7.768
  972POPC   NC314783  35.373  35.475   9.552
  972POPC   PO414784  35.779  35.012   9.346
  972POPC   GL114785  35.601  35.361   9.097
  972POPC   GL214786  35.225  35.442   9.068
  972POPC   C1A14787  35.562  35.555   8.691
  972POPC   D2A14788  35.526  35.760   8.281
  972POPC   C3A14789  35.434  35.423   8.024
  972POPC   C4A14790  35.457  34.973   7.946
  972POPC   C1B14791  35.014  35.207   8.716
  972POPC   C2B14792  34.947  35.238   8.261
  972POPC   C3B14793  35.006  35.201   7.819
  972POPC   C4B14794  35.063  35.159   7.370
  973POPC   NC314795  29.472   3.241   9.536
  973POPC   PO414796  29.736   3.794   9.428
  973POPC   GL114797  29.856   3.456   9.131
  973POPC   GL214798  30.186   3.490   9.057
  973POPC   C1A14799  29.969   3.172   8.753
  973POPC   D2A14800  29.784   3.207   8.361
  973POPC   C3A14801  30.020   3.427   8.090
  973POPC   C4A14802  29.861   3.237   7.745
  973POPC   C1B14803  30.140   3.700   8.654
  973POPC   C2B14804  30.223   3.953   8.306
  973POPC   C3B14805  30.407   3.823   7.988
  973POPC   C4B14806  30.252   3.611   7.657
  974POPC   NC314807  36.325  37.646   9.358
  974POPC   PO414808  35.678  37.663   9.475
  974POPC   GL114809  35.863  37.690   9.101
  974POPC   GL214810  35.998  38.038   9.192
  974POPC   C1A14811  36.042  37.439   8.750
  974POPC   D2A14812  36.194  37.603   8.387
  974POPC   C3A14813  36.340  37.417   8.024
  974POPC   C4A14814  36.073  37.566   7.757
  974POPC   C1B14815  36.204  37.968   8.791
  974POPC   C2B14816  36.203  38.158   8.412
  974POPC   C3B14817  36.098  38.012   8.012
  974POPC   C4B14818  36.408  37.970   7.724
  975POPC   NC314819  36.481  16.311   9.259
  975POPC   PO414820  36.978  15.946   9.575
  975POPC   GL114821  36.925  15.996   9.119
  975POPC   GL214822  36.610  15.812   9.177
  975POPC   C1A14823  37.193  16.173   8.739
  975POPC   D2A14824  37.128  16.337   8.285
  975POPC   C3A14825  37.136  16.092   7.867
  975POPC   C4A14826  37.092  15.953   7.411
  975POPC   C1B14827  36.401  15.885   8.769
  975POPC   C2B14828  36.320  16.035   8.370
  975POPC   C3B14829  36.643  16.010   8.057
  975POPC   C4B14830  36.656  15.992   7.644
  976POPC   NC314831   4.695  39.379   9.522
  976POPC   PO414832   4.135  39.153   9.595
  976POPC   GL114833   4.219  39.096   9.194
  976POPC   GL214834   3.856  39.144   9.128
  976POPC   C1A14835   4.537  39.246   8.875
  976POPC   D2A14836   4.588  39.495   8.505
  976POPC   C3A14837   4.668  39.283   8.101
  976POPC   C4A14838   4.683  39.001   7.742
  976POPC   C1B14839   4.045  39.378   8.811
  976POPC   C2B14840   4.186  39.203   8.443
  976POPC   C3B14841   4.155  39.354   8.040
  976POPC   C4B14842   4.200  39.156   7.716
  977POPC   NC314843  30.277  16.575   9.441
  977POPC   PO414844  30.740  17.043   9.419
  977POPC   GL114845  30.757  16.980   9.018
  977POPC   GL214846  30.391  16.931   9.016
  977POPC   C1A14847  30.706  16.636   8.705
  977POPC   D2A14848  30.505  16.437   8.336
  977POPC   C3A14849  30.742  16.604   7.955
  977POPC   C4A14850  30.802  17.035   7.796
  977POPC   C1B14851  30.505  17.079   8.596
  977POPC   C2B14852  30.460  16.967   8.177
  977POPC   C3B14853  30.328  16.904   7.735
  977POPC   C4B14854  30.433  16.887   7.282
  978POPC   NC314855  14.754  25.503   9.317
  978POPC   PO414856  15.335  25.254   9.363
  978POPC   GL114857  15.185  25.135   9.010
  978POPC   GL214858  14.825  25.063   9.025
  978POPC   C1A14859  15.290  24.912   8.680
  978POPC   D2A14860  15.455  25.025   8.270
  978POPC   C3A14861  15.457  25.486   8.216
  978POPC   C4A14862  15.379  25.492   7.781
  978POPC   C1B14863  14.920  25.291   8.620
  978POPC   C2B14864  15.001  25.258   8.177
  978POPC   C3B14865  14.860  25.077   7.795
  978POPC   C4B14866  14.798  25.026   7.348
  979POPC   NC314867  34.989   1.799   9.407
  979POPC   PO414868  35.531   2.220   9.543
  979POPC   GL114869  35.306   2.101   9.136
  979POPC   GL214870  35.357   1.761   9.025
  979POPC   C1A14871  35.367   2.148   8.684
  979POPC   D2A14872  35.373   1.913   8.306
  979POPC   C3A14873  35.319   2.163   7.939
  979POPC   C4A14874  35.241   2.057   7.496
  979POPC   C1B14875  35.067   1.700   8.677
  979POPC   C2B14876  34.878   1.794   8.265
  979POPC   C3B14877  35.073   1.722   7.873
  979POPC   C4B14878  35.015   1.507   7.504
  980POPC   NC314879  17.880  14.461   9.397
  980POPC   PO414880  18.534  14.585   9.323
  980POPC   GL114881  18.340  14.278   9.047
  980POPC   GL214882  17.995  14.244   8.955
  980POPC   C1A14883  18.400  14.224   8.610
  980POPC   D2A14884  18.537  14.524   8.328
  980POPC   C3A14885  18.488  14.437   7.912
  980POPC   C4A14886  18.775  14.252   7.650
  980POPC   C1B14887  17.908  14.096   8.566
  980POPC   C2B14888  17.992  14.364   8.199
  980POPC   C3B14889  18.004  14.394   7.734
  980POPC   C4B14890  17.792  14.571   7.328
  981POPC   NC314891  40.429  27.057   9.441
  981POPC   PO414892  41.015  26.841   9.583
  981POPC   GL114893  40.839  26.734   9.207
  981POPC   GL214894  41.094  26.492   9.169
  981POPC   C1A14895  40.687  26.718   8.787
  981POPC   D2A14896  40.926  26.833   8.403
  981POPC   C3A14897  40.744  26.976   8.018
  981POPC   C4A14898  40.600  26.820   7.619
  981POPC   C1B14899  40.984  26.307   8.792
  981POPC   C2B14900  40.776  26.322   8.402
  981POPC   C3B14901  40.782  26.484   8.021
  981POPC   C4B14902  41.086  26.644   7.732
  982POPC   NC314903  19.997   1.903   9.434
  982POPC   PO414904  19.347   1.879   9.678
  982POPC   GL114905  19.414   2.007   9.185
  982POPC   GL214906  19.730   2.102   9.072
  982POPC   C1A14907  19.510   1.785   8.757
  982POPC   D2A14908  19.754   1.892   8.427
  982POPC   C3A14909  19.606   2.174   8.127
  982POPC   C4A14910  19.319   2.082   7.775
  982POPC   C1B14911  20.082   2.038   8.776
  982POPC   C2B14912  20.254   1.918   8.336
  982POPC   C3B14913  20.014   1.835   7.987
  982POPC   C4B14914  19.859   2.130   7.692
  983POPC   NC314915  26.125   4.645  10.030
  983POPC   PO414916  26.082   4.209   9.512
  983POPC   GL114917  25.938   4.320   9.129
  983POPC   GL214918  26.106   4.590   9.050
  983POPC   C1A14919  26.054   4.103   8.764
  983POPC   D2A14920  26.349   4.075   8.402
  983POPC   C3A14921  26.197   4.224   8.009
  983POPC   C4A14922  25.952   4.373   7.674
  983POPC   C1B14923  26.396   4.496   8.728
  983POPC   C2B14924  26.498   4.579   8.323
  983POPC   C3B14925  26.544   4.561   7.897
  983POPC   C4B14926  26.320   4.756   7.589
  984POPC   NC314927  13.730   8.741   9.399
  984POPC   PO414928  13.467   9.265   9.440
  984POPC   GL114929  13.704   9.200   9.071
  984POPC   GL214930  13.525   8.971   9.015
  984POPC   C1A14931  13.524   9.211   8.589
  984POPC   D2A14932  13.141   9.125   8.275
  984POPC   C3A14933  13.338   9.153   7.858
  984POPC   C4A14934  13.760   9.009   7.881
  984POPC   C1B14935  13.727   8.744   8.722
  984POPC   C2B14936  13.685   8.542   8.354
  984POPC   C3B14937  13.545   8.561   7.929
  984POPC   C4B14938  13.338   8.604   7.511
  985POPC   NC314939   4.153  38.048   9.465
  985POPC   PO414940   4.536  37.504   9.403
  985POPC   GL114941   4.296  37.668   9.031
  985POPC   GL214942   3.990  37.892   9.003
  985POPC   C1A14943   4.224  37.372   8.690
  985POPC   D2A14944   3.918  37.377   8.367
  985POPC   C3A14945   4.080  37.630   8.028
  985POPC   C4A14946   4.410  37.568   7.702
  985POPC   C1B14947   4.012  37.827   8.578
  985POPC   C2B14948   4.420  37.767   8.387
  985POPC   C3B14949   4.501  37.949   8.001
  985POPC   C4B14950   4.153  37.995   7.670
  986POPC   NC314951  32.414  17.810   9.366
  986POPC   PO414952  32.398  17.196   9.701
  986POPC   GL114953  32.104  17.430   9.231
  986POPC   GL214954  31.930  17.787   9.187
  986POPC   C1A14955  32.206  17.564   8.774
  986POPC   D2A14956  32.473  17.490   8.418
  986POPC   C3A14957  32.227  17.490   8.054
  986POPC   C4A14958  32.272  17.527   7.642
  986POPC   C1B14959  31.807  17.843   8.729
  986POPC   C2B14960  32.123  17.920   8.369
  986POPC   C3B14961  32.365  17.991   7.968
  986POPC   C4B14962  32.269  17.995   7.494
  987POPC   NC314963  30.593  14.888   9.356
  987POPC   PO414964  31.133  15.345   9.445
  987POPC   GL114965  30.810  15.306   9.167
  987POPC   GL214966  30.981  15.018   9.045
  987POPC   C1A14967  30.621  15.240   8.763
  987POPC   D2A14968  30.805  15.344   8.368
  987POPC   C3A14969  30.465  15.510   8.155
  987POPC   C4A14970  30.257  15.166   7.906
  987POPC   C1B14971  30.995  14.877   8.633
  987POPC   C2B14972  30.953  14.800   8.208
  987POPC   C3B14973  30.862  15.012   7.838
  987POPC   C4B14974  31.013  15.243   7.425
  988POPC   NC314975  41.958  29.087   9.519
  988POPC   PO414976  42.668  29.241   9.553
  988POPC   GL114977  42.421  29.194   9.142
  988POPC   GL214978  42.244  28.912   9.113
  988POPC   C1A14979  42.373  29.472   8.752
  988POPC   D2A14980  42.477  29.636   8.325
  988POPC   C3A14981  42.298  29.317   8.038
  988POPC   C4A14982  41.946  29.164   7.827
  988POPC   C1B14983  42.180  28.809   8.664
  988POPC   C2B14984  42.260  28.847   8.200
  988POPC   C3B14985  42.210  28.731   7.741
  988POPC   C4B14986  41.980  28.861   7.349
  989POPC   NC314987  11.758   2.726   9.730
  989POPC   PO414988  11.136   3.057   9.473
  989POPC   GL114989  11.122   2.914   9.107
  989POPC   GL214990  11.217   2.590   9.153
  989POPC   C1A14991  11.215   2.935   8.689
  989POPC   D2A14992  11.050   2.657   8.372
  989POPC   C3A14993  11.210   2.871   8.063
  989POPC   C4A14994  11.299   2.904   7.654
  989POPC   C1B14995  11.271   2.420   8.768
  989POPC   C2B14996  11.403   2.262   8.407
  989POPC   C3B14997  11.526   2.467   8.048
  989POPC   C4B14998  11.363   2.399   7.626
  990POPC   NC314999  26.225  41.438   9.624
  990POPC   PO415000  25.615  41.419   9.436
  990POPC   GL115001  26.006  41.381   9.160
  990POPC   GL215002  26.422  41.370   9.162
  990POPC   C1A15003  26.062  41.275   8.715
  990POPC   D2A15004  26.261  41.224   8.320
  990POPC   C3A15005  26.075  41.443   8.016
  990POPC   C4A15006  25.924  41.370   7.601
  990POPC   C1B15007  26.262  41.717   8.918
  990POPC   C2B15008  26.218  41.733   8.493
  990POPC   C3B15009  26.429  41.801   8.127
  990POPC   C4B15010  26.265  41.795   7.712
  991POPC   NC315011   4.336  26.765   9.546
  991POPC   PO415012   4.168  27.352   9.385
  991POPC   GL115013   4.188  26.938   9.096
  991POPC   GL215014   4.173  26.528   9.137
  991POPC   C1A15015   4.509  26.831   8.776
  991POPC   D2A15016   4.533  27.016   8.357
  991POPC   C3A15017   4.474  26.745   8.009
  991POPC   C4A15018   4.625  26.700   7.593
  991POPC   C1B15019   4.072  26.583   8.724
  991POPC   C2B15020   4.055  26.807   8.349
  991POPC   C3B15021   3.972  26.830   7.916
  991POPC   C4B15022   4.122  26.576   7.618
  992POPC   NC315023  27.618  42.030   9.316
  992POPC   PO415024  28.058  42.460   9.638
  992POPC   GL115025  27.951  42.497   9.181
  992POPC   GL215026  27.628  42.514   9.133
  992POPC   C1A15027  27.808  42.269   8.742
  992POPC   D2A15028  27.568  41.943   8.488
  992POPC   C3A15029  27.684  42.086   8.077
  992POPC   C4A15030  27.542  42.080   7.672
  992POPC   C1B15031  27.404  42.620   8.768
  992POPC   C2B15032  27.423  42.433   8.381
  992POPC   C3B15033  27.450  42.606   8.001
  992POPC   C4B15034  27.760  42.524   7.758
  993POPC   NC315035  12.424  18.364   9.588
  993POPC   PO415036  11.756  18.457   9.563
  993POPC   GL115037  12.046  18.305   9.211
  993POPC   GL215038  12.306  18.017   9.243
  993POPC   C1A15039  12.150  18.471   8.813
  993POPC   D2A15040  12.003  18.635   8.432
  993POPC   C3A15041  12.101  18.514   8.020
  993POPC   C4A15042  11.931  18.647   7.597
  993POPC   C1B15043  12.323  17.989   8.825
  993POPC   C2B15044  12.090  18.051   8.497
  993POPC   C3B15045  12.078  17.955   8.042
  993POPC   C4B15046  12.148  18.188   7.638
  994POPC   NC315047   2.392  20.439   9.477
  994POPC   PO415048   3.089  20.668   9.438
  994POPC   GL115049   2.946  20.373   9.134
  994POPC   GL215050   2.595  20.379   9.026
  994POPC   C1A15051   3.036  20.369   8.698
  994POPC   D2A15052   2.803  20.432   8.309
  994POPC   C3A15053   3.004  20.551   7.920
  994POPC   C4A15054   2.837  20.621   7.504
  994POPC   C1B15055   2.422  20.649   8.728
  994POPC   C2B15056   2.324  20.812   8.332
  994POPC   C3B15057   2.507  20.711   7.937
  994POPC   C4B15058   2.300  20.705   7.553
  995POPC   NC315059  28.809   8.935   9.606
  995POPC   PO415060  29.386   9.185   9.347
  995POPC   GL115061  28.988   9.081   9.114
  995POPC   GL215062  28.887   8.750   9.123
  995POPC   C1A15063  28.881   9.023   8.665
  995POPC   D2A15064  29.122   9.158   8.308
  995POPC   C3A15065  29.111   8.994   7.907
  995POPC   C4A15066  29.420   8.927   7.646
  995POPC   C1B15067  29.172   8.618   8.821
  995POPC   C2B15068  29.120   8.642   8.379
  995POPC   C3B15069  29.338   8.534   8.015
  995POPC   C4B15070  29.167   8.435   7.644
  996POPC   NC315071  21.634  12.043   9.543
  996POPC   PO415072  21.028  11.900   9.234
  996POPC   GL115073  21.445  11.862   9.098
  996POPC   GL215074  21.591  12.216   9.078
  996POPC   C1A15075  21.543  11.889   8.680
  996POPC   D2A15076  21.331  11.727   8.337
  996POPC   C3A15077  21.485  11.973   8.029
  996POPC   C4A15078  21.304  11.978   7.642
  996POPC   C1B15079  21.262  12.336   8.792
  996POPC   C2B15080  21.217  12.234   8.388
  996POPC   C3B15081  21.173  12.388   7.982
  996POPC   C4B15082  21.334  12.490   7.592
  997POPC   NC315083  22.719  43.991   9.510
  997POPC   PO415084  23.082  43.466   9.198
  997POPC   GL115085  22.932  43.872   9.055
  997POPC   GL215086  22.575  44.012   9.026
  997POPC   C1A15087  22.876  43.872   8.623
  997POPC   D2A15088  23.222  43.923   8.381
  997POPC   C3A15089  23.029  43.916   8.022
  997POPC   C4A15090  23.058  43.678   7.674
  997POPC   C1B15091  22.512  43.577   8.839
  997POPC   C2B15092  22.497  43.435   8.380
  997POPC   C3B15093  22.565  43.655   7.942
  997POPC   C4B15094  22.694  44.039   7.662
  998POPC   NC315095  31.427  25.739   9.665
  998POPC   PO415096  31.665  25.068   9.592
  998POPC   GL115097  31.378  25.148   9.242
  998POPC   GL215098  31.519  25.449   9.214
  998POPC   C1A15099  31.358  25.225   8.763
  998POPC   D2A15100  31.355  25.415   8.326
  998POPC   C3A15101  31.451  25.251   7.930
  998POPC   C4A15102  31.278  25.149   7.489
  998POPC   C1B15103  31.725  25.558   8.824
  998POPC   C2B15104  31.749  25.715   8.415
  998POPC   C3B15105  31.816  25.602   8.000
  998POPC   C4B15106  31.801  25.792   7.612
  999POPC   NC315107  40.973  39.013   9.532
  999POPC   PO415108  40.675  39.607   9.332
  999POPC   GL115109  40.669  39.347   9.022
  999POPC   GL215110  41.019  39.223   9.076
  999POPC   C1A15111  40.387  39.301   8.686
  999POPC   D2A15112  40.552  39.128   8.324
  999POPC   C3A15113  40.885  39.368   8.176
  999POPC   C4A15114  40.826  39.265   7.802
  999POPC   C1B15115  40.983  39.150   8.645
  999POPC   C2B15116  41.016  38.881   8.288
  999POPC   C3B15117  41.188  38.885   7.874
  999POPC   C4B15118  41.054  38.995   7.441
 1000POPC   NC315119  10.359  17.026   9.295
 1000POPC   PO415120  10.827  16.650   9.650
 1000POPC   GL115121  10.643  16.628   9.163
 1000POPC   GL215122  10.672  16.928   8.891
 1000POPC   C1A15123  10.313  16.589   8.789
 1000POPC   D2A15124  10.229  16.645   8.321
 1000POPC   C3A15125  10.408  17.003   8.030
 1000POPC   C4A15126  10.418  16.996   7.534
 1000POPC   C1B15127  10.816  16.557   8.667
 1000POPC   C2B15128  10.769  16.522   8.235
 1000POPC   C3B15129  10.500  16.542   7.883
 1000POPC   C4B15130  10.827  16.790   7.732
 1001POPC   NC315131   1.830  12.521   9.428
 1001POPC   PO415132   2.121  13.169   9.363
 1001POPC   GL115133   2.197  12.819   9.095
 1001POPC   GL215134   1.867  12.787   8.986
 1001POPC   C1A15135   2.280  12.784   8.648
 1001POPC   D2A15136   1.957  12.818   8.325
 1001POPC   C3A15137   2.056  12.958   7.912
 1001POPC   C4A15138   2.030  12.738   7.517
 1001POPC   C1B15139   1.561  13.068   8.854
 1001POPC   C2B15140   1.560  13.147   8.424
 1001POPC   C3B15141   1.547  13.037   7.966
 1001POPC   C4B15142   1.642  13.025   7.525
 1002POPC   NC315143  36.393  33.866   9.464
 1002POPC   PO415144  35.741  33.459   9.460
 1002POPC   GL115145  35.996  33.735   9.153
 1002POPC   GL215146  36.365  33.707   9.001
 1002POPC   C1A15147  36.086  34.052   8.793
 1002POPC   D2A15148  36.259  34.179   8.373
 1002POPC   C3A15149  36.139  34.006   8.000
 1002POPC   C4A15150  36.071  33.843   7.572
 1002POPC   C1B15151  36.570  33.851   8.640
 1002POPC   C2B15152  36.341  33.658   8.319
 1002POPC   C3B15153  36.407  33.569   7.900
 1002POPC   C4B15154  36.193  33.369   7.569
 1003POPC   NC315155  40.636  44.732   9.703
 1003POPC   PO415156  40.727   0.415   9.591
 1003POPC   GL115157  40.828   0.518   9.181
 1003POPC   GL215158  41.027   0.208   9.167
 1003POPC   C1A15159  40.643   0.572   8.752
 1003POPC   D2A15160  40.712   0.792   8.364
 1003POPC   C3A15161  40.623   0.584   7.937
 1003POPC   C4A15162  40.410   0.660   7.510
 1003POPC   C1B15163  41.104   0.353   8.762
 1003POPC   C2B15164  40.903   0.247   8.390
 1003POPC   C3B15165  41.075   0.316   8.018
 1003POPC   C4B15166  40.927   0.303   7.606
 1004POPC   NC315167   0.752   0.604   9.533
 1004POPC   PO415168   0.104   0.369   9.625
 1004POPC   GL115169   0.274   0.614   9.239
 1004POPC   GL215170   0.567   0.450   9.069
 1004POPC   C1A15171   0.239   0.683   8.754
 1004POPC   D2A15172   0.077   0.484   8.344
 1004POPC   C3A15173   0.329   0.519   7.939
 1004POPC   C4A15174   0.260   0.707   7.498
 1004POPC   C1B15175   0.547   0.095   8.747
 1004POPC   C2B15176   0.413   0.076   8.330
 1004POPC   C3B15177   0.603   0.019   7.945
 1004POPC   C4B15178   0.941   0.219   7.682
 1005POPC   NC315179  23.978  18.501   9.355
 1005POPC   PO415180  23.379  18.197   9.526
 1005POPC   GL115181  23.625  18.130   9.174
 1005POPC   GL215182  23.598  18.476   9.027
 1005POPC   C1A15183  23.876  18.047   8.794
 1005POPC   D2A15184  23.775  17.917   8.379
 1005POPC   C3A15185  23.920  18.233   8.115
 1005POPC   C4A15186  23.897  18.381   7.718
 1005POPC   C1B15187  23.405  18.263   8.699
 1005POPC   C2B15188  23.440  18.296   8.280
 1005POPC   C3B15189  23.440  18.173   7.862
 1005POPC   C4B15190  23.372  18.426   7.492
 1006POPC   NC315191  12.236  34.250   9.471
 1006POPC   PO415192  12.023  33.602   9.495
 1006POPC   GL115193  12.031  33.881   9.165
 1006POPC   GL215194  12.388  33.849   9.187
 1006POPC   C1A15195  11.912  34.002   8.756
 1006POPC   D2A15196  11.995  33.737   8.424
 1006POPC   C3A15197  11.817  33.726   8.028
 1006POPC   C4A15198  11.615  33.362   7.833
 1006POPC   C1B15199  12.435  33.966   8.780
 1006POPC   C2B15200  12.533  33.780   8.421
 1006POPC   C3B15201  12.347  33.756   8.062
 1006POPC   C4B15202  12.212  34.003   7.777
 1007POPC   NC315203  41.008  41.917   9.500
 1007POPC   PO415204  40.735  41.177   9.481
 1007POPC   GL115205  40.895  41.310   9.140
 1007POPC   GL215206  40.859  41.633   9.125
 1007POPC   C1A15207  40.766  41.315   8.734
 1007POPC   D2A15208  41.015  41.269   8.389
 1007POPC   C3A15209  40.735  41.303   8.124
 1007POPC   C4A15210  40.851  41.281   7.746
 1007POPC   C1B15211  40.761  41.854   8.776
 1007POPC   C2B15212  40.854  41.756   8.376
 1007POPC   C3B15213  41.029  41.693   7.979
 1007POPC   C4B15214  40.855  41.812   7.588
 1008POPC   NC315215  13.439  37.231   9.555
 1008POPC   PO415216  13.830  36.656   9.488
 1008POPC   GL115217  13.759  37.008   9.196
 1008POPC   GL215218  13.429  36.970   9.125
 1008POPC   C1A15219  13.745  36.968   8.725
 1008POPC   D2A15220  14.003  36.802   8.377
 1008POPC   C3A15221  13.753  36.659   8.041
 1008POPC   C4A15222  13.695  36.945   7.725
 1008POPC   C1B15223  13.222  37.056   8.770
 1008POPC   C2B15224  13.329  36.861   8.388
 1008POPC   C3B15225  13.247  36.992   7.993
 1008POPC   C4B15226  13.307  37.251   7.686
 1009POPC   NC315227  13.842  18.833   9.464
 1009POPC   PO415228  13.901  19.450   9.693
 1009POPC   GL115229  13.860  19.289   9.183
 1009POPC   GL215230  13.623  19.078   9.073
 1009POPC   C1A15231  13.940  19.068   8.701
 1009POPC   D2A15232  13.721  19.152   8.270
 1009POPC   C3A15233  13.807  18.984   7.861
 1009POPC   C4A15234  13.833  19.245   7.521
 1009POPC   C1B15235  13.438  19.179   8.690
 1009POPC   C2B15236  13.217  19.059   8.296
 1009POPC   C3B15237  13.256  18.798   7.970
 1009POPC   C4B15238  13.380  18.913   7.565
 1010POPC   NC315239  16.882  24.124   9.373
 1010POPC   PO415240  16.787  24.704   9.678
 1010POPC   GL115241  16.668  24.653   9.197
 1010POPC   GL215242  16.485  24.341   9.165
 1010POPC   C1A15243  16.735  24.569   8.749
 1010POPC   D2A15244  16.701  24.762   8.345
 1010POPC   C3A15245  16.909  24.539   8.010
 1010POPC   C4A15246  16.812  24.455   7.547
 1010POPC   C1B15247  16.299  24.277   8.741
 1010POPC   C2B15248  16.391  24.333   8.290
 1010POPC   C3B15249  16.569  24.155   7.906
 1010POPC   C4B15250  16.998  24.068   7.805
 1011POPC   NC315251  20.831  22.036   9.557
 1011POPC   PO415252  20.414  22.508   9.434
 1011POPC   GL115253  20.412  22.044   9.258
 1011POPC   GL215254  20.754  21.925   9.086
 1011POPC   C1A15255  20.317  21.895   8.843
 1011POPC   D2A15256  20.291  22.195   8.495
 1011POPC   C3A15257  20.426  22.013   8.111
 1011POPC   C4A15258  20.435  22.103   7.689
 1011POPC   C1B15259  20.771  22.075   8.652
 1011POPC   C2B15260  20.790  22.443   8.368
 1011POPC   C3B15261  20.827  22.350   7.927
 1011POPC   C4B15262  20.881  21.900   7.824
 1012POPC   NC315263  35.339   2.670   9.574
 1012POPC   PO415264  35.087   2.982   9.073
 1012POPC   GL115265  35.214   2.593   8.914
 1012POPC   GL215266  35.525   2.548   9.095
 1012POPC   C1A15267  35.315   2.625   8.472
 1012POPC   D2A15268  35.343   3.012   8.207
 1012POPC   C3A15269  35.116   2.934   7.829
 1012POPC   C4A15270  35.131   2.541   7.659
 1012POPC   C1B15271  35.749   2.539   8.736
 1012POPC   C2B15272  35.744   2.308   8.359
 1012POPC   C3B15273  35.633   2.555   8.063
 1012POPC   C4B15274  35.599   2.788   7.732
 1013POPC   NC315275   5.952  23.370   9.504
 1013POPC   PO415276   6.405  23.926   9.469
 1013POPC   GL115277   6.062  23.991   9.157
 1013POPC   GL215278   5.852  23.710   9.129
 1013POPC   C1A15279   5.925  23.970   8.702
 1013POPC   D2A15280   5.666  24.102   8.363
 1013POPC   C3A15281   5.881  23.976   8.005
 1013POPC   C4A15282   5.912  23.944   7.588
 1013POPC   C1B15283   5.665  23.530   8.758
 1013POPC   C2B15284   5.841  23.543   8.350
 1013POPC   C3B15285   5.620  23.536   7.980
 1013POPC   C4B15286   5.671  23.441   7.592
 1014POPC   NC315287   1.542  39.521   9.332
 1014POPC   PO415288   1.276  39.036   9.687
 1014POPC   GL115289   1.070  39.301   9.305
 1014POPC   GL215290   1.261  39.246   8.982
 1014POPC   C1A15291   0.865  39.555   8.935
 1014POPC   D2A15292   0.779  39.666   8.474
 1014POPC   C3A15293   0.867  39.343   8.126
 1014POPC   C4A15294   0.894  38.943   7.877
 1014POPC   C1B15295   1.528  39.466   8.672
 1014POPC   C2B15296   1.485  39.536   8.234
 1014POPC   C3B15297   1.536  39.189   7.966
 1014POPC   C4B15298   1.767  39.223   7.610
 1015POPC   NC315299   8.985   7.629   9.489
 1015POPC   PO415300   9.189   6.985   9.351
 1015POPC   GL115301   9.126   7.386   9.054
 1015POPC   GL215302   8.853   7.705   9.024
 1015POPC   C1A15303   9.110   7.534   8.631
 1015POPC   D2A15304   8.973   7.390   8.253
 1015POPC   C3A15305   9.114   7.463   7.876
 1015POPC   C4A15306   9.085   7.208   7.519
 1015POPC   C1B15307   8.619   7.448   8.757
 1015POPC   C2B15308   8.558   7.643   8.370
 1015POPC   C3B15309   8.611   7.597   7.936
 1015POPC   C4B15310   8.690   7.504   7.510
 1016POPC   NC315311  14.780  24.134   9.424
 1016POPC   PO415312  14.324  23.705   9.593
 1016POPC   GL115313  14.502  23.759   9.220
 1016POPC   GL215314  14.220  23.935   9.108
 1016POPC   C1A15315  14.665  23.809   8.829
 1016POPC   D2A15316  14.567  23.668   8.470
 1016POPC   C3A15317  14.597  23.885   8.117
 1016POPC   C4A15318  14.374  23.673   7.850
 1016POPC   C1B15319  14.126  23.688   8.752
 1016POPC   C2B15320  14.112  23.468   8.346
 1016POPC   C3B15321  14.113  23.246   7.971
 1016POPC   C4B15322  13.885  23.566   7.794
 1017POPC   NC315323  33.310  26.024   9.567
 1017POPC   PO415324  32.720  26.032   9.315
 1017POPC   GL115325  33.104  26.118   9.102
 1017POPC   GL215326  33.225  25.786   9.106
 1017POPC   C1A15327  33.223  26.209   8.685
 1017POPC   D2A15328  32.977  26.147   8.339
 1017POPC   C3A15329  33.159  26.071   7.977
 1017POPC   C4A15330  33.063  25.897   7.565
 1017POPC   C1B15331  32.960  25.742   8.759
 1017POPC   C2B15332  32.757  25.690   8.360
 1017POPC   C3B15333  32.688  25.836   7.971
 1017POPC   C4B15334  32.708  25.549   7.633
 1018POPC   NC315335   9.136  41.053   9.452
 1018POPC   PO415336   9.316  40.416   9.640
 1018POPC   GL115337   9.168  40.570   9.191
 1018POPC   GL215338   8.838  40.546   9.058
 1018POPC   C1A15339   9.173  40.835   8.796
 1018POPC   D2A15340   8.961  41.153   8.544
 1018POPC   C3A15341   9.031  41.159   8.111
 1018POPC   C4A15342   8.705  40.951   7.829
 1018POPC   C1B15343   8.690  40.671   8.647
 1018POPC   C2B15344   8.922  40.680   8.271
 1018POPC   C3B15345   8.921  40.469   7.892
 1018POPC   C4B15346   8.732  40.520   7.528
 1019POPC   NC315347  28.517  27.261   9.387
 1019POPC   PO415348  28.202  27.827   9.629
 1019POPC   GL115349  28.251  27.811   9.191
 1019POPC   GL215350  28.125  27.484   9.151
 1019POPC   C1A15351  28.418  27.625   8.770
 1019POPC   D2A15352  28.551  27.457   8.369
 1019POPC   C3A15353  28.444  27.600   7.942
 1019POPC   C4A15354  28.674  27.307   7.670
 1019POPC   C1B15355  27.929  27.780   8.814
 1019POPC   C2B15356  28.047  27.668   8.412
 1019POPC   C3B15357  28.005  27.856   8.044
 1019POPC   C4B15358  28.002  27.731   7.657
 1020POPC   NC315359  11.584  24.816   9.341
 1020POPC   PO415360  11.265  25.398   9.641
 1020POPC   GL115361  11.301  25.220   9.232
 1020POPC   GL215362  11.001  25.034   9.089
 1020POPC   C1A15363  11.346  25.349   8.813
 1020POPC   D2A15364  11.287  25.105   8.451
 1020POPC   C3A15365  11.530  25.071   8.117
 1020POPC   C4A15366  11.321  25.250   7.800
 1020POPC   C1B15367  10.865  25.154   8.723
 1020POPC   C2B15368  10.638  25.148   8.367
 1020POPC   C3B15369  10.839  25.125   7.980
 1020POPC   C4B15370  10.918  24.999   7.580
 1021POPC   NC315371  23.108   2.050   9.407
 1021POPC   PO415372  22.440   2.064   9.481
 1021POPC   GL115373  22.700   2.047   9.118
 1021POPC   GL215374  22.818   1.693   9.109
 1021POPC   C1A15375  22.972   2.121   8.757
 1021POPC   D2A15376  23.139   1.945   8.377
 1021POPC   C3A15377  23.000   1.995   7.947
 1021POPC   C4A15378  23.143   2.374   7.754
 1021POPC   C1B15379  22.642   1.402   8.796
 1021POPC   C2B15380  22.538   1.486   8.372
 1021POPC   C3B15381  22.518   1.786   8.053
 1021POPC   C4B15382  22.603   1.707   7.607
 1022POPC   NC315383   7.648   0.575   9.663
 1022POPC   PO415384   6.960   0.435   9.561
 1022POPC   GL115385   7.207   0.407   9.170
 1022POPC   GL215386   7.558   0.330   9.191
 1022POPC   C1A15387   7.225   0.242   8.750
 1022POPC   D2A15388   7.270   0.435   8.378
 1022POPC   C3A15389   7.283   0.187   8.013
 1022POPC   C4A15390   7.486   0.224   7.628
 1022POPC   C1B15391   7.662   0.501   8.747
 1022POPC   C2B15392   7.629   0.816   8.422
 1022POPC   C3B15393   7.561   0.664   8.029
 1022POPC   C4B15394   7.841   0.594   7.735
 1023POPC   NC315395   1.908   3.327   9.328
 1023POPC   PO415396   1.762   4.042   9.398
 1023POPC   GL115397   1.955   3.783   9.063
 1023POPC   GL215398   1.640   3.637   9.009
 1023POPC   C1A15399   2.269   3.748   8.688
 1023POPC   D2A15400   2.313   3.922   8.245
 1023POPC   C3A15401   2.299   3.623   7.876
 1023POPC   C4A15402   2.134   3.575   7.442
 1023POPC   C1B15403   1.828   3.399   8.674
 1023POPC   C2B15404   2.010   3.471   8.278
 1023POPC   C3B15405   1.796   3.506   7.867
 1023POPC   C4B15406   1.599   3.478   7.461
 1024POPC   NC315407   0.151   3.369   9.486
 1024POPC   PO415408   0.847   3.659   9.530
 1024POPC   GL115409   0.645   3.550   9.162
 1024POPC   GL215410   0.523   3.887   9.169
 1024POPC   C1A15411   0.754   3.351   8.748
 1024POPC   D2A15412   0.752   3.055   8.392
 1024POPC   C3A15413   0.499   3.194   8.060
 1024POPC   C4A15414   0.493   3.560   7.798
 1024POPC   C1B15415   0.366   3.771   8.769
 1024POPC   C2B15416   0.408   3.685   8.323
 1024POPC   C3B15417   0.355   3.998   8.013
 1024POPC   C4B15418   0.295   3.994   7.560
 1025POPC   NC315419  33.529  19.739   9.703
 1025POPC   PO415420  33.771  19.399   9.175
 1025POPC   GL115421  33.654  19.709   8.928
 1025POPC   GL215422  33.478  19.989   8.988
 1025POPC   C1A15423  33.831  19.663   8.550
 1025POPC   D2A15424  34.128  19.720   8.289
 1025POPC   C3A15425  33.940  19.674   7.960
 1025POPC   C4A15426  33.527  19.603   7.873
 1025POPC   C1B15427  33.705  20.163   8.676
 1025POPC   C2B15428  33.752  20.091   8.264
 1025POPC   C3B15429  33.644  20.077   7.851
 1025POPC   C4B15430  34.031  20.077   7.671
 1026POPC   NC315431  30.585  19.505   9.486
 1026POPC   PO415432  30.988  20.048   9.489
 1026POPC   GL115433  30.774  19.866   9.150
 1026POPC   GL215434  31.005  19.644   9.103
 1026POPC   C1A15435  30.796  19.874   8.680
 1026POPC   D2A15436  30.903  20.039   8.279
 1026POPC   C3A15437  31.094  19.777   7.943
 1026POPC   C4A15438  31.043  19.875   7.469
 1026POPC   C1B15439  30.766  19.399   8.836
 1026POPC   C2B15440  30.481  19.477   8.497
 1026POPC   C3B15441  30.585  19.420   8.050
 1026POPC   C4B15442  30.762  19.485   7.645
 1027POPC   NC315443  28.084  38.386   9.608
 1027POPC   PO415444  27.409  38.408   9.591
 1027POPC   GL115445  27.689  38.250   9.297
 1027POPC   GL215446  27.731  38.583   9.142
 1027POPC   C1A15447  27.582  38.067   8.913
 1027POPC   D2A15448  27.560  38.394   8.607
 1027POPC   C3A15449  27.363  38.406   8.213
 1027POPC   C4A15450  27.537  38.369   7.830
 1027POPC   C1B15451  27.859  38.789   8.752
 1027POPC   C2B15452  27.742  38.755   8.304
 1027POPC   C3B15453  27.881  38.775   7.904
 1027POPC   C4B15454  28.170  38.541   7.655
 1028POPC   NC315455  34.744  25.547   9.765
 1028POPC   PO415456  34.952  24.981   9.455
 1028POPC   GL115457  34.753  25.298   9.146
 1028POPC   GL215458  34.495  25.561   9.117
 1028POPC   C1A15459  34.818  25.491   8.694
 1028POPC   D2A15460  34.658  25.671   8.291
 1028POPC   C3A15461  34.895  25.587   7.967
 1028POPC   C4A15462  34.789  25.197   7.851
 1028POPC   C1B15463  34.365  25.229   8.829
 1028POPC   C2B15464  34.290  25.349   8.413
 1028POPC   C3B15465  34.310  25.297   7.990
 1028POPC   C4B15466  34.327  24.943   7.759
 1029POPC   NC315467   3.983  28.421   9.593
 1029POPC   PO415468   4.632  28.322   9.525
 1029POPC   GL115469   4.369  28.411   9.176
 1029POPC   GL215470   4.086  28.228   9.146
 1029POPC   C1A15471   4.326  28.609   8.767
 1029POPC   D2A15472   4.570  28.705   8.365
 1029POPC   C3A15473   4.315  28.705   7.973
 1029POPC   C4A15474   4.334  28.534   7.543
 1029POPC   C1B15475   4.189  28.108   8.755
 1029POPC   C2B15476   4.231  28.322   8.355
 1029POPC   C3B15477   4.244  28.191   7.937
 1029POPC   C4B15478   3.843  28.041   7.757
 1030POPC   NC315479  29.892   0.159   9.425
 1030POPC   PO415480  29.526   0.718   9.275
 1030POPC   GL115481  29.754   0.456   9.040
 1030POPC   GL215482  29.500   0.211   9.078
 1030POPC   C1A15483  29.912   0.275   8.635
 1030POPC   D2A15484  29.858   0.508   8.284
 1030POPC   C3A15485  30.048   0.426   7.892
 1030POPC   C4A15486  30.057   0.787   7.576
 1030POPC   C1B15487  29.428   0.411   8.665
 1030POPC   C2B15488  29.399   0.255   8.287
 1030POPC   C3B15489  29.519   0.360   7.918
 1030POPC   C4B15490  29.692   0.440   7.539
 1031POPC   NC315491  13.598  22.140   9.494
 1031POPC   PO415492  13.898  22.676   9.249
 1031POPC   GL115493  13.592  22.376   8.988
 1031POPC   GL215494  13.627  21.997   9.018
 1031POPC   C1A15495  13.419  22.170   8.600
 1031POPC   D2A15496  13.129  21.907   8.348
 1031POPC   C3A15497  13.176  22.127   7.985
 1031POPC   C4A15498  13.322  22.420   7.709
 1031POPC   C1B15499  13.925  21.846   8.714
 1031POPC   C2B15500  13.910  21.823   8.286
 1031POPC   C3B15501  13.589  21.828   7.997
 1031POPC   C4B15502  13.598  22.030   7.596
 1032POPC   NC315503   3.596  27.418   9.709
 1032POPC   PO415504   3.842  26.805   9.453
 1032POPC   GL115505   3.671  26.657   9.063
 1032POPC   GL215506   3.457  26.906   9.003
 1032POPC   C1A15507   3.591  26.666   8.594
 1032POPC   D2A15508   3.626  26.561   8.174
 1032POPC   C3A15509   3.300  26.332   7.964
 1032POPC   C4A15510   3.489  26.593   7.675
 1032POPC   C1B15511   3.415  27.174   8.648
 1032POPC   C2B15512   3.395  27.045   8.231
 1032POPC   C3B15513   3.526  27.059   7.814
 1032POPC   C4B15514   3.262  26.946   7.408
 1033POPC   NC315515  27.947  22.019   9.355
 1033POPC   PO415516  27.318  22.103   9.514
 1033POPC   GL115517  27.325  22.129   9.088
 1033POPC   GL215518  27.674  22.164   8.958
 1033POPC   C1A15519  27.250  22.242   8.666
 1033POPC   D2A15520  27.616  22.250   8.411
 1033POPC   C3A15521  27.539  22.344   7.990
 1033POPC   C4A15522  27.413  22.019   7.756
 1033POPC   C1B15523  27.959  21.875   8.725
 1033POPC   C2B15524  27.826  21.713   8.355
 1033POPC   C3B15525  27.893  21.869   7.946
 1033POPC   C4B15526  27.856  21.950   7.510
 1034POPC   NC315527   3.486  35.658   9.318
 1034POPC   PO415528   3.622  35.166   9.729
 1034POPC   GL115529   3.411  35.148   9.235
 1034POPC   GL215530   3.256  34.863   9.161
 1034POPC   C1A15531   3.474  35.345   8.753
 1034POPC   D2A15532   3.494  35.543   8.335
 1034POPC   C3A15533   3.864  35.474   8.094
 1034POPC   C4A15534   3.678  35.392   7.707
 1034POPC   C1B15535   3.067  35.064   8.806
 1034POPC   C2B15536   3.147  35.041   8.353
 1034POPC   C3B15537   3.230  35.208   7.910
 1034POPC   C4B15538   3.122  35.392   7.480
 1035POPC   NC315539  30.499   4.538   9.530
 1035POPC   PO415540  30.591   3.889   9.549
 1035POPC   GL115541  30.488   4.182   9.172
 1035POPC   GL215542  30.591   4.542   9.030
 1035POPC   C1A15543  30.460   4.132   8.737
 1035POPC   D2A15544  30.771   4.302   8.453
 1035POPC   C3A15545  30.854   4.103   8.072
 1035POPC   C4A15546  30.699   4.077   7.663
 1035POPC   C1B15547  30.322   4.625   8.657
 1035POPC   C2B15548  30.288   4.474   8.255
 1035POPC   C3B15549  30.641   4.570   7.997
 1035POPC   C4B15550  30.856   4.948   7.895
 1036POPC   NC315551   5.486  12.593   9.751
 1036POPC   PO415552   5.162  13.108   9.368
 1036POPC   GL115553   5.235  13.031   8.946
 1036POPC   GL215554   4.953  12.801   9.016
 1036POPC   C1A15555   5.189  13.007   8.512
 1036POPC   D2A15556   4.859  12.764   8.304
 1036POPC   C3A15557   4.907  12.922   7.905
 1036POPC   C4A15558   5.344  12.951   7.919
 1036POPC   C1B15559   5.090  12.555   8.717
 1036POPC   C2B15560   5.346  12.542   8.369
 1036POPC   C3B15561   5.211  12.463   7.977
 1036POPC   C4B15562   5.452  12.517   7.621
 1037POPC   NC315563  35.654  22.366   9.432
 1037POPC   PO415564  35.132  21.944   9.430
 1037POPC   GL115565  35.357  22.107   9.069
 1037POPC   GL215566  35.289  22.457   9.087
 1037POPC   C1A15567  35.198  22.132   8.639
 1037POPC   D2A15568  35.224  21.810   8.287
 1037POPC   C3A15569  35.472  21.883   7.881
 1037POPC   C4A15570  35.769  21.998   7.523
 1037POPC   C1B15571  35.561  22.519   8.741
 1037POPC   C2B15572  35.619  22.259   8.360
 1037POPC   C3B15573  35.556  22.386   7.935
 1037POPC   C4B15574  35.218  22.549   7.725
 1038POPC   NC315575  37.879  14.965   9.653
 1038POPC   PO415576  37.569  15.529   9.524
 1038POPC   GL115577  37.511  15.148   9.297
 1038POPC   GL215578  37.437  15.365   9.064
 1038POPC   C1A15579  37.617  14.983   8.831
 1038POPC   D2A15580  37.863  15.076   8.475
 1038POPC   C3A15581  37.628  15.084   8.107
 1038POPC   C4A15582  37.754  14.896   7.745
 1038POPC   C1B15583  37.775  15.487   8.811
 1038POPC   C2B15584  37.867  15.574   8.388
 1038POPC   C3B15585  37.997  15.452   7.993
 1038POPC   C4B15586  37.707  15.397   7.670
 1039POPC   NC315587  26.338  32.300   9.499
 1039POPC   PO415588  25.750  32.001   9.562
 1039POPC   GL115589  25.933  32.159   9.163
 1039POPC   GL215590  26.018  32.545   9.195
 1039POPC   C1A15591  26.084  31.969   8.753
 1039POPC   D2A15592  26.301  32.055   8.374
 1039POPC   C3A15593  26.111  32.250   8.021
 1039POPC   C4A15594  26.312  32.608   7.783
 1039POPC   C1B15595  25.693  32.545   8.910
 1039POPC   C2B15596  25.755  32.399   8.520
 1039POPC   C3B15597  25.554  32.433   8.156
 1039POPC   C4B15598  25.751  32.509   7.758
 1040POPC   NC315599  32.463  12.929   9.373
 1040POPC   PO415600  33.137  13.031   9.565
 1040POPC   GL115601  33.263  13.045   9.143
 1040POPC   GL215602  33.009  12.772   9.134
 1040POPC   C1A15603  33.101  13.073   8.716
 1040POPC   D2A15604  32.790  13.049   8.388
 1040POPC   C3A15605  33.046  12.972   8.023
 1040POPC   C4A15606  32.815  12.856   7.697
 1040POPC   C1B15607  32.878  12.597   8.761
 1040POPC   C2B15608  33.038  12.604   8.373
 1040POPC   C3B15609  32.896  12.456   7.987
 1040POPC   C4B15610  33.153  12.476   7.626
 1041POPC   NC315611  35.134  30.952   9.380
 1041POPC   PO415612  35.576  30.524   9.621
 1041POPC   GL115613  35.388  30.514   9.217
 1041POPC   GL215614  35.610  30.269   9.115
 1041POPC   C1A15615  35.346  30.749   8.807
 1041POPC   D2A15616  35.456  30.656   8.409
 1041POPC   C3A15617  35.318  30.769   8.032
 1041POPC   C4A15618  35.379  30.714   7.622
 1041POPC   C1B15619  35.782  30.417   8.735
 1041POPC   C2B15620  35.937  30.495   8.324
 1041POPC   C3B15621  35.708  30.413   7.997
 1041POPC   C4B15622  35.792  30.419   7.590
 1042POPC   NC315623  21.994  34.537   9.804
 1042POPC   PO415624  22.495  34.214   9.452
 1042POPC   GL115625  22.125  34.428   9.255
 1042POPC   GL215626  22.184  34.761   9.134
 1042POPC   C1A15627  21.988  34.439   8.788
 1042POPC   D2A15628  22.166  34.330   8.365
 1042POPC   C3A15629  22.024  34.565   7.980
 1042POPC   C4A15630  21.809  34.452   7.551
 1042POPC   C1B15631  22.451  34.893   8.795
 1042POPC   C2B15632  22.377  34.783   8.369
 1042POPC   C3B15633  22.489  34.985   8.006
 1042POPC   C4B15634  22.295  34.881   7.670
 1043POPC   NC315635  41.553  31.720   9.510
 1043POPC   PO415636  41.821  31.102   9.589
 1043POPC   GL115637  41.527  31.285   9.208
 1043POPC   GL215638  41.275  31.605   9.119
 1043POPC   C1A15639  41.501  31.313   8.733
 1043POPC   D2A15640  41.356  31.184   8.312
 1043POPC   C3A15641  41.512  31.189   7.871
 1043POPC   C4A15642  41.708  31.476   7.553
 1043POPC   C1B15643  41.491  31.865   8.802
 1043POPC   C2B15644  41.536  31.969   8.357
 1043POPC   C3B15645  41.492  31.672   8.033
 1043POPC   C4B15646  41.237  31.599   7.688
 1044POPC   NC315647  26.657  10.119   9.511
 1044POPC   PO415648  26.730  10.771   9.368
 1044POPC   GL115649  26.588  10.427   9.078
 1044POPC   GL215650  26.906  10.236   9.052
 1044POPC   C1A15651  26.601  10.308   8.615
 1044POPC   D2A15652  26.346  10.198   8.246
 1044POPC   C3A15653  26.539  10.503   7.999
 1044POPC   C4A15654  26.907  10.486   7.772
 1044POPC   C1B15655  26.969  10.627   8.789
 1044POPC   C2B15656  26.969  10.687   8.343
 1044POPC   C3B15657  27.236  10.774   8.006
 1044POPC   C4B15658  27.203  10.963   7.631
 1045POPC   NC315659  18.770  32.418   9.588
 1045POPC   PO415660  19.272  31.940   9.529
 1045POPC   GL115661  18.986  32.131   9.188
 1045POPC   GL215662  18.889  32.482   9.100
 1045POPC   C1A15663  19.115  32.208   8.746
 1045POPC   D2A15664  19.412  32.066   8.448
 1045POPC   C3A15665  19.145  32.081   8.118
 1045POPC   C4A15666  19.146  32.164   7.736
 1045POPC   C1B15667  18.647  32.404   8.749
 1045POPC   C2B15668  18.719  32.246   8.368
 1045POPC   C3B15669  18.767  32.433   7.979
 1045POPC   C4B15670  18.669  32.326   7.562
 1046POPC   NC315671  42.138   0.073   9.538
 1046POPC   PO415672  42.578   0.575   9.336
 1046POPC   GL115673  42.375   0.267   9.115
 1046POPC   GL215674  42.014   0.358   9.127
 1046POPC   C1A15675  42.517   0.191   8.706
 1046POPC   D2A15676  42.478   0.472   8.371
 1046POPC   C3A15677  42.666   0.304   8.029
 1046POPC   C4A15678  42.483   0.150   7.678
 1046POPC   C1B15679  42.086   0.484   8.734
 1046POPC   C2B15680  42.036   0.210   8.405
 1046POPC   C3B15681  42.082   0.352   7.986
 1046POPC   C4B15682  41.957   0.089   7.671
 1047POPC   NC315683  17.267  34.151   9.469
 1047POPC   PO415684  17.858  34.474   9.467
 1047POPC   GL115685  17.536  34.598   9.186
 1047POPC   GL215686  17.177  34.563   9.184
 1047POPC   C1A15687  17.507  34.558   8.766
 1047POPC   D2A15688  17.772  34.372   8.432
 1047POPC   C3A15689  17.684  34.521   8.013
 1047POPC   C4A15690  17.707  34.506   7.570
 1047POPC   C1B15691  16.987  34.395   8.831
 1047POPC   C2B15692  17.022  34.578   8.452
 1047POPC   C3B15693  17.086  34.442   8.050
 1047POPC   C4B15694  17.276  34.715   7.777
 1048POPC   NC315695   2.064  41.272   9.691
 1048POPC   PO415696   1.574  41.624   9.474
 1048POPC   GL115697   1.833  41.474   9.145
 1048POPC   GL215698   2.150  41.305   9.193
 1048POPC   C1A15699   2.024  41.597   8.751
 1048POPC   D2A15700   2.238  41.618   8.344
 1048POPC   C3A15701   1.949  41.741   8.033
 1048POPC   C4A15702   1.858  41.561   7.667
 1048POPC   C1B15703   2.316  41.186   8.797
 1048POPC   C2B15704   2.226  41.101   8.354
 1048POPC   C3B15705   2.266  41.246   7.944
 1048POPC   C4B15706   2.452  41.615   7.796
 1049POPC   NC315707  35.894  33.010   9.405
 1049POPC   PO415708  36.525  33.396   9.377
 1049POPC   GL115709  36.225  33.239   9.111
 1049POPC   GL215710  36.295  32.895   9.091
 1049POPC   C1A15711  36.060  33.396   8.715
 1049POPC   D2A15712  35.716  33.355   8.408
 1049POPC   C3A15713  35.964  33.329   8.019
 1049POPC   C4A15714  36.340  33.037   7.918
 1049POPC   C1B15715  35.994  32.877   8.774
 1049POPC   C2B15716  35.988  32.916   8.345
 1049POPC   C3B15717  35.846  32.856   7.951
 1049POPC   C4B15718  36.022  32.897   7.511
 1050POPC   NC315719  29.094  11.110   9.588
 1050POPC   PO415720  29.420  11.662   9.467
 1050POPC   GL115721  29.155  11.421   9.167
 1050POPC   GL215722  29.040  11.058   9.101
 1050POPC   C1A15723  29.301  11.345   8.761
 1050POPC   D2A15724  29.291  11.607   8.425
 1050POPC   C3A15725  29.267  11.351   8.104
 1050POPC   C4A15726  29.284  11.438   7.714
 1050POPC   C1B15727  28.801  11.193   8.748
 1050POPC   C2B15728  28.670  10.914   8.427
 1050POPC   C3B15729  28.801  10.863   8.031
 1050POPC   C4B15730  28.801  11.243   7.815
 1051POPC   NC315731  36.952   7.202   9.528
 1051POPC   PO415732  36.645   7.738   9.182
 1051POPC   GL115733  36.854   7.354   9.045
 1051POPC   GL215734  37.226   7.317   9.084
 1051POPC   C1A15735  36.986   7.373   8.628
 1051POPC   D2A15736  37.214   7.583   8.310
 1051POPC   C3A15737  36.961   7.651   7.908
 1051POPC   C4A15738  36.799   7.353   7.592
 1051POPC   C1B15739  37.342   7.038   8.745
 1051POPC   C2B15740  37.225   6.983   8.337
 1051POPC   C3B15741  37.094   7.166   7.989
 1051POPC   C4B15742  37.186   7.025   7.599
 1052POPC   NC315743   3.383  20.322   9.412
 1052POPC   PO415744   3.906  20.671   9.548
 1052POPC   GL115745   3.795  20.615   9.110
 1052POPC   GL215746   3.426  20.596   8.993
 1052POPC   C1A15747   3.807  20.670   8.646
 1052POPC   D2A15748   3.478  20.457   8.385
 1052POPC   C3A15749   3.523  20.574   7.965
 1052POPC   C4A15750   3.816  20.816   7.739
 1052POPC   C1B15751   3.649  20.211   8.814
 1052POPC   C2B15752   3.912  20.180   8.457
 1052POPC   C3B15753   3.770  20.131   8.085
 1052POPC   C4B15754   3.812  20.256   7.689
 1053POPC   NC315755  11.786   6.482   9.497
 1053POPC   PO415756  12.367   6.733   9.670
 1053POPC   GL115757  12.212   6.878   9.236
 1053POPC   GL215758  11.886   6.792   9.096
 1053POPC   C1A15759  12.242   6.947   8.754
 1053POPC   D2A15760  12.125   6.998   8.297
 1053POPC   C3A15761  12.339   6.894   7.874
 1053POPC   C4A15762  12.485   6.537   7.592
 1053POPC   C1B15763  11.747   6.694   8.667
 1053POPC   C2B15764  11.822   6.520   8.231
 1053POPC   C3B15765  11.993   6.309   7.822
 1053POPC   C4B15766  11.944   6.167   7.356
 1054POPC   NC315767  37.223  29.342   9.294
 1054POPC   PO415768  37.507  28.859   9.747
 1054POPC   GL115769  37.620  28.937   9.242
 1054POPC   GL215770  37.680  29.290   9.062
 1054POPC   C1A15771  37.688  28.876   8.769
 1054POPC   D2A15772  37.423  28.885   8.380
 1054POPC   C3A15773  37.645  28.921   7.984
 1054POPC   C4A15774  37.527  29.215   7.664
 1054POPC   C1B15775  37.427  29.555   8.710
 1054POPC   C2B15776  37.502  29.642   8.248
 1054POPC   C3B15777  37.846  29.417   8.026
 1054POPC   C4B15778  38.051  29.251   7.657
 1055POPC   NC315779  14.113  28.837   9.389
 1055POPC   PO415780  14.266  28.241   9.567
 1055POPC   GL115781  14.227  28.388   9.137
 1055POPC   GL215782  14.288  28.114   8.937
 1055POPC   C1A15783  14.102  28.631   8.762
 1055POPC   D2A15784  14.186  28.913   8.416
 1055POPC   C3A15785  14.145  28.704   8.013
 1055POPC   C4A15786  13.898  28.561   7.663
 1055POPC   C1B15787  14.540  28.363   8.670
 1055POPC   C2B15788  14.693  28.579   8.336
 1055POPC   C3B15789  14.595  28.432   7.956
 1055POPC   C4B15790  14.225  28.209   7.831
 1056POPC   NC315791  13.181  41.682   9.309
 1056POPC   PO415792  12.482  41.461   9.264
 1056POPC   GL115793  12.769  41.657   8.993
 1056POPC   GL215794  12.988  41.371   8.971
 1056POPC   C1A15795  12.900  41.785   8.577
 1056POPC   D2A15796  13.018  41.535   8.217
 1056POPC   C3A15797  12.677  41.455   7.936
 1056POPC   C4A15798  12.251  41.309   7.994
 1056POPC   C1B15799  13.037  41.189   8.594
 1056POPC   C2B15800  13.080  40.996   8.191
 1056POPC   C3B15801  13.119  41.216   7.823
 1056POPC   C4B15802  13.236  41.663   7.768
 1057POPC   NC315803  14.822  27.083   9.478
 1057POPC   PO415804  15.389  26.708   9.642
 1057POPC   GL115805  15.136  26.722   9.241
 1057POPC   GL215806  14.900  26.883   9.033
 1057POPC   C1A15807  15.213  26.556   8.825
 1057POPC   D2A15808  15.361  26.720   8.419
 1057POPC   C3A15809  15.132  26.657   8.047
 1057POPC   C4A15810  15.187  26.765   7.641
 1057POPC   C1B15811  14.862  27.084   8.661
 1057POPC   C2B15812  14.748  26.971   8.251
 1057POPC   C3B15813  14.744  26.914   7.814
 1057POPC   C4B15814  14.961  27.196   7.512
 1058POPC   NC315815  22.679  43.013   9.716
 1058POPC   PO415816  23.183  43.401   9.727
 1058POPC   GL115817  22.909  43.031   9.294
 1058POPC   GL215818  23.081  42.755   9.153
 1058POPC   C1A15819  22.742  43.059   8.837
 1058POPC   D2A15820  22.830  43.010   8.401
 1058POPC   C3A15821  22.975  43.345   8.121
 1058POPC   C4A15822  22.843  43.219   7.717
 1058POPC   C1B15823  23.236  42.853   8.745
 1058POPC   C2B15824  23.195  42.670   8.323
 1058POPC   C3B15825  23.195  42.900   7.927
 1058POPC   C4B15826  23.396  43.301   7.773
 1059POPC   NC315827  39.215  17.296   9.532
 1059POPC   PO415828  39.705  17.838   9.507
 1059POPC   GL115829  39.508  17.503   9.163
 1059POPC   GL215830  39.118  17.445   9.082
 1059POPC   C1A15831  39.394  17.604   8.714
 1059POPC   D2A15832  39.373  17.888   8.400
 1059POPC   C3A15833  39.557  17.724   8.048
 1059POPC   C4A15834  39.295  17.573   7.750
 1059POPC   C1B15835  38.914  17.437   8.699
 1059POPC   C2B15836  39.098  17.428   8.304
 1059POPC   C3B15837  39.112  17.137   7.993
 1059POPC   C4B15838  38.957  17.199   7.611
 1060POPC   NC315839   6.452  28.721   9.630
 1060POPC   PO415840   6.792  28.100   9.600
 1060POPC   GL115841   6.696  28.134   9.184
 1060POPC   GL215842   6.568  28.488   9.180
 1060POPC   C1A15843   6.823  28.159   8.762
 1060POPC   D2A15844   6.990  28.406   8.422
 1060POPC   C3A15845   6.884  28.146   8.080
 1060POPC   C4A15846   6.753  28.324   7.715
 1060POPC   C1B15847   6.394  28.465   8.778
 1060POPC   C2B15848   6.470  28.332   8.421
 1060POPC   C3B15849   6.557  28.548   8.116
 1060POPC   C4B15850   6.325  28.598   7.768
 1061POPC   NC315851   8.410  15.011   9.447
 1061POPC   PO415852   8.061  15.585   9.561
 1061POPC   GL115853   8.036  15.318   9.172
 1061POPC   GL215854   7.921  14.974   9.140
 1061POPC   C1A15855   8.139  15.180   8.723
 1061POPC   D2A15856   8.339  15.073   8.310
 1061POPC   C3A15857   8.219  15.339   7.968
 1061POPC   C4A15858   7.992  15.330   7.573
 1061POPC   C1B15859   7.793  14.790   8.729
 1061POPC   C2B15860   7.943  14.736   8.292
 1061POPC   C3B15861   7.879  14.930   7.875
 1061POPC   C4B15862   7.830  14.868   7.378
 1062POPC   NC315863  38.626  30.402   9.533
 1062POPC   PO415864  38.022  30.705   9.524
 1062POPC   GL115865  38.380  30.747   9.219
 1062POPC   GL215866  38.551  31.063   9.214
 1062POPC   C1A15867  38.596  30.743   8.807
 1062POPC   D2A15868  38.448  30.790   8.368
 1062POPC   C3A15869  38.349  30.473   8.059
 1062POPC   C4A15870  38.083  30.449   7.671
 1062POPC   C1B15871  38.464  31.216   8.790
 1062POPC   C2B15872  38.640  31.256   8.388
 1062POPC   C3B15873  38.512  31.131   7.965
 1062POPC   C4B15874  38.438  30.889   7.593
 1063POPC   NC315875  35.508   0.945   9.454
 1063POPC   PO415876  35.076   1.369   9.283
 1063POPC   GL115877  35.415   1.249   9.030
 1063POPC   GL215878  35.314   0.921   8.978
 1063POPC   C1A15879  35.524   1.421   8.624
 1063POPC   D2A15880  35.622   1.399   8.195
 1063POPC   C3A15881  35.398   1.307   7.800
 1063POPC   C4A15882  35.522   1.519   7.422
 1063POPC   C1B15883  35.089   1.149   8.648
 1063POPC   C2B15884  35.123   1.349   8.265
 1063POPC   C3B15885  34.870   1.246   7.924
 1063POPC   C4B15886  34.869   1.002   7.563
 1064POPC   NC315887  14.228  10.153   9.521
 1064POPC   PO415888  14.677  10.724   9.524
 1064POPC   GL115889  14.517  10.607   9.141
 1064POPC   GL215890  14.361  10.329   9.074
 1064POPC   C1A15891  14.266  10.739   8.786
 1064POPC   D2A15892  14.118  10.744   8.380
 1064POPC   C3A15893  14.468  10.822   8.139
 1064POPC   C4A15894  14.629  10.682   7.770
 1064POPC   C1B15895  14.610  10.379   8.694
 1064POPC   C2B15896  14.529  10.336   8.307
 1064POPC   C3B15897  14.338  10.318   7.965
 1064POPC   C4B15898  14.447  10.062   7.666
 1065POPC   NC315899  38.433  16.147   9.724
 1065POPC   PO415900  38.568  15.503   9.548
 1065POPC   GL115901  38.481  15.718   9.110
 1065POPC   GL215902  38.344  16.064   9.072
 1065POPC   C1A15903  38.675  15.931   8.721
 1065POPC   D2A15904  38.863  15.796   8.372
 1065POPC   C3A15905  38.778  15.975   7.998
 1065POPC   C4A15906  38.717  15.870   7.599
 1065POPC   C1B15907  38.180  15.843   8.703
 1065POPC   C2B15908  38.347  15.762   8.269
 1065POPC   C3B15909  38.260  15.977   7.883
 1065POPC   C4B15910  38.056  16.412   7.843
 1066POPC   NC315911   5.430  27.253   9.432
 1066POPC   PO415912   5.935  27.765   9.421
 1066POPC   GL115913   6.022  27.613   9.078
 1066POPC   GL215914   6.319  27.424   9.075
 1066POPC   C1A15915   5.728  27.472   8.782
 1066POPC   D2A15916   5.643  27.717   8.442
 1066POPC   C3A15917   5.577  27.536   8.068
 1066POPC   C4A15918   5.593  27.601   7.622
 1066POPC   C1B15919   6.212  27.479   8.637
 1066POPC   C2B15920   6.081  27.500   8.243
 1066POPC   C3B15921   6.038  27.697   7.883
 1066POPC   C4B15922   6.266  27.514   7.604
 1067POPC   NC315923  30.340  33.611   9.461
 1067POPC   PO415924  30.807  33.974   9.326
 1067POPC   GL115925  30.522  33.894   9.029
 1067POPC   GL215926  30.527  33.522   8.964
 1067POPC   C1A15927  30.617  34.031   8.624
 1067POPC   D2A15928  30.457  33.948   8.242
 1067POPC   C3A15929  30.589  33.994   7.844
 1067POPC   C4A15930  30.928  33.990   7.589
 1067POPC   C1B15931  30.942  33.643   8.771
 1067POPC   C2B15932  30.988  33.776   8.346
 1067POPC   C3B15933  30.788  33.556   8.024
 1067POPC   C4B15934  30.998  33.219   7.818
 1068POPC   NC315935  37.031  24.191   9.466
 1068POPC   PO415936  36.640  24.736   9.503
 1068POPC   GL115937  36.845  24.566   9.119
 1068POPC   GL215938  36.834  24.201   9.020
 1068POPC   C1A15939  36.882  24.699   8.686
 1068POPC   D2A15940  37.032  24.797   8.291
 1068POPC   C3A15941  36.802  24.695   7.941
 1068POPC   C4A15942  36.846  24.653   7.491
 1068POPC   C1B15943  36.848  24.176   8.620
 1068POPC   C2B15944  36.979  24.264   8.212
 1068POPC   C3B15945  36.713  24.196   7.897
 1068POPC   C4B15946  36.701  24.119   7.493
 1069POPC   NC315947  43.030   9.467   9.410
 1069POPC   PO415948  43.234  10.159   9.486
 1069POPC   GL115949  43.340   9.870   9.123
 1069POPC   GL215950  43.254   9.525   8.957
 1069POPC   C1A15951  43.548   9.871   8.724
 1069POPC   D2A15952  43.342   9.691   8.356
 1069POPC   C3A15953  43.306  10.004   8.031
 1069POPC   C4A15954  43.130  10.004   7.629
 1069POPC   C1B15955  42.935   9.458   8.670
 1069POPC   C2B15956  42.960   9.311   8.252
 1069POPC   C3B15957  43.016   9.564   7.890
 1069POPC   C4B15958  42.985   9.535   7.438
 1070POPC   NC315959   6.191  22.632   9.542
 1070POPC   PO415960   5.721  22.983   9.651
 1070POPC   GL115961   5.781  23.038   9.182
 1070POPC   GL215962   5.905  22.731   9.113
 1070POPC   C1A15963   5.946  23.107   8.744
 1070POPC   D2A15964   5.781  22.937   8.352
 1070POPC   C3A15965   5.954  23.139   7.983
 1070POPC   C4A15966   6.134  23.542   7.875
 1070POPC   C1B15967   6.205  22.668   8.774
 1070POPC   C2B15968   6.270  22.736   8.324
 1070POPC   C3B15969   5.945  22.599   8.005
 1070POPC   C4B15970   5.824  22.779   7.633
 1071POPC   NC315971   6.509  18.308  10.038
 1071POPC   PO415972   7.079  18.378   9.635
 1071POPC   GL115973   6.862  18.376   9.212
 1071POPC   GL215974   6.616  18.087   9.158
 1071POPC   C1A15975   6.852  18.323   8.750
 1071POPC   D2A15976   6.585  18.503   8.412
 1071POPC   C3A15977   6.701  18.408   8.011
 1071POPC   C4A15978   6.428  18.434   7.672
 1071POPC   C1B15979   6.399  18.079   8.737
 1071POPC   C2B15980   6.223  18.162   8.304
 1071POPC   C3B15981   6.325  17.984   7.925
 1071POPC   C4B15982   6.168  18.016   7.479
 1072POPC   NC315983  42.706  12.155   9.446
 1072POPC   PO415984  42.104  11.815   9.489
 1072POPC   GL115985  42.319  11.982   9.118
 1072POPC   GL215986  42.316  12.339   9.128
 1072POPC   C1A15987  42.298  12.014   8.668
 1072POPC   D2A15988  41.957  11.889   8.369
 1072POPC   C3A15989  42.106  11.938   7.938
 1072POPC   C4A15990  42.427  11.929   7.621
 1072POPC   C1B15991  42.012  12.416   8.757
 1072POPC   C2B15992  42.161  12.383   8.300
 1072POPC   C3B15993  42.116  12.462   7.838
 1072POPC   C4B15994  42.030  12.204   7.458
 1073POPC   NC315995  44.800  29.438   9.513
 1073POPC   PO415996  44.337  30.038   9.521
 1073POPC   GL115997  44.672  30.011   9.163
 1073POPC   GL215998  44.653  29.646   9.090
 1073POPC   C1A15999  44.818  29.910   8.702
 1073POPC   D2A16000   0.004  29.963   8.268
 1073POPC   C3A16001  44.983  29.736   7.902
 1073POPC   C4A16002  44.725  29.908   7.605
 1073POPC   C1B16003  44.733  29.407   8.720
 1073POPC   C2B16004  44.714  29.515   8.287
 1073POPC   C3B16005  44.496  29.561   7.902
 1073POPC   C4B16006  44.368  29.451   7.477
 1074POPC   NC316007  25.463  30.745   9.535
 1074POPC   PO416008  24.846  31.029   9.345
 1074POPC   GL116009  25.121  30.747   9.113
 1074POPC   GL216010  25.480  30.758   9.055
 1074POPC   C1A16011  25.142  30.810   8.669
 1074POPC   D2A16012  25.065  30.496   8.369
 1074POPC   C3A16013  24.958  30.766   8.045
 1074POPC   C4A16014  24.980  30.985   7.671
 1074POPC   C1B16015  25.512  30.492   8.782
 1074POPC   C2B16016  25.601  30.553   8.401
 1074POPC   C3B16017  25.465  30.413   8.048
 1074POPC   C4B16018  25.358  30.646   7.725
 1075POPC   NC316019  42.005  10.831   9.386
 1075POPC   PO416020  42.291  10.260   9.665
 1075POPC   GL116021  42.321  10.426   9.239
 1075POPC   GL216022  42.020  10.316   9.199
 1075POPC   C1A16023  42.338  10.606   8.781
 1075POPC   D2A16024  42.421  10.317   8.416
 1075POPC   C3A16025  42.390  10.420   7.972
 1075POPC   C4A16026  42.742  10.373   7.672
 1075POPC   C1B16027  42.119  10.162   8.797
 1075POPC   C2B16028  41.908  10.323   8.402
 1075POPC   C3B16029  41.881  10.296   7.966
 1075POPC   C4B16030  42.064  10.270   7.562
 1076POPC   NC316031  14.703  32.153   9.477
 1076POPC   PO416032  14.104  31.894   9.385
 1076POPC   GL116033  14.364  32.134   9.100
 1076POPC   GL216034  14.532  32.437   9.088
 1076POPC   C1A16035  14.644  32.065   8.765
 1076POPC   D2A16036  14.448  32.151   8.389
 1076POPC   C3A16037  14.355  31.886   8.023
 1076POPC   C4A16038  14.579  31.953   7.627
 1076POPC   C1B16039  14.480  32.632   8.676
 1076POPC   C2B16040  14.147  32.576   8.385
 1076POPC   C3B16041  14.151  32.358   8.019
 1076POPC   C4B16042  14.438  32.430   7.719
 1077POPC   NC316043  23.036  34.136   9.373
 1077POPC   PO416044  22.936  33.489   9.570
 1077POPC   GL116045  22.903  33.650   9.149
 1077POPC   GL216046  22.659  33.898   9.091
 1077POPC   C1A16047  22.913  33.547   8.697
 1077POPC   D2A16048  23.165  33.758   8.409
 1077POPC   C3A16049  23.243  33.679   7.990
 1077POPC   C4A16050  23.139  33.901   7.642
 1077POPC   C1B16051  22.890  34.053   8.759
 1077POPC   C2B16052  22.672  33.928   8.436
 1077POPC   C3B16053  22.816  33.972   8.052
 1077POPC   C4B16054  22.645  34.035   7.679
 1078POPC   NC316055   6.345  29.343   9.597
 1078POPC   PO416056   6.913  28.814   9.707
 1078POPC   GL116057   6.765  28.961   9.277
 1078POPC   GL216058   6.578  29.238   9.152
 1078POPC   C1A16059   6.672  28.883   8.813
 1078POPC   D2A16060   6.414  28.927   8.426
 1078POPC   C3A16061   6.593  29.037   7.990
 1078POPC   C4A16062   6.575  28.985   7.539
 1078POPC   C1B16063   6.783  29.393   8.759
 1078POPC   C2B16064   6.691  29.447   8.300
 1078POPC   C3B16065   6.706  29.532   7.843
 1078POPC   C4B16066   6.648  29.504   7.400
 1079POPC   NC316067   1.352   1.240   9.475
 1079POPC   PO416068   0.847   1.678   9.329
 1079POPC   GL116069   0.890   1.442   8.996
 1079POPC   GL216070   1.074   1.135   9.025
 1079POPC   C1A16071   0.941   1.445   8.567
 1079POPC   D2A16072   0.844   1.212   8.203
 1079POPC   C3A16073   1.191   1.289   7.914
 1079POPC   C4A16074   1.619   1.446   7.830
 1079POPC   C1B16075   1.054   0.930   8.604
 1079POPC   C2B16076   1.182   0.825   8.161
 1079POPC   C3B16077   1.220   0.731   7.713
 1079POPC   C4B16078   1.289   0.707   7.273
 1080POPC   NC316079  42.853  43.743   9.855
 1080POPC   PO416080  43.153  44.150   9.459
 1080POPC   GL116081  42.962  43.915   9.159
 1080POPC   GL216082  42.806  44.193   9.021
 1080POPC   C1A16083  43.057  43.716   8.758
 1080POPC   D2A16084  43.257  43.576   8.391
 1080POPC   C3A16085  43.073  43.679   8.004
 1080POPC   C4A16086  43.013  43.749   7.556
 1080POPC   C1B16087  42.853  44.200   8.620
 1080POPC   C2B16088  43.120  44.089   8.321
 1080POPC   C3B16089  43.103  44.185   7.908
 1080POPC   C4B16090  42.798  44.234   7.603
 1081POPC   NC316091  32.656  22.180   9.756
 1081POPC   PO416092  33.204  22.299   9.341
 1081POPC   GL116093  33.079  22.121   8.994
 1081POPC   GL216094  32.750  22.258   9.031
 1081POPC   C1A16095  33.160  22.180   8.568
 1081POPC   D2A16096  33.353  22.326   8.222
 1081POPC   C3A16097  33.092  22.339   7.920
 1081POPC   C4A16098  33.052  21.915   7.835
 1081POPC   C1B16099  32.660  22.085   8.652
 1081POPC   C2B16100  32.729  22.256   8.273
 1081POPC   C3B16101  32.597  22.163   7.875
 1081POPC   C4B16102  32.724  22.417   7.554
 1082POPC   NC316103  37.272   9.552   9.481
 1082POPC   PO416104  36.835   9.973   9.373
 1082POPC   GL116105  36.689   9.818   9.009
 1082POPC   GL216106  36.819   9.482   9.082
 1082POPC   C1A16107  36.551   9.925   8.590
 1082POPC   D2A16108  36.804  10.050   8.235
 1082POPC   C3A16109  36.936   9.882   7.842
 1082POPC   C4A16110  37.345   9.885   7.614
 1082POPC   C1B16111  36.939   9.552   8.668
 1082POPC   C2B16112  37.128   9.626   8.268
 1082POPC   C3B16113  37.037   9.394   7.902
 1082POPC   C4B16114  36.877   9.494   7.502
 1083POPC   NC316115  10.324  43.719   9.399
 1083POPC   PO416116  10.816  44.156   9.670
 1083POPC   GL116117  10.661  44.023   9.196
 1083POPC   GL216118  10.584  43.686   8.959
 1083POPC   C1A16119  10.495  44.151   8.784
 1083POPC   D2A16120  10.689  44.165   8.356
 1083POPC   C3A16121  10.435  44.066   7.996
 1083POPC   C4A16122  10.293  44.278   7.640
 1083POPC   C1B16123  10.229  43.526   8.691
 1083POPC   C2B16124  10.170  43.409   8.242
 1083POPC   C3B16125  10.058  43.743   7.942
 1083POPC   C4B16126  10.192  43.793   7.522
 1084POPC   NC316127  11.897  35.473   9.578
 1084POPC   PO416128  11.691  34.841   9.607
 1084POPC   GL116129  11.845  35.054   9.210
 1084POPC   GL216130  12.143  35.183   9.197
 1084POPC   C1A16131  11.885  35.299   8.782
 1084POPC   D2A16132  11.652  35.313   8.385
 1084POPC   C3A16133  11.851  35.019   8.108
 1084POPC   C4A16134  12.055  35.193   7.762
 1084POPC   C1B16135  12.320  35.517   8.928
 1084POPC   C2B16136  12.445  35.512   8.464
 1084POPC   C3B16137  12.413  35.508   7.999
 1084POPC   C4B16138  12.578  35.345   7.592
 1085POPC   NC316139  14.906  41.164   9.362
 1085POPC   PO416140  15.341  40.684   9.438
 1085POPC   GL116141  15.308  40.480   9.046
 1085POPC   GL216142  14.936  40.473   9.085
 1085POPC   C1A16143  15.432  40.447   8.576
 1085POPC   D2A16144  15.362  40.705   8.218
 1085POPC   C3A16145  15.194  40.538   7.808
 1085POPC   C4A16146  15.184  40.811   7.400
 1085POPC   C1B16147  15.010  40.720   8.693
 1085POPC   C2B16148  14.879  40.843   8.263
 1085POPC   C3B16149  14.999  40.998   7.865
 1085POPC   C4B16150  14.907  41.241   7.498
 1086POPC   NC316151  24.159  44.058   9.517
 1086POPC   PO416152  24.660  43.703   9.283
 1086POPC   GL116153  24.407  43.968   9.076
 1086POPC   GL216154  24.140  43.765   9.011
 1086POPC   C1A16155  24.541  44.163   8.721
 1086POPC   D2A16156  24.822  44.077   8.372
 1086POPC   C3A16157  24.598  44.225   7.993
 1086POPC   C4A16158  24.500  44.065   7.595
 1086POPC   C1B16159  24.370  43.614   8.653
 1086POPC   C2B16160  24.224  43.535   8.237
 1086POPC   C3B16161  24.377  43.636   7.841
 1086POPC   C4B16162  24.183  43.656   7.434
 1087POPC   NC316163  23.994   4.785   9.478
 1087POPC   PO416164  23.520   5.240   9.541
 1087POPC   GL116165  23.407   5.070   9.140
 1087POPC   GL216166  23.571   4.749   9.143
 1087POPC   C1A16167  23.495   4.965   8.702
 1087POPC   D2A16168  23.634   4.979   8.325
 1087POPC   C3A16169  23.391   4.919   7.953
 1087POPC   C4A16170  23.427   5.176   7.553
 1087POPC   C1B16171  23.959   4.773   8.832
 1087POPC   C2B16172  24.097   4.724   8.383
 1087POPC   C3B16173  24.007   4.943   7.998
 1087POPC   C4B16174  23.759   4.808   7.630
 1088POPC   NC316175  38.013  40.575   9.481
 1088POPC   PO416176  37.282  40.515   9.489
 1088POPC   GL116177  37.445  40.710   9.137
 1088POPC   GL216178  37.664  40.426   9.127
 1088POPC   C1A16179  37.647  40.941   8.773
 1088POPC   D2A16180  37.822  41.111   8.360
 1088POPC   C3A16181  37.753  40.814   8.005
 1088POPC   C4A16182  37.983  40.463   7.823
 1088POPC   C1B16183  37.471  40.393   8.731
 1088POPC   C2B16184  37.587  40.381   8.297
 1088POPC   C3B16185  37.507  40.220   7.888
 1088POPC   C4B16186  37.586  40.404   7.481
 1089POPC   NC316187  43.483  27.006   9.793
 1089POPC   PO416188  43.019  26.554   9.589
 1089POPC   GL116189  42.861  26.808   9.205
 1089POPC   GL216190  43.147  26.947   9.069
 1089POPC   C1A16191  42.750  26.908   8.768
 1089POPC   D2A16192  42.790  26.768   8.344
 1089POPC   C3A16193  43.106  26.973   8.085
 1089POPC   C4A16194  42.970  26.843   7.736
 1089POPC   C1B16195  43.245  26.890   8.620
 1089POPC   C2B16196  43.271  26.557   8.311
 1089POPC   C3B16197  43.389  26.563   7.876
 1089POPC   C4B16198  43.431  26.951   7.590
 1090POPC   NC316199  15.703  42.697   9.879
 1090POPC   PO416200  15.928  42.603   9.238
 1090POPC   GL116201  15.706  42.722   8.897
 1090POPC   GL216202  15.686  43.058   9.047
 1090POPC   C1A16203  15.950  42.746   8.511
 1090POPC   D2A16204  16.090  43.076   8.273
 1090POPC   C3A16205  15.849  43.180   7.942
 1090POPC   C4A16206  16.154  43.220   7.640
 1090POPC   C1B16207  15.790  43.244   8.640
 1090POPC   C2B16208  15.908  43.559   8.292
 1090POPC   C3B16209  15.949  43.673   7.827
 1090POPC   C4B16210  15.777  43.519   7.431
 1091POPC   NC316211   9.446  38.780   9.424
 1091POPC   PO416212   8.797  38.517   9.638
 1091POPC   GL116213   9.028  38.511   9.260
 1091POPC   GL216214   9.035  38.176   9.169
 1091POPC   C1A16215   9.042  38.642   8.840
 1091POPC   D2A16216   8.779  38.629   8.475
 1091POPC   C3A16217   8.944  38.618   8.075
 1091POPC   C4A16218   8.800  38.644   7.679
 1091POPC   C1B16219   9.212  38.181   8.735
 1091POPC   C2B16220   9.051  38.176   8.286
 1091POPC   C3B16221   9.138  38.216   7.823
 1091POPC   C4B16222   9.287  38.232   7.341
 1092POPC   NC316223  27.137  10.982   9.357
 1092POPC   PO416224  26.868  11.597   9.449
 1092POPC   GL116225  26.841  11.327   9.119
 1092POPC   GL216226  27.187  11.427   9.043
 1092POPC   C1A16227  26.838  11.113   8.712
 1092POPC   D2A16228  27.112  11.216   8.370
 1092POPC   C3A16229  26.946  11.242   7.976
 1092POPC   C4A16230  26.715  10.944   7.773
 1092POPC   C1B16231  26.954  11.606   8.689
 1092POPC   C2B16232  26.788  11.649   8.254
 1092POPC   C3B16233  26.943  11.753   7.817
 1092POPC   C4B16234  26.983  11.552   7.398
 1093POPC   NC316235  38.525   1.862   9.480
 1093POPC   PO416236  39.035   2.341   9.282
 1093POPC   GL116237  38.706   2.081   9.070
 1093POPC   GL216238  38.353   2.176   9.047
 1093POPC   C1A16239  38.593   1.927   8.659
 1093POPC   D2A16240  38.536   2.189   8.320
 1093POPC   C3A16241  38.437   2.025   7.931
 1093POPC   C4A16242  38.718   1.752   7.730
 1093POPC   C1B16243  38.078   1.991   8.727
 1093POPC   C2B16244  38.118   1.792   8.322
 1093POPC   C3B16245  37.978   1.788   7.914
 1093POPC   C4B16246  38.207   1.817   7.505
 1094POPC   NC316247  38.654   4.801   9.433
 1094POPC   PO416248  38.667   4.138   9.504
 1094POPC   GL116249  38.438   4.307   9.175
 1094POPC   GL216250  38.154   4.511   9.220
 1094POPC   C1A16251  38.506   4.231   8.751
 1094POPC   D2A16252  38.700   4.281   8.366
 1094POPC   C3A16253  38.475   4.159   8.008
 1094POPC   C4A16254  38.510   4.163   7.596
 1094POPC   C1B16255  38.323   4.693   8.853
 1094POPC   C2B16256  38.229   4.566   8.445
 1094POPC   C3B16257  38.459   4.663   8.108
 1094POPC   C4B16258  38.378   4.615   7.759
 1095POPC   NC316259  42.160  25.705   9.453
 1095POPC   PO416260  42.189  25.061   9.575
 1095POPC   GL116261  42.233  25.188   9.164
 1095POPC   GL216262  42.541  25.365   9.279
 1095POPC   C1A16263  42.154  25.089   8.698
 1095POPC   D2A16264  42.240  24.840   8.310
 1095POPC   C3A16265  42.148  24.909   7.846
 1095POPC   C4A16266  42.099  25.270   7.560
 1095POPC   C1B16267  42.463  25.521   8.853
 1095POPC   C2B16268  42.529  25.354   8.457
 1095POPC   C3B16269  42.373  25.336   8.060
 1095POPC   C4B16270  42.597  25.206   7.723
 1096POPC   NC316271  23.510  11.128   9.309
 1096POPC   PO416272  23.875  11.221   9.812
 1096POPC   GL116273  23.991  11.268   9.311
 1096POPC   GL216274  23.947  11.551   9.115
 1096POPC   C1A16275  23.878  11.143   8.807
 1096POPC   D2A16276  23.890  11.267   8.391
 1096POPC   C3A16277  23.661  11.041   8.105
 1096POPC   C4A16278  23.873  11.155   7.745
 1096POPC   C1B16279  23.615  11.586   8.763
 1096POPC   C2B16280  23.397  11.432   8.429
 1096POPC   C3B16281  23.577  11.528   8.035
 1096POPC   C4B16282  23.373  11.725   7.740
 1097POPC   NC316283   7.877  24.723   9.516
 1097POPC   PO416284   8.417  24.341   9.353
 1097POPC   GL116285   8.306  24.813   9.205
 1097POPC   GL216286   7.961  24.941   9.081
 1097POPC   C1A16287   8.362  24.941   8.775
 1097POPC   D2A16288   8.373  24.613   8.491
 1097POPC   C3A16289   8.298  24.648   8.082
 1097POPC   C4A16290   8.334  24.423   7.710
 1097POPC   C1B16291   7.983  24.557   8.848
 1097POPC   C2B16292   7.928  24.304   8.459
 1097POPC   C3B16293   8.100  24.136   8.067
 1097POPC   C4B16294   7.941  24.061   7.643
 1098POPC   NC316295  29.282  15.976   9.593
 1098POPC   PO416296  29.489  15.348   9.460
 1098POPC   GL116297  29.494  15.621   9.073
 1098POPC   GL216298  29.489  15.997   9.126
 1098POPC   C1A16299  29.273  15.619   8.624
 1098POPC   D2A16300  29.131  15.522   8.183
 1098POPC   C3A16301  29.102  15.830   7.865
 1098POPC   C4A16302  29.200  15.789   7.430
 1098POPC   C1B16303  29.269  16.110   8.729
 1098POPC   C2B16304  29.149  16.110   8.296
 1098POPC   C3B16305  28.976  16.318   7.930
 1098POPC   C4B16306  28.992  16.265   7.475
 1099POPC   NC316307  27.126  32.166   9.512
 1099POPC   PO416308  26.589  32.487   9.851
 1099POPC   GL116309  26.736  32.616   9.382
 1099POPC   GL216310  27.050  32.535   9.185
 1099POPC   C1A16311  26.637  32.554   8.894
 1099POPC   D2A16312  26.772  32.289   8.524
 1099POPC   C3A16313  26.653  32.337   8.101
 1099POPC   C4A16314  26.662  32.077   7.721
 1099POPC   C1B16315  27.146  32.215   8.852
 1099POPC   C2B16316  27.255  32.051   8.426
 1099POPC   C3B16317  27.121  32.065   8.009
 1099POPC   C4B16318  27.262  31.888   7.633
 1100POPC   NC316319  29.401  18.296   9.765
 1100POPC   PO416320  29.097  18.392   9.186
 1100POPC   GL116321  29.187  18.140   8.874
 1100POPC   GL216322  29.065  17.851   9.078
 1100POPC   C1A16323  29.167  18.322   8.457
 1100POPC   D2A16324  28.873  18.534   8.165
 1100POPC   C3A16325  28.949  18.334   7.772
 1100POPC   C4A16326  29.239  18.279   7.420
 1100POPC   C1B16327  28.739  17.917   8.780
 1100POPC   C2B16328  28.708  18.080   8.382
 1100POPC   C3B16329  28.873  17.855   8.029
 1100POPC   C4B16330  29.185  17.883   7.734
 1101POPC   NC316331  34.199   5.656   9.683
 1101POPC   PO416332  34.804   5.952   9.676
 1101POPC   GL116333  34.742   5.880   9.226
 1101POPC   GL216334  34.394   5.789   9.223
 1101POPC   C1A16335  34.629   6.041   8.807
 1101POPC   D2A16336  34.712   6.054   8.375
 1101POPC   C3A16337  34.544   5.909   7.991
 1101POPC   C4A16338  34.810   5.763   7.663
 1101POPC   C1B16339  34.433   5.554   8.854
 1101POPC   C2B16340  34.471   5.616   8.424
 1101POPC   C3B16341  34.240   5.463   8.041
 1101POPC   C4B16342  34.211   5.716   7.643
 1102POPC   NC316343  30.880   5.460   9.585
 1102POPC   PO416344  30.394   4.942   9.722
 1102POPC   GL116345  30.521   5.047   9.284
 1102POPC   GL216346  30.896   5.109   9.215
 1102POPC   C1A16347  30.522   5.086   8.818
 1102POPC   D2A16348  30.574   4.984   8.353
 1102POPC   C3A16349  30.454   5.298   8.030
 1102POPC   C4A16350  30.585   5.585   7.680
 1102POPC   C1B16351  30.881   5.441   8.891
 1102POPC   C2B16352  30.999   5.356   8.465
 1102POPC   C3B16353  30.937   5.483   8.055
 1102POPC   C4B16354  31.072   5.352   7.678
 1103POPC   NC316355  34.690  21.838   9.371
 1103POPC   PO416356  34.202  22.312   9.405
 1103POPC   GL116357  34.506  22.189   9.060
 1103POPC   GL216358  34.851  22.221   9.079
 1103POPC   C1A16359  34.675  21.956   8.690
 1103POPC   D2A16360  34.787  22.111   8.286
 1103POPC   C3A16361  34.439  22.019   8.005
 1103POPC   C4A16362  34.110  21.901   7.727
 1103POPC   C1B16363  34.779  22.468   8.696
 1103POPC   C2B16364  34.618  22.642   8.316
 1103POPC   C3B16365  34.710  22.478   7.916
 1103POPC   C4B16366  34.925  22.077   7.780
 1104POPC   NC316367   9.288  25.705   9.348
 1104POPC   PO416368   9.943  25.916   9.282
 1104POPC   GL116369   9.584  25.974   9.030
 1104POPC   GL216370   9.490  26.301   9.024
 1104POPC   C1A16371   9.331  25.957   8.675
 1104POPC   D2A16372   9.155  25.790   8.319
 1104POPC   C3A16373   9.463  25.923   8.022
 1104POPC   C4A16374   9.896  25.889   7.900
 1104POPC   C1B16375   9.652  26.388   8.615
 1104POPC   C2B16376   9.995  26.249   8.335
 1104POPC   C3B16377  10.068  26.409   7.925
 1104POPC   C4B16378   9.721  26.326   7.664
 1105POPC   NC316379   3.416  20.986   9.461
 1105POPC   PO416380   3.595  21.592   9.515
 1105POPC   GL116381   3.708  21.542   9.090
 1105POPC   GL216382   3.956  21.841   9.013
 1105POPC   C1A16383   3.640  21.177   8.750
 1105POPC   D2A16384   3.519  20.965   8.331
 1105POPC   C3A16385   3.513  21.171   7.916
 1105POPC   C4A16386   3.325  21.426   7.578
 1105POPC   C1B16387   3.932  21.582   8.648
 1105POPC   C2B16388   3.739  21.441   8.287
 1105POPC   C3B16389   3.681  21.658   7.902
 1105POPC   C4B16390   3.870  22.059   7.788
 1106POPC   NC316391   5.717  33.373   9.521
 1106POPC   PO416392   6.267  33.175   9.253
 1106POPC   GL116393   5.935  33.060   9.052
 1106POPC   GL216394   5.600  33.120   9.089
 1106POPC   C1A16395   5.908  33.160   8.645
 1106POPC   D2A16396   5.980  32.826   8.405
 1106POPC   C3A16397   5.799  32.836   8.039
 1106POPC   C4A16398   6.064  32.814   7.690
 1106POPC   C1B16399   5.435  33.348   8.724
 1106POPC   C2B16400   5.631  33.481   8.335
 1106POPC   C3B16401   5.853  33.324   8.005
 1106POPC   C4B16402   5.671  33.153   7.631
 1107POPC   NC316403  34.755  14.935   9.527
 1107POPC   PO416404  34.520  15.546   9.698
 1107POPC   GL116405  34.793  15.380   9.231
 1107POPC   GL216406  34.560  15.136   9.097
 1107POPC   C1A16407  34.650  15.425   8.697
 1107POPC   D2A16408  34.437  15.137   8.357
 1107POPC   C3A16409  34.411  15.294   7.911
 1107POPC   C4A16410  34.653  15.568   7.638
 1107POPC   C1B16411  34.723  14.919   8.738
 1107POPC   C2B16412  34.923  14.913   8.333
 1107POPC   C3B16413  34.644  14.830   7.962
 1107POPC   C4B16414  34.343  14.715   7.619
 1108POPC   NC316415  11.844  12.432   9.612
 1108POPC   PO416416  12.166  13.042   9.586
 1108POPC   GL116417  12.047  13.026   9.171
 1108POPC   GL216418  11.759  12.812   9.221
 1108POPC   C1A16419  12.171  12.762   8.817
 1108POPC   D2A16420  12.450  12.664   8.467
 1108POPC   C3A16421  12.232  12.578   8.069
 1108POPC   C4A16422  12.181  12.905   7.755
 1108POPC   C1B16423  11.683  12.978   8.806
 1108POPC   C2B16424  11.684  13.137   8.382
 1108POPC   C3B16425  11.738  12.926   8.008
 1108POPC   C4B16426  11.532  13.062   7.700
 1109POPC   NC316427  27.523   5.757   9.551
 1109POPC   PO416428  27.787   6.359   9.624
 1109POPC   GL116429  27.924   6.241   9.178
 1109POPC   GL216430  27.612   6.070   9.159
 1109POPC   C1A16431  27.921   5.870   8.822
 1109POPC   D2A16432  27.725   5.524   8.564
 1109POPC   C3A16433  27.751   5.644   8.123
 1109POPC   C4A16434  27.599   5.906   7.802
 1109POPC   C1B16435  27.443   6.114   8.737
 1109POPC   C2B16436  27.553   6.086   8.302
 1109POPC   C3B16437  27.257   6.228   7.968
 1109POPC   C4B16438  27.336   6.248   7.491
 1110POPC   NC316439  37.564  35.765   9.365
 1110POPC   PO416440  37.261  36.301   9.399
 1110POPC   GL116441  37.459  36.172   9.065
 1110POPC   GL216442  37.805  36.130   9.095
 1110POPC   C1A16443  37.555  36.064   8.667
 1110POPC   D2A16444  37.758  35.947   8.328
 1110POPC   C3A16445  37.530  36.095   8.011
 1110POPC   C4A16446  37.733  36.068   7.622
 1110POPC   C1B16447  38.088  36.037   8.751
 1110POPC   C2B16448  38.212  36.176   8.335
 1110POPC   C3B16449  37.967  36.348   8.011
 1110POPC   C4B16450  37.918  36.676   7.720
 1111POPC   NC316451   3.447   7.617   9.243
 1111POPC   PO416452   4.031   7.471   9.596
 1111POPC   GL116453   3.935   7.435   9.145
 1111POPC   GL216454   3.704   7.179   9.060
 1111POPC   C1A16455   3.852   7.521   8.691
 1111POPC   D2A16456   3.933   7.692   8.283
 1111POPC   C3A16457   3.554   7.524   8.115
 1111POPC   C4A16458   3.252   7.623   7.771
 1111POPC   C1B16459   3.620   7.055   8.624
 1111POPC   C2B16460   3.615   7.022   8.178
 1111POPC   C3B16461   3.329   7.146   7.855
 1111POPC   C4B16462   3.384   7.232   7.414
 1112POPC   NC316463  10.569   9.685   9.621
 1112POPC   PO416464  10.245  10.264   9.409
 1112POPC   GL116465  10.313   9.976   9.102
 1112POPC   GL216466  10.441   9.621   9.136
 1112POPC   C1A16467  10.354   9.854   8.681
 1112POPC   D2A16468  10.631   9.814   8.394
 1112POPC   C3A16469  10.455   9.862   8.022
 1112POPC   C4A16470  10.680   9.622   7.741
 1112POPC   C1B16471  10.164   9.407   8.843
 1112POPC   C2B16472  10.106   9.450   8.404
 1112POPC   C3B16473  10.006   9.315   7.984
 1112POPC   C4B16474  10.170   9.581   7.699
 1113POPC   NC316475   7.268   8.498   9.485
 1113POPC   PO416476   7.686   7.915   9.550
 1113POPC   GL116477   7.430   8.045   9.213
 1113POPC   GL216478   7.701   8.230   9.158
 1113POPC   C1A16479   7.214   8.275   8.848
 1113POPC   D2A16480   7.076   8.517   8.467
 1113POPC   C3A16481   7.403   8.493   8.177
 1113POPC   C4A16482   7.509   8.388   7.765
 1113POPC   C1B16483   7.915   8.057   8.820
 1113POPC   C2B16484   7.748   8.227   8.457
 1113POPC   C3B16485   7.792   8.076   8.051
 1113POPC   C4B16486   7.982   8.115   7.701
 1114POPC   NC316487  42.782   4.850   9.392
 1114POPC   PO416488  42.144   5.260   9.472
 1114POPC   GL116489  42.278   4.934   9.181
 1114POPC   GL216490  42.493   5.169   9.098
 1114POPC   C1A16491  42.349   4.842   8.720
 1114POPC   D2A16492  42.054   4.918   8.379
 1114POPC   C3A16493  42.211   4.840   7.962
 1114POPC   C4A16494  42.285   4.767   7.508
 1114POPC   C1B16495  42.160   5.322   8.820
 1114POPC   C2B16496  42.177   5.447   8.401
 1114POPC   C3B16497  42.235   5.523   7.976
 1114POPC   C4B16498  42.144   5.245   7.670
 1115POPC   NC316499  20.393   0.759   9.551
 1115POPC   PO416500  20.823   0.214   9.729
 1115POPC   GL116501  20.586   0.419   9.247
 1115POPC   GL216502  20.255   0.495   9.116
 1115POPC   C1A16503  20.795   0.528   8.806
 1115POPC   D2A16504  20.833   0.169   8.517
 1115POPC   C3A16505  20.702   0.226   8.077
 1115POPC   C4A16506  20.817   0.103   7.656
 1115POPC   C1B16507  20.325   0.667   8.689
 1115POPC   C2B16508  20.655   0.874   8.406
 1115POPC   C3B16509  20.734   0.749   7.980
 1115POPC   C4B16510  20.415   0.521   7.749
 1116POPC   NC316511  23.006  16.170   9.483
 1116POPC   PO416512  22.968  15.534   9.253
 1116POPC   GL116513  22.915  15.925   9.045
 1116POPC   GL216514  22.579  16.001   9.112
 1116POPC   C1A16515  22.796  16.128   8.639
 1116POPC   D2A16516  23.069  16.136   8.257
 1116POPC   C3A16517  23.159  16.004   7.834
 1116POPC   C4A16518  23.145  15.752   7.503
 1116POPC   C1B16519  22.575  15.663   8.746
 1116POPC   C2B16520  22.777  15.604   8.323
 1116POPC   C3B16521  22.735  15.755   7.892
 1116POPC   C4B16522  22.644  16.160   7.741
 1117POPC   NC316523  28.484   2.508   9.641
 1117POPC   PO416524  29.142   2.727   9.486
 1117POPC   GL116525  29.168   2.766   9.082
 1117POPC   GL216526  29.276   2.458   9.001
 1117POPC   C1A16527  29.105   3.021   8.678
 1117POPC   D2A16528  29.140   2.868   8.277
 1117POPC   C3A16529  29.408   3.006   7.952
 1117POPC   C4A16530  29.055   3.066   7.681
 1117POPC   C1B16531  29.227   2.468   8.596
 1117POPC   C2B16532  29.238   2.368   8.172
 1117POPC   C3B16533  29.330   2.469   7.722
 1117POPC   C4B16534  29.327   2.368   7.250
 1118POPC   NC316535   3.319  34.037   9.488
 1118POPC   PO416536   3.922  33.611   9.486
 1118POPC   GL116537   3.625  33.594   9.132
 1118POPC   GL216538   3.277  33.506   9.276
 1118POPC   C1A16539   3.670  33.771   8.697
 1118POPC   D2A16540   3.695  34.041   8.320
 1118POPC   C3A16541   3.687  33.814   7.922
 1118POPC   C4A16542   3.844  33.826   7.511
 1118POPC   C1B16543   3.214  33.512   8.820
 1118POPC   C2B16544   3.204  33.622   8.380
 1118POPC   C3B16545   3.280  33.503   7.942
 1118POPC   C4B16546   3.319  33.696   7.510
 1119POPC   NC316547   4.783  29.538   9.450
 1119POPC   PO416548   5.117  30.167   9.500
 1119POPC   GL116549   5.072  29.857   9.162
 1119POPC   GL216550   4.717  29.903   9.080
 1119POPC   C1A16551   5.186  29.900   8.709
 1119POPC   D2A16552   5.090  29.981   8.277
 1119POPC   C3A16553   5.340  30.218   8.004
 1119POPC   C4A16554   5.231  29.914   7.666
 1119POPC   C1B16555   4.734  29.607   8.722
 1119POPC   C2B16556   4.749  29.529   8.295
 1119POPC   C3B16557   4.803  29.702   7.881
 1119POPC   C4B16558   4.843  29.517   7.467
 1120POPC   NC316559  31.167  37.150   9.510
 1120POPC   PO416560  30.655  36.708   9.716
 1120POPC   GL116561  30.734  36.878   9.307
 1120POPC   GL216562  30.557  36.626   9.135
 1120POPC   C1A16563  30.929  36.969   8.895
 1120POPC   D2A16564  30.977  37.054   8.425
 1120POPC   C3A16565  30.791  36.770   8.128
 1120POPC   C4A16566  30.693  36.853   7.710
 1120POPC   C1B16567  30.274  36.710   8.777
 1120POPC   C2B16568  30.358  36.554   8.357
 1120POPC   C3B16569  30.315  36.363   7.973
 1120POPC   C4B16570  30.366  36.519   7.549
 1121POPC   NC316571   6.490  35.901   9.411
 1121POPC   PO416572   7.071  36.257   9.490
 1121POPC   GL116573   6.901  36.047   9.091
 1121POPC   GL216574   6.551  36.136   8.957
 1121POPC   C1A16575   7.029  35.963   8.655
 1121POPC   D2A16576   7.166  35.989   8.200
 1121POPC   C3A16577   6.912  36.247   7.888
 1121POPC   C4A16578   6.578  35.973   7.724
 1121POPC   C1B16579   6.264  36.047   8.607
 1121POPC   C2B16580   6.301  36.008   8.186
 1121POPC   C3B16581   6.299  36.335   7.918
 1121POPC   C4B16582   6.491  36.465   7.563
 1122POPC   NC316583  22.439  22.630   9.889
 1122POPC   PO416584  22.266  23.158   9.567
 1122POPC   GL116585  22.216  22.979   9.164
 1122POPC   GL216586  21.937  22.796   9.043
 1122POPC   C1A16587  22.327  22.942   8.738
 1122POPC   D2A16588  22.462  23.023   8.335
 1122POPC   C3A16589  22.077  23.002   8.106
 1122POPC   C4A16590  22.170  22.942   7.718
 1122POPC   C1B16591  21.686  22.739   8.678
 1122POPC   C2B16592  21.738  22.626   8.230
 1122POPC   C3B16593  21.793  22.604   7.771
 1122POPC   C4B16594  21.901  22.734   7.329
 1123POPC   NC316595  18.898  29.407   9.553
 1123POPC   PO416596  19.283  28.775   9.493
 1123POPC   GL116597  19.181  28.980   9.109
 1123POPC   GL216598  18.883  29.163   9.116
 1123POPC   C1A16599  19.274  29.148   8.706
 1123POPC   D2A16600  19.221  29.402   8.353
 1123POPC   C3A16601  19.279  29.109   8.035
 1123POPC   C4A16602  19.432  29.189   7.648
 1123POPC   C1B16603  18.657  29.190   8.758
 1123POPC   C2B16604  18.806  29.141   8.374
 1123POPC   C3B16605  18.818  29.306   7.984
 1123POPC   C4B16606  18.937  29.092   7.618
 1124POPC   NC316607  17.857  22.101   9.380
 1124POPC   PO416608  18.556  22.092   9.418
 1124POPC   GL116609  18.292  22.187   9.096
 1124POPC   GL216610  18.033  22.495   9.107
 1124POPC   C1A16611  18.409  21.924   8.748
 1124POPC   D2A16612  18.584  21.947   8.344
 1124POPC   C3A16613  18.413  22.229   8.066
 1124POPC   C4A16614  18.377  22.135   7.661
 1124POPC   C1B16615  17.999  22.248   8.693
 1124POPC   C2B16616  18.070  21.947   8.342
 1124POPC   C3B16617  17.945  22.013   7.944
 1124POPC   C4B16618  17.975  22.437   7.807
 1125POPC   NC316619  31.944  25.513   9.487
 1125POPC   PO416620  32.458  25.034   9.438
 1125POPC   GL116621  32.231  25.272   9.144
 1125POPC   GL216622  31.915  25.113   9.158
 1125POPC   C1A16623  32.206  25.404   8.718
 1125POPC   D2A16624  32.446  25.281   8.380
 1125POPC   C3A16625  32.328  25.432   7.973
 1125POPC   C4A16626  32.359  25.133   7.645
 1125POPC   C1B16627  31.846  25.044   8.754
 1125POPC   C2B16628  31.854  25.214   8.355
 1125POPC   C3B16629  31.932  25.087   7.939
 1125POPC   C4B16630  31.801  25.263   7.550
 1126POPC   NC316631   1.399  29.457   9.416
 1126POPC   PO416632   0.919  29.926   9.477
 1126POPC   GL116633   1.165  29.891   9.104
 1126POPC   GL216634   1.539  29.882   9.174
 1126POPC   C1A16635   1.195  29.632   8.754
 1126POPC   D2A16636   1.443  29.582   8.393
 1126POPC   C3A16637   1.352  29.772   8.009
 1126POPC   C4A16638   1.217  29.518   7.697
 1126POPC   C1B16639   1.612  29.935   8.733
 1126POPC   C2B16640   1.373  30.113   8.425
 1126POPC   C3B16641   1.088  30.242   8.119
 1126POPC   C4B16642   1.095  30.180   7.680
 1127POPC   NC316643  37.010  42.642   9.184
 1127POPC   PO416644  36.724  42.180   9.573
 1127POPC   GL116645  36.650  42.140   9.164
 1127POPC   GL216646  37.006  42.123   9.025
 1127POPC   C1A16647  36.609  42.289   8.741
 1127POPC   D2A16648  36.957  42.234   8.439
 1127POPC   C3A16649  36.837  42.378   8.051
 1127POPC   C4A16650  36.905  42.567   7.659
 1127POPC   C1B16651  37.302  41.936   8.702
 1127POPC   C2B16652  37.360  41.951   8.229
 1127POPC   C3B16653  37.285  42.131   7.801
 1127POPC   C4B16654  37.165  42.234   7.351
 1128POPC   NC316655  44.387  26.420   9.751
 1128POPC   PO416656  44.772  25.832   9.471
 1128POPC   GL116657  44.433  25.922   9.215
 1128POPC   GL216658  44.322  26.290   9.236
 1128POPC   C1A16659  44.504  25.983   8.799
 1128POPC   D2A16660  44.720  25.858   8.442
 1128POPC   C3A16661  44.525  25.680   8.085
 1128POPC   C4A16662  44.775  25.787   7.732
 1128POPC   C1B16663  44.148  26.342   8.804
 1128POPC   C2B16664  44.209  26.119   8.404
 1128POPC   C3B16665  44.429  26.197   8.023
 1128POPC   C4B16666  44.263  26.435   7.696
 1129POPC   NC316667   0.255  11.693   9.795
 1129POPC   PO416668   0.680  12.148   9.492
 1129POPC   GL116669   0.560  12.048   9.105
 1129POPC   GL216670   0.183  12.009   9.090
 1129POPC   C1A16671   0.483  12.181   8.705
 1129POPC   D2A16672   0.208  12.240   8.436
 1129POPC   C3A16673   0.378  12.341   8.044
 1129POPC   C4A16674   0.305  12.287   7.632
 1129POPC   C1B16675   0.145  11.791   8.673
 1129POPC   C2B16676   0.366  11.807   8.265
 1129POPC   C3B16677   0.465  11.858   7.844
 1129POPC   C4B16678   0.333  11.468   7.809
 1130POPC   NC316679  21.074  43.938   9.553
 1130POPC   PO416680  21.430  43.424   9.434
 1130POPC   GL116681  21.264  43.722   9.115
 1130POPC   GL216682  21.447  44.036   9.155
 1130POPC   C1A16683  21.325  43.841   8.677
 1130POPC   D2A16684  21.640  43.877   8.367
 1130POPC   C3A16685  21.503  43.938   7.990
 1130POPC   C4A16686  21.107  43.892   7.804
 1130POPC   C1B16687  21.730  44.164   8.796
 1130POPC   C2B16688  21.649  44.369   8.384
 1130POPC   C3B16689  21.791  44.367   7.972
 1130POPC   C4B16690  21.515  44.285   7.619
 1131POPC   NC316691   7.691  13.998   9.413
 1131POPC   PO416692   7.214  13.480   9.426
 1131POPC   GL116693   7.302  13.819   9.145
 1131POPC   GL216694   7.472  13.612   8.962
 1131POPC   C1A16695   7.223  14.007   8.778
 1131POPC   D2A16696   7.258  13.677   8.484
 1131POPC   C3A16697   7.539  13.727   8.154
 1131POPC   C4A16698   7.347  13.883   7.766
 1131POPC   C1B16699   7.610  13.294   8.668
 1131POPC   C2B16700   7.917  13.364   8.422
 1131POPC   C3B16701   7.968  13.271   8.031
 1131POPC   C4B16702   7.705  13.495   7.741
 1132POPC   NC316703  40.158   2.984   9.584
 1132POPC   PO416704  39.739   2.474   9.487
 1132POPC   GL116705  40.007   2.550   9.124
 1132POPC   GL216706  40.331   2.368   9.035
 1132POPC   C1A16707  40.020   2.914   8.852
 1132POPC   D2A16708  39.980   2.990   8.395
 1132POPC   C3A16709  39.751   2.763   8.024
 1132POPC   C4A16710  39.770   2.869   7.549
 1132POPC   C1B16711  40.202   2.505   8.575
 1132POPC   C2B16712  40.242   2.599   8.092
 1132POPC   C3B16713  40.088   2.489   7.653
 1132POPC   C4B16714  40.295   2.501   7.205
 1133POPC   NC316715  42.898  22.301   9.408
 1133POPC   PO416716  42.240  22.386   9.354
 1133POPC   GL116717  42.497  22.381   9.016
 1133POPC   GL216718  42.517  22.057   9.012
 1133POPC   C1A16719  42.544  22.242   8.565
 1133POPC   D2A16720  42.216  22.275   8.259
 1133POPC   C3A16721  42.431  22.355   7.880
 1133POPC   C4A16722  42.388  22.245   7.429
 1133POPC   C1B16723  42.115  21.980   8.698
 1133POPC   C2B16724  42.061  21.791   8.294
 1133POPC   C3B16725  42.446  21.829   8.100
 1133POPC   C4B16726  42.633  21.907   7.717
 1134POPC   NC316727  28.786  37.222   9.605
 1134POPC   PO416728  28.257  36.733   9.654
 1134POPC   GL116729  28.278  36.784   9.210
 1134POPC   GL216730  28.632  36.861   9.211
 1134POPC   C1A16731  28.095  36.681   8.800
 1134POPC   D2A16732  28.298  36.687   8.395
 1134POPC   C3A16733  28.087  36.704   8.012
 1134POPC   C4A16734  28.121  36.948   7.633
 1134POPC   C1B16735  28.557  37.043   8.795
 1134POPC   C2B16736  28.638  37.067   8.370
 1134POPC   C3B16737  28.501  37.014   7.961
 1134POPC   C4B16738  28.673  36.963   7.550
 1135POPC   NC316739   3.299  42.481   9.401
 1135POPC   PO416740   3.854  42.247   9.330
 1135POPC   GL116741   3.574  42.272   9.013
 1135POPC   GL216742   3.332  42.059   9.096
 1135POPC   C1A16743   3.520  42.391   8.591
 1135POPC   D2A16744   3.320  42.495   8.234
 1135POPC   C3A16745   3.483  42.464   7.868
 1135POPC   C4A16746   3.416  42.720   7.500
 1135POPC   C1B16747   3.448  41.889   8.687
 1135POPC   C2B16748   3.319  41.991   8.278
 1135POPC   C3B16749   3.380  41.943   7.848
 1135POPC   C4B16750   3.657  42.144   7.531
 1136POPC   NC316751  20.817   1.369   9.639
 1136POPC   PO416752  20.210   1.172   9.657
 1136POPC   GL116753  20.493   1.234   9.266
 1136POPC   GL216754  20.578   0.923   9.077
 1136POPC   C1A16755  20.812   1.407   8.971
 1136POPC   D2A16756  20.966   1.536   8.587
 1136POPC   C3A16757  20.968   1.298   8.227
 1136POPC   C4A16758  20.858   1.290   7.816
 1136POPC   C1B16759  20.411   1.188   8.747
 1136POPC   C2B16760  20.479   1.413   8.363
 1136POPC   C3B16761  20.346   1.405   7.972
 1136POPC   C4B16762  20.358   1.033   7.793
 1137POPC   NC316763  18.055   0.475   9.925
 1137POPC   PO416764  18.396   0.678   9.403
 1137POPC   GL116765  18.075   0.570   9.169
 1137POPC   GL216766  18.087   0.866   8.995
 1137POPC   C1A16767  18.089   0.403   8.763
 1137POPC   D2A16768  18.277   0.480   8.384
 1137POPC   C3A16769  18.015   0.610   8.070
 1137POPC   C4A16770  17.786   0.324   7.771
 1137POPC   C1B16771  18.470   0.789   8.746
 1137POPC   C2B16772  18.655   0.816   8.338
 1137POPC   C3B16773  18.545   0.569   7.952
 1137POPC   C4B16774  18.690   0.478   7.531
 1138POPC   NC316775  25.850   0.596   9.301
 1138POPC   PO416776  25.257   0.578   9.545
 1138POPC   GL116777  25.137   0.503   9.156
 1138POPC   GL216778  25.138   0.876   9.127
 1138POPC   C1A16779  25.280   0.472   8.755
 1138POPC   D2A16780  25.380   0.738   8.419
 1138POPC   C3A16781  25.423   0.532   8.036
 1138POPC   C4A16782  25.719   0.684   7.695
 1138POPC   C1B16783  24.895   0.810   8.790
 1138POPC   C2B16784  24.891   0.606   8.412
 1138POPC   C3B16785  24.966   0.755   7.982
 1138POPC   C4B16786  25.226   0.711   7.606
 1139POPC   NC316787  38.767  37.084   9.555
 1139POPC   PO416788  38.199  36.686   9.423
 1139POPC   GL116789  38.456  36.946   9.168
 1139POPC   GL216790  38.635  36.710   8.956
 1139POPC   C1A16791  38.357  37.128   8.793
 1139POPC   D2A16792  38.527  36.945   8.451
 1139POPC   C3A16793  38.462  37.217   8.102
 1139POPC   C4A16794  38.197  37.187   7.709
 1139POPC   C1B16795  38.211  36.625   8.777
 1139POPC   C2B16796  38.092  36.691   8.372
 1139POPC   C3B16797  38.330  36.738   7.995
 1139POPC   C4B16798  38.375  36.725   7.520
 1140POPC   NC316799  43.522  12.252   9.479
 1140POPC   PO416800  43.092  11.681   9.404
 1140POPC   GL116801  43.148  12.068   9.165
 1140POPC   GL216802  42.844  12.227   8.976
 1140POPC   C1A16803  43.328  12.204   8.782
 1140POPC   D2A16804  43.267  11.971   8.408
 1140POPC   C3A16805  43.054  12.157   8.080
 1140POPC   C4A16806  43.331  12.342   7.821
 1140POPC   C1B16807  42.793  12.133   8.542
 1140POPC   C2B16808  42.555  12.076   8.166
 1140POPC   C3B16809  42.638  12.363   7.808
 1140POPC   C4B16810  42.957  12.472   7.491
 1141POPC   NC316811   5.655   7.462   9.552
 1141POPC   PO416812   5.999   6.915   9.629
 1141POPC   GL116813   5.975   7.187   9.243
 1141POPC   GL216814   5.669   7.074   9.173
 1141POPC   C1A16815   5.874   7.544   8.934
 1141POPC   D2A16816   5.678   7.613   8.517
 1141POPC   C3A16817   5.908   7.447   8.138
 1141POPC   C4A16818   6.024   7.686   7.753
 1141POPC   C1B16819   5.647   7.137   8.749
 1141POPC   C2B16820   5.451   7.139   8.351
 1141POPC   C3B16821   5.603   6.920   7.981
 1141POPC   C4B16822   5.747   7.238   7.666
 1142POPC   NC316823  34.018  28.343   9.524
 1142POPC   PO416824  33.537  27.907   9.445
 1142POPC   GL116825  33.819  28.106   9.126
 1142POPC   GL216826  33.862  28.517   9.071
 1142POPC   C1A16827  33.677  28.147   8.718
 1142POPC   D2A16828  33.682  28.400   8.374
 1142POPC   C3A16829  33.706  28.129   8.025
 1142POPC   C4A16830  33.645  28.310   7.639
 1142POPC   C1B16831  34.092  28.789   8.764
 1142POPC   C2B16832  34.127  28.679   8.336
 1142POPC   C3B16833  33.946  28.669   7.923
 1142POPC   C4B16834  33.955  28.932   7.563
 1143POPC   NC316835  32.710  36.486   9.264
 1143POPC   PO416836  32.250  36.916   9.615
 1143POPC   GL116837  32.210  37.088   9.204
 1143POPC   GL216838  32.228  36.726   9.137
 1143POPC   C1A16839  32.323  37.079   8.762
 1143POPC   D2A16840  32.552  37.124   8.375
 1143POPC   C3A16841  32.349  37.049   7.958
 1143POPC   C4A16842  32.109  37.042   7.530
 1143POPC   C1B16843  32.229  36.468   8.778
 1143POPC   C2B16844  31.994  36.437   8.437
 1143POPC   C3B16845  32.100  36.436   8.001
 1143POPC   C4B16846  32.288  36.599   7.666
 1144POPC   NC316847   5.233  14.219   9.323
 1144POPC   PO416848   4.888  14.675   9.638
 1144POPC   GL116849   4.780  14.481   9.205
 1144POPC   GL216850   4.560  14.753   9.100
 1144POPC   C1A16851   4.963  14.291   8.769
 1144POPC   D2A16852   5.254  14.347   8.489
 1144POPC   C3A16853   5.115  14.272   8.095
 1144POPC   C4A16854   5.100  14.290   7.661
 1144POPC   C1B16855   4.777  14.761   8.745
 1144POPC   C2B16856   4.802  14.579   8.361
 1144POPC   C3B16857   4.874  14.712   7.949
 1144POPC   C4B16858   4.914  14.774   7.517
 1145POPC   NC316859  33.685   2.997   9.936
 1145POPC   PO416860  34.154   2.964   9.433
 1145POPC   GL116861  33.921   2.944   9.043
 1145POPC   GL216862  33.726   2.650   9.098
 1145POPC   C1A16863  33.606   2.935   8.694
 1145POPC   D2A16864  33.553   2.754   8.280
 1145POPC   C3A16865  33.470   3.025   7.926
 1145POPC   C4A16866  33.880   2.951   7.785
 1145POPC   C1B16867  34.013   2.559   8.719
 1145POPC   C2B16868  34.050   2.374   8.297
 1145POPC   C3B16869  34.186   2.508   7.880
 1145POPC   C4B16870  34.029   2.515   7.446
 1146POPC   NC316871  24.444  40.047   9.415
 1146POPC   PO416872  24.244  39.347   9.473
 1146POPC   GL116873  24.393  39.604   9.141
 1146POPC   GL216874  24.152  39.909   9.040
 1146POPC   C1A16875  24.441  39.680   8.692
 1146POPC   D2A16876  24.117  39.797   8.355
 1146POPC   C3A16877  24.353  39.894   7.967
 1146POPC   C4A16878  24.792  39.987   7.897
 1146POPC   C1B16879  24.304  40.180   8.681
 1146POPC   C2B16880  24.550  40.264   8.291
 1146POPC   C3B16881  24.432  40.408   7.861
 1146POPC   C4B16882  24.548  40.278   7.449
 1147POPC   NC316883  31.873  11.368   9.857
 1147POPC   PO416884  32.386  11.572   9.446
 1147POPC   GL116885  32.323  11.358   9.097
 1147POPC   GL216886  32.650  11.353   9.050
 1147POPC   C1A16887  32.105  11.191   8.734
 1147POPC   D2A16888  31.830  10.939   8.452
 1147POPC   C3A16889  31.990  11.041   8.069
 1147POPC   C4A16890  31.900  11.348   7.794
 1147POPC   C1B16891  32.586  10.962   8.826
 1147POPC   C2B16892  32.421  10.818   8.429
 1147POPC   C3B16893  32.530  10.837   8.029
 1147POPC   C4B16894  32.389  11.156   7.755
 1148POPC   NC316895  31.995  17.053   9.528
 1148POPC   PO416896  32.299  16.458   9.419
 1148POPC   GL116897  32.175  16.631   9.070
 1148POPC   GL216898  32.308  16.957   9.120
 1148POPC   C1A16899  32.288  16.572   8.636
 1148POPC   D2A16900  32.032  16.494   8.264
 1148POPC   C3A16901  32.237  16.501   7.862
 1148POPC   C4A16902  32.078  16.597   7.476
 1148POPC   C1B16903  32.140  17.067   8.701
 1148POPC   C2B16904  32.212  16.998   8.261
 1148POPC   C3B16905  32.156  17.027   7.815
 1148POPC   C4B16906  32.111  17.120   7.377
 1149POPC   NC316907  41.647   2.195   9.346
 1149POPC   PO416908  41.473   1.582   9.484
 1149POPC   GL116909  41.438   1.679   9.069
 1149POPC   GL216910  41.236   1.953   9.104
 1149POPC   C1A16911  41.612   1.913   8.726
 1149POPC   D2A16912  41.516   2.101   8.319
 1149POPC   C3A16913  41.785   2.253   8.004
 1149POPC   C4A16914  41.618   1.979   7.720
 1149POPC   C1B16915  41.135   2.115   8.686
 1149POPC   C2B16916  41.010   2.079   8.254
 1149POPC   C3B16917  41.250   2.282   7.908
 1149POPC   C4B16918  41.091   2.527   7.565
 1150POPC   NC316919  37.337  32.588   9.516
 1150POPC   PO416920  37.012  31.977   9.623
 1150POPC   GL116921  36.946  32.060   9.160
 1150POPC   GL216922  36.557  32.177   9.092
 1150POPC   C1A16923  37.208  32.070   8.751
 1150POPC   D2A16924  37.380  32.085   8.321
 1150POPC   C3A16925  37.111  32.368   8.053
 1150POPC   C4A16926  36.775  32.291   7.772
 1150POPC   C1B16927  36.693  31.998   8.712
 1150POPC   C2B16928  36.891  31.942   8.323
 1150POPC   C3B16929  36.665  31.862   7.976
 1150POPC   C4B16930  36.295  32.062   7.873
 1151POPC   NC316931  14.965  26.427   9.638
 1151POPC   PO416932  14.614  25.946   9.391
 1151POPC   GL116933  14.944  26.201   9.173
 1151POPC   GL216934  15.323  26.256   9.282
 1151POPC   C1A16935  15.036  26.065   8.764
 1151POPC   D2A16936  15.044  26.299   8.400
 1151POPC   C3A16937  15.003  26.158   7.988
 1151POPC   C4A16938  14.852  26.403   7.662
 1151POPC   C1B16939  15.535  26.148   8.884
 1151POPC   C2B16940  15.474  26.015   8.452
 1151POPC   C3B16941  15.511  26.292   8.119
 1151POPC   C4B16942  15.417  26.303   7.688
 1152POPC   NC316943   6.414  44.166   9.589
 1152POPC   PO416944   6.508  44.882   9.586
 1152POPC   GL116945   6.637  44.720   9.181
 1152POPC   GL216946   6.412  44.449   9.166
 1152POPC   C1A16947   6.746  44.855   8.736
 1152POPC   D2A16948   6.800  44.641   8.363
 1152POPC   C3A16949   6.745  44.891   8.011
 1152POPC   C4A16950   6.712  44.712   7.615
 1152POPC   C1B16951   6.590  44.360   8.788
 1152POPC   C2B16952   6.373  44.376   8.425
 1152POPC   C3B16953   6.489  44.276   8.047
 1152POPC   C4B16954   6.343  44.352   7.639
 1153POPC   NC316955  25.764   1.918   9.440
 1153POPC   PO416956  25.063   2.083   9.249
 1153POPC   GL116957  25.422   1.929   9.064
 1153POPC   GL216958  25.593   2.257   9.027
 1153POPC   C1A16959  25.428   1.642   8.730
 1153POPC   D2A16960  25.162   1.639   8.343
 1153POPC   C3A16961  25.394   1.669   7.949
 1153POPC   C4A16962  25.294   2.013   7.657
 1153POPC   C1B16963  25.429   2.132   8.587
 1153POPC   C2B16964  25.507   2.140   8.137
 1153POPC   C3B16965  25.740   2.324   7.802
 1153POPC   C4B16966  25.630   2.280   7.371
 1154POPC   NC316967  24.621  28.454   9.548
 1154POPC   PO416968  24.093  27.942   9.449
 1154POPC   GL116969  24.422  28.112   9.201
 1154POPC   GL216970  24.316  28.430   9.150
 1154POPC   C1A16971  24.610  28.169   8.786
 1154POPC   D2A16972  24.501  28.350   8.412
 1154POPC   C3A16973  24.457  28.119   8.097
 1154POPC   C4A16974  24.761  28.097   7.798
 1154POPC   C1B16975  24.171  28.504   8.774
 1154POPC   C2B16976  24.133  28.735   8.419
 1154POPC   C3B16977  24.114  28.526   8.042
 1154POPC   C4B16978  24.147  28.684   7.634
 1155POPC   NC316979  14.546  27.936   9.388
 1155POPC   PO416980  13.936  27.511   9.472
 1155POPC   GL116981  14.172  27.653   9.126
 1155POPC   GL216982  14.537  27.651   8.961
 1155POPC   C1A16983  14.122  27.505   8.726
 1155POPC   D2A16984  14.406  27.293   8.509
 1155POPC   C3A16985  14.393  27.508   8.144
 1155POPC   C4A16986  14.628  27.393   7.839
 1155POPC   C1B16987  14.547  27.812   8.587
 1155POPC   C2B16988  14.438  28.037   8.258
 1155POPC   C3B16989  14.619  27.903   7.867
 1155POPC   C4B16990  14.281  27.732   7.647
 1156POPC   NC316991  34.082  42.083   9.405
 1156POPC   PO416992  34.479  42.631   9.413
 1156POPC   GL116993  34.571  42.342   9.127
 1156POPC   GL216994  34.859  42.116   9.129
 1156POPC   C1A16995  34.391  42.205   8.764
 1156POPC   D2A16996  34.099  42.109   8.455
 1156POPC   C3A16997  34.359  42.019   8.107
 1156POPC   C4A16998  34.483  42.198   7.729
 1156POPC   C1B16999  34.920  42.371   8.756
 1156POPC   C2B17000  34.851  42.585   8.354
 1156POPC   C3B17001  34.897  42.403   7.959
 1156POPC   C4B17002  35.112  42.169   7.673
 1157POPC   NC317003   6.005  30.471   9.741
 1157POPC   PO417004   5.604  31.003   9.752
 1157POPC   GL117005   5.659  30.839   9.315
 1157POPC   GL217006   6.007  30.827   9.294
 1157POPC   C1A17007   5.706  30.575   8.906
 1157POPC   D2A17008   5.858  30.600   8.445
 1157POPC   C3A17009   5.808  30.471   8.006
 1157POPC   C4A17010   5.731  30.552   7.568
 1157POPC   C1B17011   5.927  31.062   8.890
 1157POPC   C2B17012   5.783  31.119   8.478
 1157POPC   C3B17013   5.857  30.988   8.062
 1157POPC   C4B17014   6.097  30.957   7.655
 1158POPC   NC317015  15.831  37.493   9.421
 1158POPC   PO417016  16.466  37.657   9.288
 1158POPC   GL117017  16.099  37.767   9.059
 1158POPC   GL217018  15.902  37.493   8.899
 1158POPC   C1A17019  16.060  37.948   8.657
 1158POPC   D2A17020  15.848  37.757   8.330
 1158POPC   C3A17021  16.006  37.858   7.955
 1158POPC   C4A17022  16.360  38.058   7.769
 1158POPC   C1B17023  15.524  37.361   8.647
 1158POPC   C2B17024  15.516  37.373   8.211
 1158POPC   C3B17025  15.887  37.354   7.958
 1158POPC   C4B17026  15.895  37.311   7.520
 1159POPC   NC317027  32.420  40.831   9.270
 1159POPC   PO417028  31.935  40.438   9.470
 1159POPC   GL117029  32.002  40.603   9.070
 1159POPC   GL217030  31.984  40.971   9.055
 1159POPC   C1A17031  32.103  40.671   8.634
 1159POPC   D2A17032  31.829  40.639   8.289
 1159POPC   C3A17033  32.071  40.724   7.935
 1159POPC   C4A17034  32.533  40.623   7.908
 1159POPC   C1B17035  32.279  41.152   8.737
 1159POPC   C2B17036  32.503  41.349   8.461
 1159POPC   C3B17037  32.498  41.169   8.089
 1159POPC   C4B17038  32.387  41.074   7.719
 1160POPC   NC317039  41.277  22.253   9.501
 1160POPC   PO417040  40.537  21.979   9.490
 1160POPC   GL117041  40.644  22.066   9.090
 1160POPC   GL217042  40.986  22.105   9.118
 1160POPC   C1A17043  40.617  22.075   8.662
 1160POPC   D2A17044  40.447  22.213   8.257
 1160POPC   C3A17045  40.726  22.139   7.935
 1160POPC   C4A17046  40.830  22.313   7.503
 1160POPC   C1B17047  41.142  21.973   8.755
 1160POPC   C2B17048  41.140  22.174   8.345
 1160POPC   C3B17049  41.163  21.904   8.000
 1160POPC   C4B17050  40.956  21.806   7.605
 1161POPC   NC317051  30.974  13.140   9.327
 1161POPC   PO417052  30.499  12.754   9.649
 1161POPC   GL117053  30.670  12.743   9.195
 1161POPC   GL217054  31.016  12.736   9.032
 1161POPC   C1A17055  30.596  12.842   8.741
 1161POPC   D2A17056  30.563  12.618   8.358
 1161POPC   C3A17057  30.698  12.809   7.965
 1161POPC   C4A17058  30.891  12.595   7.609
 1161POPC   C1B17059  31.044  12.615   8.635
 1161POPC   C2B17060  30.981  12.949   8.394
 1161POPC   C3B17061  31.140  13.063   8.038
 1161POPC   C4B17062  30.950  13.249   7.707
 1162POPC   NC317063  16.186   9.107   9.233
 1162POPC   PO417064  15.768   8.706   9.541
 1162POPC   GL117065  15.738   8.821   9.096
 1162POPC   GL217066  15.533   9.117   9.112
 1162POPC   C1A17067  15.951   8.813   8.677
 1162POPC   D2A17068  15.972   8.733   8.237
 1162POPC   C3A17069  16.078   9.050   7.950
 1162POPC   C4A17070  16.128   9.350   7.619
 1162POPC   C1B17071  15.502   9.068   8.659
 1162POPC   C2B17072  15.602   9.125   8.207
 1162POPC   C3B17073  15.622   8.939   7.778
 1162POPC   C4B17074  15.740   8.708   7.399
 1163POPC   NC317075  22.072  31.292   9.465
 1163POPC   PO417076  22.545  31.661   9.434
 1163POPC   GL117077  22.205  31.628   9.101
 1163POPC   GL217078  21.852  31.718   9.221
 1163POPC   C1A17079  22.071  31.300   8.789
 1163POPC   D2A17080  22.282  31.185   8.400
 1163POPC   C3A17081  22.129  31.219   7.994
 1163POPC   C4A17082  22.329  31.122   7.606
 1163POPC   C1B17083  21.780  31.740   8.775
 1163POPC   C2B17084  22.010  31.622   8.374
 1163POPC   C3B17085  22.079  31.738   7.923
 1163POPC   C4B17086  21.858  31.827   7.543
 1164POPC   NC317087  11.952  40.518   9.491
 1164POPC   PO417088  11.820  39.910   9.648
 1164POPC   GL117089  12.049  39.881   9.246
 1164POPC   GL217090  12.212  40.181   9.174
 1164POPC   C1A17091  12.227  39.779   8.832
 1164POPC   D2A17092  12.467  39.933   8.489
 1164POPC   C3A17093  12.231  39.838   8.137
 1164POPC   C4A17094  12.006  39.796   7.763
 1164POPC   C1B17095  12.130  40.289   8.749
 1164POPC   C2B17096  12.214  40.398   8.322
 1164POPC   C3B17097  12.063  40.275   7.931
 1164POPC   C4B17098  12.178  40.257   7.497
 1165POPC   NC317099  21.204  32.515   9.269
 1165POPC   PO417100  21.909  32.195   9.401
 1165POPC   GL117101  21.626  32.237   9.110
 1165POPC   GL217102  21.683  32.567   9.053
 1165POPC   C1A17103  21.456  32.205   8.722
 1165POPC   D2A17104  21.445  32.207   8.275
 1165POPC   C3A17105  21.043  32.271   8.111
 1165POPC   C4A17106  21.006  32.543   7.742
 1165POPC   C1B17107  21.534  32.707   8.624
 1165POPC   C2B17108  21.681  32.682   8.192
 1165POPC   C3B17109  21.530  32.474   7.810
 1165POPC   C4B17110  21.384  32.662   7.408
 1166POPC   NC317111  32.943  37.874   9.533
 1166POPC   PO417112  33.219  37.248   9.707
 1166POPC   GL117113  33.075  37.449   9.281
 1166POPC   GL217114  32.709  37.421   9.335
 1166POPC   C1A17115  33.185  37.493   8.811
 1166POPC   D2A17116  33.278  37.408   8.329
 1166POPC   C3A17117  33.135  37.712   8.002
 1166POPC   C4A17118  33.199  37.744   7.549
 1166POPC   C1B17119  32.658  37.454   8.887
 1166POPC   C2B17120  32.786  37.576   8.474
 1166POPC   C3B17121  32.611  37.535   8.075
 1166POPC   C4B17122  32.739  37.536   7.666
 1167POPC   NC317123  16.544   9.798   9.515
 1167POPC   PO417124  17.165   9.495   9.538
 1167POPC   GL117125  16.865   9.425   9.123
 1167POPC   GL217126  16.647   9.729   9.032
 1167POPC   C1A17127  16.758   9.486   8.624
 1167POPC   D2A17128  16.475   9.839   8.434
 1167POPC   C3A17129  16.476   9.920   7.970
 1167POPC   C4A17130  16.595   9.541   7.763
 1167POPC   C1B17131  16.891   9.968   8.716
 1167POPC   C2B17132  16.895  10.128   8.306
 1167POPC   C3B17133  16.996   9.956   7.915
 1167POPC   C4B17134  16.809  10.170   7.585
 1168POPC   NC317135  32.923  33.659   9.627
 1168POPC   PO417136  33.500  34.000   9.536
 1168POPC   GL117137  33.222  34.010   9.170
 1168POPC   GL217138  32.965  33.744   9.141
 1168POPC   C1A17139  33.239  33.882   8.740
 1168POPC   D2A17140  33.466  33.915   8.377
 1168POPC   C3A17141  33.281  33.818   7.998
 1168POPC   C4A17142  32.995  34.043   7.745
 1168POPC   C1B17143  32.761  33.666   8.777
 1168POPC   C2B17144  32.884  33.784   8.377
 1168POPC   C3B17145  32.691  33.716   8.011
 1168POPC   C4B17146  32.929  33.543   7.730
 1169POPC   NC317147  17.583  40.665   9.563
 1169POPC   PO417148  17.055  40.954   9.574
 1169POPC   GL117149  17.127  40.963   9.142
 1169POPC   GL217150  17.359  40.688   9.104
 1169POPC   C1A17151  17.212  41.022   8.683
 1169POPC   D2A17152  17.462  40.700   8.505
 1169POPC   C3A17153  17.525  40.594   8.100
 1169POPC   C4A17154  17.294  40.701   7.715
 1169POPC   C1B17155  17.698  40.506   8.898
 1169POPC   C2B17156  17.866  40.363   8.482
 1169POPC   C3B17157  18.058  40.592   8.144
 1169POPC   C4B17158  18.251  40.362   7.775
 1170POPC   NC317159  24.254  33.690   9.373
 1170POPC   PO417160  24.895  33.478   9.605
 1170POPC   GL117161  24.754  33.567   9.184
 1170POPC   GL217162  24.628  33.871   9.063
 1170POPC   C1A17163  24.886  33.498   8.754
 1170POPC   D2A17164  24.674  33.510   8.350
 1170POPC   C3A17165  24.761  33.901   8.124
 1170POPC   C4A17166  24.582  33.916   7.727
 1170POPC   C1B17167  24.390  33.988   8.755
 1170POPC   C2B17168  24.308  34.042   8.356
 1170POPC   C3B17169  24.238  33.733   8.072
 1170POPC   C4B17170  24.076  34.030   7.819
 1171POPC   NC317171  41.936  34.620   9.532
 1171POPC   PO417172  42.410  35.010   9.466
 1171POPC   GL117173  42.141  34.800   9.083
 1171POPC   GL217174  42.100  34.411   9.079
 1171POPC   C1A17175  42.171  34.645   8.617
 1171POPC   D2A17176  42.514  34.352   8.369
 1171POPC   C3A17177  42.597  34.539   7.953
 1171POPC   C4A17178  42.371  34.938   7.786
 1171POPC   C1B17179  42.151  34.149   8.692
 1171POPC   C2B17180  42.038  34.259   8.244
 1171POPC   C3B17181  42.160  34.344   7.800
 1171POPC   C4B17182  42.234  34.359   7.332
 1172POPC   NC317183   3.116  19.751   9.534
 1172POPC   PO417184   3.678  19.958   9.432
 1172POPC   GL117185   3.465  19.703   9.165
 1172POPC   GL217186   3.258  19.963   9.077
 1172POPC   C1A17187   3.571  19.691   8.771
 1172POPC   D2A17188   3.767  19.646   8.447
 1172POPC   C3A17189   3.515  19.697   8.154
 1172POPC   C4A17190   3.526  19.835   7.750
 1172POPC   C1B17191   3.102  19.865   8.696
 1172POPC   C2B17192   3.177  20.043   8.307
 1172POPC   C3B17193   3.091  20.052   7.881
 1172POPC   C4B17194   3.268  20.280   7.516
 1173POPC   NC317195  28.796   7.001   9.413
 1173POPC   PO417196  29.204   7.530   9.627
 1173POPC   GL117197  29.061   7.479   9.251
 1173POPC   GL217198  29.230   7.166   9.171
 1173POPC   C1A17199  29.064   7.742   8.900
 1173POPC   D2A17200  29.121   7.613   8.464
 1173POPC   C3A17201  28.947   7.686   8.074
 1173POPC   C4A17202  29.138   7.600   7.669
 1173POPC   C1B17203  28.966   7.239   8.798
 1173POPC   C2B17204  29.007   7.091   8.402
 1173POPC   C3B17205  29.094   7.196   8.006
 1173POPC   C4B17206  28.897   7.002   7.677
 1174POPC   NC317207  11.375  27.373   9.465
 1174POPC   PO417208  10.985  27.980   9.592
 1174POPC   GL117209  11.140  27.795   9.234
 1174POPC   GL217210  11.489  27.835   9.124
 1174POPC   C1A17211  11.101  27.685   8.821
 1174POPC   D2A17212  11.190  27.460   8.496
 1174POPC   C3A17213  11.310  27.697   8.184
 1174POPC   C4A17214  11.223  27.691   7.789
 1174POPC   C1B17215  11.591  27.479   8.803
 1174POPC   C2B17216  11.678  27.341   8.342
 1174POPC   C3B17217  11.715  27.537   7.896
 1174POPC   C4B17218  11.840  27.970   7.805
 1175POPC   NC317219   0.021  31.717   9.180
 1175POPC   PO417220  44.502  31.810   9.632
 1175POPC   GL117221  44.506  31.522   9.232
 1175POPC   GL217222  44.572  31.715   8.944
 1175POPC   C1A17223  44.345  31.203   8.884
 1175POPC   D2A17224  44.322  31.043   8.414
 1175POPC   C3A17225  44.606  31.268   8.168
 1175POPC   C4A17226  44.616  31.417   7.775
 1175POPC   C1B17227  44.750  31.861   8.548
 1175POPC   C2B17228  44.962  31.661   8.209
 1175POPC   C3B17229   0.030  31.705   7.772
 1175POPC   C4B17230   0.235  31.911   7.435
 1176POPC   NC317231  23.008  18.560   9.590
 1176POPC   PO417232  22.525  18.063   9.475
 1176POPC   GL117233  22.718  18.354   9.175
 1176POPC   GL217234  23.097  18.387   9.125
 1176POPC   C1A17235  22.774  18.372   8.731
 1176POPC   D2A17236  22.958  18.208   8.376
 1176POPC   C3A17237  22.749  18.195   8.039
 1176POPC   C4A17238  22.670  18.404   7.695
 1176POPC   C1B17239  23.164  18.717   8.830
 1176POPC   C2B17240  23.002  18.731   8.407
 1176POPC   C3B17241  23.129  18.586   7.989
 1176POPC   C4B17242  23.056  18.802   7.624
 1177POPC   NC317243  28.635  33.318   9.806
 1177POPC   PO417244  28.417  32.771   9.524
 1177POPC   GL117245  28.277  32.934   9.179
 1177POPC   GL217246  28.406  33.250   9.099
 1177POPC   C1A17247  28.234  32.896   8.749
 1177POPC   D2A17248  28.187  33.121   8.363
 1177POPC   C3A17249  28.252  32.921   8.009
 1177POPC   C4A17250  28.084  33.106   7.669
 1177POPC   C1B17251  28.585  33.288   8.686
 1177POPC   C2B17252  28.569  33.503   8.292
 1177POPC   C3B17253  28.432  33.412   7.872
 1177POPC   C4B17254  28.576  33.498   7.434
 1178POPC   NC317255  15.759   1.562   9.519
 1178POPC   PO417256  16.182   1.967   9.730
 1178POPC   GL117257  16.030   1.954   9.289
 1178POPC   GL217258  16.357   1.952   9.185
 1178POPC   C1A17259  15.954   1.986   8.788
 1178POPC   D2A17260  15.849   2.172   8.342
 1178POPC   C3A17261  15.805   2.019   7.858
 1178POPC   C4A17262  15.780   1.944   7.379
 1178POPC   C1B17263  16.460   2.157   8.773
 1178POPC   C2B17264  16.487   2.068   8.357
 1178POPC   C3B17265  16.242   2.234   8.027
 1178POPC   C4B17266  16.293   2.380   7.608
 1179POPC   NC317267  32.781  21.828   9.310
 1179POPC   PO417268  33.202  21.300   9.378
 1179POPC   GL117269  33.077  21.448   9.009
 1179POPC   GL217270  32.730  21.420   8.982
 1179POPC   C1A17271  33.008  21.701   8.656
 1179POPC   D2A17272  32.834  21.732   8.256
 1179POPC   C3A17273  33.087  21.424   8.011
 1179POPC   C4A17274  33.016  21.188   7.610
 1179POPC   C1B17275  32.721  21.053   8.761
 1179POPC   C2B17276  32.807  21.206   8.380
 1179POPC   C3B17277  32.768  21.013   8.010
 1179POPC   C4B17278  32.534  21.086   7.647
 1180POPC   NC317279   9.695  36.655   9.530
 1180POPC   PO417280   9.842  37.363   9.290
 1180POPC   GL117281   9.641  36.999   9.132
 1180POPC   GL217282   9.887  36.780   9.078
 1180POPC   C1A17283   9.502  36.798   8.732
 1180POPC   D2A17284   9.490  36.752   8.277
 1180POPC   C3A17285   9.604  37.101   7.971
 1180POPC   C4A17286   9.568  37.067   7.511
 1180POPC   C1B17287  10.041  36.926   8.683
 1180POPC   C2B17288  10.007  36.915   8.223
 1180POPC   C3B17289   9.820  36.655   7.871
 1180POPC   C4B17290  10.017  36.555   7.477
 1181POPC   NC317291  13.125  42.680   9.327
 1181POPC   PO417292  12.820  43.285   9.464
 1181POPC   GL117293  12.733  42.979   9.133
 1181POPC   GL217294  13.021  43.023   8.931
 1181POPC   C1A17295  12.570  42.925   8.722
 1181POPC   D2A17296  12.696  42.700   8.408
 1181POPC   C3A17297  12.657  42.810   7.995
 1181POPC   C4A17298  12.534  43.153   7.806
 1181POPC   C1B17299  13.023  43.160   8.500
 1181POPC   C2B17300  12.980  43.247   8.073
 1181POPC   C3B17301  13.078  42.990   7.707
 1181POPC   C4B17302  13.237  42.919   7.262
 1182POPC   NC317303  12.034  44.071   9.514
 1182POPC   PO417304  12.171  43.455   9.449
 1182POPC   GL117305  12.247  43.741   9.089
 1182POPC   GL217306  12.253  44.119   9.033
 1182POPC   C1A17307  12.401  43.811   8.668
 1182POPC   D2A17308  12.246  44.104   8.363
 1182POPC   C3A17309  12.180  43.906   7.976
 1182POPC   C4A17310  11.900  43.655   7.718
 1182POPC   C1B17311  11.881  43.962   8.817
 1182POPC   C2B17312  11.718  44.062   8.423
 1182POPC   C3B17313  11.719  44.092   8.002
 1182POPC   C4B17314  11.701  44.081   7.538
 1183POPC   NC317315  21.166  33.131   9.778
 1183POPC   PO417316  21.530  32.582   9.582
 1183POPC   GL117317  21.477  32.974   9.284
 1183POPC   GL217318  21.162  33.044   9.097
 1183POPC   C1A17319  21.551  33.167   8.826
 1183POPC   D2A17320  21.310  33.239   8.437
 1183POPC   C3A17321  21.606  33.200   8.119
 1183POPC   C4A17322  21.629  32.969   7.742
 1183POPC   C1B17323  21.033  32.860   8.696
 1183POPC   C2B17324  21.153  32.759   8.258
 1183POPC   C3B17325  21.136  33.027   7.904
 1183POPC   C4B17326  21.349  33.384   7.726
 1184POPC   NC317327  33.982  35.909   9.585
 1184POPC   PO417328  33.421  35.695   9.531
 1184POPC   GL117329  33.573  35.926   9.144
 1184POPC   GL217330  33.966  35.932   9.085
 1184POPC   C1A17331  33.678  36.102   8.705
 1184POPC   D2A17332  33.805  36.317   8.312
 1184POPC   C3A17333  33.700  36.380   7.878
 1184POPC   C4A17334  33.519  36.152   7.543
 1184POPC   C1B17335  34.169  35.710   8.740
 1184POPC   C2B17336  34.060  35.872   8.358
 1184POPC   C3B17337  33.877  35.920   7.973
 1184POPC   C4B17338  34.119  35.811   7.633
 1185POPC   NC317339   8.514  43.993   9.518
 1185POPC   PO417340   8.348  43.300   9.452
 1185POPC   GL117341   8.169  43.681   9.251
 1185POPC   GL217342   8.494  43.704   9.095
 1185POPC   C1A17343   8.131  43.984   8.866
 1185POPC   D2A17344   8.284  44.224   8.500
 1185POPC   C3A17345   8.026  44.231   8.136
 1185POPC   C4A17346   8.169  44.266   7.726
 1185POPC   C1B17347   8.242  43.476   8.792
 1185POPC   C2B17348   8.355  43.480   8.388
 1185POPC   C3B17349   8.189  43.550   8.014
 1185POPC   C4B17350   8.409  43.704   7.668
 1186POPC   NC317351  16.005  35.716   9.322
 1186POPC   PO417352  15.617  35.220   9.480
 1186POPC   GL117353  15.799  35.141   9.076
 1186POPC   GL217354  16.099  35.209   9.164
 1186POPC   C1A17355  15.936  35.385   8.692
 1186POPC   D2A17356  16.116  35.601   8.331
 1186POPC   C3A17357  15.937  35.522   7.933
 1186POPC   C4A17358  15.931  35.608   7.503
 1186POPC   C1B17359  16.374  35.165   8.811
 1186POPC   C2B17360  16.246  35.102   8.366
 1186POPC   C3B17361  16.402  35.267   7.976
 1186POPC   C4B17362  16.325  35.259   7.548
 1187POPC   NC317363  41.958   7.959   9.438
 1187POPC   PO417364  41.375   8.191   9.560
 1187POPC   GL117365  41.356   8.362   9.151
 1187POPC   GL217366  41.066   8.165   9.067
 1187POPC   C1A17367  41.613   8.468   8.766
 1187POPC   D2A17368  41.432   8.487   8.339
 1187POPC   C3A17369  41.709   8.427   8.000
 1187POPC   C4A17370  41.953   8.061   7.910
 1187POPC   C1B17371  41.293   8.096   8.682
 1187POPC   C2B17372  41.614   7.962   8.361
 1187POPC   C3B17373  41.460   7.935   7.943
 1187POPC   C4B17374  41.218   8.266   7.912
 1188POPC   NC317375  12.456   7.963   9.453
 1188POPC   PO417376  13.049   8.356   9.466
 1188POPC   GL117377  12.977   8.359   9.086
 1188POPC   GL217378  12.640   8.349   9.137
 1188POPC   C1A17379  12.862   8.430   8.695
 1188POPC   D2A17380  12.965   8.146   8.416
 1188POPC   C3A17381  12.842   8.242   8.013
 1188POPC   C4A17382  13.040   8.131   7.607
 1188POPC   C1B17383  12.616   8.004   8.821
 1188POPC   C2B17384  12.622   7.780   8.433
 1188POPC   C3B17385  12.430   7.807   8.064
 1188POPC   C4B17386  12.561   7.946   7.681
 1189POPC   NC317387  31.066  36.237   9.349
 1189POPC   PO417388  31.753  36.129   9.620
 1189POPC   GL117389  31.560  36.241   9.237
 1189POPC   GL217390  31.400  35.943   9.103
 1189POPC   C1A17391  31.474  36.430   8.830
 1189POPC   D2A17392  31.454  36.182   8.462
 1189POPC   C3A17393  31.622  36.349   8.122
 1189POPC   C4A17394  31.571  36.302   7.740
 1189POPC   C1B17395  31.445  35.743   8.732
 1189POPC   C2B17396  31.266  35.639   8.360
 1189POPC   C3B17397  31.391  35.866   7.999
 1189POPC   C4B17398  31.569  35.813   7.601
 1190POPC   NC317399  22.664   9.288   9.692
 1190POPC   PO417400  22.968   9.801   9.451
 1190POPC   GL117401  23.208   9.833   9.095
 1190POPC   GL217402  23.228   9.465   9.080
 1190POPC   C1A17403  23.214   9.739   8.652
 1190POPC   D2A17404  22.937   9.728   8.330
 1190POPC   C3A17405  23.187   9.633   8.005
 1190POPC   C4A17406  23.185   9.877   7.716
 1190POPC   C1B17407  22.840   9.478   8.860
 1190POPC   C2B17408  22.499   9.565   8.567
 1190POPC   C3B17409  22.499   9.530   8.118
 1190POPC   C4B17410  22.722   9.610   7.764
 1191POPC   NC317411  23.380   2.943   9.478
 1191POPC   PO417412  24.074   2.742   9.456
 1191POPC   GL117413  23.812   2.918   9.184
 1191POPC   GL217414  23.607   2.610   9.110
 1191POPC   C1A17415  23.859   2.916   8.771
 1191POPC   D2A17416  23.611   2.693   8.492
 1191POPC   C3A17417  23.846   2.721   8.148
 1191POPC   C4A17418  23.820   2.949   7.789
 1191POPC   C1B17419  23.941   2.422   8.801
 1191POPC   C2B17420  23.887   2.244   8.379
 1191POPC   C3B17421  23.980   2.269   7.940
 1191POPC   C4B17422  23.656   2.471   7.698
 1192POPC   NC317423   0.902  15.740   9.613
 1192POPC   PO417424   0.949  16.366   9.345
 1192POPC   GL117425   1.233  16.158   9.094
 1192POPC   GL217426   1.277  15.785   9.129
 1192POPC   C1A17427   1.116  16.179   8.679
 1192POPC   D2A17428   1.015  16.424   8.350
 1192POPC   C3A17429   1.241  16.190   8.040
 1192POPC   C4A17430   1.230  15.984   7.632
 1192POPC   C1B17431   1.352  15.622   8.691
 1192POPC   C2B17432   1.347  15.650   8.242
 1192POPC   C3B17433   1.028  15.515   7.961
 1192POPC   C4B17434   0.972  15.554   7.527
 1193POPC   NC317435  21.856  22.846   9.530
 1193POPC   PO417436  21.197  22.714   9.587
 1193POPC   GL117437  21.238  22.997   9.240
 1193POPC   GL217438  21.566  23.120   9.218
 1193POPC   C1A17439  21.248  23.028   8.774
 1193POPC   D2A17440  21.249  22.771   8.380
 1193POPC   C3A17441  21.364  22.960   7.990
 1193POPC   C4A17442  21.370  22.816   7.555
 1193POPC   C1B17443  21.798  23.251   8.856
 1193POPC   C2B17444  21.686  23.195   8.421
 1193POPC   C3B17445  21.651  23.399   8.026
 1193POPC   C4B17446  21.735  23.141   7.689
 1194POPC   NC317447  31.293   9.271   9.558
 1194POPC   PO417448  31.581   9.956   9.608
 1194POPC   GL117449  31.342   9.730   9.261
 1194POPC   GL217450  31.644   9.793   9.097
 1194POPC   C1A17451  31.301   9.569   8.795
 1194POPC   D2A17452  31.536   9.783   8.482
 1194POPC   C3A17453  31.574   9.676   8.100
 1194POPC   C4A17454  31.380   9.511   7.778
 1194POPC   C1B17455  31.877  10.055   8.767
 1194POPC   C2B17456  32.003   9.942   8.316
 1194POPC   C3B17457  31.777  10.141   7.956
 1194POPC   C4B17458  31.606  10.109   7.541
 1195POPC   NC317459  24.858   1.672   9.325
 1195POPC   PO417460  24.326   2.065   9.486
 1195POPC   GL117461  24.476   1.969   9.109
 1195POPC   GL217462  24.372   1.623   9.110
 1195POPC   C1A17463  24.550   2.169   8.719
 1195POPC   D2A17464  24.701   2.018   8.320
 1195POPC   C3A17465  24.506   2.185   7.958
 1195POPC   C4A17466  24.784   2.507   7.827
 1195POPC   C1B17467  24.565   1.646   8.688
 1195POPC   C2B17468  24.652   1.513   8.250
 1195POPC   C3B17469  24.452   1.670   7.837
 1195POPC   C4B17470  24.436   1.723   7.344
 1196POPC   NC317471  38.215  21.807   9.399
 1196POPC   PO417472  38.392  21.084   9.494
 1196POPC   GL117473  38.486  21.422   9.196
 1196POPC   GL217474  38.153  21.355   9.116
 1196POPC   C1A17475  38.420  21.620   8.772
 1196POPC   D2A17476  38.246  21.487   8.368
 1196POPC   C3A17477  38.485  21.590   7.989
 1196POPC   C4A17478  38.690  21.361   7.641
 1196POPC   C1B17479  38.372  21.091   8.823
 1196POPC   C2B17480  38.579  21.066   8.483
 1196POPC   C3B17481  38.603  21.081   8.072
 1196POPC   C4B17482  38.233  21.141   7.863
 1197POPC   NC317483  27.360  19.333   9.516
 1197POPC   PO417484  28.020  19.358   9.338
 1197POPC   GL117485  27.677  19.220   9.110
 1197POPC   GL217486  27.431  18.934   9.163
 1197POPC   C1A17487  27.603  19.173   8.699
 1197POPC   D2A17488  27.730  18.988   8.327
 1197POPC   C3A17489  27.583  19.227   8.020
 1197POPC   C4A17490  27.534  19.069   7.617
 1197POPC   C1B17491  27.176  18.867   8.804
 1197POPC   C2B17492  27.224  18.986   8.398
 1197POPC   C3B17493  27.206  18.833   8.013
 1197POPC   C4B17494  27.048  18.925   7.610
 1198POPC   NC317495  38.990  39.591   9.550
 1198POPC   PO417496  39.012  40.270   9.533
 1198POPC   GL117497  39.126  40.152   9.122
 1198POPC   GL217498  39.346  39.889   9.228
 1198POPC   C1A17499  38.986  40.080   8.689
 1198POPC   D2A17500  39.252  40.002   8.341
 1198POPC   C3A17501  39.183  40.197   7.972
 1198POPC   C4A17502  38.860  40.358   7.741
 1198POPC   C1B17503  39.450  39.853   8.797
 1198POPC   C2B17504  39.742  39.990   8.531
 1198POPC   C3B17505  39.733  39.999   8.120
 1198POPC   C4B17506  39.651  40.144   7.753
 1199POPC   NC317507  14.001  38.991   9.510
 1199POPC   PO417508  13.339  39.315   9.497
 1199POPC   GL117509  13.707  39.334   9.199
 1199POPC   GL217510  13.837  38.994   9.038
 1199POPC   C1A17511  13.799  39.412   8.761
 1199POPC   D2A17512  13.878  39.136   8.403
 1199POPC   C3A17513  13.718  39.313   8.009
 1199POPC   C4A17514  13.460  39.433   7.660
 1199POPC   C1B17515  13.462  38.960   8.762
 1199POPC   C2B17516  13.237  38.821   8.361
 1199POPC   C3B17517  13.277  38.997   7.925
 1199POPC   C4B17518  13.334  38.987   7.441
 1200POPC   NC317519  41.273  14.645   9.433
 1200POPC   PO417520  41.614  14.049   9.458
 1200POPC   GL117521  41.475  14.235   9.116
 1200POPC   GL217522  41.173  14.353   8.980
 1200POPC   C1A17523  41.685  14.251   8.745
 1200POPC   D2A17524  41.744  14.477   8.394
 1200POPC   C3A17525  41.813  14.252   8.021
 1200POPC   C4A17526  41.655  14.366   7.640
 1200POPC   C1B17527  41.414  14.683   8.813
 1200POPC   C2B17528  41.348  14.808   8.443
 1200POPC   C3B17529  41.388  14.631   8.041
 1200POPC   C4B17530  41.463  14.888   7.696
 1201POPC   NC317531  25.429  27.291   9.560
 1201POPC   PO417532  25.450  26.593   9.548
 1201POPC   GL117533  25.329  26.774   9.135
 1201POPC   GL217534  24.960  26.853   9.129
 1201POPC   C1A17535  25.457  26.750   8.676
 1201POPC   D2A17536  25.219  26.839   8.276
 1201POPC   C3A17537  25.437  26.871   7.861
 1201POPC   C4A17538  25.306  26.689   7.443
 1201POPC   C1B17539  25.068  27.082   8.730
 1201POPC   C2B17540  25.125  27.351   8.377
 1201POPC   C3B17541  25.013  27.292   7.954
 1201POPC   C4B17542  25.108  27.142   7.542
 1202POPC   NC317543  11.910  21.645   9.508
 1202POPC   PO417544  12.378  21.099   9.335
 1202POPC   GL117545  12.141  21.356   9.119
 1202POPC   GL217546  11.788  21.321   9.121
 1202POPC   C1A17547  12.240  21.449   8.710
 1202POPC   D2A17548  12.342  21.237   8.340
 1202POPC   C3A17549  12.317  21.503   7.971
 1202POPC   C4A17550  12.245  21.327   7.582
 1202POPC   C1B17551  11.753  21.605   8.749
 1202POPC   C2B17552  11.901  21.632   8.320
 1202POPC   C3B17553  11.829  21.672   7.892
 1202POPC   C4B17554  11.770  21.492   7.460
 1203POPC   NC317555   8.749  11.953   9.454
 1203POPC   PO417556   9.182  12.432   9.464
 1203POPC   GL117557   8.939  12.305   9.101
 1203POPC   GL217558   8.549  12.292   9.134
 1203POPC   C1A17559   9.071  12.058   8.744
 1203POPC   D2A17560   9.074  12.223   8.330
 1203POPC   C3A17561   9.047  11.997   7.959
 1203POPC   C4A17562   8.979  12.247   7.607
 1203POPC   C1B17563   8.558  11.927   8.840
 1203POPC   C2B17564   8.712  11.882   8.428
 1203POPC   C3B17565   8.543  11.889   8.054
 1203POPC   C4B17566   8.527  12.009   7.665
 1204POPC   NC317567  16.781  37.345   9.147
 1204POPC   PO417568  16.969  37.793   9.596
 1204POPC   GL117569  16.847  37.858   9.039
 1204POPC   GL217570  16.531  37.609   8.802
 1204POPC   C1A17571  16.623  38.041   8.618
 1204POPC   D2A17572  16.428  37.814   8.271
 1204POPC   C3A17573  16.711  37.722   7.929
 1204POPC   C4A17574  16.690  37.815   7.471
 1204POPC   C1B17575  16.686  37.328   8.504
 1204POPC   C2B17576  17.012  37.111   8.325
 1204POPC   C3B17577  17.019  37.205   7.898
 1204POPC   C4B17578  16.723  37.300   7.590
 1205POPC   NC317579  41.884  10.452   9.768
 1205POPC   PO417580  41.538  10.834   9.345
 1205POPC   GL117581  41.488  10.380   9.142
 1205POPC   GL217582  41.638  10.177   8.881
 1205POPC   C1A17583  41.213  10.388   8.752
 1205POPC   D2A17584  41.451  10.590   8.465
 1205POPC   C3A17585  41.411  10.410   8.115
 1205POPC   C4A17586  41.439  10.433   7.734
 1205POPC   C1B17587  41.824  10.593   8.818
 1205POPC   C2B17588  41.919  10.850   8.490
 1205POPC   C3B17589  41.759  10.804   8.074
 1205POPC   C4B17590  41.851  10.723   7.642
 1206POPC   NC317591   7.069   0.950   9.365
 1206POPC   PO417592   7.806   0.961   9.477
 1206POPC   GL117593   7.585   1.143   9.176
 1206POPC   GL217594   7.487   0.836   9.074
 1206POPC   C1A17595   7.471   1.277   8.759
 1206POPC   D2A17596   7.656   1.404   8.401
 1206POPC   C3A17597   7.577   1.185   8.024
 1206POPC   C4A17598   7.378   1.362   7.701
 1206POPC   C1B17599   7.217   0.843   8.726
 1206POPC   C2B17600   7.194   1.109   8.356
 1206POPC   C3B17601   7.117   0.950   7.943
 1206POPC   C4B17602   7.350   0.848   7.602
 1207POPC   NC317603  10.632   6.749   9.434
 1207POPC   PO417604  10.062   7.103   9.426
 1207POPC   GL117605  10.300   6.922   9.078
 1207POPC   GL217606  10.659   6.894   8.958
 1207POPC   C1A17607  10.310   6.612   8.705
 1207POPC   D2A17608  10.404   6.387   8.291
 1207POPC   C3A17609  10.418   6.617   7.894
 1207POPC   C4A17610  10.672   6.689   7.549
 1207POPC   C1B17611  10.814   6.525   8.734
 1207POPC   C2B17612  10.895   6.240   8.392
 1207POPC   C3B17613  10.893   6.448   8.000
 1207POPC   C4B17614  11.073   6.419   7.606
 1208POPC   NC317615   9.296   4.479   9.980
 1208POPC   PO417616   9.214   4.038   9.458
 1208POPC   GL117617   9.651   4.266   9.224
 1208POPC   GL217618  10.031   4.365   9.082
 1208POPC   C1A17619   9.645   4.574   8.856
 1208POPC   D2A17620   9.493   4.361   8.479
 1208POPC   C3A17621   9.645   4.404   8.083
 1208POPC   C4A17622   9.529   4.242   7.676
 1208POPC   C1B17623   9.995   4.275   8.637
 1208POPC   C2B17624  10.187   4.336   8.244
 1208POPC   C3B17625  10.050   4.222   7.842
 1208POPC   C4B17626  10.128   4.430   7.474
 1209POPC   NC317627  41.021  17.952   9.313
 1209POPC   PO417628  41.090  17.374   9.734
 1209POPC   GL117629  40.985  17.409   9.239
 1209POPC   GL217630  40.931  17.031   9.187
 1209POPC   C1A17631  40.777  17.592   8.823
 1209POPC   D2A17632  40.628  17.512   8.387
 1209POPC   C3A17633  40.931  17.702   8.123
 1209POPC   C4A17634  40.999  17.610   7.708
 1209POPC   C1B17635  40.749  17.086   8.770
 1209POPC   C2B17636  40.938  17.095   8.357
 1209POPC   C3B17637  40.814  17.212   7.951
 1209POPC   C4B17638  40.804  17.044   7.514
 1210POPC   NC317639  16.158  29.750   9.435
 1210POPC   PO417640  15.512  29.959   9.664
 1210POPC   GL117641  15.856  30.118   9.234
 1210POPC   GL217642  16.202  30.077   9.064
 1210POPC   C1A17643  15.824  30.293   8.787
 1210POPC   D2A17644  15.583  30.273   8.380
 1210POPC   C3A17645  15.763  30.120   7.993
 1210POPC   C4A17646  15.999  30.072   7.609
 1210POPC   C1B17647  16.011  29.793   8.750
 1210POPC   C2B17648  15.909  29.781   8.340
 1210POPC   C3B17649  16.154  29.757   7.964
 1210POPC   C4B17650  16.190  29.489   7.593
 1211POPC   NC317651  25.352  21.255   9.628
 1211POPC   PO417652  24.892  21.610   9.272
 1211POPC   GL117653  25.082  21.190   9.171
 1211POPC   GL217654  25.450  21.052   9.154
 1211POPC   C1A17655  25.183  21.239   8.755
 1211POPC   D2A17656  25.415  21.583   8.561
 1211POPC   C3A17657  25.346  21.580   8.132
 1211POPC   C4A17658  25.135  21.257   7.969
 1211POPC   C1B17659  25.683  21.120   8.765
 1211POPC   C2B17660  25.482  21.069   8.359
 1211POPC   C3B17661  25.660  21.028   7.983
 1211POPC   C4B17662  25.824  21.131   7.600
 1212POPC   NC317663  35.938   5.458   9.454
 1212POPC   PO417664  36.158   4.767   9.368
 1212POPC   GL117665  35.945   5.033   9.127
 1212POPC   GL217666  36.241   5.260   9.084
 1212POPC   C1A17667  35.847   5.007   8.705
 1212POPC   D2A17668  36.088   5.207   8.375
 1212POPC   C3A17669  35.861   5.094   7.993
 1212POPC   C4A17670  35.987   4.863   7.621
 1212POPC   C1B17671  36.383   4.957   8.758
 1212POPC   C2B17672  36.550   4.845   8.358
 1212POPC   C3B17673  36.371   4.994   7.981
 1212POPC   C4B17674  36.450   5.105   7.578
 1213POPC   NC317675  38.566   6.651   9.472
 1213POPC   PO417676  38.001   6.935   9.278
 1213POPC   GL117677  38.363   6.871   9.039
 1213POPC   GL217678  38.719   7.000   9.126
 1213POPC   C1A17679  38.300   6.690   8.654
 1213POPC   D2A17680  38.199   6.369   8.392
 1213POPC   C3A17681  38.316   6.534   8.020
 1213POPC   C4A17682  38.060   6.707   7.778
 1213POPC   C1B17683  38.799   6.642   8.821
 1213POPC   C2B17684  38.724   6.640   8.349
 1213POPC   C3B17685  38.796   6.659   7.887
 1213POPC   C4B17686  38.838   6.465   7.472
 1214POPC   NC317687  11.860  18.936   9.484
 1214POPC   PO417688  12.537  18.802   9.477
 1214POPC   GL117689  12.228  18.820   9.173
 1214POPC   GL217690  12.219  19.170   9.177
 1214POPC   C1A17691  11.901  18.955   8.826
 1214POPC   D2A17692  11.675  19.022   8.430
 1214POPC   C3A17693  11.956  19.011   8.042
 1214POPC   C4A17694  11.953  19.166   7.609
 1214POPC   C1B17695  12.217  19.407   8.812
 1214POPC   C2B17696  12.160  19.282   8.416
 1214POPC   C3B17697  12.430  19.272   8.050
 1214POPC   C4B17698  12.513  19.204   7.628
 1215POPC   NC317699  17.862   6.495   9.543
 1215POPC   PO417700  17.219   6.736   9.565
 1215POPC   GL117701  17.492   6.765   9.219
 1215POPC   GL217702  17.299   7.005   9.109
 1215POPC   C1A17703  17.677   6.670   8.795
 1215POPC   D2A17704  17.478   6.655   8.383
 1215POPC   C3A17705  17.550   6.398   8.046
 1215POPC   C4A17706  17.546   6.689   7.728
 1215POPC   C1B17707  17.197   6.875   8.753
 1215POPC   C2B17708  17.015   6.933   8.392
 1215POPC   C3B17709  17.157   6.896   8.003
 1215POPC   C4B17710  17.089   6.500   7.803
 1216POPC   NC317711  21.565  20.527   9.571
 1216POPC   PO417712  21.250  21.013   9.306
 1216POPC   GL117713  21.482  20.713   9.078
 1216POPC   GL217714  21.464  20.336   9.121
 1216POPC   C1A17715  21.371  20.608   8.673
 1216POPC   D2A17716  21.105  20.837   8.387
 1216POPC   C3A17717  21.311  20.995   8.015
 1216POPC   C4A17718  21.500  20.746   7.689
 1216POPC   C1B17719  21.635  20.168   8.746
 1216POPC   C2B17720  21.565  20.095   8.306
 1216POPC   C3B17721  21.730  20.277   7.932
 1216POPC   C4B17722  21.688  20.308   7.476
 1217POPC   NC317723  16.501  30.520   9.463
 1217POPC   PO417724  16.898  31.063   9.516
 1217POPC   GL117725  16.829  30.806   9.159
 1217POPC   GL217726  17.140  30.894   9.025
 1217POPC   C1A17727  16.807  30.544   8.785
 1217POPC   D2A17728  16.548  30.540   8.412
 1217POPC   C3A17729  16.480  30.785   8.073
 1217POPC   C4A17730  16.681  30.577   7.786
 1217POPC   C1B17731  17.187  30.833   8.604
 1217POPC   C2B17732  17.012  30.684   8.243
 1217POPC   C3B17733  17.167  30.507   7.894
 1217POPC   C4B17734  17.086  30.692   7.477
 1218POPC   NC317735  32.179   6.331   9.414
 1218POPC   PO417736  32.240   5.659   9.600
 1218POPC   GL117737  32.229   5.783   9.192
 1218POPC   GL217738  31.897   5.904   9.165
 1218POPC   C1A17739  32.303   5.939   8.773
 1218POPC   D2A17740  32.567   5.793   8.434
 1218POPC   C3A17741  32.561   6.050   8.087
 1218POPC   C4A17742  32.355   5.973   7.710
 1218POPC   C1B17743  31.869   5.686   8.752
 1218POPC   C2B17744  32.047   5.731   8.330
 1218POPC   C3B17745  31.903   5.847   7.897
 1218POPC   C4B17746  31.945   5.914   7.409
 1219POPC   NC317747  16.650  37.391   9.628
 1219POPC   PO417748  16.887  36.763   9.446
 1219POPC   GL117749  16.843  36.838   9.071
 1219POPC   GL217750  16.489  36.917   9.119
 1219POPC   C1A17751  16.705  36.835   8.670
 1219POPC   D2A17752  16.483  36.871   8.313
 1219POPC   C3A17753  16.788  36.764   8.009
 1219POPC   C4A17754  16.762  36.697   7.587
 1219POPC   C1B17755  16.269  37.119   8.773
 1219POPC   C2B17756  16.182  37.378   8.429
 1219POPC   C3B17757  16.420  37.304   8.054
 1219POPC   C4B17758  16.325  36.979   7.746
 1220POPC   NC317759  21.495  22.314   9.984
 1220POPC   PO417760  21.240  21.846   9.579
 1220POPC   GL117761  21.274  22.240   9.341
 1220POPC   GL217762  21.586  22.466   9.292
 1220POPC   C1A17763  21.218  22.205   8.897
 1220POPC   D2A17764  21.254  21.853   8.585
 1220POPC   C3A17765  21.229  22.052   8.178
 1220POPC   C4A17766  21.331  22.443   7.927
 1220POPC   C1B17767  21.717  22.113   8.995
 1220POPC   C2B17768  21.752  22.000   8.523
 1220POPC   C3B17769  21.746  22.125   8.066
 1220POPC   C4B17770  21.478  21.988   7.734
 1221POPC   NC317771  15.175  41.897   9.607
 1221POPC   PO417772  14.851  42.006   9.044
 1221POPC   GL117773  15.020  41.608   9.069
 1221POPC   GL217774  15.317  41.545   9.261
 1221POPC   C1A17775  14.988  41.287   8.747
 1221POPC   D2A17776  15.202  41.215   8.384
 1221POPC   C3A17777  15.027  41.451   8.061
 1221POPC   C4A17778  15.315  41.421   7.741
 1221POPC   C1B17779  15.436  41.638   8.817
 1221POPC   C2B17780  15.155  41.744   8.469
 1221POPC   C3B17781  15.219  41.927   8.045
 1221POPC   C4B17782  15.395  41.896   7.594
 1222POPC   NC317783  30.248   3.559   9.541
 1222POPC   PO417784  30.906   3.334   9.583
 1222POPC   GL117785  30.674   3.396   9.199
 1222POPC   GL217786  30.679   3.726   9.072
 1222POPC   C1A17787  30.547   3.392   8.732
 1222POPC   D2A17788  30.670   3.738   8.477
 1222POPC   C3A17789  30.870   3.604   8.132
 1222POPC   C4A17790  30.754   3.564   7.709
 1222POPC   C1B17791  30.969   3.992   8.846
 1222POPC   C2B17792  31.166   3.916   8.453
 1222POPC   C3B17793  31.307   3.817   8.042
 1222POPC   C4B17794  31.166   3.918   7.685
 1223POPC   NC317795  31.099  14.040   9.629
 1223POPC   PO417796  30.686  14.481   9.532
 1223POPC   GL117797  30.572  14.393   9.122
 1223POPC   GL217798  30.842  14.504   8.966
 1223POPC   C1A17799  30.543  14.178   8.706
 1223POPC   D2A17800  30.705  14.331   8.301
 1223POPC   C3A17801  30.615  14.261   7.848
 1223POPC   C4A17802  30.966  14.235   7.544
 1223POPC   C1B17803  30.521  14.720   8.735
 1223POPC   C2B17804  30.460  14.946   8.374
 1223POPC   C3B17805  30.463  14.719   8.037
 1223POPC   C4B17806  30.378  14.720   7.644
 1224POPC   NC317807  18.077  31.759   9.468
 1224POPC   PO417808  18.564  31.235   9.486
 1224POPC   GL117809  18.332  31.429   9.162
 1224POPC   GL217810  18.514  31.763   9.184
 1224POPC   C1A17811  18.089  31.499   8.758
 1224POPC   D2A17812  17.940  31.488   8.307
 1224POPC   C3A17813  18.256  31.554   7.969
 1224POPC   C4A17814  18.658  31.362   7.841
 1224POPC   C1B17815  18.588  31.618   8.760
 1224POPC   C2B17816  18.505  31.768   8.350
 1224POPC   C3B17817  18.655  31.932   7.945
 1224POPC   C4B17818  18.620  31.822   7.536
 1225POPC   NC317819  37.538   8.164   9.765
 1225POPC   PO417820  37.979   8.577   9.452
 1225POPC   GL117821  37.781   8.295   9.163
 1225POPC   GL217822  37.452   8.168   9.219
 1225POPC   C1A17823  37.798   8.073   8.805
 1225POPC   D2A17824  38.037   7.978   8.465
 1225POPC   C3A17825  37.879   8.069   8.059
 1225POPC   C4A17826  37.659   8.335   7.807
 1225POPC   C1B17827  37.294   8.113   8.812
 1225POPC   C2B17828  37.467   8.065   8.399
 1225POPC   C3B17829  37.380   7.936   7.989
 1225POPC   C4B17830  37.401   7.968   7.573
 1226POPC   NC317831   7.346  20.222   9.527
 1226POPC   PO417832   7.376  20.864   9.692
 1226POPC   GL117833   7.470  20.622   9.254
 1226POPC   GL217834   7.793  20.665   9.110
 1226POPC   C1A17835   7.344  20.674   8.782
 1226POPC   D2A17836   7.370  20.639   8.357
 1226POPC   C3A17837   7.104  20.628   8.033
 1226POPC   C4A17838   7.005  20.743   7.613
 1226POPC   C1B17839   7.636  20.285   8.861
 1226POPC   C2B17840   7.590  20.190   8.444
 1226POPC   C3B17841   7.333  20.168   8.083
 1226POPC   C4B17842   7.280  20.268   7.640
 1227POPC   NC317843  18.292  16.420   9.474
 1227POPC   PO417844  17.971  16.923   9.286
 1227POPC   GL117845  18.112  16.581   9.029
 1227POPC   GL217846  18.473  16.539   9.020
 1227POPC   C1A17847  18.191  16.540   8.595
 1227POPC   D2A17848  18.217  16.475   8.180
 1227POPC   C3A17849  18.241  16.840   7.917
 1227POPC   C4A17850  18.075  16.511   7.680
 1227POPC   C1B17851  18.554  16.896   8.741
 1227POPC   C2B17852  18.634  16.706   8.336
 1227POPC   C3B17853  18.662  16.553   7.889
 1227POPC   C4B17854  18.686  16.951   7.653
 1228POPC   NC317855   3.246  10.662   9.356
 1228POPC   PO417856   3.792  10.392   9.508
 1228POPC   GL117857   3.718  10.493   9.126
 1228POPC   GL217858   3.417  10.303   8.998
 1228POPC   C1A17859   3.931  10.651   8.762
 1228POPC   D2A17860   3.705  10.496   8.407
 1228POPC   C3A17861   3.757  10.601   8.016
 1228POPC   C4A17862   3.377  10.515   7.753
 1228POPC   C1B17863   3.424  10.699   8.770
 1228POPC   C2B17864   3.340  10.950   8.500
 1228POPC   C3B17865   3.272  10.768   8.179
 1228POPC   C4B17866   3.014  10.906   7.933
 1229POPC   NC317867   0.209  24.716   9.584
 1229POPC   PO417868   0.790  24.616   9.432
 1229POPC   GL117869   0.617  24.799   9.046
 1229POPC   GL217870   0.282  24.832   9.076
 1229POPC   C1A17871   0.518  24.556   8.619
 1229POPC   D2A17872   0.672  24.262   8.242
 1229POPC   C3A17873   0.972  24.353   7.889
 1229POPC   C4A17874   0.824  24.505   7.494
 1229POPC   C1B17875   0.317  25.060   8.678
 1229POPC   C2B17876   0.456  24.929   8.265
 1229POPC   C3B17877   0.501  24.626   7.918
 1229POPC   C4B17878   0.247  24.544   7.547
 1230POPC   NC317879  21.078  37.104   9.559
 1230POPC   PO417880  21.713  36.773   9.584
 1230POPC   GL117881  21.498  36.873   9.190
 1230POPC   GL217882  21.247  37.111   9.088
 1230POPC   C1A17883  21.619  36.938   8.759
 1230POPC   D2A17884  21.795  36.673   8.440
 1230POPC   C3A17885  21.751  36.804   8.016
 1230POPC   C4A17886  21.455  36.751   7.709
 1230POPC   C1B17887  21.133  36.815   8.753
 1230POPC   C2B17888  21.304  36.896   8.332
 1230POPC   C3B17889  21.094  37.059   7.952
 1230POPC   C4B17890  20.967  36.850   7.570
 1231POPC   NC317891  12.640  17.713   9.529
 1231POPC   PO417892  12.806  17.093   9.417
 1231POPC   GL117893  12.635  17.430   9.102
 1231POPC   GL217894  12.727  17.770   9.033
 1231POPC   C1A17895  12.606  17.369   8.669
 1231POPC   D2A17896  12.856  17.317   8.308
 1231POPC   C3A17897  12.755  17.137   7.922
 1231POPC   C4A17898  12.891  17.482   7.700
 1231POPC   C1B17899  12.801  17.965   8.631
 1231POPC   C2B17900  12.917  17.878   8.214
 1231POPC   C3B17901  13.086  17.938   7.810
 1231POPC   C4B17902  13.427  17.636   7.692
 1232POPC   NC317903  38.615  41.373   9.515
 1232POPC   PO417904  38.140  41.819   9.332
 1232POPC   GL117905  38.225  41.654   8.978
 1232POPC   GL217906  38.483  41.497   9.050
 1232POPC   C1A17907  38.370  41.841   8.649
 1232POPC   D2A17908  38.298  41.895   8.263
 1232POPC   C3A17909  38.360  41.593   8.009
 1232POPC   C4A17910  38.323  41.488   7.618
 1232POPC   C1B17911  38.697  41.158   8.904
 1232POPC   C2B17912  38.760  41.164   8.506
 1232POPC   C3B17913  38.928  41.124   8.156
 1232POPC   C4B17914  38.743  41.315   7.835
 1233POPC   NC317915  18.003  19.663   9.488
 1233POPC   PO417916  18.436  20.229   9.452
 1233POPC   GL117917  18.316  19.921   9.147
 1233POPC   GL217918  17.982  19.978   9.087
 1233POPC   C1A17919  18.379  20.004   8.714
 1233POPC   D2A17920  18.609  20.014   8.338
 1233POPC   C3A17921  18.403  19.729   8.074
 1233POPC   C4A17922  18.394  19.915   7.687
 1233POPC   C1B17923  17.914  19.773   8.717
 1233POPC   C2B17924  17.943  19.605   8.306
 1233POPC   C3B17925  17.929  19.734   7.869
 1233POPC   C4B17926  17.947  19.847   7.429
 1234POPC   NC317927  12.008  14.524   9.427
 1234POPC   PO417928  11.971  13.880   9.400
 1234POPC   GL117929  12.118  14.157   9.067
 1234POPC   GL217930  11.932  14.458   8.924
 1234POPC   C1A17931  12.306  14.200   8.678
 1234POPC   D2A17932  12.275  14.028   8.272
 1234POPC   C3A17933  12.240  14.293   7.930
 1234POPC   C4A17934  11.905  14.585   7.864
 1234POPC   C1B17935  12.348  14.673   8.859
 1234POPC   C2B17936  12.525  14.666   8.464
 1234POPC   C3B17937  12.414  14.774   8.049
 1234POPC   C4B17938  12.586  14.616   7.701
 1235POPC   NC317939  38.770  15.087   9.391
 1235POPC   PO417940  39.467  15.330   9.596
 1235POPC   GL117941  39.233  15.332   9.193
 1235POPC   GL217942  38.949  15.537   9.212
 1235POPC   C1A17943  39.167  15.045   8.807
 1235POPC   D2A17944  39.308  14.860   8.382
 1235POPC   C3A17945  39.167  14.975   7.962
 1235POPC   C4A17946  39.418  15.221   7.697
 1235POPC   C1B17947  38.798  15.424   8.800
 1235POPC   C2B17948  39.014  15.310   8.405
 1235POPC   C3B17949  39.096  15.487   8.020
 1235POPC   C4B17950  38.927  15.420   7.622
 1236POPC   NC317951  42.981  20.497   9.479
 1236POPC   PO417952  42.951  21.161   9.509
 1236POPC   GL117953  43.140  20.892   9.215
 1236POPC   GL217954  42.820  20.832   9.093
 1236POPC   C1A17955  43.283  20.635   8.881
 1236POPC   D2A17956  43.271  20.648   8.429
 1236POPC   C3A17957  43.133  20.762   8.011
 1236POPC   C4A17958  43.384  20.499   7.781
 1236POPC   C1B17959  42.814  20.578   8.716
 1236POPC   C2B17960  42.858  20.338   8.343
 1236POPC   C3B17961  42.770  20.399   7.912
 1236POPC   C4B17962  42.929  20.592   7.539
 1237POPC   NC317963   0.765  40.070   9.387
 1237POPC   PO417964   0.390  39.547   9.459
 1237POPC   GL117965   0.350  39.871   9.113
 1237POPC   GL217966   0.099  40.155   9.119
 1237POPC   C1A17967   0.516  40.042   8.733
 1237POPC   D2A17968   0.620  40.155   8.312
 1237POPC   C3A17969   0.529  39.799   8.033
 1237POPC   C4A17970   0.733  39.712   7.652
 1237POPC   C1B17971   0.072  40.303   8.710
 1237POPC   C2B17972   0.140  40.078   8.319
 1237POPC   C3B17973   0.250  40.210   7.903
 1237POPC   C4B17974  44.940  40.448   7.715
 1238POPC   NC317975  25.192  41.643   9.496
 1238POPC   PO417976  25.294  40.962   9.466
 1238POPC   GL117977  25.192  41.288   9.105
 1238POPC   GL217978  25.155  41.704   9.005
 1238POPC   C1A17979  25.245  41.368   8.654
 1238POPC   D2A17980  25.216  41.718   8.372
 1238POPC   C3A17981  25.182  41.451   8.040
 1238POPC   C4A17982  25.368  41.322   7.670
 1238POPC   C1B17983  25.596  41.704   8.809
 1238POPC   C2B17984  25.730  41.565   8.378
 1238POPC   C3B17985  25.630  41.679   7.935
 1238POPC   C4B17986  25.275  41.855   7.746
 1239POPC   NC317987  43.141  42.861   9.483
 1239POPC   PO417988  42.833  43.482   9.480
 1239POPC   GL117989  43.034  43.260   9.145
 1239POPC   GL217990  42.838  42.957   9.099
 1239POPC   C1A17991  43.281  43.235   8.764
 1239POPC   D2A17992  43.280  43.009   8.365
 1239POPC   C3A17993  43.222  43.192   8.006
 1239POPC   C4A17994  43.367  43.407   7.682
 1239POPC   C1B17995  42.951  42.850   8.710
 1239POPC   C2B17996  42.826  42.773   8.317
 1239POPC   C3B17997  42.980  42.740   7.912
 1239POPC   C4B17998  43.103  42.962   7.547
 1240POPC   NC317999   0.818  17.424   9.364
 1240POPC   PO418000   1.461  17.216   9.476
 1240POPC   GL118001   1.261  17.449   9.140
 1240POPC   GL218002   1.319  17.768   9.026
 1240POPC   C1A18003   1.266  17.318   8.721
 1240POPC   D2A18004   1.225  17.448   8.318
 1240POPC   C3A18005   1.352  17.238   7.985
 1240POPC   C4A18006   1.486  17.437   7.650
 1240POPC   C1B18007   0.947  17.724   8.755
 1240POPC   C2B18008   0.765  17.696   8.332
 1240POPC   C3B18009   0.924  17.663   7.915
 1240POPC   C4B18010   0.700  17.668   7.536
 1241POPC   NC318011  37.500   5.679   9.517
 1241POPC   PO418012  37.866   6.183   9.686
 1241POPC   GL118013  37.920   5.921   9.267
 1241POPC   GL218014  37.589   5.912   9.087
 1241POPC   C1A18015  37.930   5.661   8.838
 1241POPC   D2A18016  37.622   5.661   8.469
 1241POPC   C3A18017  37.766   5.764   8.040
 1241POPC   C4A18018  37.773   5.660   7.629
 1241POPC   C1B18019  37.343   6.015   8.733
 1241POPC   C2B18020  37.167   6.068   8.350
 1241POPC   C3B18021  37.334   6.019   7.963
 1241POPC   C4B18022  37.327   6.241   7.625
 1242POPC   NC318023  44.866  28.214   9.478
 1242POPC   PO418024  44.513  28.696   9.565
 1242POPC   GL118025  44.568  28.502   9.145
 1242POPC   GL218026  44.912  28.537   9.083
 1242POPC   C1A18027  44.523  28.477   8.677
 1242POPC   D2A18028  44.566  28.643   8.267
 1242POPC   C3A18029  44.487  28.387   7.925
 1242POPC   C4A18030  44.490  28.422   7.463
 1242POPC   C1B18031  44.861  28.122   8.807
 1242POPC   C2B18032  44.777  28.131   8.330
 1242POPC   C3B18033  44.912  28.094   7.878
 1242POPC   C4B18034  44.784  28.011   7.416
 1243POPC   NC318035  12.611  13.029   9.470
 1243POPC   PO418036  12.991  12.481   9.515
 1243POPC   GL118037  13.003  12.755   9.189
 1243POPC   GL218038  12.664  12.694   9.061
 1243POPC   C1A18039  13.102  12.857   8.776
 1243POPC   D2A18040  12.969  12.738   8.366
 1243POPC   C3A18041  13.109  12.941   7.980
 1243POPC   C4A18042  13.066  12.615   7.679
 1243POPC   C1B18043  12.603  13.067   8.805
 1243POPC   C2B18044  12.660  13.150   8.399
 1243POPC   C3B18045  12.608  12.933   8.038
 1243POPC   C4B18046  12.700  13.028   7.648
 1244POPC   NC318047  33.408  39.584   9.521
 1244POPC   PO418048  33.023  39.060   9.434
 1244POPC   GL118049  33.010  39.373   9.165
 1244POPC   GL218050  33.353  39.309   9.107
 1244POPC   C1A18051  32.766  39.339   8.791
 1244POPC   D2A18052  32.862  39.066   8.405
 1244POPC   C3A18053  32.835  39.224   8.030
 1244POPC   C4A18054  32.714  39.235   7.629
 1244POPC   C1B18055  33.232  39.182   8.725
 1244POPC   C2B18056  33.122  39.501   8.391
 1244POPC   C3B18057  33.260  39.497   7.955
 1244POPC   C4B18058  33.302  39.127   7.748
 1245POPC   NC318059  26.189  12.850   9.592
 1245POPC   PO418060  25.548  13.031   9.606
 1245POPC   GL118061  25.775  12.922   9.209
 1245POPC   GL218062  26.010  12.667   9.149
 1245POPC   C1A18063  25.990  13.040   8.801
 1245POPC   D2A18064  25.840  12.961   8.373
 1245POPC   C3A18065  25.970  13.101   7.975
 1245POPC   C4A18066  25.754  13.028   7.598
 1245POPC   C1B18067  26.171  12.552   8.721
 1245POPC   C2B18068  26.195  12.543   8.247
 1245POPC   C3B18069  26.335  12.673   7.833
 1245POPC   C4B18070  26.581  12.969   7.570
 1246POPC   NC318071  10.625  34.156   9.386
 1246POPC   PO418072  10.082  33.727   9.532
 1246POPC   GL118073  10.286  33.832   9.124
 1246POPC   GL218074  10.461  33.527   9.147
 1246POPC   C1A18075  10.631  33.947   8.760
 1246POPC   D2A18076  10.741  34.247   8.383
 1246POPC   C3A18077  10.336  34.204   8.155
 1246POPC   C4A18078  10.288  33.820   7.860
 1246POPC   C1B18079  10.890  33.519   8.973
 1246POPC   C2B18080  10.957  33.562   8.530
 1246POPC   C3B18081  10.720  33.746   8.174
 1246POPC   C4B18082  10.779  33.694   7.717
 1247POPC   NC318083  39.597   6.953   9.454
 1247POPC   PO418084  38.974   6.840   9.557
 1247POPC   GL118085  39.241   6.609   9.243
 1247POPC   GL218086  39.296   6.888   9.013
 1247POPC   C1A18087  39.330   6.393   8.834
 1247POPC   D2A18088  39.121   6.318   8.410
 1247POPC   C3A18089  39.255   6.355   7.961
 1247POPC   C4A18090  39.282   6.663   7.631
 1247POPC   C1B18091  39.196   6.812   8.557
 1247POPC   C2B18092  39.214   6.847   8.124
 1247POPC   C3B18093  39.445   7.099   7.824
 1247POPC   C4B18094  39.687   6.996   7.464
 1248POPC   NC318095   0.066   2.439   9.843
 1248POPC   PO418096   0.485   2.040   9.564
 1248POPC   GL118097   0.502   1.993   9.112
 1248POPC   GL218098   0.695   2.299   9.047
 1248POPC   C1A18099   0.125   1.952   8.823
 1248POPC   D2A18100  44.944   1.985   8.399
 1248POPC   C3A18101   0.129   1.803   8.043
 1248POPC   C4A18102   0.390   1.678   7.702
 1248POPC   C1B18103   0.421   2.350   8.700
 1248POPC   C2B18104   0.426   2.134   8.350
 1248POPC   C3B18105   0.540   2.090   7.943
 1248POPC   C4B18106   0.402   2.327   7.599
 1249POPC   NC318107  30.259   7.922   9.339
 1249POPC   PO418108  30.895   7.781   9.444
 1249POPC   GL118109  30.708   7.612   9.072
 1249POPC   GL218110  30.950   7.352   9.019
 1249POPC   C1A18111  30.632   7.537   8.609
 1249POPC   D2A18112  30.962   7.378   8.285
 1249POPC   C3A18113  30.876   7.493   7.869
 1249POPC   C4A18114  30.448   7.477   7.818
 1249POPC   C1B18115  30.821   7.086   8.706
 1249POPC   C2B18116  30.530   7.081   8.349
 1249POPC   C3B18117  30.663   6.997   7.935
 1249POPC   C4B18118  30.607   7.056   7.492
 1250POPC   NC318119  36.425  32.995   9.579
 1250POPC   PO418120  37.089  32.973   9.574
 1250POPC   GL118121  36.793  32.890   9.229
 1250POPC   GL218122  36.726  33.158   8.964
 1250POPC   C1A18123  36.885  32.555   8.939
 1250POPC   D2A18124  36.925  32.438   8.516
 1250POPC   C3A18125  36.776  32.732   8.186
 1250POPC   C4A18126  36.917  32.775   7.765
 1250POPC   C1B18127  36.972  32.978   8.629
 1250POPC   C2B18128  37.288  33.046   8.307
 1250POPC   C3B18129  37.174  33.223   7.901
 1250POPC   C4B18130  36.769  33.258   7.737
 1251POPC   NC318131   0.323  21.948   9.467
 1251POPC   PO418132   0.195  22.445   9.161
 1251POPC   GL118133   0.335  22.040   8.976
 1251POPC   GL218134   0.047  21.809   9.003
 1251POPC   C1A18135   0.456  21.912   8.579
 1251POPC   D2A18136   0.386  22.134   8.193
 1251POPC   C3A18137   0.704  22.166   7.850
 1251POPC   C4A18138   0.880  21.940   7.492
 1251POPC   C1B18139  44.960  22.090   8.629
 1251POPC   C2B18140  44.889  22.274   8.207
 1251POPC   C3B18141   0.143  22.361   7.818
 1251POPC   C4B18142   0.371  22.253   7.450
 1252POPC   NC318143  19.493  18.241   9.483
 1252POPC   PO418144  18.878  17.814   9.489
 1252POPC   GL118145  19.076  18.114   9.230
 1252POPC   GL218146  19.356  17.914   9.069
 1252POPC   C1A18147  19.044  18.413   8.874
 1252POPC   D2A18148  19.110  18.615   8.481
 1252POPC   C3A18149  19.222  18.336   8.134
 1252POPC   C4A18150  19.140  18.337   7.701
 1252POPC   C1B18151  18.984  17.912   8.792
 1252POPC   C2B18152  18.875  18.106   8.419
 1252POPC   C3B18153  18.897  17.945   8.001
 1252POPC   C4B18154  19.087  17.821   7.646
 1253POPC   NC318155  31.906   9.637   9.570
 1253POPC   PO418156  32.356  10.101   9.509
 1253POPC   GL118157  32.176   9.853   9.136
 1253POPC   GL218158  32.055   9.485   9.124
 1253POPC   C1A18159  32.334   9.749   8.707
 1253POPC   D2A18160  32.639   9.711   8.373
 1253POPC   C3A18161  32.434   9.743   7.991
 1253POPC   C4A18162  32.420   9.700   7.537
 1253POPC   C1B18163  31.879   9.535   8.754
 1253POPC   C2B18164  32.055   9.359   8.451
 1253POPC   C3B18165  32.032   9.447   8.074
 1253POPC   C4B18166  31.933   9.701   7.733
 1254POPC   NC318167  41.427  44.535   9.407
 1254POPC   PO418168  41.680   0.149   9.441
 1254POPC   GL118169  41.730  44.877   9.077
 1254POPC   GL218170  41.379  44.842   8.991
 1254POPC   C1A18171  41.705  44.775   8.611
 1254POPC   D2A18172  41.928  44.739   8.235
 1254POPC   C3A18173  41.699  44.675   7.836
 1254POPC   C4A18174  41.588  44.803   7.397
 1254POPC   C1B18175  41.388  44.408   8.780
 1254POPC   C2B18176  41.320  44.193   8.419
 1254POPC   C3B18177  41.327  44.342   8.014
 1254POPC   C4B18178  41.331  44.418   7.595
 1255POPC   NC318179   6.868  15.442   9.427
 1255POPC   PO418180   6.470  14.893   9.467
 1255POPC   GL118181   6.520  15.082   9.086
 1255POPC   GL218182   6.388  15.364   9.121
 1255POPC   C1A18183   6.541  15.219   8.644
 1255POPC   D2A18184   6.879  15.311   8.354
 1255POPC   C3A18185   6.773  15.223   7.929
 1255POPC   C4A18186   6.565  14.975   7.627
 1255POPC   C1B18187   6.081  15.449   8.848
 1255POPC   C2B18188   6.224  15.667   8.494
 1255POPC   C3B18189   6.413  15.530   8.147
 1255POPC   C4B18190   6.246  15.430   7.739
 1256POPC   NC318191  17.254   0.278   9.362
 1256POPC   PO418192  17.676   0.659   9.698
 1256POPC   GL118193  17.601   0.778   9.256
 1256POPC   GL218194  17.276   0.703   9.118
 1256POPC   C1A18195  17.666   0.691   8.810
 1256POPC   D2A18196  17.673   0.457   8.429
 1256POPC   C3A18197  17.507   0.676   8.083
 1256POPC   C4A18198  17.638   0.783   7.642
 1256POPC   C1B18199  17.207   0.518   8.693
 1256POPC   C2B18200  17.186   0.222   8.370
 1256POPC   C3B18201  17.283   0.212   7.945
 1256POPC   C4B18202  17.120   0.552   7.772
 1257POPC   NC318203  16.239   5.983   9.583
 1257POPC   PO418204  16.859   5.803   9.550
 1257POPC   GL118205  16.867   5.563   9.158
 1257POPC   GL218206  16.518   5.665   9.145
 1257POPC   C1A18207  17.054   5.587   8.741
 1257POPC   D2A18208  16.920   5.821   8.355
 1257POPC   C3A18209  16.826   5.648   7.934
 1257POPC   C4A18210  16.883   5.922   7.579
 1257POPC   C1B18211  16.506   5.505   8.703
 1257POPC   C2B18212  16.347   5.389   8.241
 1257POPC   C3B18213  16.347   5.434   7.765
 1257POPC   C4B18214  16.236   5.563   7.301
 1258POPC   NC318215   4.605  15.762   9.450
 1258POPC   PO418216   4.087  16.079   9.729
 1258POPC   GL118217   4.240  16.065   9.240
 1258POPC   GL218218   4.216  15.793   9.031
 1258POPC   C1A18219   4.598  16.079   8.878
 1258POPC   D2A18220   4.703  15.885   8.422
 1258POPC   C3A18221   4.540  15.844   7.995
 1258POPC   C4A18222   4.560  15.941   7.567
 1258POPC   C1B18223   4.354  15.660   8.704
 1258POPC   C2B18224   4.181  15.724   8.358
 1258POPC   C3B18225   3.976  15.902   8.077
 1258POPC   C4B18226   4.088  15.785   7.711
 1259POPC   NC318227   5.224  43.338   9.741
 1259POPC   PO418228   4.706  42.998   9.542
 1259POPC   GL118229   5.075  43.011   9.286
 1259POPC   GL218230   5.179  43.340   9.205
 1259POPC   C1A18231   5.264  42.957   8.865
 1259POPC   D2A18232   5.302  43.225   8.495
 1259POPC   C3A18233   5.038  43.124   8.155
 1259POPC   C4A18234   4.984  43.129   7.719
 1259POPC   C1B18235   4.903  43.311   8.823
 1259POPC   C2B18236   4.709  43.443   8.409
 1259POPC   C3B18237   4.647  43.416   7.955
 1259POPC   C4B18238   4.461  43.211   7.607
 1260POPC   NC318239   4.232   7.851   9.434
 1260POPC   PO418240   4.603   7.269   9.578
 1260POPC   GL118241   4.436   7.422   9.212
 1260POPC   GL218242   4.630   7.675   9.159
 1260POPC   C1A18243   4.341   7.552   8.770
 1260POPC   D2A18244   4.357   7.316   8.374
 1260POPC   C3A18245   4.062   7.267   8.017
 1260POPC   C4A18246   4.216   7.031   7.682
 1260POPC   C1B18247   4.821   7.735   8.786
 1260POPC   C2B18248   4.621   7.753   8.381
 1260POPC   C3B18249   4.413   7.670   7.994
 1260POPC   C4B18250   4.698   7.751   7.663
 1261POPC   NC318251  39.415  32.624   9.484
 1261POPC   PO418252  39.292  33.307   9.584
 1261POPC   GL118253  39.284  33.104   9.172
 1261POPC   GL218254  39.603  32.969   9.148
 1261POPC   C1A18255  39.155  33.287   8.754
 1261POPC   D2A18256  38.931  33.220   8.340
 1261POPC   C3A18257  39.116  33.218   7.968
 1261POPC   C4A18258  39.163  32.885   7.745
 1261POPC   C1B18259  39.590  32.974   8.737
 1261POPC   C2B18260  39.466  33.141   8.367
 1261POPC   C3B18261  39.567  32.920   8.032
 1261POPC   C4B18262  39.662  33.196   7.744
 1262POPC   NC318263   1.921   2.104   9.662
 1262POPC   PO418264   2.095   1.489   9.489
 1262POPC   GL118265   2.117   1.909   9.208
 1262POPC   GL218266   1.897   2.205   9.124
 1262POPC   C1A18267   2.216   2.025   8.756
 1262POPC   D2A18268   2.056   2.066   8.356
 1262POPC   C3A18269   2.162   1.817   7.965
 1262POPC   C4A18270   1.893   1.806   7.601
 1262POPC   C1B18271   1.892   2.437   8.722
 1262POPC   C2B18272   1.825   2.530   8.290
 1262POPC   C3B18273   1.791   2.201   7.948
 1262POPC   C4B18274   1.531   2.168   7.596
 1263POPC   NC318275  15.020  28.788   9.417
 1263POPC   PO418276  15.280  28.149   9.440
 1263POPC   GL118277  15.106  28.388   9.127
 1263POPC   GL218278  14.764  28.314   9.114
 1263POPC   C1A18279  15.046  28.609   8.747
 1263POPC   D2A18280  15.328  28.642   8.398
 1263POPC   C3A18281  15.116  28.592   8.021
 1263POPC   C4A18282  15.157  28.799   7.644
 1263POPC   C1B18283  14.963  28.085   8.746
 1263POPC   C2B18284  14.935  28.054   8.290
 1263POPC   C3B18285  15.076  28.113   7.865
 1263POPC   C4B18286  14.897  28.378   7.566
 1264POPC   NC318287  34.267  39.418   9.423
 1264POPC   PO418288  34.854  39.253   9.440
 1264POPC   GL118289  34.826  39.277   9.024
 1264POPC   GL218290  34.497  39.287   9.006
 1264POPC   C1A18291  34.719  39.245   8.577
 1264POPC   D2A18292  34.395  39.049   8.360
 1264POPC   C3A18293  34.557  39.072   7.968
 1264POPC   C4A18294  34.778  39.304   7.672
 1264POPC   C1B18295  34.140  39.436   8.801
 1264POPC   C2B18296  33.998  39.489   8.407
 1264POPC   C3B18297  34.231  39.478   8.011
 1264POPC   C4B18298  34.260  39.276   7.614
 1265POPC   NC318299  18.734  34.769   9.505
 1265POPC   PO418300  19.392  34.443   9.651
 1265POPC   GL118301  19.185  34.618   9.282
 1265POPC   GL218302  19.429  34.875   9.157
 1265POPC   C1A18303  18.920  34.726   8.885
 1265POPC   D2A18304  18.960  35.014   8.542
 1265POPC   C3A18305  18.929  34.861   8.125
 1265POPC   C4A18306  19.177  34.786   7.770
 1265POPC   C1B18307  19.384  34.535   8.826
 1265POPC   C2B18308  19.231  34.511   8.418
 1265POPC   C3B18309  19.319  34.359   8.019
 1265POPC   C4B18310  18.985  34.164   7.800
 1266POPC   NC318311   5.666  28.171   9.347
 1266POPC   PO418312   6.079  28.752   9.344
 1266POPC   GL118313   6.021  28.427   9.090
 1266POPC   GL218314   6.185  28.140   9.196
 1266POPC   C1A18315   5.823  28.255   8.724
 1266POPC   D2A18316   5.511  28.195   8.408
 1266POPC   C3A18317   5.651  28.055   8.014
 1266POPC   C4A18318   5.846  28.369   7.808
 1266POPC   C1B18319   6.251  27.977   8.781
 1266POPC   C2B18320   6.057  28.023   8.343
 1266POPC   C3B18321   6.282  28.131   7.970
 1266POPC   C4B18322   6.416  27.997   7.559
 1267POPC   NC318323  36.519  28.627   9.326
 1267POPC   PO418324  36.184  29.200   9.469
 1267POPC   GL118325  36.214  28.985   9.125
 1267POPC   GL218326  35.894  28.887   9.080
 1267POPC   C1A18327  36.425  29.038   8.763
 1267POPC   D2A18328  36.569  29.209   8.410
 1267POPC   C3A18329  36.477  29.013   8.022
 1267POPC   C4A18330  36.543  29.150   7.628
 1267POPC   C1B18331  35.916  29.145   8.733
 1267POPC   C2B18332  36.059  29.058   8.329
 1267POPC   C3B18333  36.002  28.770   7.983
 1267POPC   C4B18334  36.076  28.953   7.596
 1268POPC   NC318335  37.803  30.213   9.461
 1268POPC   PO418336  37.609  29.514   9.523
 1268POPC   GL118337  37.589  29.790   9.184
 1268POPC   GL218338  37.956  29.768   9.122
 1268POPC   C1A18339  37.607  30.038   8.799
 1268POPC   D2A18340  37.417  30.130   8.390
 1268POPC   C3A18341  37.578  30.264   7.984
 1268POPC   C4A18342  37.582  30.129   7.535
 1268POPC   C1B18343  38.121  29.954   8.725
 1268POPC   C2B18344  38.021  30.124   8.299
 1268POPC   C3B18345  37.932  29.916   7.894
 1268POPC   C4B18346  37.762  29.663   7.576
 1269POPC   NC318347  40.950  34.776   9.594
 1269POPC   PO418348  40.593  34.260   9.490
 1269POPC   GL118349  40.838  34.461   9.146
 1269POPC   GL218350  41.116  34.729   9.129
 1269POPC   C1A18351  40.702  34.545   8.724
 1269POPC   D2A18352  40.607  34.346   8.348
 1269POPC   C3A18353  40.673  34.544   7.965
 1269POPC   C4A18354  40.713  34.339   7.584
 1269POPC   C1B18355  41.216  34.505   8.788
 1269POPC   C2B18356  41.113  34.423   8.393
 1269POPC   C3B18357  41.180  34.537   7.969
 1269POPC   C4B18358  41.203  34.358   7.558
 1270POPC   NC318359  42.050  27.297   9.321
 1270POPC   PO418360  41.571  27.665   9.690
 1270POPC   GL118361  41.605  27.508   9.268
 1270POPC   GL218362  41.471  27.254   9.156
 1270POPC   C1A18363  41.718  27.675   8.839
 1270POPC   D2A18364  41.713  27.529   8.401
 1270POPC   C3A18365  41.657  27.784   8.019
 1270POPC   C4A18366  41.758  27.557   7.618
 1270POPC   C1B18367  41.245  27.524   8.807
 1270POPC   C2B18368  41.224  27.732   8.361
 1270POPC   C3B18369  41.207  27.571   7.905
 1270POPC   C4B18370  41.294  27.619   7.439
 1271POPC   NC318371   2.108  39.400   9.610
 1271POPC   PO418372   1.626  39.049   9.268
 1271POPC   GL118373   1.920  39.316   9.070
 1271POPC   GL218374   2.243  39.278   9.132
 1271POPC   C1A18375   2.046  39.390   8.669
 1271POPC   D2A18376   1.876  39.201   8.339
 1271POPC   C3A18377   2.002  39.397   8.029
 1271POPC   C4A18378   2.209  39.496   7.673
 1271POPC   C1B18379   2.397  39.004   8.770
 1271POPC   C2B18380   2.395  39.099   8.316
 1271POPC   C3B18381   2.294  39.018   7.859
 1271POPC   C4B18382   2.194  39.065   7.383
 1272POPC   NC318383  10.914  35.635   9.499
 1272POPC   PO418384  10.450  36.114   9.452
 1272POPC   GL118385  10.412  36.305   9.086
 1272POPC   GL218386  10.754  36.337   9.012
 1272POPC   C1A18387  10.364  36.141   8.686
 1272POPC   D2A18388  10.246  35.806   8.459
 1272POPC   C3A18389  10.390  35.995   8.120
 1272POPC   C4A18390  10.412  35.920   7.713
 1272POPC   C1B18391  10.822  35.951   8.837
 1272POPC   C2B18392  10.787  35.841   8.417
 1272POPC   C3B18393  10.906  35.966   8.016
 1272POPC   C4B18394  10.709  36.319   7.825
 1273POPC   NC318395  26.124   2.603   9.604
 1273POPC   PO418396  26.191   1.877   9.623
 1273POPC   GL118397  26.131   1.797   9.135
 1273POPC   GL218398  26.334   2.000   8.924
 1273POPC   C1A18399  25.875   1.933   8.754
 1273POPC   D2A18400  25.936   2.216   8.402
 1273POPC   C3A18401  26.012   1.957   8.049
 1273POPC   C4A18402  25.782   1.836   7.651
 1273POPC   C1B18403  26.367   1.929   8.487
 1273POPC   C2B18404  26.478   2.234   8.187
 1273POPC   C3B18405  26.250   2.441   7.928
 1273POPC   C4B18406  26.298   2.130   7.673
 1274POPC   NC318407  13.047  34.031  10.013
 1274POPC   PO418408  12.924  33.749   9.423
 1274POPC   GL118409  12.884  33.817   9.023
 1274POPC   GL218410  12.711  33.538   8.893
 1274POPC   C1A18411  12.940  33.976   8.640
 1274POPC   D2A18412  12.818  34.180   8.283
 1274POPC   C3A18413  12.831  33.950   7.955
 1274POPC   C4A18414  12.941  34.086   7.589
 1274POPC   C1B18415  13.090  33.467   8.706
 1274POPC   C2B18416  12.997  33.579   8.295
 1274POPC   C3B18417  12.737  33.455   7.973
 1274POPC   C4B18418  12.573  33.648   7.608
 1275POPC   NC318419  39.903  31.751   9.468
 1275POPC   PO418420  40.266  31.261   9.316
 1275POPC   GL118421  39.900  31.361   9.093
 1275POPC   GL218422  40.074  31.671   8.985
 1275POPC   C1A18423  39.767  31.419   8.669
 1275POPC   D2A18424  39.968  31.612   8.337
 1275POPC   C3A18425  39.781  31.801   7.981
 1275POPC   C4A18426  39.782  31.564   7.604
 1275POPC   C1B18427  40.489  31.787   8.820
 1275POPC   C2B18428  40.656  31.682   8.438
 1275POPC   C3B18429  40.427  31.465   8.132
 1275POPC   C4B18430  40.244  31.647   7.778
 1276POPC   NC318431  37.991   5.007   9.736
 1276POPC   PO418432  38.589   5.253   9.555
 1276POPC   GL118433  38.482   5.189   9.182
 1276POPC   GL218434  38.204   5.026   9.257
 1276POPC   C1A18435  38.673   5.097   8.807
 1276POPC   D2A18436  38.483   5.012   8.456
 1276POPC   C3A18437  38.674   5.144   8.070
 1276POPC   C4A18438  38.585   5.056   7.639
 1276POPC   C1B18439  38.120   5.160   8.831
 1276POPC   C2B18440  38.053   5.326   8.427
 1276POPC   C3B18441  38.153   5.117   8.038
 1276POPC   C4B18442  38.174   5.330   7.672
 1277POPC   NC318443  12.640   0.527   9.409
 1277POPC   PO418444  13.091   0.014   9.480
 1277POPC   GL118445  13.066   0.286   9.139
 1277POPC   GL218446  13.028   0.647   9.108
 1277POPC   C1A18447  13.155   0.328   8.729
 1277POPC   D2A18448  12.975   0.378   8.362
 1277POPC   C3A18449  12.922   0.101   8.024
 1277POPC   C4A18450  12.563   0.251   7.803
 1277POPC   C1B18451  12.809   0.736   8.724
 1277POPC   C2B18452  12.897   0.885   8.309
 1277POPC   C3B18453  12.916   0.696   7.915
 1277POPC   C4B18454  12.930   0.812   7.488
 1278POPC   NC318455  42.309  17.836   9.446
 1278POPC   PO418456  42.676  17.304   9.613
 1278POPC   GL118457  42.632  17.324   9.167
 1278POPC   GL218458  42.322  17.413   9.164
 1278POPC   C1A18459  42.428  17.342   8.710
 1278POPC   D2A18460  42.443  17.632   8.395
 1278POPC   C3A18461  42.359  17.452   7.990
 1278POPC   C4A18462  42.488  17.726   7.636
 1278POPC   C1B18463  42.091  17.700   8.854
 1278POPC   C2B18464  41.935  17.656   8.452
 1278POPC   C3B18465  41.994  17.808   8.045
 1278POPC   C4B18466  41.989  17.683   7.659
 1279POPC   NC318467  38.439   0.110   9.520
 1279POPC   PO418468  38.059   0.652   9.522
 1279POPC   GL118469  38.345   0.462   9.178
 1279POPC   GL218470  38.187   0.137   9.088
 1279POPC   C1A18471  38.529   0.418   8.780
 1279POPC   D2A18472  38.586   0.247   8.344
 1279POPC   C3A18473  38.701   0.497   8.000
 1279POPC   C4A18474  38.516   0.670   7.650
 1279POPC   C1B18475  38.272  44.989   8.668
 1279POPC   C2B18476  38.140   0.027   8.243
 1279POPC   C3B18477  38.335   0.170   7.849
 1279POPC   C4B18478  38.159   0.055   7.426
 1280POPC   NC318479  39.533   3.294   9.381
 1280POPC   PO418480  39.349   3.928   9.470
 1280POPC   GL118481  39.182   3.903   9.107
 1280POPC   GL218482  39.158   3.546   9.119
 1280POPC   C1A18483  39.357   3.803   8.719
 1280POPC   D2A18484  39.208   3.647   8.361
 1280POPC   C3A18485  39.501   3.787   8.114
 1280POPC   C4A18486  39.388   4.024   7.824
 1280POPC   C1B18487  39.140   3.305   8.766
 1280POPC   C2B18488  38.815   3.368   8.508
 1280POPC   C3B18489  38.824   3.352   8.085
 1280POPC   C4B18490  39.221   3.444   7.892
 1281POPC   NC318491  16.206  39.839   9.487
 1281POPC   PO418492  15.597  40.127   9.514
 1281POPC   GL118493  15.778  40.242   9.138
 1281POPC   GL218494  16.107  40.164   9.081
 1281POPC   C1A18495  15.722  40.064   8.744
 1281POPC   D2A18496  15.755  39.738   8.450
 1281POPC   C3A18497  15.730  39.941   8.108
 1281POPC   C4A18498  15.916  39.921   7.734
 1281POPC   C1B18499  16.215  40.086   8.663
 1281POPC   C2B18500  16.223  39.959   8.238
 1281POPC   C3B18501  16.230  40.271   7.907
 1281POPC   C4B18502  16.480  40.322   7.529
 1282POPC   NC318503  17.232  22.719   9.462
 1282POPC   PO418504  16.562  23.046   9.591
 1282POPC   GL118505  16.537  22.971   9.148
 1282POPC   GL218506  16.896  23.002   9.135
 1282POPC   C1A18507  16.648  22.804   8.718
 1282POPC   D2A18508  16.778  22.541   8.359
 1282POPC   C3A18509  16.717  22.744   7.956
 1282POPC   C4A18510  16.412  23.007   7.801
 1282POPC   C1B18511  17.065  23.217   8.774
 1282POPC   C2B18512  17.134  23.342   8.377
 1282POPC   C3B18513  17.122  23.085   8.000
 1282POPC   C4B18514  16.875  23.193   7.634
 1283POPC   NC318515  37.501   8.635   9.412
 1283POPC   PO418516  37.640   9.271   9.405
 1283POPC   GL118517  37.628   8.945   9.056
 1283POPC   GL218518  37.946   8.769   8.991
 1283POPC   C1A18519  37.555   8.556   8.751
 1283POPC   D2A18520  37.714   8.513   8.309
 1283POPC   C3A18521  37.550   8.800   7.969
 1283POPC   C4A18522  37.636   8.881   7.524
 1283POPC   C1B18523  37.838   8.943   8.597
 1283POPC   C2B18524  37.784   9.174   8.233
 1283POPC   C3B18525  37.941   9.166   7.831
 1283POPC   C4B18526  37.919   9.443   7.461
 1284POPC   NC318527  22.620  15.252   9.390
 1284POPC   PO418528  23.236  14.906   9.453
 1284POPC   GL118529  23.133  14.783   9.044
 1284POPC   GL218530  23.008  15.106   9.009
 1284POPC   C1A18531  23.210  14.899   8.592
 1284POPC   D2A18532  23.271  15.068   8.180
 1284POPC   C3A18533  23.014  14.791   7.921
 1284POPC   C4A18534  22.736  14.889   7.565
 1284POPC   C1B18535  22.696  15.084   8.719
 1284POPC   C2B18536  22.784  15.057   8.309
 1284POPC   C3B18537  22.765  15.248   7.937
 1284POPC   C4B18538  22.734  15.407   7.511
 1285POPC   NC318539  31.552  14.789   9.493
 1285POPC   PO418540  31.561  14.074   9.498
 1285POPC   GL118541  31.288  14.262   9.164
 1285POPC   GL218542  31.310  14.627   9.096
 1285POPC   C1A18543  31.414  14.287   8.714
 1285POPC   D2A18544  31.761  14.220   8.393
 1285POPC   C3A18545  31.566  14.238   8.010
 1285POPC   C4A18546  31.259  14.550   7.829
 1285POPC   C1B18547  31.491  14.834   8.758
 1285POPC   C2B18548  31.459  14.675   8.349
 1285POPC   C3B18549  31.748  14.702   8.048
 1285POPC   C4B18550  31.711  14.721   7.623
 1286POPC   NC318551   7.603  38.036   9.461
 1286POPC   PO418552   7.367  37.347   9.498
 1286POPC   GL118553   7.316  37.674   9.187
 1286POPC   GL218554   7.592  37.525   9.029
 1286POPC   C1A18555   7.446  37.965   8.825
 1286POPC   D2A18556   7.393  38.137   8.423
 1286POPC   C3A18557   7.595  37.859   8.110
 1286POPC   C4A18558   7.720  37.844   7.681
 1286POPC   C1B18559   7.227  37.511   8.709
 1286POPC   C2B18560   7.274  37.467   8.257
 1286POPC   C3B18561   7.415  37.432   7.813
 1286POPC   C4B18562   7.636  37.438   7.397
 1287POPC   NC318563  38.058  34.557   9.580
 1287POPC   PO418564  37.359  34.769   9.508
 1287POPC   GL118565  37.567  34.530   9.182
 1287POPC   GL218566  37.881  34.698   9.141
 1287POPC   C1A18567  37.539  34.248   8.809
 1287POPC   D2A18568  37.653  34.063   8.415
 1287POPC   C3A18569  37.717  34.317   8.032
 1287POPC   C4A18570  37.450  34.517   7.746
 1287POPC   C1B18571  38.016  34.396   8.850
 1287POPC   C2B18572  38.034  34.447   8.417
 1287POPC   C3B18573  38.072  34.711   8.044
 1287POPC   C4B18574  37.951  34.622   7.654
 1288POPC   NC318575  24.806  22.544   9.407
 1288POPC   PO418576  25.279  22.958   9.731
 1288POPC   GL118577  25.171  22.974   9.178
 1288POPC   GL218578  24.850  23.045   9.105
 1288POPC   C1A18579  25.273  22.748   8.745
 1288POPC   D2A18580  25.410  22.597   8.335
 1288POPC   C3A18581  25.191  22.643   7.957
 1288POPC   C4A18582  25.557  22.770   7.797
 1288POPC   C1B18583  25.120  23.226   8.730
 1288POPC   C2B18584  25.181  23.083   8.268
 1288POPC   C3B18585  25.267  23.242   7.834
 1288POPC   C4B18586  25.060  23.373   7.423
 1289POPC   NC318587   8.635  16.959   9.371
 1289POPC   PO418588   9.212  17.392   9.518
 1289POPC   GL118589   9.079  17.391   9.124
 1289POPC   GL218590   8.765  17.461   9.194
 1289POPC   C1A18591   9.104  17.637   8.744
 1289POPC   D2A18592   9.051  17.410   8.339
 1289POPC   C3A18593   9.102  17.693   8.000
 1289POPC   C4A18594   9.274  17.967   7.678
 1289POPC   C1B18595   8.707  17.322   8.754
 1289POPC   C2B18596   8.544  17.376   8.323
 1289POPC   C3B18597   8.663  17.443   7.905
 1289POPC   C4B18598   8.648  17.865   7.779
 1290POPC   NC318599   8.360  23.226   9.523
 1290POPC   PO418600   8.121  22.605   9.411
 1290POPC   GL118601   8.100  22.943   9.151
 1290POPC   GL218602   8.474  22.937   9.121
 1290POPC   C1A18603   7.842  22.931   8.781
 1290POPC   D2A18604   7.975  23.100   8.402
 1290POPC   C3A18605   8.056  22.767   8.157
 1290POPC   C4A18606   7.866  22.700   7.789
 1290POPC   C1B18607   8.341  22.868   8.704
 1290POPC   C2B18608   8.486  22.999   8.328
 1290POPC   C3B18609   8.286  23.209   7.985
 1290POPC   C4B18610   8.373  22.837   7.750
 1291POPC   NC318611   9.398  13.860   9.352
 1291POPC   PO418612  10.065  13.709   9.368
 1291POPC   GL118613   9.798  13.422   9.120
 1291POPC   GL218614  10.025  13.188   8.919
 1291POPC   C1A18615   9.476  13.336   8.803
 1291POPC   D2A18616   9.421  13.538   8.394
 1291POPC   C3A18617   9.606  13.531   8.004
 1291POPC   C4A18618   9.415  13.443   7.644
 1291POPC   C1B18619   9.924  13.512   8.626
 1291POPC   C2B18620   9.882  13.798   8.329
 1291POPC   C3B18621   9.986  13.891   7.952
 1291POPC   C4B18622   9.813  13.773   7.573
 1292POPC   NC318623  11.351  17.150   9.279
 1292POPC   PO418624  11.135  17.679   9.663
 1292POPC   GL118625  11.109  17.650   9.226
 1292POPC   GL218626  11.455  17.763   9.221
 1292POPC   C1A18627  11.227  17.707   8.785
 1292POPC   D2A18628  11.222  17.469   8.435
 1292POPC   C3A18629  11.065  17.636   8.090
 1292POPC   C4A18630  11.239  17.540   7.729
 1292POPC   C1B18631  11.764  17.845   8.906
 1292POPC   C2B18632  11.651  17.791   8.480
 1292POPC   C3B18633  11.591  17.745   8.047
 1292POPC   C4B18634  11.804  17.799   7.628
 1293POPC   NC318635   7.971  33.002   9.544
 1293POPC   PO418636   8.492  33.459   9.435
 1293POPC   GL118637   8.209  33.255   9.095
 1293POPC   GL218638   8.170  32.892   9.035
 1293POPC   C1A18639   8.298  33.223   8.644
 1293POPC   D2A18640   8.260  33.026   8.258
 1293POPC   C3A18641   8.204  33.220   7.868
 1293POPC   C4A18642   8.477  32.925   7.641
 1293POPC   C1B18643   7.900  32.913   8.648
 1293POPC   C2B18644   7.793  32.831   8.227
 1293POPC   C3B18645   7.934  32.801   7.797
 1293POPC   C4B18646   7.883  33.123   7.485
 1294POPC   NC318647  43.404  16.245   9.948
 1294POPC   PO418648  42.855  15.939   9.550
 1294POPC   GL118649  42.789  15.950   9.133
 1294POPC   GL218650  42.690  15.629   9.103
 1294POPC   C1A18651  42.952  16.129   8.746
 1294POPC   D2A18652  42.910  16.183   8.290
 1294POPC   C3A18653  43.310  16.002   8.124
 1294POPC   C4A18654  43.617  16.190   7.837
 1294POPC   C1B18655  42.734  15.672   8.639
 1294POPC   C2B18656  42.983  15.588   8.240
 1294POPC   C3B18657  42.951  15.455   7.788
 1294POPC   C4B18658  42.868  15.687   7.392
 1295POPC   NC318659  17.188   7.209   9.565
 1295POPC   PO418660  17.668   7.640   9.531
 1295POPC   GL118661  17.602   7.408   9.180
 1295POPC   GL218662  17.259   7.509   9.153
 1295POPC   C1A18663  17.636   7.188   8.790
 1295POPC   D2A18664  17.452   7.169   8.390
 1295POPC   C3A18665  17.638   7.102   8.022
 1295POPC   C4A18666  17.759   7.334   7.694
 1295POPC   C1B18667  17.146   7.381   8.735
 1295POPC   C2B18668  17.134   7.573   8.319
 1295POPC   C3B18669  17.320   7.474   7.943
 1295POPC   C4B18670  17.339   7.591   7.498
 1296POPC   NC318671  32.379  12.126   9.444
 1296POPC   PO418672  31.768  11.761   9.455
 1296POPC   GL118673  32.083  11.865   9.072
 1296POPC   GL218674  32.478  11.849   9.025
 1296POPC   C1A18675  32.233  12.105   8.662
 1296POPC   D2A18676  32.481  12.011   8.267
 1296POPC   C3A18677  32.403  12.262   7.877
 1296POPC   C4A18678  32.150  12.272   7.472
 1296POPC   C1B18679  32.454  11.592   8.638
 1296POPC   C2B18680  32.394  11.464   8.199
 1296POPC   C3B18681  32.227  11.746   7.874
 1296POPC   C4B18682  31.863  11.841   7.640
 1297POPC   NC318683  22.497   6.794   9.733
 1297POPC   PO418684  23.091   6.499   9.485
 1297POPC   GL118685  23.085   6.580   9.097
 1297POPC   GL218686  22.740   6.588   9.049
 1297POPC   C1A18687  23.059   6.847   8.754
 1297POPC   D2A18688  23.054   6.682   8.368
 1297POPC   C3A18689  22.909   6.843   8.006
 1297POPC   C4A18690  23.089   6.569   7.709
 1297POPC   C1B18691  22.646   6.516   8.632
 1297POPC   C2B18692  22.508   6.538   8.219
 1297POPC   C3B18693  22.584   6.497   7.772
 1297POPC   C4B18694  22.635   6.309   7.329
 1298POPC   NC318695  39.017   9.200   9.455
 1298POPC   PO418696  39.587   8.862   9.496
 1298POPC   GL118697  39.419   8.982   9.112
 1298POPC   GL218698  39.096   8.796   9.114
 1298POPC   C1A18699  39.369   8.846   8.671
 1298POPC   D2A18700  39.191   8.692   8.275
 1298POPC   C3A18701  39.385   8.925   7.928
 1298POPC   C4A18702  39.664   9.179   7.653
 1298POPC   C1B18703  38.869   8.939   8.740
 1298POPC   C2B18704  38.791   9.009   8.272
 1298POPC   C3B18705  38.945   9.219   7.870
 1298POPC   C4B18706  38.925   9.406   7.455
 1299POPC   NC318707  10.254  14.347   9.529
 1299POPC   PO418708   9.718  14.647   9.397
 1299POPC   GL118709   9.941  14.459   9.087
 1299POPC   GL218710   9.837  14.125   9.174
 1299POPC   C1A18711   9.633  14.440   8.751
 1299POPC   D2A18712   9.325  14.553   8.413
 1299POPC   C3A18713   9.560  14.460   8.038
 1299POPC   C4A18714   9.618  14.669   7.668
 1299POPC   C1B18715   9.977  14.048   8.753
 1299POPC   C2B18716   9.956  14.308   8.370
 1299POPC   C3B18717  10.107  14.389   7.971
 1299POPC   C4B18718   9.917  14.269   7.585
 1300POPC   NC318719  27.640  42.684   9.619
 1300POPC   PO418720  27.683  43.381   9.523
 1300POPC   GL118721  27.712  43.035   9.224
 1300POPC   GL218722  27.366  42.933   9.202
 1300POPC   C1A18723  27.788  42.950   8.779
 1300POPC   D2A18724  27.579  42.942   8.389
 1300POPC   C3A18725  27.811  42.956   8.016
 1300POPC   C4A18726  27.699  43.200   7.729
 1300POPC   C1B18727  27.282  43.134   8.821
 1300POPC   C2B18728  27.121  43.144   8.416
 1300POPC   C3B18729  27.278  43.220   8.018
 1300POPC   C4B18730  27.193  43.344   7.570
 1301POPC   NC318731   6.632  38.261   9.453
 1301POPC   PO418732   6.368  38.877   9.574
 1301POPC   GL118733   6.432  38.627   9.169
 1301POPC   GL218734   6.762  38.610   9.085
 1301POPC   C1A18735   6.467  38.266   8.820
 1301POPC   D2A18736   6.634  38.248   8.383
 1301POPC   C3A18737   6.471  38.390   7.974
 1301POPC   C4A18738   6.604  38.542   7.552
 1301POPC   C1B18739   6.635  38.721   8.653
 1301POPC   C2B18740   6.750  38.930   8.263
 1301POPC   C3B18741   6.738  38.937   7.812
 1301POPC   C4B18742   6.885  38.959   7.339
 1302POPC   NC318743  13.486  40.737   9.426
 1302POPC   PO418744  13.837  41.230   9.680
 1302POPC   GL118745  13.889  41.104   9.227
 1302POPC   GL218746  13.948  40.774   9.173
 1302POPC   C1A18747  13.889  41.105   8.752
 1302POPC   D2A18748  13.536  41.167   8.432
 1302POPC   C3A18749  13.557  40.951   8.015
 1302POPC   C4A18750  13.971  40.916   7.835
 1302POPC   C1B18751  13.696  40.620   8.817
 1302POPC   C2B18752  13.821  40.709   8.395
 1302POPC   C3B18753  13.713  40.471   8.059
 1302POPC   C4B18754  13.489  40.508   7.701
 1303POPC   NC318755  39.498  18.234   9.611
 1303POPC   PO418756  38.910  18.464   9.463
 1303POPC   GL118757  39.147  18.255   9.184
 1303POPC   GL218758  39.288  17.946   9.218
 1303POPC   C1A18759  39.326  18.238   8.799
 1303POPC   D2A18760  39.551  18.367   8.494
 1303POPC   C3A18761  39.226  18.330   8.187
 1303POPC   C4A18762  39.303  18.110   7.834
 1303POPC   C1B18763  38.955  17.898   8.904
 1303POPC   C2B18764  38.857  18.015   8.492
 1303POPC   C3B18765  38.932  17.877   8.088
 1303POPC   C4B18766  38.799  17.656   7.761
 1304POPC   NC318767   4.029  29.417   9.420
 1304POPC   PO418768   4.564  29.123   9.448
 1304POPC   GL118769   4.388  28.948   9.131
 1304POPC   GL218770   4.048  28.811   9.224
 1304POPC   C1A18771   4.480  29.096   8.725
 1304POPC   D2A18772   4.338  29.188   8.340
 1304POPC   C3A18773   4.598  29.140   8.000
 1304POPC   C4A18774   4.468  29.070   7.589
 1304POPC   C1B18775   3.945  28.972   8.815
 1304POPC   C2B18776   3.833  29.088   8.399
 1304POPC   C3B18777   3.865  28.998   7.958
 1304POPC   C4B18778   3.992  29.355   7.707
 1305POPC   NC318779  25.166   8.710   9.513
 1305POPC   PO418780  25.495   9.260   9.335
 1305POPC   GL118781  25.208   9.064   9.046
 1305POPC   GL218782  25.057   8.734   9.023
 1305POPC   C1A18783  25.178   9.037   8.619
 1305POPC   D2A18784  25.409   9.023   8.285
 1305POPC   C3A18785  25.254   9.265   7.984
 1305POPC   C4A18786  25.130   9.301   7.567
 1305POPC   C1B18787  25.350   8.572   8.711
 1305POPC   C2B18788  25.238   8.528   8.272
 1305POPC   C3B18789  25.359   8.666   7.863
 1305POPC   C4B18790  25.598   8.476   7.479
 1306POPC   NC318791  25.182   2.522   9.278
 1306POPC   PO418792  25.693   2.789   9.572
 1306POPC   GL118793  25.592   2.789   9.088
 1306POPC   GL218794  25.256   2.944   8.983
 1306POPC   C1A18795  25.483   2.624   8.673
 1306POPC   D2A18796  25.198   2.525   8.315
 1306POPC   C3A18797  25.294   2.558   7.886
 1306POPC   C4A18798  25.510   2.754   7.552
 1306POPC   C1B18799  24.951   2.788   8.686
 1306POPC   C2B18800  24.746   2.766   8.304
 1306POPC   C3B18801  24.908   2.986   7.974
 1306POPC   C4B18802  25.012   2.880   7.552
 1307POPC   NC318803   1.257  27.931   9.456
 1307POPC   PO418804   1.523  27.269   9.467
 1307POPC   GL118805   1.293  27.541   9.124
 1307POPC   GL218806   1.024  27.828   9.013
 1307POPC   C1A18807   1.334  27.623   8.684
 1307POPC   D2A18808   1.505  27.492   8.330
 1307POPC   C3A18809   1.281  27.651   8.024
 1307POPC   C4A18810   1.432  27.514   7.663
 1307POPC   C1B18811   0.857  27.452   8.779
 1307POPC   C2B18812   0.813  27.285   8.342
 1307POPC   C3B18813   0.830  27.424   7.900
 1307POPC   C4B18814   0.930  27.807   7.667
 1308POPC   NC318815  44.479  43.918   9.550
 1308POPC   PO418816   0.024  43.690   9.379
 1308POPC   GL118817  44.732  43.907   9.086
 1308POPC   GL218818  44.404  44.125   9.086
 1308POPC   C1A18819  44.577  43.809   8.688
 1308POPC   D2A18820  44.741  43.888   8.306
 1308POPC   C3A18821  44.539  43.744   7.932
 1308POPC   C4A18822  44.754  43.808   7.537
 1308POPC   C1B18823  44.436  44.298   8.659
 1308POPC   C2B18824  44.375  44.207   8.200
 1308POPC   C3B18825  44.489  44.214   7.753
 1308POPC   C4B18826  44.315  44.010   7.374
 1309POPC   NC318827  16.543   3.255   9.470
 1309POPC   PO418828  16.760   3.896   9.575
 1309POPC   GL118829  16.834   3.736   9.118
 1309POPC   GL218830  16.624   3.448   8.975
 1309POPC   C1A18831  16.980   3.647   8.661
 1309POPC   D2A18832  16.740   3.466   8.329
 1309POPC   C3A18833  16.653   3.629   7.938
 1309POPC   C4A18834  16.472   3.615   7.542
 1309POPC   C1B18835  16.501   3.143   8.630
 1309POPC   C2B18836  16.250   3.100   8.290
 1309POPC   C3B18837  16.369   3.214   7.845
 1309POPC   C4B18838  16.502   3.122   7.396
 1310POPC   NC318839  28.931  35.637   9.576
 1310POPC   PO418840  29.338  35.033   9.535
 1310POPC   GL118841  29.103  35.021   9.185
 1310POPC   GL218842  28.722  34.957   9.221
 1310POPC   C1A18843  29.260  35.252   8.811
 1310POPC   D2A18844  29.173  35.603   8.501
 1310POPC   C3A18845  29.227  35.660   8.060
 1310POPC   C4A18846  28.967  35.610   7.706
 1310POPC   C1B18847  28.827  34.954   8.771
 1310POPC   C2B18848  29.035  35.093   8.400
 1310POPC   C3B18849  29.000  35.199   8.019
 1310POPC   C4B18850  29.057  34.981   7.649
 1311POPC   NC318851  27.216   7.350   9.326
 1311POPC   PO418852  27.779   7.117   9.684
 1311POPC   GL118853  27.801   7.276   9.228
 1311POPC   GL218854  27.594   7.586   9.085
 1311POPC   C1A18855  27.830   7.308   8.754
 1311POPC   D2A18856  27.668   7.670   8.526
 1311POPC   C3A18857  27.615   7.633   8.085
 1311POPC   C4A18858  27.641   7.570   7.662
 1311POPC   C1B18859  27.325   7.351   8.713
 1311POPC   C2B18860  27.164   7.404   8.308
 1311POPC   C3B18861  27.142   7.486   7.900
 1311POPC   C4B18862  27.155   7.568   7.483
 1312POPC   NC318863  32.558  13.592   9.619
 1312POPC   PO418864  33.107  13.827   9.570
 1312POPC   GL118865  33.065  13.532   9.212
 1312POPC   GL218866  32.804  13.276   9.200
 1312POPC   C1A18867  33.228  13.568   8.802
 1312POPC   D2A18868  33.468  13.763   8.466
 1312POPC   C3A18869  33.312  13.785   8.037
 1312POPC   C4A18870  33.019  13.921   7.729
 1312POPC   C1B18871  32.738  13.430   8.758
 1312POPC   C2B18872  32.943  13.542   8.336
 1312POPC   C3B18873  32.894  13.439   7.871
 1312POPC   C4B18874  32.946  13.476   7.402
 1313POPC   NC318875  13.868  32.147   9.698
 1313POPC   PO418876  13.362  32.346   9.332
 1313POPC   GL118877  13.597  32.234   9.010
 1313POPC   GL218878  13.875  32.294   9.165
 1313POPC   C1A18879  13.527  32.171   8.587
 1313POPC   D2A18880  13.663  32.387   8.221
 1313POPC   C3A18881  13.339  32.574   7.952
 1313POPC   C4A18882  13.314  32.565   7.441
 1313POPC   C1B18883  14.030  32.223   8.732
 1313POPC   C2B18884  13.959  31.986   8.353
 1313POPC   C3B18885  13.795  31.966   7.925
 1313POPC   C4B18886  14.071  32.065   7.581
 1314POPC   NC318887  25.684  10.308   9.379
 1314POPC   PO418888  25.963  10.854   9.419
 1314POPC   GL118889  26.048  10.545   9.095
 1314POPC   GL218890  25.722  10.571   8.931
 1314POPC   C1A18891  26.115  10.414   8.667
 1314POPC   D2A18892  26.122  10.660   8.298
 1314POPC   C3A18893  26.045  10.496   7.889
 1314POPC   C4A18894  25.942  10.756   7.565
 1314POPC   C1B18895  25.660  10.185   8.692
 1314POPC   C2B18896  25.845   9.990   8.319
 1314POPC   C3B18897  25.788  10.027   7.885
 1314POPC   C4B18898  25.631  10.335   7.606
 1315POPC   NC318899  35.078  10.432   9.483
 1315POPC   PO418900  35.711  10.905   9.583
 1315POPC   GL118901  35.340  10.833   9.295
 1315POPC   GL218902  35.422  10.542   9.094
 1315POPC   C1A18903  35.163  10.927   8.861
 1315POPC   D2A18904  35.161  11.059   8.387
 1315POPC   C3A18905  35.386  10.808   8.039
 1315POPC   C4A18906  35.433  10.756   7.578
 1315POPC   C1B18907  35.229  10.273   8.750
 1315POPC   C2B18908  35.256  10.096   8.311
 1315POPC   C3B18909  35.393  10.282   7.895
 1315POPC   C4B18910  35.813  10.305   7.705
 1316POPC   NC318911  33.996   4.097   9.597
 1316POPC   PO418912  33.593   4.671   9.579
 1316POPC   GL118913  33.618   4.385   9.217
 1316POPC   GL218914  33.963   4.377   9.160
 1316POPC   C1A18915  33.657   4.421   8.755
 1316POPC   D2A18916  33.608   4.629   8.350
 1316POPC   C3A18917  33.579   4.408   7.952
 1316POPC   C4A18918  33.855   4.541   7.637
 1316POPC   C1B18919  34.057   4.031   8.852
 1316POPC   C2B18920  33.980   3.797   8.449
 1316POPC   C3B18921  33.876   3.893   8.035
 1316POPC   C4B18922  33.968   4.041   7.636
 1317POPC   NC318923  17.634  39.719   9.541
 1317POPC   PO418924  17.287  40.297   9.572
 1317POPC   GL118925  17.582  40.193   9.276
 1317POPC   GL218926  17.295  40.165   9.083
 1317POPC   C1A18927  17.750  39.993   8.873
 1317POPC   D2A18928  17.509  39.725   8.577
 1317POPC   C3A18929  17.636  39.741   8.128
 1317POPC   C4A18930  17.559  39.819   7.702
 1317POPC   C1B18931  17.329  40.232   8.689
 1317POPC   C2B18932  17.454  40.152   8.310
 1317POPC   C3B18933  17.278  40.190   7.912
 1317POPC   C4B18934  17.508  40.288   7.534
 1318POPC   NC318935  30.187  25.817   9.530
 1318POPC   PO418936  30.976  25.721   9.532
 1318POPC   GL118937  30.642  25.658   9.240
 1318POPC   GL218938  30.568  26.011   9.138
 1318POPC   C1A18939  30.698  25.624   8.803
 1318POPC   D2A18940  30.763  25.960   8.507
 1318POPC   C3A18941  30.676  25.903   8.080
 1318POPC   C4A18942  30.833  25.980   7.655
 1318POPC   C1B18943  30.466  26.342   8.789
 1318POPC   C2B18944  30.377  26.298   8.323
 1318POPC   C3B18945  30.578  26.387   7.897
 1318POPC   C4B18946  30.559  26.666   7.506
 1319POPC   NC318947  19.435  32.356   9.399
 1319POPC   PO418948  20.088  32.207   9.449
 1319POPC   GL118949  19.872  32.087   9.081
 1319POPC   GL218950  19.508  32.032   9.007
 1319POPC   C1A18951  19.968  32.117   8.644
 1319POPC   D2A18952  19.876  32.046   8.221
 1319POPC   C3A18953  20.074  32.306   7.946
 1319POPC   C4A18954  20.245  31.999   7.671
 1319POPC   C1B18955  19.573  32.433   8.769
 1319POPC   C2B18956  19.710  32.507   8.367
 1319POPC   C3B18957  19.548  32.354   7.989
 1319POPC   C4B18958  19.662  32.025   7.745
 1320POPC   NC318959  36.614  25.137   9.718
 1320POPC   PO418960  35.927  25.099   9.481
 1320POPC   GL118961  35.983  25.086   9.070
 1320POPC   GL218962  36.336  25.050   9.149
 1320POPC   C1A18963  36.020  25.416   8.728
 1320POPC   D2A18964  36.078  25.294   8.329
 1320POPC   C3A18965  35.826  25.407   7.991
 1320POPC   C4A18966  36.017  25.304   7.619
 1320POPC   C1B18967  36.340  25.013   8.710
 1320POPC   C2B18968  36.529  24.974   8.337
 1320POPC   C3B18969  36.427  25.164   7.975
 1320POPC   C4B18970  36.443  24.941   7.641
 1321POPC   NC318971   7.228  33.644   9.738
 1321POPC   PO418972   7.685  34.047   9.486
 1321POPC   GL118973   7.353  33.761   9.244
 1321POPC   GL218974   7.278  34.025   9.026
 1321POPC   C1A18975   7.248  33.613   8.786
 1321POPC   D2A18976   7.265  33.856   8.395
 1321POPC   C3A18977   7.615  33.780   8.078
 1321POPC   C4A18978   7.703  33.625   7.643
 1321POPC   C1B18979   7.361  34.266   8.690
 1321POPC   C2B18980   7.537  34.262   8.296
 1321POPC   C3B18981   7.383  34.224   7.916
 1321POPC   C4B18982   7.322  34.044   7.538
 1322POPC   NC318983  30.408  17.341   9.309
 1322POPC   PO418984  31.079  17.515   9.500
 1322POPC   GL118985  30.839  17.499   9.106
 1322POPC   GL218986  30.583  17.780   9.081
 1322POPC   C1A18987  30.952  17.357   8.692
 1322POPC   D2A18988  30.990  17.079   8.333
 1322POPC   C3A18989  31.108  17.359   8.000
 1322POPC   C4A18990  31.287  17.267   7.603
 1322POPC   C1B18991  30.469  17.588   8.693
 1322POPC   C2B18992  30.645  17.455   8.283
 1322POPC   C3B18993  30.471  17.428   7.907
 1322POPC   C4B18994  30.445  17.358   7.482
 1323POPC   NC318995   3.798   3.267   9.599
 1323POPC   PO418996   3.306   3.723   9.399
 1323POPC   GL118997   3.386   3.600   9.061
 1323POPC   GL218998   3.580   3.340   9.154
 1323POPC   C1A18999   3.283   3.384   8.710
 1323POPC   D2A19000   3.147   3.551   8.350
 1323POPC   C3A19001   3.288   3.307   8.036
 1323POPC   C4A19002   3.483   3.541   7.753
 1323POPC   C1B19003   3.789   3.549   8.789
 1323POPC   C2B19004   3.688   3.456   8.385
 1323POPC   C3B19005   3.910   3.518   8.039
 1323POPC   C4B19006   3.939   3.363   7.643
 1324POPC   NC319007  21.544  18.373   9.592
 1324POPC   PO419008  21.258  17.892   9.406
 1324POPC   GL119009  21.158  18.246   9.153
 1324POPC   GL219010  21.445  18.484   9.097
 1324POPC   C1A19011  21.199  18.229   8.707
 1324POPC   D2A19012  21.358  18.147   8.307
 1324POPC   C3A19013  21.094  18.177   7.963
 1324POPC   C4A19014  21.301  18.148   7.603
 1324POPC   C1B19015  21.424  18.706   8.687
 1324POPC   C2B19016  21.455  18.637   8.284
 1324POPC   C3B19017  21.436  18.561   7.888
 1324POPC   C4B19018  21.151  18.637   7.611
 1325POPC   NC319019  41.472  31.095   9.887
 1325POPC   PO419020  41.607  30.452   9.607
 1325POPC   GL119021  41.578  30.382   9.200
 1325POPC   GL219022  41.286  30.178   9.152
 1325POPC   C1A19023  41.777  30.604   8.878
 1325POPC   D2A19024  41.605  30.804   8.512
 1325POPC   C3A19025  41.568  30.690   8.051
 1325POPC   C4A19026  41.382  30.739   7.601
 1325POPC   C1B19027  41.362  30.333   8.726
 1325POPC   C2B19028  41.318  30.262   8.288
 1325POPC   C3B19029  41.173  30.379   7.889
 1325POPC   C4B19030  41.122  30.317   7.422
 1326POPC   NC319031  15.845   2.765   9.653
 1326POPC   PO419032  16.432   2.803   9.410
 1326POPC   GL119033  16.017   2.677   9.180
 1326POPC   GL219034  16.147   2.407   9.079
 1326POPC   C1A19035  15.779   2.541   8.760
 1326POPC   D2A19036  15.948   2.669   8.348
 1326POPC   C3A19037  15.753   2.823   7.992
 1326POPC   C4A19038  15.606   3.024   7.634
 1326POPC   C1B19039  16.289   2.666   8.733
 1326POPC   C2B19040  16.463   2.602   8.359
 1326POPC   C3B19041  16.280   2.734   7.956
 1326POPC   C4B19042  16.110   2.838   7.556
 1327POPC   NC319043  39.119  27.935   9.610
 1327POPC   PO419044  39.090  28.590   9.579
 1327POPC   GL119045  39.204  28.497   9.146
 1327POPC   GL219046  39.389  28.805   9.126
 1327POPC   C1A19047  39.130  28.365   8.695
 1327POPC   D2A19048  39.324  28.473   8.268
 1327POPC   C3A19049  39.031  28.436   7.942
 1327POPC   C4A19050  39.005  28.024   7.800
 1327POPC   C1B19051  39.522  28.679   8.722
 1327POPC   C2B19052  39.554  28.924   8.327
 1327POPC   C3B19053  39.601  28.748   7.920
 1327POPC   C4B19054  39.485  28.346   7.728
 1328POPC   NC319055  37.298   6.564   9.511
 1328POPC   PO419056  36.644   6.810   9.558
 1328POPC   GL119057  36.837   6.542   9.236
 1328POPC   GL219058  37.039   6.825   9.140
 1328POPC   C1A19059  37.017   6.419   8.817
 1328POPC   D2A19060  37.356   6.518   8.505
 1328POPC   C3A19061  37.217   6.523   8.045
 1328POPC   C4A19062  36.898   6.485   7.679
 1328POPC   C1B19063  36.726   6.888   8.847
 1328POPC   C2B19064  36.724   6.991   8.428
 1328POPC   C3B19065  36.772   6.797   8.048
 1328POPC   C4B19066  36.590   6.898   7.660
 1329POPC   NC319067  31.854  32.386   9.302
 1329POPC   PO419068  31.288  32.025   9.553
 1329POPC   GL119069  31.493  32.098   9.125
 1329POPC   GL219070  31.797  31.927   9.013
 1329POPC   C1A19071  31.438  32.288   8.762
 1329POPC   D2A19072  31.516  32.401   8.364
 1329POPC   C3A19073  31.311  32.214   8.074
 1329POPC   C4A19074  31.448  32.342   7.685
 1329POPC   C1B19075  31.869  32.068   8.602
 1329POPC   C2B19076  31.778  31.976   8.208
 1329POPC   C3B19077  31.782  31.941   7.762
 1329POPC   C4B19078  31.617  31.922   7.361
 1330POPC   NC319079   2.588  35.992   9.602
 1330POPC   PO419080   3.254  36.082   9.570
 1330POPC   GL119081   2.933  36.013   9.226
 1330POPC   GL219082   2.556  36.139   9.132
 1330POPC   C1A19083   2.948  36.104   8.808
 1330POPC   D2A19084   3.104  36.229   8.443
 1330POPC   C3A19085   3.046  35.958   8.129
 1330POPC   C4A19086   3.097  36.071   7.722
 1330POPC   C1B19087   2.522  36.388   8.774
 1330POPC   C2B19088   2.603  36.244   8.391
 1330POPC   C3B19089   2.513  36.136   8.003
 1330POPC   C4B19090   2.634  36.266   7.596
 1331POPC   NC319091   7.098  22.012   9.444
 1331POPC   PO419092   6.582  22.385   9.638
 1331POPC   GL119093   6.648  22.145   9.240
 1331POPC   GL219094   6.445  21.872   9.143
 1331POPC   C1A19095   6.796  21.994   8.814
 1331POPC   D2A19096   6.988  21.883   8.424
 1331POPC   C3A19097   6.782  22.025   8.033
 1331POPC   C4A19098   6.681  22.183   7.650
 1331POPC   C1B19099   6.376  21.678   8.737
 1331POPC   C2B19100   6.403  21.854   8.301
 1331POPC   C3B19101   6.319  21.844   7.811
 1331POPC   C4B19102   6.353  21.980   7.313
 1332POPC   NC319103   4.754  19.555   9.351
 1332POPC   PO419104   5.301  19.890   9.295
 1332POPC   GL119105   5.048  19.714   8.963
 1332POPC   GL219106   5.113  19.780   8.638
 1332POPC   C1A19107   4.700  19.504   8.712
 1332POPC   D2A19108   4.722  19.625   8.304
 1332POPC   C3A19109   5.038  19.782   8.060
 1332POPC   C4A19110   4.901  19.844   7.628
 1332POPC   C1B19111   5.488  20.062   8.714
 1332POPC   C2B19112   5.705  20.145   8.387
 1332POPC   C3B19113   5.514  20.069   8.020
 1332POPC   C4B19114   5.322  20.089   7.643
 1333POPC   NC319115  18.286  15.373   9.346
 1333POPC   PO419116  18.146  16.019   9.676
 1333POPC   GL119117  18.443  16.051   9.194
 1333POPC   GL219118  18.592  15.737   9.137
 1333POPC   C1A19119  18.357  16.078   8.728
 1333POPC   D2A19120  18.105  15.985   8.326
 1333POPC   C3A19121  18.218  16.034   7.871
 1333POPC   C4A19122  18.358  15.793   7.509
 1333POPC   C1B19123  18.516  15.553   8.752
 1333POPC   C2B19124  18.570  15.745   8.397
 1333POPC   C3B19125  18.606  16.133   8.212
 1333POPC   C4B19126  18.730  15.942   7.829
 1334POPC   NC319127   1.582   4.474   9.300
 1334POPC   PO419128   1.126   4.238   9.778
 1334POPC   GL119129   1.167   4.187   9.269
 1334POPC   GL219130   1.104   4.452   9.021
 1334POPC   C1A19131   1.343   4.060   8.837
 1334POPC   D2A19132   1.100   4.219   8.486
 1334POPC   C3A19133   1.332   4.063   8.158
 1334POPC   C4A19134   1.359   4.152   7.743
 1334POPC   C1B19135   1.369   4.641   8.703
 1334POPC   C2B19136   1.191   4.756   8.315
 1334POPC   C3B19137   1.118   4.547   7.958
 1334POPC   C4B19138   1.337   4.680   7.642
 1335POPC   NC319139  13.441   7.140   9.818
 1335POPC   PO419140  13.749   7.646   9.537
 1335POPC   GL119141  13.542   7.492   9.218
 1335POPC   GL219142  13.383   7.201   9.294
 1335POPC   C1A19143  13.717   7.440   8.811
 1335POPC   D2A19144  13.733   7.615   8.415
 1335POPC   C3A19145  13.668   7.380   8.033
 1335POPC   C4A19146  13.479   7.661   7.773
 1335POPC   C1B19147  13.230   7.308   8.855
 1335POPC   C2B19148  13.349   7.217   8.420
 1335POPC   C3B19149  13.171   7.275   8.005
 1335POPC   C4B19150  13.283   7.238   7.550
 1336POPC   NC319151  27.486  36.321   9.481
 1336POPC   PO419152  27.494  35.635   9.592
 1336POPC   GL119153  27.541  35.885   9.152
 1336POPC   GL219154  27.272  36.117   9.073
 1336POPC   C1A19155  27.737  36.170   8.786
 1336POPC   D2A19156  27.590  36.505   8.483
 1336POPC   C3A19157  27.548  36.369   8.028
 1336POPC   C4A19158  27.892  36.311   7.739
 1336POPC   C1B19159  27.300  35.935   8.701
 1336POPC   C2B19160  27.417  35.810   8.314
 1336POPC   C3B19161  27.214  35.956   7.960
 1336POPC   C4B19162  27.284  36.038   7.543
 1337POPC   NC319163  36.463  27.782   9.408
 1337POPC   PO419164  35.753  27.782   9.418
 1337POPC   GL119165  35.988  27.478   9.133
 1337POPC   GL219166  36.303  27.536   9.013
 1337POPC   C1A19167  35.972  27.167   8.769
 1337POPC   D2A19168  35.778  27.226   8.366
 1337POPC   C3A19169  36.046  27.280   8.021
 1337POPC   C4A19170  35.956  27.218   7.578
 1337POPC   C1B19171  36.164  27.608   8.624
 1337POPC   C2B19172  35.981  27.749   8.271
 1337POPC   C3B19173  36.215  28.000   8.032
 1337POPC   C4B19174  36.379  28.013   7.627
 1338POPC   NC319175  31.356  24.711   9.589
 1338POPC   PO419176  31.743  24.225   9.635
 1338POPC   GL119177  31.691  24.504   9.240
 1338POPC   GL219178  31.332  24.655   9.098
 1338POPC   C1A19179  31.543  24.243   8.890
 1338POPC   D2A19180  31.447  24.202   8.468
 1338POPC   C3A19181  31.544  24.413   8.069
 1338POPC   C4A19182  31.725  24.291   7.643
 1338POPC   C1B19183  31.470  24.710   8.686
 1338POPC   C2B19184  31.423  24.910   8.317
 1338POPC   C3B19185  31.223  24.813   7.927
 1338POPC   C4B19186  31.569  24.779   7.661
 1339POPC   NC319187   0.021  13.374   9.357
 1339POPC   PO419188  44.854  13.999   9.377
 1339POPC   GL119189  44.923  13.770   9.032
 1339POPC   GL219190  44.602  13.594   9.131
 1339POPC   C1A19191   0.030  13.753   8.592
 1339POPC   D2A19192  44.839  14.010   8.333
 1339POPC   C3A19193  44.589  13.882   7.999
 1339POPC   C4A19194  44.914  13.850   7.740
 1339POPC   C1B19195  44.686  13.417   8.757
 1339POPC   C2B19196  44.646  13.495   8.346
 1339POPC   C3B19197  44.876  13.407   7.999
 1339POPC   C4B19198  44.622  13.455   7.638
 1340POPC   NC319199  42.539  18.600   9.446
 1340POPC   PO419200  42.311  19.270   9.491
 1340POPC   GL119201  42.180  19.199   9.093
 1340POPC   GL219202  42.422  18.959   9.072
 1340POPC   C1A19203  42.321  19.311   8.684
 1340POPC   D2A19204  42.412  19.202   8.278
 1340POPC   C3A19205  42.263  19.425   7.947
 1340POPC   C4A19206  42.345  19.290   7.553
 1340POPC   C1B19207  42.230  18.788   8.707
 1340POPC   C2B19208  42.354  18.664   8.290
 1340POPC   C3B19209  42.303  18.869   7.884
 1340POPC   C4B19210  42.124  18.851   7.474
 1341POPC   NC319211  20.101  44.160   9.607
 1341POPC   PO419212  20.526  43.675   9.650
 1341POPC   GL119213  20.703  43.796   9.211
 1341POPC   GL219214  20.491  44.137   9.171
 1341POPC   C1A19215  20.864  43.618   8.773
 1341POPC   D2A19216  20.904  43.820   8.327
 1341POPC   C3A19217  20.605  43.772   7.957
 1341POPC   C4A19218  20.389  43.393   7.729
 1341POPC   C1B19219  20.269  44.101   8.729
 1341POPC   C2B19220  20.244  44.078   8.224
 1341POPC   C3B19221  20.281  44.304   7.800
 1341POPC   C4B19222  20.208  44.293   7.325
 1342POPC   NC319223  12.281  15.292   9.570
 1342POPC   PO419224  11.756  14.919   9.483
 1342POPC   GL119225  11.970  14.949   9.091
 1342POPC   GL219226  12.238  15.228   9.064
 1342POPC   C1A19227  11.995  14.968   8.628
 1342POPC   D2A19228  12.201  15.309   8.407
 1342POPC   C3A19229  12.277  15.264   7.965
 1342POPC   C4A19230  11.902  15.063   7.713
 1342POPC   C1B19231  11.873  15.398   8.864
 1342POPC   C2B19232  11.695  15.416   8.458
 1342POPC   C3B19233  11.854  15.503   8.043
 1342POPC   C4B19234  12.019  15.523   7.573
 1343POPC   NC319235  29.137  41.056   9.291
 1343POPC   PO419236  29.659  40.748   9.412
 1343POPC   GL119237  29.367  40.559   9.111
 1343POPC   GL219238  29.000  40.561   9.168
 1343POPC   C1A19239  29.234  40.419   8.709
 1343POPC   D2A19240  29.355  40.741   8.435
 1343POPC   C3A19241  29.317  40.679   8.021
 1343POPC   C4A19242  29.378  41.033   7.744
 1343POPC   C1B19243  28.878  40.768   8.757
 1343POPC   C2B19244  28.841  40.656   8.341
 1343POPC   C3B19245  28.894  40.953   8.042
 1343POPC   C4B19246  28.958  40.748   7.645
 1344POPC   NC319247  20.567   5.260   9.633
 1344POPC   PO419248  20.513   4.632   9.377
 1344POPC   GL119249  20.616   4.965   9.088
 1344POPC   GL219250  20.503   5.299   9.128
 1344POPC   C1A19251  20.565   5.120   8.651
 1344POPC   D2A19252  20.318   5.209   8.297
 1344POPC   C3A19253  20.538   5.131   7.895
 1344POPC   C4A19254  20.850   4.806   7.797
 1344POPC   C1B19255  20.818   5.516   8.839
 1344POPC   C2B19256  20.941   5.331   8.378
 1344POPC   C3B19257  21.023   5.430   7.940
 1344POPC   C4B19258  21.138   5.662   7.532
 1345POPC   NC319259  43.495  26.423   9.526
 1345POPC   PO419260  43.928  26.930   9.769
 1345POPC   GL119261  43.896  26.760   9.322
 1345POPC   GL219262  43.599  26.881   9.272
 1345POPC   C1A19263  44.050  26.840   8.884
 1345POPC   D2A19264  44.022  27.076   8.492
 1345POPC   C3A19265  44.187  27.005   8.062
 1345POPC   C4A19266  44.301  27.039   7.622
 1345POPC   C1B19267  43.590  26.622   8.896
 1345POPC   C2B19268  43.757  26.633   8.493
 1345POPC   C3B19269  43.680  26.891   8.130
 1345POPC   C4B19270  43.876  26.773   7.743
 1346POPC   NC319271  27.454  43.805   9.582
 1346POPC   PO419272  27.896  44.356   9.456
 1346POPC   GL119273  27.660  44.189   9.127
 1346POPC   GL219274  27.353  44.061   9.147
 1346POPC   C1A19275  27.606  43.979   8.694
 1346POPC   D2A19276  27.446  44.081   8.304
 1346POPC   C3A19277  27.674  44.120   7.929
 1346POPC   C4A19278  27.494  44.141   7.503
 1346POPC   C1B19279  27.402  43.612   8.960
 1346POPC   C2B19280  27.618  43.439   8.584
 1346POPC   C3B19281  27.607  43.593   8.146
 1346POPC   C4B19282  27.543  43.683   7.705
 1347POPC   NC319283   7.100   1.855   9.402
 1347POPC   PO419284   7.730   1.956   9.547
 1347POPC   GL119285   7.709   1.996   9.154
 1347POPC   GL219286   7.391   2.160   9.118
 1347POPC   C1A19287   7.546   1.781   8.793
 1347POPC   D2A19288   7.203   1.711   8.482
 1347POPC   C3A19289   7.394   1.710   8.073
 1347POPC   C4A19290   7.731   1.804   7.788
 1347POPC   C1B19291   7.009   2.268   8.884
 1347POPC   C2B19292   6.926   2.215   8.462
 1347POPC   C3B19293   7.277   2.202   8.240
 1347POPC   C4B19294   7.326   2.202   7.813
 1348POPC   NC319295  37.549  37.617   9.760
 1348POPC   PO419296  37.978  37.972   9.531
 1348POPC   GL119297  37.936  37.671   9.216
 1348POPC   GL219298  37.584  37.570   9.204
 1348POPC   C1A19299  37.806  37.854   8.820
 1348POPC   D2A19300  37.441  37.874   8.567
 1348POPC   C3A19301  37.605  37.962   8.188
 1348POPC   C4A19302  37.834  37.953   7.822
 1348POPC   C1B19303  37.555  37.407   8.786
 1348POPC   C2B19304  37.522  37.438   8.316
 1348POPC   C3B19305  37.662  37.499   7.921
 1348POPC   C4B19306  37.638  37.611   7.495
 1349POPC   NC319307  22.116  20.977   9.395
 1349POPC   PO419308  22.039  20.368   9.561
 1349POPC   GL119309  21.955  20.529   9.172
 1349POPC   GL219310  22.297  20.610   9.091
 1349POPC   C1A19311  21.897  20.629   8.730
 1349POPC   D2A19312  21.714  20.647   8.298
 1349POPC   C3A19313  22.023  20.679   7.964
 1349POPC   C4A19314  22.002  20.743   7.517
 1349POPC   C1B19315  22.378  20.895   8.747
 1349POPC   C2B19316  22.415  20.669   8.372
 1349POPC   C3B19317  22.653  20.580   8.041
 1349POPC   C4B19318  22.431  20.503   7.664
 1350POPC   NC319319  29.500  23.414   9.488
 1350POPC   PO419320  29.056  23.945   9.537
 1350POPC   GL119321  29.192  23.699   9.170
 1350POPC   GL219322  28.955  23.427   9.087
 1350POPC   C1A19323  29.271  23.591   8.725
 1350POPC   D2A19324  29.249  23.754   8.324
 1350POPC   C3A19325  29.522  23.654   7.990
 1350POPC   C4A19326  29.341  23.756   7.607
 1350POPC   C1B19327  28.792  23.398   8.701
 1350POPC   C2B19328  29.028  23.290   8.360
 1350POPC   C3B19329  29.036  23.452   7.957
 1350POPC   C4B19330  28.796  23.613   7.613
 1351POPC   NC319331  18.087  39.245   9.453
 1351POPC   PO419332  18.785  39.177   9.450
 1351POPC   GL119333  18.503  39.126   9.157
 1351POPC   GL219334  18.468  39.483   9.106
 1351POPC   C1A19335  18.295  38.933   8.830
 1351POPC   D2A19336  18.073  39.152   8.530
 1351POPC   C3A19337  18.169  39.136   8.090
 1351POPC   C4A19338  18.225  39.256   7.664
 1351POPC   C1B19339  18.690  39.351   8.707
 1351POPC   C2B19340  18.569  39.478   8.272
 1351POPC   C3B19341  18.574  39.566   7.798
 1351POPC   C4B19342  18.370  39.613   7.332
 1352POPC   NC319343   5.620  39.004   9.468
 1352POPC   PO419344   5.130  39.465   9.445
 1352POPC   GL119345   5.267  39.212   9.097
 1352POPC   GL219346   5.103  38.875   9.103
 1352POPC   C1A19347   5.050  39.344   8.721
 1352POPC   D2A19348   5.039  39.683   8.421
 1352POPC   C3A19349   5.087  39.564   8.004
 1352POPC   C4A19350   5.029  39.345   7.631
 1352POPC   C1B19351   5.274  38.882   8.675
 1352POPC   C2B19352   5.359  39.180   8.339
 1352POPC   C3B19353   5.249  39.029   7.954
 1352POPC   C4B19354   5.410  38.968   7.566
 1353POPC   NC319355  40.082  21.863   9.576
 1353POPC   PO419356  39.975  22.395   9.367
 1353POPC   GL119357  40.114  22.108   9.106
 1353POPC   GL219358  39.819  21.879   9.143
 1353POPC   C1A19359  40.123  22.200   8.663
 1353POPC   D2A19360  39.907  22.095   8.286
 1353POPC   C3A19361  40.026  22.239   7.921
 1353POPC   C4A19362  39.758  22.372   7.635
 1353POPC   C1B19363  39.727  21.887   8.727
 1353POPC   C2B19364  39.819  21.616   8.378
 1353POPC   C3B19365  39.709  21.691   7.968
 1353POPC   C4B19366  39.898  21.849   7.635
 1354POPC   NC319367  17.923  27.295   9.529
 1354POPC   PO419368  17.394  27.646   9.453
 1354POPC   GL119369  17.611  27.512   9.135
 1354POPC   GL219370  17.693  27.832   9.065
 1354POPC   C1A19371  17.593  27.342   8.733
 1354POPC   D2A19372  17.708  27.022   8.419
 1354POPC   C3A19373  17.699  27.160   7.985
 1354POPC   C4A19374  17.418  27.228   7.622
 1354POPC   C1B19375  17.379  27.855   8.738
 1354POPC   C2B19376  17.367  27.943   8.309
 1354POPC   C3B19377  17.442  27.659   7.952
 1354POPC   C4B19378  17.841  27.573   7.703
 1355POPC   NC319379  11.222  11.498   9.498
 1355POPC   PO419380  11.325  10.810   9.612
 1355POPC   GL119381  11.273  11.049   9.214
 1355POPC   GL219382  10.939  11.171   9.195
 1355POPC   C1A19383  11.434  11.079   8.773
 1355POPC   D2A19384  11.579  11.411   8.496
 1355POPC   C3A19385  11.406  11.345   8.083
 1355POPC   C4A19386  11.238  11.227   7.699
 1355POPC   C1B19387  10.936  10.996   8.776
 1355POPC   C2B19388  11.012  11.086   8.323
 1355POPC   C3B19389  10.791  11.018   7.909
 1355POPC   C4B19390  10.897  10.926   7.458
 1356POPC   NC319391  10.493  27.808   9.498
 1356POPC   PO419392  10.937  27.300   9.326
 1356POPC   GL119393  10.669  27.555   9.066
 1356POPC   GL219394  10.361  27.770   9.021
 1356POPC   C1A19395  10.655  27.494   8.640
 1356POPC   D2A19396  10.796  27.738   8.341
 1356POPC   C3A19397  10.543  27.800   8.053
 1356POPC   C4A19398  10.722  27.654   7.697
 1356POPC   C1B19399  10.212  27.784   8.612
 1356POPC   C2B19400  10.053  27.859   8.195
 1356POPC   C3B19401  10.132  27.685   7.766
 1356POPC   C4B19402  10.094  27.413   7.375
 1357POPC   NC319403  44.915  41.727   9.622
 1357POPC   PO419404   0.135  41.135   9.530
 1357POPC   GL119405  44.806  41.178   9.201
 1357POPC   GL219406  44.766  41.552   9.126
 1357POPC   C1A19407  44.595  41.225   8.777
 1357POPC   D2A19408  44.788  41.403   8.414
 1357POPC   C3A19409  44.759  41.352   7.989
 1357POPC   C4A19410  44.993  41.486   7.634
 1357POPC   C1B19411  44.757  41.793   8.712
 1357POPC   C2B19412  44.575  41.874   8.304
 1357POPC   C3B19413  44.790  41.917   7.899
 1357POPC   C4B19414  44.813  42.115   7.478
 1358POPC   NC319415  20.320  35.175   9.424
 1358POPC   PO419416  20.632  35.671   9.774
 1358POPC   GL119417  20.603  35.574   9.254
 1358POPC   GL219418  20.435  35.361   8.988
 1358POPC   C1A19419  20.710  35.712   8.782
 1358POPC   D2A19420  20.881  35.582   8.357
 1358POPC   C3A19421  20.597  35.525   8.034
 1358POPC   C4A19422  20.520  35.608   7.637
 1358POPC   C1B19423  20.485  35.052   8.693
 1358POPC   C2B19424  20.641  35.090   8.319
 1358POPC   C3B19425  20.543  35.011   7.915
 1358POPC   C4B19426  20.744  35.085   7.559
 1359POPC   NC319427  20.150  17.816   9.465
 1359POPC   PO419428  19.923  18.454   9.417
 1359POPC   GL119429  19.795  18.191   9.091
 1359POPC   GL219430  19.521  18.417   9.013
 1359POPC   C1A19431  19.927  18.108   8.692
 1359POPC   D2A19432  20.241  18.295   8.418
 1359POPC   C3A19433  20.080  18.287   8.007
 1359POPC   C4A19434  20.082  18.377   7.573
 1359POPC   C1B19435  19.434  18.201   8.621
 1359POPC   C2B19436  19.696  18.424   8.330
 1359POPC   C3B19437  19.644  18.523   7.908
 1359POPC   C4B19438  19.558  18.094   7.783
 1360POPC   NC319439  24.137  30.021   9.270
 1360POPC   PO419440  24.188  30.583   9.740
 1360POPC   GL119441  24.220  30.577   9.258
 1360POPC   GL219442  24.087  30.902   9.204
 1360POPC   C1A19443  24.324  30.436   8.801
 1360POPC   D2A19444  24.461  30.658   8.415
 1360POPC   C3A19445  24.514  30.501   8.011
 1360POPC   C4A19446  24.722  30.558   7.639
 1360POPC   C1B19447  24.352  30.949   8.828
 1360POPC   C2B19448  24.439  31.201   8.456
 1360POPC   C3B19449  24.497  31.040   8.066
 1360POPC   C4B19450  24.386  30.910   7.703
 1361POPC   NC319451  31.590  13.621   9.651
 1361POPC   PO419452  30.987  13.611   9.483
 1361POPC   GL119453  31.223  13.746   9.156
 1361POPC   GL219454  31.442  13.476   9.165
 1361POPC   C1A19455  31.380  13.732   8.713
 1361POPC   D2A19456  31.408  13.386   8.409
 1361POPC   C3A19457  31.299  13.536   7.966
 1361POPC   C4A19458  31.343  13.887   7.709
 1361POPC   C1B19459  31.733  13.389   8.841
 1361POPC   C2B19460  31.906  13.618   8.505
 1361POPC   C3B19461  31.719  13.747   8.150
 1361POPC   C4B19462  31.790  13.579   7.763
 1362POPC   NC319463   1.739  15.315   9.508
 1362POPC   PO419464   2.321  14.920   9.482
 1362POPC   GL119465   2.103  15.152   9.173
 1362POPC   GL219466   1.821  14.923   9.179
 1362POPC   C1A19467   1.943  15.326   8.779
 1362POPC   D2A19468   2.131  15.396   8.372
 1362POPC   C3A19469   1.856  15.543   8.054
 1362POPC   C4A19470   1.979  15.607   7.638
 1362POPC   C1B19471   2.038  14.832   8.788
 1362POPC   C2B19472   2.009  14.834   8.355
 1362POPC   C3B19473   1.765  14.767   8.008
 1362POPC   C4B19474   1.875  15.114   7.770
 1363POPC   NC319475   5.301  23.111   9.538
 1363POPC   PO419476   5.069  22.589   9.448
 1363POPC   GL119477   5.365  22.747   9.177
 1363POPC   GL219478   5.456  22.477   9.035
 1363POPC   C1A19479   5.441  22.998   8.776
 1363POPC   D2A19480   5.404  23.268   8.374
 1363POPC   C3A19481   5.321  23.095   7.954
 1363POPC   C4A19482   4.866  23.106   7.812
 1363POPC   C1B19483   5.150  22.546   8.734
 1363POPC   C2B19484   5.193  22.742   8.336
 1363POPC   C3B19485   5.076  22.627   7.921
 1363POPC   C4B19486   5.376  22.544   7.627
 1364POPC   NC319487   3.032   3.357   9.344
 1364POPC   PO419488   2.325   3.535   9.349
 1364POPC   GL119489   2.647   3.643   9.087
 1364POPC   GL219490   2.867   3.909   9.239
 1364POPC   C1A19491   2.745   3.436   8.678
 1364POPC   D2A19492   2.603   3.472   8.253
 1364POPC   C3A19493   2.829   3.500   7.861
 1364POPC   C4A19494   3.069   3.256   7.563
 1364POPC   C1B19495   2.994   3.852   8.802
 1364POPC   C2B19496   2.793   3.914   8.435
 1364POPC   C3B19497   3.004   3.931   8.028
 1364POPC   C4B19498   2.765   4.019   7.655
 1365POPC   NC319499  32.781  19.332   9.585
 1365POPC   PO419500  33.193  18.740   9.399
 1365POPC   GL119501  32.972  18.795   9.018
 1365POPC   GL219502  32.758  19.063   9.125
 1365POPC   C1A19503  33.033  19.055   8.645
 1365POPC   D2A19504  33.201  19.089   8.219
 1365POPC   C3A19505  33.011  18.848   7.885
 1365POPC   C4A19506  33.188  18.852   7.431
 1365POPC   C1B19507  32.620  19.347   8.797
 1365POPC   C2B19508  32.770  19.486   8.388
 1365POPC   C3B19509  32.855  19.389   7.961
 1365POPC   C4B19510  33.203  19.272   7.718
 1366POPC   NC319511  38.776  33.815   9.612
 1366POPC   PO419512  39.433  33.911   9.667
 1366POPC   GL119513  39.219  33.863   9.259
 1366POPC   GL219514  39.510  34.017   9.145
 1366POPC   C1A19515  39.074  33.988   8.808
 1366POPC   D2A19516  38.993  33.701   8.470
 1366POPC   C3A19517  38.996  33.719   8.020
 1366POPC   C4A19518  38.826  33.684   7.605
 1366POPC   C1B19519  39.516  33.742   8.782
 1366POPC   C2B19520  39.462  33.900   8.356
 1366POPC   C3B19521  39.493  33.596   8.047
 1366POPC   C4B19522  39.326  33.553   7.642
 1367POPC   NC319523  30.990  32.407   9.533
 1367POPC   PO419524  30.560  31.842   9.512
 1367POPC   GL119525  30.650  32.168   9.191
 1367POPC   GL219526  30.999  32.205   9.086
 1367POPC   C1A19527  30.593  32.381   8.785
 1367POPC   D2A19528  30.795  32.318   8.362
 1367POPC   C3A19529  30.508  32.313   8.005
 1367POPC   C4A19530  30.414  32.294   7.536
 1367POPC   C1B19531  30.944  31.987   8.742
 1367POPC   C2B19532  31.028  31.845   8.345
 1367POPC   C3B19533  30.824  31.896   7.976
 1367POPC   C4B19534  30.930  32.288   7.737
 1368POPC   NC319535  35.095   9.279   9.350
 1368POPC   PO419536  35.379   8.654   9.469
 1368POPC   GL119537  35.333   8.879   9.119
 1368POPC   GL219538  35.043   8.748   9.017
 1368POPC   C1A19539  35.474   9.126   8.770
 1368POPC   D2A19540  35.642   8.931   8.410
 1368POPC   C3A19541  35.458   8.909   8.008
 1368POPC   C4A19542  35.694   8.610   7.797
 1368POPC   C1B19543  34.966   9.053   8.703
 1368POPC   C2B19544  34.779   9.010   8.323
 1368POPC   C3B19545  34.927   8.875   7.954
 1368POPC   C4B19546  35.099   9.159   7.668
 1369POPC   NC319547  35.417   3.215   9.297
 1369POPC   PO419548  35.743   3.843   9.181
 1369POPC   GL119549  35.364   3.655   9.025
 1369POPC   GL219550  35.091   3.893   9.060
 1369POPC   C1A19551  35.318   3.442   8.618
 1369POPC   D2A19552  35.402   3.641   8.223
 1369POPC   C3A19553  35.280   3.411   7.880
 1369POPC   C4A19554  35.482   3.427   7.485
 1369POPC   C1B19555  34.912   3.719   8.715
 1369POPC   C2B19556  34.894   3.571   8.323
 1369POPC   C3B19557  34.942   3.795   7.983
 1369POPC   C4B19558  34.861   3.747   7.595
 1370POPC   NC319559  35.112   7.362   9.369
 1370POPC   PO419560  35.707   7.557   9.437
 1370POPC   GL119561  35.494   7.588   9.044
 1370POPC   GL219562  35.152   7.738   9.016
 1370POPC   C1A19563  35.384   7.453   8.633
 1370POPC   D2A19564  35.380   7.099   8.385
 1370POPC   C3A19565  35.487   7.108   7.973
 1370POPC   C4A19566  35.387   7.069   7.530
 1370POPC   C1B19567  34.898   7.672   8.626
 1370POPC   C2B19568  35.006   7.663   8.177
 1370POPC   C3B19569  35.095   7.415   7.820
 1370POPC   C4B19570  35.161   7.488   7.384
 1371POPC   NC319571  25.830  30.011   9.511
 1371POPC   PO419572  25.938  30.711   9.547
 1371POPC   GL119573  25.985  30.652   9.125
 1371POPC   GL219574  25.830  30.377   9.148
 1371POPC   C1A19575  25.993  30.758   8.690
 1371POPC   D2A19576  26.224  30.983   8.360
 1371POPC   C3A19577  26.069  30.773   8.022
 1371POPC   C4A19578  25.764  30.921   7.754
 1371POPC   C1B19579  25.916  30.187   8.765
 1371POPC   C2B19580  26.034  30.299   8.373
 1371POPC   C3B19581  25.945  30.189   7.990
 1371POPC   C4B19582  25.833  30.423   7.701
 1372POPC   NC319583  14.795  34.485   9.644
 1372POPC   PO419584  14.151  34.718   9.487
 1372POPC   GL119585  14.485  34.730   9.209
 1372POPC   GL219586  14.796  34.894   9.301
 1372POPC   C1A19587  14.357  34.778   8.786
 1372POPC   D2A19588  14.124  34.577   8.453
 1372POPC   C3A19589  14.291  34.680   8.051
 1372POPC   C4A19590  14.416  34.423   7.723
 1372POPC   C1B19591  14.863  34.591   8.911
 1372POPC   C2B19592  14.691  34.587   8.465
 1372POPC   C3B19593  14.815  34.517   8.047
 1372POPC   C4B19594  14.756  34.786   7.687
 1373POPC   NC319595  40.004   4.052   9.831
 1373POPC   PO419596  40.032   3.428   9.451
 1373POPC   GL119597  40.166   3.683   9.106
 1373POPC   GL219598  40.305   4.023   9.189
 1373POPC   C1A19599  40.045   3.478   8.717
 1373POPC   D2A19600  39.646   3.415   8.487
 1373POPC   C3A19601  39.714   3.281   8.067
 1373POPC   C4A19602  40.133   3.108   7.908
 1373POPC   C1B19603  40.208   4.031   8.724
 1373POPC   C2B19604  39.899   3.866   8.421
 1373POPC   C3B19605  39.989   3.722   7.986
 1373POPC   C4B19606  40.013   3.882   7.567
 1374POPC   NC319607  14.933  36.758   9.389
 1374POPC   PO419608  15.447  37.206   9.393
 1374POPC   GL119609  15.169  37.105   9.092
 1374POPC   GL219610  15.374  36.797   9.068
 1374POPC   C1A19611  14.945  37.034   8.709
 1374POPC   D2A19612  15.220  36.965   8.345
 1374POPC   C3A19613  15.100  37.145   7.960
 1374POPC   C4A19614  15.106  37.033   7.531
 1374POPC   C1B19615  15.215  36.601   8.719
 1374POPC   C2B19616  15.114  36.464   8.300
 1374POPC   C3B19617  15.125  36.644   7.915
 1374POPC   C4B19618  14.704  36.701   7.831
 1375POPC   NC319619  15.136  40.255   9.510
 1375POPC   PO419620  14.986  39.603   9.303
 1375POPC   GL119621  15.019  39.955   9.103
 1375POPC   GL219622  15.339  39.982   9.105
 1375POPC   C1A19623  15.044  40.156   8.715
 1375POPC   D2A19624  14.797  40.110   8.361
 1375POPC   C3A19625  14.748  40.396   8.048
 1375POPC   C4A19626  14.881  40.095   7.774
 1375POPC   C1B19627  15.369  39.709   8.784
 1375POPC   C2B19628  15.226  39.809   8.399
 1375POPC   C3B19629  15.261  40.154   8.146
 1375POPC   C4B19630  15.415  40.068   7.743
 1376POPC   NC319631   5.061  18.632   9.585
 1376POPC   PO419632   5.029  19.292   9.617
 1376POPC   GL119633   5.151  19.248   9.144
 1376POPC   GL219634   5.422  19.044   9.049
 1376POPC   C1A19635   5.133  19.230   8.658
 1376POPC   D2A19636   4.792  19.104   8.357
 1376POPC   C3A19637   4.862  19.281   7.954
 1376POPC   C4A19638   5.225  19.449   7.742
 1376POPC   C1B19639   5.221  18.733   8.799
 1376POPC   C2B19640   5.326  18.697   8.384
 1376POPC   C3B19641   5.297  19.044   8.105
 1376POPC   C4B19642   5.147  18.930   7.700
 1377POPC   NC319643   4.499   5.455   9.510
 1377POPC   PO419644   4.050   4.960   9.426
 1377POPC   GL119645   4.272   4.946   9.045
 1377POPC   GL219646   4.449   5.227   9.060
 1377POPC   C1A19647   4.280   4.991   8.621
 1377POPC   D2A19648   4.203   5.195   8.290
 1377POPC   C3A19649   4.325   4.955   7.961
 1377POPC   C4A19650   4.226   5.303   7.751
 1377POPC   C1B19651   4.712   5.214   8.703
 1377POPC   C2B19652   4.720   5.029   8.289
 1377POPC   C3B19653   4.777   5.165   7.843
 1377POPC   C4B19654   4.574   5.063   7.455
 1378POPC   NC319655  15.167  33.569   9.708
 1378POPC   PO419656  14.806  34.073   9.439
 1378POPC   GL119657  15.232  34.009   9.243
 1378POPC   GL219658  15.345  33.637   9.200
 1378POPC   C1A19659  15.209  33.940   8.785
 1378POPC   D2A19660  15.083  33.808   8.381
 1378POPC   C3A19661  15.107  34.091   8.008
 1378POPC   C4A19662  14.876  34.242   7.605
 1378POPC   C1B19663  15.178  33.420   8.791
 1378POPC   C2B19664  15.188  33.312   8.334
 1378POPC   C3B19665  15.115  33.536   7.932
 1378POPC   C4B19666  15.241  33.681   7.506
 1379POPC   NC319667  16.832  15.496   9.732
 1379POPC   PO419668  16.536  14.986   9.541
 1379POPC   GL119669  16.685  15.111   9.177
 1379POPC   GL219670  16.359  15.045   9.037
 1379POPC   C1A19671  16.869  15.197   8.788
 1379POPC   D2A19672  17.008  14.922   8.492
 1379POPC   C3A19673  17.018  15.028   8.067
 1379POPC   C4A19674  16.913  14.942   7.656
 1379POPC   C1B19675  16.387  15.300   8.669
 1379POPC   C2B19676  16.621  15.259   8.290
 1379POPC   C3B19677  16.655  15.373   7.844
 1379POPC   C4B19678  16.522  15.713   7.528
 1380POPC   NC319679  18.190  12.515   9.590
 1380POPC   PO419680  18.334  11.895   9.549
 1380POPC   GL119681  18.416  12.122   9.205
 1380POPC   GL219682  18.607  11.892   9.026
 1380POPC   C1A19683  18.269  12.253   8.806
 1380POPC   D2A19684  18.341  12.076   8.413
 1380POPC   C3A19685  18.025  12.112   8.143
 1380POPC   C4A19686  18.029  12.387   7.840
 1380POPC   C1B19687  18.779  12.146   8.692
 1380POPC   C2B19688  18.835  11.948   8.312
 1380POPC   C3B19689  18.554  11.872   7.987
 1380POPC   C4B19690  18.260  11.968   7.669
 1381POPC   NC319691  40.601  33.800   9.569
 1381POPC   PO419692  41.271  33.623   9.551
 1381POPC   GL119693  40.983  33.884   9.214
 1381POPC   GL219694  40.600  33.932   9.086
 1381POPC   C1A19695  40.988  34.067   8.794
 1381POPC   D2A19696  41.145  33.904   8.416
 1381POPC   C3A19697  40.934  34.058   8.056
 1381POPC   C4A19698  40.912  33.872   7.683
 1381POPC   C1B19699  40.742  33.630   8.765
 1381POPC   C2B19700  40.687  33.605   8.305
 1381POPC   C3B19701  40.472  33.737   7.920
 1381POPC   C4B19702  40.309  33.483   7.562
 1382POPC   NC319703  10.916  14.712   9.446
 1382POPC   PO419704  11.380  14.340   9.749
 1382POPC   GL119705  11.452  14.493   9.324
 1382POPC   GL219706  11.599  14.186   9.205
 1382POPC   C1A19707  11.431  14.535   8.845
 1382POPC   D2A19708  11.616  14.480   8.400
 1382POPC   C3A19709  11.380  14.688   8.045
 1382POPC   C4A19710  10.967  14.647   7.826
 1382POPC   C1B19711  11.588  14.027   8.762
 1382POPC   C2B19712  11.323  14.032   8.380
 1382POPC   C3B19713  11.208  14.199   7.981
 1382POPC   C4B19714  11.477  14.362   7.668
 1383POPC   NC319715  12.734   7.009   9.569
 1383POPC   PO419716  13.160   7.502   9.695
 1383POPC   GL119717  13.007   7.555   9.263
 1383POPC   GL219718  12.900   7.875   9.233
 1383POPC   C1A19719  12.771   7.519   8.850
 1383POPC   D2A19720  12.819   7.296   8.452
 1383POPC   C3A19721  12.640   7.338   8.038
 1383POPC   C4A19722  12.792   7.092   7.695
 1383POPC   C1B19723  13.149   7.878   8.856
 1383POPC   C2B19724  13.163   7.682   8.457
 1383POPC   C3B19725  12.975   7.747   8.059
 1383POPC   C4B19726  12.936   7.597   7.667
 1384POPC   NC319727  27.865  27.376   9.598
 1384POPC   PO419728  27.315  27.736   9.501
 1384POPC   GL119729  27.496  27.835   9.138
 1384POPC   GL219730  27.635  27.539   9.159
 1384POPC   C1A19731  27.412  27.678   8.713
 1384POPC   D2A19732  27.568  27.778   8.301
 1384POPC   C3A19733  27.474  27.833   7.850
 1384POPC   C4A19734  27.587  27.848   7.401
 1384POPC   C1B19735  27.783  27.301   8.818
 1384POPC   C2B19736  27.662  27.266   8.413
 1384POPC   C3B19737  27.784  27.394   8.020
 1384POPC   C4B19738  27.650  27.391   7.601
 1385POPC   NC319739  41.539   8.629   9.546
 1385POPC   PO419740  41.868   9.283   9.587
 1385POPC   GL119741  41.589   9.063   9.274
 1385POPC   GL219742  41.776   8.797   9.137
 1385POPC   C1A19743  41.449   9.002   8.829
 1385POPC   D2A19744  41.487   9.186   8.444
 1385POPC   C3A19745  41.448   8.983   8.039
 1385POPC   C4A19746  41.171   9.181   7.767
 1385POPC   C1B19747  41.976   8.825   8.761
 1385POPC   C2B19748  41.831   8.804   8.353
 1385POPC   C3B19749  41.949   9.067   8.005
 1385POPC   C4B19750  41.787   8.998   7.585
 1386POPC   NC319751   0.349  20.020   9.522
 1386POPC   PO419752   0.310  20.720   9.547
 1386POPC   GL119753   0.307  20.608   9.139
 1386POPC   GL219754   0.527  20.332   9.131
 1386POPC   C1A19755   0.197  20.812   8.744
 1386POPC   D2A19756   0.349  20.645   8.376
 1386POPC   C3A19757   0.214  20.699   7.977
 1386POPC   C4A19758   0.671  20.789   7.895
 1386POPC   C1B19759   0.712  20.465   8.725
 1386POPC   C2B19760   0.788  20.327   8.294
 1386POPC   C3B19761   0.535  20.287   7.912
 1386POPC   C4B19762   0.260  20.383   7.549
 1387POPC   NC319763  41.890   5.651   9.375
 1387POPC   PO419764  41.381   6.061   9.575
 1387POPC   GL119765  41.572   6.005   9.172
 1387POPC   GL219766  41.296   5.872   9.017
 1387POPC   C1A19767  41.764   5.898   8.756
 1387POPC   D2A19768  41.702   6.047   8.335
 1387POPC   C3A19769  41.617   5.812   7.972
 1387POPC   C4A19770  41.350   6.081   7.763
 1387POPC   C1B19771  41.293   5.703   8.651
 1387POPC   C2B19772  41.309   5.530   8.273
 1387POPC   C3B19773  41.105   5.666   7.920
 1387POPC   C4B19774  41.265   5.642   7.541
 1388POPC   NC319775  29.232  25.625   9.758
 1388POPC   PO419776  29.169  26.298   9.494
 1388POPC   GL119777  29.065  26.090   9.106
 1388POPC   GL219778  28.886  25.770   9.104
 1388POPC   C1A19779  29.156  26.045   8.680
 1388POPC   D2A19780  28.968  25.957   8.297
 1388POPC   C3A19781  29.275  26.089   8.060
 1388POPC   C4A19782  29.333  26.210   7.671
 1388POPC   C1B19783  28.660  25.926   8.739
 1388POPC   C2B19784  28.541  26.220   8.413
 1388POPC   C3B19785  28.546  26.069   8.033
 1388POPC   C4B19786  28.843  25.968   7.752
 1389POPC   NC319787  23.896   5.456   9.694
 1389POPC   PO419788  23.974   6.047   9.364
 1389POPC   GL119789  23.656   5.940   9.061
 1389POPC   GL219790  23.645   5.596   9.195
 1389POPC   C1A19791  23.657   5.928   8.582
 1389POPC   D2A19792  23.932   5.753   8.244
 1389POPC   C3A19793  23.762   5.849   7.859
 1389POPC   C4A19794  23.385   6.127   7.850
 1389POPC   C1B19795  23.509   5.476   8.777
 1389POPC   C2B19796  23.403   5.470   8.321
 1389POPC   C3B19797  23.680   5.352   7.969
 1389POPC   C4B19798  24.090   5.441   7.830
 1390POPC   NC319799  20.928  14.933   9.503
 1390POPC   PO419800  20.701  15.572   9.643
 1390POPC   GL119801  20.673  15.358   9.227
 1390POPC   GL219802  20.887  15.525   9.004
 1390POPC   C1A19803  20.788  15.018   8.890
 1390POPC   D2A19804  20.874  14.882   8.456
 1390POPC   C3A19805  20.607  15.014   8.121
 1390POPC   C4A19806  20.304  14.902   7.790
 1390POPC   C1B19807  20.640  15.389   8.594
 1390POPC   C2B19808  20.221  15.270   8.403
 1390POPC   C3B19809  20.189  15.369   7.977
 1390POPC   C4B19810  20.587  15.342   7.729
 1391POPC   NC319811  10.302  12.421   9.612
 1391POPC   PO419812  10.630  11.757   9.565
 1391POPC   GL119813  10.541  11.998   9.220
 1391POPC   GL219814  10.294  12.201   9.148
 1391POPC   C1A19815  10.604  11.878   8.795
 1391POPC   D2A19816  10.477  11.950   8.382
 1391POPC   C3A19817  10.744  12.127   8.114
 1391POPC   C4A19818  10.682  11.945   7.754
 1391POPC   C1B19819  10.317  12.297   8.725
 1391POPC   C2B19820  10.365  12.440   8.283
 1391POPC   C3B19821  10.316  12.357   7.836
 1391POPC   C4B19822  10.209  12.570   7.442
 1392POPC   NC319823  43.467  14.422   9.494
 1392POPC   PO419824  44.100  14.652   9.448
 1392POPC   GL119825  43.894  14.422   9.156
 1392POPC   GL219826  43.580  14.577   9.003
 1392POPC   C1A19827  44.029  14.395   8.746
 1392POPC   D2A19828  43.795  14.436   8.361
 1392POPC   C3A19829  44.085  14.426   8.041
 1392POPC   C4A19830  44.268  14.549   7.686
 1392POPC   C1B19831  43.591  14.142   8.809
 1392POPC   C2B19832  43.474  13.939   8.414
 1392POPC   C3B19833  43.631  14.023   8.017
 1392POPC   C4B19834  43.639  14.413   7.819
 1393POPC   NC319835   6.140  13.815   9.442
 1393POPC   PO419836   5.759  13.267   9.479
 1393POPC   GL119837   5.745  13.560   9.079
 1393POPC   GL219838   5.898  13.900   8.993
 1393POPC   C1A19839   5.621  13.558   8.637
 1393POPC   D2A19840   5.969  13.512   8.343
 1393POPC   C3A19841   5.865  13.748   8.003
 1393POPC   C4A19842   5.883  13.750   7.549
 1393POPC   C1B19843   5.568  14.046   8.735
 1393POPC   C2B19844   5.482  13.944   8.284
 1393POPC   C3B19845   5.587  14.204   7.917
 1393POPC   C4B19846   5.563  14.169   7.462
 1394POPC   NC319847  28.588  29.833   9.516
 1394POPC   PO419848  28.037  30.106   9.479
 1394POPC   GL119849  28.208  29.859   9.155
 1394POPC   GL219850  28.408  30.141   9.093
 1394POPC   C1A19851  28.392  29.795   8.716
 1394POPC   D2A19852  28.545  30.027   8.325
 1394POPC   C3A19853  28.557  29.849   7.885
 1394POPC   C4A19854  28.263  29.824   7.521
 1394POPC   C1B19855  28.073  30.355   8.851
 1394POPC   C2B19856  27.874  30.370   8.464
 1394POPC   C3B19857  28.187  30.363   8.170
 1394POPC   C4B19858  28.225  30.231   7.798
 1395POPC   NC319859  35.558   6.591   9.315
 1395POPC   PO419860  35.026   6.906   9.476
 1395POPC   GL119861  35.113   6.817   9.087
 1395POPC   GL219862  34.879   6.573   9.021
 1395POPC   C1A19863  35.346   6.743   8.737
 1395POPC   D2A19864  35.504   6.406   8.527
 1395POPC   C3A19865  35.363   6.554   8.158
 1395POPC   C4A19866  35.486   6.626   7.774
 1395POPC   C1B19867  34.951   6.447   8.602
 1395POPC   C2B19868  34.855   6.484   8.162
 1395POPC   C3B19869  35.062   6.301   7.797
 1395POPC   C4B19870  35.041   6.151   7.368
 1396POPC   NC319871  41.171  25.645   9.475
 1396POPC   PO419872  41.308  26.339   9.629
 1396POPC   GL119873  41.460  26.143   9.270
 1396POPC   GL219874  41.823  26.146   9.169
 1396POPC   C1A19875  41.463  26.136   8.822
 1396POPC   D2A19876  41.267  26.026   8.454
 1396POPC   C3A19877  41.513  25.894   8.095
 1396POPC   C4A19878  41.406  26.149   7.741
 1396POPC   C1B19879  41.941  26.340   8.728
 1396POPC   C2B19880  41.959  26.126   8.289
 1396POPC   C3B19881  41.911  26.120   7.806
 1396POPC   C4B19882  41.984  26.138   7.346
 1397POPC   NC319883  36.508  32.028   9.575
 1397POPC   PO419884  36.157  32.616   9.512
 1397POPC   GL119885  36.054  32.439   9.088
 1397POPC   GL219886  35.951  32.100   9.076
 1397POPC   C1A19887  36.217  32.267   8.677
 1397POPC   D2A19888  36.482  32.271   8.310
 1397POPC   C3A19889  36.294  32.546   8.036
 1397POPC   C4A19890  35.999  32.436   7.737
 1397POPC   C1B19891  35.793  31.971   8.716
 1397POPC   C2B19892  35.987  31.939   8.292
 1397POPC   C3B19893  35.780  31.989   7.903
 1397POPC   C4B19894  35.605  31.743   7.570
 1398POPC   NC319895  34.319  36.703   9.315
 1398POPC   PO419896  35.002  36.906   9.425
 1398POPC   GL119897  34.711  36.962   9.070
 1398POPC   GL219898  34.420  37.179   9.052
 1398POPC   C1A19899  34.581  36.814   8.654
 1398POPC   D2A19900  34.733  36.700   8.247
 1398POPC   C3A19901  34.623  36.906   7.862
 1398POPC   C4A19902  34.566  36.527   7.627
 1398POPC   C1B19903  34.167  37.108   8.692
 1398POPC   C2B19904  34.313  37.079   8.269
 1398POPC   C3B19905  34.147  37.242   7.882
 1398POPC   C4B19906  34.377  37.236   7.523
 1399POPC   NC319907  31.025  23.669   9.595
 1399POPC   PO419908  30.409  23.928   9.485
 1399POPC   GL119909  30.529  23.710   9.094
 1399POPC   GL219910  30.856  23.753   9.125
 1399POPC   C1A19911  30.633  23.714   8.641
 1399POPC   D2A19912  30.502  23.901   8.231
 1399POPC   C3A19913  30.523  23.632   7.857
 1399POPC   C4A19914  30.609  23.634   7.399
 1399POPC   C1B19915  31.110  23.916   8.812
 1399POPC   C2B19916  30.979  24.023   8.412
 1399POPC   C3B19917  30.981  23.815   8.041
 1399POPC   C4B19918  30.867  23.978   7.666
 1400POPC   NC319919  13.468  19.559   9.558
 1400POPC   PO419920  14.013  20.013   9.411
 1400POPC   GL119921  13.760  19.787   9.160
 1400POPC   GL219922  13.452  19.577   9.059
 1400POPC   C1A19923  13.691  19.949   8.778
 1400POPC   D2A19924  13.520  20.002   8.411
 1400POPC   C3A19925  13.800  19.809   8.161
 1400POPC   C4A19926  13.920  19.832   7.767
 1400POPC   C1B19927  13.163  19.581   8.727
 1400POPC   C2B19928  13.372  19.535   8.315
 1400POPC   C3B19929  13.502  19.454   7.872
 1400POPC   C4B19930  13.364  19.413   7.404
 1401POPC   NC319931  31.090  42.316   9.936
 1401POPC   PO419932  31.690  42.159   9.517
 1401POPC   GL119933  31.594  42.384   9.159
 1401POPC   GL219934  31.449  42.139   9.001
 1401POPC   C1A19935  31.546  42.593   8.763
 1401POPC   D2A19936  31.608  42.547   8.337
 1401POPC   C3A19937  31.577  42.188   8.080
 1401POPC   C4A19938  31.508  42.506   7.804
 1401POPC   C1B19939  31.088  42.423   8.868
 1401POPC   C2B19940  31.081  42.597   8.464
 1401POPC   C3B19941  31.038  42.496   8.029
 1401POPC   C4B19942  31.102  42.213   7.703
 1402POPC   NC319943   2.311  29.332   9.419
 1402POPC   PO419944   2.116  28.706   9.534
 1402POPC   GL119945   1.934  28.871   9.146
 1402POPC   GL219946   1.978  29.218   9.050
 1402POPC   C1A19947   1.865  28.894   8.698
 1402POPC   D2A19948   1.874  29.197   8.393
 1402POPC   C3A19949   2.020  28.946   8.076
 1402POPC   C4A19950   1.825  28.773   7.757
 1402POPC   C1B19951   2.301  29.292   8.745
 1402POPC   C2B19952   2.337  29.455   8.326
 1402POPC   C3B19953   2.100  29.416   7.923
 1402POPC   C4B19954   2.104  29.140   7.554
 1403POPC   NC319955   2.790  30.216   9.691
 1403POPC   PO419956   2.596  29.700   9.351
 1403POPC   GL119957   2.783  30.006   9.111
 1403POPC   GL219958   2.555  30.213   9.183
 1403POPC   C1A19959   2.874  29.959   8.678
 1403POPC   D2A19960   2.799  29.686   8.302
 1403POPC   C3A19961   3.058  29.583   7.956
 1403POPC   C4A19962   2.984  29.827   7.586
 1403POPC   C1B19963   2.412  30.194   8.755
 1403POPC   C2B19964   2.529  30.118   8.326
 1403POPC   C3B19965   2.603  30.135   7.874
 1403POPC   C4B19966   2.327  30.244   7.509
 1404POPC   NC319967  15.568  42.399   9.422
 1404POPC   PO419968  14.929  42.283   9.657
 1404POPC   GL119969  15.103  42.382   9.256
 1404POPC   GL219970  15.338  42.067   9.127
 1404POPC   C1A19971  15.200  42.517   8.833
 1404POPC   D2A19972  15.194  42.277   8.454
 1404POPC   C3A19973  15.239  42.516   8.085
 1404POPC   C4A19974  15.118  42.324   7.741
 1404POPC   C1B19975  15.606  42.205   8.767
 1404POPC   C2B19976  15.683  42.363   8.317
 1404POPC   C3B19977  15.631  42.208   7.899
 1404POPC   C4B19978  15.522  42.364   7.448
 1405POPC   NC319979  38.630  27.748   9.413
 1405POPC   PO419980  38.160  27.325   9.584
 1405POPC   GL119981  38.399  27.348   9.168
 1405POPC   GL219982  38.753  27.222   9.223
 1405POPC   C1A19983  38.336  27.704   8.839
 1405POPC   D2A19984  38.143  28.013   8.547
 1405POPC   C3A19985  38.350  27.805   8.186
 1405POPC   C4A19986  38.563  27.774   7.781
 1405POPC   C1B19987  38.773  27.362   8.792
 1405POPC   C2B19988  38.410  27.323   8.505
 1405POPC   C3B19989  38.308  27.287   8.086
 1405POPC   C4B19990  38.599  27.252   7.760
 1406POPC   NC319991  20.771  27.723   9.552
 1406POPC   PO419992  20.403  27.212   9.392
 1406POPC   GL119993  20.583  27.562   9.076
 1406POPC   GL219994  20.877  27.790   9.052
 1406POPC   C1A19995  20.487  27.783   8.705
 1406POPC   D2A19996  20.315  27.629   8.338
 1406POPC   C3A19997  20.569  27.485   7.979
 1406POPC   C4A19998  20.651  27.696   7.565
 1406POPC   C1B19999  20.944  27.516   8.704
 1406POPC   C2B20000  21.127  27.521   8.307
 1406POPC   C3B20001  21.029  27.692   7.914
 1406POPC   C4B20002  21.084  27.405   7.576
 1407POPC   NC320003  44.464  18.476   9.501
 1407POPC   PO420004  44.994  18.125   9.570
 1407POPC   GL120005   0.011  18.342   9.182
 1407POPC   GL220006  44.669  18.375   9.063
 1407POPC   C1A20007   0.026  18.215   8.744
 1407POPC   D2A20008  44.779  18.125   8.399
 1407POPC   C3A20009  44.975  18.211   8.064
 1407POPC   C4A20010  44.861  18.233   7.681
 1407POPC   C1B20011  44.532  18.654   8.773
 1407POPC   C2B20012  44.392  18.566   8.401
 1407POPC   C3B20013  44.478  18.397   8.040
 1407POPC   C4B20014  44.307  18.246   7.650
 1408POPC   NC320015   7.972  29.636   9.388
 1408POPC   PO420016   8.585  29.391   9.567
 1408POPC   GL120017   8.484  29.708   9.218
 1408POPC   GL220018   8.342  30.081   9.151
 1408POPC   C1A20019   8.486  29.774   8.769
 1408POPC   D2A20020   8.453  30.132   8.494
 1408POPC   C3A20021   8.457  30.041   8.077
 1408POPC   C4A20022   8.247  29.871   7.716
 1408POPC   C1B20023   8.034  30.028   8.775
 1408POPC   C2B20024   7.928  30.233   8.405
 1408POPC   C3B20025   7.911  30.131   7.999
 1408POPC   C4B20026   7.723  29.782   7.796
 1409POPC   NC320027  25.563  28.187   9.611
 1409POPC   PO420028  25.058  28.601   9.633
 1409POPC   GL120029  25.305  28.422   9.208
 1409POPC   GL220030  25.567  28.436   8.878
 1409POPC   C1A20031  25.088  28.370   8.808
 1409POPC   D2A20032  25.157  28.626   8.487
 1409POPC   C3A20033  24.974  28.503   8.115
 1409POPC   C4A20034  25.172  28.385   7.762
 1409POPC   C1B20035  25.442  28.079   8.594
 1409POPC   C2B20036  25.427  28.250   8.201
 1409POPC   C3B20037  25.666  28.390   7.865
 1409POPC   C4B20038  25.617  28.047   7.603
 1410POPC   NC320039  15.607  34.327   9.591
 1410POPC   PO420040  15.119  34.803   9.724
 1410POPC   GL120041  15.236  34.607   9.330
 1410POPC   GL220042  15.345  34.904   9.163
 1410POPC   C1A20043  15.372  34.423   8.919
 1410POPC   D2A20044  15.158  34.361   8.500
 1410POPC   C3A20045  15.339  34.577   8.157
 1410POPC   C4A20046  15.301  34.479   7.740
 1410POPC   C1B20047  15.033  35.057   8.895
 1410POPC   C2B20048  15.040  34.946   8.498
 1410POPC   C3B20049  15.005  34.992   8.086
 1410POPC   C4B20050  15.231  34.964   7.717
 1411POPC   NC320051  16.267  27.302   9.312
 1411POPC   PO420052  15.737  27.637   9.517
 1411POPC   GL120053  15.920  27.653   9.107
 1411POPC   GL220054  15.765  27.342   9.007
 1411POPC   C1A20055  16.182  27.631   8.700
 1411POPC   D2A20056  16.311  27.957   8.359
 1411POPC   C3A20057  16.191  27.845   7.932
 1411POPC   C4A20058  16.246  27.427   7.749
 1411POPC   C1B20059  15.641  27.628   8.657
 1411POPC   C2B20060  15.830  27.772   8.299
 1411POPC   C3B20061  15.736  27.598   7.910
 1411POPC   C4B20062  15.487  27.831   7.640
 1412POPC   NC320063  42.827  26.086   9.516
 1412POPC   PO420064  43.457  25.975   9.413
 1412POPC   GL120065  43.165  26.084   9.109
 1412POPC   GL220066  43.187  26.419   9.119
 1412POPC   C1A20067  43.203  25.997   8.671
 1412POPC   D2A20068  43.357  25.699   8.361
 1412POPC   C3A20069  43.185  25.937   8.029
 1412POPC   C4A20070  43.324  26.092   7.663
 1412POPC   C1B20071  42.982  26.453   8.739
 1412POPC   C2B20072  42.861  26.242   8.354
 1412POPC   C3B20073  42.882  26.360   7.920
 1412POPC   C4B20074  42.854  26.159   7.515
 1413POPC   NC320075  35.920  39.325   9.544
 1413POPC   PO420076  35.560  38.806   9.235
 1413POPC   GL120077  35.858  39.153   9.053
 1413POPC   GL220078  36.233  39.266   9.126
 1413POPC   C1A20079  36.033  39.474   8.724
 1413POPC   D2A20080  36.291  39.502   8.388
 1413POPC   C3A20081  36.113  39.406   8.013
 1413POPC   C4A20082  36.361  39.323   7.629
 1413POPC   C1B20083  36.228  38.993   8.746
 1413POPC   C2B20084  36.060  39.016   8.351
 1413POPC   C3B20085  36.284  38.932   8.009
 1413POPC   C4B20086  36.404  38.819   7.643
 1414POPC   NC320087  41.744  33.513   9.588
 1414POPC   PO420088  41.873  34.168   9.489
 1414POPC   GL120089  41.825  33.946   9.078
 1414POPC   GL220090  41.570  33.702   9.109
 1414POPC   C1A20091  41.675  33.849   8.638
 1414POPC   D2A20092  41.841  33.720   8.249
 1414POPC   C3A20093  41.813  33.942   7.899
 1414POPC   C4A20094  41.401  33.973   7.809
 1414POPC   C1B20095  41.253  33.609   8.846
 1414POPC   C2B20096  41.133  33.390   8.490
 1414POPC   C3B20097  41.157  33.508   8.066
 1414POPC   C4B20098  41.270  33.514   7.643
 1415POPC   NC320099  41.239   0.510   9.525
 1415POPC   PO420100  41.840   0.796   9.661
 1415POPC   GL120101  41.643   0.730   9.240
 1415POPC   GL220102  41.479   0.454   9.095
 1415POPC   C1A20103  41.636   0.802   8.772
 1415POPC   D2A20104  41.741   0.610   8.358
 1415POPC   C3A20105  41.525   0.587   7.977
 1415POPC   C4A20106  41.700   0.575   7.581
 1415POPC   C1B20107  41.621   0.269   8.758
 1415POPC   C2B20108  41.436   0.189   8.404
 1415POPC   C3B20109  41.608   0.107   8.068
 1415POPC   C4B20110  41.426   0.157   7.691
 1416POPC   NC320111  30.564  41.658   9.398
 1416POPC   PO420112  31.171  41.689   9.409
 1416POPC   GL120113  30.915  41.502   9.051
 1416POPC   GL220114  30.520  41.376   8.980
 1416POPC   C1A20115  30.773  41.568   8.616
 1416POPC   D2A20116  30.473  41.318   8.473
 1416POPC   C3A20117  30.596  41.449   8.111
 1416POPC   C4A20118  30.871  41.378   7.775
 1416POPC   C1B20119  30.323  41.733   8.750
 1416POPC   C2B20120  30.414  41.880   8.362
 1416POPC   C3B20121  30.262  41.844   7.957
 1416POPC   C4B20122  30.345  41.502   7.682
 1417POPC   NC320123  31.009  36.410   9.833
 1417POPC   PO420124  30.618  36.145   9.326
 1417POPC   GL120125  30.743  36.132   8.969
 1417POPC   GL220126  30.438  36.210   8.814
 1417POPC   C1A20127  30.996  36.087   8.662
 1417POPC   D2A20128  30.734  36.181   8.325
 1417POPC   C3A20129  30.879  35.893   8.046
 1417POPC   C4A20130  30.669  35.818   7.725
 1417POPC   C1B20131  30.754  36.549   8.681
 1417POPC   C2B20132  31.120  36.561   8.466
 1417POPC   C3B20133  31.133  36.335   8.088
 1417POPC   C4B20134  30.779  36.348   7.812
 1418POPC   NC320135   7.896  28.643   9.295
 1418POPC   PO420136   8.484  28.396   9.586
 1418POPC   GL120137   8.363  28.421   9.180
 1418POPC   GL220138   8.085  28.200   9.103
 1418POPC   C1A20139   8.336  28.500   8.756
 1418POPC   D2A20140   8.319  28.209   8.449
 1418POPC   C3A20141   8.283  28.413   8.077
 1418POPC   C4A20142   8.604  28.334   7.796
 1418POPC   C1B20143   7.861  28.241   8.740
 1418POPC   C2B20144   7.822  28.127   8.331
 1418POPC   C3B20145   7.856  28.208   7.879
 1418POPC   C4B20146   7.911  28.058   7.446
 1419POPC   NC320147  24.692  39.270   9.494
 1419POPC   PO420148  24.349  38.680   9.549
 1419POPC   GL120149  24.391  38.913   9.182
 1419POPC   GL220150  24.723  38.922   9.147
 1419POPC   C1A20151  24.319  39.071   8.767
 1419POPC   D2A20152  24.488  39.279   8.388
 1419POPC   C3A20153  24.497  39.153   7.966
 1419POPC   C4A20154  24.552  39.499   7.677
 1419POPC   C1B20155  24.834  39.172   8.786
 1419POPC   C2B20156  25.018  39.205   8.357
 1419POPC   C3B20157  24.994  39.272   7.881
 1419POPC   C4B20158  24.867  39.182   7.440
 1420POPC   NC320159  34.176  32.626   9.411
 1420POPC   PO420160  34.085  31.898   9.452
 1420POPC   GL120161  33.783  32.101   9.097
 1420POPC   GL220162  33.698  32.476   9.137
 1420POPC   C1A20163  33.811  32.206   8.642
 1420POPC   D2A20164  34.002  32.186   8.211
 1420POPC   C3A20165  33.706  32.084   7.883
 1420POPC   C4A20166  33.459  32.031   7.543
 1420POPC   C1B20167  33.882  32.716   8.805
 1420POPC   C2B20168  33.941  32.687   8.371
 1420POPC   C3B20169  33.767  32.587   7.991
 1420POPC   C4B20170  33.984  32.507   7.665
 1421POPC   NC320171  44.312  33.532   9.769
 1421POPC   PO420172  44.847  33.873   9.498
 1421POPC   GL120173  44.708  33.672   9.106
 1421POPC   GL220174  44.864  33.407   8.977
 1421POPC   C1A20175  44.482  33.689   8.701
 1421POPC   D2A20176  44.375  33.926   8.334
 1421POPC   C3A20177  44.252  33.685   8.015
 1421POPC   C4A20178  44.033  33.638   7.653
 1421POPC   C1B20179  44.956  33.547   8.595
 1421POPC   C2B20180  44.745  33.607   8.230
 1421POPC   C3B20181  44.705  33.881   7.900
 1421POPC   C4B20182  44.876  33.756   7.534
 1422POPC   NC320183  12.882  20.254   9.976
 1422POPC   PO420184  12.931  19.674   9.602
 1422POPC   GL120185  13.088  19.915   9.202
 1422POPC   GL220186  12.762  20.037   9.002
 1422POPC   C1A20187  13.198  20.094   8.799
 1422POPC   D2A20188  12.948  19.929   8.444
 1422POPC   C3A20189  13.156  19.914   8.060
 1422POPC   C4A20190  13.002  20.171   7.799
 1422POPC   C1B20191  12.657  19.663   8.805
 1422POPC   C2B20192  12.474  19.690   8.381
 1422POPC   C3B20193  12.629  19.902   8.033
 1422POPC   C4B20194  12.847  19.702   7.691
 1423POPC   NC320195  17.164  13.989   9.743
 1423POPC   PO420196  16.660  13.522   9.593
 1423POPC   GL120197  16.970  13.528   9.224
 1423POPC   GL220198  16.950  13.207   9.003
 1423POPC   C1A20199  16.881  13.702   8.802
 1423POPC   D2A20200  16.591  13.717   8.452
 1423POPC   C3A20201  16.802  13.529   8.118
 1423POPC   C4A20202  16.892  13.802   7.779
 1423POPC   C1B20203  16.529  13.269   8.783
 1423POPC   C2B20204  16.274  13.295   8.375
 1423POPC   C3B20205  16.421  13.253   7.942
 1423POPC   C4B20206  16.771  13.284   7.665
 1424POPC   NC320207  23.906  40.574   9.422
 1424POPC   PO420208  23.794  41.262   9.606
 1424POPC   GL120209  23.624  40.959   9.231
 1424POPC   GL220210  23.403  40.602   9.287
 1424POPC   C1A20211  23.677  40.910   8.806
 1424POPC   D2A20212  23.937  40.754   8.491
 1424POPC   C3A20213  23.771  40.835   8.107
 1424POPC   C4A20214  23.881  40.610   7.768
 1424POPC   C1B20215  23.445  40.451   8.873
 1424POPC   C2B20216  23.435  40.591   8.443
 1424POPC   C3B20217  23.427  40.463   8.009
 1424POPC   C4B20218  23.408  40.755   7.654
 1425POPC   NC320219  31.816  23.898   9.947
 1425POPC   PO420220  31.395  23.446   9.749
 1425POPC   GL120221  31.500  23.624   9.343
 1425POPC   GL220222  31.244  23.429   9.203
 1425POPC   C1A20223  31.563  23.673   8.876
 1425POPC   D2A20224  31.669  23.528   8.456
 1425POPC   C3A20225  31.552  23.848   8.126
 1425POPC   C4A20226  31.376  23.892   7.710
 1425POPC   C1B20227  31.063  23.385   8.820
 1425POPC   C2B20228  31.174  23.547   8.437
 1425POPC   C3B20229  31.323  23.417   8.020
 1425POPC   C4B20230  31.065  23.477   7.653
 1426POPC   NC320231   5.712  40.647   9.389
 1426POPC   PO420232   5.985  41.186   9.660
 1426POPC   GL120233   5.996  40.999   9.177
 1426POPC   GL220234   6.301  40.948   9.014
 1426POPC   C1A20235   5.783  40.808   8.760
 1426POPC   D2A20236   5.484  40.593   8.431
 1426POPC   C3A20237   5.602  40.588   7.982
 1426POPC   C4A20238   5.516  40.986   7.840
 1426POPC   C1B20239   6.260  40.610   8.718
 1426POPC   C2B20240   6.019  40.642   8.305
 1426POPC   C3B20241   6.043  40.858   7.911
 1426POPC   C4B20242   6.240  41.028   7.552
 1427POPC   NC320243   0.976   5.402   9.407
 1427POPC   PO420244   1.120   6.100   9.552
 1427POPC   GL120245   1.116   5.881   9.180
 1427POPC   GL220246   1.338   5.672   9.113
 1427POPC   C1A20247   0.950   5.760   8.760
 1427POPC   D2A20248   0.815   5.971   8.385
 1427POPC   C3A20249   0.914   5.800   7.976
 1427POPC   C4A20250   0.739   5.942   7.579
 1427POPC   C1B20251   1.463   5.727   8.717
 1427POPC   C2B20252   1.294   5.689   8.329
 1427POPC   C3B20253   1.405   5.915   7.993
 1427POPC   C4B20254   1.249   5.969   7.576
 1428POPC   NC320255   9.626  10.800   9.243
 1428POPC   PO420256   9.526  10.220   9.546
 1428POPC   GL120257   9.780  10.269   9.164
 1428POPC   GL220258  10.037  10.564   9.077
 1428POPC   C1A20259   9.589  10.348   8.776
 1428POPC   D2A20260   9.495  10.656   8.437
 1428POPC   C3A20261   9.668  10.645   8.029
 1428POPC   C4A20262   9.573  10.383   7.681
 1428POPC   C1B20263  10.099  10.310   8.749
 1428POPC   C2B20264   9.880  10.245   8.360
 1428POPC   C3B20265  10.054  10.299   7.958
 1428POPC   C4B20266  10.036  10.499   7.575
 1429POPC   NC320267   8.023   6.440   9.472
 1429POPC   PO420268   8.463   6.904   9.529
 1429POPC   GL120269   8.197   6.810   9.161
 1429POPC   GL220270   7.943   7.035   9.086
 1429POPC   C1A20271   8.085   6.555   8.780
 1429POPC   D2A20272   7.831   6.429   8.402
 1429POPC   C3A20273   8.080   6.487   8.004
 1429POPC   C4A20274   8.493   6.534   7.776
 1429POPC   C1B20275   8.179   7.090   8.728
 1429POPC   C2B20276   8.080   6.892   8.362
 1429POPC   C3B20277   8.187   6.990   7.962
 1429POPC   C4B20278   7.973   6.912   7.596
 1430POPC   NC320279  22.447  12.594   9.359
 1430POPC   PO420280  22.280  13.227   9.429
 1430POPC   GL120281  22.427  13.052   9.027
 1430POPC   GL220282  22.211  13.163   8.769
 1430POPC   C1A20283  22.521  12.773   8.653
 1430POPC   D2A20284  22.164  12.643   8.337
 1430POPC   C3A20285  22.311  12.654   7.913
 1430POPC   C4A20286  22.576  12.980   7.722
 1430POPC   C1B20287  21.739  13.117   8.797
 1430POPC   C2B20288  21.538  13.095   8.404
 1430POPC   C3B20289  21.791  13.086   8.022
 1430POPC   C4B20290  21.747  13.008   7.585
 1431POPC   NC320291  19.128  34.066   9.572
 1431POPC   PO420292  18.944  33.425   9.458
 1431POPC   GL120293  19.057  33.759   9.143
 1431POPC   GL220294  19.230  34.119   9.096
 1431POPC   C1A20295  18.938  33.833   8.736
 1431POPC   D2A20296  18.981  34.029   8.338
 1431POPC   C3A20297  18.856  33.698   8.051
 1431POPC   C4A20298  18.734  33.737   7.641
 1431POPC   C1B20299  19.422  34.010   8.740
 1431POPC   C2B20300  19.397  33.721   8.424
 1431POPC   C3B20301  19.352  33.841   8.027
 1431POPC   C4B20302  19.235  33.725   7.661
 1432POPC   NC320303   5.392  11.083   9.430
 1432POPC   PO420304   4.845  11.435   9.615
 1432POPC   GL120305   5.003  11.335   9.202
 1432POPC   GL220306   4.948  11.627   9.073
 1432POPC   C1A20307   5.145  11.103   8.788
 1432POPC   D2A20308   5.136  10.976   8.331
 1432POPC   C3A20309   5.411  11.100   7.964
 1432POPC   C4A20310   5.276  11.189   7.532
 1432POPC   C1B20311   5.179  11.615   8.702
 1432POPC   C2B20312   5.272  11.510   8.273
 1432POPC   C3B20313   5.008  11.406   7.934
 1432POPC   C4B20314   4.953  11.622   7.561
 1433POPC   NC320315  14.831   1.470   9.501
 1433POPC   PO420316  15.211   0.887   9.618
 1433POPC   GL120317  15.229   1.097   9.172
 1433POPC   GL220318  15.530   1.320   9.128
 1433POPC   C1A20319  15.449   1.015   8.743
 1433POPC   D2A20320  15.231   1.020   8.366
 1433POPC   C3A20321  15.283   0.808   8.017
 1433POPC   C4A20322  15.142   0.975   7.677
 1433POPC   C1B20323  15.288   1.525   8.790
 1433POPC   C2B20324  15.092   1.512   8.376
 1433POPC   C3B20325  15.262   1.385   7.973
 1433POPC   C4B20326  15.514   1.588   7.627
 1434POPC   NC320327  42.378   7.358   9.535
 1434POPC   PO420328  42.846   6.940   9.184
 1434POPC   GL120329  42.406   7.151   9.091
 1434POPC   GL220330  42.341   7.540   9.052
 1434POPC   C1A20331  42.092   7.190   8.777
 1434POPC   D2A20332  42.212   7.034   8.381
 1434POPC   C3A20333  42.132   7.202   7.968
 1434POPC   C4A20334  42.285   7.247   7.542
 1434POPC   C1B20335  42.454   7.790   8.696
 1434POPC   C2B20336  42.283   7.852   8.291
 1434POPC   C3B20337  42.389   7.677   7.883
 1434POPC   C4B20338  42.372   7.806   7.442
 1435POPC   NC320339  33.785  27.511   9.395
 1435POPC   PO420340  33.140  27.200   9.433
 1435POPC   GL120341  33.410  27.332   9.088
 1435POPC   GL220342  33.487  27.702   8.984
 1435POPC   C1A20343  33.649  27.330   8.694
 1435POPC   D2A20344  33.598  27.686   8.410
 1435POPC   C3A20345  33.614  27.579   7.987
 1435POPC   C4A20346  33.495  27.811   7.602
 1435POPC   C1B20347  33.954  27.727   8.811
 1435POPC   C2B20348  34.087  27.578   8.427
 1435POPC   C3B20349  34.090  27.753   8.035
 1435POPC   C4B20350  33.983  27.897   7.646
 1436POPC   NC320351   9.540  43.477   9.589
 1436POPC   PO420352   9.983  44.030   9.482
 1436POPC   GL120353   9.736  44.026   9.127
 1436POPC   GL220354   9.988  44.251   9.004
 1436POPC   C1A20355   9.666  43.736   8.746
 1436POPC   D2A20356   9.670  43.450   8.357
 1436POPC   C3A20357   9.556  43.686   7.992
 1436POPC   C4A20358   9.675  44.080   7.754
 1436POPC   C1B20359   9.698  44.291   8.689
 1436POPC   C2B20360   9.630  44.079   8.334
 1436POPC   C3B20361   9.294  44.141   8.126
 1436POPC   C4B20362   9.171  44.237   7.734
 1437POPC   NC320363  45.000   5.568   9.547
 1437POPC   PO420364  44.508   6.029   9.690
 1437POPC   GL120365  44.793   5.991   9.274
 1437POPC   GL220366   0.174   5.943   9.230
 1437POPC   C1A20367  44.695   5.770   8.858
 1437POPC   D2A20368  44.391   5.736   8.479
 1437POPC   C3A20369  44.521   5.643   8.043
 1437POPC   C4A20370  44.543   5.997   7.734
 1437POPC   C1B20371   0.054   6.139   8.825
 1437POPC   C2B20372  44.782   6.088   8.458
 1437POPC   C3B20373  44.915   5.968   8.070
 1437POPC   C4B20374   0.158   6.178   7.810
 1438POPC   NC320375  32.404  26.379   9.442
 1438POPC   PO420376  32.259  25.785   9.688
 1438POPC   GL120377  32.231  25.858   9.212
 1438POPC   GL220378  32.502  25.706   8.986
 1438POPC   C1A20379  32.086  25.914   8.772
 1438POPC   D2A20380  32.251  25.776   8.352
 1438POPC   C3A20381  32.193  25.951   7.938
 1438POPC   C4A20382  32.064  26.212   7.595
 1438POPC   C1B20383  32.574  26.043   8.670
 1438POPC   C2B20384  32.481  26.249   8.278
 1438POPC   C3B20385  32.532  26.331   7.843
 1438POPC   C4B20386  32.522  26.015   7.513
 1439POPC   NC320387   1.539  20.589   9.410
 1439POPC   PO420388   2.160  20.816   9.375
 1439POPC   GL120389   2.044  20.497   9.060
 1439POPC   GL220390   1.707  20.352   8.998
 1439POPC   C1A20391   2.098  20.253   8.682
 1439POPC   D2A20392   2.306  20.303   8.325
 1439POPC   C3A20393   2.059  20.469   8.015
 1439POPC   C4A20394   2.064  20.270   7.658
 1439POPC   C1B20395   1.737  20.626   8.624
 1439POPC   C2B20396   1.800  20.883   8.235
 1439POPC   C3B20397   1.837  20.886   7.788
 1439POPC   C4B20398   1.739  20.908   7.338
 1440POPC   NC320399  11.631  11.989   9.261
 1440POPC   PO420400  12.230  12.155   9.566
 1440POPC   GL120401  12.396  11.981   9.195
 1440POPC   GL220402  12.105  11.839   9.073
 1440POPC   C1A20403  12.501  11.964   8.760
 1440POPC   D2A20404  12.272  12.149   8.453
 1440POPC   C3A20405  12.386  12.042   8.067
 1440POPC   C4A20406  12.035  12.141   7.840
 1440POPC   C1B20407  11.959  11.760   8.665
 1440POPC   C2B20408  11.857  11.877   8.267
 1440POPC   C3B20409  11.584  11.813   7.954
 1440POPC   C4B20410  11.703  11.496   7.668
 1441POPC   NC320411  43.328  41.274   9.400
 1441POPC   PO420412  42.930  41.773   9.413
 1441POPC   GL120413  43.035  41.993   9.057
 1441POPC   GL220414  43.349  41.904   9.099
 1441POPC   C1A20415  42.968  41.804   8.674
 1441POPC   D2A20416  43.099  41.365   8.593
 1441POPC   C3A20417  43.067  41.360   8.140
 1441POPC   C4A20418  43.019  41.752   7.955
 1441POPC   C1B20419  43.461  41.681   8.760
 1441POPC   C2B20420  43.381  41.739   8.342
 1441POPC   C3B20421  43.506  41.547   7.979
 1441POPC   C4B20422  43.384  41.125   7.786
 1442POPC   NC320423   1.403  32.149   9.331
 1442POPC   PO420424   2.049  32.290   9.549
 1442POPC   GL120425   1.988  32.445   9.146
 1442POPC   GL220426   1.862  32.130   9.064
 1442POPC   C1A20427   2.054  32.524   8.701
 1442POPC   D2A20428   1.960  32.358   8.288
 1442POPC   C3A20429   2.201  32.510   7.908
 1442POPC   C4A20430   1.924  32.241   7.681
 1442POPC   C1B20431   1.600  32.234   8.698
 1442POPC   C2B20432   1.404  32.010   8.341
 1442POPC   C3B20433   1.482  31.998   7.875
 1442POPC   C4B20434   1.499  32.006   7.410
 1443POPC   NC320435  26.647   5.306   9.686
 1443POPC   PO420436  26.922   4.752   9.510
 1443POPC   GL120437  26.651   4.992   9.252
 1443POPC   GL220438  26.629   5.356   9.193
 1443POPC   C1A20439  26.617   4.986   8.815
 1443POPC   D2A20440  26.421   5.075   8.450
 1443POPC   C3A20441  26.658   5.031   8.124
 1443POPC   C4A20442  26.776   4.994   7.739
 1443POPC   C1B20443  26.888   5.415   8.862
 1443POPC   C2B20444  26.809   5.417   8.444
 1443POPC   C3B20445  26.749   5.518   8.013
 1443POPC   C4B20446  26.747   5.483   7.572
 1444POPC   NC320447  31.047  17.130   9.755
 1444POPC   PO420448  31.617  17.406   9.409
 1444POPC   GL120449  31.586  17.458   9.016
 1444POPC   GL220450  31.318  17.614   9.000
 1444POPC   C1A20451  31.553  17.282   8.642
 1444POPC   D2A20452  31.792  17.472   8.338
 1444POPC   C3A20453  31.574  17.550   7.966
 1444POPC   C4A20454  31.784  17.432   7.630
 1444POPC   C1B20455  31.310  17.774   8.620
 1444POPC   C2B20456  31.038  17.763   8.317
 1444POPC   C3B20457  31.186  17.878   7.949
 1444POPC   C4B20458  31.426  18.080   7.697
 1445POPC   NC320459  32.827  21.009   9.435
 1445POPC   PO420460  33.263  20.503   9.663
 1445POPC   GL120461  33.305  20.455   9.193
 1445POPC   GL220462  32.971  20.519   9.072
 1445POPC   C1A20463  33.336  20.719   8.778
 1445POPC   D2A20464  33.085  20.757   8.350
 1445POPC   C3A20465  33.285  20.794   7.883
 1445POPC   C4A20466  33.382  20.915   7.391
 1445POPC   C1B20467  32.734  20.486   8.685
 1445POPC   C2B20468  32.786  20.214   8.335
 1445POPC   C3B20469  32.801  20.474   7.999
 1445POPC   C4B20470  32.855  20.679   7.611
 1446POPC   NC320471  36.170  24.700   9.469
 1446POPC   PO420472  36.557  24.179   9.668
 1446POPC   GL120473  36.390  24.329   9.227
 1446POPC   GL220474  36.046  24.247   9.078
 1446POPC   C1A20475  36.418  24.523   8.814
 1446POPC   D2A20476  36.529  24.463   8.359
 1446POPC   C3A20477  36.314  24.554   7.986
 1446POPC   C4A20478  35.897  24.433   7.812
 1446POPC   C1B20479  36.017  24.300   8.603
 1446POPC   C2B20480  36.046  24.723   8.377
 1446POPC   C3B20481  35.965  24.918   7.980
 1446POPC   C4B20482  35.596  24.914   7.750
 1447POPC   NC320483  40.305  37.560   9.504
 1447POPC   PO420484  39.650  37.591   9.550
 1447POPC   GL120485  39.901  37.740   9.175
 1447POPC   GL220486  40.045  37.441   9.041
 1447POPC   C1A20487  40.082  37.886   8.747
 1447POPC   D2A20488  40.176  37.696   8.354
 1447POPC   C3A20489  40.169  37.683   7.911
 1447POPC   C4A20490  40.002  37.712   7.461
 1447POPC   C1B20491  39.790  37.413   8.634
 1447POPC   C2B20492  39.760  37.331   8.169
 1447POPC   C3B20493  39.892  37.281   7.733
 1447POPC   C4B20494  39.734  37.299   7.291
 1448POPC   NC320495  41.071   2.577   9.552
 1448POPC   PO420496  40.603   2.976   9.515
 1448POPC   GL120497  40.789   2.723   9.151
 1448POPC   GL220498  41.097   2.466   9.060
 1448POPC   C1A20499  41.024   2.883   8.778
 1448POPC   D2A20500  41.051   3.047   8.356
 1448POPC   C3A20501  40.692   3.050   8.073
 1448POPC   C4A20502  40.849   2.982   7.667
 1448POPC   C1B20503  40.751   2.440   8.746
 1448POPC   C2B20504  40.647   2.400   8.351
 1448POPC   C3B20505  40.816   2.554   8.007
 1448POPC   C4B20506  40.580   2.545   7.650
 1449POPC   NC320507   5.648  34.196   9.296
 1449POPC   PO420508   6.071  34.602   9.689
 1449POPC   GL120509   6.119  34.413   9.259
 1449POPC   GL220510   5.903  34.632   9.144
 1449POPC   C1A20511   6.036  34.357   8.754
 1449POPC   D2A20512   5.734  34.347   8.437
 1449POPC   C3A20513   5.917  34.335   8.034
 1449POPC   C4A20514   5.661  34.369   7.637
 1449POPC   C1B20515   5.646  34.762   8.808
 1449POPC   C2B20516   5.439  34.782   8.429
 1449POPC   C3B20517   5.519  34.657   8.053
 1449POPC   C4B20518   5.752  34.859   7.755
 1450POPC   NC320519   1.015  27.181   9.396
 1450POPC   PO420520   1.247  26.538   9.573
 1450POPC   GL120521   1.301  26.587   9.168
 1450POPC   GL220522   1.209  26.279   9.080
 1450POPC   C1A20523   1.492  26.789   8.825
 1450POPC   D2A20524   1.270  27.109   8.590
 1450POPC   C3A20525   1.247  27.086   8.133
 1450POPC   C4A20526   1.166  27.065   7.715
 1450POPC   C1B20527   1.230  26.384   8.640
 1450POPC   C2B20528   1.425  26.619   8.298
 1450POPC   C3B20529   1.284  26.575   7.869
 1450POPC   C4B20530   0.986  26.244   7.747
 1451POPC   NC320531   0.738  13.287   9.515
 1451POPC   PO420532   0.139  13.531   9.769
 1451POPC   GL120533   0.338  13.756   9.326
 1451POPC   GL220534   0.490  13.495   9.139
 1451POPC   C1A20535   0.424  13.916   8.867
 1451POPC   D2A20536   0.454  13.992   8.390
 1451POPC   C3A20537   0.307  13.696   8.033
 1451POPC   C4A20538   0.356  13.802   7.527
 1451POPC   C1B20539   0.340  13.383   8.763
 1451POPC   C2B20540   0.279  13.269   8.357
 1451POPC   C3B20541   0.525  13.212   7.995
 1451POPC   C4B20542   0.291  13.302   7.666
 1452POPC   NC320543  14.009  44.251   9.696
 1452POPC   PO420544  14.735  44.362   9.399
 1452POPC   GL120545  14.510  44.600   9.077
 1452POPC   GL220546  14.170  44.658   9.159
 1452POPC   C1A20547  14.373  44.501   8.697
 1452POPC   D2A20548  14.718  44.364   8.462
 1452POPC   C3A20549  14.658  44.190   8.062
 1452POPC   C4A20550  14.695  44.381   7.671
 1452POPC   C1B20551  14.096  44.916   8.803
 1452POPC   C2B20552  14.197  44.907   8.408
 1452POPC   C3B20553  14.345  44.601   8.171
 1452POPC   C4B20554  14.245  44.604   7.780
 1453POPC   NC320555  10.268  20.219   9.369
 1453POPC   PO420556  10.644  20.755   9.493
 1453POPC   GL120557  10.398  20.659   9.155
 1453POPC   GL220558  10.711  20.626   8.979
 1453POPC   C1A20559  10.248  20.487   8.750
 1453POPC   D2A20560  10.224  20.657   8.330
 1453POPC   C3A20561  10.311  20.456   7.973
 1453POPC   C4A20562  10.293  20.769   7.689
 1453POPC   C1B20563  10.728  20.600   8.540
 1453POPC   C2B20564  10.848  20.756   8.142
 1453POPC   C3B20565  10.770  20.586   7.725
 1453POPC   C4B20566  10.786  20.636   7.247
 1454POPC   NC320567  28.151  41.187   9.390
 1454POPC   PO420568  27.458  41.325   9.462
 1454POPC   GL120569  27.708  41.401   9.106
 1454POPC   GL220570  27.422  41.592   9.021
 1454POPC   C1A20571  27.714  41.392   8.637
 1454POPC   D2A20572  27.668  41.271   8.203
 1454POPC   C3A20573  27.577  41.607   7.896
 1454POPC   C4A20574  27.821  41.693   7.494
 1454POPC   C1B20575  27.187  41.373   8.710
 1454POPC   C2B20576  27.198  41.472   8.297
 1454POPC   C3B20577  27.190  41.179   7.993
 1454POPC   C4B20578  27.496  41.150   7.696
 1455POPC   NC320579  37.570  44.621   9.449
 1455POPC   PO420580  38.004  44.134   9.593
 1455POPC   GL120581  37.934  44.393   9.198
 1455POPC   GL220582  37.598  44.369   9.014
 1455POPC   C1A20583  37.854  44.796   8.908
 1455POPC   D2A20584  37.552  44.906   8.601
 1455POPC   C3A20585  37.655  44.815   8.170
 1455POPC   C4A20586  37.893  44.884   7.811
 1455POPC   C1B20587  37.287  44.402   8.727
 1455POPC   C2B20588  37.386  44.278   8.324
 1455POPC   C3B20589  37.644  44.309   8.010
 1455POPC   C4B20590  37.525  44.529   7.690
 1456POPC   NC320591  18.589  23.398   9.583
 1456POPC   PO420592  18.072  23.926   9.458
 1456POPC   GL120593  18.232  23.643   9.202
 1456POPC   GL220594  18.561  23.714   9.103
 1456POPC   C1A20595  18.215  23.486   8.778
 1456POPC   D2A20596  18.029  23.660   8.415
 1456POPC   C3A20597  18.085  23.451   8.017
 1456POPC   C4A20598  18.350  23.659   7.717
 1456POPC   C1B20599  18.657  23.745   8.658
 1456POPC   C2B20600  18.535  23.704   8.218
 1456POPC   C3B20601  18.642  24.015   7.904
 1456POPC   C4B20602  18.568  24.114   7.434
 1457POPC   NC320603  43.462   7.892   9.379
 1457POPC   PO420604  43.030   8.566   9.357
 1457POPC   GL120605  43.111   8.464   9.022
 1457POPC   GL220606  43.131   8.128   9.066
 1457POPC   C1A20607  43.085   8.434   8.633
 1457POPC   D2A20608  43.197   8.250   8.302
 1457POPC   C3A20609  42.926   8.352   7.984
 1457POPC   C4A20610  43.070   8.272   7.590
 1457POPC   C1B20611  43.016   7.905   8.678
 1457POPC   C2B20612  43.265   7.748   8.336
 1457POPC   C3B20613  43.274   7.905   7.918
 1457POPC   C4B20614  43.349   7.862   7.498
 1458POPC   NC320615   0.871  31.847   9.691
 1458POPC   PO420616   0.986  32.441   9.385
 1458POPC   GL120617   1.159  32.474   9.037
 1458POPC   GL220618   1.406  32.659   9.094
 1458POPC   C1A20619   1.071  32.323   8.679
 1458POPC   D2A20620   0.762  32.175   8.439
 1458POPC   C3A20621   0.986  32.126   8.055
 1458POPC   C4A20622   1.053  32.148   7.603
 1458POPC   C1B20623   1.171  32.837   8.688
 1458POPC   C2B20624   1.072  32.625   8.259
 1458POPC   C3B20625   1.272  32.526   7.844
 1458POPC   C4B20626   1.314  32.502   7.355
 1459POPC   NC320627   5.812  34.967   9.538
 1459POPC   PO420628   6.065  35.565   9.418
 1459POPC   GL120629   5.782  35.431   9.133
 1459POPC   GL220630   5.954  35.128   9.068
 1459POPC   C1A20631   5.640  35.288   8.719
 1459POPC   D2A20632   5.872  35.108   8.410
 1459POPC   C3A20633   5.722  35.278   8.074
 1459POPC   C4A20634   5.848  35.360   7.679
 1459POPC   C1B20635   6.176  34.866   8.755
 1459POPC   C2B20636   6.180  34.707   8.303
 1459POPC   C3B20637   6.191  35.011   7.932
 1459POPC   C4B20638   6.163  35.026   7.454
 1460POPC   NC320639  25.362  27.875   9.253
 1460POPC   PO420640  24.969  27.467   9.534
 1460POPC   GL120641  25.194  27.360   9.127
 1460POPC   GL220642  25.173  27.591   8.853
 1460POPC   C1A20643  25.547  27.266   8.810
 1460POPC   D2A20644  25.617  27.554   8.445
 1460POPC   C3A20645  25.502  27.459   7.997
 1460POPC   C4A20646  25.433  27.561   7.535
 1460POPC   C1B20647  24.839  27.735   8.586
 1460POPC   C2B20648  24.958  28.005   8.266
 1460POPC   C3B20649  25.205  27.881   7.887
 1460POPC   C4B20650  25.149  28.003   7.432
 1461POPC   NC320651  16.978  23.327   9.540
 1461POPC   PO420652  16.532  23.834   9.257
 1461POPC   GL120653  16.654  23.466   9.133
 1461POPC   GL220654  16.927  23.552   9.103
 1461POPC   C1A20655  16.563  23.318   8.756
 1461POPC   D2A20656  16.661  23.547   8.424
 1461POPC   C3A20657  16.666  23.360   8.072
 1461POPC   C4A20658  16.619  23.640   7.759
 1461POPC   C1B20659  17.066  23.745   8.736
 1461POPC   C2B20660  17.039  23.872   8.296
 1461POPC   C3B20661  17.109  23.609   7.947
 1461POPC   C4B20662  17.056  23.657   7.493
 1462POPC   NC320663  29.295  31.322   9.530
 1462POPC   PO420664  28.886  31.888   9.534
 1462POPC   GL120665  28.968  31.614   9.228
 1462POPC   GL220666  29.283  31.667   9.158
 1462POPC   C1A20667  28.932  31.620   8.786
 1462POPC   D2A20668  29.074  31.282   8.552
 1462POPC   C3A20669  29.110  31.331   8.123
 1462POPC   C4A20670  28.952  31.615   7.864
 1462POPC   C1B20671  29.481  31.546   8.769
 1462POPC   C2B20672  29.563  31.346   8.396
 1462POPC   C3B20673  29.596  31.321   7.951
 1462POPC   C4B20674  29.416  31.533   7.639
 1463POPC   NC320675  23.227  19.641   9.409
 1463POPC   PO420676  23.902  19.703   9.520
 1463POPC   GL120677  23.693  19.780   9.172
 1463POPC   GL220678  23.616  19.454   9.094
 1463POPC   C1A20679  23.490  20.061   8.908
 1463POPC   D2A20680  23.543  20.209   8.513
 1463POPC   C3A20681  23.401  19.925   8.177
 1463POPC   C4A20682  23.392  20.031   7.745
 1463POPC   C1B20683  23.608  19.613   8.677
 1463POPC   C2B20684  23.856  19.828   8.377
 1463POPC   C3B20685  23.900  19.691   7.979
 1463POPC   C4B20686  23.529  19.528   7.842
 1464POPC   NC320687  15.112  43.413   9.516
 1464POPC   PO420688  15.304  42.758   9.603
 1464POPC   GL120689  15.206  42.903   9.174
 1464POPC   GL220690  14.890  43.060   9.158
 1464POPC   C1A20691  15.313  43.012   8.719
 1464POPC   D2A20692  15.525  42.928   8.311
 1464POPC   C3A20693  15.332  43.052   7.915
 1464POPC   C4A20694  15.258  42.785   7.559
 1464POPC   C1B20695  14.821  42.873   8.759
 1464POPC   C2B20696  15.004  42.916   8.325
 1464POPC   C3B20697  14.864  42.840   7.899
 1464POPC   C4B20698  14.460  42.798   7.718
 1465POPC   NC320699  14.218  13.433   9.495
 1465POPC   PO420700  14.358  14.054   9.467
 1465POPC   GL120701  14.446  13.867   9.145
 1465POPC   GL220702  14.693  13.638   9.282
 1465POPC   C1A20703  14.247  13.658   8.824
 1465POPC   D2A20704  14.042  13.668   8.453
 1465POPC   C3A20705  14.169  13.471   8.073
 1465POPC   C4A20706  14.137  13.683   7.680
 1465POPC   C1B20707  14.754  13.560   8.853
 1465POPC   C2B20708  14.598  13.521   8.444
 1465POPC   C3B20709  14.699  13.346   8.084
 1465POPC   C4B20710  14.757  13.601   7.738
 1466POPC   NC320711  23.342  38.124   9.576
 1466POPC   PO420712  23.171  37.460   9.461
 1466POPC   GL120713  22.952  37.661   9.114
 1466POPC   GL220714  23.059  37.951   9.169
 1466POPC   C1A20715  22.793  37.670   8.643
 1466POPC   D2A20716  22.818  37.576   8.172
 1466POPC   C3A20717  23.186  37.590   7.986
 1466POPC   C4A20718  23.228  37.758   7.636
 1466POPC   C1B20719  23.140  38.043   8.736
 1466POPC   C2B20720  22.985  38.038   8.289
 1466POPC   C3B20721  22.863  38.055   7.839
 1466POPC   C4B20722  23.122  38.209   7.462
 1467POPC   NC320723  15.216  44.341   9.372
 1467POPC   PO420724  14.950  44.922   9.639
 1467POPC   GL120725  15.056  44.797   9.168
 1467POPC   GL220726  14.991  44.470   8.936
 1467POPC   C1A20727  15.287  44.863   8.751
 1467POPC   D2A20728  15.452  44.911   8.304
 1467POPC   C3A20729  15.173  44.825   7.940
 1467POPC   C4A20730  15.144   0.002   7.533
 1467POPC   C1B20731  15.410  44.377   8.714
 1467POPC   C2B20732  15.541  44.401   8.254
 1467POPC   C3B20733  15.273  44.321   7.882
 1467POPC   C4B20734  15.150  44.488   7.471
 1468POPC   NC320735   3.524   5.659   9.422
 1468POPC   PO420736   3.541   6.296   9.466
 1468POPC   GL120737   3.536   6.079   9.109
 1468POPC   GL220738   3.171   6.043   9.121
 1468POPC   C1A20739   3.772   5.819   8.802
 1468POPC   D2A20740   3.610   5.659   8.415
 1468POPC   C3A20741   3.651   6.000   8.119
 1468POPC   C4A20742   3.644   5.945   7.672
 1468POPC   C1B20743   3.267   6.042   8.669
 1468POPC   C2B20744   3.120   5.820   8.289
 1468POPC   C3B20745   3.343   5.637   7.932
 1468POPC   C4B20746   3.269   5.567   7.450
 1469POPC   NC320747  44.134  12.558   9.574
 1469POPC   PO420748  43.915  11.949   9.507
 1469POPC   GL120749  43.745  12.051   9.095
 1469POPC   GL220750  43.948  12.328   9.142
 1469POPC   C1A20751  43.728  11.873   8.697
 1469POPC   D2A20752  43.729  12.169   8.379
 1469POPC   C3A20753  43.606  11.974   8.023
 1469POPC   C4A20754  43.720  12.081   7.598
 1469POPC   C1B20755  44.195  12.010   8.872
 1469POPC   C2B20756  44.178  11.918   8.424
 1469POPC   C3B20757  44.102  12.076   7.994
 1469POPC   C4B20758  44.163  11.832   7.594
 1470POPC   NC320759  16.371  34.794   9.447
 1470POPC   PO420760  16.866  34.360   9.522
 1470POPC   GL120761  16.605  34.433   9.168
 1470POPC   GL220762  16.704  34.775   9.060
 1470POPC   C1A20763  16.486  34.228   8.784
 1470POPC   D2A20764  16.557  34.333   8.337
 1470POPC   C3A20765  16.441  34.291   7.921
 1470POPC   C4A20766  16.832  34.105   7.722
 1470POPC   C1B20767  16.554  34.732   8.640
 1470POPC   C2B20768  16.645  34.835   8.211
 1470POPC   C3B20769  16.705  34.713   7.809
 1470POPC   C4B20770  16.520  34.825   7.385
 1471POPC   NC320771  36.903  35.965   9.403
 1471POPC   PO420772  36.649  36.563   9.558
 1471POPC   GL120773  36.625  36.331   9.161
 1471POPC   GL220774  36.954  36.251   8.977
 1471POPC   C1A20775  36.512  36.246   8.730
 1471POPC   D2A20776  36.754  35.956   8.547
 1471POPC   C3A20777  36.801  36.101   8.178
 1471POPC   C4A20778  36.619  35.920   7.834
 1471POPC   C1B20779  37.151  35.822   8.826
 1471POPC   C2B20780  37.271  35.709   8.403
 1471POPC   C3B20781  37.134  35.766   7.972
 1471POPC   C4B20782  37.084  36.142   7.749
 1472POPC   NC320783  16.576  26.466   9.467
 1472POPC   PO420784  17.082  26.891   9.478
 1472POPC   GL120785  16.898  26.699   9.150
 1472POPC   GL220786  16.678  27.009   9.122
 1472POPC   C1A20787  16.630  26.631   8.775
 1472POPC   D2A20788  16.378  26.707   8.389
 1472POPC   C3A20789  16.532  26.574   7.977
 1472POPC   C4A20790  16.671  26.647   7.531
 1472POPC   C1B20791  16.641  27.192   8.698
 1472POPC   C2B20792  16.661  27.186   8.249
 1472POPC   C3B20793  16.655  27.111   7.790
 1472POPC   C4B20794  16.413  27.053   7.397
 1473POPC   NC320795  21.312  19.853   9.689
 1473POPC   PO420796  21.590  19.479   9.257
 1473POPC   GL120797  21.384  19.804   9.090
 1473POPC   GL220798  21.099  19.959   9.206
 1473POPC   C1A20799  21.385  19.734   8.680
 1473POPC   D2A20800  21.638  19.592   8.390
 1473POPC   C3A20801  21.415  19.574   8.017
 1473POPC   C4A20802  21.631  19.826   7.759
 1473POPC   C1B20803  21.101  20.165   8.810
 1473POPC   C2B20804  21.027  20.330   8.417
 1473POPC   C3B20805  21.260  20.445   8.083
 1473POPC   C4B20806  21.214  20.091   7.851
 1474POPC   NC320807  13.020  23.611   9.533
 1474POPC   PO420808  12.306  23.858   9.557
 1474POPC   GL120809  12.630  23.673   9.218
 1474POPC   GL220810  12.910  23.914   9.154
 1474POPC   C1A20811  12.904  23.531   8.827
 1474POPC   D2A20812  13.146  23.556   8.431
 1474POPC   C3A20813  12.938  23.538   8.001
 1474POPC   C4A20814  12.948  23.505   7.504
 1474POPC   C1B20815  12.689  23.994   8.780
 1474POPC   C2B20816  12.732  23.871   8.366
 1474POPC   C3B20817  12.549  23.928   7.988
 1474POPC   C4B20818  12.810  23.958   7.675
 1475POPC   NC320819  34.131  40.033   9.720
 1475POPC   PO420820  33.705  40.290   9.295
 1475POPC   GL120821  33.747  40.007   8.999
 1475POPC   GL220822  33.746  39.675   9.076
 1475POPC   C1A20823  33.820  40.044   8.591
 1475POPC   D2A20824  33.925  40.349   8.313
 1475POPC   C3A20825  33.658  40.350   8.006
 1475POPC   C4A20826  33.953  40.308   7.727
 1475POPC   C1B20827  33.542  39.612   8.693
 1475POPC   C2B20828  33.560  39.754   8.277
 1475POPC   C3B20829  33.855  39.870   7.999
 1475POPC   C4B20830  34.025  39.785   7.612
 1476POPC   NC320831  34.299  22.749   9.499
 1476POPC   PO420832  34.702  23.161   9.572
 1476POPC   GL120833  34.772  22.976   9.166
 1476POPC   GL220834  34.628  22.678   9.127
 1476POPC   C1A20835  34.657  22.989   8.723
 1476POPC   D2A20836  34.491  23.144   8.362
 1476POPC   C3A20837  34.742  23.056   8.015
 1476POPC   C4A20838  34.636  23.095   7.619
 1476POPC   C1B20839  34.284  22.628   8.805
 1476POPC   C2B20840  34.105  22.792   8.411
 1476POPC   C3B20841  34.220  22.945   7.978
 1476POPC   C4B20842  34.341  22.693   7.612
 1477POPC   NC320843  42.191  40.880   9.521
 1477POPC   PO420844  42.721  40.405   9.644
 1477POPC   GL120845  42.612  40.665   9.205
 1477POPC   GL220846  42.419  41.014   9.098
 1477POPC   C1A20847  42.406  40.591   8.779
 1477POPC   D2A20848  42.077  40.604   8.434
 1477POPC   C3A20849  42.342  40.558   8.047
 1477POPC   C4A20850  42.454  40.662   7.612
 1477POPC   C1B20851  42.245  41.118   8.694
 1477POPC   C2B20852  42.331  41.015   8.271
 1477POPC   C3B20853  42.235  41.097   7.849
 1477POPC   C4B20854  42.529  41.197   7.565
 1478POPC   NC320855  12.612  43.710   9.431
 1478POPC   PO420856  13.287  44.035   9.419
 1478POPC   GL120857  12.975  43.963   9.156
 1478POPC   GL220858  12.984  43.606   9.111
 1478POPC   C1A20859  13.000  43.939   8.724
 1478POPC   D2A20860  12.786  43.991   8.356
 1478POPC   C3A20861  12.991  44.011   7.970
 1478POPC   C4A20862  12.618  44.067   7.758
 1478POPC   C1B20863  12.702  43.422   8.818
 1478POPC   C2B20864  12.525  43.355   8.409
 1478POPC   C3B20865  12.594  43.612   8.052
 1478POPC   C4B20866  12.851  43.592   7.710
 1479POPC   NC320867  18.711  26.012   9.474
 1479POPC   PO420868  19.403  25.941   9.460
 1479POPC   GL120869  19.213  26.053   9.080
 1479POPC   GL220870  18.877  25.905   9.003
 1479POPC   C1A20871  19.139  26.203   8.667
 1479POPC   D2A20872  19.065  25.995   8.300
 1479POPC   C3A20873  18.906  26.190   7.951
 1479POPC   C4A20874  19.142  26.089   7.576
 1479POPC   C1B20875  18.658  25.867   8.589
 1479POPC   C2B20876  18.673  25.690   8.128
 1479POPC   C3B20877  18.770  25.762   7.672
 1479POPC   C4B20878  18.633  25.895   7.199
 1480POPC   NC320879  22.977  25.419   9.536
 1480POPC   PO420880  22.927  24.762   9.714
 1480POPC   GL120881  22.903  24.978   9.254
 1480POPC   GL220882  22.873  25.285   9.056
 1480POPC   C1A20883  23.112  24.946   8.802
 1480POPC   D2A20884  22.890  25.165   8.486
 1480POPC   C3A20885  22.971  25.158   8.044
 1480POPC   C4A20886  22.709  25.414   7.785
 1480POPC   C1B20887  23.200  25.480   8.756
 1480POPC   C2B20888  23.321  25.731   8.380
 1480POPC   C3B20889  23.226  25.634   7.929
 1480POPC   C4B20890  23.093  25.677   7.508
 1481POPC   NC320891  31.940   2.421   9.774
 1481POPC   PO420892  32.373   2.975   9.521
 1481POPC   GL120893  32.547   2.973   9.088
 1481POPC   GL220894  32.214   2.859   9.020
 1481POPC   C1A20895  32.524   2.879   8.614
 1481POPC   D2A20896  32.141   2.720   8.316
 1481POPC   C3A20897  32.262   2.449   7.912
 1481POPC   C4A20898  32.491   2.173   7.587
 1481POPC   C1B20899  32.107   3.165   8.704
 1481POPC   C2B20900  32.295   3.218   8.300
 1481POPC   C3B20901  32.408   2.956   7.973
 1481POPC   C4B20902  32.102   2.862   7.663
 1482POPC   NC320903  20.977   6.796   9.419
 1482POPC   PO420904  20.418   6.428   9.465
 1482POPC   GL120905  20.637   6.572   9.111
 1482POPC   GL220906  20.680   6.937   9.035
 1482POPC   C1A20907  20.550   6.552   8.690
 1482POPC   D2A20908  20.153   6.577   8.482
 1482POPC   C3A20909  20.252   6.490   8.069
 1482POPC   C4A20910  20.626   6.618   7.868
 1482POPC   C1B20911  20.366   7.006   8.722
 1482POPC   C2B20912  20.508   6.908   8.308
 1482POPC   C3B20913  20.560   7.125   7.940
 1482POPC   C4B20914  20.286   7.172   7.601
 1483POPC   NC320915   2.158  16.219   9.431
 1483POPC   PO420916   2.105  15.585   9.441
 1483POPC   GL120917   1.851  15.715   9.100
 1483POPC   GL220918   1.747  16.059   9.141
 1483POPC   C1A20919   2.029  15.825   8.686
 1483POPC   D2A20920   2.251  16.081   8.387
 1483POPC   C3A20921   2.181  15.950   7.961
 1483POPC   C4A20922   2.149  16.070   7.503
 1483POPC   C1B20923   1.601  16.065   8.721
 1483POPC   C2B20924   1.740  16.006   8.266
 1483POPC   C3B20925   1.710  16.054   7.798
 1483POPC   C4B20926   1.644  16.165   7.327
 1484POPC   NC320927   1.264  30.257   9.454
 1484POPC   PO420928   0.859  30.806   9.384
 1484POPC   GL120929   0.995  30.466   9.048
 1484POPC   GL220930   1.383  30.349   8.979
 1484POPC   C1A20931   1.059  30.492   8.586
 1484POPC   D2A20932   1.089  30.799   8.233
 1484POPC   C3A20933   0.904  30.634   7.828
 1484POPC   C4A20934   0.884  30.783   7.388
 1484POPC   C1B20935   1.497  30.691   8.743
 1484POPC   C2B20936   1.558  30.618   8.324
 1484POPC   C3B20937   1.438  30.633   7.898
 1484POPC   C4B20938   1.341  30.581   7.479
 1485POPC   NC320939  25.055   9.440   9.374
 1485POPC   PO420940  25.396   9.978   9.531
 1485POPC   GL120941  25.403   9.793   9.127
 1485POPC   GL220942  25.062   9.847   9.079
 1485POPC   C1A20943  25.266   9.516   8.763
 1485POPC   D2A20944  25.020   9.511   8.406
 1485POPC   C3A20945  25.174   9.789   8.108
 1485POPC   C4A20946  25.445   9.686   7.763
 1485POPC   C1B20947  25.108  10.000   8.648
 1485POPC   C2B20948  24.892  10.214   8.308
 1485POPC   C3B20949  24.839  10.184   7.865
 1485POPC   C4B20950  24.954   9.788   7.643
 1486POPC   NC320951  39.593   4.811   9.626
 1486POPC   PO420952  40.111   5.153   9.629
 1486POPC   GL120953  39.832   5.252   9.307
 1486POPC   GL220954  40.156   5.252   9.125
 1486POPC   C1A20955  39.722   5.235   8.864
 1486POPC   D2A20956  40.020   5.236   8.517
 1486POPC   C3A20957  39.899   5.051   8.132
 1486POPC   C4A20958  39.881   5.235   7.751
 1486POPC   C1B20959  40.490   5.138   8.846
 1486POPC   C2B20960  40.586   5.199   8.463
 1486POPC   C3B20961  40.390   5.150   8.132
 1486POPC   C4B20962  40.369   5.264   7.787
 1487POPC   NC320963  21.936  19.184   9.350
 1487POPC   PO420964  22.546  19.327   9.500
 1487POPC   GL120965  22.386  19.207   9.098
 1487POPC   GL220966  22.233  18.851   9.108
 1487POPC   C1A20967  22.239  19.149   8.670
 1487POPC   D2A20968  22.075  19.303   8.277
 1487POPC   C3A20969  22.265  19.122   7.907
 1487POPC   C4A20970  22.391  19.293   7.490
 1487POPC   C1B20971  21.945  18.726   8.788
 1487POPC   C2B20972  21.972  18.793   8.372
 1487POPC   C3B20973  21.901  18.748   7.958
 1487POPC   C4B20974  22.060  18.853   7.533
 1488POPC   NC320975   8.125   7.232   9.515
 1488POPC   PO420976   8.517   7.722   9.422
 1488POPC   GL120977   8.196   7.583   9.119
 1488POPC   GL220978   7.820   7.600   9.156
 1488POPC   C1A20979   8.145   7.613   8.695
 1488POPC   D2A20980   8.126   7.408   8.311
 1488POPC   C3A20981   8.106   7.651   7.962
 1488POPC   C4A20982   8.234   7.364   7.619
 1488POPC   C1B20983   7.733   7.354   8.766
 1488POPC   C2B20984   7.665   7.226   8.328
 1488POPC   C3B20985   7.754   7.298   7.857
 1488POPC   C4B20986   7.848   7.651   7.517
 1489POPC   NC320987  40.059  18.173   9.476
 1489POPC   PO420988  40.631  18.198   9.403
 1489POPC   GL120989  40.235  18.160   9.025
 1489POPC   GL220990  39.789  18.216   9.074
 1489POPC   C1A20991  40.081  18.341   8.662
 1489POPC   D2A20992  40.239  18.390   8.277
 1489POPC   C3A20993  40.213  18.114   7.940
 1489POPC   C4A20994  40.294  18.479   7.765
 1489POPC   C1B20995  39.771  17.935   8.755
 1489POPC   C2B20996  39.903  17.961   8.343
 1489POPC   C3B20997  39.748  18.251   8.039
 1489POPC   C4B20998  39.806  18.345   7.597
 1490POPC   NC320999  16.422   0.325   9.857
 1490POPC   PO421000  16.923   0.568   9.522
 1490POPC   GL121001  16.787   0.453   9.145
 1490POPC   GL221002  16.438   0.398   9.137
 1490POPC   C1A21003  16.751   0.271   8.749
 1490POPC   D2A21004  16.710   0.471   8.391
 1490POPC   C3A21005  16.768   0.288   8.029
 1490POPC   C4A21006  16.448   0.407   7.776
 1490POPC   C1B21007  16.342   0.623   8.732
 1490POPC   C2B21008  16.225   0.671   8.267
 1490POPC   C3B21009  16.245   0.860   7.833
 1490POPC   C4B21010  16.383   0.776   7.368
 1491POPC   NC321011  33.910  34.191   9.403
 1491POPC   PO421012  33.552  34.752   9.633
 1491POPC   GL121013  33.486  34.461   9.249
 1491POPC   GL221014  33.798  34.523   9.035
 1491POPC   C1A21015  33.359  34.381   8.794
 1491POPC   D2A21016  33.245  34.359   8.366
 1491POPC   C3A21017  33.532  34.568   8.139
 1491POPC   C4A21018  33.641  34.486   7.775
 1491POPC   C1B21019  34.106  34.754   8.776
 1491POPC   C2B21020  34.236  34.628   8.417
 1491POPC   C3B21021  34.085  34.539   8.033
 1491POPC   C4B21022  34.093  34.285   7.679
 1492POPC   NC321023  24.914  33.962   9.477
 1492POPC   PO421024  25.192  34.642   9.597
 1492POPC   GL121025  25.271  34.339   9.260
 1492POPC   GL221026  24.939  34.360   9.163
 1492POPC   C1A21027  25.419  34.430   8.842
 1492POPC   D2A21028  25.429  34.754   8.493
 1492POPC   C3A21029  25.499  34.607   8.052
 1492POPC   C4A21030  25.513  34.366   7.636
 1492POPC   C1B21031  24.979  34.702   8.860
 1492POPC   C2B21032  24.903  34.740   8.434
 1492POPC   C3B21033  24.906  34.536   8.034
 1492POPC   C4B21034  25.094  34.732   7.694
 1493POPC   NC321035  13.184  31.963   9.148
 1493POPC   PO421036  12.963  32.212   9.716
 1493POPC   GL121037  12.898  32.435   9.179
 1493POPC   GL221038  13.145  32.451   8.894
 1493POPC   C1A21039  12.679  32.567   8.774
 1493POPC   D2A21040  12.521  32.499   8.340
 1493POPC   C3A21041  12.836  32.398   8.023
 1493POPC   C4A21042  12.796  32.440   7.580
 1493POPC   C1B21043  12.985  32.177   8.538
 1493POPC   C2B21044  13.244  32.065   8.174
 1493POPC   C3B21045  13.209  32.132   7.736
 1493POPC   C4B21046  13.067  32.110   7.297
 1494POPC   NC321047  37.870  21.068   9.485
 1494POPC   PO421048  37.809  21.717   9.614
 1494POPC   GL121049  37.753  21.636   9.198
 1494POPC   GL221050  37.622  21.303   9.106
 1494POPC   C1A21051  37.881  21.603   8.752
 1494POPC   D2A21052  37.687  21.576   8.363
 1494POPC   C3A21053  37.919  21.654   7.999
 1494POPC   C4A21054  37.735  21.517   7.645
 1494POPC   C1B21055  37.869  21.060   8.801
 1494POPC   C2B21056  38.018  21.019   8.372
 1494POPC   C3B21057  37.755  21.166   8.022
 1494POPC   C4B21058  37.781  21.018   7.588
 1495POPC   NC321059   4.705  30.365   9.619
 1495POPC   PO421060   4.335  29.776   9.494
 1495POPC   GL121061   4.214  29.790   9.090
 1495POPC   GL221062   4.399  29.470   9.064
 1495POPC   C1A21063   4.322  29.917   8.653
 1495POPC   D2A21064   4.578  30.005   8.268
 1495POPC   C3A21065   4.361  30.079   7.894
 1495POPC   C4A21066   3.959  29.966   7.769
 1495POPC   C1B21067   4.077  29.453   8.730
 1495POPC   C2B21068   4.000  29.583   8.307
 1495POPC   C3B21069   4.319  29.590   8.004
 1495POPC   C4B21070   4.378  29.680   7.564
 1496POPC   NC321071  20.510  19.364   9.634
 1496POPC   PO421072  20.874  18.815   9.472
 1496POPC   GL121073  20.622  19.065   9.210
 1496POPC   GL221074  20.390  18.856   9.058
 1496POPC   C1A21075  20.590  19.289   8.822
 1496POPC   D2A21076  20.695  19.408   8.403
 1496POPC   C3A21077  20.442  19.284   8.052
 1496POPC   C4A21078  20.564  19.227   7.643
 1496POPC   C1B21079  20.735  18.820   8.731
 1496POPC   C2B21080  20.595  18.863   8.297
 1496POPC   C3B21081  20.795  18.845   7.891
 1496POPC   C4B21082  20.731  18.804   7.400
 1497POPC   NC321083  20.257  38.300   9.442
 1497POPC   PO421084  20.938  38.331   9.484
 1497POPC   GL121085  20.688  38.181   9.156
 1497POPC   GL221086  20.560  38.538   9.112
 1497POPC   C1A21087  20.672  38.253   8.712
 1497POPC   D2A21088  20.430  38.261   8.382
 1497POPC   C3A21089  20.627  38.276   8.047
 1497POPC   C4A21090  20.706  38.031   7.736
 1497POPC   C1B21091  20.300  38.617   8.724
 1497POPC   C2B21092  20.086  38.627   8.305
 1497POPC   C3B21093  20.156  38.557   7.890
 1497POPC   C4B21094  20.432  38.439   7.621
 1498POPC   NC321095  15.703   5.139   9.595
 1498POPC   PO421096  16.210   5.512   9.569
 1498POPC   GL121097  16.049   5.434   9.114
 1498POPC   GL221098  15.777   5.176   9.028
 1498POPC   C1A21099  15.987   5.419   8.633
 1498POPC   D2A21100  15.861   5.096   8.338
 1498POPC   C3A21101  15.977   5.105   7.910
 1498POPC   C4A21102  16.022   5.148   7.457
 1498POPC   C1B21103  15.436   5.118   8.663
 1498POPC   C2B21104  15.247   4.949   8.239
 1498POPC   C3B21105  15.502   4.897   7.840
 1498POPC   C4B21106  15.851   4.704   7.595
 1499POPC   NC321107  27.980  24.109   9.555
 1499POPC   PO421108  27.379  23.685   9.536
 1499POPC   GL121109  27.526  23.655   9.113
 1499POPC   GL221110  27.659  23.953   9.150
 1499POPC   C1A21111  27.588  23.397   8.700
 1499POPC   D2A21112  27.756  23.205   8.281
 1499POPC   C3A21113  27.803  23.497   7.929
 1499POPC   C4A21114  27.497  23.699   7.667
 1499POPC   C1B21115  27.892  24.008   8.786
 1499POPC   C2B21116  27.826  23.852   8.375
 1499POPC   C3B21117  27.714  24.051   7.999
 1499POPC   C4B21118  27.915  24.073   7.639
 1500POPC   NC321119  39.086   4.303   9.584
 1500POPC   PO421120  39.711   4.359   9.628
 1500POPC   GL121121  39.399   4.401   9.196
 1500POPC   GL221122  38.972   4.379   9.107
 1500POPC   C1A21123  39.306   4.326   8.729
 1500POPC   D2A21124  39.207   4.200   8.290
 1500POPC   C3A21125  39.378   4.507   7.971
 1500POPC   C4A21126  39.696   4.731   7.733
 1500POPC   C1B21127  38.856   4.624   8.728
 1500POPC   C2B21128  38.969   4.706   8.276
 1500POPC   C3B21129  38.880   4.444   7.874
 1500POPC   C4B21130  38.781   4.623   7.448
 1501POPC   NC321131  21.990   8.557   9.584
 1501POPC   PO421132  22.357   7.995   9.567
 1501POPC   GL121133  22.121   8.163   9.246
 1501POPC   GL221134  22.334   8.426   9.217
 1501POPC   C1A21135  21.917   8.095   8.850
 1501POPC   D2A21136  22.040   8.206   8.412
 1501POPC   C3A21137  21.963   7.993   7.987
 1501POPC   C4A21138  22.287   7.883   7.657
 1501POPC   C1B21139  22.465   8.610   8.827
 1501POPC   C2B21140  22.311   8.667   8.405
 1501POPC   C3B21141  22.134   8.525   8.013
 1501POPC   C4B21142  22.455   8.355   7.775
 1502POPC   NC321143  41.460  16.381   9.681
 1502POPC   PO421144  41.871  15.766   9.505
 1502POPC   GL121145  41.637  15.868   9.085
 1502POPC   GL221146  41.493  16.218   9.008
 1502POPC   C1A21147  41.514  15.803   8.685
 1502POPC   D2A21148  41.748  15.997   8.350
 1502POPC   C3A21149  41.719  15.885   7.918
 1502POPC   C4A21150  42.054  16.032   7.651
 1502POPC   C1B21151  41.377  16.294   8.577
 1502POPC   C2B21152  41.204  15.965   8.295
 1502POPC   C3B21153  41.182  15.841   7.869
 1502POPC   C4B21154  41.324  16.150   7.583
 1503POPC   NC321155  23.250  14.453   9.500
 1503POPC   PO421156  22.669  14.114   9.678
 1503POPC   GL121157  22.819  14.259   9.270
 1503POPC   GL221158  23.154  14.126   9.123
 1503POPC   C1A21159  22.716  14.305   8.836
 1503POPC   D2A21160  22.821  14.553   8.472
 1503POPC   C3A21161  22.786  14.294   8.105
 1503POPC   C4A21162  22.788  14.395   7.667
 1503POPC   C1B21163  23.245  14.364   8.762
 1503POPC   C2B21164  23.258  14.303   8.328
 1503POPC   C3B21165  23.264  14.346   7.901
 1503POPC   C4B21166  23.243  14.146   7.529
 1504POPC   NC321167  26.826  26.366   9.378
 1504POPC   PO421168  26.611  27.027   9.512
 1504POPC   GL121169  26.828  26.868   9.139
 1504POPC   GL221170  27.174  26.659   9.146
 1504POPC   C1A21171  26.635  26.920   8.737
 1504POPC   D2A21172  26.807  27.026   8.350
 1504POPC   C3A21173  26.610  26.899   7.976
 1504POPC   C4A21174  26.666  26.681   7.613
 1504POPC   C1B21175  27.042  26.614   8.710
 1504POPC   C2B21176  26.783  26.518   8.357
 1504POPC   C3B21177  26.983  26.350   7.988
 1504POPC   C4B21178  27.221  26.510   7.642
 1505POPC   NC321179  27.567   6.718   9.824
 1505POPC   PO421180  27.225   6.858   9.259
 1505POPC   GL121181  27.520   6.565   9.074
 1505POPC   GL221182  27.720   6.822   9.008
 1505POPC   C1A21183  27.823   6.432   8.700
 1505POPC   D2A21184  27.800   6.603   8.276
 1505POPC   C3A21185  27.722   6.418   7.889
 1505POPC   C4A21186  27.526   6.700   7.584
 1505POPC   C1B21187  27.529   6.891   8.632
 1505POPC   C2B21188  27.618   7.137   8.286
 1505POPC   C3B21189  27.565   7.126   7.851
 1505POPC   C4B21190  27.510   7.183   7.362
 1506POPC   NC321191  35.107  40.636   9.332
 1506POPC   PO421192  35.642  41.086   9.380
 1506POPC   GL121193  35.484  40.887   9.051
 1506POPC   GL221194  35.625  40.582   9.084
 1506POPC   C1A21195  35.270  40.821   8.669
 1506POPC   D2A21196  35.223  40.699   8.241
 1506POPC   C3A21197  35.248  40.979   7.863
 1506POPC   C4A21198  35.520  40.910   7.482
 1506POPC   C1B21199  35.618  40.450   8.679
 1506POPC   C2B21200  35.751  40.674   8.311
 1506POPC   C3B21201  35.610  40.628   7.908
 1506POPC   C4B21202  35.231  40.440   7.778
 1507POPC   NC321203   4.846   6.876   9.505
 1507POPC   PO421204   5.198   6.327   9.519
 1507POPC   GL121205   5.007   6.530   9.184
 1507POPC   GL221206   5.240   6.782   9.155
 1507POPC   C1A21207   4.840   6.559   8.771
 1507POPC   D2A21208   4.932   6.304   8.375
 1507POPC   C3A21209   5.348   6.404   8.177
 1507POPC   C4A21210   5.229   6.601   7.820
 1507POPC   C1B21211   5.161   6.958   8.785
 1507POPC   C2B21212   5.087   6.791   8.389
 1507POPC   C3B21213   4.949   6.954   8.029
 1507POPC   C4B21214   5.225   7.191   7.790
 1508POPC   NC321215  38.954  36.281   9.589
 1508POPC   PO421216  39.395  35.774   9.463
 1508POPC   GL121217  39.063  35.961   9.213
 1508POPC   GL221218  39.236  35.879   8.967
 1508POPC   C1A21219  39.017  36.301   8.878
 1508POPC   D2A21220  39.168  36.251   8.475
 1508POPC   C3A21221  39.187  36.481   8.091
 1508POPC   C4A21222  39.156  36.235   7.710
 1508POPC   C1B21223  39.614  35.764   8.821
 1508POPC   C2B21224  39.637  36.067   8.525
 1508POPC   C3B21225  39.502  36.056   8.098
 1508POPC   C4B21226  39.866  35.936   7.882
 1509POPC   NC321227  21.906  26.070   9.544
 1509POPC   PO421228  22.456  25.620   9.512
 1509POPC   GL121229  22.298  25.871   9.174
 1509POPC   GL221230  21.982  25.778   9.113
 1509POPC   C1A21231  22.347  26.037   8.735
 1509POPC   D2A21232  22.430  25.931   8.302
 1509POPC   C3A21233  22.283  26.130   7.910
 1509POPC   C4A21234  22.456  26.308   7.568
 1509POPC   C1B21235  21.809  26.048   8.806
 1509POPC   C2B21236  21.928  26.131   8.406
 1509POPC   C3B21237  21.835  26.369   8.058
 1509POPC   C4B21238  21.809  26.039   7.753
 1510POPC   NC321239   2.544  39.909   9.253
 1510POPC   PO421240   1.869  39.861   9.474
 1510POPC   GL121241   2.039  39.961   9.085
 1510POPC   GL221242   2.156  40.304   9.051
 1510POPC   C1A21243   2.210  39.898   8.683
 1510POPC   D2A21244   1.930  39.801   8.367
 1510POPC   C3A21245   2.060  39.888   7.962
 1510POPC   C4A21246   1.752  39.739   7.660
 1510POPC   C1B21247   1.869  40.278   8.674
 1510POPC   C2B21248   1.970  40.313   8.248
 1510POPC   C3B21249   1.822  40.310   7.824
 1510POPC   C4B21250   1.882  40.600   7.485
 1511POPC   NC321251  41.437   7.068   9.360
 1511POPC   PO421252  41.951   7.481   9.360
 1511POPC   GL121253  41.624   7.474   9.082
 1511POPC   GL221254  41.546   7.845   9.058
 1511POPC   C1A21255  41.528   7.331   8.666
 1511POPC   D2A21256  41.381   7.504   8.266
 1511POPC   C3A21257  41.387   7.443   7.811
 1511POPC   C4A21258  41.721   7.198   7.646
 1511POPC   C1B21259  41.908   7.744   8.756
 1511POPC   C2B21260  41.943   7.495   8.401
 1511POPC   C3B21261  41.826   7.589   8.029
 1511POPC   C4B21262  41.961   7.621   7.644
 1512POPC   NC321263  26.218  28.358   9.472
 1512POPC   PO421264  25.743  28.110   9.192
 1512POPC   GL121265  26.076  28.384   9.004
 1512POPC   GL221266  26.275  28.709   9.061
 1512POPC   C1A21267  26.135  28.450   8.634
 1512POPC   D2A21268  25.923  28.184   8.410
 1512POPC   C3A21269  26.114  28.236   8.077
 1512POPC   C4A21270  26.096  28.166   7.698
 1512POPC   C1B21271  26.317  28.943   8.675
 1512POPC   C2B21272  26.197  28.810   8.242
 1512POPC   C3B21273  26.142  28.655   7.804
 1512POPC   C4B21274  26.433  28.564   7.467
 1513POPC   NC321275   0.428   1.548   9.472
 1513POPC   PO421276   0.939   1.028   9.535
 1513POPC   GL121277   0.596   1.029   9.171
 1513POPC   GL221278   0.317   1.264   9.073
 1513POPC   C1A21279   0.572   1.076   8.690
 1513POPC   D2A21280   0.353   0.955   8.302
 1513POPC   C3A21281   0.402   1.237   7.947
 1513POPC   C4A21282   0.363   1.201   7.490
 1513POPC   C1B21283   0.456   1.572   8.742
 1513POPC   C2B21284   0.552   1.642   8.294
 1513POPC   C3B21285   0.839   1.660   7.940
 1513POPC   C4B21286   0.843   1.499   7.520
 1514POPC   NC321287  21.246  26.906   9.760
 1514POPC   PO421288  21.707  26.505   9.478
 1514POPC   GL121289  21.423  26.769   9.221
 1514POPC   GL221290  21.062  26.706   9.233
 1514POPC   C1A21291  21.493  26.931   8.788
 1514POPC   D2A21292  21.455  26.802   8.356
 1514POPC   C3A21293  21.270  27.025   8.013
 1514POPC   C4A21294  21.497  27.097   7.624
 1514POPC   C1B21295  21.159  26.558   8.810
 1514POPC   C2B21296  20.995  26.595   8.393
 1514POPC   C3B21297  21.204  26.506   8.033
 1514POPC   C4B21298  21.038  26.691   7.661
 1515POPC   NC321299  44.862  34.361   9.608
 1515POPC   PO421300  44.288  34.290   9.574
 1515POPC   GL121301  44.582  34.357   9.190
 1515POPC   GL221302  44.822  34.684   9.212
 1515POPC   C1A21303  44.647  34.190   8.768
 1515POPC   D2A21304  44.415  34.411   8.435
 1515POPC   C3A21305  44.582  34.383   8.019
 1515POPC   C4A21306  44.612  34.727   7.713
 1515POPC   C1B21307  44.975  34.985   8.874
 1515POPC   C2B21308  44.983  34.993   8.428
 1515POPC   C3B21309  44.938  35.045   7.969
 1515POPC   C4B21310  44.882  35.160   7.524
 1516POPC   NC321311  40.630  31.527   9.395
 1516POPC   PO421312  41.213  31.371   9.620
 1516POPC   GL121313  41.012  31.175   9.207
 1516POPC   GL221314  40.680  31.018   9.118
 1516POPC   C1A21315  40.982  31.369   8.782
 1516POPC   D2A21316  41.155  31.619   8.447
 1516POPC   C3A21317  40.967  31.412   8.079
 1516POPC   C4A21318  40.730  31.510   7.717
 1516POPC   C1B21319  40.508  31.198   8.708
 1516POPC   C2B21320  40.691  31.051   8.329
 1516POPC   C3B21321  40.612  31.046   7.892
 1516POPC   C4B21322  40.597  31.087   7.416
 1517POPC   NC321323  38.752  25.101   9.443
 1517POPC   PO421324  38.203  25.487   9.518
 1517POPC   GL121325  38.428  25.439   9.137
 1517POPC   GL221326  38.394  25.097   9.098
 1517POPC   C1A21327  38.545  25.358   8.686
 1517POPC   D2A21328  38.631  25.594   8.322
 1517POPC   C3A21329  38.532  25.341   8.008
 1517POPC   C4A21330  38.286  25.347   7.681
 1517POPC   C1B21331  38.602  24.860   8.749
 1517POPC   C2B21332  38.692  24.941   8.293
 1517POPC   C3B21333  38.803  24.924   7.839
 1517POPC   C4B21334  38.809  25.000   7.350
 1518POPC   NC321335  39.650  14.899   9.460
 1518POPC   PO421336  40.243  14.645   9.502
 1518POPC   GL121337  40.153  14.434   9.109
 1518POPC   GL221338  39.814  14.451   9.161
 1518POPC   C1A21339  40.185  14.336   8.674
 1518POPC   D2A21340  40.099  14.156   8.267
 1518POPC   C3A21341  40.107  14.521   8.016
 1518POPC   C4A21342  40.269  14.628   7.644
 1518POPC   C1B21343  39.713  14.171   8.813
 1518POPC   C2B21344  39.623  14.003   8.412
 1518POPC   C3B21345  39.710  13.938   7.985
 1518POPC   C4B21346  40.026  14.117   7.678
 1519POPC   NC321347  40.144  19.170   9.485
 1519POPC   PO421348  39.716  18.600   9.442
 1519POPC   GL121349  40.058  18.704   9.143
 1519POPC   GL221350  40.415  18.859   9.148
 1519POPC   C1A21351  40.011  18.849   8.729
 1519POPC   D2A21352  39.864  18.741   8.329
 1519POPC   C3A21353  39.842  19.046   8.029
 1519POPC   C4A21354  40.022  18.883   7.691
 1519POPC   C1B21355  40.377  19.208   8.839
 1519POPC   C2B21356  40.141  19.267   8.450
 1519POPC   C3B21357  40.342  19.127   8.082
 1519POPC   C4B21358  40.386  19.281   7.685
 1520POPC   NC321359   0.911   3.187   9.432
 1520POPC   PO421360   1.045   2.548   9.326
 1520POPC   GL121361   1.244   2.834   9.076
 1520POPC   GL221362   1.428   2.551   8.957
 1520POPC   C1A21363   1.173   3.010   8.714
 1520POPC   D2A21364   1.248   2.759   8.370
 1520POPC   C3A21365   1.035   2.842   8.023
 1520POPC   C4A21366   1.105   3.031   7.679
 1520POPC   C1B21367   1.188   2.337   8.653
 1520POPC   C2B21368   1.382   2.276   8.266
 1520POPC   C3B21369   1.437   2.554   7.912
 1520POPC   C4B21370   1.226   2.557   7.499
 1521POPC   NC321371  20.337  30.137   9.589
 1521POPC   PO421372  20.856  29.825   9.429
 1521POPC   GL121373  20.644  30.026   9.124
 1521POPC   GL221374  20.476  30.343   9.122
 1521POPC   C1A21375  20.683  30.013   8.698
 1521POPC   D2A21376  20.973  29.967   8.352
 1521POPC   C3A21377  20.790  29.898   7.938
 1521POPC   C4A21378  20.362  29.721   7.779
 1521POPC   C1B21379  20.182  30.275   8.750
 1521POPC   C2B21380  20.331  30.096   8.332
 1521POPC   C3B21381  20.375  30.217   7.901
 1521POPC   C4B21382  20.330  30.283   7.471
 1522POPC   NC321383  43.375  43.633   9.335
 1522POPC   PO421384  44.045  43.883   9.433
 1522POPC   GL121385  43.881  43.993   9.057
 1522POPC   GL221386  43.554  44.077   9.166
 1522POPC   C1A21387  44.051  43.969   8.642
 1522POPC   D2A21388  44.108  43.741   8.235
 1522POPC   C3A21389  44.029  43.975   7.832
 1522POPC   C4A21390  43.813  44.063   7.406
 1522POPC   C1B21391  43.439  44.055   8.753
 1522POPC   C2B21392  43.621  43.967   8.373
 1522POPC   C3B21393  43.617  43.703   8.059
 1522POPC   C4B21394  43.488  43.899   7.750
 1523POPC   NC321395  15.987  21.664   9.561
 1523POPC   PO421396  15.840  21.002   9.526
 1523POPC   GL121397  15.806  21.220   9.141
 1523POPC   GL221398  16.035  21.465   9.109
 1523POPC   C1A21399  15.892  21.223   8.684
 1523POPC   D2A21400  15.684  21.087   8.309
 1523POPC   C3A21401  15.996  21.178   8.003
 1523POPC   C4A21402  16.180  21.126   7.622
 1523POPC   C1B21403  16.229  21.645   8.769
 1523POPC   C2B21404  16.352  21.622   8.362
 1523POPC   C3B21405  16.241  21.836   8.001
 1523POPC   C4B21406  16.100  21.614   7.690
 1524POPC   NC321407  10.246  34.965   9.822
 1524POPC   PO421408  10.760  35.190   9.508
 1524POPC   GL121409  10.587  35.397   9.170
 1524POPC   GL221410  10.274  35.272   9.093
 1524POPC   C1A21411  10.563  35.525   8.754
 1524POPC   D2A21412  10.718  35.305   8.408
 1524POPC   C3A21413  10.601  35.534   8.051
 1524POPC   C4A21414  10.546  35.446   7.638
 1524POPC   C1B21415  10.338  35.088   8.711
 1524POPC   C2B21416  10.206  35.248   8.359
 1524POPC   C3B21417  10.306  35.136   7.975
 1524POPC   C4B21418  10.153  35.103   7.629
 1525POPC   NC321419  16.529  19.397   9.987
 1525POPC   PO421420  16.806  19.903   9.566
 1525POPC   GL121421  16.921  19.923   9.151
 1525POPC   GL221422  16.550  19.917   9.098
 1525POPC   C1A21423  16.871  20.059   8.726
 1525POPC   D2A21424  16.569  19.939   8.399
 1525POPC   C3A21425  16.639  20.079   7.983
 1525POPC   C4A21426  16.580  19.858   7.587
 1525POPC   C1B21427  16.680  19.586   8.800
 1525POPC   C2B21428  16.593  19.414   8.388
 1525POPC   C3B21429  16.712  19.568   7.996
 1525POPC   C4B21430  16.889  19.450   7.591
 1526POPC   NC321431  14.200  21.971   9.415
 1526POPC   PO421432  14.257  22.575   9.625
 1526POPC   GL121433  14.324  22.413   9.159
 1526POPC   GL221434  14.076  22.233   9.018
 1526POPC   C1A21435  14.468  22.323   8.721
 1526POPC   D2A21436  14.675  22.522   8.392
 1526POPC   C3A21437  14.616  22.308   8.027
 1526POPC   C4A21438  14.521  22.552   7.675
 1526POPC   C1B21439  13.939  22.355   8.620
 1526POPC   C2B21440  14.160  22.296   8.270
 1526POPC   C3B21441  14.152  22.066   7.884
 1526POPC   C4B21442  14.464  22.046   7.585
 1527POPC   NC321443  27.008  41.276   9.352
 1527POPC   PO421444  26.555  41.744   9.548
 1527POPC   GL121445  26.759  41.791   9.169
 1527POPC   GL221446  27.080  41.899   9.278
 1527POPC   C1A21447  26.726  41.611   8.751
 1527POPC   D2A21448  26.697  41.450   8.353
 1527POPC   C3A21449  26.832  41.540   7.915
 1527POPC   C4A21450  27.001  41.292   7.532
 1527POPC   C1B21451  27.111  41.934   8.812
 1527POPC   C2B21452  26.929  41.929   8.386
 1527POPC   C3B21453  27.176  41.936   8.019
 1527POPC   C4B21454  27.170  41.763   7.600
 1528POPC   NC321455  40.883  12.287   9.523
 1528POPC   PO421456  40.859  11.633   9.530
 1528POPC   GL121457  40.830  11.925   9.131
 1528POPC   GL221458  40.665  12.258   9.060
 1528POPC   C1A21459  40.930  12.067   8.685
 1528POPC   D2A21460  40.720  12.104   8.329
 1528POPC   C3A21461  40.931  12.024   8.003
 1528POPC   C4A21462  40.842  11.653   7.812
 1528POPC   C1B21463  40.434  12.385   8.655
 1528POPC   C2B21464  40.274  12.290   8.192
 1528POPC   C3B21465  40.431  12.110   7.776
 1528POPC   C4B21466  40.467  12.390   7.403
 1529POPC   NC321467  31.878  18.647   9.481
 1529POPC   PO421468  32.460  18.991   9.534
 1529POPC   GL121469  32.183  18.989   9.186
 1529POPC   GL221470  32.353  18.710   9.091
 1529POPC   C1A21471  32.115  19.076   8.738
 1529POPC   D2A21472  32.282  19.278   8.354
 1529POPC   C3A21473  32.027  19.210   8.000
 1529POPC   C4A21474  32.020  18.833   7.809
 1529POPC   C1B21475  32.561  18.838   8.710
 1529POPC   C2B21476  32.671  18.952   8.288
 1529POPC   C3B21477  32.508  19.008   7.875
 1529POPC   C4B21478  32.744  19.105   7.516
 1530POPC   NC321479   5.458   1.542   9.376
 1530POPC   PO421480   5.213   0.948   9.573
 1530POPC   GL121481   5.297   1.095   9.167
 1530POPC   GL221482   4.983   1.250   9.110
 1530POPC   C1A21483   5.381   1.346   8.763
 1530POPC   D2A21484   5.497   1.324   8.340
 1530POPC   C3A21485   5.196   1.333   7.978
 1530POPC   C4A21486   4.825   1.394   7.707
 1530POPC   C1B21487   5.055   0.947   8.726
 1530POPC   C2B21488   5.177   0.905   8.267
 1530POPC   C3B21489   4.899   0.895   7.891
 1530POPC   C4B21490   4.831   0.916   7.413
 1531POPC   NC321491  10.084  25.472   9.397
 1531POPC   PO421492   9.333  25.291   9.580
 1531POPC   GL121493   9.535  25.288   9.160
 1531POPC   GL221494   9.828  25.076   9.118
 1531POPC   C1A21495   9.746  25.481   8.790
 1531POPC   D2A21496   9.701  25.693   8.405
 1531POPC   C3A21497   9.756  25.417   8.050
 1531POPC   C4A21498  10.036  25.350   7.700
 1531POPC   C1B21499   9.581  24.986   8.735
 1531POPC   C2B21500   9.730  24.976   8.310
 1531POPC   C3B21501   9.815  24.915   7.882
 1531POPC   C4B21502   9.555  25.050   7.592
 1532POPC   NC321503  23.914   2.299   9.512
 1532POPC   PO421504  23.455   1.749   9.423
 1532POPC   GL121505  23.595   2.072   9.168
 1532POPC   GL221506  23.955   2.028   9.103
 1532POPC   C1A21507  23.553   2.070   8.742
 1532POPC   D2A21508  23.670   1.795   8.415
 1532POPC   C3A21509  23.533   1.995   8.043
 1532POPC   C4A21510  23.422   1.607   7.880
 1532POPC   C1B21511  24.100   1.905   8.729
 1532POPC   C2B21512  24.214   1.845   8.311
 1532POPC   C3B21513  23.963   1.737   7.967
 1532POPC   C4B21514  23.987   1.916   7.546
 1533POPC   NC321515  10.883  32.602   9.520
 1533POPC   PO421516  10.400  32.139   9.440
 1533POPC   GL121517  10.547  32.421   9.100
 1533POPC   GL221518  10.901  32.386   9.070
 1533POPC   C1A21519  10.632  32.388   8.622
 1533POPC   D2A21520  10.492  32.123   8.265
 1533POPC   C3A21521  10.500  32.361   7.864
 1533POPC   C4A21522  10.554  32.500   7.406
 1533POPC   C1B21523  11.006  32.100   8.807
 1533POPC   C2B21524  11.025  32.062   8.379
 1533POPC   C3B21525  10.873  31.963   7.975
 1533POPC   C4B21526  10.834  31.839   7.570
 1534POPC   NC321527  14.952  31.278   9.651
 1534POPC   PO421528  15.580  31.466   9.644
 1534POPC   GL121529  15.345  31.443   9.206
 1534POPC   GL221530  15.013  31.289   9.157
 1534POPC   C1A21531  15.448  31.338   8.733
 1534POPC   D2A21532  15.607  31.274   8.292
 1534POPC   C3A21533  15.500  31.642   8.063
 1534POPC   C4A21534  15.289  31.627   7.642
 1534POPC   C1B21535  14.969  31.532   8.807
 1534POPC   C2B21536  15.111  31.487   8.377
 1534POPC   C3B21537  15.157  31.247   7.994
 1534POPC   C4B21538  14.843  31.201   7.666
 1535POPC   NC321539   8.871   6.637   9.495
 1535POPC   PO421540   9.474   6.661   9.713
 1535POPC   GL121541   9.293   6.516   9.222
 1535POPC   GL221542   8.973   6.701   9.005
 1535POPC   C1A21543   9.222   6.336   8.803
 1535POPC   D2A21544   9.250   6.547   8.380
 1535POPC   C3A21545   8.895   6.656   8.135
 1535POPC   C4A21546   9.016   6.653   7.713
 1535POPC   C1B21547   8.864   6.995   8.662
 1535POPC   C2B21548   8.568   7.098   8.321
 1535POPC   C3B21549   8.709   7.094   7.887
 1535POPC   C4B21550   8.641   6.942   7.484
 1536POPC   NC321551  15.815  13.105   9.335
 1536POPC   PO421552  16.264  12.666   9.591
 1536POPC   GL121553  16.092  12.694   9.159
 1536POPC   GL221554  15.744  12.590   9.200
 1536POPC   C1A21555  16.054  12.981   8.758
 1536POPC   D2A21556  15.770  13.010   8.428
 1536POPC   C3A21557  15.962  13.052   8.029
 1536POPC   C4A21558  15.853  12.957   7.634
 1536POPC   C1B21559  15.773  12.547   8.780
 1536POPC   C2B21560  15.921  12.470   8.415
 1536POPC   C3B21561  15.793  12.542   8.002
 1536POPC   C4B21562  15.863  12.443   7.578
 1537POPC   NC321563  41.036  32.846   9.822
 1537POPC   PO421564  40.680  32.802   9.315
 1537POPC   GL121565  40.600  33.161   9.108
 1537POPC   GL221566  40.955  33.269   9.083
 1537POPC   C1A21567  40.605  33.148   8.691
 1537POPC   D2A21568  40.759  33.046   8.315
 1537POPC   C3A21569  40.566  33.061   7.929
 1537POPC   C4A21570  40.782  33.367   7.757
 1537POPC   C1B21571  41.100  32.956   8.766
 1537POPC   C2B21572  41.247  32.908   8.342
 1537POPC   C3B21573  41.057  32.900   7.919
 1537POPC   C4B21574  40.876  32.640   7.593
 1538POPC   NC321575  30.619  39.546   9.681
 1538POPC   PO421576  31.018  40.042   9.426
 1538POPC   GL121577  30.652  40.048   9.202
 1538POPC   GL221578  30.724  40.341   8.996
 1538POPC   C1A21579  30.505  39.896   8.807
 1538POPC   D2A21580  30.745  39.706   8.475
 1538POPC   C3A21581  30.630  39.942   8.116
 1538POPC   C4A21582  30.276  39.871   7.882
 1538POPC   C1B21583  30.930  40.174   8.644
 1538POPC   C2B21584  30.843  40.385   8.256
 1538POPC   C3B21585  30.857  40.327   7.809
 1538POPC   C4B21586  30.934  40.393   7.363
 1539POPC   NC321587  19.684  36.369   9.464
 1539POPC   PO421588  20.260  36.408   9.779
 1539POPC   GL121589  20.104  36.350   9.220
 1539POPC   GL221590  19.801  36.035   9.122
 1539POPC   C1A21591  19.898  36.422   8.811
 1539POPC   D2A21592  19.921  36.596   8.405
 1539POPC   C3A21593  19.748  36.314   8.091
 1539POPC   C4A21594  19.796  36.157   7.681
 1539POPC   C1B21595  19.600  35.838   8.783
 1539POPC   C2B21596  19.719  35.892   8.367
 1539POPC   C3B21597  19.513  35.830   7.985
 1539POPC   C4B21598  19.529  35.716   7.564
 1540POPC   NC321599   2.237   3.986   9.464
 1540POPC   PO421600   1.775   4.535   9.707
 1540POPC   GL121601   2.085   4.431   9.289
 1540POPC   GL221602   2.292   4.603   9.054
 1540POPC   C1A21603   2.048   4.218   8.820
 1540POPC   D2A21604   1.817   3.932   8.496
 1540POPC   C3A21605   1.857   4.052   8.028
 1540POPC   C4A21606   1.791   4.415   7.733
 1540POPC   C1B21607   2.120   4.694   8.635
 1540POPC   C2B21608   2.134   4.544   8.197
 1540POPC   C3B21609   2.289   4.439   7.798
 1540POPC   C4B21610   2.256   4.062   7.641
 1541POPC   NC321611   9.648   6.899   9.328
 1541POPC   PO421612   9.847   7.510   9.690
 1541POPC   GL121613   9.716   7.468   9.232
 1541POPC   GL221614  10.011   7.411   9.030
 1541POPC   C1A21615   9.585   7.356   8.765
 1541POPC   D2A21616   9.494   7.520   8.316
 1541POPC   C3A21617   9.620   7.343   7.951
 1541POPC   C4A21618   9.529   7.441   7.555
 1541POPC   C1B21619  10.080   7.590   8.638
 1541POPC   C2B21620  10.036   7.434   8.229
 1541POPC   C3B21621  10.049   7.554   7.774
 1541POPC   C4B21622   9.959   7.324   7.362
 1542POPC   NC321623   6.176   5.462   9.614
 1542POPC   PO421624   6.751   5.758   9.335
 1542POPC   GL121625   6.814   5.959   8.950
 1542POPC   GL221626   6.937   6.299   8.979
 1542POPC   C1A21627   6.566   5.766   8.617
 1542POPC   D2A21628   6.226   5.718   8.324
 1542POPC   C3A21629   6.357   5.616   7.913
 1542POPC   C4A21630   6.376   5.787   7.483
 1542POPC   C1B21631   6.781   6.333   8.581
 1542POPC   C2B21632   6.958   6.006   8.406
 1542POPC   C3B21633   6.801   5.714   8.142
 1542POPC   C4B21634   6.804   5.866   7.728
 1543POPC   NC321635  11.202  34.943   9.532
 1543POPC   PO421636  11.403  35.617   9.507
 1543POPC   GL121637  11.372  35.274   9.197
 1543POPC   GL221638  11.017  35.078   9.080
 1543POPC   C1A21639  11.443  35.077   8.815
 1543POPC   D2A21640  11.193  35.107   8.477
 1543POPC   C3A21641  11.334  35.039   8.032
 1543POPC   C4A21642  11.550  35.373   7.832
 1543POPC   C1B21643  11.059  35.465   8.855
 1543POPC   C2B21644  11.226  35.621   8.507
 1543POPC   C3B21645  11.118  35.493   8.134
 1543POPC   C4B21646  11.035  35.503   7.734
 1544POPC   NC321647  42.849  27.669   9.450
 1544POPC   PO421648  43.478  27.442   9.608
 1544POPC   GL121649  43.438  27.759   9.228
 1544POPC   GL221650  43.090  27.827   9.053
 1544POPC   C1A21651  43.473  27.721   8.760
 1544POPC   D2A21652  43.156  27.759   8.439
 1544POPC   C3A21653  43.328  27.833   8.037
 1544POPC   C4A21654  43.215  27.800   7.617
 1544POPC   C1B21655  43.097  27.394   8.841
 1544POPC   C2B21656  42.919  27.276   8.444
 1544POPC   C3B21657  42.958  27.467   8.028
 1544POPC   C4B21658  43.025  27.341   7.618
 1545POPC   NC321659   0.451  18.161   9.503
 1545POPC   PO421660   1.028  17.831   9.444
 1545POPC   GL121661   0.687  17.963   9.100
 1545POPC   GL221662   0.531  18.319   9.039
 1545POPC   C1A21663   0.479  17.966   8.679
 1545POPC   D2A21664   0.235  17.828   8.315
 1545POPC   C3A21665   0.410  17.958   7.922
 1545POPC   C4A21666   0.361  18.052   7.480
 1545POPC   C1B21667   0.421  18.546   8.666
 1545POPC   C2B21668   0.401  18.435   8.227
 1545POPC   C3B21669   0.366  18.454   7.777
 1545POPC   C4B21670   0.604  18.488   7.383
 1546POPC   NC321671   1.645  34.561   9.384
 1546POPC   PO421672   2.155  34.120   9.207
 1546POPC   GL121673   1.889  34.324   8.996
 1546POPC   GL221674   1.950  34.692   8.934
 1546POPC   C1A21675   1.815  34.283   8.602
 1546POPC   D2A21676   1.925  34.587   8.360
 1546POPC   C3A21677   2.288  34.537   8.174
 1546POPC   C4A21678   2.448  34.799   7.884
 1546POPC   C1B21679   1.690  34.954   8.624
 1546POPC   C2B21680   1.612  34.975   8.154
 1546POPC   C3B21681   1.910  34.760   7.878
 1546POPC   C4B21682   1.944  34.289   7.842
 1547POPC   NC321683  44.393   7.571   9.555
 1547POPC   PO421684  43.756   7.225   9.409
 1547POPC   GL121685  43.880   7.367   9.060
 1547POPC   GL221686  44.007   7.666   9.218
 1547POPC   C1A21687  43.695   7.375   8.663
 1547POPC   D2A21688  43.500   7.265   8.286
 1547POPC   C3A21689  43.802   7.160   7.983
 1547POPC   C4A21690  44.020   7.351   7.672
 1547POPC   C1B21691  44.006   7.795   8.800
 1547POPC   C2B21692  43.765   7.845   8.446
 1547POPC   C3B21693  43.704   7.673   8.065
 1547POPC   C4B21694  43.822   7.802   7.690
 1548POPC   NC321695  27.824  33.649   9.479
 1548POPC   PO421696  27.404  33.411   9.060
 1548POPC   GL121697  27.482  33.844   9.115
 1548POPC   GL221698  27.828  33.783   9.007
 1548POPC   C1A21699  27.353  34.082   8.763
 1548POPC   D2A21700  27.395  33.814   8.415
 1548POPC   C3A21701  27.186  33.889   8.063
 1548POPC   C4A21702  27.310  33.936   7.636
 1548POPC   C1B21703  27.883  33.907   8.624
 1548POPC   C2B21704  27.747  34.184   8.366
 1548POPC   C3B21705  27.671  34.040   7.988
 1548POPC   C4B21706  27.826  33.679   7.787
 1549POPC   NC321707  10.074  44.487   9.453
 1549POPC   PO421708   9.469  44.858   9.607
 1549POPC   GL121709   9.713  44.751   9.225
 1549POPC   GL221710   9.498  44.498   9.131
 1549POPC   C1A21711   9.999  44.721   8.830
 1549POPC   D2A21712   9.886  44.666   8.389
 1549POPC   C3A21713   9.968  44.392   8.053
 1549POPC   C4A21714   9.940  44.636   7.675
 1549POPC   C1B21715   9.492  44.761   8.746
 1549POPC   C2B21716   9.361  44.594   8.362
 1549POPC   C3B21717   9.491  44.593   7.931
 1549POPC   C4B21718   9.248  44.711   7.562
 1550POPC   NC321719  21.985  30.062   9.582
 1550POPC   PO421720  22.563  29.775   9.785
 1550POPC   GL121721  22.430  29.963   9.318
 1550POPC   GL221722  22.100  29.818   9.144
 1550POPC   C1A21723  22.425  30.022   8.808
 1550POPC   D2A21724  22.366  29.754   8.412
 1550POPC   C3A21725  22.438  29.880   7.979
 1550POPC   C4A21726  22.127  29.963   7.655
 1550POPC   C1B21727  21.890  30.119   8.864
 1550POPC   C2B21728  21.896  30.353   8.499
 1550POPC   C3B21729  21.958  30.251   8.086
 1550POPC   C4B21730  21.758  30.308   7.729
 1551POPC   NC321731  41.154  37.056   9.663
 1551POPC   PO421732  40.778  37.583   9.611
 1551POPC   GL121733  40.675  37.526   9.176
 1551POPC   GL221734  41.001  37.508   9.098
 1551POPC   C1A21735  40.567  37.679   8.762
 1551POPC   D2A21736  40.650  37.506   8.368
 1551POPC   C3A21737  40.696  37.697   7.971
 1551POPC   C4A21738  40.535  37.837   7.591
 1551POPC   C1B21739  41.069  37.543   8.645
 1551POPC   C2B21740  41.151  37.535   8.180
 1551POPC   C3B21741  41.293  37.752   7.774
 1551POPC   C4B21742  41.367  37.572   7.333
 1552POPC   NC321743   0.727  43.158   9.655
 1552POPC   PO421744   1.373  43.200   9.686
 1552POPC   GL121745   1.195  42.969   9.299
 1552POPC   GL221746   0.936  42.707   9.191
 1552POPC   C1A21747   1.325  42.965   8.852
 1552POPC   D2A21748   1.459  42.934   8.395
 1552POPC   C3A21749   1.289  43.146   8.000
 1552POPC   C4A21750   1.313  43.584   7.784
 1552POPC   C1B21751   0.998  42.601   8.729
 1552POPC   C2B21752   0.972  42.773   8.285
 1552POPC   C3B21753   0.876  42.866   7.850
 1552POPC   C4B21754   1.166  42.745   7.532
 1553POPC   NC321755  38.136  36.223   9.453
 1553POPC   PO421756  38.722  35.854   9.606
 1553POPC   GL121757  38.498  35.877   9.200
 1553POPC   GL221758  38.577  36.221   9.151
 1553POPC   C1A21759  38.556  35.766   8.752
 1553POPC   D2A21760  38.799  35.893   8.398
 1553POPC   C3A21761  38.548  35.931   8.038
 1553POPC   C4A21762  38.105  35.841   7.903
 1553POPC   C1B21763  38.558  36.270   8.693
 1553POPC   C2B21764  38.698  36.468   8.317
 1553POPC   C3B21765  38.707  36.429   7.866
 1553POPC   C4B21766  38.729  36.324   7.438
 1554POPC   NC321767  30.915  18.637   9.750
 1554POPC   PO421768  30.997  19.272   9.464
 1554POPC   GL121769  30.694  19.051   9.207
 1554POPC   GL221770  30.870  18.824   9.023
 1554POPC   C1A21771  30.467  18.996   8.783
 1554POPC   D2A21772  30.630  18.998   8.362
 1554POPC   C3A21773  30.354  18.920   8.021
 1554POPC   C4A21774  30.501  19.052   7.628
 1554POPC   C1B21775  31.051  18.995   8.675
 1554POPC   C2B21776  31.097  18.772   8.307
 1554POPC   C3B21777  30.875  18.784   7.940
 1554POPC   C4B21778  31.003  18.977   7.631
 1555POPC   NC321779  28.161  44.600   9.743
 1555POPC   PO421780  28.707  44.373   9.461
 1555POPC   GL121781  28.612  44.730   9.243
 1555POPC   GL221782  28.249  44.765   9.240
 1555POPC   C1A21783  28.597  44.806   8.811
 1555POPC   D2A21784  28.583   0.031   8.416
 1555POPC   C3A21785  28.576  44.731   8.084
 1555POPC   C4A21786  28.757  44.548   7.716
 1555POPC   C1B21787  28.069  44.765   8.810
 1555POPC   C2B21788  28.121  44.724   8.350
 1555POPC   C3B21789  27.901  44.666   7.931
 1555POPC   C4B21790  28.020  44.573   7.489
 1556POPC   NC321791  27.937  35.596   9.484
 1556POPC   PO421792  27.701  34.899   9.546
 1556POPC   GL121793  27.531  35.017   9.150
 1556POPC   GL221794  27.581  35.382   9.127
 1556POPC   C1A21795  27.566  35.076   8.699
 1556POPC   D2A21796  27.623  35.268   8.309
 1556POPC   C3A21797  27.653  35.043   7.916
 1556POPC   C4A21798  27.640  35.330   7.583
 1556POPC   C1B21799  27.713  35.607   8.712
 1556POPC   C2B21800  27.914  35.693   8.275
 1556POPC   C3B21801  27.706  35.828   7.862
 1556POPC   C4B21802  27.754  35.923   7.407
 1557POPC   NC321803   6.702  30.864   9.575
 1557POPC   PO421804   7.033  30.298   9.340
 1557POPC   GL121805   6.771  30.603   9.149
 1557POPC   GL221806   6.446  30.579   9.218
 1557POPC   C1A21807   6.658  30.908   8.814
 1557POPC   D2A21808   6.740  30.758   8.382
 1557POPC   C3A21809   6.720  30.906   7.934
 1557POPC   C4A21810   6.848  30.610   7.621
 1557POPC   C1B21811   6.215  30.643   8.846
 1557POPC   C2B21812   6.260  30.887   8.474
 1557POPC   C3B21813   6.275  30.723   8.063
 1557POPC   C4B21814   6.298  30.457   7.688
 1558POPC   NC321815  21.980   7.565   9.490
 1558POPC   PO421816  22.571   7.123   9.421
 1558POPC   GL121817  22.246   7.298   9.153
 1558POPC   GL221818  22.267   7.693   9.061
 1558POPC   C1A21819  21.979   7.392   8.797
 1558POPC   D2A21820  21.964   7.664   8.419
 1558POPC   C3A21821  22.228   7.511   8.049
 1558POPC   C4A21822  22.093   7.407   7.614
 1558POPC   C1B21823  22.491   7.396   8.712
 1558POPC   C2B21824  22.633   7.060   8.404
 1558POPC   C3B21825  22.399   6.982   7.995
 1558POPC   C4B21826  22.485   7.089   7.584
 1559POPC   NC321827  43.162  17.220   9.504
 1559POPC   PO421828  43.428  17.918   9.518
 1559POPC   GL121829  43.046  17.682   9.258
 1559POPC   GL221830  43.123  17.353   9.012
 1559POPC   C1A21831  42.786  17.698   8.856
 1559POPC   D2A21832  42.992  17.539   8.503
 1559POPC   C3A21833  42.851  17.546   8.091
 1559POPC   C4A21834  43.091  17.638   7.777
 1559POPC   C1B21835  42.864  17.089   8.684
 1559POPC   C2B21836  42.639  17.124   8.322
 1559POPC   C3B21837  42.692  17.029   7.944
 1559POPC   C4B21838  42.746  17.278   7.644
 1560POPC   NC321839   7.408  26.347   9.249
 1560POPC   PO421840   7.874  25.852   9.464
 1560POPC   GL121841   7.725  25.799   9.047
 1560POPC   GL221842   7.422  25.992   8.876
 1560POPC   C1A21843   7.817  25.810   8.625
 1560POPC   D2A21844   7.513  25.913   8.345
 1560POPC   C3A21845   7.716  26.119   8.033
 1560POPC   C4A21846   7.733  25.917   7.657
 1560POPC   C1B21847   7.063  25.867   8.619
 1560POPC   C2B21848   7.009  26.005   8.199
 1560POPC   C3B21849   7.232  26.086   7.797
 1560POPC   C4B21850   7.308  25.808   7.413
 1561POPC   NC321851  13.156   9.603   9.480
 1561POPC   PO421852  13.773   9.982   9.467
 1561POPC   GL121853  13.572   9.762   9.114
 1561POPC   GL221854  13.301   9.507   9.012
 1561POPC   C1A21855  13.817   9.596   8.776
 1561POPC   D2A21856  13.910   9.716   8.391
 1561POPC   C3A21857  13.905   9.481   8.049
 1561POPC   C4A21858  13.778   9.463   7.640
 1561POPC   C1B21859  13.335   9.700   8.632
 1561POPC   C2B21860  13.423   9.548   8.214
 1561POPC   C3B21861  13.423   9.760   7.844
 1561POPC   C4B21862  13.486   9.836   7.413
 1562POPC   NC321863  16.675  31.501   9.544
 1562POPC   PO421864  16.137  31.908   9.711
 1562POPC   GL121865  16.455  31.858   9.279
 1562POPC   GL221866  16.805  31.622   9.090
 1562POPC   C1A21867  16.448  31.809   8.816
 1562POPC   D2A21868  16.602  31.543   8.487
 1562POPC   C3A21869  16.543  31.611   8.041
 1562POPC   C4A21870  16.815  31.580   7.690
 1562POPC   C1B21871  16.988  31.303   8.756
 1562POPC   C2B21872  17.025  31.208   8.296
 1562POPC   C3B21873  16.910  31.056   7.893
 1562POPC   C4B21874  17.049  31.178   7.498
 1563POPC   NC321875  40.602  28.431   9.639
 1563POPC   PO421876  41.180  28.219   9.503
 1563POPC   GL121877  40.874  28.340   9.156
 1563POPC   GL221878  40.543  28.496   9.053
 1563POPC   C1A21879  40.946  28.452   8.734
 1563POPC   D2A21880  41.057  28.238   8.361
 1563POPC   C3A21881  40.957  28.438   7.960
 1563POPC   C4A21882  40.785  28.309   7.570
 1563POPC   C1B21883  40.558  28.815   8.685
 1563POPC   C2B21884  40.629  28.753   8.204
 1563POPC   C3B21885  40.533  28.716   7.744
 1563POPC   C4B21886  40.368  28.604   7.311
 1564POPC   NC321887  39.772  24.844   9.431
 1564POPC   PO421888  39.979  25.466   9.582
 1564POPC   GL121889  39.985  25.453   9.159
 1564POPC   GL221890  39.765  25.735   9.118
 1564POPC   C1A21891  40.071  25.205   8.765
 1564POPC   D2A21892  40.062  25.002   8.342
 1564POPC   C3A21893  40.006  25.198   7.974
 1564POPC   C4A21894  40.309  25.378   7.739
 1564POPC   C1B21895  39.622  25.484   8.735
 1564POPC   C2B21896  39.608  25.361   8.262
 1564POPC   C3B21897  39.730  25.624   7.864
 1564POPC   C4B21898  39.715  25.798   7.408
 1565POPC   NC321899  12.353  24.343   9.539
 1565POPC   PO421900  11.638  24.354   9.456
 1565POPC   GL121901  11.982  24.526   9.181
 1565POPC   GL221902  12.323  24.713   9.186
 1565POPC   C1A21903  12.059  24.343   8.788
 1565POPC   D2A21904  11.902  24.250   8.379
 1565POPC   C3A21905  12.165  24.312   8.045
 1565POPC   C4A21906  11.880  24.284   7.733
 1565POPC   C1B21907  12.175  24.854   8.817
 1565POPC   C2B21908  12.185  24.689   8.414
 1565POPC   C3B21909  11.946  24.769   8.066
 1565POPC   C4B21910  12.160  24.724   7.698
 1566POPC   NC321911  14.319  12.451   9.336
 1566POPC   PO421912  14.540  13.045   9.474
 1566POPC   GL121913  14.489  12.954   9.059
 1566POPC   GL221914  14.226  12.703   8.904
 1566POPC   C1A21915  14.373  13.172   8.723
 1566POPC   D2A21916  14.206  13.022   8.353
 1566POPC   C3A21917  14.356  12.989   7.931
 1566POPC   C4A21918  14.092  12.697   7.699
 1566POPC   C1B21919  14.548  12.707   8.601
 1566POPC   C2B21920  14.745  12.596   8.247
 1566POPC   C3B21921  14.580  12.541   7.853
 1566POPC   C4B21922  14.539  12.726   7.456
 1567POPC   NC321923  28.761  16.637  10.092
 1567POPC   PO421924  29.133  16.417   9.642
 1567POPC   GL121925  29.133  16.738   9.257
 1567POPC   GL221926  29.317  16.500   9.055
 1567POPC   C1A21927  29.106  16.895   8.788
 1567POPC   D2A21928  29.145  16.649   8.360
 1567POPC   C3A21929  29.004  16.835   7.935
 1567POPC   C4A21930  28.682  16.668   7.640
 1567POPC   C1B21931  29.699  16.356   8.817
 1567POPC   C2B21932  29.829  16.274   8.391
 1567POPC   C3B21933  29.611  16.271   7.988
 1567POPC   C4B21934  29.374  16.500   7.688
 1568POPC   NC321935  21.609  38.866   9.537
 1568POPC   PO421936  21.020  39.240   9.595
 1568POPC   GL121937  21.282  39.185   9.238
 1568POPC   GL221938  21.035  38.987   9.111
 1568POPC   C1A21939  21.452  39.041   8.821
 1568POPC   D2A21940  21.384  39.251   8.418
 1568POPC   C3A21941  21.513  39.144   7.997
 1568POPC   C4A21942  21.831  39.411   7.800
 1568POPC   C1B21943  21.005  39.281   8.767
 1568POPC   C2B21944  20.859  39.198   8.356
 1568POPC   C3B21945  21.022  39.375   7.997
 1568POPC   C4B21946  21.284  39.457   7.644
 1569POPC   NC321947   6.331   3.029   9.380
 1569POPC   PO421948   6.931   2.624   9.468
 1569POPC   GL121949   6.644   2.654   9.132
 1569POPC   GL221950   6.745   2.943   8.989
 1569POPC   C1A21951   6.588   2.516   8.720
 1569POPC   D2A21952   6.711   2.690   8.341
 1569POPC   C3A21953   6.810   2.440   8.003
 1569POPC   C4A21954   6.731   2.558   7.593
 1569POPC   C1B21955   6.374   3.020   8.715
 1569POPC   C2B21956   6.304   3.112   8.276
 1569POPC   C3B21957   6.492   2.916   7.925
 1569POPC   C4B21958   6.537   3.072   7.540
 1570POPC   NC321959  19.723  34.786   9.649
 1570POPC   PO421960  20.345  34.734   9.563
 1570POPC   GL121961  19.989  34.663   9.217
 1570POPC   GL221962  19.697  34.420   9.237
 1570POPC   C1A21963  19.811  34.801   8.812
 1570POPC   D2A21964  19.492  34.949   8.517
 1570POPC   C3A21965  19.603  34.832   8.094
 1570POPC   C4A21966  19.662  34.619   7.710
 1570POPC   C1B21967  19.834  34.299   8.826
 1570POPC   C2B21968  19.751  34.448   8.424
 1570POPC   C3B21969  19.842  34.281   8.036
 1570POPC   C4B21970  19.650  34.086   7.684
 1571POPC   NC321971  35.143   5.704   9.516
 1571POPC   PO421972  35.213   6.285   9.276
 1571POPC   GL121973  35.236   5.917   9.040
 1571POPC   GL221974  35.452   5.641   9.102
 1571POPC   C1A21975  35.368   5.838   8.613
 1571POPC   D2A21976  35.216   6.066   8.263
 1571POPC   C3A21977  35.515   6.094   7.952
 1571POPC   C4A21978  35.324   5.862   7.661
 1571POPC   C1B21979  35.715   5.483   8.790
 1571POPC   C2B21980  35.599   5.380   8.360
 1571POPC   C3B21981  35.604   5.553   7.947
 1571POPC   C4B21982  35.533   5.449   7.493
 1572POPC   NC321983   6.411  33.566   9.437
 1572POPC   PO421984   6.893  34.033   9.670
 1572POPC   GL121985   6.805  33.865   9.246
 1572POPC   GL221986   6.485  34.041   9.313
 1572POPC   C1A21987   6.702  33.663   8.817
 1572POPC   D2A21988   6.794  33.644   8.357
 1572POPC   C3A21989   6.622  33.508   7.915
 1572POPC   C4A21990   6.715  33.363   7.449
 1572POPC   C1B21991   6.373  34.044   8.941
 1572POPC   C2B21992   6.452  34.014   8.525
 1572POPC   C3B21993   6.424  34.254   8.195
 1572POPC   C4B21994   6.468  34.110   7.814
 1573POPC   NC321995  28.779  41.519   9.536
 1573POPC   PO421996  29.461  41.427   9.392
 1573POPC   GL121997  29.134  41.660   9.140
 1573POPC   GL221998  28.884  41.439   9.030
 1573POPC   C1A21999  29.097  41.714   8.673
 1573POPC   D2A22000  29.201  41.352   8.351
 1573POPC   C3A22001  29.187  41.532   7.938
 1573POPC   C4A22002  29.270  41.976   7.870
 1573POPC   C1B22003  28.749  41.326   8.628
 1573POPC   C2B22004  28.759  41.624   8.282
 1573POPC   C3B22005  28.604  41.426   7.951
 1573POPC   C4B22006  28.869  41.267   7.654
 1574POPC   NC322007  12.676  37.877   9.567
 1574POPC   PO422008  13.286  37.804   9.708
 1574POPC   GL122009  13.103  37.618   9.288
 1574POPC   GL222010  12.746  37.670   9.130
 1574POPC   C1A22011  13.124  37.649   8.811
 1574POPC   D2A22012  13.040  37.416   8.442
 1574POPC   C3A22013  13.172  37.538   8.082
 1574POPC   C4A22014  13.016  37.652   7.702
 1574POPC   C1B22015  12.539  37.908   8.804
 1574POPC   C2B22016  12.400  37.917   8.370
 1574POPC   C3B22017  12.629  37.821   8.000
 1574POPC   C4B22018  12.852  38.123   7.724
 1575POPC   NC322019  12.956  39.598   9.459
 1575POPC   PO422020  12.572  39.012   9.488
 1575POPC   GL122021  12.744  38.982   9.088
 1575POPC   GL222022  12.954  39.248   9.110
 1575POPC   C1A22023  12.855  39.095   8.641
 1575POPC   D2A22024  12.529  39.125   8.298
 1575POPC   C3A22025  12.729  39.037   7.919
 1575POPC   C4A22026  12.971  39.298   7.644
 1575POPC   C1B22027  13.242  39.439   8.829
 1575POPC   C2B22028  13.323  39.321   8.412
 1575POPC   C3B22029  13.208  39.554   8.070
 1575POPC   C4B22030  13.013  39.787   7.755
 1576POPC   NC322031  12.198  16.272   9.390
 1576POPC   PO422032  11.794  15.825   9.570
 1576POPC   GL122033  11.970  15.824   9.123
 1576POPC   GL222034  11.981  16.146   8.968
 1576POPC   C1A22035  11.972  15.814   8.613
 1576POPC   D2A22036  11.971  16.163   8.357
 1576POPC   C3A22037  12.143  15.942   8.021
 1576POPC   C4A22038  11.976  16.049   7.690
 1576POPC   C1B22039  12.361  16.116   8.697
 1576POPC   C2B22040  12.482  16.222   8.267
 1576POPC   C3B22041  12.548  16.203   7.790
 1576POPC   C4B22042  12.393  16.354   7.355
 1577POPC   NC322043   3.202  17.963   9.471
 1577POPC   PO422044   3.767  18.255   9.531
 1577POPC   GL122045   3.548  18.163   9.146
 1577POPC   GL222046   3.266  18.384   9.146
 1577POPC   C1A22047   3.357  18.023   8.748
 1577POPC   D2A22048   3.147  18.027   8.340
 1577POPC   C3A22049   3.489  18.071   8.062
 1577POPC   C4A22050   3.485  18.220   7.664
 1577POPC   C1B22051   3.080  18.450   8.756
 1577POPC   C2B22052   3.333  18.490   8.437
 1577POPC   C3B22053   3.333  18.546   8.040
 1577POPC   C4B22054   3.722  18.609   7.869
 1578POPC   NC322055  10.120  41.081   9.280
 1578POPC   PO422056  10.544  40.819   9.777
 1578POPC   GL122057  10.623  40.869   9.296
 1578POPC   GL222058  10.592  41.166   9.116
 1578POPC   C1A22059  10.634  40.757   8.830
 1578POPC   D2A22060  10.826  40.913   8.457
 1578POPC   C3A22061  10.894  40.755   8.033
 1578POPC   C4A22062  10.646  40.671   7.661
 1578POPC   C1B22063  10.430  41.308   8.711
 1578POPC   C2B22064  10.453  41.219   8.287
 1578POPC   C3B22065  10.409  40.852   8.082
 1578POPC   C4B22066  10.244  40.955   7.718
 1579POPC   NC322067  14.728  20.433   9.451
 1579POPC   PO422068  14.078  20.814   9.458
 1579POPC   GL122069  14.372  20.699   9.186
 1579POPC   GL222070  14.309  20.347   9.164
 1579POPC   C1A22071  14.492  20.654   8.778
 1579POPC   D2A22072  14.468  20.911   8.416
 1579POPC   C3A22073  14.427  20.712   8.042
 1579POPC   C4A22074  14.615  20.745   7.698
 1579POPC   C1B22075  14.107  20.277   8.770
 1579POPC   C2B22076  14.244  20.380   8.375
 1579POPC   C3B22077  14.100  20.296   7.956
 1579POPC   C4B22078  14.240  20.448   7.595
 1580POPC   NC322079  16.069  41.557   9.621
 1580POPC   PO422080  15.651  41.973   9.622
 1580POPC   GL122081  15.785  41.794   9.219
 1580POPC   GL222082  15.822  41.425   9.193
 1580POPC   C1A22083  15.920  41.788   8.776
 1580POPC   D2A22084  15.643  41.859   8.388
 1580POPC   C3A22085  15.683  41.676   7.990
 1580POPC   C4A22086  15.944  41.868   7.680
 1580POPC   C1B22087  15.798  41.253   8.785
 1580POPC   C2B22088  15.939  41.436   8.405
 1580POPC   C3B22089  16.173  41.569   8.052
 1580POPC   C4B22090  16.351  41.290   7.777
 1581POPC   NC322091   6.444   1.372   9.378
 1581POPC   PO422092   7.144   1.403   9.302
 1581POPC   GL122093   6.833   1.452   9.051
 1581POPC   GL222094   6.723   1.107   9.032
 1581POPC   C1A22095   6.815   1.344   8.622
 1581POPC   D2A22096   6.670   1.195   8.265
 1581POPC   C3A22097   6.942   1.410   8.012
 1581POPC   C4A22098   6.891   1.565   7.633
 1581POPC   C1B22099   6.469   0.921   8.721
 1581POPC   C2B22100   6.231   0.881   8.363
 1581POPC   C3B22101   6.196   1.089   8.045
 1581POPC   C4B22102   6.533   1.191   7.774
 1582POPC   NC322103  39.973   7.691   9.737
 1582POPC   PO422104  39.739   8.232   9.416
 1582POPC   GL122105  39.890   8.201   9.047
 1582POPC   GL222106  40.068   7.947   9.102
 1582POPC   C1A22107  40.202   8.317   8.775
 1582POPC   D2A22108  40.266   8.510   8.389
 1582POPC   C3A22109  40.038   8.273   8.102
 1582POPC   C4A22110  39.990   8.310   7.697
 1582POPC   C1B22111  40.136   7.822   8.669
 1582POPC   C2B22112  39.987   7.729   8.245
 1582POPC   C3B22113  39.966   7.821   7.820
 1582POPC   C4B22114  40.046   7.907   7.367
 1583POPC   NC322115  36.547  21.704   9.301
 1583POPC   PO422116  36.093  22.201   9.530
 1583POPC   GL122117  36.125  22.330   9.135
 1583POPC   GL222118  36.372  22.090   9.031
 1583POPC   C1A22119  35.979  22.211   8.736
 1583POPC   D2A22120  36.203  22.167   8.393
 1583POPC   C3A22121  35.989  22.129   8.030
 1583POPC   C4A22122  36.034  22.386   7.695
 1583POPC   C1B22123  36.292  21.762   8.706
 1583POPC   C2B22124  36.412  21.692   8.279
 1583POPC   C3B22125  36.508  22.032   8.004
 1583POPC   C4B22126  36.306  21.966   7.662
 1584POPC   NC322127  22.284  28.574   9.535
 1584POPC   PO422128  21.693  28.249   9.530
 1584POPC   GL122129  21.911  28.504   9.174
 1584POPC   GL222130  22.278  28.443   9.063
 1584POPC   C1A22131  21.910  28.476   8.725
 1584POPC   D2A22132  22.062  28.191   8.440
 1584POPC   C3A22133  21.914  28.312   8.054
 1584POPC   C4A22134  22.028  28.479   7.675
 1584POPC   C1B22135  22.378  28.706   8.733
 1584POPC   C2B22136  22.321  28.660   8.306
 1584POPC   C3B22137  22.477  28.534   7.938
 1584POPC   C4B22138  22.489  28.463   7.501
 1585POPC   NC322139   2.449  35.127   9.563
 1585POPC   PO422140   3.119  35.397   9.588
 1585POPC   GL122141   2.885  35.225   9.259
 1585POPC   GL222142   3.069  35.496   9.077
 1585POPC   C1A22143   2.559  35.105   8.924
 1585POPC   D2A22144   2.390  34.935   8.508
 1585POPC   C3A22145   2.653  35.138   8.210
 1585POPC   C4A22146   2.717  35.243   7.782
 1585POPC   C1B22147   2.717  35.629   8.922
 1585POPC   C2B22148   2.698  35.755   8.491
 1585POPC   C3B22149   2.592  35.647   8.081
 1585POPC   C4B22150   2.704  35.753   7.690
 1586POPC   NC322151  38.097  15.590   9.423
 1586POPC   PO422152  38.307  14.919   9.496
 1586POPC   GL122153  38.327  15.202   9.163
 1586POPC   GL222154  37.987  15.161   9.140
 1586POPC   C1A22155  38.265  15.332   8.738
 1586POPC   D2A22156  38.503  15.285   8.397
 1586POPC   C3A22157  38.624  15.270   8.004
 1586POPC   C4A22158  38.418  15.482   7.702
 1586POPC   C1B22159  38.138  14.835   8.841
 1586POPC   C2B22160  38.285  14.799   8.398
 1586POPC   C3B22161  38.211  14.968   7.991
 1586POPC   C4B22162  38.242  14.732   7.620
 1587POPC   NC322163  16.398  23.533   9.563
 1587POPC   PO422164  15.837  23.289   9.726
 1587POPC   GL122165  15.866  23.458   9.296
 1587POPC   GL222166  16.162  23.335   9.146
 1587POPC   C1A22167  15.899  23.712   8.906
 1587POPC   D2A22168  16.217  23.732   8.577
 1587POPC   C3A22169  16.157  23.877   8.149
 1587POPC   C4A22170  15.816  23.807   7.848
 1587POPC   C1B22171  16.062  23.253   8.720
 1587POPC   C2B22172  16.216  23.191   8.319
 1587POPC   C3B22173  16.139  23.409   7.951
 1587POPC   C4B22174  16.190  23.423   7.530
 1588POPC   NC322175   2.808  27.745   9.491
 1588POPC   PO422176   2.370  27.235   9.450
 1588POPC   GL122177   2.687  27.371   9.184
 1588POPC   GL222178   2.498  27.268   8.941
 1588POPC   C1A22179   2.724  27.697   8.838
 1588POPC   D2A22180   2.601  27.546   8.441
 1588POPC   C3A22181   2.677  27.775   8.074
 1588POPC   C4A22182   2.845  27.741   7.711
 1588POPC   C1B22183   2.903  27.226   8.743
 1588POPC   C2B22184   2.886  27.117   8.339
 1588POPC   C3B22185   2.685  27.270   8.004
 1588POPC   C4B22186   2.735  27.157   7.631
 1589POPC   NC322187  12.522  38.562   9.408
 1589POPC   PO422188  11.910  38.314   9.566
 1589POPC   GL122189  12.064  38.418   9.210
 1589POPC   GL222190  12.195  38.096   9.159
 1589POPC   C1A22191  12.057  38.512   8.809
 1589POPC   D2A22192  12.250  38.415   8.445
 1589POPC   C3A22193  12.208  38.735   8.115
 1589POPC   C4A22194  12.027  38.522   7.745
 1589POPC   C1B22195  12.005  38.022   8.741
 1589POPC   C2B22196  11.834  38.167   8.331
 1589POPC   C3B22197  12.050  38.061   7.928
 1589POPC   C4B22198  11.931  38.104   7.452
 1590POPC   NC322199  13.029  38.947   9.530
 1590POPC   PO422200  12.900  38.277   9.426
 1590POPC   GL122201  12.868  38.457   9.032
 1590POPC   GL222202  12.534  38.403   8.933
 1590POPC   C1A22203  12.956  38.220   8.668
 1590POPC   D2A22204  12.917  38.163   8.248
 1590POPC   C3A22205  13.027  38.525   7.976
 1590POPC   C4A22206  13.004  38.601   7.534
 1590POPC   C1B22207  12.493  38.763   8.709
 1590POPC   C2B22208  12.693  38.639   8.339
 1590POPC   C3B22209  12.513  38.353   8.012
 1590POPC   C4B22210  12.523  38.627   7.696
 1591POPC   NC322211   2.148  30.118   9.472
 1591POPC   PO422212   1.854  29.516   9.437
 1591POPC   GL122213   2.082  29.747   9.115
 1591POPC   GL222214   1.979  30.102   9.019
 1591POPC   C1A22215   2.114  29.769   8.677
 1591POPC   D2A22216   1.910  29.721   8.316
 1591POPC   C3A22217   2.158  29.906   8.054
 1591POPC   C4A22218   2.003  29.922   7.706
 1591POPC   C1B22219   1.912  30.378   8.704
 1591POPC   C2B22220   1.877  30.222   8.343
 1591POPC   C3B22221   1.668  30.192   7.983
 1591POPC   C4B22222   1.793  30.387   7.587
 1592POPC   NC322223  31.282   7.605   9.301
 1592POPC   PO422224  31.901   7.515   9.384
 1592POPC   GL122225  31.672   7.595   8.995
 1592POPC   GL222226  31.567   7.249   9.053
 1592POPC   C1A22227  31.307   7.485   8.671
 1592POPC   D2A22228  31.289   7.034   8.502
 1592POPC   C3A22229  31.370   7.044   8.049
 1592POPC   C4A22230  31.108   7.032   7.676
 1592POPC   C1B22231  31.740   7.235   8.666
 1592POPC   C2B22232  31.830   7.544   8.362
 1592POPC   C3B22233  31.669   7.748   7.997
 1592POPC   C4B22234  31.246   7.930   7.905
 1593POPC   NC322235   4.264  42.044   9.336
 1593POPC   PO422236   4.750  42.192   9.765
 1593POPC   GL122237   4.641  42.359   9.249
 1593POPC   GL222238   4.251  42.431   9.031
 1593POPC   C1A22239   4.639  42.330   8.750
 1593POPC   D2A22240   4.311  42.376   8.396
 1593POPC   C3A22241   4.488  42.491   7.978
 1593POPC   C4A22242   4.571  42.247   7.588
 1593POPC   C1B22243   3.974  42.136   8.705
 1593POPC   C2B22244   3.833  42.136   8.238
 1593POPC   C3B22245   4.099  42.201   7.832
 1593POPC   C4B22246   4.122  42.189   7.340
 1594POPC   NC322247   1.499  34.964  10.050
 1594POPC   PO422248   1.422  35.603   9.785
 1594POPC   GL122249   1.275  35.370   9.304
 1594POPC   GL222250   1.063  35.635   9.113
 1594POPC   C1A22251   1.165  35.224   8.835
 1594POPC   D2A22252   0.820  35.177   8.508
 1594POPC   C3A22253   0.911  35.162   8.061
 1594POPC   C4A22254   1.276  35.261   7.812
 1594POPC   C1B22255   1.217  35.756   8.694
 1594POPC   C2B22256   1.244  35.554   8.294
 1594POPC   C3B22257   1.214  35.752   7.882
 1594POPC   C4B22258   1.222  35.630   7.438
 1595POPC   NC322259  10.724   3.392   9.456
 1595POPC   PO422260  10.125   3.752   9.559
 1595POPC   GL122261  10.293   3.675   9.145
 1595POPC   GL222262  10.663   3.659   9.008
 1595POPC   C1A22263  10.279   3.521   8.721
 1595POPC   D2A22264  10.581   3.552   8.415
 1595POPC   C3A22265  10.418   3.413   8.056
 1595POPC   C4A22266  10.585   3.543   7.653
 1595POPC   C1B22267  10.816   3.266   8.750
 1595POPC   C2B22268  10.721   3.052   8.333
 1595POPC   C3B22269  10.841   3.167   7.893
 1595POPC   C4B22270  10.911   3.141   7.451
 1596POPC   NC322271  34.305  43.058   9.406
 1596POPC   PO422272  34.377  43.596   9.737
 1596POPC   GL122273  34.695  43.369   9.330
 1596POPC   GL222274  34.724  42.975   9.138
 1596POPC   C1A22275  34.752  43.354   8.840
 1596POPC   D2A22276  34.569  43.163   8.455
 1596POPC   C3A22277  34.657  43.200   8.006
 1596POPC   C4A22278  34.317  43.306   7.719
 1596POPC   C1B22279  34.547  42.747   8.764
 1596POPC   C2B22280  34.345  42.720   8.341
 1596POPC   C3B22281  34.463  42.700   7.881
 1596POPC   C4B22282  34.293  42.580   7.443
 1597POPC   NC322283   7.343  40.729   9.455
 1597POPC   PO422284   8.073  40.989   9.528
 1597POPC   GL122285   7.832  40.973   9.148
 1597POPC   GL222286   7.824  40.600   9.163
 1597POPC   C1A22287   7.734  40.935   8.693
 1597POPC   D2A22288   7.768  40.736   8.275
 1597POPC   C3A22289   7.693  41.000   7.897
 1597POPC   C4A22290   7.425  40.968   7.497
 1597POPC   C1B22291   7.593  40.426   8.821
 1597POPC   C2B22292   7.290  40.576   8.541
 1597POPC   C3B22293   7.226  40.693   8.115
 1597POPC   C4B22294   7.481  40.548   7.810
 1598POPC   NC322295   9.208  22.370   9.713
 1598POPC   PO422296   8.838  21.912   9.486
 1598POPC   GL122297   9.014  22.235   9.229
 1598POPC   GL222298   9.371  22.282   9.187
 1598POPC   C1A22299   8.859  22.335   8.825
 1598POPC   D2A22300   8.726  22.062   8.482
 1598POPC   C3A22301   8.931  22.212   8.107
 1598POPC   C4A22302   8.759  22.410   7.739
 1598POPC   C1B22303   9.238  21.971   8.829
 1598POPC   C2B22304   9.135  21.761   8.412
 1598POPC   C3B22305   8.805  21.710   8.092
 1598POPC   C4B22306   8.887  21.909   7.699
 1599POPC   NC322307  20.055   4.642   9.503
 1599POPC   PO422308  19.722   4.144   9.827
 1599POPC   GL122309  19.869   4.151   9.363
 1599POPC   GL222310  19.549   4.155   9.209
 1599POPC   C1A22311  20.018   3.975   8.944
 1599POPC   D2A22312  20.130   4.254   8.574
 1599POPC   C3A22313  20.108   4.182   8.115
 1599POPC   C4A22314  19.884   4.445   7.840
 1599POPC   C1B22315  19.674   4.334   8.815
 1599POPC   C2B22316  19.646   4.305   8.368
 1599POPC   C3B22317  19.378   4.377   8.025
 1599POPC   C4B22318  19.497   4.151   7.662
 1600POPC   NC322319   6.179  14.532   9.404
 1600POPC   PO422320   5.680  14.114   9.399
 1600POPC   GL122321   5.756  14.457   9.103
 1600POPC   GL222322   6.095  14.383   8.929
 1600POPC   C1A22323   5.690  14.577   8.678
 1600POPC   D2A22324   5.856  14.323   8.357
 1600POPC   C3A22325   5.968  14.611   8.044
 1600POPC   C4A22326   5.811  14.567   7.640
 1600POPC   C1B22327   6.345  14.046   8.710
 1600POPC   C2B22328   6.289  13.943   8.255
 1600POPC   C3B22329   6.098  14.154   7.882
 1600POPC   C4B22330   6.083  14.215   7.428
 1601POPC   NC322331  39.709  15.594   9.310
 1601POPC   PO422332  40.142  16.133   9.578
 1601POPC   GL122333  39.902  16.072   9.211
 1601POPC   GL222334  40.130  15.787   9.123
 1601POPC   C1A22335  39.682  16.294   8.838
 1601POPC   D2A22336  39.466  16.321   8.410
 1601POPC   C3A22337  39.720  16.309   8.011
 1601POPC   C4A22338  39.983  15.947   7.817
 1601POPC   C1B22339  39.906  15.852   8.708
 1601POPC   C2B22340  39.782  15.892   8.283
 1601POPC   C3B22341  39.619  15.620   7.946
 1601POPC   C4B22342  39.708  15.655   7.508
 1602POPC   NC322343  28.878  22.584   9.469
 1602POPC   PO422344  29.295  23.052   9.683
 1602POPC   GL122345  29.286  23.043   9.227
 1602POPC   GL222346  29.170  22.757   9.112
 1602POPC   C1A22347  29.414  23.116   8.810
 1602POPC   D2A22348  29.364  22.913   8.411
 1602POPC   C3A22349  29.449  23.105   8.011
 1602POPC   C4A22350  29.574  22.926   7.614
 1602POPC   C1B22351  28.945  22.911   8.776
 1602POPC   C2B22352  28.859  22.782   8.399
 1602POPC   C3B22353  28.956  22.913   8.003
 1602POPC   C4B22354  28.678  23.135   7.739
 1603POPC   NC322355  23.831  11.641   9.615
 1603POPC   PO422356  23.689  12.348   9.614
 1603POPC   GL122357  23.660  12.350   9.147
 1603POPC   GL222358  23.672  11.980   9.085
 1603POPC   C1A22359  23.486  12.262   8.710
 1603POPC   D2A22360  23.526  11.953   8.351
 1603POPC   C3A22361  23.423  12.175   7.960
 1603POPC   C4A22362  23.689  12.140   7.606
 1603POPC   C1B22363  24.010  11.894   8.734
 1603POPC   C2B22364  24.109  11.743   8.338
 1603POPC   C3B22365  23.949  11.856   7.947
 1603POPC   C4B22366  24.159  11.989   7.573
 1604POPC   NC322367  22.952  19.298   9.689
 1604POPC   PO422368  22.599  18.750   9.721
 1604POPC   GL122369  22.719  18.857   9.287
 1604POPC   GL222370  22.953  19.100   9.182
 1604POPC   C1A22371  22.663  18.856   8.826
 1604POPC   D2A22372  22.478  18.723   8.435
 1604POPC   C3A22373  22.668  18.817   8.019
 1604POPC   C4A22374  22.790  19.212   7.797
 1604POPC   C1B22375  23.233  19.236   8.816
 1604POPC   C2B22376  23.177  19.311   8.368
 1604POPC   C3B22377  23.264  19.115   7.975
 1604POPC   C4B22378  23.245  19.267   7.513
 1605POPC   NC322379  25.500   7.072   9.497
 1605POPC   PO422380  25.093   7.573   9.608
 1605POPC   GL122381  25.228   7.403   9.163
 1605POPC   GL222382  25.479   7.167   8.973
 1605POPC   C1A22383  25.335   7.602   8.748
 1605POPC   D2A22384  25.180   7.514   8.330
 1605POPC   C3A22385  25.455   7.503   8.001
 1605POPC   C4A22386  25.237   7.701   7.703
 1605POPC   C1B22387  25.101   7.149   8.702
 1605POPC   C2B22388  24.882   7.051   8.317
 1605POPC   C3B22389  25.018   7.195   7.918
 1605POPC   C4B22390  25.399   7.081   7.678
 1606POPC   NC322391  32.719  23.782   9.532
 1606POPC   PO422392  33.375  23.811   9.409
 1606POPC   GL122393  33.234  23.527   9.107
 1606POPC   GL222394  32.909  23.665   9.092
 1606POPC   C1A22395  33.018  23.400   8.699
 1606POPC   D2A22396  32.893  23.141   8.394
 1606POPC   C3A22397  32.928  23.349   8.064
 1606POPC   C4A22398  32.831  23.465   7.675
 1606POPC   C1B22399  33.141  23.888   8.762
 1606POPC   C2B22400  33.189  23.801   8.331
 1606POPC   C3B22401  32.933  23.856   7.971
 1606POPC   C4B22402  32.873  24.156   7.669
 1607POPC   NC322403  36.551  26.053   9.535
 1607POPC   PO422404  37.033  25.636   9.319
 1607POPC   GL122405  36.838  26.005   9.119
 1607POPC   GL222406  37.103  26.246   9.182
 1607POPC   C1A22407  36.789  26.304   8.766
 1607POPC   D2A22408  36.828  26.095   8.370
 1607POPC   C3A22409  36.753  26.244   7.964
 1607POPC   C4A22410  36.812  26.013   7.582
 1607POPC   C1B22411  37.231  26.044   8.776
 1607POPC   C2B22412  37.333  26.262   8.392
 1607POPC   C3B22413  37.263  26.187   7.967
 1607POPC   C4B22414  37.411  25.884   7.693
 1608POPC   NC322415  11.947  29.596   9.337
 1608POPC   PO422416  12.310  29.084   9.440
 1608POPC   GL122417  12.082  29.013   9.120
 1608POPC   GL222418  12.347  28.753   9.007
 1608POPC   C1A22419  12.086  29.285   8.758
 1608POPC   D2A22420  11.995  29.369   8.346
 1608POPC   C3A22421  12.340  29.260   8.074
 1608POPC   C4A22422  12.123  29.111   7.728
 1608POPC   C1B22423  12.048  28.774   8.685
 1608POPC   C2B22424  12.113  28.871   8.315
 1608POPC   C3B22425  12.256  28.692   8.002
 1608POPC   C4B22426  12.432  28.680   7.643
 1609POPC   NC322427  14.119  24.882   9.479
 1609POPC   PO422428  14.736  24.584   9.355
 1609POPC   GL122429  14.433  24.396   9.117
 1609POPC   GL222430  14.143  24.546   9.089
 1609POPC   C1A22431  14.460  24.256   8.698
 1609POPC   D2A22432  14.767  24.304   8.362
 1609POPC   C3A22433  14.623  24.548   7.986
 1609POPC   C4A22434  14.419  24.226   7.765
 1609POPC   C1B22435  14.295  24.746   8.738
 1609POPC   C2B22436  14.256  24.573   8.338
 1609POPC   C3B22437  14.071  24.612   7.941
 1609POPC   C4B22438  13.960  24.396   7.569
 1610POPC   NC322439  43.189  19.288   9.567
 1610POPC   PO422440  43.044  18.603   9.533
 1610POPC   GL122441  42.967  18.961   9.248
 1610POPC   GL222442  43.313  19.082   9.120
 1610POPC   C1A22443  42.823  19.214   8.910
 1610POPC   D2A22444  42.705  18.925   8.587
 1610POPC   C3A22445  42.892  19.005   8.195
 1610POPC   C4A22446  42.763  19.186   7.825
 1610POPC   C1B22447  43.191  18.900   8.727
 1610POPC   C2B22448  43.375  18.826   8.324
 1610POPC   C3B22449  43.343  19.007   7.893
 1610POPC   C4B22450  43.123  18.979   7.494
 1611POPC   NC322451  33.091  17.680   9.541
 1611POPC   PO422452  32.601  17.393   9.231
 1611POPC   GL122453  32.855  17.708   9.085
 1611POPC   GL222454  33.200  17.530   9.065
 1611POPC   C1A22455  32.872  17.839   8.686
 1611POPC   D2A22456  33.010  17.582   8.349
 1611POPC   C3A22457  32.781  17.645   7.977
 1611POPC   C4A22458  32.662  17.276   7.797
 1611POPC   C1B22459  33.104  17.206   8.764
 1611POPC   C2B22460  33.235  16.965   8.408
 1611POPC   C3B22461  33.351  17.021   8.012
 1611POPC   C4B22462  33.219  17.396   7.815
 1612POPC   NC322463  39.260  41.687   9.578
 1612POPC   PO422464  39.586  42.058   9.195
 1612POPC   GL122465  39.435  41.608   9.109
 1612POPC   GL222466  39.049  41.519   9.122
 1612POPC   C1A22467  39.373  41.384   8.738
 1612POPC   D2A22468  39.551  41.537   8.357
 1612POPC   C3A22469  39.234  41.520   8.109
 1612POPC   C4A22470  39.189  41.474   7.715
 1612POPC   C1B22471  38.863  41.623   8.736
 1612POPC   C2B22472  38.780  41.674   8.301
 1612POPC   C3B22473  38.827  41.817   7.854
 1612POPC   C4B22474  38.853  42.056   7.430
 1613POPC   NC322475  18.908   7.558   9.504
 1613POPC   PO422476  19.550   7.307   9.534
 1613POPC   GL122477  19.278   7.240   9.190
 1613POPC   GL222478  18.948   7.088   9.227
 1613POPC   C1A22479  19.070   7.432   8.845
 1613POPC   D2A22480  19.108   7.305   8.424
 1613POPC   C3A22481  19.159   7.587   8.073
 1613POPC   C4A22482  19.027   7.678   7.686
 1613POPC   C1B22483  18.748   7.026   8.826
 1613POPC   C2B22484  18.617   7.100   8.391
 1613POPC   C3B22485  18.919   7.003   8.063
 1613POPC   C4B22486  18.980   7.150   7.670
 1614POPC   NC322487  38.961  31.881   9.330
 1614POPC   PO422488  38.990  32.511   9.343
 1614POPC   GL122489  39.315  32.242   9.174
 1614POPC   GL222490  39.374  32.545   8.977
 1614POPC   C1A22491  39.396  32.074   8.784
 1614POPC   D2A22492  39.169  32.224   8.419
 1614POPC   C3A22493  39.182  31.997   8.038
 1614POPC   C4A22494  38.902  32.001   7.726
 1614POPC   C1B22495  39.094  32.775   8.703
 1614POPC   C2B22496  39.131  32.755   8.271
 1614POPC   C3B22497  38.989  32.471   7.994
 1614POPC   C4B22498  39.209  32.400   7.665
 1615POPC   NC322499   4.135   1.755   9.638
 1615POPC   PO422500   4.520   2.301   9.650
 1615POPC   GL122501   4.414   2.056   9.275
 1615POPC   GL222502   4.070   2.138   9.173
 1615POPC   C1A22503   4.647   1.944   8.855
 1615POPC   D2A22504   4.805   1.758   8.435
 1615POPC   C3A22505   4.673   1.974   8.033
 1615POPC   C4A22506   4.377   2.201   7.743
 1615POPC   C1B22507   4.075   2.258   8.700
 1615POPC   C2B22508   4.138   2.191   8.218
 1615POPC   C3B22509   4.066   1.821   7.929
 1615POPC   C4B22510   3.789   1.545   7.637
 1616POPC   NC322511  21.603  14.602   9.450
 1616POPC   PO422512  20.972  14.430   9.538
 1616POPC   GL122513  21.236  14.274   9.178
 1616POPC   GL222514  21.032  13.987   9.103
 1616POPC   C1A22515  21.452  14.404   8.779
 1616POPC   D2A22516  21.362  14.702   8.436
 1616POPC   C3A22517  21.289  14.542   8.040
 1616POPC   C4A22518  21.519  14.440   7.692
 1616POPC   C1B22519  21.237  13.933   8.746
 1616POPC   C2B22520  21.190  14.151   8.367
 1616POPC   C3B22521  21.068  14.105   7.929
 1616POPC   C4B22522  21.100  14.239   7.476
 1617POPC   NC322523  28.805   3.000   9.375
 1617POPC   PO422524  29.047   3.545   9.514
 1617POPC   GL122525  29.344   3.560   9.167
 1617POPC   GL222526  29.188   3.263   9.108
 1617POPC   C1A22527  29.502   3.394   8.745
 1617POPC   D2A22528  29.301   3.382   8.329
 1617POPC   C3A22529  29.494   3.540   7.933
 1617POPC   C4A22530  29.518   3.805   7.537
 1617POPC   C1B22531  29.012   3.531   8.780
 1617POPC   C2B22532  28.787   3.437   8.420
 1617POPC   C3B22533  28.894   3.402   8.018
 1617POPC   C4B22534  29.053   3.651   7.693
 1618POPC   NC322535  12.598  33.410   9.368
 1618POPC   PO422536  12.687  32.873   9.659
 1618POPC   GL122537  12.598  32.863   9.222
 1618POPC   GL222538  12.956  32.933   9.102
 1618POPC   C1A22539  12.531  33.051   8.811
 1618POPC   D2A22540  12.825  33.090   8.456
 1618POPC   C3A22541  12.678  32.953   8.061
 1618POPC   C4A22542  12.577  33.119   7.605
 1618POPC   C1B22543  13.237  32.942   8.733
 1618POPC   C2B22544  13.322  33.186   8.346
 1618POPC   C3B22545  13.173  33.223   7.935
 1618POPC   C4B22546  13.018  32.886   7.702
 1619POPC   NC322547  28.620  24.149   9.491
 1619POPC   PO422548  28.208  24.636   9.428
 1619POPC   GL122549  28.462  24.509   9.144
 1619POPC   GL222550  28.271  24.176   9.112
 1619POPC   C1A22551  28.485  24.764   8.771
 1619POPC   D2A22552  28.231  24.809   8.400
 1619POPC   C3A22553  28.454  24.861   8.051
 1619POPC   C4A22554  28.516  24.576   7.733
 1619POPC   C1B22555  28.443  24.251   8.714
 1619POPC   C2B22556  28.507  24.169   8.313
 1619POPC   C3B22557  28.259  23.977   8.045
 1619POPC   C4B22558  28.417  23.995   7.641
 1620POPC   NC322559  18.348   2.842   9.472
 1620POPC   PO422560  18.683   3.317   9.236
 1620POPC   GL122561  18.626   3.010   8.919
 1620POPC   GL222562  18.508   2.683   9.016
 1620POPC   C1A22563  18.259   3.004   8.656
 1620POPC   D2A22564  18.158   3.229   8.297
 1620POPC   C3A22565  18.396   3.035   7.975
 1620POPC   C4A22566  18.241   2.960   7.615
 1620POPC   C1B22567  18.277   2.515   8.665
 1620POPC   C2B22568  18.158   2.670   8.256
 1620POPC   C3B22569  18.336   2.503   7.882
 1620POPC   C4B22570  18.436   2.523   7.477
 1621POPC   NC322571  41.251  11.361   9.443
 1621POPC   PO422572  41.820  11.051   9.765
 1621POPC   GL122573  41.757  11.284   9.314
 1621POPC   GL222574  41.774  11.598   9.194
 1621POPC   C1A22575  41.585  11.278   8.843
 1621POPC   D2A22576  41.402  11.391   8.427
 1621POPC   C3A22577  41.471  11.231   8.033
 1621POPC   C4A22578  41.399  10.941   7.717
 1621POPC   C1B22579  42.010  11.600   8.825
 1621POPC   C2B22580  41.946  11.361   8.469
 1621POPC   C3B22581  41.982  11.412   8.049
 1621POPC   C4B22582  41.824  11.243   7.660
 1622POPC   NC322583  34.362  40.984   9.514
 1622POPC   PO422584  34.637  40.429   9.303
 1622POPC   GL122585  34.658  40.811   9.117
 1622POPC   GL222586  34.321  40.873   9.018
 1622POPC   C1A22587  34.763  40.798   8.700
 1622POPC   D2A22588  34.857  41.044   8.365
 1622POPC   C3A22589  34.778  40.805   8.030
 1622POPC   C4A22590  34.816  40.708   7.633
 1622POPC   C1B22591  34.387  41.140   8.657
 1622POPC   C2B22592  34.337  40.998   8.230
 1622POPC   C3B22593  34.344  40.962   7.787
 1622POPC   C4B22594  34.223  40.651   7.444
 1623POPC   NC322595  20.080  12.720   9.648
 1623POPC   PO422596  20.694  12.809   9.405
 1623POPC   GL122597  20.602  12.716   9.049
 1623POPC   GL222598  20.539  12.994   8.849
 1623POPC   C1A22599  20.777  12.571   8.693
 1623POPC   D2A22600  20.586  12.753   8.335
 1623POPC   C3A22601  20.801  12.790   7.949
 1623POPC   C4A22602  20.796  13.191   7.795
 1623POPC   C1B22603  20.192  12.971   8.601
 1623POPC   C2B22604  20.027  13.104   8.230
 1623POPC   C3B22605  20.288  13.008   7.896
 1623POPC   C4B22606  20.396  13.202   7.480
 1624POPC   NC322607   3.315  37.467   9.500
 1624POPC   PO422608   3.699  38.011   9.608
 1624POPC   GL122609   3.528  37.819   9.189
 1624POPC   GL222610   3.238  37.625   9.021
 1624POPC   C1A22611   3.678  37.506   8.843
 1624POPC   D2A22612   3.427  37.517   8.475
 1624POPC   C3A22613   3.622  37.829   8.209
 1624POPC   C4A22614   3.678  37.813   7.783
 1624POPC   C1B22615   3.069  37.848   8.666
 1624POPC   C2B22616   3.116  37.872   8.230
 1624POPC   C3B22617   3.232  37.597   7.883
 1624POPC   C4B22618   3.320  37.688   7.428
 1625POPC   NC322619  41.951   6.397   9.577
 1625POPC   PO422620  42.441   6.891   9.630
 1625POPC   GL122621  42.200   6.723   9.259
 1625POPC   GL222622  41.899   6.913   9.184
 1625POPC   C1A22623  42.313   6.720   8.806
 1625POPC   D2A22624  42.536   6.618   8.407
 1625POPC   C3A22625  42.383   6.752   7.996
 1625POPC   C4A22626  42.361   6.483   7.690
 1625POPC   C1B22627  41.836   6.519   8.927
 1625POPC   C2B22628  42.057   6.320   8.603
 1625POPC   C3B22629  42.051   6.421   8.175
 1625POPC   C4B22630  41.962   6.181   7.822
 1626POPC   NC322631  35.649  25.926   9.573
 1626POPC   PO422632  35.009  26.193   9.478
 1626POPC   GL122633  35.248  26.140   9.126
 1626POPC   GL222634  35.384  25.879   9.103
 1626POPC   C1A22635  35.082  26.017   8.699
 1626POPC   D2A22636  35.167  25.793   8.345
 1626POPC   C3A22637  35.051  26.069   8.066
 1626POPC   C4A22638  35.098  26.094   7.665
 1626POPC   C1B22639  35.381  25.618   8.772
 1626POPC   C2B22640  35.652  25.609   8.432
 1626POPC   C3B22641  35.713  25.925   8.140
 1626POPC   C4B22642  35.435  25.810   7.877
 1627POPC   NC322643  39.469  27.217   9.305
 1627POPC   PO422644  38.926  27.478   9.654
 1627POPC   GL122645  39.095  27.602   9.196
 1627POPC   GL222646  39.251  27.932   9.120
 1627POPC   C1A22647  39.277  27.542   8.757
 1627POPC   D2A22648  39.148  27.318   8.360
 1627POPC   C3A22649  38.990  27.516   7.976
 1627POPC   C4A22650  39.006  27.564   7.521
 1627POPC   C1B22651  39.554  28.161   8.910
 1627POPC   C2B22652  39.628  28.133   8.489
 1627POPC   C3B22653  39.730  28.035   8.058
 1627POPC   C4B22654  39.452  27.751   7.840
 1628POPC   NC322655  23.388  41.386   9.380
 1628POPC   PO422656  23.771  41.913   9.459
 1628POPC   GL122657  23.694  41.831   9.012
 1628POPC   GL222658  23.789  41.470   9.046
 1628POPC   C1A22659  23.777  41.818   8.534
 1628POPC   D2A22660  23.744  41.493   8.211
 1628POPC   C3A22661  23.611  41.638   7.806
 1628POPC   C4A22662  23.856  41.873   7.508
 1628POPC   C1B22663  23.519  41.388   8.694
 1628POPC   C2B22664  23.420  41.105   8.376
 1628POPC   C3B22665  23.417  41.173   7.953
 1628POPC   C4B22666  23.227  41.337   7.620
 1629POPC   NC322667   4.765  36.487   9.402
 1629POPC   PO422668   5.385  36.175   9.580
 1629POPC   GL122669   5.377  36.095   9.128
 1629POPC   GL222670   5.026  36.157   9.105
 1629POPC   C1A22671   5.282  36.097   8.672
 1629POPC   D2A22672   5.356  36.365   8.336
 1629POPC   C3A22673   5.331  36.092   8.029
 1629POPC   C4A22674   5.367  36.058   7.622
 1629POPC   C1B22675   4.783  36.191   8.728
 1629POPC   C2B22676   4.891  36.105   8.293
 1629POPC   C3B22677   4.878  36.218   7.849
 1629POPC   C4B22678   4.898  35.923   7.474
 1630POPC   NC322679   0.927  32.904   9.369
 1630POPC   PO422680   1.350  33.343   9.645
 1630POPC   GL122681   1.347  33.184   9.191
 1630POPC   GL222682   1.015  33.282   9.060
 1630POPC   C1A22683   1.422  33.306   8.736
 1630POPC   D2A22684   1.623  33.203   8.330
 1630POPC   C3A22685   1.357  33.003   7.993
 1630POPC   C4A22686   1.240  32.979   7.553
 1630POPC   C1B22687   0.847  33.253   8.660
 1630POPC   C2B22688   0.956  33.152   8.271
 1630POPC   C3B22689   0.843  32.927   7.919
 1630POPC   C4B22690   0.663  33.089   7.582
 1631POPC   NC322691  21.173  10.866   9.582
 1631POPC   PO422692  21.786  10.608   9.443
 1631POPC   GL122693  21.452  10.663   9.161
 1631POPC   GL222694  21.356  10.308   9.177
 1631POPC   C1A22695  21.414  10.795   8.730
 1631POPC   D2A22696  21.281  10.702   8.294
 1631POPC   C3A22697  21.507  10.374   8.054
 1631POPC   C4A22698  21.527  10.496   7.644
 1631POPC   C1B22699  21.287  10.306   8.721
 1631POPC   C2B22700  21.089  10.205   8.318
 1631POPC   C3B22701  21.043  10.375   7.883
 1631POPC   C4B22702  21.163  10.133   7.536
 1632POPC   NC322703  44.649   6.450   9.521
 1632POPC   PO422704  44.682   7.111   9.291
 1632POPC   GL122705  44.540   6.764   9.114
 1632POPC   GL222706  44.346   6.916   8.894
 1632POPC   C1A22707  44.728   6.537   8.776
 1632POPC   D2A22708  44.972   6.554   8.391
 1632POPC   C3A22709  44.797   6.463   8.006
 1632POPC   C4A22710  44.818   6.804   7.731
 1632POPC   C1B22711  44.203   6.521   8.755
 1632POPC   C2B22712  44.403   6.484   8.368
 1632POPC   C3B22713  44.388   6.740   8.017
 1632POPC   C4B22714  44.386   6.476   7.660
 1633POPC   NC322715  13.715  34.664   9.620
 1633POPC   PO422716  13.379  34.067   9.694
 1633POPC   GL122717  13.563  34.307   9.278
 1633POPC   GL222718  13.340  34.604   9.175
 1633POPC   C1A22719  13.762  34.513   8.888
 1633POPC   D2A22720  13.588  34.620   8.480
 1633POPC   C3A22721  13.748  34.559   8.091
 1633POPC   C4A22722  13.838  34.738   7.715
 1633POPC   C1B22723  13.268  34.357   8.774
 1633POPC   C2B22724  13.325  34.169   8.359
 1633POPC   C3B22725  13.249  34.288   7.954
 1633POPC   C4B22726  13.331  34.669   7.754
 1634POPC   NC322727  37.269  16.926   9.296
 1634POPC   PO422728  36.661  16.654   9.508
 1634POPC   GL122729  36.704  16.793   9.147
 1634POPC   GL222730  36.919  16.533   9.020
 1634POPC   C1A22731  36.778  17.041   8.827
 1634POPC   D2A22732  36.927  16.778   8.531
 1634POPC   C3A22733  36.716  16.915   8.185
 1634POPC   C4A22734  37.010  16.944   7.905
 1634POPC   C1B22735  36.710  16.309   8.672
 1634POPC   C2B22736  36.618  16.439   8.305
 1634POPC   C3B22737  36.781  16.473   7.900
 1634POPC   C4B22738  36.896  16.403   7.489
 1635POPC   NC322739  21.000  39.639   9.358
 1635POPC   PO422740  20.902  40.273   9.621
 1635POPC   GL122741  20.657  40.241   9.221
 1635POPC   GL222742  20.458  39.928   9.088
 1635POPC   C1A22743  20.554  40.356   8.805
 1635POPC   D2A22744  20.459  40.103   8.477
 1635POPC   C3A22745  20.677  40.218   8.140
 1635POPC   C4A22746  20.608  40.180   7.721
 1635POPC   C1B22747  20.838  39.914   8.792
 1635POPC   C2B22748  21.141  39.910   8.427
 1635POPC   C3B22749  21.026  39.883   7.985
 1635POPC   C4B22750  20.852  39.734   7.612
 1636POPC   NC322751  30.610  20.339   9.427
 1636POPC   PO422752  30.715  21.005   9.389
 1636POPC   GL122753  30.728  20.700   9.053
 1636POPC   GL222754  30.837  20.339   8.966
 1636POPC   C1A22755  30.571  20.765   8.683
 1636POPC   D2A22756  30.784  20.569   8.366
 1636POPC   C3A22757  30.912  20.760   7.993
 1636POPC   C4A22758  30.643  20.727   7.645
 1636POPC   C1B22759  30.482  20.275   8.709
 1636POPC   C2B22760  30.292  20.438   8.336
 1636POPC   C3B22761  30.551  20.343   7.977
 1636POPC   C4B22762  30.653  19.966   7.797
 1637POPC   NC322763   7.871  37.196   9.411
 1637POPC   PO422764   8.048  37.891   9.418
 1637POPC   GL122765   8.240  37.561   9.193
 1637POPC   GL222766   8.576  37.753   9.182
 1637POPC   C1A22767   8.043  37.401   8.808
 1637POPC   D2A22768   8.122  37.260   8.422
 1637POPC   C3A22769   7.851  37.402   8.110
 1637POPC   C4A22770   8.038  37.431   7.708
 1637POPC   C1B22771   8.447  37.720   8.743
 1637POPC   C2B22772   8.137  37.760   8.419
 1637POPC   C3B22773   8.156  37.873   7.984
 1637POPC   C4B22774   8.448  37.845   7.631
 1638POPC   NC322775  18.825  28.704   9.382
 1638POPC   PO422776  18.935  28.184   9.792
 1638POPC   GL122777  19.163  28.098   9.245
 1638POPC   GL222778  19.174  28.462   9.105
 1638POPC   C1A22779  19.096  28.148   8.746
 1638POPC   D2A22780  19.313  28.503   8.514
 1638POPC   C3A22781  19.141  28.538   8.096
 1638POPC   C4A22782  19.137  28.168   7.822
 1638POPC   C1B22783  18.873  28.675   8.743
 1638POPC   C2B22784  18.546  28.717   8.382
 1638POPC   C3B22785  18.687  28.803   7.947
 1638POPC   C4B22786  18.959  28.586   7.603
 1639POPC   NC322787  44.286   2.517   9.282
 1639POPC   PO422788  44.844   2.799   9.677
 1639POPC   GL122789  44.733   2.727   9.265
 1639POPC   GL222790  44.448   2.993   9.249
 1639POPC   C1A22791  44.726   2.669   8.799
 1639POPC   D2A22792  44.763   2.489   8.370
 1639POPC   C3A22793  44.689   2.670   7.951
 1639POPC   C4A22794  44.902   2.521   7.564
 1639POPC   C1B22795  44.418   3.083   8.811
 1639POPC   C2B22796  44.720   3.069   8.447
 1639POPC   C3B22797  44.744   3.202   8.006
 1639POPC   C4B22798  44.439   3.142   7.693
 1640POPC   NC322799  33.552  10.929   9.502
 1640POPC   PO422800  32.864  10.695   9.498
 1640POPC   GL122801  33.236  10.525   9.288
 1640POPC   GL222802  33.459  10.718   9.050
 1640POPC   C1A22803  33.099  10.346   8.929
 1640POPC   D2A22804  32.790  10.507   8.627
 1640POPC   C3A22805  32.925  10.509   8.194
 1640POPC   C4A22806  32.886  10.561   7.749
 1640POPC   C1B22807  33.189  10.794   8.711
 1640POPC   C2B22808  33.322  10.806   8.308
 1640POPC   C3B22809  33.351  10.692   7.883
 1640POPC   C4B22810  33.301  10.728   7.428
 1641POPC   NC322811   8.813  43.363   9.338
 1641POPC   PO422812   8.985  43.987   9.528
 1641POPC   GL122813   9.056  44.174   9.138
 1641POPC   GL222814   8.742  44.378   9.213
 1641POPC   C1A22815   9.226  44.069   8.714
 1641POPC   D2A22816   9.229  43.709   8.438
 1641POPC   C3A22817   9.019  43.738   8.045
 1641POPC   C4A22818   9.226  43.766   7.616
 1641POPC   C1B22819   8.639  44.131   8.862
 1641POPC   C2B22820   8.683  43.853   8.511
 1641POPC   C3B22821   8.537  43.981   8.097
 1641POPC   C4B22822   8.669  44.165   7.704
 1642POPC   NC322823  20.539  15.847   9.980
 1642POPC   PO422824  20.878  16.307   9.577
 1642POPC   GL122825  20.780  15.987   9.208
 1642POPC   GL222826  20.427  15.846   9.164
 1642POPC   C1A22827  20.682  15.882   8.732
 1642POPC   D2A22828  20.352  15.777   8.439
 1642POPC   C3A22829  20.616  15.719   8.103
 1642POPC   C4A22830  20.730  16.100   7.909
 1642POPC   C1B22831  20.365  16.236   8.841
 1642POPC   C2B22832  20.523  16.277   8.412
 1642POPC   C3B22833  20.282  16.334   8.025
 1642POPC   C4B22834  20.371  16.268   7.588
 1643POPC   NC322835  42.689  44.266   9.494
 1643POPC   PO422836  42.287  43.758   9.748
 1643POPC   GL122837  42.462  43.816   9.319
 1643POPC   GL222838  42.180  43.950   9.156
 1643POPC   C1A22839  42.562  43.785   8.847
 1643POPC   D2A22840  42.698  43.783   8.383
 1643POPC   C3A22841  42.574  43.660   7.961
 1643POPC   C4A22842  42.508  43.790   7.536
 1643POPC   C1B22843  42.082  43.850   8.727
 1643POPC   C2B22844  42.174  43.868   8.295
 1643POPC   C3B22845  42.082  43.827   7.858
 1643POPC   C4B22846  42.016  43.817   7.396
 1644POPC   NC322847  20.967   2.849   9.430
 1644POPC   PO422848  20.395   3.125   9.386
 1644POPC   GL122849  20.512   2.794   9.079
 1644POPC   GL222850  20.719   2.457   9.155
 1644POPC   C1A22851  20.355   2.809   8.660
 1644POPC   D2A22852  20.397   3.054   8.295
 1644POPC   C3A22853  20.463   2.835   7.942
 1644POPC   C4A22854  20.741   2.694   7.655
 1644POPC   C1B22855  20.507   2.319   8.771
 1644POPC   C2B22856  20.571   2.448   8.343
 1644POPC   C3B22857  20.578   2.293   7.948
 1644POPC   C4B22858  20.329   2.295   7.566
 1645POPC   NC322859  35.727  29.126   9.493
 1645POPC   PO422860  35.077  29.368   9.512
 1645POPC   GL122861  35.071  29.349   9.097
 1645POPC   GL222862  35.423  29.196   9.060
 1645POPC   C1A22863  35.183  29.501   8.696
 1645POPC   D2A22864  35.257  29.228   8.335
 1645POPC   C3A22865  35.139  29.373   7.918
 1645POPC   C4A22866  34.864  29.064   7.734
 1645POPC   C1B22867  35.480  28.845   8.763
 1645POPC   C2B22868  35.611  28.805   8.334
 1645POPC   C3B22869  35.602  29.088   7.955
 1645POPC   C4B22870  35.384  28.983   7.572
 1646POPC   NC322871  43.307  31.406   9.425
 1646POPC   PO422872  42.694  31.605   9.504
 1646POPC   GL122873  42.840  31.272   9.208
 1646POPC   GL222874  42.976  31.577   9.068
 1646POPC   C1A22875  43.113  31.172   8.834
 1646POPC   D2A22876  43.117  31.492   8.536
 1646POPC   C3A22877  43.066  31.320   8.138
 1646POPC   C4A22878  43.313  31.425   7.767
 1646POPC   C1B22879  42.793  31.852   8.802
 1646POPC   C2B22880  42.913  31.939   8.398
 1646POPC   C3B22881  42.884  31.780   7.984
 1646POPC   C4B22882  42.669  31.818   7.601
 1647POPC   NC322883  23.616  27.777   9.547
 1647POPC   PO422884  24.014  27.148   9.565
 1647POPC   GL122885  23.846  27.408   9.229
 1647POPC   GL222886  23.484  27.366   9.119
 1647POPC   C1A22887  23.873  27.611   8.830
 1647POPC   D2A22888  23.719  27.724   8.445
 1647POPC   C3A22889  23.793  27.559   8.033
 1647POPC   C4A22890  23.929  27.798   7.661
 1647POPC   C1B22891  23.258  27.464   8.736
 1647POPC   C2B22892  23.249  27.593   8.291
 1647POPC   C3B22893  23.318  27.401   7.898
 1647POPC   C4B22894  23.615  27.313   7.570
 1648POPC   NC322895  29.982   5.032   9.497
 1648POPC   PO422896  30.379   5.612   9.466
 1648POPC   GL122897  30.135   5.383   9.138
 1648POPC   GL222898  29.778   5.434   9.108
 1648POPC   C1A22899  30.010   5.116   8.764
 1648POPC   D2A22900  29.801   4.743   8.541
 1648POPC   C3A22901  29.672   4.817   8.104
 1648POPC   C4A22902  30.032   4.928   7.833
 1648POPC   C1B22903  29.659   5.530   8.729
 1648POPC   C2B22904  29.643   5.242   8.422
 1648POPC   C3B22905  29.759   5.331   8.048
 1648POPC   C4B22906  29.597   5.241   7.691
 1649POPC   NC322907   6.023  44.885   9.706
 1649POPC   PO422908   5.824  44.363   9.755
 1649POPC   GL122909   5.933  44.560   9.295
 1649POPC   GL222910   6.131  44.902   9.203
 1649POPC   C1A22911   5.797  44.570   8.826
 1649POPC   D2A22912   5.906  44.585   8.360
 1649POPC   C3A22913   5.582  44.627   8.011
 1649POPC   C4A22914   5.451  44.716   7.551
 1649POPC   C1B22915   6.256  44.759   8.789
 1649POPC   C2B22916   6.313  44.888   8.373
 1649POPC   C3B22917   6.238  44.720   7.980
 1649POPC   C4B22918   5.940  44.653   7.658
 1650POPC   NC322919   1.441  18.022   9.468
 1650POPC   PO422920   1.577  18.656   9.488
 1650POPC   GL122921   1.395  18.445   9.121
 1650POPC   GL222922   1.064  18.291   9.197
 1650POPC   C1A22923   1.306  18.191   8.756
 1650POPC   D2A22924   1.273  17.926   8.432
 1650POPC   C3A22925   1.227  18.063   8.031
 1650POPC   C4A22926   1.424  18.349   7.791
 1650POPC   C1B22927   0.937  18.525   8.821
 1650POPC   C2B22928   0.885  18.324   8.418
 1650POPC   C3B22929   0.874  18.456   7.974
 1650POPC   C4B22930   0.825  18.141   7.689
 1651POPC   NC322931  18.648  14.905   9.620
 1651POPC   PO422932  17.938  15.059   9.488
 1651POPC   GL122933  18.068  14.822   9.100
 1651POPC   GL222934  18.383  14.984   9.041
 1651POPC   C1A22935  18.195  14.705   8.670
 1651POPC   D2A22936  18.388  15.020   8.367
 1651POPC   C3A22937  18.376  14.950   7.925
 1651POPC   C4A22938  18.093  14.870   7.582
 1651POPC   C1B22939  18.107  15.222   8.756
 1651POPC   C2B22940  18.125  15.472   8.394
 1651POPC   C3B22941  18.335  15.521   8.003
 1651POPC   C4B22942  18.189  15.356   7.649
 1652POPC   NC322943   5.784  35.961   9.433
 1652POPC   PO422944   6.281  36.390   9.341
 1652POPC   GL122945   6.028  36.199   9.044
 1652POPC   GL222946   6.071  35.868   9.021
 1652POPC   C1A22947   5.764  36.285   8.706
 1652POPC   D2A22948   5.816  36.135   8.291
 1652POPC   C3A22949   5.756  36.336   7.882
 1652POPC   C4A22950   5.993  36.462   7.531
 1652POPC   C1B22951   5.674  35.791   8.783
 1652POPC   C2B22952   5.484  35.720   8.355
 1652POPC   C3B22953   5.716  35.778   7.943
 1652POPC   C4B22954   6.068  35.913   7.735
 1653POPC   NC322955  33.856   6.464   9.733
 1653POPC   PO422956  33.512   6.975   9.465
 1653POPC   GL122957  33.621   6.689   9.145
 1653POPC   GL222958  33.896   6.463   9.227
 1653POPC   C1A22959  33.919   6.735   8.784
 1653POPC   D2A22960  34.026   6.742   8.346
 1653POPC   C3A22961  33.711   6.838   8.012
 1653POPC   C4A22962  33.932   6.699   7.660
 1653POPC   C1B22963  33.700   6.278   8.858
 1653POPC   C2B22964  33.598   6.424   8.463
 1653POPC   C3B22965  33.782   6.351   8.075
 1653POPC   C4B22966  33.497   6.427   7.739
 1654POPC   NC322967  43.483  13.706   9.309
 1654POPC   PO422968  44.169  13.655   9.407
 1654POPC   GL122969  43.952  13.725   9.058
 1654POPC   GL222970  43.813  13.385   9.086
 1654POPC   C1A22971  43.793  13.632   8.651
 1654POPC   D2A22972  43.512  13.426   8.374
 1654POPC   C3A22973  43.726  13.492   7.975
 1654POPC   C4A22974  43.652  13.711   7.590
 1654POPC   C1B22975  44.181  13.316   8.799
 1654POPC   C2B22976  44.149  13.237   8.374
 1654POPC   C3B22977  44.258  13.421   7.992
 1654POPC   C4B22978  44.127  13.535   7.588
 1655POPC   NC322979   7.468  10.130   9.432
 1655POPC   PO422980   7.815   9.546   9.420
 1655POPC   GL122981   7.556   9.611   9.062
 1655POPC   GL222982   7.286   9.823   9.082
 1655POPC   C1A22983   7.484   9.695   8.636
 1655POPC   D2A22984   7.593   9.920   8.298
 1655POPC   C3A22985   7.341   9.804   7.947
 1655POPC   C4A22986   7.378   9.729   7.501
 1655POPC   C1B22987   7.036   9.920   8.735
 1655POPC   C2B22988   7.117  10.092   8.352
 1655POPC   C3B22989   6.942  10.108   7.955
 1655POPC   C4B22990   6.983  10.043   7.492
 1656POPC   NC322991  38.558  27.113   9.704
 1656POPC   PO422992  38.405  26.464   9.592
 1656POPC   GL122993  38.469  26.788   9.281
 1656POPC   GL222994  38.264  26.589   9.118
 1656POPC   C1A22995  38.571  26.888   8.827
 1656POPC   D2A22996  38.770  26.970   8.417
 1656POPC   C3A22997  38.558  26.837   8.064
 1656POPC   C4A22998  38.726  26.677   7.723
 1656POPC   C1B22999  38.090  26.683   8.794
 1656POPC   C2B23000  38.206  26.832   8.432
 1656POPC   C3B23001  38.086  26.635   8.042
 1656POPC   C4B23002  38.211  26.695   7.649
 1657POPC   NC323003  25.788  37.272   9.459
 1657POPC   PO423004  26.124  37.881   9.605
 1657POPC   GL123005  26.016  37.775   9.204
 1657POPC   GL223006  25.965  37.471   9.022
 1657POPC   C1A23007  25.879  37.986   8.837
 1657POPC   D2A23008  25.943  37.816   8.423
 1657POPC   C3A23009  25.808  37.942   8.001
 1657POPC   C4A23010  26.007  37.587   7.739
 1657POPC   C1B23011  26.321  37.562   8.767
 1657POPC   C2B23012  26.529  37.525   8.376
 1657POPC   C3B23013  26.432  37.411   7.970
 1657POPC   C4B23014  26.475  37.536   7.542
 1658POPC   NC323015  11.923  13.424   9.512
 1658POPC   PO423016  12.605  13.471   9.353
 1658POPC   GL123017  12.260  13.486   9.078
 1658POPC   GL223018  11.927  13.550   9.036
 1658POPC   C1A23019  12.119  13.251   8.683
 1658POPC   D2A23020  12.166  13.058   8.266
 1658POPC   C3A23021  11.999  13.360   7.941
 1658POPC   C4A23022  12.146  13.776   7.847
 1658POPC   C1B23023  12.030  13.764   8.676
 1658POPC   C2B23024  11.822  13.745   8.285
 1658POPC   C3B23025  11.687  13.979   7.919
 1658POPC   C4B23026  11.631  13.823   7.460
 1659POPC   NC323027  17.402  28.774   9.565
 1659POPC   PO423028  17.425  29.461   9.522
 1659POPC   GL123029  17.289  29.315   9.157
 1659POPC   GL223030  17.587  29.098   9.099
 1659POPC   C1A23031  17.381  29.385   8.720
 1659POPC   D2A23032  17.606  29.391   8.358
 1659POPC   C3A23033  17.332  29.455   8.026
 1659POPC   C4A23034  17.469  29.349   7.682
 1659POPC   C1B23035  17.262  28.893   8.869
 1659POPC   C2B23036  17.174  28.965   8.457
 1659POPC   C3B23037  17.411  28.945   8.098
 1659POPC   C4B23038  17.290  28.869   7.698
 1660POPC   NC323039  38.809  34.641   9.494
 1660POPC   PO423040  38.468  34.164   9.737
 1660POPC   GL123041  38.339  34.283   9.258
 1660POPC   GL223042  38.398  34.654   9.181
 1660POPC   C1A23043  38.513  34.328   8.813
 1660POPC   D2A23044  38.534  34.538   8.420
 1660POPC   C3A23045  38.408  34.353   8.044
 1660POPC   C4A23046  38.464  34.538   7.691
 1660POPC   C1B23047  38.281  34.831   8.758
 1660POPC   C2B23048  38.353  35.019   8.345
 1660POPC   C3B23049  38.521  34.974   7.965
 1660POPC   C4B23050  38.741  34.966   7.590
 1661POPC   NC323051  23.233   3.796   9.472
 1661POPC   PO423052  22.791   3.372   9.555
 1661POPC   GL123053  22.848   3.604   9.177
 1661POPC   GL223054  23.103   3.396   9.091
 1661POPC   C1A23055  22.743   3.785   8.762
 1661POPC   D2A23056  22.899   3.988   8.384
 1661POPC   C3A23057  22.848   3.788   7.976
 1661POPC   C4A23058  22.474   3.871   7.714
 1661POPC   C1B23059  23.242   3.578   8.704
 1661POPC   C2B23060  22.948   3.478   8.384
 1661POPC   C3B23061  22.908   3.275   8.002
 1661POPC   C4B23062  23.237   3.359   7.736
 1662POPC   NC323063  44.767  23.536   9.497
 1662POPC   PO423064  44.557  22.879   9.480
 1662POPC   GL123065  44.547  23.078   9.112
 1662POPC   GL223066  44.222  23.198   9.162
 1662POPC   C1A23067  44.648  23.069   8.651
 1662POPC   D2A23068  44.586  22.704   8.350
 1662POPC   C3A23069  44.778  22.717   7.924
 1662POPC   C4A23070   0.138  22.901   7.741
 1662POPC   C1B23071  44.183  22.938   8.789
 1662POPC   C2B23072  44.204  23.087   8.377
 1662POPC   C3B23073  44.374  23.028   7.993
 1662POPC   C4B23074  44.192  23.115   7.640
 1663POPC   NC323075  25.783   9.492   9.601
 1663POPC   PO423076  26.253   9.898   9.468
 1663POPC   GL123077  26.262   9.868   9.082
 1663POPC   GL223078  25.908   9.960   9.071
 1663POPC   C1A23079  26.212   9.887   8.660
 1663POPC   D2A23080  26.142   9.546   8.393
 1663POPC   C3A23081  26.197   9.731   8.015
 1663POPC   C4A23082  26.247  10.068   7.684
 1663POPC   C1B23083  25.741   9.696   8.738
 1663POPC   C2B23084  25.576   9.529   8.349
 1663POPC   C3B23085  25.787   9.397   8.006
 1663POPC   C4B23086  25.937   9.531   7.621
 1664POPC   NC323087  10.004  32.393   9.423
 1664POPC   PO423088   9.406  32.059   9.509
 1664POPC   GL123089   9.679  31.982   9.172
 1664POPC   GL223090  10.029  31.986   9.106
 1664POPC   C1A23091   9.645  32.113   8.761
 1664POPC   D2A23092   9.653  32.309   8.382
 1664POPC   C3A23093   9.617  32.033   8.077
 1664POPC   C4A23094   9.671  31.914   7.690
 1664POPC   C1B23095  10.153  32.251   8.758
 1664POPC   C2B23096  10.129  32.465   8.361
 1664POPC   C3B23097   9.988  32.363   7.948
 1664POPC   C4B23098  10.128  32.231   7.539
 1665POPC   NC323099   0.544   8.880   9.643
 1665POPC   PO423100   0.276   8.266   9.450
 1665POPC   GL123101   0.571   8.251   9.133
 1665POPC   GL223102   0.438   7.928   9.089
 1665POPC   C1A23103   0.723   8.120   8.722
 1665POPC   D2A23104   0.446   8.093   8.415
 1665POPC   C3A23105   0.591   8.095   8.013
 1665POPC   C4A23106   0.307   8.118   7.688
 1665POPC   C1B23107   0.092   7.851   8.827
 1665POPC   C2B23108   0.033   7.789   8.424
 1665POPC   C3B23109   0.228   7.719   8.022
 1665POPC   C4B23110   0.202   7.601   7.578
 1666POPC   NC323111  17.347  13.996   9.247
 1666POPC   PO423112  17.619  13.377   9.428
 1666POPC   GL123113  17.510  13.430   9.000
 1666POPC   GL223114  17.732  13.733   8.924
 1666POPC   C1A23115  17.723  13.339   8.585
 1666POPC   D2A23116  17.997  13.189   8.247
 1666POPC   C3A23117  17.708  13.326   7.908
 1666POPC   C4A23118  17.283  13.201   7.703
 1666POPC   C1B23119  17.362  13.794   8.629
 1666POPC   C2B23120  17.068  13.933   8.283
 1666POPC   C3B23121  17.376  13.867   7.931
 1666POPC   C4B23122  17.848  13.900   7.924
 1667POPC   NC323123  42.229  13.034   9.426
 1667POPC   PO423124  42.710  12.604   9.353
 1667POPC   GL123125  42.565  12.885   9.076
 1667POPC   GL223126  42.233  12.817   8.968
 1667POPC   C1A23127  42.594  13.016   8.684
 1667POPC   D2A23128  42.231  12.877   8.405
 1667POPC   C3A23129  42.086  13.131   8.050
 1667POPC   C4A23130  42.118  12.953   7.646
 1667POPC   C1B23131  42.502  12.523   8.696
 1667POPC   C2B23132  42.678  12.605   8.292
 1667POPC   C3B23133  42.555  12.881   7.928
 1667POPC   C4B23134  42.541  12.765   7.473
 1668POPC   NC323135   2.099  30.856   9.498
 1668POPC   PO423136   1.724  30.306   9.423
 1668POPC   GL123137   1.839  30.599   9.142
 1668POPC   GL223138   2.192  30.554   9.119
 1668POPC   C1A23139   1.921  30.952   8.857
 1668POPC   D2A23140   2.061  31.016   8.442
 1668POPC   C3A23141   1.908  30.861   8.052
 1668POPC   C4A23142   1.726  31.008   7.666
 1668POPC   C1B23143   2.361  30.702   8.770
 1668POPC   C2B23144   2.268  30.556   8.369
 1668POPC   C3B23145   2.180  30.426   7.964
 1668POPC   C4B23146   2.165  30.722   7.621
 1669POPC   NC323147  16.105  22.923   9.811
 1669POPC   PO423148  15.660  22.660   9.397
 1669POPC   GL123149  16.000  22.857   9.243
 1669POPC   GL223150  15.747  23.015   9.025
 1669POPC   C1A23151  16.144  22.762   8.825
 1669POPC   D2A23152  15.855  22.821   8.466
 1669POPC   C3A23153  16.026  22.756   8.056
 1669POPC   C4A23154  15.937  22.885   7.675
 1669POPC   C1B23155  15.550  23.346   8.782
 1669POPC   C2B23156  15.712  23.438   8.379
 1669POPC   C3B23157  15.690  23.166   8.043
 1669POPC   C4B23158  15.687  23.320   7.656
 1670POPC   NC323159  14.373  33.927   9.342
 1670POPC   PO423160  14.641  33.365   9.667
 1670POPC   GL123161  14.596  33.507   9.168
 1670POPC   GL223162  14.832  33.731   9.056
 1670POPC   C1A23163  14.423  33.703   8.734
 1670POPC   D2A23164  14.221  33.770   8.330
 1670POPC   C3A23165  14.222  34.153   8.125
 1670POPC   C4A23166  14.273  33.952   7.752
 1670POPC   C1B23167  14.736  34.108   8.777
 1670POPC   C2B23168  14.671  34.103   8.359
 1670POPC   C3B23169  14.668  33.858   8.039
 1670POPC   C4B23170  14.750  33.763   7.648
 1671POPC   NC323171  12.936  16.620   9.388
 1671POPC   PO423172  12.287  16.695   9.564
 1671POPC   GL123173  12.440  16.687   9.094
 1671POPC   GL223174  12.633  16.944   8.968
 1671POPC   C1A23175  12.588  16.569   8.662
 1671POPC   D2A23176  12.617  16.871   8.374
 1671POPC   C3A23177  12.643  16.650   8.043
 1671POPC   C4A23178  12.978  16.530   7.786
 1671POPC   C1B23179  13.000  16.901   8.694
 1671POPC   C2B23180  13.104  16.814   8.234
 1671POPC   C3B23181  13.252  16.956   7.831
 1671POPC   C4B23182  13.368  16.714   7.467
 1672POPC   NC323183  21.290  28.471   9.558
 1672POPC   PO423184  21.191  27.872   9.441
 1672POPC   GL123185  21.211  28.229   9.112
 1672POPC   GL223186  21.398  28.593   9.091
 1672POPC   C1A23187  21.463  28.209   8.740
 1672POPC   D2A23188  21.482  27.888   8.415
 1672POPC   C3A23189  21.389  28.052   8.033
 1672POPC   C4A23190  21.570  28.270   7.680
 1672POPC   C1B23191  21.097  28.627   8.782
 1672POPC   C2B23192  21.155  28.417   8.380
 1672POPC   C3B23193  21.229  28.553   7.959
 1672POPC   C4B23194  21.226  28.613   7.491
 1673POPC   NC323195  29.295  24.683   9.426
 1673POPC   PO423196  29.201  25.359   9.394
 1673POPC   GL123197  29.164  25.327   9.002
 1673POPC   GL223198  29.351  25.642   8.934
 1673POPC   C1A23199  29.013  24.987   8.712
 1673POPC   D2A23200  29.211  24.762   8.356
 1673POPC   C3A23201  28.992  24.982   8.037
 1673POPC   C4A23202  29.162  25.163   7.679
 1673POPC   C1B23203  29.070  25.536   8.561
 1673POPC   C2B23204  29.159  25.502   8.114
 1673POPC   C3B23205  29.248  25.671   7.716
 1673POPC   C4B23206  29.331  25.457   7.295
 1674POPC   NC323207  13.162  24.563   9.751
 1674POPC   PO423208  13.741  24.493   9.394
 1674POPC   GL123209  13.663  24.677   8.974
 1674POPC   GL223210  13.477  24.412   8.832
 1674POPC   C1A23211  13.789  24.658   8.548
 1674POPC   D2A23212  13.700  24.308   8.313
 1674POPC   C3A23213  13.574  24.439   7.946
 1674POPC   C4A23214  13.478  24.734   7.663
 1674POPC   C1B23215  13.285  24.026   8.785
 1674POPC   C2B23216  13.222  24.054   8.396
 1674POPC   C3B23217  13.114  24.174   8.025
 1674POPC   C4B23218  13.181  24.317   7.629
 1675POPC   NC323219  15.476  20.683   9.525
 1675POPC   PO423220  14.847  20.885   9.498
 1675POPC   GL123221  15.094  20.655   9.123
 1675POPC   GL223222  15.436  20.448   9.073
 1675POPC   C1A23223  15.028  20.420   8.739
 1675POPC   D2A23224  14.753  20.465   8.379
 1675POPC   C3A23225  14.913  20.414   7.975
 1675POPC   C4A23226  15.116  20.687   7.686
 1675POPC   C1B23227  15.507  20.639   8.673
 1675POPC   C2B23228  15.322  20.635   8.266
 1675POPC   C3B23229  15.424  20.379   7.931
 1675POPC   C4B23230  15.572  20.497   7.548
 1676POPC   NC323231  29.669  21.887   9.423
 1676POPC   PO423232  30.234  22.236   9.562
 1676POPC   GL123233  30.035  22.240   9.193
 1676POPC   GL223234  30.144  22.541   9.082
 1676POPC   C1A23235  29.774  22.144   8.830
 1676POPC   D2A23236  29.651  21.980   8.455
 1676POPC   C3A23237  29.822  22.124   8.072
 1676POPC   C4A23238  29.539  22.065   7.753
 1676POPC   C1B23239  30.143  22.454   8.674
 1676POPC   C2B23240  30.217  22.477   8.265
 1676POPC   C3B23241  30.223  22.417   7.854
 1676POPC   C4B23242  30.240  22.430   7.370
 1677POPC   NC323243  39.469   0.650   9.434
 1677POPC   PO423244  38.807   0.456   9.484
 1677POPC   GL123245  38.927   0.288   9.106
 1677POPC   GL223246  39.279   0.262   9.104
 1677POPC   C1A23247  39.039   0.433   8.682
 1677POPC   D2A23248  39.088   0.220   8.313
 1677POPC   C3A23249  39.190   0.437   7.963
 1677POPC   C4A23250  39.038   0.449   7.558
 1677POPC   C1B23251  39.536   0.278   8.715
 1677POPC   C2B23252  39.558   0.486   8.333
 1677POPC   C3B23253  39.603   0.704   7.944
 1677POPC   C4B23254  39.613   0.417   7.575
 1678POPC   NC323255  16.321  11.312   9.264
 1678POPC   PO423256  16.946  11.064   9.432
 1678POPC   GL123257  16.785  11.209   9.067
 1678POPC   GL223258  16.778  11.543   9.123
 1678POPC   C1A23259  16.937  11.303   8.653
 1678POPC   D2A23260  16.831  11.015   8.313
 1678POPC   C3A23261  16.932  11.150   7.893
 1678POPC   C4A23262  16.797  11.083   7.441
 1678POPC   C1B23263  16.574  11.670   8.722
 1678POPC   C2B23264  16.623  11.496   8.304
 1678POPC   C3B23265  16.446  11.224   8.018
 1678POPC   C4B23266  16.534  11.484   7.693
 1679POPC   NC323267  14.648  43.852   9.470
 1679POPC   PO423268  14.422  44.415   9.796
 1679POPC   GL123269  14.294  44.164   9.277
 1679POPC   GL223270  14.257  43.777   9.141
 1679POPC   C1A23271  14.591  44.060   8.861
 1679POPC   D2A23272  14.706  43.823   8.493
 1679POPC   C3A23273  14.453  43.682   8.175
 1679POPC   C4A23274  14.530  43.788   7.768
 1679POPC   C1B23275  14.107  43.986   8.770
 1679POPC   C2B23276  14.272  44.112   8.395
 1679POPC   C3B23277  14.123  44.163   8.006
 1679POPC   C4B23278  14.204  44.126   7.583
 1680POPC   NC323279  19.096   5.985   9.573
 1680POPC   PO423280  18.629   5.508   9.344
 1680POPC   GL123281  18.980   5.729   9.128
 1680POPC   GL223282  19.051   6.082   9.088
 1680POPC   C1A23283  19.294   5.749   8.772
 1680POPC   D2A23284  19.443   5.906   8.404
 1680POPC   C3A23285  19.198   5.667   8.112
 1680POPC   C4A23286  19.195   5.672   7.683
 1680POPC   C1B23287  19.198   6.316   8.729
 1680POPC   C2B23288  19.310   6.417   8.304
 1680POPC   C3B23289  19.388   6.214   7.922
 1680POPC   C4B23290  19.053   6.143   7.686
 1681POPC   NC323291  20.597  44.800   9.725
 1681POPC   PO423292  20.929   0.065   9.227
 1681POPC   GL123293  20.781  44.638   9.128
 1681POPC   GL223294  20.995  44.332   9.208
 1681POPC   C1A23295  20.847  44.644   8.690
 1681POPC   D2A23296  20.874  44.731   8.254
 1681POPC   C3A23297  20.534  44.752   7.915
 1681POPC   C4A23298  20.549  44.640   7.479
 1681POPC   C1B23299  20.853  44.127   8.824
 1681POPC   C2B23300  20.661  44.249   8.457
 1681POPC   C3B23301  20.722  44.277   8.060
 1681POPC   C4B23302  20.807  44.259   7.659
 1682POPC   NC323303  40.843  37.968   9.384
 1682POPC   PO423304  41.022  38.554   9.571
 1682POPC   GL123305  40.734  38.489   9.196
 1682POPC   GL223306  40.648  38.838   9.155
 1682POPC   C1A23307  40.632  38.274   8.761
 1682POPC   D2A23308  40.676  38.018   8.379
 1682POPC   C3A23309  40.560  38.209   7.974
 1682POPC   C4A23310  40.634  38.331   7.538
 1682POPC   C1B23311  40.514  38.797   8.737
 1682POPC   C2B23312  40.569  38.592   8.336
 1682POPC   C3B23313  40.662  38.736   7.909
 1682POPC   C4B23314  40.367  39.028   7.719
 1683POPC   NC323315  34.582  33.563   9.440
 1683POPC   PO423316  34.195  33.996   9.754
 1683POPC   GL123317  34.390  34.204   9.295
 1683POPC   GL223318  34.636  33.983   9.177
 1683POPC   C1A23319  34.256  34.250   8.815
 1683POPC   D2A23320  34.338  34.148   8.331
 1683POPC   C3A23321  34.304  33.784   8.045
 1683POPC   C4A23322  34.554  33.627   7.694
 1683POPC   C1B23323  34.766  33.666   8.829
 1683POPC   C2B23324  34.742  33.515   8.400
 1683POPC   C3B23325  34.943  33.641   8.033
 1683POPC   C4B23326  35.122  33.486   7.701
 1684POPC   NC323327  13.805  21.078   9.198
 1684POPC   PO423328  13.785  21.706   9.467
 1684POPC   GL123329  13.558  21.505   9.062
 1684POPC   GL223330  13.804  21.339   8.786
 1684POPC   C1A23331  13.475  21.638   8.604
 1684POPC   D2A23332  13.693  21.337   8.285
 1684POPC   C3A23333  13.861  21.413   7.891
 1684POPC   C4A23334  13.637  21.548   7.539
 1684POPC   C1B23335  13.421  21.102   8.682
 1684POPC   C2B23336  13.406  20.834   8.352
 1684POPC   C3B23337  13.559  20.764   7.934
 1684POPC   C4B23338  13.564  21.069   7.656
 1685POPC   NC323339  19.614  12.917   9.377
 1685POPC   PO423340  20.181  13.173   9.580
 1685POPC   GL123341  20.105  12.907   9.168
 1685POPC   GL223342  20.070  13.202   9.021
 1685POPC   C1A23343  19.815  12.708   8.803
 1685POPC   D2A23344  19.648  12.767   8.364
 1685POPC   C3A23345  19.839  12.716   7.930
 1685POPC   C4A23346  19.960  12.919   7.515
 1685POPC   C1B23347  19.767  13.253   8.674
 1685POPC   C2B23348  19.446  13.247   8.393
 1685POPC   C3B23349  19.510  13.148   8.008
 1685POPC   C4B23350  19.487  13.139   7.611
 1686POPC   NC323351   6.119  17.363   9.505
 1686POPC   PO423352   5.522  17.701   9.504
 1686POPC   GL123353   5.739  17.541   9.097
 1686POPC   GL223354   5.950  17.229   9.045
 1686POPC   C1A23355   5.795  17.438   8.625
 1686POPC   D2A23356   5.727  17.190   8.249
 1686POPC   C3A23357   5.659  17.396   7.850
 1686POPC   C4A23358   5.574  17.209   7.441
 1686POPC   C1B23359   6.230  17.550   8.862
 1686POPC   C2B23360   6.287  17.654   8.447
 1686POPC   C3B23361   6.115  17.498   8.072
 1686POPC   C4B23362   6.241  17.542   7.659
 1687POPC   NC323363  37.053  19.457   9.442
 1687POPC   PO423364  37.173  19.993   9.827
 1687POPC   GL123365  36.909  20.123   9.333
 1687POPC   GL223366  36.762  19.782   9.199
 1687POPC   C1A23367  36.576  20.183   8.969
 1687POPC   D2A23368  36.582  20.140   8.509
 1687POPC   C3A23369  36.580  19.844   8.144
 1687POPC   C4A23370  36.663  19.744   7.731
 1687POPC   C1B23371  36.927  19.821   8.756
 1687POPC   C2B23372  37.029  19.969   8.331
 1687POPC   C3B23373  37.146  19.812   7.908
 1687POPC   C4B23374  37.328  19.513   7.613
 1688POPC   NC323375  30.059  11.360   9.512
 1688POPC   PO423376  30.125  10.779   9.176
 1688POPC   GL123377  29.981  11.171   9.056
 1688POPC   GL223378  29.687  11.402   9.113
 1688POPC   C1A23379  29.962  11.368   8.695
 1688POPC   D2A23380  29.724  11.334   8.364
 1688POPC   C3A23381  29.994  11.129   8.096
 1688POPC   C4A23382  30.114  11.155   7.680
 1688POPC   C1B23383  29.649  11.738   8.756
 1688POPC   C2B23384  29.841  11.834   8.329
 1688POPC   C3B23385  29.848  11.601   7.912
 1688POPC   C4B23386  29.798  11.504   7.451
 1689POPC   NC323387  29.621   7.347   9.602
 1689POPC   PO423388  30.280   7.461   9.453
 1689POPC   GL123389  29.885   7.452   9.168
 1689POPC   GL223390  29.536   7.653   9.207
 1689POPC   C1A23391  29.918   7.225   8.776
 1689POPC   D2A23392  30.100   7.373   8.401
 1689POPC   C3A23393  29.953   7.219   8.031
 1689POPC   C4A23394  30.167   7.072   7.723
 1689POPC   C1B23395  29.469   7.450   8.816
 1689POPC   C2B23396  29.551   7.335   8.382
 1689POPC   C3B23397  29.533   7.495   7.956
 1689POPC   C4B23398  29.789   7.635   7.605
 1690POPC   NC323399  29.269  42.432   9.698
 1690POPC   PO423400  28.729  42.075   9.601
 1690POPC   GL123401  29.009  42.206   9.243
 1690POPC   GL223402  29.358  42.109   9.248
 1690POPC   C1A23403  29.094  42.494   8.859
 1690POPC   D2A23404  29.212  42.558   8.376
 1690POPC   C3A23405  29.062  42.425   7.960
 1690POPC   C4A23406  28.980  42.662   7.564
 1690POPC   C1B23407  29.483  42.167   8.792
 1690POPC   C2B23408  29.702  42.453   8.468
 1690POPC   C3B23409  29.656  42.595   8.026
 1690POPC   C4B23410  29.459  42.450   7.629
 1691POPC   NC323411  34.166   8.910   9.379
 1691POPC   PO423412  33.730   9.467   9.486
 1691POPC   GL123413  33.780   9.174   9.135
 1691POPC   GL223414  33.473   9.009   9.089
 1691POPC   C1A23415  33.919   9.104   8.690
 1691POPC   D2A23416  33.871   9.259   8.233
 1691POPC   C3A23417  33.986   8.985   7.837
 1691POPC   C4A23418  33.925   9.067   7.370
 1691POPC   C1B23419  33.431   9.218   8.695
 1691POPC   C2B23420  33.518   8.899   8.389
 1691POPC   C3B23421  33.550   8.740   7.991
 1691POPC   C4B23422  33.509   8.950   7.616
 1692POPC   NC323423   4.947  20.458   9.499
 1692POPC   PO423424   5.530  20.387   9.664
 1692POPC   GL123425   5.360  20.383   9.193
 1692POPC   GL223426   5.292  20.641   8.998
 1692POPC   C1A23427   5.028  20.258   8.829
 1692POPC   D2A23428   5.109  20.195   8.362
 1692POPC   C3A23429   4.784  20.205   8.007
 1692POPC   C4A23430   4.723  20.539   7.732
 1692POPC   C1B23431   5.024  20.748   8.670
 1692POPC   C2B23432   4.889  20.637   8.254
 1692POPC   C3B23433   5.203  20.496   7.939
 1692POPC   C4B23434   5.246  20.621   7.519
 1693POPC   NC323435  29.176  30.682   9.587
 1693POPC   PO423436  28.741  30.267   9.469
 1693POPC   GL123437  28.955  30.596   9.138
 1693POPC   GL223438  29.199  30.921   9.133
 1693POPC   C1A23439  28.923  30.790   8.711
 1693POPC   D2A23440  29.096  30.840   8.284
 1693POPC   C3A23441  29.106  30.490   7.980
 1693POPC   C4A23442  29.013  30.617   7.555
 1693POPC   C1B23443  29.435  30.951   8.719
 1693POPC   C2B23444  29.608  30.862   8.267
 1693POPC   C3B23445  29.398  30.869   7.844
 1693POPC   C4B23446  29.499  30.625   7.470
 1694POPC   NC323447  10.125  21.789   9.604
 1694POPC   PO423448   9.664  22.338   9.676
 1694POPC   GL123449   9.887  22.251   9.308
 1694POPC   GL223450   9.773  21.929   9.216
 1694POPC   C1A23451   9.917  22.260   8.845
 1694POPC   D2A23452  10.110  22.341   8.440
 1694POPC   C3A23453   9.920  22.233   8.078
 1694POPC   C4A23454   9.852  21.880   7.826
 1694POPC   C1B23455   9.737  21.796   8.784
 1694POPC   C2B23456   9.600  22.073   8.453
 1694POPC   C3B23457   9.422  22.080   8.044
 1694POPC   C4B23458   9.369  21.764   7.760
 1695POPC   NC323459   8.786  31.449   9.603
 1695POPC   PO423460   9.418  31.152   9.493
 1695POPC   GL123461   9.109  31.449   9.220
 1695POPC   GL223462   8.733  31.296   9.141
 1695POPC   C1A23463   8.999  31.678   8.863
 1695POPC   D2A23464   9.114  31.417   8.553
 1695POPC   C3A23465   8.851  31.293   8.254
 1695POPC   C4A23466   8.930  31.249   7.824
 1695POPC   C1B23467   8.546  31.444   8.791
 1695POPC   C2B23468   8.585  31.719   8.462
 1695POPC   C3B23469   8.597  31.667   8.030
 1695POPC   C4B23470   8.455  31.405   7.739
 1696POPC   NC323471  31.228  33.150   9.459
 1696POPC   PO423472  31.426  32.528   9.405
 1696POPC   GL123473  31.593  32.735   9.041
 1696POPC   GL223474  31.603  33.108   9.067
 1696POPC   C1A23475  31.514  32.818   8.629
 1696POPC   D2A23476  31.713  32.926   8.254
 1696POPC   C3A23477  31.643  32.805   7.851
 1696POPC   C4A23478  31.280  32.823   7.671
 1696POPC   C1B23479  31.224  33.199   8.777
 1696POPC   C2B23480  31.202  33.297   8.316
 1696POPC   C3B23481  31.472  33.263   7.943
 1696POPC   C4B23482  31.607  33.465   7.565
 1697POPC   NC323483  20.239  40.056   9.560
 1697POPC   PO423484  19.882  39.507   9.615
 1697POPC   GL123485  19.985  39.696   9.212
 1697POPC   GL223486  19.936  40.040   9.154
 1697POPC   C1A23487  20.075  39.711   8.756
 1697POPC   D2A23488  20.133  39.528   8.331
 1697POPC   C3A23489  19.961  39.770   7.990
 1697POPC   C4A23490  19.732  40.155   7.833
 1697POPC   C1B23491  20.058  40.230   8.768
 1697POPC   C2B23492  19.974  40.141   8.331
 1697POPC   C3B23493  20.185  40.309   7.962
 1697POPC   C4B23494  20.133  40.207   7.485
 1698POPC   NC323495  39.415  19.467   9.667
 1698POPC   PO423496  38.990  19.993   9.731
 1698POPC   GL123497  39.172  19.810   9.367
 1698POPC   GL223498  39.008  19.940   9.111
 1698POPC   C1A23499  39.436  19.706   8.999
 1698POPC   D2A23500  39.475  19.725   8.559
 1698POPC   C3A23501  39.162  19.690   8.238
 1698POPC   C4A23502  39.237  19.716   7.781
 1698POPC   C1B23503  39.062  20.049   8.692
 1698POPC   C2B23504  38.880  20.130   8.310
 1698POPC   C3B23505  39.086  20.181   7.949
 1698POPC   C4B23506  39.006  20.108   7.521
 1699POPC   NC323507  10.343   8.515   9.280
 1699POPC   PO423508  10.882   8.787   9.558
 1699POPC   GL123509  10.848   8.856   9.175
 1699POPC   GL223510  10.850   8.515   9.113
 1699POPC   C1A23511  10.871   9.145   8.843
 1699POPC   D2A23512  10.601   9.325   8.528
 1699POPC   C3A23513  10.420   9.088   8.179
 1699POPC   C4A23514  10.455   9.152   7.751
 1699POPC   C1B23515  10.899   8.650   8.722
 1699POPC   C2B23516  10.683   8.702   8.368
 1699POPC   C3B23517  10.634   8.477   7.974
 1699POPC   C4B23518  10.770   8.760   7.648
 1700POPC   NC323519  18.562  35.597   9.432
 1700POPC   PO423520  18.047  35.224   9.508
 1700POPC   GL123521  18.374  35.172   9.169
 1700POPC   GL223522  18.405  35.481   8.974
 1700POPC   C1A23523  18.484  35.021   8.763
 1700POPC   D2A23524  18.359  35.198   8.371
 1700POPC   C3A23525  18.466  35.027   7.933
 1700POPC   C4A23526  18.370  35.029   7.464
 1700POPC   C1B23527  18.021  35.414   8.762
 1700POPC   C2B23528  17.877  35.426   8.335
 1700POPC   C3B23529  18.121  35.387   7.942
 1700POPC   C4B23530  18.023  35.415   7.505
 1701POPC   NC323531  11.379  39.713   9.648
 1701POPC   PO423532  10.958  40.251   9.528
 1701POPC   GL123533  11.263  40.033   9.191
 1701POPC   GL223534  11.343  39.640   9.151
 1701POPC   C1A23535  11.214  39.919   8.738
 1701POPC   D2A23536  11.009  39.798   8.349
 1701POPC   C3A23537  11.060  39.947   7.907
 1701POPC   C4A23538  11.026  39.968   7.418
 1701POPC   C1B23539  11.700  39.755   8.877
 1701POPC   C2B23540  11.841  39.912   8.468
 1701POPC   C3B23541  11.613  39.996   8.077
 1701POPC   C4B23542  11.494  39.809   7.671
 1702POPC   NC323543  23.095   5.392   9.413
 1702POPC   PO423544  22.788   4.811   9.469
 1702POPC   GL123545  22.895   4.926   9.103
 1702POPC   GL223546  22.762   5.244   9.059
 1702POPC   C1A23547  22.703   4.861   8.685
 1702POPC   D2A23548  22.588   4.918   8.224
 1702POPC   C3A23549  22.864   4.775   7.904
 1702POPC   C4A23550  23.016   4.917   7.521
 1702POPC   C1B23551  23.068   5.224   8.743
 1702POPC   C2B23552  23.082   5.035   8.347
 1702POPC   C3B23553  23.034   5.273   7.966
 1702POPC   C4B23554  23.288   5.627   7.812
 1703POPC   NC323555  13.765  11.753   9.500
 1703POPC   PO423556  13.124  11.712   9.494
 1703POPC   GL123557  13.437  11.808   9.113
 1703POPC   GL223558  13.820  11.863   8.996
 1703POPC   C1A23559  13.449  12.132   8.775
 1703POPC   D2A23560  13.277  12.273   8.380
 1703POPC   C3A23561  13.429  12.092   7.974
 1703POPC   C4A23562  13.403  12.247   7.528
 1703POPC   C1B23563  13.973  12.266   8.734
 1703POPC   C2B23564  13.900  12.563   8.351
 1703POPC   C3B23565  13.895  12.309   7.973
 1703POPC   C4B23566  13.923  11.819   8.003
 1704POPC   NC323567  42.768   3.233   9.825
 1704POPC   PO423568  42.941   3.679   9.358
 1704POPC   GL123569  43.202   3.422   9.080
 1704POPC   GL223570  43.332   3.807   9.071
 1704POPC   C1A23571  43.335   3.271   8.679
 1704POPC   D2A23572  43.004   3.320   8.343
 1704POPC   C3A23573  43.215   3.288   7.950
 1704POPC   C4A23574  43.609   3.187   7.755
 1704POPC   C1B23575  43.087   3.710   8.693
 1704POPC   C2B23576  43.254   3.748   8.322
 1704POPC   C3B23577  43.010   3.756   7.998
 1704POPC   C4B23578  43.098   3.716   7.611
 1705POPC   NC323579  35.066  26.615   9.286
 1705POPC   PO423580  34.613  26.942   9.741
 1705POPC   GL123581  34.606  26.896   9.303
 1705POPC   GL223582  34.538  26.597   9.240
 1705POPC   C1A23583  34.582  26.943   8.840
 1705POPC   D2A23584  34.820  26.983   8.445
 1705POPC   C3A23585  34.614  26.922   8.056
 1705POPC   C4A23586  34.659  27.217   7.792
 1705POPC   C1B23587  34.397  26.468   8.839
 1705POPC   C2B23588  34.426  26.618   8.434
 1705POPC   C3B23589  34.389  26.464   8.036
 1705POPC   C4B23590  34.316  26.538   7.610
 1706POPC   NC323591  42.504  32.020   9.436
 1706POPC   PO423592  42.183  32.598   9.409
 1706POPC   GL123593  42.276  32.343   9.111
 1706POPC   GL223594  42.610  32.425   9.114
 1706POPC   C1A23595  42.413  32.179   8.718
 1706POPC   D2A23596  42.567  32.311   8.350
 1706POPC   C3A23597  42.442  32.000   8.103
 1706POPC   C4A23598  42.230  32.125   7.763
 1706POPC   C1B23599  42.541  32.699   8.767
 1706POPC   C2B23600  42.403  32.808   8.344
 1706POPC   C3B23601  42.302  32.610   7.967
 1706POPC   C4B23602  42.364  32.678   7.550
 1707POPC   NC323603  41.911  32.979   9.355
 1707POPC   PO423604  41.393  32.631   9.577
 1707POPC   GL123605  41.414  32.839   9.156
 1707POPC   GL223606  41.493  33.195   9.083
 1707POPC   C1A23607  41.623  32.837   8.731
 1707POPC   D2A23608  41.869  32.838   8.336
 1707POPC   C3A23609  41.599  32.821   7.998
 1707POPC   C4A23610  41.473  33.057   7.699
 1707POPC   C1B23611  41.655  33.332   8.640
 1707POPC   C2B23612  41.603  33.281   8.201
 1707POPC   C3B23613  41.761  33.447   7.805
 1707POPC   C4B23614  41.817  33.241   7.379
 1708POPC   NC323615  42.930   8.169   9.545
 1708POPC   PO423616  42.362   7.827   9.619
 1708POPC   GL123617  42.379   8.050   9.200
 1708POPC   GL223618  42.680   7.919   9.151
 1708POPC   C1A23619  42.155   8.200   8.780
 1708POPC   D2A23620  42.139   8.350   8.322
 1708POPC   C3A23621  42.430   8.206   7.954
 1708POPC   C4A23622  42.226   8.364   7.606
 1708POPC   C1B23623  42.673   8.243   8.856
 1708POPC   C2B23624  42.660   8.213   8.419
 1708POPC   C3B23625  42.798   7.875   8.142
 1708POPC   C4B23626  42.833   7.841   7.680
 1709POPC   NC323627  43.065  40.433   9.333
 1709POPC   PO423628  42.924  39.785   9.547
 1709POPC   GL123629  43.220  39.972   9.208
 1709POPC   GL223630  43.426  39.744   9.090
 1709POPC   C1A23631  43.459  40.178   8.798
 1709POPC   D2A23632  43.617  40.142   8.325
 1709POPC   C3A23633  43.211  40.156   8.039
 1709POPC   C4A23634  42.866  40.302   7.708
 1709POPC   C1B23635  43.167  39.768   8.760
 1709POPC   C2B23636  43.294  39.764   8.399
 1709POPC   C3B23637  43.335  39.625   8.045
 1709POPC   C4B23638  43.050  39.741   7.770
 1710POPC   NC323639   0.702  28.762   9.502
 1710POPC   PO423640   0.223  29.254   9.697
 1710POPC   GL123641   0.387  29.091   9.252
 1710POPC   GL223642   0.390  28.807   9.061
 1710POPC   C1A23643   0.372  29.245   8.789
 1710POPC   D2A23644   0.201  29.534   8.498
 1710POPC   C3A23645   0.405  29.533   8.108
 1710POPC   C4A23646   0.375  29.311   7.715
 1710POPC   C1B23647   0.559  28.800   8.658
 1710POPC   C2B23648   0.389  28.948   8.289
 1710POPC   C3B23649   0.489  28.847   7.873
 1710POPC   C4B23650   0.226  28.862   7.524
 1711POPC   NC323651  25.025  26.401   9.530
 1711POPC   PO423652  25.643  25.942   9.393
 1711POPC   GL123653  25.335  25.885   9.101
 1711POPC   GL223654  25.269  26.239   9.113
 1711POPC   C1A23655  25.302  25.893   8.650
 1711POPC   D2A23656  25.288  25.645   8.274
 1711POPC   C3A23657  25.017  25.846   7.964
 1711POPC   C4A23658  25.093  25.810   7.520
 1711POPC   C1B23659  25.112  26.368   8.727
 1711POPC   C2B23660  25.221  26.283   8.279
 1711POPC   C3B23661  25.253  26.296   7.830
 1711POPC   C4B23662  24.942  26.313   7.498
 1712POPC   NC323663   9.399  42.713   9.444
 1712POPC   PO423664   9.926  43.078   9.589
 1712POPC   GL123665   9.887  42.969   9.175
 1712POPC   GL223666   9.576  43.128   9.178
 1712POPC   C1A23667  10.086  43.013   8.755
 1712POPC   D2A23668   9.870  42.932   8.367
 1712POPC   C3A23669  10.002  42.943   7.973
 1712POPC   C4A23670   9.936  43.307   7.740
 1712POPC   C1B23671   9.576  43.144   8.760
 1712POPC   C2B23672   9.362  42.980   8.413
 1712POPC   C3B23673   9.496  43.051   8.015
 1712POPC   C4B23674   9.365  43.293   7.727
 1713POPC   NC323675   0.425  31.017   9.414
 1713POPC   PO423676   0.122  30.453   9.508
 1713POPC   GL123677   0.439  30.538   9.137
 1713POPC   GL223678   0.575  30.860   8.968
 1713POPC   C1A23679   0.559  30.453   8.698
 1713POPC   D2A23680   0.646  30.569   8.286
 1713POPC   C3A23681   0.340  30.765   8.072
 1713POPC   C4A23682   0.193  30.689   7.688
 1713POPC   C1B23683   0.443  30.974   8.571
 1713POPC   C2B23684   0.683  31.117   8.217
 1713POPC   C3B23685   0.626  31.052   7.770
 1713POPC   C4B23686   0.410  31.020   7.334
 1714POPC   NC323687  43.500  11.563   9.588
 1714POPC   PO423688  44.096  11.222   9.456
 1714POPC   GL123689  43.884  11.286   9.135
 1714POPC   GL223690  43.938  11.596   9.120
 1714POPC   C1A23691  43.670  11.282   8.767
 1714POPC   D2A23692  43.586  11.068   8.372
 1714POPC   C3A23693  43.574  11.333   8.018
 1714POPC   C4A23694  43.625  11.599   7.698
 1714POPC   C1B23695  44.140  11.513   8.755
 1714POPC   C2B23696  43.930  11.473   8.383
 1714POPC   C3B23697  44.038  11.567   8.007
 1714POPC   C4B23698  44.053  11.269   7.725
 1715POPC   NC323699  34.539   3.264   9.491
 1715POPC   PO423700  34.830   3.849   9.498
 1715POPC   GL123701  34.624   3.652   9.142
 1715POPC   GL223702  34.841   3.410   9.091
 1715POPC   C1A23703  34.393   3.635   8.736
 1715POPC   D2A23704  34.382   3.425   8.322
 1715POPC   C3A23705  34.411   3.688   7.940
 1715POPC   C4A23706  34.485   4.065   7.687
 1715POPC   C1B23707  34.707   3.236   8.666
 1715POPC   C2B23708  34.791   3.055   8.267
 1715POPC   C3B23709  34.767   3.302   7.902
 1715POPC   C4B23710  34.525   3.365   7.551
 1716POPC   NC323711  18.026   0.987   9.478
 1716POPC   PO423712  18.573   1.441   9.610
 1716POPC   GL123713  18.389   1.253   9.195
 1716POPC   GL223714  18.089   1.437   9.163
 1716POPC   C1A23715  18.223   1.241   8.714
 1716POPC   D2A23716  18.452   1.295   8.351
 1716POPC   C3A23717  18.331   1.051   7.987
 1716POPC   C4A23718  18.583   0.966   7.636
 1716POPC   C1B23719  18.335   1.693   8.856
 1716POPC   C2B23720  18.255   1.782   8.405
 1716POPC   C3B23721  18.150   1.546   8.026
 1716POPC   C4B23722  18.449   1.489   7.693
 1717POPC   NC323723  32.014  34.677   9.464
 1717POPC   PO423724  32.612  34.456   9.473
 1717POPC   GL123725  32.474  34.566   9.077
 1717POPC   GL223726  32.202  34.733   9.017
 1717POPC   C1A23727  32.457  34.538   8.645
 1717POPC   D2A23728  32.164  34.396   8.397
 1717POPC   C3A23729  32.297  34.601   8.084
 1717POPC   C4A23730  32.333  34.605   7.689
 1717POPC   C1B23731  32.144  34.981   8.671
 1717POPC   C2B23732  31.983  34.952   8.278
 1717POPC   C3B23733  32.158  35.064   7.874
 1717POPC   C4B23734  32.004  34.902   7.452
 1718POPC   NC323735  35.129  23.293   9.621
 1718POPC   PO423736  35.580  22.819   9.486
 1718POPC   GL123737  35.476  22.917   9.107
 1718POPC   GL223738  35.719  23.009   8.962
 1718POPC   C1A23739  35.147  22.853   8.798
 1718POPC   D2A23740  35.170  22.637   8.393
 1718POPC   C3A23741  35.321  22.911   8.066
 1718POPC   C4A23742  35.134  23.058   7.657
 1718POPC   C1B23743  35.556  23.058   8.560
 1718POPC   C2B23744  35.593  23.372   8.242
 1718POPC   C3B23745  35.587  23.265   7.808
 1718POPC   C4B23746  35.783  22.823   7.792
 1719POPC   NC323747  19.568  24.697   9.489
 1719POPC   PO423748  18.849  24.554   9.500
 1719POPC   GL123749  18.942  24.450   9.108
 1719POPC   GL223750  19.243  24.660   9.085
 1719POPC   C1A23751  18.694  24.369   8.748
 1719POPC   D2A23752  18.806  24.154   8.382
 1719POPC   C3A23753  18.904  24.445   8.097
 1719POPC   C4A23754  18.815  24.471   7.690
 1719POPC   C1B23755  19.240  24.530   8.663
 1719POPC   C2B23756  19.234  24.787   8.311
 1719POPC   C3B23757  19.311  24.720   7.901
 1719POPC   C4B23758  19.173  24.817   7.513
 1720POPC   NC323759   8.722  29.159   9.205
 1720POPC   PO423760   9.335  29.525   9.373
 1720POPC   GL123761   9.183  29.303   9.023
 1720POPC   GL223762   8.929  29.572   8.990
 1720POPC   C1A23763   9.099  28.975   8.677
 1720POPC   D2A23764   9.020  29.127   8.245
 1720POPC   C3A23765   8.692  29.059   7.945
 1720POPC   C4A23766   8.970  29.300   7.706
 1720POPC   C1B23767   8.760  29.353   8.627
 1720POPC   C2B23768   8.480  29.396   8.336
 1720POPC   C3B23769   8.606  29.567   7.968
 1720POPC   C4B23770   8.536  29.480   7.552
 1721POPC   NC323771  31.727  38.848   9.410
 1721POPC   PO423772  31.262  38.362   9.564
 1721POPC   GL123773  31.506  38.438   9.200
 1721POPC   GL223774  31.381  38.729   9.062
 1721POPC   C1A23775  31.606  38.338   8.766
 1721POPC   D2A23776  31.383  38.261   8.365
 1721POPC   C3A23777  31.547  38.369   7.954
 1721POPC   C4A23778  31.726  38.383   7.517
 1721POPC   C1B23779  31.096  38.868   8.769
 1721POPC   C2B23780  31.056  38.720   8.376
 1721POPC   C3B23781  31.229  38.776   7.991
 1721POPC   C4B23782  31.216  38.560   7.604
 1722POPC   NC323783  22.001  32.649   9.514
 1722POPC   PO423784  22.312  33.305   9.679
 1722POPC   GL123785  22.367  33.093   9.268
 1722POPC   GL223786  22.684  33.187   9.193
 1722POPC   C1A23787  22.268  32.967   8.826
 1722POPC   D2A23788  22.004  33.159   8.478
 1722POPC   C3A23789  22.137  33.156   8.035
 1722POPC   C4A23790  22.081  32.778   7.787
 1722POPC   C1B23791  22.457  33.438   8.868
 1722POPC   C2B23792  22.510  33.340   8.420
 1722POPC   C3B23793  22.583  33.499   8.007
 1722POPC   C4B23794  22.306  33.642   7.679
 1723POPC   NC323795   2.579   8.184   9.553
 1723POPC   PO423796   3.166   7.946   9.434
 1723POPC   GL123797   2.963   8.267   9.145
 1723POPC   GL223798   2.572   8.340   9.079
 1723POPC   C1A23799   2.888   8.283   8.692
 1723POPC   D2A23800   2.709   8.476   8.330
 1723POPC   C3A23801   2.786   8.238   7.982
 1723POPC   C4A23802   3.157   8.173   7.769
 1723POPC   C1B23803   2.373   8.309   8.667
 1723POPC   C2B23804   2.322   8.123   8.210
 1723POPC   C3B23805   2.321   7.956   7.765
 1723POPC   C4B23806   2.285   8.075   7.302
 1724POPC   NC323807  16.336  24.677   9.569
 1724POPC   PO423808  16.786  25.361   9.475
 1724POPC   GL123809  16.508  25.216   9.167
 1724POPC   GL223810  16.319  25.541   9.106
 1724POPC   C1A23811  16.684  25.080   8.769
 1724POPC   D2A23812  16.962  25.238   8.432
 1724POPC   C3A23813  16.858  25.121   8.018
 1724POPC   C4A23814  16.998  24.905   7.671
 1724POPC   C1B23815  16.714  25.585   8.839
 1724POPC   C2B23816  16.727  25.698   8.412
 1724POPC   C3B23817  16.594  25.603   7.973
 1724POPC   C4B23818  16.706  25.332   7.586
 1725POPC   NC323819  31.820   4.046   9.345
 1725POPC   PO423820  31.213   4.281   9.477
 1725POPC   GL123821  31.482   4.335   9.096
 1725POPC   GL223822  31.584   4.686   9.022
 1725POPC   C1A23823  31.440   4.321   8.658
 1725POPC   D2A23824  31.286   4.366   8.252
 1725POPC   C3A23825  31.495   4.281   7.886
 1725POPC   C4A23826  31.090   4.430   7.729
 1725POPC   C1B23827  31.818   4.676   8.695
 1725POPC   C2B23828  31.772   4.512   8.318
 1725POPC   C3B23829  31.703   4.741   7.995
 1725POPC   C4B23830  31.805   4.643   7.592
 1726POPC   NC323831   2.499  15.354   9.513
 1726POPC   PO423832   3.013  15.032   9.264
 1726POPC   GL123833   2.671  15.178   9.086
 1726POPC   GL223834   2.852  15.470   9.001
 1726POPC   C1A23835   2.441  15.196   8.746
 1726POPC   D2A23836   2.498  14.909   8.429
 1726POPC   C3A23837   2.376  15.073   8.028
 1726POPC   C4A23838   2.437  15.519   7.902
 1726POPC   C1B23839   2.962  15.180   8.637
 1726POPC   C2B23840   2.933  15.034   8.212
 1726POPC   C3B23841   2.865  15.222   7.859
 1726POPC   C4B23842   2.969  15.638   7.828
 1727POPC   NC323843  30.431  21.333   9.517
 1727POPC   PO423844  29.779  21.355   9.428
 1727POPC   GL123845  30.086  21.356   9.161
 1727POPC   GL223846  30.141  21.726   9.240
 1727POPC   C1A23847  30.334  21.241   8.816
 1727POPC   D2A23848  30.423  21.532   8.531
 1727POPC   C3A23849  30.385  21.417   8.119
 1727POPC   C4A23850  30.069  21.530   7.837
 1727POPC   C1B23851  29.981  21.669   8.794
 1727POPC   C2B23852  29.931  21.569   8.349
 1727POPC   C3B23853  29.621  21.645   8.033
 1727POPC   C4B23854  29.582  21.310   7.768
 1728POPC   NC323855   2.419  40.800   9.468
 1728POPC   PO423856   3.003  40.481   9.713
 1728POPC   GL123857   2.880  40.791   9.313
 1728POPC   GL223858   3.041  40.726   9.092
 1728POPC   C1A23859   2.607  40.784   8.867
 1728POPC   D2A23860   2.768  40.772   8.469
 1728POPC   C3A23861   2.571  40.822   8.090
 1728POPC   C4A23862   2.788  40.590   7.788
 1728POPC   C1B23863   3.249  40.839   8.740
 1728POPC   C2B23864   3.190  41.035   8.382
 1728POPC   C3B23865   3.083  40.929   8.010
 1728POPC   C4B23866   3.257  40.959   7.614
 1729POPC   NC323867  24.408  44.801   9.557
 1729POPC   PO423868  24.540  44.240   9.709
 1729POPC   GL123869  24.527  44.454   9.208
 1729POPC   GL223870  24.691  44.810   9.144
 1729POPC   C1A23871  24.271  44.621   8.817
 1729POPC   D2A23872  24.057  44.535   8.415
 1729POPC   C3A23873  24.171  44.839   8.111
 1729POPC   C4A23874  24.499  44.773   7.804
 1729POPC   C1B23875  24.771  44.616   8.784
 1729POPC   C2B23876  24.623  44.580   8.369
 1729POPC   C3B23877  24.896  44.802   8.094
 1729POPC   C4B23878  24.993  44.954   7.718
 1730POPC   NC323879  36.118  24.089   9.580
 1730POPC   PO423880  35.795  23.578   9.382
 1730POPC   GL123881  36.124  23.744   9.155
 1730POPC   GL223882  36.486  23.824   9.260
 1730POPC   C1A23883  36.037  23.709   8.727
 1730POPC   D2A23884  35.841  23.854   8.379
 1730POPC   C3A23885  35.868  23.692   7.941
 1730POPC   C4A23886  35.791  23.639   7.500
 1730POPC   C1B23887  36.420  24.007   8.833
 1730POPC   C2B23888  36.388  23.957   8.402
 1730POPC   C3B23889  36.228  24.047   8.011
 1730POPC   C4B23890  36.291  23.810   7.642
 1731POPC   NC323891  26.492  40.522   9.518
 1731POPC   PO423892  27.111  40.841   9.487
 1731POPC   GL123893  26.717  40.889   9.200
 1731POPC   GL223894  26.582  40.593   9.028
 1731POPC   C1A23895  26.663  41.080   8.789
 1731POPC   D2A23896  26.900  40.999   8.415
 1731POPC   C3A23897  26.675  41.050   8.008
 1731POPC   C4A23898  26.697  40.890   7.570
 1731POPC   C1B23899  26.339  40.332   8.754
 1731POPC   C2B23900  26.568  40.446   8.368
 1731POPC   C3B23901  26.497  40.547   7.926
 1731POPC   C4B23902  26.374  40.528   7.490
 1732POPC   NC323903  13.432  26.341   9.277
 1732POPC   PO423904  13.669  26.888   9.619
 1732POPC   GL123905  13.682  26.787   9.185
 1732POPC   GL223906  13.961  26.571   9.161
 1732POPC   C1A23907  13.456  26.813   8.762
 1732POPC   D2A23908  13.307  27.070   8.382
 1732POPC   C3A23909  13.537  26.954   8.034
 1732POPC   C4A23910  13.389  26.582   7.899
 1732POPC   C1B23911  13.849  26.446   8.744
 1732POPC   C2B23912  13.663  26.549   8.349
 1732POPC   C3B23913  13.924  26.631   7.964
 1732POPC   C4B23914  13.787  26.649   7.541
 1733POPC   NC323915  14.315  29.789   9.622
 1733POPC   PO423916  14.889  29.486   9.449
 1733POPC   GL123917  14.652  29.825   9.105
 1733POPC   GL223918  14.229  29.816   9.126
 1733POPC   C1A23919  14.478  29.838   8.687
 1733POPC   D2A23920  14.454  29.600   8.303
 1733POPC   C3A23921  14.669  29.776   7.944
 1733POPC   C4A23922  14.543  30.061   7.602
 1733POPC   C1B23923  13.972  29.944   8.777
 1733POPC   C2B23924  14.034  29.930   8.384
 1733POPC   C3B23925  14.214  30.001   8.015
 1733POPC   C4B23926  14.212  29.692   7.701
 1734POPC   NC323927  29.927  15.503   9.445
 1734POPC   PO423928  29.730  16.140   9.653
 1734POPC   GL123929  29.958  16.203   9.225
 1734POPC   GL223930  29.984  15.853   9.091
 1734POPC   C1A23931  30.179  16.170   8.778
 1734POPC   D2A23932  30.200  15.860   8.458
 1734POPC   C3A23933  30.183  16.040   8.084
 1734POPC   C4A23934  30.000  16.086   7.684
 1734POPC   C1B23935  29.745  15.839   8.685
 1734POPC   C2B23936  29.576  15.815   8.249
 1734POPC   C3B23937  29.595  15.786   7.776
 1734POPC   C4B23938  29.765  15.663   7.347
 1735POPC   NC323939  10.082  35.767   9.471
 1735POPC   PO423940   9.548  36.153   9.589
 1735POPC   GL123941   9.662  36.001   9.201
 1735POPC   GL223942   9.663  36.328   9.066
 1735POPC   C1A23943   9.700  35.891   8.761
 1735POPC   D2A23944   9.785  36.031   8.325
 1735POPC   C3A23945   9.601  35.872   7.942
 1735POPC   C4A23946   9.446  36.182   7.653
 1735POPC   C1B23947   9.926  36.414   8.699
 1735POPC   C2B23948  10.100  36.414   8.270
 1735POPC   C3B23949  10.000  36.188   7.865
 1735POPC   C4B23950   9.955  36.060   7.434
 1736POPC   NC323951  28.285  17.302   9.515
 1736POPC   PO423952  28.873  17.539   9.639
 1736POPC   GL123953  28.644  17.596   9.253
 1736POPC   GL223954  28.711  17.260   9.166
 1736POPC   C1A23955  28.398  17.561   8.867
 1736POPC   D2A23956  28.474  17.628   8.438
 1736POPC   C3A23957  28.241  17.544   8.090
 1736POPC   C4A23958  28.533  17.544   7.791
 1736POPC   C1B23959  28.548  17.082   8.766
 1736POPC   C2B23960  28.445  17.116   8.323
 1736POPC   C3B23961  28.421  17.056   7.863
 1736POPC   C4B23962  28.282  16.980   7.401
 1737POPC   NC323963  40.748  24.862   9.475
 1737POPC   PO423964  40.923  24.265   9.829
 1737POPC   GL123965  40.891  24.353   9.368
 1737POPC   GL223966  40.519  24.355   9.294
 1737POPC   C1A23967  40.994  24.556   8.959
 1737POPC   D2A23968  40.906  24.556   8.526
 1737POPC   C3A23969  40.984  24.619   8.081
 1737POPC   C4A23970  40.880  24.302   7.801
 1737POPC   C1B23971  40.486  24.443   8.849
 1737POPC   C2B23972  40.403  24.620   8.446
 1737POPC   C3B23973  40.487  24.528   8.041
 1737POPC   C4B23974  40.676  24.735   7.663
 1738POPC   NC323975  29.406  33.783   9.773
 1738POPC   PO423976  28.901  33.515   9.484
 1738POPC   GL123977  29.149  33.732   9.173
 1738POPC   GL223978  29.119  34.017   9.350
 1738POPC   C1A23979  29.377  33.760   8.717
 1738POPC   D2A23980  29.450  33.875   8.275
 1738POPC   C3A23981  29.650  33.557   8.042
 1738POPC   C4A23982  29.391  33.415   7.700
 1738POPC   C1B23983  29.173  34.161   8.915
 1738POPC   C2B23984  29.252  34.281   8.504
 1738POPC   C3B23985  29.138  34.283   8.074
 1738POPC   C4B23986  29.225  34.038   7.725
 1739POPC   NC323987   0.175  14.058   9.695
 1739POPC   PO423988   0.700  14.512   9.520
 1739POPC   GL123989   0.455  14.540   9.109
 1739POPC   GL223990   0.247  14.277   9.210
 1739POPC   C1A23991   0.571  14.426   8.679
 1739POPC   D2A23992   0.833  14.541   8.312
 1739POPC   C3A23993   0.696  14.392   7.948
 1739POPC   C4A23994   0.674  13.977   7.866
 1739POPC   C1B23995   0.064  14.285   8.790
 1739POPC   C2B23996   0.116  14.434   8.373
 1739POPC   C3B23997   0.187  14.217   7.978
 1739POPC   C4B23998   0.216  14.343   7.545
 1740POPC   NC323999  20.301  42.558   9.541
 1740POPC   PO424000  20.567  41.912   9.499
 1740POPC   GL124001  20.530  42.250   9.179
 1740POPC   GL224002  20.263  42.146   8.990
 1740POPC   C1A24003  20.630  42.442   8.763
 1740POPC   D2A24004  20.906  42.346   8.375
 1740POPC   C3A24005  20.904  42.575   7.947
 1740POPC   C4A24006  21.003  42.591   7.489
 1740POPC   C1B24007  20.606  41.890   8.785
 1740POPC   C2B24008  20.767  41.803   8.353
 1740POPC   C3B24009  20.703  42.070   7.974
 1740POPC   C4B24010  20.444  42.226   7.636
 1741POPC   NC324011  41.192  41.022   9.505
 1741POPC   PO424012  41.772  40.701   9.624
 1741POPC   GL124013  41.654  40.935   9.263
 1741POPC   GL224014  41.435  40.702   9.145
 1741POPC   C1A24015  41.644  41.067   8.822
 1741POPC   D2A24016  41.465  40.988   8.408
 1741POPC   C3A24017  41.803  40.948   8.100
 1741POPC   C4A24018  41.933  40.690   7.740
 1741POPC   C1B24019  41.544  40.563   8.752
 1741POPC   C2B24020  41.407  40.483   8.351
 1741POPC   C3B24021  41.476  40.572   7.955
 1741POPC   C4B24022  41.265  40.459   7.638
 1742POPC   NC324023   9.497  20.244   9.523
 1742POPC   PO424024  10.054  19.843   9.547
 1742POPC   GL124025   9.807  19.993   9.218
 1742POPC   GL224026   9.643  19.733   9.105
 1742POPC   C1A24027   9.665  20.223   8.836
 1742POPC   D2A24028   9.887  20.303   8.440
 1742POPC   C3A24029   9.922  20.094   8.052
 1742POPC   C4A24030   9.677  20.014   7.707
 1742POPC   C1B24031   9.631  19.536   8.692
 1742POPC   C2B24032   9.538  19.460   8.251
 1742POPC   C3B24033   9.825  19.557   7.911
 1742POPC   C4B24034   9.895  19.591   7.466
 1743POPC   NC324035  23.360  12.994   9.345
 1743POPC   PO424036  22.917  12.459   9.365
 1743POPC   GL124037  22.891  12.763   9.077
 1743POPC   GL224038  22.908  13.140   9.163
 1743POPC   C1A24039  23.020  12.570   8.712
 1743POPC   D2A24040  23.025  12.589   8.334
 1743POPC   C3A24041  22.792  12.865   8.169
 1743POPC   C4A24042  23.007  12.752   7.800
 1743POPC   C1B24043  23.006  13.089   8.716
 1743POPC   C2B24044  23.068  13.340   8.388
 1743POPC   C3B24045  23.156  13.208   8.003
 1743POPC   C4B24046  23.007  13.238   7.590
 1744POPC   NC324047  22.543  24.530   9.761
 1744POPC   PO424048  23.096  24.296   9.386
 1744POPC   GL124049  22.990  24.506   9.057
 1744POPC   GL224050  22.608  24.626   9.085
 1744POPC   C1A24051  23.224  24.466   8.677
 1744POPC   D2A24052  23.284  24.295   8.269
 1744POPC   C3A24053  23.002  24.545   7.966
 1744POPC   C4A24054  22.580  24.756   7.954
 1744POPC   C1B24055  22.722  24.649   8.647
 1744POPC   C2B24056  22.797  24.254   8.442
 1744POPC   C3B24057  22.876  24.051   8.065
 1744POPC   C4B24058  22.571  24.236   7.829
 1745POPC   NC324059   4.313  20.876   9.693
 1745POPC   PO424060   4.534  20.285   9.627
 1745POPC   GL124061   4.387  20.531   9.261
 1745POPC   GL224062   4.247  20.870   9.188
 1745POPC   C1A24063   4.226  20.418   8.856
 1745POPC   D2A24064   4.308  20.669   8.498
 1745POPC   C3A24065   4.066  20.558   8.125
 1745POPC   C4A24066   4.223  20.549   7.700
 1745POPC   C1B24067   4.597  20.923   8.902
 1745POPC   C2B24068   4.670  21.051   8.449
 1745POPC   C3B24069   4.483  20.900   8.058
 1745POPC   C4B24070   4.475  21.002   7.634
 1746POPC   NC324071   8.823  26.377   9.585
 1746POPC   PO424072   9.317  26.941   9.455
 1746POPC   GL124073   9.084  26.688   9.144
 1746POPC   GL224074   8.718  26.591   9.153
 1746POPC   C1A24075   8.870  26.863   8.762
 1746POPC   D2A24076   8.895  27.073   8.359
 1746POPC   C3A24077   9.033  26.858   7.968
 1746POPC   C4A24078   9.126  27.071   7.546
 1746POPC   C1B24079   8.598  26.398   8.788
 1746POPC   C2B24080   8.723  26.551   8.365
 1746POPC   C3B24081   8.739  26.439   7.911
 1746POPC   C4B24082   8.904  26.616   7.522
 1747POPC   NC324083  31.302  19.621   9.501
 1747POPC   PO424084  31.772  20.079   9.471
 1747POPC   GL124085  31.442  20.026   9.179
 1747POPC   GL224086  31.563  19.696   9.088
 1747POPC   C1A24087  31.275  20.055   8.760
 1747POPC   D2A24088  31.404  19.862   8.365
 1747POPC   C3A24089  31.503  20.082   7.986
 1747POPC   C4A24090  31.511  19.857   7.615
 1747POPC   C1B24091  31.764  19.432   8.793
 1747POPC   C2B24092  31.821  19.527   8.370
 1747POPC   C3B24093  31.584  19.493   8.004
 1747POPC   C4B24094  31.797  19.448   7.589
 1748POPC   NC324095  44.029  40.456   9.463
 1748POPC   PO424096  43.350  40.775   9.482
 1748POPC   GL124097  43.694  40.976   9.213
 1748POPC   GL224098  43.504  41.156   8.935
 1748POPC   C1A24099  43.985  40.951   8.858
 1748POPC   D2A24100  43.893  40.805   8.452
 1748POPC   C3A24101  44.151  40.767   8.063
 1748POPC   C4A24102  44.323  41.114   7.886
 1748POPC   C1B24103  43.514  40.712   8.799
 1748POPC   C2B24104  43.382  40.580   8.409
 1748POPC   C3B24105  43.647  40.650   8.049
 1748POPC   C4B24106  43.798  40.858   7.661
 1749POPC   NC324107  34.427  19.306   9.625
 1749POPC   PO424108  34.824  18.798   9.758
 1749POPC   GL124109  34.593  18.868   9.347
 1749POPC   GL224110  34.740  19.189   9.235
 1749POPC   C1A24111  34.560  18.844   8.855
 1749POPC   D2A24112  34.398  18.749   8.413
 1749POPC   C3A24113  34.468  18.938   8.026
 1749POPC   C4A24114  34.295  18.953   7.623
 1749POPC   C1B24115  34.554  19.377   8.882
 1749POPC   C2B24116  34.583  19.247   8.465
 1749POPC   C3B24117  34.502  19.427   8.054
 1749POPC   C4B24118  34.293  19.446   7.701
 1750POPC   NC324119  40.859  23.877   9.608
 1750POPC   PO424120  40.312  23.841   9.301
 1750POPC   GL124121  40.659  23.795   9.038
 1750POPC   GL224122  40.985  23.901   9.122
 1750POPC   C1A24123  40.750  24.036   8.674
 1750POPC   D2A24124  40.837  24.122   8.266
 1750POPC   C3A24125  40.620  23.867   7.955
 1750POPC   C4A24126  40.745  23.538   7.636
 1750POPC   C1B24127  41.128  23.694   8.756
 1750POPC   C2B24128  41.266  23.821   8.337
 1750POPC   C3B24129  41.115  23.854   7.897
 1750POPC   C4B24130  41.224  23.596   7.520
 1751POPC   NC324131  40.474  15.052   9.477
 1751POPC   PO424132  41.131  15.099   9.432
 1751POPC   GL124133  40.918  15.330   9.123
 1751POPC   GL224134  40.565  15.460   9.171
 1751POPC   C1A24135  40.948  15.620   8.783
 1751POPC   D2A24136  40.780  15.691   8.382
 1751POPC   C3A24137  40.910  15.436   8.085
 1751POPC   C4A24138  40.925  15.224   7.728
 1751POPC   C1B24139  40.556  15.263   8.773
 1751POPC   C2B24140  40.461  15.261   8.343
 1751POPC   C3B24141  40.439  14.979   8.016
 1751POPC   C4B24142  40.423  15.146   7.644
 1752POPC   NC324143   9.209  20.853   9.677
 1752POPC   PO424144   9.825  20.574   9.481
 1752POPC   GL124145   9.825  20.674   9.067
 1752POPC   GL224146   9.586  20.937   9.109
 1752POPC   C1A24147   9.881  20.849   8.658
 1752POPC   D2A24148   9.647  20.971   8.281
 1752POPC   C3A24149   9.847  20.815   7.918
 1752POPC   C4A24150   9.909  20.450   7.640
 1752POPC   C1B24151   9.375  20.819   8.735
 1752POPC   C2B24152   9.411  20.502   8.425
 1752POPC   C3B24153   9.531  20.411   8.039
 1752POPC   C4B24154   9.403  20.595   7.691
 1753POPC   NC324155  39.689  33.442   9.367
 1753POPC   PO424156  39.834  32.801   9.563
 1753POPC   GL124157  40.104  32.989   9.217
 1753POPC   GL224158  40.248  32.712   9.042
 1753POPC   C1A24159  40.091  33.175   8.794
 1753POPC   D2A24160  40.259  33.252   8.349
 1753POPC   C3A24161  40.073  33.036   8.004
 1753POPC   C4A24162  40.074  33.028   7.526
 1753POPC   C1B24163  40.268  32.727   8.576
 1753POPC   C2B24164  40.129  32.523   8.178
 1753POPC   C3B24165  39.898  32.615   7.784
 1753POPC   C4B24166  39.587  32.720   7.492
 1754POPC   NC324167  42.354  44.219  10.013
 1754POPC   PO424168  42.474  44.720   9.564
 1754POPC   GL124169  42.264  44.752   9.150
 1754POPC   GL224170  42.350  44.429   9.139
 1754POPC   C1A24171  42.215  44.775   8.681
 1754POPC   D2A24172  42.420  44.901   8.257
 1754POPC   C3A24173  42.276  44.679   7.864
 1754POPC   C4A24174  42.048  44.635   7.462
 1754POPC   C1B24175  42.362  44.276   8.751
 1754POPC   C2B24176  42.374  44.378   8.349
 1754POPC   C3B24177  42.464  44.160   7.983
 1754POPC   C4B24178  42.292  44.229   7.595
 1755POPC   NC324179   6.318   8.198   9.574
 1755POPC   PO424180   6.997   8.094   9.515
 1755POPC   GL124181   6.686   8.129   9.225
 1755POPC   GL224182   6.639   8.490   9.276
 1755POPC   C1A24183   6.616   7.935   8.823
 1755POPC   D2A24184   6.885   8.020   8.462
 1755POPC   C3A24185   6.750   8.259   8.107
 1755POPC   C4A24186   7.005   8.449   7.828
 1755POPC   C1B24187   6.699   8.442   8.831
 1755POPC   C2B24188   6.566   8.597   8.466
 1755POPC   C3B24189   6.360   8.591   8.101
 1755POPC   C4B24190   6.525   8.653   7.712
 1756POPC   NC324191  33.409  12.665   9.456
 1756POPC   PO424192  33.877  13.190   9.519
 1756POPC   GL124193  33.784  12.902   9.157
 1756POPC   GL224194  33.758  12.534   9.116
 1756POPC   C1A24195  33.898  12.829   8.725
 1756POPC   D2A24196  33.905  12.601   8.341
 1756POPC   C3A24197  33.918  12.898   8.034
 1756POPC   C4A24198  33.995  12.893   7.630
 1756POPC   C1B24199  33.423  12.681   8.800
 1756POPC   C2B24200  33.462  12.868   8.374
 1756POPC   C3B24201  33.506  12.614   7.981
 1756POPC   C4B24202  33.937  12.419   7.804
 1757POPC   NC324203  12.833  20.964   9.402
 1757POPC   PO424204  13.128  20.279   9.589
 1757POPC   GL124205  13.028  20.478   9.197
 1757POPC   GL224206  12.688  20.532   9.159
 1757POPC   C1A24207  13.087  20.620   8.753
 1757POPC   D2A24208  13.168  20.379   8.355
 1757POPC   C3A24209  13.097  20.604   8.006
 1757POPC   C4A24210  13.071  20.969   7.795
 1757POPC   C1B24211  12.604  20.443   8.714
 1757POPC   C2B24212  12.642  20.352   8.275
 1757POPC   C3B24213  12.613  20.557   7.887
 1757POPC   C4B24214  12.528  20.962   7.797
 1758POPC   NC324215  27.445  21.302   9.840
 1758POPC   PO424216  27.936  21.628   9.595
 1758POPC   GL124217  27.737  21.583   9.162
 1758POPC   GL224218  27.368  21.611   9.181
 1758POPC   C1A24219  27.579  21.257   8.848
 1758POPC   D2A24220  27.702  21.210   8.413
 1758POPC   C3A24221  27.587  21.116   7.993
 1758POPC   C4A24222  27.428  21.058   7.582
 1758POPC   C1B24223  27.439  21.754   8.753
 1758POPC   C2B24224  27.316  21.830   8.344
 1758POPC   C3B24225  27.441  21.594   8.025
 1758POPC   C4B24226  27.646  21.506   7.649
 1759POPC   NC324227  24.943   6.510   9.468
 1759POPC   PO424228  25.557   6.717   9.219
 1759POPC   GL124229  25.289   6.689   9.007
 1759POPC   GL224230  25.047   6.900   9.138
 1759POPC   C1A24231  25.362   6.734   8.575
 1759POPC   D2A24232  25.330   6.849   8.155
 1759POPC   C3A24233  25.465   6.561   7.853
 1759POPC   C4A24234  25.370   6.564   7.404
 1759POPC   C1B24235  24.881   6.669   8.745
 1759POPC   C2B24236  24.974   6.466   8.335
 1759POPC   C3B24237  24.948   6.548   7.905
 1759POPC   C4B24238  24.963   6.824   7.565
 1760POPC   NC324239  34.447  30.334   9.395
 1760POPC   PO424240  34.679  31.052   9.402
 1760POPC   GL124241  34.536  30.764   9.099
 1760POPC   GL224242  34.879  30.606   9.059
 1760POPC   C1A24243  34.603  30.692   8.646
 1760POPC   D2A24244  34.954  30.835   8.408
 1760POPC   C3A24245  34.806  30.810   7.997
 1760POPC   C4A24246  34.524  30.478   7.939
 1760POPC   C1B24247  35.017  30.369   8.667
 1760POPC   C2B24248  34.944  30.349   8.204
 1760POPC   C3B24249  35.009  30.396   7.733
 1760POPC   C4B24250  34.847  30.564   7.323
 1761POPC   NC324251  33.297   8.597   9.447
 1761POPC   PO424252  33.159   7.910   9.493
 1761POPC   GL124253  32.829   8.195   9.269
 1761POPC   GL224254  32.566   7.979   9.109
 1761POPC   C1A24255  32.756   8.400   8.851
 1761POPC   D2A24256  33.029   8.366   8.476
 1761POPC   C3A24257  33.007   8.337   8.036
 1761POPC   C4A24258  33.328   8.337   7.776
 1761POPC   C1B24259  32.948   7.934   8.842
 1761POPC   C2B24260  32.981   7.856   8.433
 1761POPC   C3B24261  32.776   7.715   8.084
 1761POPC   C4B24262  32.784   7.905   7.748
 1762POPC   NC324263  11.979  37.236   9.383
 1762POPC   PO424264  12.170  36.658   9.621
 1762POPC   GL124265  12.100  36.778   9.167
 1762POPC   GL224266  12.316  37.050   9.022
 1762POPC   C1A24267  11.850  36.955   8.802
 1762POPC   D2A24268  12.021  37.158   8.434
 1762POPC   C3A24269  11.920  37.065   8.009
 1762POPC   C4A24270  12.090  37.246   7.643
 1762POPC   C1B24271  12.286  36.712   8.683
 1762POPC   C2B24272  12.345  36.810   8.257
 1762POPC   C3B24273  12.398  36.843   7.832
 1762POPC   C4B24274  12.211  36.490   7.638
 1763POPC   NC324275   1.741  10.466   9.763
 1763POPC   PO424276   2.247  10.188   9.521
 1763POPC   GL124277   2.023  10.424   9.185
 1763POPC   GL224278   1.892  10.700   9.292
 1763POPC   C1A24279   2.214  10.681   8.820
 1763POPC   D2A24280   2.083  10.930   8.443
 1763POPC   C3A24281   1.928  10.797   8.033
 1763POPC   C4A24282   2.117  10.543   7.725
 1763POPC   C1B24283   1.721  10.709   8.848
 1763POPC   C2B24284   1.750  10.521   8.452
 1763POPC   C3B24285   1.870  10.293   8.110
 1763POPC   C4B24286   1.766  10.189   7.693
 1764POPC   NC324287  23.425  41.291   9.906
 1764POPC   PO424288  23.009  41.728   9.588
 1764POPC   GL124289  22.897  41.501   9.216
 1764POPC   GL224290  23.177  41.609   8.995
 1764POPC   C1A24291  22.820  41.306   8.815
 1764POPC   D2A24292  23.041  41.440   8.463
 1764POPC   C3A24293  22.928  41.355   8.035
 1764POPC   C4A24294  22.753  41.529   7.608
 1764POPC   C1B24295  23.274  41.859   8.646
 1764POPC   C2B24296  23.310  41.782   8.210
 1764POPC   C3B24297  23.123  41.807   7.829
 1764POPC   C4B24298  23.139  41.793   7.385
 1765POPC   NC324299  31.928  32.298   9.863
 1765POPC   PO424300  32.204  32.076   9.274
 1765POPC   GL124301  32.309  32.147   8.900
 1765POPC   GL224302  32.062  32.438   8.868
 1765POPC   C1A24303  32.359  32.279   8.491
 1765POPC   D2A24304  32.027  32.547   8.383
 1765POPC   C3A24305  31.886  32.412   8.004
 1765POPC   C4A24306  32.158  32.308   7.736
 1765POPC   C1B24307  32.422  32.674   8.832
 1765POPC   C2B24308  32.545  32.765   8.426
 1765POPC   C3B24309  32.570  32.480   8.057
 1765POPC   C4B24310  32.585  32.643   7.671
 1766POPC   NC324311  41.026   1.481   9.413
 1766POPC   PO424312  40.889   2.167   9.436
 1766POPC   GL124313  40.736   2.032   9.048
 1766POPC   GL224314  40.749   1.680   9.048
 1766POPC   C1A24315  40.618   1.946   8.638
 1766POPC   D2A24316  40.634   1.654   8.325
 1766POPC   C3A24317  40.504   1.920   7.997
 1766POPC   C4A24318  40.807   2.100   7.758
 1766POPC   C1B24319  41.056   1.621   8.726
 1766POPC   C2B24320  41.261   1.641   8.325
 1766POPC   C3B24321  41.187   1.767   7.891
 1766POPC   C4B24322  41.141   1.886   7.447
 1767POPC   NC324323  30.455  22.658   9.457
 1767POPC   PO424324  30.789  23.276   9.509
 1767POPC   GL124325  30.648  23.176   9.085
 1767POPC   GL224326  30.293  23.067   8.989
 1767POPC   C1A24327  30.632  23.201   8.622
 1767POPC   D2A24328  30.742  23.370   8.240
 1767POPC   C3A24329  30.535  23.134   7.934
 1767POPC   C4A24330  30.698  23.162   7.550
 1767POPC   C1B24331  30.535  22.745   8.811
 1767POPC   C2B24332  30.729  22.688   8.418
 1767POPC   C3B24333  30.666  22.612   8.026
 1767POPC   C4B24334  30.588  22.690   7.629
 1768POPC   NC324335  21.915  43.397   9.533
 1768POPC   PO424336  22.254  43.975   9.432
 1768POPC   GL124337  22.040  43.892   9.102
 1768POPC   GL224338  22.068  43.570   9.090
 1768POPC   C1A24339  22.184  43.952   8.693
 1768POPC   D2A24340  22.131  44.219   8.372
 1768POPC   C3A24341  22.112  43.946   8.051
 1768POPC   C4A24342  21.907  43.942   7.688
 1768POPC   C1B24343  21.843  43.568   8.727
 1768POPC   C2B24344  21.985  43.527   8.308
 1768POPC   C3B24345  21.894  43.473   7.866
 1768POPC   C4B24346  22.019  43.538   7.403
 1769POPC   NC324347  13.839  28.040   9.572
 1769POPC   PO424348  13.606  28.744   9.522
 1769POPC   GL124349  13.589  28.415   9.256
 1769POPC   GL224350  13.640  28.695   9.006
 1769POPC   C1A24351  13.777  28.246   8.887
 1769POPC   D2A24352  13.711  28.460   8.492
 1769POPC   C3A24353  13.841  28.244   8.159
 1769POPC   C4A24354  13.705  28.108   7.780
 1769POPC   C1B24355  13.291  28.462   8.803
 1769POPC   C2B24356  13.056  28.572   8.455
 1769POPC   C3B24357  13.189  28.685   8.079
 1769POPC   C4B24358  13.398  28.506   7.733
 1770POPC   NC324359  22.283  14.318   9.511
 1770POPC   PO424360  21.596  14.141   9.547
 1770POPC   GL124361  21.887  14.255   9.195
 1770POPC   GL224362  22.007  14.595   9.131
 1770POPC   C1A24363  22.149  14.245   8.795
 1770POPC   D2A24364  22.370  14.286   8.425
 1770POPC   C3A24365  22.117  14.306   8.060
 1770POPC   C4A24366  21.943  14.182   7.661
 1770POPC   C1B24367  22.360  14.698   8.848
 1770POPC   C2B24368  22.362  14.796   8.425
 1770POPC   C3B24369  22.505  14.728   8.033
 1770POPC   C4B24370  22.237  14.688   7.736
 1771POPC   NC324371   4.458  16.354   9.585
 1771POPC   PO424372   4.990  16.856   9.454
 1771POPC   GL124373   4.862  16.560   9.130
 1771POPC   GL224374   5.118  16.340   9.000
 1771POPC   C1A24375   4.951  16.761   8.737
 1771POPC   D2A24376   4.698  16.950   8.444
 1771POPC   C3A24377   4.898  16.935   8.069
 1771POPC   C4A24378   4.833  16.853   7.676
 1771POPC   C1B24379   4.976  16.269   8.609
 1771POPC   C2B24380   4.791  16.462   8.298
 1771POPC   C3B24381   4.739  16.323   7.931
 1771POPC   C4B24382   4.965  16.385   7.613
 1772POPC   NC324383  24.400  34.815   9.557
 1772POPC   PO424384  24.418  34.126   9.445
 1772POPC   GL124385  24.441  34.381   9.069
 1772POPC   GL224386  24.525  34.705   9.086
 1772POPC   C1A24387  24.513  34.465   8.630
 1772POPC   D2A24388  24.421  34.684   8.254
 1772POPC   C3A24389  24.412  34.389   7.925
 1772POPC   C4A24390  24.674  34.400   7.571
 1772POPC   C1B24391  24.495  34.965   8.727
 1772POPC   C2B24392  24.616  35.176   8.377
 1772POPC   C3B24393  24.759  35.042   7.999
 1772POPC   C4B24394  24.486  34.851   7.725
 1773POPC   NC324395  17.743  15.446   9.299
 1773POPC   PO424396  17.282  15.381   9.733
 1773POPC   GL124397  17.217  15.325   9.243
 1773POPC   GL224398  17.232  14.984   9.089
 1773POPC   C1A24399  17.325  15.433   8.771
 1773POPC   D2A24400  17.410  15.214   8.369
 1773POPC   C3A24401  17.389  15.405   7.974
 1773POPC   C4A24402  17.392  15.635   7.594
 1773POPC   C1B24403  17.622  15.011   8.806
 1773POPC   C2B24404  17.862  14.977   8.389
 1773POPC   C3B24405  17.886  15.184   8.013
 1773POPC   C4B24406  17.700  15.211   7.592
 1774POPC   NC324407  20.011  10.257   9.511
 1774POPC   PO424408  19.665   9.703   9.467
 1774POPC   GL124409  19.844   9.685   9.107
 1774POPC   GL224410  20.088   9.897   9.163
 1774POPC   C1A24411  19.756   9.891   8.759
 1774POPC   D2A24412  19.780   9.705   8.400
 1774POPC   C3A24413  19.634   9.898   8.060
 1774POPC   C4A24414  19.548   9.681   7.673
 1774POPC   C1B24415  20.262  10.012   8.767
 1774POPC   C2B24416  20.048  10.168   8.426
 1774POPC   C3B24417  20.124  10.118   8.022
 1774POPC   C4B24418  19.864  10.081   7.662
 1775POPC   NC324419   9.841  22.746   9.554
 1775POPC   PO424420   9.554  23.319   9.441
 1775POPC   GL124421   9.766  23.038   9.105
 1775POPC   GL224422   9.787  22.693   9.058
 1775POPC   C1A24423   9.843  23.158   8.684
 1775POPC   D2A24424   9.649  23.309   8.337
 1775POPC   C3A24425   9.806  23.262   7.969
 1775POPC   C4A24426   9.947  22.964   7.693
 1775POPC   C1B24427  10.097  22.731   8.745
 1775POPC   C2B24428  10.023  22.856   8.289
 1775POPC   C3B24429   9.682  22.676   8.000
 1775POPC   C4B24430   9.759  22.398   7.613
 1776POPC   NC324431  27.164  32.900   9.530
 1776POPC   PO424432  26.684  33.339   9.468
 1776POPC   GL124433  26.653  33.069   9.152
 1776POPC   GL224434  27.002  33.067   9.077
 1776POPC   C1A24435  26.639  33.016   8.709
 1776POPC   D2A24436  26.837  33.160   8.372
 1776POPC   C3A24437  26.667  32.966   8.032
 1776POPC   C4A24438  26.784  33.124   7.617
 1776POPC   C1B24439  27.093  32.766   8.745
 1776POPC   C2B24440  27.042  32.678   8.312
 1776POPC   C3B24441  27.176  32.968   8.016
 1776POPC   C4B24442  27.262  32.980   7.612
 1777POPC   NC324443   4.366  24.079   9.598
 1777POPC   PO424444   4.403  24.673   9.519
 1777POPC   GL124445   4.303  24.493   9.102
 1777POPC   GL224446   4.481  24.177   9.087
 1777POPC   C1A24447   4.256  24.509   8.631
 1777POPC   D2A24448   4.078  24.399   8.200
 1777POPC   C3A24449   4.124  24.708   7.876
 1777POPC   C4A24450   4.138  24.582   7.432
 1777POPC   C1B24451   4.637  24.138   8.655
 1777POPC   C2B24452   4.576  24.374   8.235
 1777POPC   C3B24453   4.494  24.363   7.760
 1777POPC   C4B24454   4.575  24.367   7.261
 1778POPC   NC324455  38.936  22.725   9.511
 1778POPC   PO424456  39.415  23.221   9.420
 1778POPC   GL124457  39.270  23.008   9.081
 1778POPC   GL224458  38.893  23.029   9.091
 1778POPC   C1A24459  39.482  23.057   8.688
 1778POPC   D2A24460  39.657  22.966   8.305
 1778POPC   C3A24461  39.445  23.200   7.999
 1778POPC   C4A24462  39.260  23.040   7.659
 1778POPC   C1B24463  38.961  22.887   8.650
 1778POPC   C2B24464  39.047  22.913   8.178
 1778POPC   C3B24465  38.917  22.703   7.765
 1778POPC   C4B24466  38.957  22.867   7.281
 1779POPC   NC324467  18.450  26.973   9.558
 1779POPC   PO424468  18.533  26.373   9.733
 1779POPC   GL124469  18.396  26.602   9.233
 1779POPC   GL224470  18.671  26.849   9.123
 1779POPC   C1A24471  18.129  26.719   8.851
 1779POPC   D2A24472  18.206  26.943   8.443
 1779POPC   C3A24473  18.136  26.794   8.022
 1779POPC   C4A24474  18.486  26.749   7.673
 1779POPC   C1B24475  18.551  27.056   8.794
 1779POPC   C2B24476  18.715  27.224   8.429
 1779POPC   C3B24477  18.729  27.297   7.985
 1779POPC   C4B24478  18.661  27.225   7.548
 1780POPC   NC324479   3.992   6.357   9.552
 1780POPC   PO424480   4.120   5.727   9.526
 1780POPC   GL124481   4.198   5.663   9.122
 1780POPC   GL224482   4.545   5.751   9.095
 1780POPC   C1A24483   4.199   5.504   8.710
 1780POPC   D2A24484   4.127   5.761   8.362
 1780POPC   C3A24485   4.080   5.780   7.924
 1780POPC   C4A24486   4.073   6.211   7.708
 1780POPC   C1B24487   4.316   6.060   8.813
 1780POPC   C2B24488   4.420   6.194   8.381
 1780POPC   C3B24489   4.539   6.013   7.977
 1780POPC   C4B24490   4.553   6.119   7.537
 1781POPC   NC324491   4.620   2.765   9.597
 1781POPC   PO424492   5.252   2.941   9.458
 1781POPC   GL124493   5.213   2.767   9.082
 1781POPC   GL224494   4.870   2.707   9.167
 1781POPC   C1A24495   5.341   2.924   8.673
 1781POPC   D2A24496   5.350   3.058   8.235
 1781POPC   C3A24497   5.207   2.744   7.940
 1781POPC   C4A24498   5.410   2.446   7.660
 1781POPC   C1B24499   4.787   2.832   8.770
 1781POPC   C2B24500   4.928   2.778   8.374
 1781POPC   C3B24501   4.773   2.999   8.014
 1781POPC   C4B24502   4.924   3.109   7.612
 1782POPC   NC324503  38.478  20.602   9.531
 1782POPC   PO424504  37.918  20.256   9.548
 1782POPC   GL124505  38.168  20.455   9.134
 1782POPC   GL224506  38.524  20.654   9.045
 1782POPC   C1A24507  38.213  20.591   8.678
 1782POPC   D2A24508  38.340  20.335   8.306
 1782POPC   C3A24509  38.268  20.602   7.951
 1782POPC   C4A24510  38.314  20.499   7.523
 1782POPC   C1B24511  38.696  20.433   8.687
 1782POPC   C2B24512  38.752  20.623   8.322
 1782POPC   C3B24513  38.797  20.615   7.935
 1782POPC   C4B24514  38.673  20.849   7.595
 1783POPC   NC324515  44.229   7.128   9.348
 1783POPC   PO424516  44.835   7.488   9.627
 1783POPC   GL124517  44.807   7.582   9.157
 1783POPC   GL224518  44.465   7.502   9.057
 1783POPC   C1A24519  44.828   7.384   8.707
 1783POPC   D2A24520  44.562   7.093   8.408
 1783POPC   C3A24521  44.455   7.243   7.978
 1783POPC   C4A24522  44.800   7.315   7.688
 1783POPC   C1B24523  44.236   7.354   8.706
 1783POPC   C2B24524  44.081   7.440   8.318
 1783POPC   C3B24525  44.196   7.782   8.052
 1783POPC   C4B24526  44.394   7.704   7.686
 1784POPC   NC324527  22.480   4.451   9.419
 1784POPC   PO424528  22.069   3.901   9.324
 1784POPC   GL124529  22.301   4.146   9.043
 1784POPC   GL224530  22.254   4.527   8.979
 1784POPC   C1A24531  22.312   4.083   8.620
 1784POPC   D2A24532  22.403   3.977   8.222
 1784POPC   C3A24533  22.056   4.011   7.948
 1784POPC   C4A24534  21.983   4.372   7.697
 1784POPC   C1B24535  21.904   4.552   8.702
 1784POPC   C2B24536  21.985   4.353   8.327
 1784POPC   C3B24537  22.301   4.485   8.092
 1784POPC   C4B24538  22.262   4.789   7.787
 1785POPC   NC324539  22.714  37.344   9.465
 1785POPC   PO424540  22.955  36.698   9.574
 1785POPC   GL124541  22.904  36.854   9.183
 1785POPC   GL224542  23.217  37.003   9.189
 1785POPC   C1A24543  23.007  36.773   8.720
 1785POPC   D2A24544  23.119  36.639   8.312
 1785POPC   C3A24545  22.796  36.678   7.975
 1785POPC   C4A24546  22.847  36.693   7.538
 1785POPC   C1B24547  23.001  37.244   8.858
 1785POPC   C2B24548  23.126  37.304   8.459
 1785POPC   C3B24549  23.038  37.106   8.090
 1785POPC   C4B24550  23.084  37.171   7.655
 1786POPC   NC324551  16.106  14.858   9.474
 1786POPC   PO424552  15.956  14.216   9.441
 1786POPC   GL124553  15.991  14.390   9.082
 1786POPC   GL224554  15.638  14.496   9.106
 1786POPC   C1A24555  16.272  14.412   8.723
 1786POPC   D2A24556  16.407  14.245   8.308
 1786POPC   C3A24557  16.220  14.368   7.912
 1786POPC   C4A24558  16.027  14.353   7.488
 1786POPC   C1B24559  15.756  14.559   8.667
 1786POPC   C2B24560  15.791  14.411   8.250
 1786POPC   C3B24561  15.732  14.576   7.825
 1786POPC   C4B24562  15.764  14.977   7.602
 1787POPC   NC324563   1.014   7.375   9.488
 1787POPC   PO424564   1.237   8.014   9.574
 1787POPC   GL124565   1.340   7.617   9.186
 1787POPC   GL224566   1.199   7.312   9.003
 1787POPC   C1A24567   1.505   7.596   8.715
 1787POPC   D2A24568   1.277   7.428   8.409
 1787POPC   C3A24569   1.495   7.631   8.115
 1787POPC   C4A24570   1.577   7.718   7.735
 1787POPC   C1B24571   0.884   7.196   8.700
 1787POPC   C2B24572   0.815   7.178   8.287
 1787POPC   C3B24573   1.094   7.278   7.951
 1787POPC   C4B24574   1.013   7.305   7.512
 1788POPC   NC324575  17.710  33.214   9.290
 1788POPC   PO424576  17.433  32.769   9.677
 1788POPC   GL124577  17.291  32.894   9.256
 1788POPC   GL224578  17.221  33.303   9.246
 1788POPC   C1A24579  17.467  32.753   8.845
 1788POPC   D2A24580  17.746  32.947   8.545
 1788POPC   C3A24581  17.574  32.901   8.158
 1788POPC   C4A24582  17.671  33.096   7.771
 1788POPC   C1B24583  17.274  33.233   8.780
 1788POPC   C2B24584  17.124  33.141   8.364
 1788POPC   C3B24585  17.244  33.272   7.980
 1788POPC   C4B24586  17.469  33.599   7.841
 1789POPC   NC324587  14.244   0.712   9.216
 1789POPC   PO424588  14.323   1.331   9.494
 1789POPC   GL124589  14.618   1.150   9.181
 1789POPC   GL224590  14.529   0.959   8.913
 1789POPC   C1A24591  14.827   1.333   8.818
 1789POPC   D2A24592  14.737   1.137   8.436
 1789POPC   C3A24593  14.698   1.337   8.063
 1789POPC   C4A24594  14.667   1.155   7.665
 1789POPC   C1B24595  14.300   1.241   8.712
 1789POPC   C2B24596  14.212   1.226   8.294
 1789POPC   C3B24597  14.214   1.196   7.874
 1789POPC   C4B24598  14.228   1.372   7.487
 1790POPC   NC324599   6.970  17.938   9.495
 1790POPC   PO424600   6.589  17.356   9.548
 1790POPC   GL124601   6.628  17.512   9.167
 1790POPC   GL224602   6.955  17.550   9.175
 1790POPC   C1A24603   6.692  17.345   8.754
 1790POPC   D2A24604   6.606  17.223   8.358
 1790POPC   C3A24605   6.618  17.574   8.062
 1790POPC   C4A24606   6.774  17.534   7.662
 1790POPC   C1B24607   6.861  17.822   8.805
 1790POPC   C2B24608   6.756  17.982   8.370
 1790POPC   C3B24609   6.965  17.947   7.968
 1790POPC   C4B24610   6.715  18.025   7.612
 1791POPC   NC324611  39.739   9.357   9.550
 1791POPC   PO424612  39.838  10.112   9.593
 1791POPC   GL124613  40.122  10.001   9.188
 1791POPC   GL224614  40.202   9.648   9.171
 1791POPC   C1A24615  39.956   9.747   8.766
 1791POPC   D2A24616  39.824   9.584   8.392
 1791POPC   C3A24617  39.983   9.801   8.029
 1791POPC   C4A24618  39.861   9.853   7.596
 1791POPC   C1B24619  40.327   9.390   8.826
 1791POPC   C2B24620  40.324   9.505   8.404
 1791POPC   C3B24621  40.446   9.560   8.002
 1791POPC   C4B24622  40.342   9.731   7.637
 1792POPC   NC324623  24.959  10.189   9.511
 1792POPC   PO424624  25.380  10.650   9.308
 1792POPC   GL124625  25.284  10.329   9.031
 1792POPC   GL224626  24.968  10.334   9.009
 1792POPC   C1A24627  25.310  10.530   8.603
 1792POPC   D2A24628  25.650  10.867   8.485
 1792POPC   C3A24629  25.745  10.899   8.037
 1792POPC   C4A24630  25.467  10.828   7.703
 1792POPC   C1B24631  24.819  10.623   8.717
 1792POPC   C2B24632  24.909  10.719   8.324
 1792POPC   C3B24633  25.114  10.594   7.964
 1792POPC   C4B24634  25.130  10.468   7.509
 1793POPC   NC324635  39.862  15.814   9.778
 1793POPC   PO424636  40.086  15.307   9.406
 1793POPC   GL124637  40.120  15.221   9.049
 1793POPC   GL224638  40.288  14.919   9.038
 1793POPC   C1A24639  40.065  15.367   8.671
 1793POPC   D2A24640  39.786  15.384   8.370
 1793POPC   C3A24641  40.033  15.337   8.028
 1793POPC   C4A24642  39.926  15.229   7.646
 1793POPC   C1B24643  39.993  14.815   8.766
 1793POPC   C2B24644  40.030  14.930   8.352
 1793POPC   C3B24645  39.712  14.943   8.052
 1793POPC   C4B24646  39.748  14.765   7.668
 1794POPC   NC324647  34.171  40.358   9.277
 1794POPC   PO424648  34.495  39.765   9.614
 1794POPC   GL124649  34.582  39.778   9.179
 1794POPC   GL224650  34.215  39.855   9.181
 1794POPC   C1A24651  34.804  39.987   8.792
 1794POPC   D2A24652  34.973  40.327   8.500
 1794POPC   C3A24653  34.824  40.287   8.067
 1794POPC   C4A24654  34.435  40.454   7.860
 1794POPC   C1B24655  34.283  39.928   8.767
 1794POPC   C2B24656  34.257  39.930   8.323
 1794POPC   C3B24657  34.406  39.957   7.910
 1794POPC   C4B24658  34.524  39.720   7.560
 1795POPC   NC324659  13.092  31.658   9.671
 1795POPC   PO424660  12.723  31.985   9.202
 1795POPC   GL124661  12.971  31.532   9.055
 1795POPC   GL224662  13.194  31.634   8.762
 1795POPC   C1A24663  12.953  31.153   8.775
 1795POPC   D2A24664  12.733  31.037   8.387
 1795POPC   C3A24665  12.715  31.361   8.092
 1795POPC   C4A24666  12.957  31.419   7.746
 1795POPC   C1B24667  12.778  31.586   8.587
 1795POPC   C2B24668  12.599  31.819   8.317
 1795POPC   C3B24669  12.822  31.865   7.974
 1795POPC   C4B24670  12.705  31.934   7.607
 1796POPC   NC324671  15.124  24.827   9.407
 1796POPC   PO424672  15.212  24.162   9.548
 1796POPC   GL124673  15.178  24.359   9.117
 1796POPC   GL224674  14.892  24.275   8.949
 1796POPC   C1A24675  15.265  24.406   8.632
 1796POPC   D2A24676  15.265  24.231   8.208
 1796POPC   C3A24677  15.532  24.277   7.844
 1796POPC   C4A24678  15.368  24.422   7.455
 1796POPC   C1B24679  14.818  24.671   8.703
 1796POPC   C2B24680  14.998  24.761   8.292
 1796POPC   C3B24681  15.124  24.628   7.879
 1796POPC   C4B24682  14.870  24.522   7.504
 1797POPC   NC324683  36.966   2.621   9.510
 1797POPC   PO424684  36.645   3.281   9.499
 1797POPC   GL124685  36.806   2.968   9.201
 1797POPC   GL224686  36.572   2.676   9.159
 1797POPC   C1A24687  36.968   2.813   8.832
 1797POPC   D2A24688  37.045   3.069   8.503
 1797POPC   C3A24689  37.031   2.841   8.132
 1797POPC   C4A24690  36.931   3.037   7.764
 1797POPC   C1B24691  36.605   2.454   8.793
 1797POPC   C2B24692  36.814   2.446   8.460
 1797POPC   C3B24693  36.653   2.412   8.101
 1797POPC   C4B24694  36.785   2.532   7.733
 1798POPC   NC324695  18.699  37.783   9.386
 1798POPC   PO424696  19.383  37.734   9.537
 1798POPC   GL124697  19.171  37.647   9.178
 1798POPC   GL224698  19.104  37.968   9.131
 1798POPC   C1A24699  19.143  37.576   8.737
 1798POPC   D2A24700  19.357  37.436   8.389
 1798POPC   C3A24701  19.208  37.162   8.080
 1798POPC   C4A24702  19.194  37.310   7.668
 1798POPC   C1B24703  18.837  37.995   8.765
 1798POPC   C2B24704  18.730  37.789   8.374
 1798POPC   C3B24705  18.844  37.654   7.942
 1798POPC   C4B24706  18.892  37.896   7.531
 1799POPC   NC324707   5.062  24.658   9.555
 1799POPC   PO424708   4.812  24.082   9.501
 1799POPC   GL124709   4.942  24.379   9.139
 1799POPC   GL224710   4.769  24.677   9.127
 1799POPC   C1A24711   5.248  24.599   8.876
 1799POPC   D2A24712   5.388  24.658   8.423
 1799POPC   C3A24713   5.338  24.430   7.992
 1799POPC   C4A24714   5.275  24.653   7.574
 1799POPC   C1B24715   4.773  24.621   8.688
 1799POPC   C2B24716   4.899  24.792   8.316
 1799POPC   C3B24717   4.894  24.636   7.931
 1799POPC   C4B24718   4.774  24.736   7.545
 1800POPC   NC324719  43.851  21.742   9.245
 1800POPC   PO424720  44.052  22.375   9.339
 1800POPC   GL124721  44.024  22.134   8.997
 1800POPC   GL224722  43.677  22.093   8.870
 1800POPC   C1A24723  44.068  21.847   8.649
 1800POPC   D2A24724  43.800  21.835   8.288
 1800POPC   C3A24725  43.971  22.132   8.027
 1800POPC   C4A24726  44.128  22.212   7.622
 1800POPC   C1B24727  43.449  22.451   8.632
 1800POPC   C2B24728  43.549  22.366   8.199
 1800POPC   C3B24729  43.595  22.306   7.723
 1800POPC   C4B24730  43.547  22.440   7.269
 1801POPC   NC324731  28.979  11.801   9.480
 1801POPC   PO424732  29.163  12.500   9.479
 1801POPC   GL124733  29.114  12.157   9.150
 1801POPC   GL224734  29.427  12.087   9.016
 1801POPC   C1A24735  29.034  11.817   8.815
 1801POPC   D2A24736  28.782  11.638   8.439
 1801POPC   C3A24737  28.926  11.731   8.013
 1801POPC   C4A24738  29.044  12.089   7.760
 1801POPC   C1B24739  29.291  12.259   8.651
 1801POPC   C2B24740  29.134  12.115   8.288
 1801POPC   C3B24741  29.419  11.887   8.032
 1801POPC   C4B24742  29.504  11.870   7.625
 1802POPC   NC324743   7.657   4.775   9.308
 1802POPC   PO424744   7.297   4.151   9.451
 1802POPC   GL124745   7.480   4.333   9.111
 1802POPC   GL224746   7.842   4.258   9.103
 1802POPC   C1A24747   7.526   4.191   8.698
 1802POPC   D2A24748   7.374   4.350   8.328
 1802POPC   C3A24749   7.361   4.149   7.951
 1802POPC   C4A24750   7.532   4.351   7.600
 1802POPC   C1B24751   7.852   4.580   8.756
 1802POPC   C2B24752   7.725   4.775   8.404
 1802POPC   C3B24753   7.657   4.666   8.006
 1802POPC   C4B24754   7.833   4.785   7.629
 1803POPC   NC324755  35.423  37.999   9.608
 1803POPC   PO424756  34.878  37.727   9.543
 1803POPC   GL124757  35.089  37.923   9.206
 1803POPC   GL224758  35.300  37.641   9.142
 1803POPC   C1A24759  35.121  37.895   8.738
 1803POPC   D2A24760  35.114  37.610   8.370
 1803POPC   C3A24761  35.412  37.697   8.027
 1803POPC   C4A24762  35.641  38.009   7.754
 1803POPC   C1B24763  35.501  37.490   8.757
 1803POPC   C2B24764  35.677  37.377   8.351
 1803POPC   C3B24765  35.692  37.250   7.926
 1803POPC   C4B24766  35.625  37.511   7.565
 1804POPC   NC324767  19.543   5.221   9.592
 1804POPC   PO424768  20.160   5.038   9.731
 1804POPC   GL124769  20.044   5.068   9.224
 1804POPC   GL224770  19.897   4.765   9.010
 1804POPC   C1A24771  20.049   5.157   8.745
 1804POPC   D2A24772  19.925   4.845   8.393
 1804POPC   C3A24773  20.000   4.984   7.962
 1804POPC   C4A24774  20.010   5.413   7.793
 1804POPC   C1B24775  19.563   4.948   8.760
 1804POPC   C2B24776  19.442   5.311   8.515
 1804POPC   C3B24777  19.585   5.274   8.099
 1804POPC   C4B24778  19.485   4.875   7.880
 1805POPC   NC324779  26.425   4.558   9.451
 1805POPC   PO424780  26.887   3.999   9.590
 1805POPC   GL124781  26.757   4.158   9.184
 1805POPC   GL224782  26.755   4.518   9.073
 1805POPC   C1A24783  26.776   4.105   8.731
 1805POPC   D2A24784  26.846   4.219   8.318
 1805POPC   C3A24785  26.675   4.035   7.961
 1805POPC   C4A24786  26.847   4.096   7.559
 1805POPC   C1B24787  26.925   4.609   8.662
 1805POPC   C2B24788  27.014   4.684   8.219
 1805POPC   C3B24789  27.030   4.499   7.812
 1805POPC   C4B24790  26.780   4.595   7.425
 1806POPC   NC324791  21.994   0.353   9.433
 1806POPC   PO424792  22.639   0.424   9.563
 1806POPC   GL124793  22.420   0.554   9.163
 1806POPC   GL224794  22.119   0.772   9.185
 1806POPC   C1A24795  22.243   0.456   8.750
 1806POPC   D2A24796  22.246   0.184   8.371
 1806POPC   C3A24797  22.116   0.475   8.060
 1806POPC   C4A24798  22.323   0.624   7.715
 1806POPC   C1B24799  21.788   0.697   8.835
 1806POPC   C2B24800  21.700   0.629   8.389
 1806POPC   C3B24801  21.758   0.900   8.018
 1806POPC   C4B24802  21.851   0.756   7.621
 1807POPC   NC324803  30.743  40.509   9.463
 1807POPC   PO424804  30.438  41.216   9.436
 1807POPC   GL124805  30.564  40.867   9.103
 1807POPC   GL224806  30.921  40.859   9.132
 1807POPC   C1A24807  30.634  40.708   8.635
 1807POPC   D2A24808  30.439  40.858   8.237
 1807POPC   C3A24809  30.508  41.027   7.847
 1807POPC   C4A24810  30.391  41.050   7.428
 1807POPC   C1B24811  30.922  41.094   8.774
 1807POPC   C2B24812  30.917  41.085   8.351
 1807POPC   C3B24813  30.950  40.836   8.018
 1807POPC   C4B24814  30.920  40.868   7.599
 1808POPC   NC324815  44.199   3.657   9.433
 1808POPC   PO424816  44.876   3.769   9.433
 1808POPC   GL124817  44.702   3.453   9.153
 1808POPC   GL224818  44.913   3.157   9.066
 1808POPC   C1A24819  44.569   3.567   8.747
 1808POPC   D2A24820  44.419   3.479   8.348
 1808POPC   C3A24821  44.488   3.768   8.082
 1808POPC   C4A24822  44.498   3.633   7.695
 1808POPC   C1B24823   0.051   3.378   8.712
 1808POPC   C2B24824  44.913   3.587   8.335
 1808POPC   C3B24825  44.985   3.655   7.897
 1808POPC   C4B24826   0.052   3.457   7.517
 1809POPC   NC324827  41.876  12.199   9.359
 1809POPC   PO424828  41.298  12.397   9.387
 1809POPC   GL124829  41.255  12.201   9.044
 1809POPC   GL224830  41.336  11.862   9.184
 1809POPC   C1A24831  41.371  12.366   8.648
 1809POPC   D2A24832  41.674  12.539   8.411
 1809POPC   C3A24833  41.706  12.253   8.095
 1809POPC   C4A24834  41.578  12.249   7.708
 1809POPC   C1B24835  41.576  11.886   8.784
 1809POPC   C2B24836  41.376  11.933   8.386
 1809POPC   C3B24837  41.344  11.726   8.021
 1809POPC   C4B24838  41.682  11.729   7.765
 1810POPC   NC324839   0.934   2.117   9.467
 1810POPC   PO424840   1.501   2.255   9.737
 1810POPC   GL124841   1.411   2.137   9.252
 1810POPC   GL224842   1.123   1.990   9.027
 1810POPC   C1A24843   1.561   2.027   8.781
 1810POPC   D2A24844   1.339   1.777   8.430
 1810POPC   C3A24845   1.325   1.861   7.959
 1810POPC   C4A24846   1.308   1.717   7.516
 1810POPC   C1B24847   0.825   1.954   8.685
 1810POPC   C2B24848   0.929   2.038   8.275
 1810POPC   C3B24849   1.007   2.275   7.897
 1810POPC   C4B24850   0.880   2.019   7.553
 1811POPC   NC324851  26.050  17.215   9.550
 1811POPC   PO424852  25.675  17.827   9.538
 1811POPC   GL124853  25.874  17.892   9.126
 1811POPC   GL224854  26.217  17.743   9.148
 1811POPC   C1A24855  25.856  17.627   8.771
 1811POPC   D2A24856  26.041  17.389   8.425
 1811POPC   C3A24857  25.781  17.417   8.051
 1811POPC   C4A24858  25.794  17.125   7.700
 1811POPC   C1B24859  26.340  17.847   8.727
 1811POPC   C2B24860  26.469  17.679   8.294
 1811POPC   C3B24861  26.318  17.393   7.958
 1811POPC   C4B24862  26.257  17.496   7.538
 1812POPC   NC324863  15.429  19.725   9.536
 1812POPC   PO424864  15.172  20.316   9.485
 1812POPC   GL124865  15.128  20.032   9.148
 1812POPC   GL224866  15.449  19.914   9.049
 1812POPC   C1A24867  15.060  19.899   8.706
 1812POPC   D2A24868  14.807  19.964   8.318
 1812POPC   C3A24869  15.045  19.850   7.950
 1812POPC   C4A24870  15.140  19.561   7.595
 1812POPC   C1B24871  15.611  19.786   8.646
 1812POPC   C2B24872  15.548  19.605   8.215
 1812POPC   C3B24873  15.604  19.513   7.765
 1812POPC   C4B24874  15.555  19.565   7.294
 1813POPC   NC324875  19.253  17.569   9.445
 1813POPC   PO424876  19.568  16.991   9.405
 1813POPC   GL124877  19.205  17.205   9.125
 1813POPC   GL224878  18.851  17.304   9.229
 1813POPC   C1A24879  19.278  17.489   8.755
 1813POPC   D2A24880  19.090  17.643   8.379
 1813POPC   C3A24881  19.334  17.592   8.032
 1813POPC   C4A24882  19.263  17.260   7.734
 1813POPC   C1B24883  18.775  17.421   8.791
 1813POPC   C2B24884  18.764  17.250   8.364
 1813POPC   C3B24885  18.825  17.421   7.948
 1813POPC   C4B24886  18.816  17.413   7.487
 1814POPC   NC324887  44.874   8.523   9.403
 1814POPC   PO424888  44.323   8.026   9.472
 1814POPC   GL124889  44.446   8.322   9.154
 1814POPC   GL224890  44.759   8.113   9.121
 1814POPC   C1A24891  44.584   8.407   8.707
 1814POPC   D2A24892  44.663   8.155   8.293
 1814POPC   C3A24893  44.629   8.337   7.866
 1814POPC   C4A24894  44.891   8.389   7.462
 1814POPC   C1B24895  44.522   7.912   8.788
 1814POPC   C2B24896  44.520   7.674   8.428
 1814POPC   C3B24897  44.726   7.665   8.051
 1814POPC   C4B24898  44.842   7.921   7.696
 1815POPC   NC324899   8.559  14.247   9.345
 1815POPC   PO424900   8.070  14.673   9.524
 1815POPC   GL124901   8.164  14.513   9.093
 1815POPC   GL224902   8.227  14.149   8.978
 1815POPC   C1A24903   8.286  14.634   8.677
 1815POPC   D2A24904   8.400  14.427   8.317
 1815POPC   C3A24905   8.339  14.641   7.951
 1815POPC   C4A24906   8.002  14.480   7.681
 1815POPC   C1B24907   8.598  14.089   8.687
 1815POPC   C2B24908   8.600  13.940   8.251
 1815POPC   C3B24909   8.362  14.129   7.879
 1815POPC   C4B24910   8.570  14.366   7.539
 1816POPC   NC324911  44.326  41.323   9.379
 1816POPC   PO424912  43.679  41.600   9.377
 1816POPC   GL124913  43.913  41.461   9.058
 1816POPC   GL224914  44.110  41.733   9.108
 1816POPC   C1A24915  43.847  41.383   8.628
 1816POPC   D2A24916  43.540  41.197   8.384
 1816POPC   C3A24917  43.820  41.158   8.075
 1816POPC   C4A24918  43.934  41.393   7.741
 1816POPC   C1B24919  44.278  41.645   8.704
 1816POPC   C2B24920  44.282  41.425   8.303
 1816POPC   C3B24921  44.342  41.644   7.903
 1816POPC   C4B24922  44.519  41.713   7.492
 1817POPC   NC324923  36.967  27.850   9.614
 1817POPC   PO424924  37.183  27.349   9.792
 1817POPC   GL124925  37.128  27.425   9.312
 1817POPC   GL224926  36.847  27.560   9.156
 1817POPC   C1A24927  37.136  27.249   8.855
 1817POPC   D2A24928  36.991  27.425   8.434
 1817POPC   C3A24929  37.008  27.556   7.985
 1817POPC   C4A24930  37.110  27.319   7.626
 1817POPC   C1B24931  36.744  27.741   8.751
 1817POPC   C2B24932  36.563  27.786   8.334
 1817POPC   C3B24933  36.505  27.593   7.899
 1817POPC   C4B24934  36.780  27.704   7.505
 1818POPC   NC324935  20.856  27.227   9.311
 1818POPC   PO424936  20.723  26.624   9.615
 1818POPC   GL124937  20.552  26.566   9.200
 1818POPC   GL224938  20.584  26.875   9.048
 1818POPC   C1A24939  20.358  26.516   8.783
 1818POPC   D2A24940  20.505  26.737   8.472
 1818POPC   C3A24941  20.424  26.655   8.059
 1818POPC   C4A24942  20.518  26.644   7.654
 1818POPC   C1B24943  20.882  26.988   8.719
 1818POPC   C2B24944  20.799  27.132   8.313
 1818POPC   C3B24945  20.758  27.032   7.896
 1818POPC   C4B24946  20.683  27.110   7.468
 1819POPC   NC324947  41.092   6.554   9.657
 1819POPC   PO424948  40.654   6.359   9.131
 1819POPC   GL124949  40.637   6.741   8.959
 1819POPC   GL224950  40.453   7.023   9.107
 1819POPC   C1A24951  40.773   6.668   8.553
 1819POPC   D2A24952  41.089   6.537   8.308
 1819POPC   C3A24953  40.974   6.673   7.927
 1819POPC   C4A24954  41.057   6.463   7.549
 1819POPC   C1B24955  40.339   6.959   8.626
 1819POPC   C2B24956  40.565   7.002   8.236
 1819POPC   C3B24957  40.488   7.025   7.828
 1819POPC   C4B24958  40.681   6.824   7.495
 1820POPC   NC324959  24.318  26.841   9.753
 1820POPC   PO424960  23.617  26.656   9.576
 1820POPC   GL124961  23.699  26.906   9.195
 1820POPC   GL224962  23.738  26.634   8.991
 1820POPC   C1A24963  23.747  27.105   8.782
 1820POPC   D2A24964  23.708  26.828   8.421
 1820POPC   C3A24965  23.649  27.016   8.002
 1820POPC   C4A24966  23.701  26.820   7.578
 1820POPC   C1B24967  24.110  26.753   8.764
 1820POPC   C2B24968  24.290  26.740   8.400
 1820POPC   C3B24969  24.087  26.748   8.068
 1820POPC   C4B24970  24.185  26.886   7.728
 1821POPC   NC324971   2.252  34.381   9.570
 1821POPC   PO424972   2.766  34.786   9.627
 1821POPC   GL124973   2.762  34.684   9.184
 1821POPC   GL224974   2.423  34.557   9.099
 1821POPC   C1A24975   2.770  34.679   8.733
 1821POPC   D2A24976   2.775  34.609   8.317
 1821POPC   C3A24977   2.941  34.775   7.951
 1821POPC   C4A24978   2.830  34.542   7.598
 1821POPC   C1B24979   2.352  34.403   8.661
 1821POPC   C2B24980   2.613  34.127   8.390
 1821POPC   C3B24981   2.748  34.189   8.000
 1821POPC   C4B24982   2.430  34.292   7.761
 1822POPC   NC324983   2.333  38.548   9.486
 1822POPC   PO424984   2.973  38.614   9.459
 1822POPC   GL124985   2.885  38.325   9.156
 1822POPC   GL224986   2.526  38.242   9.125
 1822POPC   C1A24987   3.036  38.345   8.764
 1822POPC   D2A24988   2.782  38.222   8.415
 1822POPC   C3A24989   2.891  38.413   8.057
 1822POPC   C4A24990   3.013  38.489   7.657
 1822POPC   C1B24991   2.559  38.528   8.786
 1822POPC   C2B24992   2.426  38.603   8.349
 1822POPC   C3B24993   2.425  38.519   7.904
 1822POPC   C4B24994   2.597  38.766   7.536
 1823POPC   NC324995  29.899   5.646   9.540
 1823POPC   PO424996  30.040   6.317   9.569
 1823POPC   GL124997  30.076   5.977   9.198
 1823POPC   GL224998  29.778   5.954   9.030
 1823POPC   C1A24999  30.132   5.731   8.771
 1823POPC   D2A25000  30.106   5.511   8.395
 1823POPC   C3A25001  30.128   5.699   7.982
 1823POPC   C4A25002  30.099   5.425   7.661
 1823POPC   C1B25003  29.654   6.029   8.619
 1823POPC   C2B25004  29.678   5.833   8.227
 1823POPC   C3B25005  29.620   5.756   7.790
 1823POPC   C4B25006  29.683   5.983   7.419
 1824POPC   NC325007  26.272   2.976   9.230
 1824POPC   PO425008  26.042   2.283   9.287
 1824POPC   GL125009  26.051   2.574   9.003
 1824POPC   GL225010  26.394   2.518   8.970
 1824POPC   C1A25011  25.939   2.843   8.623
 1824POPC   D2A25012  25.730   2.678   8.229
 1824POPC   C3A25013  25.890   2.816   7.854
 1824POPC   C4A25014  26.029   3.014   7.467
 1824POPC   C1B25015  26.323   2.495   8.577
 1824POPC   C2B25016  26.341   2.807   8.277
 1824POPC   C3B25017  26.365   2.943   7.869
 1824POPC   C4B25018  26.535   2.731   7.491
 1825POPC   NC325019  36.801  38.489   9.414
 1825POPC   PO425020  37.357  38.017   9.602
 1825POPC   GL125021  37.113  38.133   9.204
 1825POPC   GL225022  37.178  38.472   9.083
 1825POPC   C1A25023  36.930  38.132   8.761
 1825POPC   D2A25024  37.059  38.112   8.335
 1825POPC   C3A25025  36.854  38.190   7.947
 1825POPC   C4A25026  36.723  38.365   7.589
 1825POPC   C1B25027  36.914  38.632   8.738
 1825POPC   C2B25028  36.938  38.614   8.303
 1825POPC   C3B25029  36.842  38.732   7.915
 1825POPC   C4B25030  36.866  38.905   7.492
 1826POPC   NC325031  14.484  29.398   9.265
 1826POPC   PO425032  14.570  28.767   9.260
 1826POPC   GL125033  14.557  28.830   8.869
 1826POPC   GL225034  14.300  29.077   8.915
 1826POPC   C1A25035  14.796  29.031   8.553
 1826POPC   D2A25036  14.598  29.118   8.179
 1826POPC   C3A25037  14.540  28.925   7.768
 1826POPC   C4A25038  14.136  28.979   7.517
 1826POPC   C1B25039  14.123  29.449   8.730
 1826POPC   C2B25040  13.972  29.406   8.343
 1826POPC   C3B25041  14.133  29.253   7.985
 1826POPC   C4B25042  13.819  29.314   7.727
 1827POPC   NC325043  25.303  17.481   9.530
 1827POPC   PO425044  24.950  18.105   9.495
 1827POPC   GL125045  25.024  17.786   9.186
 1827POPC   GL225046  25.384  17.762   9.120
 1827POPC   C1A25047  25.094  17.566   8.785
 1827POPC   D2A25048  25.387  17.529   8.454
 1827POPC   C3A25049  25.173  17.436   8.095
 1827POPC   C4A25050  25.306  17.263   7.733
 1827POPC   C1B25051  25.459  17.954   8.736
 1827POPC   C2B25052  25.489  18.008   8.289
 1827POPC   C3B25053  25.559  17.845   7.866
 1827POPC   C4B25054  25.763  17.613   7.555
 1828POPC   NC325055  37.308  39.261   9.391
 1828POPC   PO425056  37.860  38.870   9.467
 1828POPC   GL125057  37.739  39.048   9.120
 1828POPC   GL225058  37.429  38.914   9.027
 1828POPC   C1A25059  37.777  39.341   8.806
 1828POPC   D2A25060  37.917  39.517   8.442
 1828POPC   C3A25061  37.631  39.353   8.134
 1828POPC   C4A25062  37.722  39.265   7.709
 1828POPC   C1B25063  37.669  38.824   8.667
 1828POPC   C2B25064  37.752  38.878   8.256
 1828POPC   C3B25065  37.535  38.809   7.890
 1828POPC   C4B25066  37.658  38.845   7.438
 1829POPC   NC325067  14.775  23.484   9.616
 1829POPC   PO425068  15.353  23.609   9.379
 1829POPC   GL125069  15.049  23.773   9.165
 1829POPC   GL225070  14.896  23.435   9.107
 1829POPC   C1A25071  15.167  23.896   8.755
 1829POPC   D2A25072  15.049  23.799   8.353
 1829POPC   C3A25073  15.346  23.665   8.028
 1829POPC   C4A25074  15.387  23.818   7.591
 1829POPC   C1B25075  14.979  23.356   8.647
 1829POPC   C2B25076  14.868  23.368   8.171
 1829POPC   C3B25077  14.887  23.600   7.785
 1829POPC   C4B25078  15.052  23.491   7.361
 1830POPC   NC325079  13.390  38.038   9.323
 1830POPC   PO425080  13.857  38.496   9.615
 1830POPC   GL125081  13.691  38.446   9.200
 1830POPC   GL225082  13.869  38.134   9.101
 1830POPC   C1A25083  13.794  38.544   8.765
 1830POPC   D2A25084  13.601  38.426   8.384
 1830POPC   C3A25085  13.777  38.546   8.013
 1830POPC   C4A25086  13.477  38.564   7.724
 1830POPC   C1B25087  13.657  38.023   8.708
 1830POPC   C2B25088  13.343  37.910   8.399
 1830POPC   C3B25089  13.313  38.021   7.955
 1830POPC   C4B25090  13.676  38.102   7.780
 1831POPC   NC325091  40.418  35.619   9.478
 1831POPC   PO425092  40.907  35.220   9.537
 1831POPC   GL125093  40.934  35.216   9.132
 1831POPC   GL225094  40.666  34.977   9.042
 1831POPC   C1A25095  40.805  35.449   8.779
 1831POPC   D2A25096  40.851  35.367   8.355
 1831POPC   C3A25097  40.547  35.518   8.074
 1831POPC   C4A25098  40.835  35.584   7.767
 1831POPC   C1B25099  40.984  34.961   8.694
 1831POPC   C2B25100  40.907  34.867   8.272
 1831POPC   C3B25101  40.712  35.059   7.919
 1831POPC   C4B25102  40.546  35.245   7.541
 1832POPC   NC325103  41.620  28.158   9.668
 1832POPC   PO425104  42.049  27.741   9.447
 1832POPC   GL125105  41.580  27.990   9.214
 1832POPC   GL225106  41.589  28.357   9.186
 1832POPC   C1A25107  41.386  28.079   8.794
 1832POPC   D2A25108  41.658  28.120   8.420
 1832POPC   C3A25109  41.465  28.303   8.051
 1832POPC   C4A25110  41.299  28.055   7.717
 1832POPC   C1B25111  41.759  28.457   8.791
 1832POPC   C2B25112  41.729  28.676   8.419
 1832POPC   C3B25113  41.784  28.728   8.021
 1832POPC   C4B25114  41.744  28.514   7.653
 1833POPC   NC325115  36.154  41.148   9.495
 1833POPC   PO425116  36.285  40.473   9.553
 1833POPC   GL125117  36.134  40.641   9.158
 1833POPC   GL225118  36.031  40.973   9.047
 1833POPC   C1A25119  36.104  40.585   8.723
 1833POPC   D2A25120  36.240  40.861   8.414
 1833POPC   C3A25121  36.197  40.671   8.033
 1833POPC   C4A25122  36.486  40.577   7.741
 1833POPC   C1B25123  35.805  41.035   8.683
 1833POPC   C2B25124  35.914  41.236   8.316
 1833POPC   C3B25125  35.862  41.067   7.921
 1833POPC   C4B25126  35.895  41.228   7.533
 1834POPC   NC325127  24.190  36.627   9.803
 1834POPC   PO425128  24.611  36.142   9.536
 1834POPC   GL125129  24.305  36.040   9.254
 1834POPC   GL225130  24.603  36.123   9.027
 1834POPC   C1A25131  24.195  35.938   8.818
 1834POPC   D2A25132  24.491  35.986   8.471
 1834POPC   C3A25133  24.317  35.999   8.040
 1834POPC   C4A25134  24.174  36.400   7.880
 1834POPC   C1B25135  24.859  36.320   8.734
 1834POPC   C2B25136  24.899  36.330   8.310
 1834POPC   C3B25137  24.688  36.406   7.967
 1834POPC   C4B25138  24.578  36.254   7.598
 1835POPC   NC325139   4.418  11.505   9.773
 1835POPC   PO425140   3.896  11.154   9.466
 1835POPC   GL125141   4.248  11.220   9.212
 1835POPC   GL225142   4.465  11.528   9.240
 1835POPC   C1A25143   4.149  11.219   8.791
 1835POPC   D2A25144   4.207  11.525   8.486
 1835POPC   C3A25145   4.031  11.405   8.099
 1835POPC   C4A25146   4.180  11.037   7.834
 1835POPC   C1B25147   4.644  11.267   8.857
 1835POPC   C2B25148   4.773  11.381   8.431
 1835POPC   C3B25149   4.526  11.491   8.049
 1835POPC   C4B25150   4.386  11.655   7.655
 1836POPC   NC325151   4.776  41.739   9.646
 1836POPC   PO425152   4.112  41.608   9.414
 1836POPC   GL125153   4.420  41.555   9.121
 1836POPC   GL225154   4.196  41.284   9.010
 1836POPC   C1A25155   4.493  41.829   8.747
 1836POPC   D2A25156   4.219  41.829   8.373
 1836POPC   C3A25157   4.371  41.705   7.957
 1836POPC   C4A25158   4.378  41.784   7.523
 1836POPC   C1B25159   4.314  41.360   8.646
 1836POPC   C2B25160   4.153  41.327   8.297
 1836POPC   C3B25161   4.001  41.318   7.932
 1836POPC   C4B25162   4.177  41.307   7.526
 1837POPC   NC325163  26.365  11.067   9.380
 1837POPC   PO425164  25.873  11.515   9.410
 1837POPC   GL125165  25.788  11.397   9.010
 1837POPC   GL225166  25.912  11.044   8.943
 1837POPC   C1A25167  26.072  11.440   8.686
 1837POPC   D2A25168  26.061  11.192   8.339
 1837POPC   C3A25169  25.902  11.412   7.993
 1837POPC   C4A25170  25.656  11.281   7.651
 1837POPC   C1B25171  26.323  10.913   8.714
 1837POPC   C2B25172  26.526  10.975   8.277
 1837POPC   C3B25173  26.241  11.015   7.886
 1837POPC   C4B25174  26.325  11.053   7.421
 1838POPC   NC325175   9.742   7.033   9.793
 1838POPC   PO425176   9.943   6.345   9.502
 1838POPC   GL125177   9.948   6.563   9.080
 1838POPC   GL225178   9.690   6.493   8.885
 1838POPC   C1A25179   9.907   6.932   8.713
 1838POPC   D2A25180   9.777   6.944   8.248
 1838POPC   C3A25181   9.924   6.547   8.025
 1838POPC   C4A25182  10.169   6.173   7.843
 1838POPC   C1B25183   9.405   6.837   8.755
 1838POPC   C2B25184   9.311   7.063   8.426
 1838POPC   C3B25185   9.258   6.993   8.006
 1838POPC   C4B25186   9.488   6.937   7.631
 1839POPC   NC325187  27.276  37.932   9.517
 1839POPC   PO425188  27.999  37.924   9.563
 1839POPC   GL125189  27.915  37.592   9.272
 1839POPC   GL225190  27.582  37.485   9.283
 1839POPC   C1A25191  27.871  37.636   8.814
 1839POPC   D2A25192  27.865  37.976   8.483
 1839POPC   C3A25193  27.597  37.940   8.105
 1839POPC   C4A25194  27.633  37.708   7.717
 1839POPC   C1B25195  27.359  37.440   8.888
 1839POPC   C2B25196  27.420  37.645   8.502
 1839POPC   C3B25197  27.379  37.466   8.088
 1839POPC   C4B25198  27.345  37.250   7.697
 1840POPC   NC325199  44.244  27.085   9.480
 1840POPC   PO425200  44.797  26.652   9.624
 1840POPC   GL125201  44.609  26.793   9.228
 1840POPC   GL225202  44.684  27.180   9.215
 1840POPC   C1A25203  44.572  26.635   8.779
 1840POPC   D2A25204  44.340  26.624   8.374
 1840POPC   C3A25205  44.604  26.699   7.988
 1840POPC   C4A25206  44.680  26.681   7.549
 1840POPC   C1B25207  44.458  27.142   8.818
 1840POPC   C2B25208  44.556  27.139   8.379
 1840POPC   C3B25209  44.666  27.203   7.937
 1840POPC   C4B25210  44.804  27.164   7.485
 1841POPC   NC325211  26.481  36.259   9.497
 1841POPC   PO425212  27.062  36.503   9.348
 1841POPC   GL125213  26.800  36.361   9.088
 1841POPC   GL225214  26.780  36.017   9.181
 1841POPC   C1A25215  26.914  36.269   8.696
 1841POPC   D2A25216  27.139  36.302   8.342
 1841POPC   C3A25217  26.871  36.399   8.017
 1841POPC   C4A25218  26.779  36.092   7.736
 1841POPC   C1B25219  26.785  35.790   8.810
 1841POPC   C2B25220  26.916  35.822   8.392
 1841POPC   C3B25221  26.795  35.651   8.028
 1841POPC   C4B25222  26.610  35.630   7.647
 1842POPC   NC325223  18.714  22.603   9.497
 1842POPC   PO425224  18.279  23.019   9.782
 1842POPC   GL125225  18.327  22.921   9.305
 1842POPC   GL225226  18.466  23.203   9.137
 1842POPC   C1A25227  18.252  22.909   8.812
 1842POPC   D2A25228  18.047  23.117   8.447
 1842POPC   C3A25229  18.136  22.890   8.074
 1842POPC   C4A25230  18.309  22.790   7.654
 1842POPC   C1B25231  18.693  23.245   8.774
 1842POPC   C2B25232  18.589  23.093   8.378
 1842POPC   C3B25233  18.541  23.223   7.973
 1842POPC   C4B25234  18.823  23.456   7.746
 1843POPC   NC325235  20.995  24.736   9.465
 1843POPC   PO425236  20.428  24.330   9.438
 1843POPC   GL125237  20.613  24.547   9.109
 1843POPC   GL225238  20.945  24.418   9.080
 1843POPC   C1A25239  20.422  24.617   8.698
 1843POPC   D2A25240  20.189  24.760   8.338
 1843POPC   C3A25241  20.349  24.604   7.957
 1843POPC   C4A25242  20.256  24.697   7.564
 1843POPC   C1B25243  20.930  24.600   8.690
 1843POPC   C2B25244  20.751  24.729   8.283
 1843POPC   C3B25245  20.861  24.670   7.861
 1843POPC   C4B25246  21.008  24.311   7.590
 1844POPC   NC325247  19.737  20.498   9.494
 1844POPC   PO425248  20.309  20.888   9.619
 1844POPC   GL125249  20.111  20.687   9.193
 1844POPC   GL225250  19.756  20.740   9.073
 1844POPC   C1A25251  20.067  20.655   8.716
 1844POPC   D2A25252  19.812  20.752   8.365
 1844POPC   C3A25253  20.146  20.673   8.101
 1844POPC   C4A25254  20.409  20.815   7.763
 1844POPC   C1B25255  19.567  20.448   8.761
 1844POPC   C2B25256  19.305  20.387   8.391
 1844POPC   C3B25257  19.401  20.485   7.963
 1844POPC   C4B25258  19.789  20.617   7.733
 1845POPC   NC325259  37.937  41.407   9.320
 1845POPC   PO425260  37.443  41.629   9.677
 1845POPC   GL125261  37.424  41.715   9.191
 1845POPC   GL225262  37.723  41.827   9.044
 1845POPC   C1A25263  37.451  41.448   8.780
 1845POPC   D2A25264  37.289  41.155   8.432
 1845POPC   C3A25265  37.445  41.236   8.000
 1845POPC   C4A25266  37.840  41.309   7.762
 1845POPC   C1B25267  37.876  41.665   8.618
 1845POPC   C2B25268  37.852  41.604   8.183
 1845POPC   C3B25269  37.967  41.860   7.820
 1845POPC   C4B25270  37.908  41.718   7.406
 1846POPC   NC325271  22.889  32.799   9.480
 1846POPC   PO425272  23.146  32.125   9.358
 1846POPC   GL125273  22.780  32.265   9.109
 1846POPC   GL225274  22.696  32.635   9.047
 1846POPC   C1A25275  22.964  32.317   8.719
 1846POPC   D2A25276  23.094  32.581   8.411
 1846POPC   C3A25277  23.079  32.326   8.036
 1846POPC   C4A25278  23.191  32.293   7.647
 1846POPC   C1B25279  22.522  32.539   8.664
 1846POPC   C2B25280  22.613  32.339   8.281
 1846POPC   C3B25281  22.610  32.528   7.874
 1846POPC   C4B25282  22.561  32.945   7.774
 1847POPC   NC325283   3.401  30.999   9.575
 1847POPC   PO425284   3.891  30.589   9.360
 1847POPC   GL125285   3.627  30.849   9.102
 1847POPC   GL225286   3.219  30.893   9.121
 1847POPC   C1A25287   3.777  30.825   8.685
 1847POPC   D2A25288   3.588  30.952   8.318
 1847POPC   C3A25289   3.653  30.760   7.976
 1847POPC   C4A25290   3.572  30.853   7.579
 1847POPC   C1B25291   3.253  30.823   8.706
 1847POPC   C2B25292   3.087  30.914   8.326
 1847POPC   C3B25293   3.155  30.724   7.937
 1847POPC   C4B25294   3.107  30.288   7.820
 1848POPC   NC325295  44.091  28.792   9.736
 1848POPC   PO425296  43.778  28.200   9.592
 1848POPC   GL125297  43.900  28.016   9.180
 1848POPC   GL225298  43.825  28.345   9.077
 1848POPC   C1A25299  43.873  28.003   8.707
 1848POPC   D2A25300  43.593  28.117   8.370
 1848POPC   C3A25301  43.830  28.287   8.022
 1848POPC   C4A25302  44.113  28.101   7.724
 1848POPC   C1B25303  43.746  28.510   8.677
 1848POPC   C2B25304  44.059  28.727   8.456
 1848POPC   C3B25305  44.107  28.751   8.041
 1848POPC   C4B25306  44.066  28.595   7.668
 1849POPC   NC325307   5.113  35.791   9.508
 1849POPC   PO425308   4.741  35.227   9.451
 1849POPC   GL125309   5.132  35.342   9.192
 1849POPC   GL225310   5.416  35.071   9.180
 1849POPC   C1A25311   5.155  35.575   8.777
 1849POPC   D2A25312   4.807  35.601   8.442
 1849POPC   C3A25313   4.908  35.489   8.007
 1849POPC   C4A25314   5.281  35.575   7.775
 1849POPC   C1B25315   5.184  35.052   8.777
 1849POPC   C2B25316   5.253  35.256   8.362
 1849POPC   C3B25317   5.273  35.103   7.947
 1849POPC   C4B25318   4.972  35.107   7.632
 1850POPC   NC325319   4.062  18.594   9.546
 1850POPC   PO425320   4.693  18.260   9.518
 1850POPC   GL125321   4.430  18.364   9.162
 1850POPC   GL225322   4.078  18.259   9.146
 1850POPC   C1A25323   4.311  18.356   8.713
 1850POPC   D2A25324   4.466  18.181   8.348
 1850POPC   C3A25325   4.561  18.461   8.002
 1850POPC   C4A25326   4.375  18.414   7.616
 1850POPC   C1B25327   3.799  18.440   8.811
 1850POPC   C2B25328   3.825  18.343   8.378
 1850POPC   C3B25329   4.067  18.282   8.012
 1850POPC   C4B25330   3.956  18.036   7.661
 1851POPC   NC325331  42.162  42.631   9.573
 1851POPC   PO425332  42.302  41.980   9.483
 1851POPC   GL125333  42.178  42.165   9.109
 1851POPC   GL225334  42.362  42.445   9.127
 1851POPC   C1A25335  42.434  42.126   8.715
 1851POPC   D2A25336  42.632  41.983   8.306
 1851POPC   C3A25337  42.404  42.130   7.921
 1851POPC   C4A25338  42.587  42.271   7.503
 1851POPC   C1B25339  42.501  42.639   8.774
 1851POPC   C2B25340  42.411  42.483   8.360
 1851POPC   C3B25341  42.466  42.624   7.981
 1851POPC   C4B25342  42.217  42.910   7.857
 1852POPC   NC325343  21.928  39.996   9.464
 1852POPC   PO425344  22.427  39.618   9.259
 1852POPC   GL125345  22.246  39.946   9.074
 1852POPC   GL225346  22.087  40.299   9.100
 1852POPC   C1A25347  21.956  39.919   8.796
 1852POPC   D2A25348  22.007  40.112   8.458
 1852POPC   C3A25349  22.000  39.811   8.125
 1852POPC   C4A25350  21.994  39.918   7.711
 1852POPC   C1B25351  22.426  40.331   8.804
 1852POPC   C2B25352  22.510  40.172   8.417
 1852POPC   C3B25353  22.311  40.240   8.025
 1852POPC   C4B25354  22.487  40.102   7.652
 1853POPC   NC325355  11.260   7.608   9.597
 1853POPC   PO425356  11.593   7.190   9.231
 1853POPC   GL125357  11.376   7.493   9.112
 1853POPC   GL225358  11.558   7.764   9.184
 1853POPC   C1A25359  11.195   7.715   8.804
 1853POPC   D2A25360  11.057   7.802   8.389
 1853POPC   C3A25361  11.044   7.462   8.106
 1853POPC   C4A25362  11.186   7.555   7.714
 1853POPC   C1B25363  11.698   7.702   8.728
 1853POPC   C2B25364  11.511   7.537   8.335
 1853POPC   C3B25365  11.604   7.345   7.920
 1853POPC   C4B25366  11.620   7.455   7.493
 1854POPC   NC325367  43.694   1.897   9.478
 1854POPC   PO425368  44.275   2.255   9.656
 1854POPC   GL125369  44.122   2.048   9.247
 1854POPC   GL225370  44.097   1.748   9.101
 1854POPC   C1A25371  44.098   2.137   8.788
 1854POPC   D2A25372  43.870   2.214   8.425
 1854POPC   C3A25373  43.951   2.005   8.036
 1854POPC   C4A25374  43.653   2.121   7.717
 1854POPC   C1B25375  43.799   1.743   8.725
 1854POPC   C2B25376  43.587   1.787   8.334
 1854POPC   C3B25377  43.615   1.627   7.925
 1854POPC   C4B25378  43.490   1.717   7.473
 1855POPC   NC325379   2.576  11.533   9.443
 1855POPC   PO425380   3.008  11.013   9.523
 1855POPC   GL125381   2.863  11.198   9.132
 1855POPC   GL225382   2.522  11.210   9.035
 1855POPC   C1A25383   2.925  11.415   8.724
 1855POPC   D2A25384   2.954  11.240   8.316
 1855POPC   C3A25385   3.023  11.461   7.933
 1855POPC   C4A25386   2.897  11.466   7.495
 1855POPC   C1B25387   2.565  11.026   8.645
 1855POPC   C2B25388   2.530  10.964   8.204
 1855POPC   C3B25389   2.582  11.200   7.818
 1855POPC   C4B25390   2.380  11.468   7.491
 1856POPC   NC325391   3.474  11.192   9.673
 1856POPC   PO425392   3.678  11.781   9.650
 1856POPC   GL125393   3.496  11.497   9.259
 1856POPC   GL225394   3.175  11.618   9.149
 1856POPC   C1A25395   3.625  11.191   8.860
 1856POPC   D2A25396   3.835  11.029   8.428
 1856POPC   C3A25397   3.633  11.087   8.019
 1856POPC   C4A25398   3.782  11.315   7.660
 1856POPC   C1B25399   3.399  11.645   8.772
 1856POPC   C2B25400   3.474  11.439   8.400
 1856POPC   C3B25401   3.523  11.576   8.013
 1856POPC   C4B25402   3.394  11.650   7.594
 1857POPC   NC325403  34.300  31.682   9.788
 1857POPC   PO425404  33.757  31.266   9.652
 1857POPC   GL125405  33.618  31.365   9.231
 1857POPC   GL225406  33.929  31.481   9.194
 1857POPC   C1A25407  33.713  31.267   8.782
 1857POPC   D2A25408  33.897  31.004   8.482
 1857POPC   C3A25409  33.889  31.205   8.101
 1857POPC   C4A25410  33.747  31.174   7.673
 1857POPC   C1B25411  33.996  31.703   8.826
 1857POPC   C2B25412  33.874  31.720   8.409
 1857POPC   C3B25413  34.018  31.696   8.012
 1857POPC   C4B25414  33.857  31.680   7.579
 1858POPC   NC325415   5.601   2.636   9.447
 1858POPC   PO425416   5.915   3.283   9.469
 1858POPC   GL125417   5.941   3.099   9.047
 1858POPC   GL225418   5.947   2.766   9.081
 1858POPC   C1A25419   5.862   2.968   8.598
 1858POPC   D2A25420   5.678   2.667   8.297
 1858POPC   C3A25421   5.711   2.867   7.909
 1858POPC   C4A25422   6.037   3.041   7.701
 1858POPC   C1B25423   6.087   2.531   8.768
 1858POPC   C2B25424   6.205   2.626   8.372
 1858POPC   C3B25425   6.229   2.489   7.981
 1858POPC   C4B25426   5.908   2.437   7.734
 1859POPC   NC325427  37.433  15.941   9.677
 1859POPC   PO425428  38.049  16.080   9.475
 1859POPC   GL125429  37.806  15.900   9.118
 1859POPC   GL225430  37.434  15.872   9.135
 1859POPC   C1A25431  37.695  15.988   8.673
 1859POPC   D2A25432  37.912  16.063   8.273
 1859POPC   C3A25433  37.755  15.902   7.890
 1859POPC   C4A25434  37.571  15.894   7.489
 1859POPC   C1B25435  37.309  15.682   8.705
 1859POPC   C2B25436  37.375  15.839   8.277
 1859POPC   C3B25437  37.328  15.623   7.876
 1859POPC   C4B25438  37.261  15.490   7.451
 1860POPC   NC325439  37.100  15.541   9.407
 1860POPC   PO425440  36.767  14.971   9.509
 1860POPC   GL125441  37.027  15.079   9.172
 1860POPC   GL225442  36.774  15.298   9.094
 1860POPC   C1A25443  37.118  15.186   8.728
 1860POPC   D2A25444  36.783  15.212   8.454
 1860POPC   C3A25445  36.738  15.139   8.020
 1860POPC   C4A25446  37.145  15.094   7.794
 1860POPC   C1B25447  36.824  15.602   8.793
 1860POPC   C2B25448  36.868  15.855   8.480
 1860POPC   C3B25449  36.914  15.604   8.142
 1860POPC   C4B25450  36.845  15.533   7.714
 1861POPC   NC325451  44.979  31.633   9.696
 1861POPC   PO425452   0.630  31.461   9.510
 1861POPC   GL125453   0.645  31.361   9.103
 1861POPC   GL225454   0.305  31.322   8.981
 1861POPC   C1A25455   0.761  31.354   8.702
 1861POPC   D2A25456   0.413  31.488   8.458
 1861POPC   C3A25457   0.426  31.521   8.029
 1861POPC   C4A25458   0.446  31.473   7.583
 1861POPC   C1B25459  44.975  31.307   8.645
 1861POPC   C2B25460   0.096  31.174   8.236
 1861POPC   C3B25461   0.088  31.180   7.804
 1861POPC   C4B25462  44.971  31.333   7.394
 1862POPC   NC325463  26.285  43.042   9.514
 1862POPC   PO425464  25.717  42.902   9.622
 1862POPC   GL125465  25.846  43.181   9.250
 1862POPC   GL225466  26.201  43.227   9.056
 1862POPC   C1A25467  25.791  43.062   8.827
 1862POPC   D2A25468  26.114  43.120   8.531
 1862POPC   C3A25469  25.934  42.985   8.187
 1862POPC   C4A25470  25.800  43.144   7.832
 1862POPC   C1B25471  26.381  43.537   8.757
 1862POPC   C2B25472  26.244  43.589   8.322
 1862POPC   C3B25473  26.301  43.279   7.971
 1862POPC   C4B25474  26.209  43.236   7.492
 1863POPC   NC325475  34.150   7.134   9.386
 1863POPC   PO425476  34.697   7.535   9.288
 1863POPC   GL125477  34.533   7.386   8.963
 1863POPC   GL225478  34.653   7.060   9.064
 1863POPC   C1A25479  34.355   7.660   8.652
 1863POPC   D2A25480  34.506   7.780   8.238
 1863POPC   C3A25481  34.565   7.421   7.895
 1863POPC   C4A25482  34.610   7.396   7.398
 1863POPC   C1B25483  34.923   7.128   8.695
 1863POPC   C2B25484  34.911   7.151   8.235
 1863POPC   C3B25485  35.042   6.886   7.911
 1863POPC   C4B25486  34.857   6.996   7.585
 1864POPC   NC325487  27.867  40.091   9.752
 1864POPC   PO425488  28.412  39.789   9.487
 1864POPC   GL125489  28.272  39.929   9.104
 1864POPC   GL225490  28.247  40.268   9.183
 1864POPC   C1A25491  28.395  40.124   8.717
 1864POPC   D2A25492  28.713  40.130   8.403
 1864POPC   C3A25493  28.454  39.922   8.131
 1864POPC   C4A25494  28.433  39.817   7.743
 1864POPC   C1B25495  27.948  40.405   8.840
 1864POPC   C2B25496  27.834  40.288   8.414
 1864POPC   C3B25497  28.128  40.342   8.065
 1864POPC   C4B25498  28.256  40.276   7.635
 1865POPC   NC325499  25.564  11.083   9.366
 1865POPC   PO425500  24.891  11.327   9.442
 1865POPC   GL125501  25.120  11.176   9.147
 1865POPC   GL225502  24.930  10.858   9.143
 1865POPC   C1A25503  25.316  11.367   8.783
 1865POPC   D2A25504  25.597  11.414   8.443
 1865POPC   C3A25505  25.389  11.255   8.084
 1865POPC   C4A25506  25.173  11.440   7.740
 1865POPC   C1B25507  24.813  11.120   8.772
 1865POPC   C2B25508  24.986  11.211   8.391
 1865POPC   C3B25509  24.898  11.076   7.962
 1865POPC   C4B25510  25.023  10.984   7.542
 1866POPC   NC325511  13.231   1.628   9.555
 1866POPC   PO425512  12.836   1.023   9.415
 1866POPC   GL125513  12.890   1.171   9.021
 1866POPC   GL225514  13.182   1.362   9.138
 1866POPC   C1A25515  12.691   1.245   8.606
 1866POPC   D2A25516  12.399   1.019   8.284
 1866POPC   C3A25517  12.556   1.055   7.821
 1866POPC   C4A25518  12.791   1.289   7.462
 1866POPC   C1B25519  13.124   1.549   8.785
 1866POPC   C2B25520  13.153   1.342   8.425
 1866POPC   C3B25521  12.861   1.392   8.107
 1866POPC   C4B25522  13.020   1.640   7.759
 1867POPC   NC325523  35.926  35.763   9.326
 1867POPC   PO425524  36.168  35.253   9.716
 1867POPC   GL125525  36.136  35.328   9.209
 1867POPC   GL225526  36.409  35.347   9.009
 1867POPC   C1A25527  35.982  35.197   8.751
 1867POPC   D2A25528  35.887  35.397   8.324
 1867POPC   C3A25529  35.906  35.275   7.865
 1867POPC   C4A25530  35.981  35.444   7.413
 1867POPC   C1B25531  36.378  35.464   8.597
 1867POPC   C2B25532  36.354  35.254   8.211
 1867POPC   C3B25533  36.364  35.481   7.849
 1867POPC   C4B25534  36.438  35.249   7.507
 1868POPC   NC325535   1.687  38.770   9.630
 1868POPC   PO425536   2.078  38.170   9.435
 1868POPC   GL125537   2.049  38.461   9.079
 1868POPC   GL225538   2.060  38.802   9.141
 1868POPC   C1A25539   2.081  38.385   8.664
 1868POPC   D2A25540   2.133  38.216   8.237
 1868POPC   C3A25541   1.830  38.247   7.976
 1868POPC   C4A25542   1.667  38.370   7.605
 1868POPC   C1B25543   1.925  38.873   8.715
 1868POPC   C2B25544   1.884  38.679   8.295
 1868POPC   C3B25545   1.856  38.765   7.862
 1868POPC   C4B25546   2.124  38.584   7.508
 1869POPC   NC325547  11.040  10.131   9.327
 1869POPC   PO425548  11.029   9.557   9.525
 1869POPC   GL125549  11.180   9.501   9.138
 1869POPC   GL225550  11.565   9.482   9.198
 1869POPC   C1A25551  10.968   9.651   8.778
 1869POPC   D2A25552  11.135   9.849   8.428
 1869POPC   C3A25553  11.200   9.728   8.038
 1869POPC   C4A25554  11.444  10.018   7.804
 1869POPC   C1B25555  11.492   9.745   8.824
 1869POPC   C2B25556  11.571   9.579   8.432
 1869POPC   C3B25557  11.713   9.626   8.041
 1869POPC   C4B25558  11.536   9.524   7.688
 1870POPC   NC325559  18.385   3.653   9.436
 1870POPC   PO425560  17.924   3.053   9.528
 1870POPC   GL125561  18.183   3.224   9.119
 1870POPC   GL225562  18.097   3.554   9.043
 1870POPC   C1A25563  18.420   3.464   8.703
 1870POPC   D2A25564  18.445   3.696   8.377
 1870POPC   C3A25565  18.502   3.538   8.004
 1870POPC   C4A25566  18.415   3.843   7.717
 1870POPC   C1B25567  17.953   3.622   8.661
 1870POPC   C2B25568  17.974   3.896   8.360
 1870POPC   C3B25569  17.975   3.788   7.966
 1870POPC   C4B25570  18.068   3.402   7.794
 1871POPC   NC325571  29.787  35.034   9.381
 1871POPC   PO425572  30.227  35.482   9.453
 1871POPC   GL125573  30.073  35.354   9.085
 1871POPC   GL225574  29.704  35.397   9.033
 1871POPC   C1A25575  30.041  35.212   8.695
 1871POPC   D2A25576  30.175  35.439   8.353
 1871POPC   C3A25577  29.930  35.430   8.018
 1871POPC   C4A25578  29.684  35.727   7.841
 1871POPC   C1B25579  29.667  35.520   8.591
 1871POPC   C2B25580  29.501  35.272   8.241
 1871POPC   C3B25581  29.464  35.271   7.785
 1871POPC   C4B25582  29.506  35.162   7.351
 1872POPC   NC325583  41.942  43.600   9.467
 1872POPC   PO425584  41.294  43.640   9.655
 1872POPC   GL125585  41.506  43.795   9.250
 1872POPC   GL225586  41.692  44.104   9.281
 1872POPC   C1A25587  41.597  43.909   8.813
 1872POPC   D2A25588  41.671  43.698   8.441
 1872POPC   C3A25589  41.603  43.909   8.077
 1872POPC   C4A25590  41.608  43.716   7.698
 1872POPC   C1B25591  41.880  44.342   8.922
 1872POPC   C2B25592  41.853  44.264   8.475
 1872POPC   C3B25593  41.962  44.280   8.038
 1872POPC   C4B25594  41.786  44.205   7.644
 1873POPC   NC325595  33.025  34.646   9.506
 1873POPC   PO425596  33.511  34.950   9.117
 1873POPC   GL125597  33.083  34.786   9.017
 1873POPC   GL225598  32.954  34.429   9.068
 1873POPC   C1A25599  32.961  34.696   8.606
 1873POPC   D2A25600  33.179  34.931   8.256
 1873POPC   C3A25601  33.163  34.775   7.823
 1873POPC   C4A25602  32.762  34.882   7.675
 1873POPC   C1B25603  32.814  34.181   8.742
 1873POPC   C2B25604  32.745  34.277   8.311
 1873POPC   C3B25605  32.761  34.443   7.914
 1873POPC   C4B25606  32.741  34.409   7.428
 1874POPC   NC325607  22.649  24.196   9.335
 1874POPC   PO425608  23.077  23.590   9.482
 1874POPC   GL125609  23.032  23.848   9.148
 1874POPC   GL225610  22.679  23.708   9.146
 1874POPC   C1A25611  23.276  23.951   8.759
 1874POPC   D2A25612  23.193  23.755   8.352
 1874POPC   C3A25613  23.315  23.821   7.892
 1874POPC   C4A25614  23.220  23.745   7.447
 1874POPC   C1B25615  22.765  23.815   8.720
 1874POPC   C2B25616  22.587  23.745   8.359
 1874POPC   C3B25617  22.476  23.756   7.966
 1874POPC   C4B25618  22.728  23.785   7.603
 1875POPC   NC325619   8.992  25.693   9.827
 1875POPC   PO425620   9.246  26.173   9.490
 1875POPC   GL125621   8.952  26.034   9.206
 1875POPC   GL225622   9.002  26.206   9.009
 1875POPC   C1A25623   8.858  25.813   8.768
 1875POPC   D2A25624   8.693  26.049   8.446
 1875POPC   C3A25625   8.682  25.959   8.048
 1875POPC   C4A25626   8.990  25.805   7.833
 1875POPC   C1B25627   9.127  26.431   8.674
 1875POPC   C2B25628   9.173  26.321   8.247
 1875POPC   C3B25629   9.228  26.325   7.809
 1875POPC   C4B25630   9.370  25.988   7.530
 1876POPC   NC325631   8.912  27.311   9.413
 1876POPC   PO425632   9.280  27.940   9.480
 1876POPC   GL125633   9.016  27.760   9.153
 1876POPC   GL225634   8.670  27.892   9.266
 1876POPC   C1A25635   9.145  27.519   8.763
 1876POPC   D2A25636   9.081  27.637   8.330
 1876POPC   C3A25637   9.110  27.369   7.980
 1876POPC   C4A25638   9.010  27.562   7.579
 1876POPC   C1B25639   8.649  28.021   8.834
 1876POPC   C2B25640   8.589  27.758   8.460
 1876POPC   C3B25641   8.653  27.624   8.035
 1876POPC   C4B25642   8.504  27.839   7.660
 1877POPC   NC325643   5.403   3.383   9.478
 1877POPC   PO425644   4.927   3.805   9.660
 1877POPC   GL125645   4.966   3.592   9.270
 1877POPC   GL225646   5.218   3.812   9.185
 1877POPC   C1A25647   5.159   3.424   8.855
 1877POPC   D2A25648   5.326   3.529   8.430
 1877POPC   C3A25649   5.018   3.436   8.115
 1877POPC   C4A25650   4.667   3.507   7.867
 1877POPC   C1B25651   5.370   3.929   8.799
 1877POPC   C2B25652   5.225   4.031   8.381
 1877POPC   C3B25653   5.333   3.824   8.014
 1877POPC   C4B25654   5.092   3.741   7.702
 1878POPC   NC325655  11.476  44.360   9.468
 1878POPC   PO425656  11.343  44.961   9.389
 1878POPC   GL125657  11.216  44.640   9.084
 1878POPC   GL225658  11.100  44.276   9.150
 1878POPC   C1A25659  11.359  44.664   8.648
 1878POPC   D2A25660  11.555  44.564   8.260
 1878POPC   C3A25661  11.315  44.798   7.937
 1878POPC   C4A25662  11.121  44.654   7.585
 1878POPC   C1B25663  11.376  44.170   8.799
 1878POPC   C2B25664  11.223  44.142   8.352
 1878POPC   C3B25665  11.255  44.278   7.923
 1878POPC   C4B25666  11.158  44.149   7.500
 1879POPC   NC325667  33.858  37.483   9.632
 1879POPC   PO425668  33.438  37.883   9.327
 1879POPC   GL125669  33.620  37.510   9.147
 1879POPC   GL225670  33.981  37.555   9.123
 1879POPC   C1A25671  33.699  37.451   8.701
 1879POPC   D2A25672  33.659  37.773   8.355
 1879POPC   C3A25673  33.694  37.540   7.974
 1879POPC   C4A25674  33.622  37.455   7.552
 1879POPC   C1B25675  33.952  37.885   8.770
 1879POPC   C2B25676  34.155  38.049   8.429
 1879POPC   C3B25677  34.057  37.920   8.039
 1879POPC   C4B25678  33.887  37.927   7.646
 1880POPC   NC325679  42.514   2.456   9.249
 1880POPC   PO425680  43.002   2.016   9.499
 1880POPC   GL125681  43.301   2.057   9.143
 1880POPC   GL225682  43.039   2.299   9.006
 1880POPC   C1A25683  43.397   2.071   8.724
 1880POPC   D2A25684  43.102   2.001   8.399
 1880POPC   C3A25685  43.243   2.005   8.001
 1880POPC   C4A25686  43.071   1.992   7.619
 1880POPC   C1B25687  42.925   2.430   8.588
 1880POPC   C2B25688  42.949   2.423   8.134
 1880POPC   C3B25689  42.762   2.394   7.747
 1880POPC   C4B25690  42.917   2.389   7.297
 1881POPC   NC325691  12.317   2.029   9.498
 1881POPC   PO425692  12.026   1.480   9.374
 1881POPC   GL125693  11.972   1.893   9.139
 1881POPC   GL225694  12.024   2.282   9.151
 1881POPC   C1A25695  12.052   1.873   8.730
 1881POPC   D2A25696  11.844   1.681   8.417
 1881POPC   C3A25697  11.975   1.821   8.048
 1881POPC   C4A25698  11.909   2.047   7.699
 1881POPC   C1B25699  11.795   2.308   8.763
 1881POPC   C2B25700  11.914   2.224   8.354
 1881POPC   C3B25701  12.049   2.437   8.004
 1881POPC   C4B25702  11.824   2.556   7.643
 1882POPC   NC325703  33.118  12.431   9.941
 1882POPC   PO425704  33.640  12.279   9.583
 1882POPC   GL125705  33.670  12.038   9.191
 1882POPC   GL225706  34.020  11.977   9.178
 1882POPC   C1A25707  33.720  12.154   8.761
 1882POPC   D2A25708  33.481  12.330   8.432
 1882POPC   C3A25709  33.661  12.147   8.121
 1882POPC   C4A25710  33.530  12.086   7.708
 1882POPC   C1B25711  34.086  11.770   8.799
 1882POPC   C2B25712  34.065  11.944   8.396
 1882POPC   C3B25713  34.037  11.774   7.997
 1882POPC   C4B25714  34.030  11.840   7.546
 1883POPC   NC325715   6.968   5.334   9.389
 1883POPC   PO425716   6.423   5.037   9.615
 1883POPC   GL125717   6.502   5.147   9.193
 1883POPC   GL225718   6.760   4.894   9.133
 1883POPC   C1A25719   6.674   5.278   8.775
 1883POPC   D2A25720   6.515   5.298   8.346
 1883POPC   C3A25721   6.695   5.235   7.922
 1883POPC   C4A25722   6.445   5.264   7.522
 1883POPC   C1B25723   6.701   4.769   8.700
 1883POPC   C2B25724   6.683   4.811   8.245
 1883POPC   C3B25725   6.729   4.717   7.819
 1883POPC   C4B25726   6.725   4.623   7.360
 1884POPC   NC325727  27.402  44.552   9.461
 1884POPC   PO425728  27.920  44.973   9.604
 1884POPC   GL125729  27.735  44.799   9.189
 1884POPC   GL225730  27.469  44.980   9.062
 1884POPC   C1A25731  27.576  44.556   8.800
 1884POPC   D2A25732  27.634  44.555   8.364
 1884POPC   C3A25733  27.382  44.519   7.978
 1884POPC   C4A25734  27.512  44.642   7.518
 1884POPC   C1B25735  27.637   0.046   8.669
 1884POPC   C2B25736  27.727   0.043   8.242
 1884POPC   C3B25737  27.519   0.019   7.893
 1884POPC   C4B25738  27.148  44.896   7.753
 1885POPC   NC325739   1.718  14.387   9.379
 1885POPC   PO425740   2.295  14.202   9.275
 1885POPC   GL125741   2.016  14.354   8.946
 1885POPC   GL225742   1.631  14.526   8.913
 1885POPC   C1A25743   2.284  14.437   8.576
 1885POPC   D2A25744   2.360  14.518   8.139
 1885POPC   C3A25745   2.050  14.321   7.961
 1885POPC   C4A25746   1.932  13.900   7.912
 1885POPC   C1B25747   1.754  14.432   8.514
 1885POPC   C2B25748   1.584  14.239   8.177
 1885POPC   C3B25749   1.573  14.319   7.761
 1885POPC   C4B25750   1.752  14.599   7.496
 1886POPC   NC325751   3.329  28.120   9.434
 1886POPC   PO425752   3.648  28.745   9.584
 1886POPC   GL125753   3.626  28.486   9.214
 1886POPC   GL225754   3.271  28.530   9.121
 1886POPC   C1A25755   3.806  28.484   8.811
 1886POPC   D2A25756   3.682  28.613   8.413
 1886POPC   C3A25757   3.831  28.458   8.053
 1886POPC   C4A25758   3.826  28.516   7.612
 1886POPC   C1B25759   3.320  28.326   8.704
 1886POPC   C2B25760   3.313  28.274   8.259
 1886POPC   C3B25761   3.241  28.001   7.934
 1886POPC   C4B25762   3.397  28.273   7.676
 1887POPC   NC325763   7.897  41.465   9.462
 1887POPC   PO425764   7.271  41.228   9.452
 1887POPC   GL125765   7.457  41.492   9.161
 1887POPC   GL225766   7.382  41.226   8.935
 1887POPC   C1A25767   7.559  41.664   8.774
 1887POPC   D2A25768   7.512  41.375   8.427
 1887POPC   C3A25769   7.673  41.501   8.040
 1887POPC   C4A25770   7.546  41.479   7.636
 1887POPC   C1B25771   7.038  41.346   8.654
 1887POPC   C2B25772   6.943  41.120   8.266
 1887POPC   C3B25773   7.205  41.184   7.911
 1887POPC   C4B25774   7.079  41.351   7.514
 1888POPC   NC325775  27.966  34.618   9.276
 1888POPC   PO425776  28.555  34.530   9.575
 1888POPC   GL125777  28.420  34.508   9.118
 1888POPC   GL225778  28.284  34.180   9.019
 1888POPC   C1A25779  28.346  34.808   8.739
 1888POPC   D2A25780  28.520  34.979   8.328
 1888POPC   C3A25781  28.362  34.798   7.929
 1888POPC   C4A25782  28.568  34.805   7.510
 1888POPC   C1B25783  28.157  34.348   8.657
 1888POPC   C2B25784  28.432  34.461   8.346
 1888POPC   C3B25785  28.574  34.260   7.998
 1888POPC   C4B25786  28.369  34.361   7.632
 1889POPC   NC325787  10.563  24.678   9.486
 1889POPC   PO425788  10.714  23.971   9.430
 1889POPC   GL125789  10.733  24.306   9.135
 1889POPC   GL225790  10.383  24.388   9.102
 1889POPC   C1A25791  10.647  24.344   8.677
 1889POPC   D2A25792  10.625  24.651   8.329
 1889POPC   C3A25793  10.717  24.603   7.859
 1889POPC   C4A25794  10.866  24.255   7.619
 1889POPC   C1B25795  10.170  24.555   8.738
 1889POPC   C2B25796  10.126  24.647   8.286
 1889POPC   C3B25797  10.189  24.532   7.866
 1889POPC   C4B25798  10.055  24.736   7.446
 1890POPC   NC325799   5.452   5.950   9.334
 1890POPC   PO425800   6.086   5.919   9.675
 1890POPC   GL125801   6.104   5.752   9.194
 1890POPC   GL225802   5.809   5.565   9.162
 1890POPC   C1A25803   5.898   5.792   8.710
 1890POPC   D2A25804   5.763   5.982   8.299
 1890POPC   C3A25805   6.009   5.989   7.924
 1890POPC   C4A25806   5.891   5.978   7.500
 1890POPC   C1B25807   6.162   5.383   8.850
 1890POPC   C2B25808   6.003   5.270   8.425
 1890POPC   C3B25809   5.857   5.475   8.042
 1890POPC   C4B25810   5.967   5.504   7.613
 1891POPC   NC325811   2.662  19.261   9.644
 1891POPC   PO425812   2.699  19.931   9.487
 1891POPC   GL125813   2.753  19.899   9.067
 1891POPC   GL225814   2.894  19.589   9.106
 1891POPC   C1A25815   2.620  20.048   8.650
 1891POPC   D2A25816   2.683  19.934   8.233
 1891POPC   C3A25817   2.597  20.220   7.855
 1891POPC   C4A25818   2.765  20.125   7.439
 1891POPC   C1B25819   2.694  19.531   8.721
 1891POPC   C2B25820   2.487  19.479   8.366
 1891POPC   C3B25821   2.410  19.465   7.957
 1891POPC   C4B25822   2.700  19.728   7.776
 1892POPC   NC325823  16.516   7.561   9.434
 1892POPC   PO425824  16.050   7.460   9.867
 1892POPC   GL125825  16.008   7.569   9.365
 1892POPC   GL225826  15.853   7.309   9.197
 1892POPC   C1A25827  15.952   7.637   8.841
 1892POPC   D2A25828  15.817   7.771   8.388
 1892POPC   C3A25829  15.973   7.551   8.003
 1892POPC   C4A25830  16.299   7.524   7.682
 1892POPC   C1B25831  15.692   7.188   8.818
 1892POPC   C2B25832  15.794   7.258   8.417
 1892POPC   C3B25833  15.809   7.058   8.032
 1892POPC   C4B25834  15.867   6.995   7.645
 1893POPC   NC325835  27.379   9.583   9.649
 1893POPC   PO425836  27.447   8.818   9.510
 1893POPC   GL125837  27.522   8.919   9.098
 1893POPC   GL225838  27.390   9.231   9.175
 1893POPC   C1A25839  27.655   8.935   8.676
 1893POPC   D2A25840  27.718   9.048   8.291
 1893POPC   C3A25841  27.787   8.817   7.972
 1893POPC   C4A25842  27.589   8.729   7.658
 1893POPC   C1B25843  27.124   9.062   8.824
 1893POPC   C2B25844  27.122   8.863   8.443
 1893POPC   C3B25845  27.278   8.943   8.025
 1893POPC   C4B25846  27.099   8.854   7.623
 1894POPC   NC325847  30.776   0.489   9.712
 1894POPC   PO425848  30.172   0.524   9.557
 1894POPC   GL125849  30.404   0.541   9.174
 1894POPC   GL225850  30.226   0.287   9.025
 1894POPC   C1A25851  30.601   0.459   8.734
 1894POPC   D2A25852  30.393   0.406   8.315
 1894POPC   C3A25853  30.733   0.358   8.007
 1894POPC   C4A25854  31.003   0.323   7.606
 1894POPC   C1B25855  30.162   0.693   8.733
 1894POPC   C2B25856  30.385   0.913   8.410
 1894POPC   C3B25857  30.350   0.820   7.990
 1894POPC   C4B25858  30.495   0.554   7.626
 1895POPC   NC325859  11.795  23.919   9.576
 1895POPC   PO425860  11.814  23.374   9.366
 1895POPC   GL125861  11.816  23.677   9.102
 1895POPC   GL225862  12.134  23.728   9.113
 1895POPC   C1A25863  11.901  23.851   8.700
 1895POPC   D2A25864  12.221  23.862   8.387
 1895POPC   C3A25865  12.033  23.840   7.966
 1895POPC   C4A25866  12.098  23.706   7.564
 1895POPC   C1B25867  12.380  23.566   8.788
 1895POPC   C2B25868  12.553  23.404   8.438
 1895POPC   C3B25869  12.336  23.450   8.094
 1895POPC   C4B25870  12.503  23.486   7.731
 1896POPC   NC325871  20.394   7.790   9.378
 1896POPC   PO425872  20.773   7.191   9.519
 1896POPC   GL125873  20.703   7.425   9.185
 1896POPC   GL225874  20.880   7.701   9.165
 1896POPC   C1A25875  20.626   7.435   8.764
 1896POPC   D2A25876  20.413   7.418   8.392
 1896POPC   C3A25877  20.527   7.725   8.082
 1896POPC   C4A25878  20.603   7.556   7.687
 1896POPC   C1B25879  21.058   7.672   8.732
 1896POPC   C2B25880  20.948   7.540   8.323
 1896POPC   C3B25881  21.016   7.764   7.924
 1896POPC   C4B25882  21.055   7.673   7.450
 1897POPC   NC325883   0.928  19.670   9.516
 1897POPC   PO425884   0.257  19.515   9.503
 1897POPC   GL125885   0.451  19.724   9.149
 1897POPC   GL225886   0.167  19.919   9.048
 1897POPC   C1A25887   0.536  19.950   8.735
 1897POPC   D2A25888   0.419  19.825   8.338
 1897POPC   C3A25889   0.739  19.846   8.094
 1897POPC   C4A25890   0.583  19.820   7.695
 1897POPC   C1B25891   0.260  19.523   8.745
 1897POPC   C2B25892   0.082  19.407   8.376
 1897POPC   C3B25893  44.998  19.617   8.026
 1897POPC   C4B25894   0.160  19.306   7.762
 1898POPC   NC325895   7.627  25.388   9.433
 1898POPC   PO425896   7.321  25.925   9.367
 1898POPC   GL125897   7.248  25.566   9.093
 1898POPC   GL225898   7.198  25.196   9.106
 1898POPC   C1A25899   7.393  25.473   8.678
 1898POPC   D2A25900   7.136  25.446   8.293
 1898POPC   C3A25901   7.371  25.621   7.942
 1898POPC   C4A25902   7.664  25.379   7.701
 1898POPC   C1B25903   7.536  24.995   8.820
 1898POPC   C2B25904   7.751  24.875   8.430
 1898POPC   C3B25905   7.590  24.957   8.003
 1898POPC   C4B25906   7.227  25.160   7.806
 1899POPC   NC325907  23.234   4.632   9.538
 1899POPC   PO425908  22.755   4.076   9.517
 1899POPC   GL125909  22.816   4.132   9.129
 1899POPC   GL225910  22.989   4.415   9.161
 1899POPC   C1A25911  22.726   4.334   8.740
 1899POPC   D2A25912  22.848   4.499   8.350
 1899POPC   C3A25913  22.754   4.283   7.979
 1899POPC   C4A25914  22.542   4.383   7.633
 1899POPC   C1B25915  23.158   4.609   8.804
 1899POPC   C2B25916  23.340   4.563   8.402
 1899POPC   C3B25917  23.256   4.323   8.056
 1899POPC   C4B25918  23.260   4.507   7.684
 1900POPC   NC325919  28.006   7.574   9.631
 1900POPC   PO425920  28.337   7.070   9.439
 1900POPC   GL125921  28.287   7.463   9.216
 1900POPC   GL225922  28.585   7.382   9.102
 1900POPC   C1A25923  28.066   7.729   8.891
 1900POPC   D2A25924  28.125   7.879   8.471
 1900POPC   C3A25925  28.103   7.523   8.256
 1900POPC   C4A25926  28.089   7.387   7.850
 1900POPC   C1B25927  28.354   7.318   8.733
 1900POPC   C2B25928  28.594   7.414   8.405
 1900POPC   C3B25929  28.576   7.294   8.027
 1900POPC   C4B25930  28.667   7.467   7.671
 1901POPC   NC325931  42.814  13.774   9.886
 1901POPC   PO425932  42.332  13.522   9.481
 1901POPC   GL125933  42.223  13.543   9.101
 1901POPC   GL225934  41.982  13.320   9.038
 1901POPC   C1A25935  42.262  13.835   8.794
 1901POPC   D2A25936  42.422  13.765   8.376
 1901POPC   C3A25937  42.122  13.764   8.072
 1901POPC   C4A25938  42.290  13.900   7.674
 1901POPC   C1B25939  42.171  13.346   8.612
 1901POPC   C2B25940  42.516  13.290   8.286
 1901POPC   C3B25941  42.483  13.434   7.918
 1901POPC   C4B25942  42.696  13.395   7.608
 1902POPC   NC325943  13.874   9.509   9.446
 1902POPC   PO425944  14.595   9.769   9.484
 1902POPC   GL125945  14.479   9.834   9.094
 1902POPC   GL225946  14.119   9.846   9.106
 1902POPC   C1A25947  14.390   9.534   8.795
 1902POPC   D2A25948  14.348   9.442   8.383
 1902POPC   C3A25949  14.360   9.790   8.114
 1902POPC   C4A25950  14.290   9.585   7.729
 1902POPC   C1B25951  14.198  10.032   8.692
 1902POPC   C2B25952  14.012  10.206   8.319
 1902POPC   C3B25953  13.921   9.986   7.908
 1902POPC   C4B25954  13.994   9.891   7.453
 1903POPC   NC325955  18.287   1.866   9.587
 1903POPC   PO425956  18.116   2.486   9.291
 1903POPC   GL125957  18.365   2.146   9.139
 1903POPC   GL225958  18.029   1.962   9.169
 1903POPC   C1A25959  18.591   2.111   8.732
 1903POPC   D2A25960  18.487   2.239   8.302
 1903POPC   C3A25961  18.453   1.970   7.950
 1903POPC   C4A25962  18.495   2.024   7.500
 1903POPC   C1B25963  18.030   2.084   8.745
 1903POPC   C2B25964  17.927   2.226   8.355
 1903POPC   C3B25965  17.960   2.143   7.919
 1903POPC   C4B25966  17.913   1.792   7.652
 1904POPC   NC325967   3.317  25.562   9.744
 1904POPC   PO425968   3.708  25.133   9.621
 1904POPC   GL125969   3.826  25.262   9.174
 1904POPC   GL225970   3.882  25.579   9.275
 1904POPC   C1A25971   3.774  25.221   8.711
 1904POPC   D2A25972   3.473  25.211   8.371
 1904POPC   C3A25973   3.611  25.123   7.957
 1904POPC   C4A25974   3.268  25.259   7.725
 1904POPC   C1B25975   3.623  25.720   8.959
 1904POPC   C2B25976   3.643  25.699   8.538
 1904POPC   C3B25977   3.833  25.537   8.193
 1904POPC   C4B25978   3.707  25.589   7.749
 1905POPC   NC325979  14.654  14.890   9.444
 1905POPC   PO425980  14.143  15.395   9.482
 1905POPC   GL125981  14.096  15.261   9.076
 1905POPC   GL225982  14.258  14.953   9.086
 1905POPC   C1A25983  14.262  15.287   8.663
 1905POPC   D2A25984  14.151  15.365   8.243
 1905POPC   C3A25985  14.478  15.491   7.942
 1905POPC   C4A25986  14.505  15.280   7.563
 1905POPC   C1B25987  14.038  14.765   8.753
 1905POPC   C2B25988  13.977  14.858   8.296
 1905POPC   C3B25989  14.187  14.956   7.871
 1905POPC   C4B25990  14.221  14.860   7.413
 1906POPC   NC325991   7.043  12.011   9.491
 1906POPC   PO425992   7.691  12.062   9.526
 1906POPC   GL125993   7.667  12.072   9.111
 1906POPC   GL225994   7.345  11.948   9.070
 1906POPC   C1A25995   7.570  12.320   8.783
 1906POPC   D2A25996   7.397  12.195   8.434
 1906POPC   C3A25997   7.580  12.341   8.075
 1906POPC   C4A25998   7.628  12.062   7.769
 1906POPC   C1B25999   7.136  11.802   8.674
 1906POPC   C2B26000   7.080  11.825   8.256
 1906POPC   C3B26001   7.176  11.806   7.872
 1906POPC   C4B26002   6.892  11.671   7.591
 1907POPC   NC326003  32.954  36.865   9.806
 1907POPC   PO426004  33.141  36.705   9.212
 1907POPC   GL126005  32.995  37.024   9.004
 1907POPC   GL226006  32.690  36.968   9.078
 1907POPC   C1A26007  33.037  37.051   8.599
 1907POPC   D2A26008  32.974  36.807   8.266
 1907POPC   C3A26009  32.898  37.113   7.988
 1907POPC   C4A26010  33.204  37.263   7.757
 1907POPC   C1B26011  32.664  36.712   8.671
 1907POPC   C2B26012  32.503  36.620   8.251
 1907POPC   C3B26013  32.748  36.646   7.833
 1907POPC   C4B26014  32.639  37.022   7.553
 1908POPC   NC326015  39.084  14.144   9.506
 1908POPC   PO426016  39.182  14.883   9.450
 1908POPC   GL126017  39.057  14.623   9.130
 1908POPC   GL226018  39.293  14.358   9.087
 1908POPC   C1A26019  38.991  14.552   8.694
 1908POPC   D2A26020  39.229  14.358   8.375
 1908POPC   C3A26021  39.093  14.445   7.946
 1908POPC   C4A26022  38.755  14.209   7.757
 1908POPC   C1B26023  39.498  14.633   8.799
 1908POPC   C2B26024  39.731  14.524   8.429
 1908POPC   C3B26025  39.608  14.436   8.040
 1908POPC   C4B26026  39.538  14.277   7.652
 1909POPC   NC326027  15.570  36.119   9.699
 1909POPC   PO426028  16.162  36.171   9.439
 1909POPC   GL126029  16.024  36.175   9.081
 1909POPC   GL226030  15.703  36.314   9.231
 1909POPC   C1A26031  16.029  35.976   8.690
 1909POPC   D2A26032  15.800  36.050   8.363
 1909POPC   C3A26033  15.989  36.059   7.984
 1909POPC   C4A26034  15.788  36.096   7.595
 1909POPC   C1B26035  15.672  36.373   8.797
 1909POPC   C2B26036  15.607  36.509   8.409
 1909POPC   C3B26037  15.576  36.386   7.986
 1909POPC   C4B26038  15.905  36.573   7.741
 1910POPC   NC326039  26.120  18.057   9.534
 1910POPC   PO426040  25.708  18.535   9.472
 1910POPC   GL126041  25.784  18.454   9.072
 1910POPC   GL226042  26.109  18.358   9.100
 1910POPC   C1A26043  25.984  18.675   8.685
 1910POPC   D2A26044  26.213  18.655   8.298
 1910POPC   C3A26045  25.952  18.337   8.095
 1910POPC   C4A26046  25.817  18.248   7.696
 1910POPC   C1B26047  25.935  18.162   8.682
 1910POPC   C2B26048  25.965  17.872   8.334
 1910POPC   C3B26049  26.072  17.838   7.929
 1910POPC   C4B26050  26.341  18.117   7.820
 1911POPC   NC326051  22.412   5.199   9.487
 1911POPC   PO426052  22.018   4.622   9.487
 1911POPC   GL126053  22.008   4.965   9.147
 1911POPC   GL226054  22.258   5.234   9.026
 1911POPC   C1A26055  21.937   5.095   8.702
 1911POPC   D2A26056  22.106   4.899   8.372
 1911POPC   C3A26057  22.038   5.156   8.062
 1911POPC   C4A26058  21.842   5.070   7.696
 1911POPC   C1B26059  22.443   5.296   8.592
 1911POPC   C2B26060  22.474   5.402   8.147
 1911POPC   C3B26061  22.572   5.177   7.748
 1911POPC   C4B26062  22.496   5.324   7.307
 1912POPC   NC326063  22.293  19.975   9.540
 1912POPC   PO426064  21.902  19.468   9.724
 1912POPC   GL126065  22.058  19.653   9.259
 1912POPC   GL226066  21.872  19.983   9.203
 1912POPC   C1A26067  22.037  19.622   8.798
 1912POPC   D2A26068  22.262  19.780   8.455
 1912POPC   C3A26069  22.006  19.794   8.097
 1912POPC   C4A26070  22.058  19.578   7.717
 1912POPC   C1B26071  22.133  20.153   8.857
 1912POPC   C2B26072  22.070  20.263   8.409
 1912POPC   C3B26073  22.305  20.193   8.042
 1912POPC   C4B26074  22.120  20.080   7.647
 1913POPC   NC326075   9.734  29.793   9.387
 1913POPC   PO426076  10.336  29.978   9.482
 1913POPC   GL126077  10.175  29.812   9.122
 1913POPC   GL226078   9.985  30.113   9.054
 1913POPC   C1A26079   9.965  29.752   8.718
 1913POPC   D2A26080  10.125  29.842   8.324
 1913POPC   C3A26081   9.828  29.865   8.062
 1913POPC   C4A26082   9.721  29.720   7.704
 1913POPC   C1B26083   9.588  30.182   8.839
 1913POPC   C2B26084   9.607  30.173   8.398
 1913POPC   C3B26085   9.428  30.150   7.976
 1913POPC   C4B26086   9.578  30.182   7.545
 1914POPC   NC326087  12.015  39.495   9.593
 1914POPC   PO426088  12.539  39.799   9.426
 1914POPC   GL126089  12.381  39.425   9.184
 1914POPC   GL226090  11.986  39.385   9.103
 1914POPC   C1A26091  12.340  39.272   8.751
 1914POPC   D2A26092  11.999  39.342   8.431
 1914POPC   C3A26093  12.147  39.334   7.981
 1914POPC   C4A26094  12.457  39.378   7.616
 1914POPC   C1B26095  11.938  38.988   8.900
 1914POPC   C2B26096  11.832  38.842   8.477
 1914POPC   C3B26097  11.754  38.944   8.035
 1914POPC   C4B26098  11.673  38.849   7.625
 1915POPC   NC326099   6.126   4.669   9.608
 1915POPC   PO426100   5.697   5.205   9.606
 1915POPC   GL126101   5.957   5.095   9.267
 1915POPC   GL226102   5.890   4.772   9.174
 1915POPC   C1A26103   5.733   5.121   8.850
 1915POPC   D2A26104   5.708   4.838   8.535
 1915POPC   C3A26105   5.654   4.987   8.127
 1915POPC   C4A26106   5.808   5.049   7.735
 1915POPC   C1B26107   6.203   4.859   8.858
 1915POPC   C2B26108   6.215   4.802   8.418
 1915POPC   C3B26109   6.241   5.005   8.009
 1915POPC   C4B26110   6.272   4.793   7.610
 1916POPC   NC326111  21.671  17.708   9.493
 1916POPC   PO426112  21.246  17.163   9.464
 1916POPC   GL126113  21.386  17.465   9.142
 1916POPC   GL226114  21.716  17.326   9.174
 1916POPC   C1A26115  21.378  17.713   8.735
 1916POPC   D2A26116  21.173  17.691   8.328
 1916POPC   C3A26117  21.337  17.683   7.940
 1916POPC   C4A26118  21.139  17.278   7.978
 1916POPC   C1B26119  21.611  17.220   8.763
 1916POPC   C2B26120  21.558  17.350   8.366
 1916POPC   C3B26121  21.624  17.144   8.021
 1916POPC   C4B26122  21.572  17.298   7.639
 1917POPC   NC326123   6.559   2.367   9.542
 1917POPC   PO426124   6.654   1.765   9.497
 1917POPC   GL126125   6.630   2.000   9.137
 1917POPC   GL226126   6.349   2.226   9.103
 1917POPC   C1A26127   6.718   1.849   8.740
 1917POPC   D2A26128   6.697   1.734   8.323
 1917POPC   C3A26129   6.936   1.918   8.021
 1917POPC   C4A26130   6.876   2.079   7.623
 1917POPC   C1B26131   6.234   2.028   8.731
 1917POPC   C2B26132   6.413   2.156   8.355
 1917POPC   C3B26133   6.464   2.040   7.941
 1917POPC   C4B26134   6.354   2.188   7.558
 1918POPC   NC326135  21.692  42.167   9.580
 1918POPC   PO426136  22.323  42.235   9.803
 1918POPC   GL126137  22.301  42.221   9.323
 1918POPC   GL226138  21.979  42.420   9.203
 1918POPC   C1A26139  22.322  42.122   8.882
 1918POPC   D2A26140  22.231  42.296   8.488
 1918POPC   C3A26141  22.276  42.135   8.091
 1918POPC   C4A26142  22.240  42.304   7.692
 1918POPC   C1B26143  21.977  42.616   8.792
 1918POPC   C2B26144  21.823  42.582   8.366
 1918POPC   C3B26145  21.835  42.526   7.940
 1918POPC   C4B26146  22.014  42.825   7.689
 1919POPC   NC326147   4.077  25.884   9.618
 1919POPC   PO426148   4.480  26.348   9.653
 1919POPC   GL126149   4.406  26.085   9.274
 1919POPC   GL226150   4.687  25.892   9.130
 1919POPC   C1A26151   4.147  25.883   8.948
 1919POPC   D2A26152   4.109  25.958   8.493
 1919POPC   C3A26153   4.456  25.933   8.202
 1919POPC   C4A26154   4.147  25.829   7.887
 1919POPC   C1B26155   4.524  26.181   8.789
 1919POPC   C2B26156   4.447  26.430   8.425
 1919POPC   C3B26157   4.172  26.342   8.082
 1919POPC   C4B26158   4.491  26.229   7.754
 1920POPC   NC326159  27.757  17.970   9.471
 1920POPC   PO426160  27.746  18.642   9.438
 1920POPC   GL126161  27.603  18.325   9.121
 1920POPC   GL226162  27.311  18.411   8.972
 1920POPC   C1A26163  27.646  18.145   8.683
 1920POPC   D2A26164  27.550  17.954   8.296
 1920POPC   C3A26165  27.694  18.060   7.908
 1920POPC   C4A26166  28.022  18.333   7.847
 1920POPC   C1B26167  27.627  18.644   8.700
 1920POPC   C2B26168  27.746  18.474   8.266
 1920POPC   C3B26169  27.601  18.590   7.840
 1920POPC   C4B26170  27.430  18.616   7.430
 1921POPC   NC326171  12.461   9.832   9.546
 1921POPC   PO426172  13.110  10.064   9.483
 1921POPC   GL126173  12.887   9.878   9.125
 1921POPC   GL226174  12.556  10.015   9.092
 1921POPC   C1A26175  12.827   9.860   8.669
 1921POPC   D2A26176  13.037   9.891   8.261
 1921POPC   C3A26177  12.935   9.612   7.904
 1921POPC   C4A26178  13.117   9.502   7.506
 1921POPC   C1B26179  12.486   9.564   8.922
 1921POPC   C2B26180  12.519   9.393   8.524
 1921POPC   C3B26181  12.573   9.707   8.244
 1921POPC   C4B26182  12.476   9.940   7.869
 1922POPC   NC326183  24.815  15.907   9.455
 1922POPC   PO426184  24.194  15.671   9.365
 1922POPC   GL126185  24.388  16.004   9.140
 1922POPC   GL226186  24.707  15.955   8.968
 1922POPC   C1A26187  24.302  16.130   8.726
 1922POPC   D2A26188  24.473  15.935   8.377
 1922POPC   C3A26189  24.274  15.940   7.983
 1922POPC   C4A26190  24.179  15.539   7.795
 1922POPC   C1B26191  24.827  16.258   8.666
 1922POPC   C2B26192  24.769  16.316   8.229
 1922POPC   C3B26193  24.811  15.966   7.935
 1922POPC   C4B26194  24.977  15.966   7.493
 1923POPC   NC326195  10.096   2.622   9.569
 1923POPC   PO426196   9.587   3.077   9.646
 1923POPC   GL126197   9.755   2.849   9.264
 1923POPC   GL226198  10.096   2.791   9.098
 1923POPC   C1A26199   9.636   2.648   8.867
 1923POPC   D2A26200   9.740   2.779   8.435
 1923POPC   C3A26201   9.509   2.581   8.083
 1923POPC   C4A26202   9.588   2.388   7.664
 1923POPC   C1B26203  10.095   2.525   8.706
 1923POPC   C2B26204  10.083   2.490   8.210
 1923POPC   C3B26205   9.942   2.720   7.850
 1923POPC   C4B26206  10.064   2.623   7.433
 1924POPC   NC326207  21.700  24.079   9.467
 1924POPC   PO426208  21.342  24.613   9.729
 1924POPC   GL126209  21.405  24.590   9.186
 1924POPC   GL226210  21.550  24.276   9.026
 1924POPC   C1A26211  21.437  24.675   8.740
 1924POPC   D2A26212  21.268  24.673   8.324
 1924POPC   C3A26213  21.226  24.362   8.044
 1924POPC   C4A26214  21.351  24.650   7.706
 1924POPC   C1B26215  21.792  24.308   8.657
 1924POPC   C2B26216  21.681  24.259   8.234
 1924POPC   C3B26217  21.692  24.274   7.767
 1924POPC   C4B26218  21.456  24.279   7.353
 1925POPC   NC326219  43.199  12.911   9.559
 1925POPC   PO426220  43.100  12.291   9.633
 1925POPC   GL126221  43.189  12.571   9.181
 1925POPC   GL226222  43.066  12.945   9.096
 1925POPC   C1A26223  43.030  12.630   8.713
 1925POPC   D2A26224  43.247  12.559   8.320
 1925POPC   C3A26225  43.044  12.730   7.944
 1925POPC   C4A26226  42.987  12.987   7.569
 1925POPC   C1B26227  43.254  13.145   8.775
 1925POPC   C2B26228  43.016  13.153   8.425
 1925POPC   C3B26229  42.980  13.233   8.022
 1925POPC   C4B26230  43.389  13.132   7.868
 1926POPC   NC326231   8.763  37.260   9.476
 1926POPC   PO426232   9.218  36.712   9.564
 1926POPC   GL126233   9.244  36.619   9.158
 1926POPC   GL226234   9.134  36.956   9.063
 1926POPC   C1A26235   9.015  36.550   8.770
 1926POPC   D2A26236   8.991  36.842   8.483
 1926POPC   C3A26237   8.993  36.645   8.139
 1926POPC   C4A26238   9.290  36.686   7.792
 1926POPC   C1B26239   8.716  36.938   8.905
 1926POPC   C2B26240   8.485  36.934   8.536
 1926POPC   C3B26241   8.622  37.026   8.147
 1926POPC   C4B26242   8.793  36.883   7.751
 1927POPC   NC326243  31.450  35.789   9.599
 1927POPC   PO426244  31.125  35.290   9.439
 1927POPC   GL126245  31.377  35.405   9.124
 1927POPC   GL226246  31.729  35.493   9.084
 1927POPC   C1A26247  31.377  35.231   8.741
 1927POPC   D2A26248  31.473  35.045   8.373
 1927POPC   C3A26249  31.247  35.238   8.015
 1927POPC   C4A26250  31.203  35.147   7.549
 1927POPC   C1B26251  31.831  35.396   8.618
 1927POPC   C2B26252  31.769  35.402   8.142
 1927POPC   C3B26253  31.668  35.145   7.757
 1927POPC   C4B26254  31.632  35.375   7.341
 1928POPC   NC326255  19.674   0.063   9.556
 1928POPC   PO426256  20.162  44.606   9.676
 1928POPC   GL126257  20.106  44.601   9.220
 1928POPC   GL226258  19.901  44.901   9.095
 1928POPC   C1A26259  20.321  44.615   8.800
 1928POPC   D2A26260  20.294  44.575   8.334
 1928POPC   C3A26261  20.000  44.691   8.001
 1928POPC   C4A26262  20.053  44.725   7.555
 1928POPC   C1B26263  19.807  44.595   8.750
 1928POPC   C2B26264  19.804  44.363   8.349
 1928POPC   C3B26265  19.559  44.432   7.958
 1928POPC   C4B26266  19.314  44.784   7.786
 1929POPC   NC326267   7.687  22.820   9.429
 1929POPC   PO426268   7.112  23.218   9.480
 1929POPC   GL126269   7.272  23.016   9.155
 1929POPC   GL226270   7.557  23.206   9.090
 1929POPC   C1A26271   7.263  22.855   8.749
 1929POPC   D2A26272   7.484  22.953   8.372
 1929POPC   C3A26273   7.400  22.759   7.979
 1929POPC   C4A26274   7.109  22.837   7.709
 1929POPC   C1B26275   7.705  23.417   8.713
 1929POPC   C2B26276   7.575  23.456   8.299
 1929POPC   C3B26277   7.728  23.173   7.947
 1929POPC   C4B26278   7.700  23.087   7.474
 1930POPC   NC326279  18.255  28.370   9.701
 1930POPC   PO426280  18.701  28.242   9.268
 1930POPC   GL126281  18.364  28.452   9.056
 1930POPC   GL226282  18.136  28.156   9.068
 1930POPC   C1A26283  18.151  28.471   8.635
 1930POPC   D2A26284  17.866  28.447   8.295
 1930POPC   C3A26285  18.147  28.400   7.953
 1930POPC   C4A26286  18.195  28.811   7.828
 1930POPC   C1B26287  18.435  28.057   8.720
 1930POPC   C2B26288  18.508  28.210   8.331
 1930POPC   C3B26289  18.655  28.303   7.952
 1930POPC   C4B26290  18.616  28.076   7.612
 1931POPC   NC326291  10.886  28.459   9.557
 1931POPC   PO426292  10.236  28.232   9.474
 1931POPC   GL126293  10.492  28.388   9.203
 1931POPC   GL226294  10.733  28.132   9.172
 1931POPC   C1A26295  10.472  28.453   8.781
 1931POPC   D2A26296  10.462  28.222   8.374
 1931POPC   C3A26297  10.652  28.513   8.075
 1931POPC   C4A26298  10.514  28.651   7.665
 1931POPC   C1B26299  10.737  28.021   8.765
 1931POPC   C2B26300  11.005  28.182   8.430
 1931POPC   C3B26301  10.982  28.105   7.995
 1931POPC   C4B26302  10.645  28.158   7.711
 1932POPC   NC326303  40.211   5.590   9.521
 1932POPC   PO426304  39.500   5.662   9.528
 1932POPC   GL126305  39.829   5.770   9.213
 1932POPC   GL226306  40.027   6.104   9.195
 1932POPC   C1A26307  40.051   5.662   8.840
 1932POPC   D2A26308  40.308   5.658   8.481
 1932POPC   C3A26309  40.080   5.552   8.113
 1932POPC   C4A26310  40.122   5.720   7.700
 1932POPC   C1B26311  39.760   6.103   8.820
 1932POPC   C2B26312  39.826   5.911   8.410
 1932POPC   C3B26313  40.141   6.055   8.127
 1932POPC   C4B26314  40.013   6.309   7.826
 1933POPC   NC326315  20.392  43.228   9.707
 1933POPC   PO426316  20.725  42.715   9.453
 1933POPC   GL126317  20.635  43.113   9.222
 1933POPC   GL226318  20.960  43.296   9.192
 1933POPC   C1A26319  20.547  43.185   8.767
 1933POPC   D2A26320  20.616  42.844   8.436
 1933POPC   C3A26321  20.517  42.953   8.003
 1933POPC   C4A26322  20.697  42.966   7.608
 1933POPC   C1B26323  21.006  42.990   8.837
 1933POPC   C2B26324  20.988  43.188   8.435
 1933POPC   C3B26325  21.044  43.086   7.994
 1933POPC   C4B26326  20.899  43.408   7.728
 1934POPC   NC326327   0.294  33.962   9.614
 1934POPC   PO426328   0.252  34.620   9.532
 1934POPC   GL126329   0.387  34.334   9.233
 1934POPC   GL226330   0.077  34.224   9.175
 1934POPC   C1A26331   0.585  34.329   8.817
 1934POPC   D2A26332   0.396  34.385   8.421
 1934POPC   C3A26333   0.545  34.289   8.049
 1934POPC   C4A26334   0.582  34.652   7.806
 1934POPC   C1B26335   0.080  34.488   8.824
 1934POPC   C2B26336  44.913  34.487   8.412
 1934POPC   C3B26337   0.087  34.533   8.001
 1934POPC   C4B26338   0.109  34.697   7.595
 1935POPC   NC326339  37.951  26.587   9.504
 1935POPC   PO426340  37.452  27.040   9.400
 1935POPC   GL126341  37.686  26.889   9.057
 1935POPC   GL226342  37.993  27.032   9.170
 1935POPC   C1A26343  37.620  26.805   8.592
 1935POPC   D2A26344  37.570  26.672   8.138
 1935POPC   C3A26345  37.409  26.917   7.764
 1935POPC   C4A26346  37.262  26.894   7.303
 1935POPC   C1B26347  37.961  27.176   8.726
 1935POPC   C2B26348  37.852  27.105   8.243
 1935POPC   C3B26349  37.883  27.118   7.798
 1935POPC   C4B26350  37.598  27.304   7.470
 1936POPC   NC326351   9.504  17.100   9.294
 1936POPC   PO426352   9.910  16.507   9.490
 1936POPC   GL126353   9.794  16.392   9.077
 1936POPC   GL226354   9.531  16.667   9.016
 1936POPC   C1A26355   9.839  16.447   8.648
 1936POPC   D2A26356   9.646  16.823   8.483
 1936POPC   C3A26357   9.873  16.991   8.137
 1936POPC   C4A26358   9.797  17.092   7.742
 1936POPC   C1B26359   9.316  16.447   8.706
 1936POPC   C2B26360   9.488  16.261   8.333
 1936POPC   C3B26361   9.764  16.480   8.115
 1936POPC   C4B26362   9.574  16.608   7.762
 1937POPC   NC326363  27.896  32.741   9.521
 1937POPC   PO426364  27.418  33.253   9.752
 1937POPC   GL126365  27.587  33.031   9.293
 1937POPC   GL226366  27.882  33.244   9.180
 1937POPC   C1A26367  27.718  32.896   8.831
 1937POPC   D2A26368  27.499  32.977   8.428
 1937POPC   C3A26369  27.725  32.966   8.044
 1937POPC   C4A26370  27.719  32.753   7.667
 1937POPC   C1B26371  27.957  33.360   8.735
 1937POPC   C2B26372  27.763  33.457   8.300
 1937POPC   C3B26373  27.448  33.395   7.930
 1937POPC   C4B26374  27.638  33.273   7.504
 1938POPC   NC326375  36.838  44.303   9.433
 1938POPC   PO426376  37.185  44.882   9.432
 1938POPC   GL126377  37.017  44.659   9.084
 1938POPC   GL226378  36.658  44.587   9.049
 1938POPC   C1A26379  36.900  44.758   8.651
 1938POPC   D2A26380  36.947  44.517   8.292
 1938POPC   C3A26381  37.163  44.802   8.021
 1938POPC   C4A26382  37.145  44.893   7.599
 1938POPC   C1B26383  36.399  44.545   8.689
 1938POPC   C2B26384  36.478  44.677   8.235
 1938POPC   C3B26385  36.625  44.796   7.817
 1938POPC   C4B26386  36.722  44.612   7.431
 1939POPC   NC326387  28.010  25.827   9.503
 1939POPC   PO426388  27.417  26.215   9.547
 1939POPC   GL126389  27.703  26.114   9.206
 1939POPC   GL226390  27.910  26.347   9.043
 1939POPC   C1A26391  27.737  25.885   8.820
 1939POPC   D2A26392  27.807  25.742   8.401
 1939POPC   C3A26393  27.574  25.952   8.058
 1939POPC   C4A26394  27.648  25.890   7.626
 1939POPC   C1B26395  27.511  26.389   8.809
 1939POPC   C2B26396  27.359  26.361   8.386
 1939POPC   C3B26397  27.551  26.480   8.037
 1939POPC   C4B26398  27.730  26.392   7.658
 1940POPC   NC326399  22.694  36.344   9.461
 1940POPC   PO426400  22.066  36.158   9.632
 1940POPC   GL126401  22.040  36.106   9.221
 1940POPC   GL226402  22.295  36.343   9.162
 1940POPC   C1A26403  22.229  35.925   8.867
 1940POPC   D2A26404  22.274  35.767   8.466
 1940POPC   C3A26405  22.339  36.010   8.096
 1940POPC   C4A26406  22.116  35.960   7.728
 1940POPC   C1B26407  22.053  36.435   8.829
 1940POPC   C2B26408  22.063  36.241   8.466
 1940POPC   C3B26409  21.922  36.312   8.065
 1940POPC   C4B26410  22.092  36.533   7.727
 1941POPC   NC326411   9.529  26.525   9.466
 1941POPC   PO426412  10.164  26.670   9.397
 1941POPC   GL126413   9.893  26.642   9.037
 1941POPC   GL226414   9.585  26.805   9.049
 1941POPC   C1A26415   9.856  26.875   8.638
 1941POPC   D2A26416  10.088  26.767   8.306
 1941POPC   C3A26417   9.993  26.981   7.970
 1941POPC   C4A26418   9.959  26.944   7.567
 1941POPC   C1B26419   9.352  26.994   8.765
 1941POPC   C2B26420   9.350  26.805   8.392
 1941POPC   C3B26421   9.608  26.603   8.110
 1941POPC   C4B26422   9.504  26.775   7.725
 1942POPC   NC326423  39.148  16.375   9.471
 1942POPC   PO426424  39.576  16.954   9.501
 1942POPC   GL126425  39.411  16.999   9.119
 1942POPC   GL226426  39.060  16.918   9.131
 1942POPC   C1A26427  39.318  17.082   8.710
 1942POPC   D2A26428  39.239  16.789   8.377
 1942POPC   C3A26429  39.463  16.761   7.981
 1942POPC   C4A26430  39.213  16.747   7.603
 1942POPC   C1B26431  38.832  16.915   8.703
 1942POPC   C2B26432  38.747  16.825   8.247
 1942POPC   C3B26433  38.734  16.772   7.771
 1942POPC   C4B26434  38.824  16.595   7.304
 1943POPC   NC326435  26.855  31.427   9.490
 1943POPC   PO426436  26.715  32.099   9.318
 1943POPC   GL126437  26.981  31.737   9.088
 1943POPC   GL226438  27.201  31.405   9.113
 1943POPC   C1A26439  26.820  31.395   8.778
 1943POPC   D2A26440  26.899  31.461   8.339
 1943POPC   C3A26441  26.567  31.336   8.051
 1943POPC   C4A26442  26.466  31.489   7.583
 1943POPC   C1B26443  27.314  31.452   8.660
 1943POPC   C2B26444  27.363  31.153   8.290
 1943POPC   C3B26445  27.056  31.160   7.949
 1943POPC   C4B26446  26.922  31.598   7.833
 1944POPC   NC326447  12.259  23.348   9.492
 1944POPC   PO426448  11.839  22.838   9.718
 1944POPC   GL126449  11.923  22.917   9.200
 1944POPC   GL226450  12.142  23.194   9.030
 1944POPC   C1A26451  12.051  22.792   8.763
 1944POPC   D2A26452  12.145  23.073   8.415
 1944POPC   C3A26453  11.933  22.869   8.117
 1944POPC   C4A26454  12.134  22.573   7.854
 1944POPC   C1B26455  11.837  23.328   8.721
 1944POPC   C2B26456  11.835  23.514   8.313
 1944POPC   C3B26457  11.868  23.353   7.897
 1944POPC   C4B26458  12.172  23.083   7.726
 1945POPC   NC326459  31.957  42.542   9.492
 1945POPC   PO426460  32.509  42.047   9.449
 1945POPC   GL126461  32.330  42.165   9.083
 1945POPC   GL226462  31.976  42.044   9.031
 1945POPC   C1A26463  32.458  42.240   8.649
 1945POPC   D2A26464  32.242  42.104   8.269
 1945POPC   C3A26465  32.509  42.085   7.926
 1945POPC   C4A26466  32.412  42.281   7.556
 1945POPC   C1B26467  32.023  42.457   8.801
 1945POPC   C2B26468  32.123  42.588   8.358
 1945POPC   C3B26469  32.034  42.503   7.878
 1945POPC   C4B26470  31.818  42.679   7.456
 1946POPC   NC326471  29.384  36.476   9.275
 1946POPC   PO426472  28.924  36.106   9.582
 1946POPC   GL126473  29.133  36.030   9.165
 1946POPC   GL226474  29.043  36.299   8.916
 1946POPC   C1A26475  29.399  35.969   8.765
 1946POPC   D2A26476  29.273  36.109   8.320
 1946POPC   C3A26477  28.959  36.098   8.001
 1946POPC   C4A26478  28.697  36.037   7.660
 1946POPC   C1B26479  29.382  36.481   8.644
 1946POPC   C2B26480  29.576  36.518   8.249
 1946POPC   C3B26481  29.384  36.393   7.857
 1946POPC   C4B26482  29.203  36.184   7.486
 1947POPC   NC326483  43.385   3.549   9.514
 1947POPC   PO426484  44.045   3.217   9.505
 1947POPC   GL126485  44.055   3.347   9.080
 1947POPC   GL226486  43.708   3.456   9.041
 1947POPC   C1A26487  44.049   3.517   8.682
 1947POPC   D2A26488  43.784   3.440   8.329
 1947POPC   C3A26489  44.062   3.486   7.951
 1947POPC   C4A26490  44.021   3.441   7.497
 1947POPC   C1B26491  43.646   3.825   8.699
 1947POPC   C2B26492  43.717   3.950   8.274
 1947POPC   C3B26493  43.601   3.686   7.919
 1947POPC   C4B26494  43.920   3.916   7.667
 1948POPC   NC326495  35.045  16.631   9.300
 1948POPC   PO426496  34.455  16.471   9.539
 1948POPC   GL126497  34.543  16.635   9.130
 1948POPC   GL226498  34.276  16.828   9.087
 1948POPC   C1A26499  34.566  16.705   8.661
 1948POPC   D2A26500  34.488  16.549   8.254
 1948POPC   C3A26501  34.696  16.781   7.929
 1948POPC   C4A26502  34.405  16.714   7.578
 1948POPC   C1B26503  34.274  17.118   8.777
 1948POPC   C2B26504  34.246  16.985   8.369
 1948POPC   C3B26505  34.264  17.056   7.949
 1948POPC   C4B26506  34.524  17.216   7.660
 1949POPC   NC326507   7.006  44.945   9.529
 1949POPC   PO426508   7.264  44.353   9.463
 1949POPC   GL126509   7.409  44.702   9.209
 1949POPC   GL226510   7.140  44.868   9.060
 1949POPC   C1A26511   7.634  44.942   8.877
 1949POPC   D2A26512   7.692   0.063   8.441
 1949POPC   C3A26513   7.764  44.717   8.150
 1949POPC   C4A26514   7.716  44.768   7.717
 1949POPC   C1B26515   7.117  44.508   8.812
 1949POPC   C2B26516   7.273  44.447   8.410
 1949POPC   C3B26517   7.234  44.659   8.033
 1949POPC   C4B26518   7.242  44.574   7.624
 1950POPC   NC326519  44.132  42.987   9.433
 1950POPC   PO426520  43.470  43.201   9.448
 1950POPC   GL126521  43.716  43.162   9.087
 1950POPC   GL226522  43.886  43.475   9.139
 1950POPC   C1A26523  43.984  43.013   8.734
 1950POPC   D2A26524  44.077  42.865   8.294
 1950POPC   C3A26525  43.681  42.796   8.114
 1950POPC   C4A26526  43.585  42.950   7.721
 1950POPC   C1B26527  43.689  43.571   8.732
 1950POPC   C2B26528  43.703  43.293   8.373
 1950POPC   C3B26529  43.879  43.274   7.968
 1950POPC   C4B26530  43.849  43.542   7.618
 1951POPC   NC326531  11.382  34.270   9.489
 1951POPC   PO426532  10.853  34.610   9.416
 1951POPC   GL126533  11.182  34.584   9.127
 1951POPC   GL226534  11.509  34.679   9.132
 1951POPC   C1A26535  11.220  34.630   8.705
 1951POPC   D2A26536  11.388  34.621   8.319
 1951POPC   C3A26537  11.121  34.423   8.038
 1951POPC   C4A26538  11.070  34.633   7.661
 1951POPC   C1B26539  11.708  34.494   8.703
 1951POPC   C2B26540  11.689  34.208   8.305
 1951POPC   C3B26541  11.593  34.406   7.877
 1951POPC   C4B26542  11.521  34.441   7.417
 1952POPC   NC326543  29.776  40.297   9.422
 1952POPC   PO426544  30.223  39.737   9.529
 1952POPC   GL126545  30.078  39.823   9.122
 1952POPC   GL226546  30.160  40.154   9.101
 1952POPC   C1A26547  29.928  39.967   8.707
 1952POPC   D2A26548  30.036  40.023   8.287
 1952POPC   C3A26549  29.758  39.835   7.973
 1952POPC   C4A26550  29.372  39.807   7.777
 1952POPC   C1B26551  30.259  40.366   8.732
 1952POPC   C2B26552  30.095  40.517   8.357
 1952POPC   C3B26553  30.338  40.381   8.016
 1952POPC   C4B26554  30.132  40.273   7.646
 1953POPC   NC326555   4.766   6.123   9.478
 1953POPC   PO426556   5.065   5.718   9.200
 1953POPC   GL126557   5.123   6.085   8.982
 1953POPC   GL226558   4.836   6.069   8.822
 1953POPC   C1A26559   5.372   6.145   8.624
 1953POPC   D2A26560   5.248   5.904   8.248
 1953POPC   C3A26561   5.502   5.837   7.866
 1953POPC   C4A26562   5.491   5.601   7.466
 1953POPC   C1B26563   4.641   5.729   8.577
 1953POPC   C2B26564   4.596   5.528   8.169
 1953POPC   C3B26565   4.938   5.665   7.876
 1953POPC   C4B26566   5.037   6.120   7.834
 1954POPC   NC326567  37.415  20.247   9.524
 1954POPC   PO426568  37.407  20.925   9.436
 1954POPC   GL126569  37.690  20.640   9.192
 1954POPC   GL226570  37.674  20.258   9.106
 1954POPC   C1A26571  37.701  20.581   8.736
 1954POPC   D2A26572  37.864  20.505   8.330
 1954POPC   C3A26573  37.666  20.669   8.014
 1954POPC   C4A26574  37.774  20.506   7.665
 1954POPC   C1B26575  37.469  20.109   8.756
 1954POPC   C2B26576  37.403  20.313   8.406
 1954POPC   C3B26577  37.346  20.274   8.028
 1954POPC   C4B26578  37.574  20.057   7.764
 1955POPC   NC326579  42.444  29.614   9.382
 1955POPC   PO426580  42.582  30.232   9.655
 1955POPC   GL126581  42.603  30.097   9.211
 1955POPC   GL226582  42.232  30.075   9.182
 1955POPC   C1A26583  42.497  30.006   8.745
 1955POPC   D2A26584  42.266  30.125   8.356
 1955POPC   C3A26585  42.441  30.021   7.986
 1955POPC   C4A26586  42.452  29.676   7.744
 1955POPC   C1B26587  41.979  30.100   8.788
 1955POPC   C2B26588  41.808  30.330   8.455
 1955POPC   C3B26589  41.794  30.224   8.072
 1955POPC   C4B26590  42.029  30.131   7.742
 1956POPC   NC326591  36.401  15.336   9.463
 1956POPC   PO426592  36.011  14.766   9.392
 1956POPC   GL126593  36.179  14.979   9.081
 1956POPC   GL226594  36.035  15.319   9.082
 1956POPC   C1A26595  36.075  14.965   8.654
 1956POPC   D2A26596  36.300  15.077   8.311
 1956POPC   C3A26597  36.207  15.105   7.893
 1956POPC   C4A26598  36.461  14.900   7.599
 1956POPC   C1B26599  36.390  15.342   8.774
 1956POPC   C2B26600  36.444  15.558   8.365
 1956POPC   C3B26601  36.392  15.588   7.927
 1956POPC   C4B26602  36.389  15.395   7.503
 1957POPC   NC326603  36.849  24.212  10.019
 1957POPC   PO426604  36.990  23.754   9.633
 1957POPC   GL126605  37.004  23.724   9.198
 1957POPC   GL226606  37.350  23.836   9.206
 1957POPC   C1A26607  36.790  23.646   8.783
 1957POPC   D2A26608  36.870  23.767   8.334
 1957POPC   C3A26609  36.694  23.677   7.930
 1957POPC   C4A26610  36.971  23.417   7.665
 1957POPC   C1B26611  37.250  23.884   8.764
 1957POPC   C2B26612  37.373  23.934   8.334
 1957POPC   C3B26613  37.171  23.857   7.916
 1957POPC   C4B26614  37.115  23.850   7.428
 1958POPC   NC326615  36.035  31.162   9.414
 1958POPC   PO426616  36.068  31.875   9.532
 1958POPC   GL126617  36.122  31.623   9.133
 1958POPC   GL226618  35.857  31.396   8.969
 1958POPC   C1A26619  36.215  31.694   8.688
 1958POPC   D2A26620  36.081  31.392   8.370
 1958POPC   C3A26621  36.004  31.531   7.935
 1958POPC   C4A26622  36.294  31.675   7.575
 1958POPC   C1B26623  36.266  31.203   8.809
 1958POPC   C2B26624  36.474  31.043   8.457
 1958POPC   C3B26625  36.249  31.009   8.046
 1958POPC   C4B26626  36.191  31.173   7.631
 1959POPC   NC326627  17.723  10.677   9.532
 1959POPC   PO426628  17.267  10.203   9.425
 1959POPC   GL126629  17.498  10.452   9.097
 1959POPC   GL226630  17.626  10.839   9.071
 1959POPC   C1A26631  17.560  10.499   8.662
 1959POPC   D2A26632  17.652  10.664   8.267
 1959POPC   C3A26633  17.487  10.468   7.874
 1959POPC   C4A26634  17.526  10.623   7.413
 1959POPC   C1B26635  17.873  10.915   8.683
 1959POPC   C2B26636  17.854  11.144   8.246
 1959POPC   C3B26637  17.922  10.871   7.850
 1959POPC   C4B26638  18.028  10.708   7.412
 1960POPC   NC326639  21.293  44.932   9.481
 1960POPC   PO426640  21.281  44.330   9.642
 1960POPC   GL126641  21.521  44.546   9.227
 1960POPC   GL226642  21.273  44.761   9.013
 1960POPC   C1A26643  21.694  44.682   8.790
 1960POPC   D2A26644  21.395  44.807   8.403
 1960POPC   C3A26645  21.524  44.795   7.924
 1960POPC   C4A26646  21.342   0.046   7.563
 1960POPC   C1B26647  21.280  44.386   8.785
 1960POPC   C2B26648  21.162  44.251   8.404
 1960POPC   C3B26649  21.226  44.376   8.024
 1960POPC   C4B26650  21.048  44.686   7.790
 1961POPC   NC326651  14.013  31.440   9.347
 1961POPC   PO426652  14.517  31.093   9.692
 1961POPC   GL126653  14.505  31.325   9.274
 1961POPC   GL226654  14.568  31.672   9.159
 1961POPC   C1A26655  14.507  31.304   8.785
 1961POPC   D2A26656  14.613  31.642   8.448
 1961POPC   C3A26657  14.676  31.477   8.061
 1961POPC   C4A26658  14.466  31.096   7.985
 1961POPC   C1B26659  14.249  31.743   8.780
 1961POPC   C2B26660  14.079  31.495   8.444
 1961POPC   C3B26661  13.980  31.475   8.004
 1961POPC   C4B26662  14.298  31.473   7.685
 1962POPC   NC326663  18.335  17.174   9.406
 1962POPC   PO426664  18.145  17.800   9.601
 1962POPC   GL126665  18.228  17.755   9.145
 1962POPC   GL226666  18.571  17.835   9.089
 1962POPC   C1A26667  18.272  17.452   8.755
 1962POPC   D2A26668  18.263  17.177   8.359
 1962POPC   C3A26669  18.317  17.371   7.928
 1962POPC   C4A26670  18.321  17.245   7.471
 1962POPC   C1B26671  18.465  17.934   8.689
 1962POPC   C2B26672  18.519  17.730   8.303
 1962POPC   C3B26673  18.395  17.914   7.909
 1962POPC   C4B26674  18.416  17.735   7.521
 1963POPC   NC326675  11.669  43.377   9.439
 1963POPC   PO426676  11.147  43.091   9.810
 1963POPC   GL126677  11.173  43.246   9.310
 1963POPC   GL226678  11.281  42.992   9.071
 1963POPC   C1A26679  11.091  43.369   8.816
 1963POPC   D2A26680  11.204  43.176   8.422
 1963POPC   C3A26681  11.103  43.377   8.019
 1963POPC   C4A26682  10.984  43.072   7.734
 1963POPC   C1B26683  11.582  42.995   8.755
 1963POPC   C2B26684  11.731  43.180   8.377
 1963POPC   C3B26685  11.528  43.084   7.990
 1963POPC   C4B26686  11.536  42.904   7.586
 1964POPC   NC326687   7.102  13.009   9.455
 1964POPC   PO426688   7.726  12.854   9.571
 1964POPC   GL126689   7.568  12.805   9.175
 1964POPC   GL226690   7.488  13.138   9.135
 1964POPC   C1A26691   7.364  12.805   8.753
 1964POPC   D2A26692   7.191  12.664   8.373
 1964POPC   C3A26693   7.315  12.781   7.986
 1964POPC   C4A26694   7.589  13.006   7.784
 1964POPC   C1B26695   7.124  13.250   8.810
 1964POPC   C2B26696   7.198  13.181   8.357
 1964POPC   C3B26697   7.230  13.330   7.924
 1964POPC   C4B26698   7.137  13.052   7.548
 1965POPC   NC326699  26.091   8.576   9.344
 1965POPC   PO426700  26.096   9.193   9.753
 1965POPC   GL126701  25.987   9.117   9.278
 1965POPC   GL226702  25.944   9.424   9.104
 1965POPC   C1A26703  26.153   9.009   8.827
 1965POPC   D2A26704  26.177   8.653   8.508
 1965POPC   C3A26705  26.289   8.830   8.096
 1965POPC   C4A26706  26.203   9.148   7.783
 1965POPC   C1B26707  25.696   9.195   8.736
 1965POPC   C2B26708  25.908   9.067   8.372
 1965POPC   C3B26709  25.799   8.867   8.001
 1965POPC   C4B26710  25.628   9.075   7.641
 1966POPC   NC326711  41.116  44.042   9.816
 1966POPC   PO426712  40.523  44.001   9.424
 1966POPC   GL126713  40.692  43.973   9.088
 1966POPC   GL226714  41.028  43.968   9.290
 1966POPC   C1A26715  40.653  43.824   8.655
 1966POPC   D2A26716  40.731  44.073   8.294
 1966POPC   C3A26717  40.454  44.043   7.987
 1966POPC   C4A26718  40.618  43.850   7.653
 1966POPC   C1B26719  41.114  43.955   8.843
 1966POPC   C2B26720  41.127  43.723   8.451
 1966POPC   C3B26721  40.975  43.708   8.020
 1966POPC   C4B26722  41.128  43.899   7.658
 1967POPC   NC326723  32.269  14.642   9.652
 1967POPC   PO426724  32.358  14.001   9.501
 1967POPC   GL126725  32.357  14.207   9.129
 1967POPC   GL226726  32.295  14.526   9.170
 1967POPC   C1A26727  32.138  14.263   8.741
 1967POPC   D2A26728  32.297  14.119   8.369
 1967POPC   C3A26729  32.105  14.036   7.995
 1967POPC   C4A26730  32.046  14.391   7.785
 1967POPC   C1B26731  32.439  14.671   8.783
 1967POPC   C2B26732  32.197  14.659   8.391
 1967POPC   C3B26733  32.245  14.818   7.990
 1967POPC   C4B26734  32.374  14.695   7.544
 1968POPC   NC326735  21.090  23.488   9.478
 1968POPC   PO426736  21.245  24.170   9.404
 1968POPC   GL126737  21.231  23.875   9.102
 1968POPC   GL226738  21.357  23.547   9.042
 1968POPC   C1A26739  21.405  23.909   8.675
 1968POPC   D2A26740  21.150  23.868   8.296
 1968POPC   C3A26741  21.411  23.865   7.934
 1968POPC   C4A26742  21.266  23.860   7.525
 1968POPC   C1B26743  21.077  23.507   8.717
 1968POPC   C2B26744  21.187  23.327   8.323
 1968POPC   C3B26745  21.062  23.473   7.922
 1968POPC   C4B26746  21.311  23.357   7.591
 1969POPC   NC326747  15.865  10.524   9.624
 1969POPC   PO426748  16.331  10.860   9.257
 1969POPC   GL126749  16.054  10.535   9.144
 1969POPC   GL226750  15.676  10.560   9.152
 1969POPC   C1A26751  16.018  10.531   8.732
 1969POPC   D2A26752  15.982  10.493   8.333
 1969POPC   C3A26753  16.093  10.740   8.008
 1969POPC   C4A26754  15.882  10.654   7.648
 1969POPC   C1B26755  15.535  10.353   8.801
 1969POPC   C2B26756  15.546  10.231   8.384
 1969POPC   C3B26757  15.544  10.484   8.024
 1969POPC   C4B26758  15.469  10.349   7.614
 1970POPC   NC326759   0.059  33.394   9.444
 1970POPC   PO426760   0.669  33.697   9.687
 1970POPC   GL126761   0.552  33.694   9.240
 1970POPC   GL226762   0.220  33.752   9.130
 1970POPC   C1A26763   0.580  33.676   8.792
 1970POPC   D2A26764   0.629  33.942   8.442
 1970POPC   C3A26765   0.744  33.806   8.023
 1970POPC   C4A26766   0.681  33.684   7.575
 1970POPC   C1B26767   0.175  33.993   8.741
 1970POPC   C2B26768   0.086  33.984   8.317
 1970POPC   C3B26769   0.227  33.828   7.940
 1970POPC   C4B26770   0.245  34.143   7.635
 1971POPC   NC326771  22.296  19.266   9.883
 1971POPC   PO426772  22.851  19.779   9.672
 1971POPC   GL126773  22.735  19.871   9.276
 1971POPC   GL226774  22.787  19.577   9.110
 1971POPC   C1A26775  22.954  20.034   8.915
 1971POPC   D2A26776  23.119  19.773   8.595
 1971POPC   C3A26777  22.898  19.825   8.187
 1971POPC   C4A26778  23.032  19.670   7.796
 1971POPC   C1B26779  22.746  19.349   8.728
 1971POPC   C2B26780  22.625  19.239   8.318
 1971POPC   C3B26781  22.478  19.552   8.042
 1971POPC   C4B26782  22.539  19.790   7.713
 1972POPC   NC326783  19.582  25.532   9.366
 1972POPC   PO426784  19.942  25.071   9.571
 1972POPC   GL126785  20.078  25.193   9.164
 1972POPC   GL226786  19.807  25.281   8.996
 1972POPC   C1A26787  20.201  25.086   8.751
 1972POPC   D2A26788  20.106  25.297   8.387
 1972POPC   C3A26789  20.140  25.138   7.978
 1972POPC   C4A26790  19.746  25.276   7.803
 1972POPC   C1B26791  19.550  25.451   8.684
 1972POPC   C2B26792  19.530  25.811   8.445
 1972POPC   C3B26793  19.438  25.780   8.015
 1972POPC   C4B26794  19.438  25.649   7.627
 1973POPC   NC326795  23.002  28.554   9.686
 1973POPC   PO426796  22.467  28.131   9.494
 1973POPC   GL126797  22.749  28.357   9.260
 1973POPC   GL226798  23.091  28.481   9.189
 1973POPC   C1A26799  22.741  28.352   8.832
 1973POPC   D2A26800  22.618  28.289   8.432
 1973POPC   C3A26801  22.936  28.435   8.166
 1973POPC   C4A26802  22.885  28.278   7.760
 1973POPC   C1B26803  23.254  28.352   8.761
 1973POPC   C2B26804  23.404  28.124   8.391
 1973POPC   C3B26805  23.337  28.168   7.964
 1973POPC   C4B26806  23.276  28.600   7.760
 1974POPC   NC326807   7.269   2.966   9.477
 1974POPC   PO426808   7.913   2.810   9.487
 1974POPC   GL126809   7.628   2.607   9.164
 1974POPC   GL226810   7.238   2.695   9.057
 1974POPC   C1A26811   7.527   2.459   8.730
 1974POPC   D2A26812   7.207   2.649   8.507
 1974POPC   C3A26813   7.344   2.672   8.082
 1974POPC   C4A26814   7.162   2.828   7.738
 1974POPC   C1B26815   7.509   2.987   8.826
 1974POPC   C2B26816   7.623   2.953   8.405
 1974POPC   C3B26817   7.597   3.119   7.941
 1974POPC   C4B26818   7.854   3.070   7.557
 1975POPC   NC326819   6.921  17.022   9.583
 1975POPC   PO426820   6.715  16.364   9.511
 1975POPC   GL126821   6.910  16.639   9.151
 1975POPC   GL226822   6.870  17.024   9.095
 1975POPC   C1A26823   6.757  16.732   8.703
 1975POPC   D2A26824   6.574  16.633   8.304
 1975POPC   C3A26825   6.831  16.717   7.940
 1975POPC   C4A26826   6.727  16.782   7.514
 1975POPC   C1B26827   6.406  16.994   8.987
 1975POPC   C2B26828   6.152  17.057   8.603
 1975POPC   C3B26829   6.197  16.978   8.170
 1975POPC   C4B26830   6.518  17.112   7.866
 1976POPC   NC326831  38.613  42.373   9.494
 1976POPC   PO426832  38.012  42.449   9.734
 1976POPC   GL126833  38.199  42.305   9.242
 1976POPC   GL226834  38.537  42.065   9.099
 1976POPC   C1A26835  38.263  42.375   8.794
 1976POPC   D2A26836  38.048  42.553   8.436
 1976POPC   C3A26837  38.254  42.354   8.072
 1976POPC   C4A26838  38.436  42.306   7.685
 1976POPC   C1B26839  38.776  42.124   8.679
 1976POPC   C2B26840  38.720  42.194   8.241
 1976POPC   C3B26841  38.925  42.304   7.864
 1976POPC   C4B26842  38.842  42.555   7.479
 1977POPC   NC326843   5.018  37.452   9.345
 1977POPC   PO426844   5.286  37.965   9.677
 1977POPC   GL126845   5.069  37.959   9.236
 1977POPC   GL226846   4.756  37.882   9.133
 1977POPC   C1A26847   5.130  37.900   8.749
 1977POPC   D2A26848   5.180  37.532   8.454
 1977POPC   C3A26849   5.386  37.639   8.064
 1977POPC   C4A26850   5.452  37.972   7.780
 1977POPC   C1B26851   4.730  37.576   8.768
 1977POPC   C2B26852   4.708  37.315   8.427
 1977POPC   C3B26853   4.769  37.483   8.055
 1977POPC   C4B26854   4.944  37.750   7.767
 1978POPC   NC326855  39.594  44.669   9.556
 1978POPC   PO426856  40.265  44.810   9.433
 1978POPC   GL126857  39.933  44.631   9.154
 1978POPC   GL226858  39.651  44.894   9.104
 1978POPC   C1A26859  39.974  44.359   8.756
 1978POPC   D2A26860  40.260  44.362   8.377
 1978POPC   C3A26861  40.014  44.316   7.991
 1978POPC   C4A26862  40.136  44.508   7.600
 1978POPC   C1B26863  39.795  44.840   8.720
 1978POPC   C2B26864  39.856  44.659   8.337
 1978POPC   C3B26865  40.082  44.820   8.007
 1978POPC   C4B26866  39.824  44.923   7.672
 1979POPC   NC326867   0.083  11.526   9.264
 1979POPC   PO426868   0.513  11.173   9.643
 1979POPC   GL126869   0.598  11.229   9.231
 1979POPC   GL226870   0.601  11.574   9.292
 1979POPC   C1A26871   0.395  11.118   8.847
 1979POPC   D2A26872   0.291  11.335   8.477
 1979POPC   C3A26873   0.525  11.137   8.179
 1979POPC   C4A26874   0.459  10.915   7.802
 1979POPC   C1B26875   0.584  11.608   8.846
 1979POPC   C2B26876   0.771  11.572   8.482
 1979POPC   C3B26877   0.824  11.577   8.068
 1979POPC   C4B26878   0.803  11.440   7.660
 1980POPC   NC326879  42.306  17.033   9.533
 1980POPC   PO426880  42.926  16.891   9.265
 1980POPC   GL126881  42.498  16.839   9.090
 1980POPC   GL226882  42.460  16.505   9.021
 1980POPC   C1A26883  42.265  16.835   8.692
 1980POPC   D2A26884  42.098  17.010   8.338
 1980POPC   C3A26885  42.181  16.924   7.934
 1980POPC   C4A26886  42.194  16.507   7.819
 1980POPC   C1B26887  42.687  16.560   8.672
 1980POPC   C2B26888  42.553  16.636   8.265
 1980POPC   C3B26889  42.709  16.521   7.907
 1980POPC   C4B26890  42.589  16.257   7.574
 1981POPC   NC326891  11.511  15.514   9.388
 1981POPC   PO426892  11.182  16.049   9.719
 1981POPC   GL126893  11.270  15.960   9.301
 1981POPC   GL226894  11.551  16.168   9.238
 1981POPC   C1A26895  11.040  15.970   8.895
 1981POPC   D2A26896  10.917  15.903   8.453
 1981POPC   C3A26897  11.137  16.139   8.130
 1981POPC   C4A26898  11.349  16.155   7.692
 1981POPC   C1B26899  11.540  15.906   8.872
 1981POPC   C2B26900  11.479  15.950   8.477
 1981POPC   C3B26901  11.608  15.940   8.067
 1981POPC   C4B26902  11.560  15.694   7.688
 1982POPC   NC326903  13.460  10.395   9.450
 1982POPC   PO426904  14.119  10.615   9.632
 1982POPC   GL126905  13.938  10.623   9.205
 1982POPC   GL226906  13.850  10.296   9.080
 1982POPC   C1A26907  13.767  10.701   8.776
 1982POPC   D2A26908  13.613  10.520   8.404
 1982POPC   C3A26909  13.810  10.610   7.987
 1982POPC   C4A26910  13.476  10.701   7.670
 1982POPC   C1B26911  13.679  10.092   8.716
 1982POPC   C2B26912  13.525  10.039   8.288
 1982POPC   C3B26913  13.465  10.252   7.927
 1982POPC   C4B26914  13.709  10.289   7.554
 1983POPC   NC326915  33.398  37.063   9.324
 1983POPC   PO426916  34.087  37.128   9.418
 1983POPC   GL126917  33.848  37.035   9.071
 1983POPC   GL226918  33.735  36.691   9.154
 1983POPC   C1A26919  33.550  36.963   8.718
 1983POPC   D2A26920  33.409  36.610   8.495
 1983POPC   C3A26921  33.446  36.770   8.080
 1983POPC   C4A26922  33.692  37.002   7.800
 1983POPC   C1B26923  33.920  36.610   8.748
 1983POPC   C2B26924  33.889  36.813   8.356
 1983POPC   C3B26925  34.080  36.711   7.998
 1983POPC   C4B26926  34.157  36.785   7.628
 1984POPC   NC326927  26.063   8.565   9.852
 1984POPC   PO426928  25.848   8.169   9.346
 1984POPC   GL126929  26.083   8.047   9.024
 1984POPC   GL226930  26.422   7.987   9.136
 1984POPC   C1A26931  26.012   8.149   8.598
 1984POPC   D2A26932  25.741   8.412   8.332
 1984POPC   C3A26933  25.797   8.277   7.913
 1984POPC   C4A26934  25.747   7.843   7.736
 1984POPC   C1B26935  26.452   8.314   8.803
 1984POPC   C2B26936  26.481   8.138   8.397
 1984POPC   C3B26937  26.374   8.012   7.995
 1984POPC   C4B26938  26.359   8.403   7.817
 1985POPC   NC326939   0.394   0.080   9.373
 1985POPC   PO426940   0.528  44.463   9.601
 1985POPC   GL126941   0.477  44.416   9.159
 1985POPC   GL226942   0.307  44.708   9.042
 1985POPC   C1A26943   0.460  44.326   8.718
 1985POPC   D2A26944   0.565  44.594   8.374
 1985POPC   C3A26945   0.300  44.550   8.099
 1985POPC   C4A26946   0.514  44.295   7.805
 1985POPC   C1B26947   0.144  44.735   8.639
 1985POPC   C2B26948  44.912  44.962   8.345
 1985POPC   C3B26949   0.063   0.060   7.959
 1985POPC   C4B26950   0.226  44.798   7.673
 1986POPC   NC326951   7.143  19.584   9.495
 1986POPC   PO426952   7.735  19.945   9.403
 1986POPC   GL126953   7.340  19.962   9.118
 1986POPC   GL226954   7.119  20.270   9.066
 1986POPC   C1A26955   7.335  19.821   8.734
 1986POPC   D2A26956   7.433  19.717   8.340
 1986POPC   C3A26957   7.618  19.391   8.179
 1986POPC   C4A26958   7.503  19.590   7.805
 1986POPC   C1B26959   7.084  20.251   8.613
 1986POPC   C2B26960   6.954  19.896   8.336
 1986POPC   C3B26961   7.031  19.814   7.860
 1986POPC   C4B26962   6.950  19.942   7.412
 1987POPC   NC326963  23.312  21.110   9.185
 1987POPC   PO426964  23.935  21.329   9.438
 1987POPC   GL126965  23.751  21.446   9.099
 1987POPC   GL226966  23.480  21.649   9.208
 1987POPC   C1A26967  23.872  21.441   8.696
 1987POPC   D2A26968  23.700  21.568   8.332
 1987POPC   C3A26969  23.960  21.368   8.078
 1987POPC   C4A26970  23.859  21.478   7.703
 1987POPC   C1B26971  23.391  21.603   8.757
 1987POPC   C2B26972  23.264  21.303   8.408
 1987POPC   C3B26973  23.433  21.278   7.957
 1987POPC   C4B26974  23.486  21.192   7.502
 1988POPC   NC326975  43.230  44.552   9.704
 1988POPC   PO426976  43.362   0.120   9.337
 1988POPC   GL126977  43.244  44.704   9.214
 1988POPC   GL226978  42.894  44.664   9.260
 1988POPC   C1A26979  43.201  44.507   8.838
 1988POPC   D2A26980  43.421  44.487   8.454
 1988POPC   C3A26981  43.243  44.713   8.130
 1988POPC   C4A26982  43.257  44.632   7.724
 1988POPC   C1B26983  42.702  44.689   8.861
 1988POPC   C2B26984  42.850  44.687   8.463
 1988POPC   C3B26985  42.773  44.544   8.071
 1988POPC   C4B26986  42.762  44.732   7.711
 1989POPC   NC326987  28.378  21.550   9.702
 1989POPC   PO426988  28.649  20.949   9.421
 1989POPC   GL126989  28.357  21.246   9.185
 1989POPC   GL226990  28.284  21.621   9.191
 1989POPC   C1A26991  28.090  21.284   8.789
 1989POPC   D2A26992  28.206  21.202   8.346
 1989POPC   C3A26993  28.033  21.376   8.000
 1989POPC   C4A26994  28.135  21.540   7.599
 1989POPC   C1B26995  28.440  21.645   8.768
 1989POPC   C2B26996  28.330  21.720   8.323
 1989POPC   C3B26997  28.524  21.571   7.932
 1989POPC   C4B26998  28.785  21.804   7.672
 1990POPC   NC326999   7.460  38.843   9.298
 1990POPC   PO427000   7.106  38.226   9.395
 1990POPC   GL127001   7.444  38.367   9.130
 1990POPC   GL227002   7.233  38.510   8.933
 1990POPC   C1A27003   7.695  38.437   8.752
 1990POPC   D2A27004   7.606  38.615   8.341
 1990POPC   C3A27005   7.509  38.343   7.963
 1990POPC   C4A27006   7.588  38.313   7.517
 1990POPC   C1B27007   7.161  38.766   8.592
 1990POPC   C2B27008   7.069  38.521   8.237
 1990POPC   C3B27009   7.056  38.536   7.806
 1990POPC   C4B27010   7.086  38.243   7.489
 1991POPC   NC327011  31.528   5.680   9.594
 1991POPC   PO427012  31.617   6.287   9.356
 1991POPC   GL127013  31.379   5.987   9.143
 1991POPC   GL227014  31.241   5.637   9.190
 1991POPC   C1A27015  31.504   6.061   8.716
 1991POPC   D2A27016  31.619   5.992   8.316
 1991POPC   C3A27017  31.613   6.262   7.978
 1991POPC   C4A27018  31.513   6.125   7.604
 1991POPC   C1B27019  31.379   5.554   8.802
 1991POPC   C2B27020  31.522   5.471   8.410
 1991POPC   C3B27021  31.439   5.613   8.013
 1991POPC   C4B27022  31.542   5.616   7.623
 1992POPC   NC327023  37.078   3.379   9.378
 1992POPC   PO427024  36.548   3.903   9.409
 1992POPC   GL127025  36.711   3.647   9.070
 1992POPC   GL227026  37.046   3.757   9.030
 1992POPC   C1A27027  36.828   3.583   8.609
 1992POPC   D2A27028  36.774   3.393   8.204
 1992POPC   C3A27029  36.706   3.667   7.857
 1992POPC   C4A27030  36.723   3.411   7.512
 1992POPC   C1B27031  37.323   3.693   8.716
 1992POPC   C2B27032  37.304   3.481   8.317
 1992POPC   C3B27033  37.187   3.535   7.886
 1992POPC   C4B27034  37.176   3.672   7.447
 1993POPC   NC327035  40.266  28.818   9.317
 1993POPC   PO427036  39.638  29.057   9.517
 1993POPC   GL127037  39.848  29.068   9.141
 1993POPC   GL227038  40.168  29.291   9.138
 1993POPC   C1A27039  39.917  28.994   8.723
 1993POPC   D2A27040  39.832  29.350   8.442
 1993POPC   C3A27041  39.850  29.214   8.014
 1993POPC   C4A27042  39.620  29.176   7.624
 1993POPC   C1B27043  40.314  29.317   8.710
 1993POPC   C2B27044  40.249  29.073   8.345
 1993POPC   C3B27045  40.366  29.159   7.960
 1993POPC   C4B27046  40.511  29.201   7.553
 1994POPC   NC327047  32.341  15.404   9.515
 1994POPC   PO427048  32.698  14.738   9.519
 1994POPC   GL127049  32.379  15.028   9.178
 1994POPC   GL227050  32.509  15.391   9.054
 1994POPC   C1A27051  32.301  15.134   8.688
 1994POPC   D2A27052  32.599  15.015   8.367
 1994POPC   C3A27053  32.534  15.254   7.995
 1994POPC   C4A27054  32.255  15.185   7.657
 1994POPC   C1B27055  32.194  15.637   8.801
 1994POPC   C2B27056  32.095  15.525   8.373
 1994POPC   C3B27057  32.181  15.600   7.930
 1994POPC   C4B27058  32.544  15.582   7.584
 1995POPC   NC327059  41.662  18.321   9.547
 1995POPC   PO427060  41.415  17.674   9.438
 1995POPC   GL127061  41.501  18.037   9.137
 1995POPC   GL227062  41.689  18.376   9.055
 1995POPC   C1A27063  41.564  18.077   8.687
 1995POPC   D2A27064  41.806  18.145   8.368
 1995POPC   C3A27065  41.574  18.113   8.038
 1995POPC   C4A27066  41.650  18.081   7.636
 1995POPC   C1B27067  41.765  18.581   8.663
 1995POPC   C2B27068  41.620  18.591   8.233
 1995POPC   C3B27069  41.684  18.642   7.792
 1995POPC   C4B27070  41.814  18.484   7.404
 1996POPC   NC327071  35.189  21.554   9.661
 1996POPC   PO427072  35.817  21.246   9.638
 1996POPC   GL127073  35.518  21.347   9.290
 1996POPC   GL227074  35.177  21.161   9.264
 1996POPC   C1A27075  35.354  21.487   8.878
 1996POPC   D2A27076  35.479  21.243   8.507
 1996POPC   C3A27077  35.498  21.406   8.092
 1996POPC   C4A27078  35.432  21.240   7.701
 1996POPC   C1B27079  34.996  21.127   8.819
 1996POPC   C2B27080  34.968  21.317   8.399
 1996POPC   C3B27081  34.988  21.194   7.957
 1996POPC   C4B27082  34.974  21.403   7.556
 1997POPC   NC327083   1.613  11.108   9.390
 1997POPC   PO427084   2.263  11.186   9.464
 1997POPC   GL127085   2.061  11.475   9.165
 1997POPC   GL227086   1.675  11.515   9.050
 1997POPC   C1A27087   2.073  11.320   8.761
 1997POPC   D2A27088   1.896  11.417   8.387
 1997POPC   C3A27089   2.092  11.291   8.011
 1997POPC   C4A27090   1.926  11.529   7.698
 1997POPC   C1B27091   1.507  11.176   8.776
 1997POPC   C2B27092   1.579  11.012   8.415
 1997POPC   C3B27093   1.579  11.177   8.007
 1997POPC   C4B27094   1.709  11.075   7.593
 1998POPC   NC327095   9.818  19.450   9.528
 1998POPC   PO427096   9.914  18.807   9.466
 1998POPC   GL127097   9.716  18.951   9.101
 1998POPC   GL227098   9.843  19.260   9.067
 1998POPC   C1A27099   9.622  18.999   8.667
 1998POPC   D2A27100   9.358  18.928   8.319
 1998POPC   C3A27101   9.489  18.939   7.895
 1998POPC   C4A27102   9.743  19.112   7.617
 1998POPC   C1B27103  10.095  19.344   8.742
 1998POPC   C2B27104   9.996  19.231   8.346
 1998POPC   C3B27105  10.128  19.133   7.950
 1998POPC   C4B27106  10.286  19.278   7.568
 1999POPC   NC327107  42.147   3.990   9.626
 1999POPC   PO427108  42.468   4.502   9.419
 1999POPC   GL127109  42.410   4.438   9.019
 1999POPC   GL227110  42.323   4.124   9.092
 1999POPC   C1A27111  42.315   4.271   8.605
 1999POPC   D2A27112  42.222   4.047   8.238
 1999POPC   C3A27113  42.230   4.340   7.874
 1999POPC   C4A27114  42.254   4.247   7.412
 1999POPC   C1B27115  42.700   4.022   8.817
 1999POPC   C2B27116  42.825   4.083   8.373
 1999POPC   C3B27117  42.670   4.141   7.973
 1999POPC   C4B27118  42.665   3.983   7.567
 2000POPC   NC327119   8.582   2.240   9.431
 2000POPC   PO427120   8.988   1.860   9.743
 2000POPC   GL127121   8.991   1.792   9.233
 2000POPC   GL227122   8.744   1.971   9.048
 2000POPC   C1A27123   9.110   1.728   8.768
 2000POPC   D2A27124   9.356   1.854   8.363
 2000POPC   C3A27125   9.162   1.683   7.981
 2000POPC   C4A27126   8.728   1.606   7.862
 2000POPC   C1B27127   8.855   2.184   8.672
 2000POPC   C2B27128   8.832   1.958   8.285
 2000POPC   C3B27129   8.896   2.113   7.883
 2000POPC   C4B27130   8.609   2.421   7.779
 2001POPC   NC327131  15.814   8.254   9.598
 2001POPC   PO427132  16.414   8.028   9.498
 2001POPC   GL127133  16.077   8.045   9.134
 2001POPC   GL227134  15.702   8.196   9.114
 2001POPC   C1A27135  16.153   8.097   8.665
 2001POPC   D2A27136  16.307   8.243   8.252
 2001POPC   C3A27137  16.086   8.033   7.899
 2001POPC   C4A27138  15.628   7.895   7.864
 2001POPC   C1B27139  15.698   8.323   8.695
 2001POPC   C2B27140  15.792   8.264   8.263
 2001POPC   C3B27141  15.771   8.436   7.844
 2001POPC   C4B27142  15.616   8.230   7.479
 2002POPC   NC327143  28.928  23.452   9.582
 2002POPC   PO427144  28.305  23.745   9.468
 2002POPC   GL127145  28.487  23.682   9.064
 2002POPC   GL227146  28.737  23.924   9.048
 2002POPC   C1A27147  28.339  23.748   8.631
 2002POPC   D2A27148  28.189  23.510   8.287
 2002POPC   C3A27149  28.347  23.523   7.853
 2002POPC   C4A27150  28.102  23.611   7.477
 2002POPC   C1B27151  28.829  23.895   8.632
 2002POPC   C2B27152  28.703  23.699   8.255
 2002POPC   C3B27153  28.841  23.979   7.948
 2002POPC   C4B27154  28.973  24.116   7.523
 2003POPC   NC327155  43.434  18.370   9.387
 2003POPC   PO427156  42.672  18.174   9.302
 2003POPC   GL127157  43.039  18.184   9.103
 2003POPC   GL227158  43.050  18.510   9.015
 2003POPC   C1A27159  43.126  18.045   8.692
 2003POPC   D2A27160  42.840  17.998   8.351
 2003POPC   C3A27161  43.031  18.113   7.989
 2003POPC   C4A27162  42.866  18.067   7.597
 2003POPC   C1B27163  43.421  18.457   8.726
 2003POPC   C2B27164  43.425  18.271   8.321
 2003POPC   C3B27165  43.502  18.480   7.957
 2003POPC   C4B27166  43.169  18.507   7.680
 2004POPC   NC327167   7.112   3.725   9.398
 2004POPC   PO427168   6.533   3.438   9.474
 2004POPC   GL127169   6.546   3.410   9.040
 2004POPC   GL227170   6.818   3.638   9.000
 2004POPC   C1A27171   6.493   3.561   8.606
 2004POPC   D2A27172   6.725   3.850   8.328
 2004POPC   C3A27173   6.496   3.850   7.933
 2004POPC   C4A27174   6.245   3.484   7.807
 2004POPC   C1B27175   7.053   3.319   8.803
 2004POPC   C2B27176   6.817   3.178   8.456
 2004POPC   C3B27177   6.705   3.366   8.056
 2004POPC   C4B27178   6.963   3.291   7.693
 2005POPC   NC327179  11.026  12.988   9.432
 2005POPC   PO427180  11.421  12.406   9.387
 2005POPC   GL127181  11.266  12.706   9.076
 2005POPC   GL227182  10.946  12.886   8.960
 2005POPC   C1A27183  11.247  12.610   8.669
 2005POPC   D2A27184  11.494  12.658   8.361
 2005POPC   C3A27185  11.269  12.710   7.988
 2005POPC   C4A27186  11.418  12.570   7.594
 2005POPC   C1B27187  11.213  13.136   8.763
 2005POPC   C2B27188  11.164  13.067   8.366
 2005POPC   C3B27189  11.042  13.240   8.010
 2005POPC   C4B27190  11.042  13.036   7.661
 2006POPC   NC327191   1.399   6.462   9.625
 2006POPC   PO427192   1.405   7.104   9.411
 2006POPC   GL127193   1.318   6.736   9.157
 2006POPC   GL227194   1.055   6.475   9.220
 2006POPC   C1A27195   1.332   6.675   8.726
 2006POPC   D2A27196   1.265   6.917   8.379
 2006POPC   C3A27197   1.422   6.741   8.033
 2006POPC   C4A27198   1.302   6.915   7.661
 2006POPC   C1B27199   1.067   6.254   8.833
 2006POPC   C2B27200   1.273   6.201   8.455
 2006POPC   C3B27201   1.093   6.290   8.068
 2006POPC   C4B27202   1.129   6.449   7.676
 2007POPC   NC327203  14.824  39.190   9.527
 2007POPC   PO427204  14.124  39.457   9.534
 2007POPC   GL127205  14.238  39.345   9.083
 2007POPC   GL227206  14.629  39.324   9.045
 2007POPC   C1A27207  14.316  39.403   8.626
 2007POPC   D2A27208  14.349  39.499   8.164
 2007POPC   C3A27209  14.194  39.311   7.760
 2007POPC   C4A27210  14.302  39.493   7.333
 2007POPC   C1B27211  14.703  39.052   8.729
 2007POPC   C2B27212  14.517  39.026   8.325
 2007POPC   C3B27213  14.692  39.141   7.963
 2007POPC   C4B27214  14.606  39.106   7.540
 2008POPC   NC327215  17.373  21.960   9.660
 2008POPC   PO427216  17.650  22.489   9.570
 2008POPC   GL127217  17.469  22.370   9.173
 2008POPC   GL227218  17.411  21.999   9.163
 2008POPC   C1A27219  17.497  22.321   8.742
 2008POPC   D2A27220  17.586  22.021   8.436
 2008POPC   C3A27221  17.483  22.200   8.051
 2008POPC   C4A27222  17.544  22.238   7.634
 2008POPC   C1B27223  17.153  21.962   8.835
 2008POPC   C2B27224  17.108  21.873   8.411
 2008POPC   C3B27225  17.317  21.717   8.072
 2008POPC   C4B27226  17.565  21.751   7.717
 2009POPC   NC327227  13.090  44.553   9.445
 2009POPC   PO427228  12.493  44.218   9.459
 2009POPC   GL127229  12.705  44.436   9.112
 2009POPC   GL227230  12.763  44.832   9.129
 2009POPC   C1A27231  12.653  44.605   8.695
 2009POPC   D2A27232  12.968  44.786   8.449
 2009POPC   C3A27233  12.922  44.509   8.127
 2009POPC   C4A27234  12.914  44.502   7.705
 2009POPC   C1B27235  12.685   0.120   8.763
 2009POPC   C2B27236  12.516   0.034   8.332
 2009POPC   C3B27237  12.537  44.767   7.927
 2009POPC   C4B27238  12.699  44.911   7.472
 2010POPC   NC327239  16.443  25.671   9.560
 2010POPC   PO427240  16.960  26.147   9.513
 2010POPC   GL127241  16.800  25.917   9.206
 2010POPC   GL227242  16.478  26.016   9.176
 2010POPC   C1A27243  16.793  26.126   8.800
 2010POPC   D2A27244  17.010  26.239   8.462
 2010POPC   C3A27245  16.896  26.047   8.091
 2010POPC   C4A27246  16.763  26.197   7.727
 2010POPC   C1B27247  16.348  25.921   8.721
 2010POPC   C2B27248  16.427  26.139   8.311
 2010POPC   C3B27249  16.311  26.027   7.866
 2010POPC   C4B27250  16.489  25.789   7.482
 2011POPC   NC327251  39.880  16.550   9.547
 2011POPC   PO427252  40.251  17.021   9.695
 2011POPC   GL127253  40.198  16.846   9.255
 2011POPC   GL227254  40.274  16.475   9.219
 2011POPC   C1A27255  40.004  16.722   8.836
 2011POPC   D2A27256  39.758  16.758   8.440
 2011POPC   C3A27257  39.986  16.802   8.041
 2011POPC   C4A27258  39.976  16.960   7.609
 2011POPC   C1B27259  40.225  16.232   8.846
 2011POPC   C2B27260  40.059  16.311   8.426
 2011POPC   C3B27261  40.246  16.349   7.997
 2011POPC   C4B27262  40.028  16.421   7.590
 2012POPC   NC327263  29.652  13.892   9.373
 2012POPC   PO427264  30.265  14.115   9.395
 2012POPC   GL127265  30.225  13.714   9.092
 2012POPC   GL227266  30.026  13.377   9.104
 2012POPC   C1A27267  30.111  13.646   8.657
 2012POPC   D2A27268  29.999  13.965   8.330
 2012POPC   C3A27269  29.843  13.867   7.913
 2012POPC   C4A27270  30.054  13.655   7.562
 2012POPC   C1B27271  30.120  13.104   8.714
 2012POPC   C2B27272  30.053  13.213   8.274
 2012POPC   C3B27273  29.837  13.358   7.896
 2012POPC   C4B27274  29.803  13.255   7.402
 2013POPC   NC327275  40.290  32.668   9.570
 2013POPC   PO427276  40.379  31.917   9.536
 2013POPC   GL127277  40.135  32.151   9.153
 2013POPC   GL227278  39.857  32.410   9.231
 2013POPC   C1A27279  40.122  32.096   8.656
 2013POPC   D2A27280  40.270  31.988   8.199
 2013POPC   C3A27281  40.106  32.154   7.803
 2013POPC   C4A27282  40.061  31.958   7.409
 2013POPC   C1B27283  39.835  32.498   8.785
 2013POPC   C2B27284  39.707  32.255   8.405
 2013POPC   C3B27285  39.582  32.297   8.001
 2013POPC   C4B27286  39.619  32.118   7.582
 2014POPC   NC327287   8.922  10.241   9.788
 2014POPC   PO427288   9.191  10.723   9.369
 2014POPC   GL127289   9.004  10.637   9.025
 2014POPC   GL227290   8.735  10.415   9.043
 2014POPC   C1A27291   9.066  10.499   8.649
 2014POPC   D2A27292   8.964  10.667   8.293
 2014POPC   C3A27293   9.194  10.452   8.027
 2014POPC   C4A27294   9.095  10.232   7.695
 2014POPC   C1B27295   8.598  10.717   8.727
 2014POPC   C2B27296   8.488  10.885   8.350
 2014POPC   C3B27297   8.702  11.016   8.018
 2014POPC   C4B27298   8.795  10.654   7.758
 2015POPC   NC327299  37.949  29.183   9.522
 2015POPC   PO427300  38.672  29.201   9.492
 2015POPC   GL127301  38.341  29.224   9.183
 2015POPC   GL227302  38.112  28.989   9.023
 2015POPC   C1A27303  38.328  29.404   8.777
 2015POPC   D2A27304  38.627  29.379   8.426
 2015POPC   C3A27305  38.387  29.313   8.051
 2015POPC   C4A27306  38.610  29.194   7.694
 2015POPC   C1B27307  38.462  28.904   8.775
 2015POPC   C2B27308  38.426  28.894   8.348
 2015POPC   C3B27309  38.596  28.743   7.978
 2015POPC   C4B27310  38.763  28.740   7.574
 2016POPC   NC327311  24.318   9.444   9.327
 2016POPC   PO427312  24.834   9.034   9.413
 2016POPC   GL127313  24.571   8.824   9.123
 2016POPC   GL227314  24.324   9.036   9.016
 2016POPC   C1A27315  24.467   8.655   8.703
 2016POPC   D2A27316  24.304   8.922   8.365
 2016POPC   C3A27317  24.427   8.897   7.916
 2016POPC   C4A27318  24.287   9.105   7.538
 2016POPC   C1B27319  24.688   9.128   8.722
 2016POPC   C2B27320  24.810   9.063   8.255
 2016POPC   C3B27321  24.725   9.322   7.874
 2016POPC   C4B27322  24.610   9.480   7.447
 2017POPC   NC327323  24.913  19.257   9.383
 2017POPC   PO427324  24.294  18.858   9.435
 2017POPC   GL127325  24.586  18.985   9.083
 2017POPC   GL227326  24.538  19.350   9.035
 2017POPC   C1A27327  24.649  19.069   8.627
 2017POPC   D2A27328  24.463  19.034   8.209
 2017POPC   C3A27329  24.622  18.808   7.826
 2017POPC   C4A27330  24.391  18.464   7.560
 2017POPC   C1B27331  24.693  19.579   8.644
 2017POPC   C2B27332  24.826  19.438   8.230
 2017POPC   C3B27333  24.961  19.288   7.829
 2017POPC   C4B27334  24.668  19.199   7.491
 2018POPC   NC327335  25.062  36.172   9.618
 2018POPC   PO427336  25.422  36.726   9.544
 2018POPC   GL127337  25.486  36.315   9.226
 2018POPC   GL227338  25.146  36.154   9.115
 2018POPC   C1A27339  25.519  36.069   8.780
 2018POPC   D2A27340  25.254  35.973   8.389
 2018POPC   C3A27341  25.473  36.006   8.010
 2018POPC   C4A27342  25.487  36.148   7.567
 2018POPC   C1B27343  25.070  35.778   8.812
 2018POPC   C2B27344  24.861  35.621   8.453
 2018POPC   C3B27345  24.823  35.852   8.104
 2018POPC   C4B27346  25.025  36.042   7.805
 2019POPC   NC327347   0.026  13.090   9.896
 2019POPC   PO427348  44.528  12.788   9.497
 2019POPC   GL127349  44.634  13.045   9.150
 2019POPC   GL227350  44.991  13.061   8.985
 2019POPC   C1A27351  44.550  12.938   8.734
 2019POPC   D2A27352  44.828  13.026   8.421
 2019POPC   C3A27353  44.634  12.956   8.039
 2019POPC   C4A27354  44.850  13.019   7.654
 2019POPC   C1B27355   0.059  12.713   8.804
 2019POPC   C2B27356  44.827  12.534   8.530
 2019POPC   C3B27357  44.848  12.406   8.125
 2019POPC   C4B27358  44.859  12.538   7.755
 2020POPC   NC327359  35.782  32.284   9.504
 2020POPC   PO427360  35.081  31.996   9.447
 2020POPC   GL127361  35.385  32.017   9.132
 2020POPC   GL227362  35.491  32.363   9.083
 2020POPC   C1A27363  35.285  32.109   8.707
 2020POPC   D2A27364  35.464  32.080   8.338
 2020POPC   C3A27365  35.140  32.180   8.129
 2020POPC   C4A27366  35.228  32.058   7.749
 2020POPC   C1B27367  35.696  32.472   8.702
 2020POPC   C2B27368  35.840  32.424   8.280
 2020POPC   C3B27369  35.543  32.436   7.950
 2020POPC   C4B27370  35.533  32.692   7.599
 2021POPC   NC327371  12.050  41.264   9.473
 2021POPC   PO427372  12.421  40.667   9.393
 2021POPC   GL127373  12.205  40.701   9.067
 2021POPC   GL227374  11.954  40.953   9.087
 2021POPC   C1A27375  12.262  40.801   8.668
 2021POPC   D2A27376  12.067  40.955   8.339
 2021POPC   C3A27377  12.191  40.783   7.960
 2021POPC   C4A27378  12.191  40.890   7.541
 2021POPC   C1B27379  11.750  40.680   8.812
 2021POPC   C2B27380  11.704  40.422   8.456
 2021POPC   C3B27381  11.732  40.632   8.105
 2021POPC   C4B27382  11.765  40.610   7.684
 2022POPC   NC327383  17.949  13.187   9.172
 2022POPC   PO427384  18.481  12.891   9.572
 2022POPC   GL127385  18.334  12.858   9.171
 2022POPC   GL227386  18.626  12.982   9.073
 2022POPC   C1A27387  18.267  12.767   8.736
 2022POPC   D2A27388  18.107  12.565   8.371
 2022POPC   C3A27389  18.264  12.781   8.026
 2022POPC   C4A27390  18.102  13.061   7.733
 2022POPC   C1B27391  18.798  12.727   8.739
 2022POPC   C2B27392  18.678  12.532   8.351
 2022POPC   C3B27393  18.781  12.781   8.002
 2022POPC   C4B27394  18.597  12.872   7.633
 2023POPC   NC327395  41.118  10.638   9.346
 2023POPC   PO427396  40.569  10.224   9.502
 2023POPC   GL127397  40.476  10.418   9.092
 2023POPC   GL227398  40.759  10.666   8.974
 2023POPC   C1A27399  40.484  10.430   8.639
 2023POPC   D2A27400  40.579  10.637   8.286
 2023POPC   C3A27401  40.909  10.382   8.208
 2023POPC   C4A27402  41.038  10.148   7.860
 2023POPC   C1B27403  40.993  10.849   8.591
 2023POPC   C2B27404  41.134  10.842   8.158
 2023POPC   C3B27405  40.988  10.656   7.774
 2023POPC   C4B27406  41.187  10.667   7.328
 2024POPC   NC327407   8.559  33.008   9.351
 2024POPC   PO427408   9.239  32.885   9.402
 2024POPC   GL127409   9.180  33.099   9.066
 2024POPC   GL227410   8.968  33.307   9.197
 2024POPC   C1A27411   9.041  32.962   8.684
 2024POPC   D2A27412   8.921  32.781   8.284
 2024POPC   C3A27413   9.140  32.989   7.977
 2024POPC   C4A27414   9.081  33.309   7.688
 2024POPC   C1B27415   8.762  33.392   8.829
 2024POPC   C2B27416   8.763  33.295   8.406
 2024POPC   C3B27417   8.689  33.249   7.996
 2024POPC   C4B27418   8.591  33.453   7.598
 2025POPC   NC327419  37.619  27.424   9.604
 2025POPC   PO427420  37.386  28.073   9.577
 2025POPC   GL127421  37.478  27.800   9.190
 2025POPC   GL227422  37.602  27.425   9.096
 2025POPC   C1A27423  37.326  27.694   8.770
 2025POPC   D2A27424  37.502  27.349   8.517
 2025POPC   C3A27425  37.458  27.359   8.061
 2025POPC   C4A27426  37.462  27.736   7.790
 2025POPC   C1B27427  37.829  27.671   8.812
 2025POPC   C2B27428  37.960  27.570   8.413
 2025POPC   C3B27429  37.905  27.609   8.006
 2025POPC   C4B27430  38.136  27.543   7.657
 2026POPC   NC327431  36.560  35.241   9.475
 2026POPC   PO427432  37.163  35.569   9.474
 2026POPC   GL127433  36.891  35.471   9.130
 2026POPC   GL227434  36.866  35.083   9.091
 2026POPC   C1A27435  36.882  35.404   8.665
 2026POPC   D2A27436  36.771  35.535   8.246
 2026POPC   C3A27437  36.804  35.233   7.906
 2026POPC   C4A27438  36.860  35.519   7.585
 2026POPC   C1B27439  37.286  35.218   8.925
 2026POPC   C2B27440  37.383  35.193   8.503
 2026POPC   C3B27441  37.262  35.295   8.117
 2026POPC   C4B27442  37.343  35.239   7.688
 2027POPC   NC327443  15.301  32.580   9.764
 2027POPC   PO427444  15.072  31.922   9.634
 2027POPC   GL127445  15.056  31.901   9.169
 2027POPC   GL227446  15.258  32.209   9.200
 2027POPC   C1A27447  15.156  31.997   8.707
 2027POPC   D2A27448  15.413  32.349   8.568
 2027POPC   C3A27449  15.407  32.394   8.113
 2027POPC   C4A27450  15.405  32.082   7.813
 2027POPC   C1B27451  15.000  32.429   8.910
 2027POPC   C2B27452  14.908  32.450   8.491
 2027POPC   C3B27453  14.678  32.541   8.145
 2027POPC   C4B27454  14.916  32.285   7.854
 2028POPC   NC327455  40.501  36.529   9.883
 2028POPC   PO427456  40.331  36.067   9.384
 2028POPC   GL127457  40.528  36.232   9.042
 2028POPC   GL227458  40.811  36.310   9.270
 2028POPC   C1A27459  40.551  36.140   8.594
 2028POPC   D2A27460  40.785  35.912   8.295
 2028POPC   C3A27461  40.833  36.074   7.885
 2028POPC   C4A27462  41.053  35.972   7.531
 2028POPC   C1B27463  40.970  36.376   8.826
 2028POPC   C2B27464  40.964  36.567   8.384
 2028POPC   C3B27465  41.140  36.480   7.959
 2028POPC   C4B27466  40.987  36.470   7.508
 2029POPC   NC327467  28.340   0.183   9.549
 2029POPC   PO427468  28.366   0.864   9.517
 2029POPC   GL127469  28.188   0.585   9.193
 2029POPC   GL227470  27.989   0.252   9.176
 2029POPC   C1A27471  28.217   0.695   8.762
 2029POPC   D2A27472  28.453   0.550   8.423
 2029POPC   C3A27473  28.351   0.685   8.020
 2029POPC   C4A27474  28.439   0.434   7.704
 2029POPC   C1B27475  28.312   0.211   8.880
 2029POPC   C2B27476  28.110   0.206   8.524
 2029POPC   C3B27477  28.189   0.191   8.088
 2029POPC   C4B27478  28.290  44.943   7.734
 2030POPC   NC327479  33.919  33.591   9.675
 2030POPC   PO427480  33.822  32.902   9.496
 2030POPC   GL127481  33.892  33.255   9.222
 2030POPC   GL227482  33.615  33.114   9.043
 2030POPC   C1A27483  34.018  33.225   8.771
 2030POPC   D2A27484  33.660  33.095   8.501
 2030POPC   C3A27485  33.779  33.099   8.073
 2030POPC   C4A27486  33.785  32.984   7.629
 2030POPC   C1B27487  33.367  32.810   8.846
 2030POPC   C2B27488  33.438  32.602   8.481
 2030POPC   C3B27489  33.367  32.827   8.163
 2030POPC   C4B27490  33.328  32.817   7.757
 2031POPC   NC327491  24.802  11.780   9.422
 2031POPC   PO427492  25.355  12.190   9.477
 2031POPC   GL127493  25.220  12.125   9.110
 2031POPC   GL227494  25.242  11.748   9.144
 2031POPC   C1A27495  25.325  12.281   8.719
 2031POPC   D2A27496  25.168  12.266   8.312
 2031POPC   C3A27497  25.412  12.248   7.950
 2031POPC   C4A27498  25.099  12.366   7.675
 2031POPC   C1B27499  25.096  11.825   8.714
 2031POPC   C2B27500  25.091  11.691   8.300
 2031POPC   C3B27501  24.994  11.915   7.946
 2031POPC   C4B27502  25.088  11.883   7.530
 2032POPC   NC327503  29.507  14.879   9.453
 2032POPC   PO427504  30.194  15.110   9.469
 2032POPC   GL127505  30.205  15.212   9.091
 2032POPC   GL227506  29.833  15.155   9.078
 2032POPC   C1A27507  30.138  15.465   8.772
 2032POPC   D2A27508  30.077  15.325   8.393
 2032POPC   C3A27509  29.971  15.566   8.047
 2032POPC   C4A27510  29.781  15.319   7.736
 2032POPC   C1B27511  29.662  15.298   8.686
 2032POPC   C2B27512  29.583  15.265   8.227
 2032POPC   C3B27513  29.334  15.138   7.847
 2032POPC   C4B27514  29.380  15.300   7.405
 2033POPC   NC327515  43.711   4.493   9.489
 2033POPC   PO427516  43.764   3.798   9.425
 2033POPC   GL127517  43.757   4.154   9.102
 2033POPC   GL227518  43.994   4.469   9.052
 2033POPC   C1A27519  43.651   4.375   8.722
 2033POPC   D2A27520  43.781   4.648   8.405
 2033POPC   C3A27521  43.600   4.498   8.028
 2033POPC   C4A27522  43.636   4.531   7.601
 2033POPC   C1B27523  44.143   4.184   8.730
 2033POPC   C2B27524  44.203   4.182   8.279
 2033POPC   C3B27525  44.096   4.452   7.934
 2033POPC   C4B27526  44.092   4.394   7.473
 2034POPC   NC327527  20.050  40.883   9.447
 2034POPC   PO427528  19.741  40.273   9.582
 2034POPC   GL127529  19.624  40.443   9.124
 2034POPC   GL227530  19.878  40.672   9.025
 2034POPC   C1A27531  19.640  40.467   8.642
 2034POPC   D2A27532  19.930  40.631   8.376
 2034POPC   C3A27533  19.767  40.645   8.005
 2034POPC   C4A27534  19.922  40.651   7.609
 2034POPC   C1B27535  19.787  40.977   8.727
 2034POPC   C2B27536  19.979  41.131   8.322
 2034POPC   C3B27537  19.882  41.135   7.867
 2034POPC   C4B27538  19.592  41.097   7.488
 2035POPC   NC327539   3.173   6.587   9.550
 2035POPC   PO427540   3.807   6.705   9.794
 2035POPC   GL127541   3.725   6.741   9.313
 2035POPC   GL227542   3.418   6.623   9.104
 2035POPC   C1A27543   3.848   6.665   8.865
 2035POPC   D2A27544   3.868   6.405   8.487
 2035POPC   C3A27545   3.540   6.509   8.196
 2035POPC   C4A27546   3.573   6.455   7.756
 2035POPC   C1B27547   3.260   6.663   8.688
 2035POPC   C2B27548   3.148   6.882   8.322
 2035POPC   C3B27549   3.130   6.703   7.936
 2035POPC   C4B27550   3.213   6.748   7.525
 2036POPC   NC327551  41.349  24.114   9.752
 2036POPC   PO427552  41.818  24.485   9.441
 2036POPC   GL127553  41.457  24.552   9.212
 2036POPC   GL227554  41.373  24.224   9.142
 2036POPC   C1A27555  41.483  24.628   8.772
 2036POPC   D2A27556  41.764  24.719   8.440
 2036POPC   C3A27557  41.628  24.726   8.017
 2036POPC   C4A27558  41.849  24.461   7.764
 2036POPC   C1B27559  41.243  24.193   8.687
 2036POPC   C2B27560  41.367  24.327   8.244
 2036POPC   C3B27561  41.371  24.308   7.756
 2036POPC   C4B27562  41.383  24.044   7.328
 2037POPC   NC327563  30.569   8.860   9.494
 2037POPC   PO427564  30.853   9.415   9.606
 2037POPC   GL127565  30.881   9.180   9.225
 2037POPC   GL227566  30.534   9.215   9.155
 2037POPC   C1A27567  30.782   8.894   8.875
 2037POPC   D2A27568  30.625   8.867   8.460
 2037POPC   C3A27569  30.905   8.903   8.111
 2037POPC   C4A27570  30.781   8.942   7.685
 2037POPC   C1B27571  30.335   9.207   8.767
 2037POPC   C2B27572  30.454   9.330   8.361
 2037POPC   C3B27573  30.418   9.158   7.973
 2037POPC   C4B27574  30.311   9.023   7.570
 2038POPC   NC327575  26.351   3.755   9.445
 2038POPC   PO427576  25.918   3.272   9.203
 2038POPC   GL127577  26.055   3.622   9.025
 2038POPC   GL227578  25.845   3.827   9.190
 2038POPC   C1A27579  26.215   3.634   8.618
 2038POPC   D2A27580  26.255   3.304   8.355
 2038POPC   C3A27581  25.879   3.216   8.174
 2038POPC   C4A27582  25.757   3.375   7.769
 2038POPC   C1B27583  25.623   3.807   8.791
 2038POPC   C2B27584  25.766   3.747   8.381
 2038POPC   C3B27585  26.090   3.717   8.090
 2038POPC   C4B27586  26.012   3.859   7.702
 2039POPC   NC327587  29.118  44.760   9.502
 2039POPC   PO427588  29.404  44.149   9.399
 2039POPC   GL127589  29.117  44.425   9.114
 2039POPC   GL227590  29.312  44.735   9.043
 2039POPC   C1A27591  29.034  44.602   8.646
 2039POPC   D2A27592  29.060  44.875   8.235
 2039POPC   C3A27593  29.211  44.778   7.792
 2039POPC   C4A27594  29.204  44.411   7.481
 2039POPC   C1B27595  29.496  44.423   8.786
 2039POPC   C2B27596  29.662  44.466   8.394
 2039POPC   C3B27597  29.538  44.448   7.987
 2039POPC   C4B27598  29.691  44.464   7.569
 2040POPC   NC327599  20.510  29.530   9.322
 2040POPC   PO427600  20.172  28.960   9.257
 2040POPC   GL127601  20.424  29.148   9.000
 2040POPC   GL227602  20.711  29.060   9.172
 2040POPC   C1A27603  20.398  29.282   8.601
 2040POPC   D2A27604  20.152  29.101   8.304
 2040POPC   C3A27605  20.222  29.204   7.909
 2040POPC   C4A27606  20.496  28.963   7.737
 2040POPC   C1B27607  20.881  29.125   8.753
 2040POPC   C2B27608  21.025  29.177   8.337
 2040POPC   C3B27609  20.976  29.019   7.933
 2040POPC   C4B27610  20.762  29.389   7.819
 2041POPC   NC327611   3.929  38.739   9.468
 2041POPC   PO427612   4.585  38.474   9.643
 2041POPC   GL127613   4.385  38.548   9.239
 2041POPC   GL227614   4.380  38.236   9.051
 2041POPC   C1A27615   4.365  38.754   8.831
 2041POPC   D2A27616   4.614  38.906   8.467
 2041POPC   C3A27617   4.344  38.858   8.096
 2041POPC   C4A27618   3.926  38.770   7.879
 2041POPC   C1B27619   4.199  38.290   8.640
 2041POPC   C2B27620   3.956  38.254   8.261
 2041POPC   C3B27621   4.247  38.389   7.942
 2041POPC   C4B27622   4.610  38.308   7.663
 2042POPC   NC327623  17.723  23.591   9.466
 2042POPC   PO427624  17.095  23.757   9.585
 2042POPC   GL127625  17.338  23.828   9.214
 2042POPC   GL227626  17.419  23.484   9.074
 2042POPC   C1A27627  17.558  23.921   8.823
 2042POPC   D2A27628  17.526  23.759   8.401
 2042POPC   C3A27629  17.487  24.082   8.074
 2042POPC   C4A27630  17.482  23.902   7.687
 2042POPC   C1B27631  17.599  23.302   8.725
 2042POPC   C2B27632  17.539  23.045   8.386
 2042POPC   C3B27633  17.582  23.318   8.050
 2042POPC   C4B27634  17.428  23.368   7.654
 2043POPC   NC327635  16.105  44.377   9.828
 2043POPC   PO427636  15.618  44.625   9.481
 2043POPC   GL127637  15.695  44.740   9.034
 2043POPC   GL227638  16.049  44.845   9.017
 2043POPC   C1A27639  15.818  44.687   8.592
 2043POPC   D2A27640  15.958  44.751   8.172
 2043POPC   C3A27641  15.662  44.697   7.824
 2043POPC   C4A27642  15.640  44.373   7.514
 2043POPC   C1B27643  16.204   0.128   8.660
 2043POPC   C2B27644  16.320   0.138   8.212
 2043POPC   C3B27645  16.369  44.895   7.796
 2043POPC   C4B27646  16.476  44.682   7.383
 2044POPC   NC327647  17.922  18.913   9.402
 2044POPC   PO427648  18.446  19.347   9.445
 2044POPC   GL127649  18.279  19.152   9.123
 2044POPC   GL227650  18.023  19.392   9.067
 2044POPC   C1A27651  18.349  18.898   8.768
 2044POPC   D2A27652  18.160  18.737   8.389
 2044POPC   C3A27653  18.352  18.790   7.991
 2044POPC   C4A27654  18.169  18.905   7.624
 2044POPC   C1B27655  18.335  19.478   8.745
 2044POPC   C2B27656  18.314  19.249   8.374
 2044POPC   C3B27657  18.127  19.250   7.997
 2044POPC   C4B27658  18.317  19.404   7.662
 2045POPC   NC327659  33.565   3.073   9.366
 2045POPC   PO427660  33.764   3.685   9.586
 2045POPC   GL127661  33.862   3.466   9.190
 2045POPC   GL227662  33.511   3.497   9.066
 2045POPC   C1A27663  33.890   3.380   8.737
 2045POPC   D2A27664  33.729   3.263   8.321
 2045POPC   C3A27665  33.983   3.393   8.013
 2045POPC   C4A27666  34.029   3.395   7.577
 2045POPC   C1B27667  33.529   3.905   8.818
 2045POPC   C2B27668  33.501   4.102   8.380
 2045POPC   C3B27669  33.372   3.924   7.980
 2045POPC   C4B27670  33.575   3.573   7.762
 2046POPC   NC327671  37.927   3.245   9.412
 2046POPC   PO427672  37.401   3.731   9.412
 2046POPC   GL127673  37.522   3.423   9.121
 2046POPC   GL227674  37.829   3.585   9.054
 2046POPC   C1A27675  37.619   3.284   8.703
 2046POPC   D2A27676  37.891   3.364   8.356
 2046POPC   C3A27677  37.698   3.393   7.968
 2046POPC   C4A27678  37.441   3.140   7.715
 2046POPC   C1B27679  37.822   3.774   8.672
 2046POPC   C2B27680  37.569   3.918   8.321
 2046POPC   C3B27681  37.579   3.874   7.885
 2046POPC   C4B27682  37.993   3.754   7.721
 2047POPC   NC327683  27.076  39.736   9.928
 2047POPC   PO427684  26.615  40.030   9.521
 2047POPC   GL127685  26.558  40.066   9.121
 2047POPC   GL227686  26.649  39.746   8.948
 2047POPC   C1A27687  26.834  40.202   8.801
 2047POPC   D2A27688  26.805  39.984   8.435
 2047POPC   C3A27689  26.679  40.073   8.039
 2047POPC   C4A27690  26.977  40.259   7.760
 2047POPC   C1B27691  27.054  39.645   8.713
 2047POPC   C2B27692  27.296  39.391   8.444
 2047POPC   C3B27693  27.154  39.356   8.010
 2047POPC   C4B27694  26.999  39.735   7.802
 2048POPC   NC327695  27.992  37.125   9.549
 2048POPC   PO427696  27.448  36.767   9.655
 2048POPC   GL127697  27.502  36.966   9.239
 2048POPC   GL227698  27.849  37.089   9.071
 2048POPC   C1A27699  27.463  36.936   8.797
 2048POPC   D2A27700  27.583  37.156   8.450
 2048POPC   C3A27701  27.633  36.881   8.127
 2048POPC   C4A27702  27.633  36.781   7.705
 2048POPC   C1B27703  28.072  37.178   8.677
 2048POPC   C2B27704  28.083  37.182   8.224
 2048POPC   C3B27705  27.820  37.267   7.875
 2048POPC   C4B27706  27.756  37.288   7.397
 2049POPC   NC327707   7.085  28.381   9.814
 2049POPC   PO427708   7.694  28.238   9.464
 2049POPC   GL127709   7.487  28.379   9.110
 2049POPC   GL227710   7.415  28.759   9.117
 2049POPC   C1A27711   7.344  28.167   8.760
 2049POPC   D2A27712   7.316  28.001   8.373
 2049POPC   C3A27713   7.386  28.267   8.070
 2049POPC   C4A27714   7.251  28.327   7.672
 2049POPC   C1B27715   7.604  28.680   8.686
 2049POPC   C2B27716   7.785  28.636   8.253
 2049POPC   C3B27717   7.481  28.748   7.939
 2049POPC   C4B27718   7.021  28.696   7.952
 2050POPC   NC327719  34.067  17.885   9.470
 2050POPC   PO427720  33.894  18.533   9.494
 2050POPC   GL127721  34.059  18.311   9.161
 2050POPC   GL227722  33.752  18.185   9.095
 2050POPC   C1A27723  34.221  18.441   8.759
 2050POPC   D2A27724  34.077  18.326   8.331
 2050POPC   C3A27725  33.725  18.356   8.056
 2050POPC   C4A27726  34.005  18.437   7.693
 2050POPC   C1B27727  33.870  18.059   8.729
 2050POPC   C2B27728  33.752  17.874   8.386
 2050POPC   C3B27729  33.809  17.839   7.984
 2050POPC   C4B27730  33.663  18.043   7.644
 2051POPC   NC327731  41.359  35.280   9.474
 2051POPC   PO427732  41.578  35.900   9.509
 2051POPC   GL127733  41.574  35.575   9.109
 2051POPC   GL227734  41.783  35.251   9.030
 2051POPC   C1A27735  41.334  35.343   8.764
 2051POPC   D2A27736  41.337  35.112   8.352
 2051POPC   C3A27737  41.205  35.288   7.969
 2051POPC   C4A27738  41.354  35.706   7.852
 2051POPC   C1B27739  41.806  35.239   8.537
 2051POPC   C2B27740  41.712  35.358   8.094
 2051POPC   C3B27741  41.926  35.221   7.721
 2051POPC   C4B27742  42.181  35.352   7.398
 2052POPC   NC327743  10.600  15.495   9.727
 2052POPC   PO427744  10.479  14.765   9.659
 2052POPC   GL127745  10.482  14.936   9.279
 2052POPC   GL227746  10.649  15.254   9.259
 2052POPC   C1A27747  10.354  14.921   8.883
 2052POPC   D2A27748  10.333  15.233   8.573
 2052POPC   C3A27749  10.306  15.219   8.104
 2052POPC   C4A27750  10.334  15.454   7.674
 2052POPC   C1B27751  10.827  15.143   8.849
 2052POPC   C2B27752  10.839  15.309   8.439
 2052POPC   C3B27753  10.947  15.158   8.041
 2052POPC   C4B27754  10.674  15.097   7.732
 2053POPC   NC327755   0.908  25.060   9.460
 2053POPC   PO427756   1.594  24.981   9.437
 2053POPC   GL127757   1.302  25.211   9.160
 2053POPC   GL227758   1.107  24.962   9.005
 2053POPC   C1A27759   1.240  25.389   8.761
 2053POPC   D2A27760   1.306  25.143   8.395
 2053POPC   C3A27761   1.378  25.360   8.025
 2053POPC   C4A27762   1.205  25.413   7.655
 2053POPC   C1B27763   0.928  24.836   8.636
 2053POPC   C2B27764   0.951  24.718   8.235
 2053POPC   C3B27765   1.180  24.856   7.876
 2053POPC   C4B27766   1.083  24.965   7.422
 2054POPC   NC327767  15.515  14.051   9.453
 2054POPC   PO427768  15.038  14.615   9.427
 2054POPC   GL127769  15.162  14.261   9.142
 2054POPC   GL227770  14.895  14.064   9.023
 2054POPC   C1A27771  15.295  14.310   8.732
 2054POPC   D2A27772  15.300  14.573   8.387
 2054POPC   C3A27773  15.317  14.355   8.024
 2054POPC   C4A27774  15.238  14.512   7.623
 2054POPC   C1B27775  14.753  13.996   8.597
 2054POPC   C2B27776  14.888  13.871   8.172
 2054POPC   C3B27777  14.953  14.095   7.792
 2054POPC   C4B27778  14.769  14.497   7.815
 2055POPC   NC327779  13.269  18.108   9.900
 2055POPC   PO427780  13.495  18.546   9.552
 2055POPC   GL127781  13.445  18.604   9.110
 2055POPC   GL227782  13.544  18.297   8.965
 2055POPC   C1A27783  13.449  18.685   8.633
 2055POPC   D2A27784  13.707  18.648   8.233
 2055POPC   C3A27785  13.633  18.489   7.790
 2055POPC   C4A27786  13.534  18.114   7.578
 2055POPC   C1B27787  13.680  18.230   8.532
 2055POPC   C2B27788  13.982  18.208   8.179
 2055POPC   C3B27789  14.048  18.147   7.747
 2055POPC   C4B27790  14.073  17.767   7.491
 2056POPC   NC327791  41.275  30.763   9.423
 2056POPC   PO427792  40.629  30.610   9.459
 2056POPC   GL127793  40.600  30.468   9.073
 2056POPC   GL227794  40.948  30.549   9.041
 2056POPC   C1A27795  40.507  30.682   8.700
 2056POPC   D2A27796  40.350  30.657   8.284
 2056POPC   C3A27797  40.720  30.557   8.060
 2056POPC   C4A27798  40.847  30.677   7.636
 2056POPC   C1B27799  41.127  30.847   8.764
 2056POPC   C2B27800  41.116  30.724   8.356
 2056POPC   C3B27801  41.095  30.911   7.989
 2056POPC   C4B27802  41.066  31.136   7.608
 2057POPC   NC327803  27.927  39.637   9.392
 2057POPC   PO427804  27.922  38.917   9.479
 2057POPC   GL127805  28.106  39.113   9.078
 2057POPC   GL227806  28.486  39.049   8.988
 2057POPC   C1A27807  28.209  39.452   8.777
 2057POPC   D2A27808  28.373  39.428   8.352
 2057POPC   C3A27809  28.176  39.206   7.991
 2057POPC   C4A27810  28.122  39.423   7.668
 2057POPC   C1B27811  28.332  38.939   8.590
 2057POPC   C2B27812  28.521  38.919   8.205
 2057POPC   C3B27813  28.689  39.270   7.976
 2057POPC   C4B27814  28.646  39.420   7.539
 2058POPC   NC327815   5.548  38.092   9.307
 2058POPC   PO427816   5.567  38.621   9.758
 2058POPC   GL127817   5.959  38.550   9.338
 2058POPC   GL227818   6.033  38.229   9.148
 2058POPC   C1A27819   6.085  38.596   8.826
 2058POPC   D2A27820   6.127  38.369   8.424
 2058POPC   C3A27821   5.954  38.537   8.047
 2058POPC   C4A27822   6.159  38.733   7.737
 2058POPC   C1B27823   5.725  38.239   8.725
 2058POPC   C2B27824   5.489  38.058   8.392
 2058POPC   C3B27825   5.822  38.039   8.120
 2058POPC   C4B27826   6.007  38.148   7.724
 2059POPC   NC327827   6.078  41.618   9.524
 2059POPC   PO427828   5.593  41.329   9.192
 2059POPC   GL127829   5.991  41.474   9.024
 2059POPC   GL227830   6.023  41.841   9.042
 2059POPC   C1A27831   6.043  41.224   8.637
 2059POPC   D2A27832   5.779  41.089   8.303
 2059POPC   C3A27833   5.900  41.351   7.981
 2059POPC   C4A27834   5.856  41.774   7.796
 2059POPC   C1B27835   6.136  41.724   8.615
 2059POPC   C2B27836   6.202  41.700   8.173
 2059POPC   C3B27837   6.352  41.948   7.840
 2059POPC   C4B27838   6.365  42.018   7.378
 2060POPC   NC327839   9.885  17.739   9.402
 2060POPC   PO427840   9.964  17.154   9.060
 2060POPC   GL127841   9.863  17.585   8.905
 2060POPC   GL227842   9.548  17.563   9.027
 2060POPC   C1A27843   9.617  17.859   8.593
 2060POPC   D2A27844   9.573  17.917   8.118
 2060POPC   C3A27845   9.876  17.639   7.878
 2060POPC   C4A27846  10.209  17.388   7.768
 2060POPC   C1B27847   9.480  17.312   8.635
 2060POPC   C2B27848   9.544  17.393   8.188
 2060POPC   C3B27849   9.424  17.412   7.741
 2060POPC   C4B27850   9.428  17.326   7.241
 2061POPC   NC327851  34.513  23.828   9.543
 2061POPC   PO427852  35.061  24.028   9.169
 2061POPC   GL127853  34.713  23.826   9.074
 2061POPC   GL227854  34.687  23.496   9.172
 2061POPC   C1A27855  34.406  24.006   8.804
 2061POPC   D2A27856  34.596  24.217   8.444
 2061POPC   C3A27857  34.472  24.057   8.037
 2061POPC   C4A27858  34.599  23.954   7.640
 2061POPC   C1B27859  34.511  23.513   8.719
 2061POPC   C2B27860  34.670  23.610   8.269
 2061POPC   C3B27861  34.433  23.516   7.867
 2061POPC   C4B27862  34.499  23.522   7.397
 2062POPC   NC327863  17.686  16.014   9.772
 2062POPC   PO427864  18.061  15.757   9.231
 2062POPC   GL127865  17.886  16.104   9.085
 2062POPC   GL227866  17.558  16.046   9.244
 2062POPC   C1A27867  17.714  16.045   8.662
 2062POPC   D2A27868  17.652  15.664   8.385
 2062POPC   C3A27869  17.821  15.699   7.969
 2062POPC   C4A27870  17.698  16.075   7.750
 2062POPC   C1B27871  17.263  15.939   8.885
 2062POPC   C2B27872  17.227  15.961   8.415
 2062POPC   C3B27873  17.190  15.926   7.959
 2062POPC   C4B27874  17.074  16.106   7.539
 2063POPC   NC327875  23.133  38.797   9.846
 2063POPC   PO427876  22.748  39.271   9.645
 2063POPC   GL127877  22.818  39.191   9.205
 2063POPC   GL227878  22.672  38.861   9.188
 2063POPC   C1A27879  23.101  39.370   8.838
 2063POPC   D2A27880  23.002  39.300   8.401
 2063POPC   C3A27881  23.182  39.386   8.013
 2063POPC   C4A27882  22.975  39.425   7.610
 2063POPC   C1B27883  22.819  38.939   8.752
 2063POPC   C2B27884  22.640  38.940   8.332
 2063POPC   C3B27885  22.793  39.022   7.918
 2063POPC   C4B27886  22.829  38.927   7.485
 2064POPC   NC327887  38.900  40.615   9.823
 2064POPC   PO427888  39.119  41.237   9.524
 2064POPC   GL127889  39.201  41.007   9.109
 2064POPC   GL227890  39.331  40.642   9.131
 2064POPC   C1A27891  39.071  40.820   8.696
 2064POPC   D2A27892  38.963  40.525   8.356
 2064POPC   C3A27893  39.151  40.701   8.000
 2064POPC   C4A27894  39.152  40.981   7.635
 2064POPC   C1B27895  39.389  40.408   8.721
 2064POPC   C2B27896  39.561  40.465   8.307
 2064POPC   C3B27897  39.627  40.635   7.902
 2064POPC   C4B27898  39.351  40.516   7.552
 2065POPC   NC327899  19.691   7.755   9.493
 2065POPC   PO427900  20.188   7.381   9.271
 2065POPC   GL127901  19.798   7.455   9.095
 2065POPC   GL227902  19.748   7.828   9.000
 2065POPC   C1A27903  19.564   7.354   8.759
 2065POPC   D2A27904  19.582   7.569   8.398
 2065POPC   C3A27905  19.595   7.304   8.046
 2065POPC   C4A27906  19.439   7.399   7.652
 2065POPC   C1B27907  20.141   7.825   8.765
 2065POPC   C2B27908  20.078   7.800   8.340
 2065POPC   C3B27909  20.082   7.491   8.006
 2065POPC   C4B27910  19.940   7.523   7.611
 2066POPC   NC327911  14.239  19.562   9.416
 2066POPC   PO427912  14.908  19.611   9.603
 2066POPC   GL127913  14.631  19.917   9.239
 2066POPC   GL227914  14.290  19.841   9.022
 2066POPC   C1A27915  14.604  20.125   8.783
 2066POPC   D2A27916  14.303  19.897   8.499
 2066POPC   C3A27917  14.331  19.847   8.084
 2066POPC   C4A27918  14.565  20.072   7.834
 2066POPC   C1B27919  14.040  19.565   8.780
 2066POPC   C2B27920  14.113  19.446   8.376
 2066POPC   C3B27921  14.102  19.399   7.952
 2066POPC   C4B27922  14.271  19.516   7.544
 2067POPC   NC327923   6.619   0.624   9.832
 2067POPC   PO427924   5.987   0.348   9.623
 2067POPC   GL127925   6.031   0.441   9.167
 2067POPC   GL227926   5.710   0.435   9.107
 2067POPC   C1A27927   6.037   0.608   8.739
 2067POPC   D2A27928   6.067   0.398   8.325
 2067POPC   C3A27929   5.908   0.586   7.940
 2067POPC   C4A27930   5.443   0.607   7.882
 2067POPC   C1B27931   5.875   0.120   8.774
 2067POPC   C2B27932   5.709   0.043   8.344
 2067POPC   C3B27933   5.849   0.078   7.922
 2067POPC   C4B27934   5.655   0.238   7.554
 2068POPC   NC327935  22.441   0.841   9.613
 2068POPC   PO427936  23.054   0.986   9.543
 2068POPC   GL127937  22.946   1.139   9.148
 2068POPC   GL227938  22.602   1.047   9.175
 2068POPC   C1A27939  23.122   1.137   8.735
 2068POPC   D2A27940  23.136   1.444   8.402
 2068POPC   C3A27941  22.925   1.428   7.991
 2068POPC   C4A27942  23.096   1.201   7.635
 2068POPC   C1B27943  22.677   0.861   8.778
 2068POPC   C2B27944  22.763   1.037   8.390
 2068POPC   C3B27945  22.879   0.897   8.015
 2068POPC   C4B27946  22.649   1.016   7.721
 2069POPC   NC327947  17.775  18.056   9.547
 2069POPC   PO427948  17.273  18.374   9.564
 2069POPC   GL127949  17.559  18.410   9.164
 2069POPC   GL227950  17.782  18.113   9.042
 2069POPC   C1A27951  17.562  18.423   8.685
 2069POPC   D2A27952  17.395  18.189   8.310
 2069POPC   C3A27953  17.377  18.395   7.911
 2069POPC   C4A27954  17.625  18.374   7.571
 2069POPC   C1B27955  17.949  17.848   8.683
 2069POPC   C2B27956  18.006  17.749   8.219
 2069POPC   C3B27957  17.881  17.992   7.827
 2069POPC   C4B27958  17.736  17.933   7.376
 2070POPC   NC327959  22.528   9.822   9.330
 2070POPC   PO427960  21.860   9.612   9.390
 2070POPC   GL127961  22.083   9.764   9.102
 2070POPC   GL227962  22.272   9.432   9.051
 2070POPC   C1A27963  22.212   9.970   8.731
 2070POPC   D2A27964  22.492  10.052   8.379
 2070POPC   C3A27965  22.237  10.123   8.052
 2070POPC   C4A27966  22.252   9.866   7.706
 2070POPC   C1B27967  21.995   9.503   8.698
 2070POPC   C2B27968  22.039   9.676   8.313
 2070POPC   C3B27969  22.017   9.462   7.931
 2070POPC   C4B27970  22.302   9.353   7.630
 2071POPC   NC327971  36.926  30.294   9.374
 2071POPC   PO427972  36.883  29.601   9.514
 2071POPC   GL127973  37.009  29.808   9.161
 2071POPC   GL227974  36.661  29.861   9.101
 2071POPC   C1A27975  37.073  29.972   8.747
 2071POPC   D2A27976  36.936  29.836   8.335
 2071POPC   C3A27977  37.124  30.014   7.961
 2071POPC   C4A27978  37.085  30.259   7.547
 2071POPC   C1B27979  36.586  30.150   8.799
 2071POPC   C2B27980  36.445  30.165   8.444
 2071POPC   C3B27981  36.616  30.127   8.055
 2071POPC   C4B27982  36.438  30.124   7.684
 2072POPC   NC327983  27.227  20.839   9.301
 2072POPC   PO427984  27.767  20.643   9.572
 2072POPC   GL127985  27.656  20.574   9.111
 2072POPC   GL227986  27.326  20.417   8.999
 2072POPC   C1A27987  27.808  20.764   8.698
 2072POPC   D2A27988  27.940  20.764   8.246
 2072POPC   C3A27989  27.680  20.627   7.889
 2072POPC   C4A27990  27.691  20.619   7.447
 2072POPC   C1B27991  27.292  20.744   8.693
 2072POPC   C2B27992  27.408  20.770   8.320
 2072POPC   C3B27993  27.180  20.809   7.976
 2072POPC   C4B27994  27.206  20.618   7.620
 2073POPC   NC327995  16.463  39.180   9.376
 2073POPC   PO427996  17.016  39.631   9.575
 2073POPC   GL127997  16.990  39.443   9.147
 2073POPC   GL227998  16.893  39.095   9.087
 2073POPC   C1A27999  16.948  39.454   8.725
 2073POPC   D2A28000  17.134  39.363   8.382
 2073POPC   C3A28001  16.888  39.244   8.089
 2073POPC   C4A28002  16.497  39.297   7.870
 2073POPC   C1B28003  16.682  38.958   8.753
 2073POPC   C2B28004  16.536  39.007   8.357
 2073POPC   C3B28005  16.637  38.800   7.988
 2073POPC   C4B28006  16.705  38.902   7.564
 2074POPC   NC328007  37.061  41.860   9.542
 2074POPC   PO428008  36.931  41.273   9.855
 2074POPC   GL128009  37.067  41.378   9.358
 2074POPC   GL228010  36.868  41.645   9.135
 2074POPC   C1A28011  37.011  41.235   8.887
 2074POPC   D2A28012  36.935  41.527   8.506
 2074POPC   C3A28013  36.921  41.325   8.077
 2074POPC   C4A28014  37.086  41.374   7.628
 2074POPC   C1B28015  36.559  41.757   8.811
 2074POPC   C2B28016  36.558  41.894   8.387
 2074POPC   C3B28017  36.861  41.849   8.068
 2074POPC   C4B28018  36.814  42.016   7.677
 2075POPC   NC328019  42.900  24.138   9.348
 2075POPC   PO428020  43.126  24.725   9.476
 2075POPC   GL128021  43.242  24.531   9.103
 2075POPC   GL228022  42.998  24.687   8.902
 2075POPC   C1A28023  43.245  24.204   8.781
 2075POPC   D2A28024  43.066  24.187   8.367
 2075POPC   C3A28025  43.232  24.506   8.071
 2075POPC   C4A28026  43.142  24.471   7.622
 2075POPC   C1B28027  42.646  24.864   8.636
 2075POPC   C2B28028  42.710  24.951   8.177
 2075POPC   C3B28029  43.009  24.944   7.866
 2075POPC   C4B28030  43.361  24.944   7.636
 2076POPC   NC328031  15.002  10.030   9.518
 2076POPC   PO428032  15.299   9.412   9.505
 2076POPC   GL128033  15.271   9.573   9.102
 2076POPC   GL228034  15.305   9.932   9.087
 2076POPC   C1A28035  14.912   9.677   8.854
 2076POPC   D2A28036  14.675   9.884   8.533
 2076POPC   C3A28037  14.907   9.825   8.164
 2076POPC   C4A28038  14.796   9.603   7.822
 2076POPC   C1B28039  15.494   9.823   8.705
 2076POPC   C2B28040  15.579   9.714   8.272
 2076POPC   C3B28041  15.414   9.920   7.897
 2076POPC   C4B28042  15.452   9.876   7.433
 2077POPC   NC328043  34.444  35.029   9.783
 2077POPC   PO428044  34.917  35.449   9.542
 2077POPC   GL128045  34.713  35.430   9.132
 2077POPC   GL228046  34.483  35.166   9.265
 2077POPC   C1A28047  34.701  35.621   8.696
 2077POPC   D2A28048  34.439  35.523   8.340
 2077POPC   C3A28049  34.509  35.678   7.935
 2077POPC   C4A28050  34.653  35.542   7.535
 2077POPC   C1B28051  34.488  35.145   8.796
 2077POPC   C2B28052  34.501  35.031   8.367
 2077POPC   C3B28053  34.266  35.023   7.990
 2077POPC   C4B28054  34.171  35.306   7.673
 2078POPC   NC328055  22.767  23.241   9.485
 2078POPC   PO428056  22.935  22.642   9.766
 2078POPC   GL128057  22.922  22.839   9.280
 2078POPC   GL228058  23.180  23.127   9.194
 2078POPC   C1A28059  22.888  22.925   8.790
 2078POPC   D2A28060  23.136  22.864   8.394
 2078POPC   C3A28061  22.935  22.989   8.033
 2078POPC   C4A28062  22.652  22.837   7.751
 2078POPC   C1B28063  23.087  23.410   8.835
 2078POPC   C2B28064  22.892  23.338   8.437
 2078POPC   C3B28065  22.897  23.500   8.018
 2078POPC   C4B28066  23.029  23.330   7.655
 2079POPC   NC328067  15.162  35.222   9.531
 2079POPC   PO428068  15.534  35.762   9.428
 2079POPC   GL128069  15.393  35.474   9.111
 2079POPC   GL228070  15.082  35.492   9.114
 2079POPC   C1A28071  15.444  35.255   8.707
 2079POPC   D2A28072  15.500  35.082   8.279
 2079POPC   C3A28073  15.451  35.354   7.913
 2079POPC   C4A28074  15.540  35.307   7.454
 2079POPC   C1B28075  15.034  35.630   8.735
 2079POPC   C2B28076  15.099  35.453   8.362
 2079POPC   C3B28077  14.954  35.477   7.982
 2079POPC   C4B28078  14.831  35.278   7.617
 2080POPC   NC328079  36.580  39.379   9.499
 2080POPC   PO428080  37.027  38.901   9.359
 2080POPC   GL128081  36.885  39.290   9.114
 2080POPC   GL228082  36.680  39.035   8.970
 2080POPC   C1A28083  36.717  39.473   8.717
 2080POPC   D2A28084  36.635  39.116   8.412
 2080POPC   C3A28085  36.708  39.211   7.989
 2080POPC   C4A28086  36.867  39.438   7.608
 2080POPC   C1B28087  37.084  39.106   8.695
 2080POPC   C2B28088  37.260  39.017   8.307
 2080POPC   C3B28089  37.192  39.154   7.894
 2080POPC   C4B28090  37.281  39.171   7.486
 2081POPC   NC328091  22.565  11.685   9.613
 2081POPC   PO428092  22.094  12.137   9.501
 2081POPC   GL128093  22.263  12.130   9.117
 2081POPC   GL228094  22.333  11.803   9.180
 2081POPC   C1A28095  22.156  12.282   8.707
 2081POPC   D2A28096  21.913  12.113   8.367
 2081POPC   C3A28097  22.059  12.169   7.954
 2081POPC   C4A28098  21.770  12.124   7.617
 2081POPC   C1B28099  22.574  11.694   8.860
 2081POPC   C2B28100  22.619  11.820   8.469
 2081POPC   C3B28101  22.496  11.916   8.093
 2081POPC   C4B28102  22.474  11.965   7.682
 2082POPC   NC328103  26.913  42.802   9.389
 2082POPC   PO428104  26.612  43.359   9.440
 2082POPC   GL128105  26.689  43.094   9.029
 2082POPC   GL228106  26.907  42.817   8.892
 2082POPC   C1A28107  26.636  43.120   8.572
 2082POPC   D2A28108  26.723  43.444   8.298
 2082POPC   C3A28109  26.811  43.417   7.896
 2082POPC   C4A28110  26.704  43.191   7.553
 2082POPC   C1B28111  26.527  42.645   8.714
 2082POPC   C2B28112  26.396  42.742   8.280
 2082POPC   C3B28113  26.689  42.916   7.982
 2082POPC   C4B28114  27.066  42.875   7.716
 2083POPC   NC328115  20.208  32.860   9.576
 2083POPC   PO428116  20.838  33.045   9.468
 2083POPC   GL128117  20.656  32.882   9.072
 2083POPC   GL228118  20.300  32.802   9.089
 2083POPC   C1A28119  20.502  32.945   8.638
 2083POPC   D2A28120  20.751  33.102   8.299
 2083POPC   C3A28121  20.534  33.246   7.935
 2083POPC   C4A28122  20.661  32.909   7.698
 2083POPC   C1B28123  20.054  32.667   8.743
 2083POPC   C2B28124  20.040  32.898   8.357
 2083POPC   C3B28125  20.232  32.829   7.971
 2083POPC   C4B28126  20.165  32.836   7.528
 2084POPC   NC328127   8.992  24.947   9.540
 2084POPC   PO428128   8.834  25.578   9.414
 2084POPC   GL128129   9.003  25.325   9.130
 2084POPC   GL228130   8.793  25.016   9.098
 2084POPC   C1A28131   9.224  25.450   8.748
 2084POPC   D2A28132   9.338  25.288   8.371
 2084POPC   C3A28133   9.054  25.331   8.060
 2084POPC   C4A28134   9.044  25.170   7.676
 2084POPC   C1B28135   9.033  24.988   8.741
 2084POPC   C2B28136   8.791  24.973   8.386
 2084POPC   C3B28137   8.642  25.017   7.993
 2084POPC   C4B28138   8.693  24.803   7.609
 2085POPC   NC328139   2.580  12.370   9.373
 2085POPC   PO428140   2.932  11.840   9.533
 2085POPC   GL128141   2.936  12.072   9.160
 2085POPC   GL228142   2.594  11.947   9.084
 2085POPC   C1A28143   2.975  11.962   8.727
 2085POPC   D2A28144   2.740  11.871   8.352
 2085POPC   C3A28145   2.901  11.979   7.936
 2085POPC   C4A28146   2.765  12.346   7.739
 2085POPC   C1B28147   2.468  11.653   8.770
 2085POPC   C2B28148   2.449  11.450   8.354
 2085POPC   C3B28149   2.429  11.696   7.951
 2085POPC   C4B28150   2.546  11.928   7.549
 2086POPC   NC328151  31.070   8.276   9.495
 2086POPC   PO428152  30.393   8.411   9.521
 2086POPC   GL128153  30.685   8.457   9.195
 2086POPC   GL228154  30.691   8.131   9.131
 2086POPC   C1A28155  30.592   8.457   8.760
 2086POPC   D2A28156  30.493   8.321   8.362
 2086POPC   C3A28157  30.503   8.607   8.030
 2086POPC   C4A28158  30.598   8.487   7.643
 2086POPC   C1B28159  30.810   8.007   8.710
 2086POPC   C2B28160  30.817   7.904   8.285
 2086POPC   C3B28161  30.614   8.000   7.926
 2086POPC   C4B28162  30.875   8.079   7.586
 2087POPC   NC328163  22.128   1.731   9.515
 2087POPC   PO428164  22.063   1.112   9.587
 2087POPC   GL128165  22.152   1.299   9.199
 2087POPC   GL228166  21.862   1.447   9.045
 2087POPC   C1A28167  22.219   1.083   8.816
 2087POPC   D2A28168  22.008   1.035   8.453
 2087POPC   C3A28169  22.288   0.984   8.114
 2087POPC   C4A28170  22.170   1.132   7.718
 2087POPC   C1B28171  22.088   1.530   8.635
 2087POPC   C2B28172  22.060   1.489   8.179
 2087POPC   C3B28173  21.917   1.569   7.778
 2087POPC   C4B28174  22.170   1.531   7.402
 2088POPC   NC328175  19.956   3.771   9.688
 2088POPC   PO428176  19.649   3.231   9.427
 2088POPC   GL128177  19.858   3.553   9.205
 2088POPC   GL228178  20.230   3.572   9.178
 2088POPC   C1A28179  19.727   3.599   8.784
 2088POPC   D2A28180  19.936   3.808   8.466
 2088POPC   C3A28181  19.793   3.751   8.084
 2088POPC   C4A28182  19.945   3.842   7.708
 2088POPC   C1B28183  20.156   3.316   8.777
 2088POPC   C2B28184  19.952   3.299   8.354
 2088POPC   C3B28185  20.156   3.393   7.944
 2088POPC   C4B28186  20.044   3.277   7.509
 2089POPC   NC328187  33.660  18.959   9.364
 2089POPC   PO428188  34.008  19.490   9.664
 2089POPC   GL128189  34.200  19.180   9.211
 2089POPC   GL228190  34.113  18.823   9.142
 2089POPC   C1A28191  34.139  19.102   8.730
 2089POPC   D2A28192  34.105  19.215   8.317
 2089POPC   C3A28193  33.719  19.236   8.156
 2089POPC   C4A28194  33.842  19.223   7.731
 2089POPC   C1B28195  33.782  18.654   8.828
 2089POPC   C2B28196  33.857  18.773   8.426
 2089POPC   C3B28197  33.957  18.812   8.017
 2089POPC   C4B28198  33.540  18.830   7.809
 2090POPC   NC328199  27.423  40.501   9.385
 2090POPC   PO428200  27.443  39.921   9.698
 2090POPC   GL128201  27.428  40.038   9.203
 2090POPC   GL228202  27.762  40.103   9.211
 2090POPC   C1A28203  27.382  40.090   8.712
 2090POPC   D2A28204  27.280  39.892   8.277
 2090POPC   C3A28205  27.430  40.015   7.861
 2090POPC   C4A28206  27.536  39.880   7.433
 2090POPC   C1B28207  27.858  39.898   8.806
 2090POPC   C2B28208  27.737  39.690   8.450
 2090POPC   C3B28209  27.976  39.670   8.101
 2090POPC   C4B28210  27.931  39.909   7.749
 2091POPC   NC328211  27.374  23.245   9.700
 2091POPC   PO428212  27.933  22.856   9.618
 2091POPC   GL128213  27.808  22.952   9.159
 2091POPC   GL228214  27.498  23.155   9.197
 2091POPC   C1A28215  27.893  22.897   8.676
 2091POPC   D2A28216  27.857  22.682   8.237
 2091POPC   C3A28217  27.810  22.847   7.772
 2091POPC   C4A28218  27.726  23.257   7.455
 2091POPC   C1B28219  27.381  22.897   8.845
 2091POPC   C2B28220  27.350  22.706   8.449
 2091POPC   C3B28221  27.404  22.845   8.064
 2091POPC   C4B28222  27.375  23.170   7.797
 2092POPC   NC328223  27.867   2.693   9.220
 2092POPC   PO428224  28.375   2.964   9.547
 2092POPC   GL128225  28.427   2.719   9.145
 2092POPC   GL228226  28.739   2.512   9.200
 2092POPC   C1A28227  28.308   2.672   8.669
 2092POPC   D2A28228  28.088   2.838   8.291
 2092POPC   C3A28229  28.140   2.712   7.831
 2092POPC   C4A28230  28.411   2.847   7.450
 2092POPC   C1B28231  28.794   2.642   8.789
 2092POPC   C2B28232  28.760   2.488   8.400
 2092POPC   C3B28233  28.424   2.400   8.162
 2092POPC   C4B28234  28.533   2.404   7.729
 2093POPC   NC328235   8.381  15.997   9.466
 2093POPC   PO428236   7.671  16.072   9.546
 2093POPC   GL128237   7.998  15.945   9.162
 2093POPC   GL228238   8.270  16.168   9.009
 2093POPC   C1A28239   8.240  15.671   8.875
 2093POPC   D2A28240   8.297  15.613   8.426
 2093POPC   C3A28241   8.060  15.865   8.129
 2093POPC   C4A28242   8.149  15.804   7.706
 2093POPC   C1B28243   8.110  16.088   8.592
 2093POPC   C2B28244   8.427  16.206   8.252
 2093POPC   C3B28245   8.561  16.088   7.845
 2093POPC   C4B28246   8.523  15.902   7.385
 2094POPC   NC328247  40.926   8.240   9.563
 2094POPC   PO428248  40.388   7.814   9.559
 2094POPC   GL128249  40.533   8.145   9.215
 2094POPC   GL228250  40.580   7.885   9.014
 2094POPC   C1A28251  40.694   8.330   8.776
 2094POPC   D2A28252  40.934   8.350   8.394
 2094POPC   C3A28253  40.741   8.295   8.041
 2094POPC   C4A28254  40.439   8.499   7.863
 2094POPC   C1B28255  40.649   7.862   8.590
 2094POPC   C2B28256  40.429   7.966   8.233
 2094POPC   C3B28257  40.440   7.987   7.770
 2094POPC   C4B28258  40.588   7.831   7.351
 2095POPC   NC328259  13.045  18.739   9.447
 2095POPC   PO428260  12.830  18.110   9.691
 2095POPC   GL128261  12.822  18.255   9.239
 2095POPC   GL228262  12.591  18.474   9.081
 2095POPC   C1A28263  13.050  18.402   8.853
 2095POPC   D2A28264  13.174  18.302   8.422
 2095POPC   C3A28265  12.936  18.384   8.062
 2095POPC   C4A28266  13.039  18.447   7.642
 2095POPC   C1B28267  12.607  18.439   8.618
 2095POPC   C2B28268  12.486  18.241   8.259
 2095POPC   C3B28269  12.566  18.036   7.892
 2095POPC   C4B28270  12.643  18.145   7.508
 2096POPC   NC328271   7.632  14.807   9.544
 2096POPC   PO428272   7.235  14.240   9.455
 2096POPC   GL128273   7.307  14.463   9.116
 2096POPC   GL228274   7.649  14.512   9.146
 2096POPC   C1A28275   7.308  14.516   8.696
 2096POPC   D2A28276   7.459  14.579   8.292
 2096POPC   C3A28277   7.351  14.419   7.874
 2096POPC   C4A28278   7.375  14.693   7.503
 2096POPC   C1B28279   7.757  14.280   8.819
 2096POPC   C2B28280   7.614  14.128   8.466
 2096POPC   C3B28281   7.822  14.244   8.111
 2096POPC   C4B28282   7.821  14.015   7.780
 2097POPC   NC328283  40.333  36.571   9.357
 2097POPC   PO428284  40.929  36.636   9.701
 2097POPC   GL128285  40.790  36.982   9.309
 2097POPC   GL228286  40.696  36.763   9.085
 2097POPC   C1A28287  40.727  37.176   8.820
 2097POPC   D2A28288  40.658  36.998   8.392
 2097POPC   C3A28289  40.801  37.187   8.021
 2097POPC   C4A28290  40.886  36.954   7.693
 2097POPC   C1B28291  40.538  36.629   8.706
 2097POPC   C2B28292  40.391  36.556   8.286
 2097POPC   C3B28293  40.641  36.552   7.909
 2097POPC   C4B28294  40.531  36.687   7.476
 2098POPC   NC328295  27.202   1.299   9.480
 2098POPC   PO428296  26.612   0.965   9.609
 2098POPC   GL128297  26.639   1.182   9.201
 2098POPC   GL228298  26.565   1.548   9.227
 2098POPC   C1A28299  26.884   1.308   8.840
 2098POPC   D2A28300  27.207   1.347   8.533
 2098POPC   C3A28301  27.068   1.243   8.121
 2098POPC   C4A28302  26.953   1.507   7.813
 2098POPC   C1B28303  26.386   1.488   8.810
 2098POPC   C2B28304  26.383   1.260   8.449
 2098POPC   C3B28305  26.537   1.270   8.043
 2098POPC   C4B28306  26.575   1.132   7.658
 2099POPC   NC328307  23.002  21.220   9.632
 2099POPC   PO428308  23.056  21.813   9.510
 2099POPC   GL128309  22.989  21.542   9.146
 2099POPC   GL228310  22.675  21.404   9.077
 2099POPC   C1A28311  22.898  21.698   8.731
 2099POPC   D2A28312  22.750  21.619   8.340
 2099POPC   C3A28313  22.972  21.473   8.027
 2099POPC   C4A28314  22.861  21.195   7.741
 2099POPC   C1B28315  22.799  21.207   8.658
 2099POPC   C2B28316  22.632  21.126   8.247
 2099POPC   C3B28317  22.404  21.003   7.906
 2099POPC   C4B28318  22.480  20.976   7.460
 2100POPC   NC328319   6.907  37.463   9.444
 2100POPC   PO428320   6.277  37.918   9.555
 2100POPC   GL128321   6.455  37.863   9.137
 2100POPC   GL228322   6.815  37.872   9.146
 2100POPC   C1A28323   6.570  37.691   8.721
 2100POPC   D2A28324   6.743  37.380   8.452
 2100POPC   C3A28325   6.757  37.524   8.044
 2100POPC   C4A28326   6.464  37.864   7.904
 2100POPC   C1B28327   6.947  38.058   8.771
 2100POPC   C2B28328   6.963  37.866   8.386
 2100POPC   C3B28329   6.954  38.047   7.985
 2100POPC   C4B28330   7.012  37.764   7.661
 2101POPC   NC328331  28.151  23.269   9.419
 2101POPC   PO428332  28.811  23.035   9.404
 2101POPC   GL128333  28.531  23.103   9.083
 2101POPC   GL228334  28.318  22.823   9.171
 2101POPC   C1A28335  28.368  23.139   8.661
 2101POPC   D2A28336  28.546  23.161   8.251
 2101POPC   C3A28337  28.194  23.071   8.011
 2101POPC   C4A28338  28.188  23.099   7.570
 2101POPC   C1B28339  28.495  22.652   8.782
 2101POPC   C2B28340  28.344  22.693   8.366
 2101POPC   C3B28341  28.480  22.664   7.949
 2101POPC   C4B28342  28.808  22.461   7.783
 2102POPC   NC328343  10.873  12.190   9.596
 2102POPC   PO428344  11.452  11.860   9.663
 2102POPC   GL128345  11.135  11.933   9.261
 2102POPC   GL228346  10.919  11.674   9.135
 2102POPC   C1A28347  11.153  12.015   8.821
 2102POPC   D2A28348  11.471  12.141   8.537
 2102POPC   C3A28349  11.236  12.239   8.195
 2102POPC   C4A28350  11.183  12.156   7.781
 2102POPC   C1B28351  11.108  11.502   8.763
 2102POPC   C2B28352  11.192  11.733   8.369
 2102POPC   C3B28353  11.079  11.698   7.951
 2102POPC   C4B28354  11.265  11.706   7.526
 2103POPC   NC328355  20.871  12.328   9.340
 2103POPC   PO428356  20.368  11.876   9.553
 2103POPC   GL128357  20.533  11.948   9.158
 2103POPC   GL228358  20.393  12.263   9.135
 2103POPC   C1A28359  20.647  12.078   8.710
 2103POPC   D2A28360  20.717  12.256   8.282
 2103POPC   C3A28361  20.938  11.941   8.040
 2103POPC   C4A28362  20.815  11.833   7.646
 2103POPC   C1B28363  20.259  12.452   8.749
 2103POPC   C2B28364  20.115  12.545   8.330
 2103POPC   C3B28365  20.359  12.483   7.957
 2103POPC   C4B28366  20.730  12.332   7.726
 2104POPC   NC328367  35.789  43.196   9.478
 2104POPC   PO428368  35.132  43.030   9.406
 2104POPC   GL128369  35.452  43.044   9.096
 2104POPC   GL228370  35.526  43.377   9.039
 2104POPC   C1A28371  35.588  43.043   8.656
 2104POPC   D2A28372  35.805  43.171   8.314
 2104POPC   C3A28373  35.681  42.975   7.963
 2104POPC   C4A28374  35.466  43.122   7.640
 2104POPC   C1B28375  35.234  43.389   8.738
 2104POPC   C2B28376  35.021  43.394   8.364
 2104POPC   C3B28377  35.169  43.394   7.967
 2104POPC   C4B28378  34.991  43.330   7.588
 2105POPC   NC328379  42.430  21.022   9.427
 2105POPC   PO428380  42.449  21.715   9.367
 2105POPC   GL128381  42.285  21.614   9.009
 2105POPC   GL228382  42.222  21.332   9.098
 2105POPC   C1A28383  42.415  21.561   8.587
 2105POPC   D2A28384  42.496  21.297   8.265
 2105POPC   C3A28385  42.299  21.371   7.916
 2105POPC   C4A28386  42.097  21.737   7.731
 2105POPC   C1B28387  42.002  21.308   8.733
 2105POPC   C2B28388  41.986  21.291   8.343
 2105POPC   C3B28389  42.131  20.942   8.172
 2105POPC   C4B28390  42.061  20.892   7.799
 2106POPC   NC328391  21.632   4.971   9.538
 2106POPC   PO428392  21.037   5.361   9.628
 2106POPC   GL128393  21.254   5.239   9.223
 2106POPC   GL228394  21.620   5.316   9.132
 2106POPC   C1A28395  21.267   5.281   8.768
 2106POPC   D2A28396  21.459   5.475   8.434
 2106POPC   C3A28397  21.533   5.276   8.065
 2106POPC   C4A28398  21.308   5.051   7.759
 2106POPC   C1B28399  21.539   4.879   8.905
 2106POPC   C2B28400  21.567   4.878   8.430
 2106POPC   C3B28401  21.743   4.706   8.043
 2106POPC   C4B28402  21.541   4.621   7.648
 2107POPC   NC328403  40.185  25.883   9.590
 2107POPC   PO428404  40.340  26.546   9.487
 2107POPC   GL128405  40.142  26.189   9.190
 2107POPC   GL228406  40.342  25.823   9.133
 2107POPC   C1A28407  39.997  26.244   8.785
 2107POPC   D2A28408  39.847  26.289   8.374
 2107POPC   C3A28409  39.999  26.207   8.008
 2107POPC   C4A28410  39.808  26.275   7.605
 2107POPC   C1B28411  40.105  25.743   8.759
 2107POPC   C2B28412  39.891  25.775   8.397
 2107POPC   C3B28413  40.153  25.707   8.083
 2107POPC   C4B28414  40.151  25.862   7.683
 2108POPC   NC328415  25.771  31.531   9.605
 2108POPC   PO428416  26.412  31.253   9.605
 2108POPC   GL128417  26.131  31.131   9.252
 2108POPC   GL228418  25.758  31.149   9.239
 2108POPC   C1A28419  26.169  31.239   8.806
 2108POPC   D2A28420  26.380  31.553   8.504
 2108POPC   C3A28421  26.181  31.651   8.087
 2108POPC   C4A28422  26.110  31.258   7.850
 2108POPC   C1B28423  25.740  31.514   8.925
 2108POPC   C2B28424  25.863  31.488   8.467
 2108POPC   C3B28425  25.704  31.512   8.001
 2108POPC   C4B28426  25.947  31.681   7.604
 2109POPC   NC328427  44.012  15.780   9.536
 2109POPC   PO428428  43.716  16.299   9.579
 2109POPC   GL128429  43.723  16.046   9.195
 2109POPC   GL228430  44.061  15.963   9.033
 2109POPC   C1A28431  43.601  16.199   8.786
 2109POPC   D2A28432  43.692  16.289   8.344
 2109POPC   C3A28433  44.004  16.008   8.121
 2109POPC   C4A28434  44.200  16.042   7.707
 2109POPC   C1B28435  43.839  15.775   8.638
 2109POPC   C2B28436  43.525  15.505   8.381
 2109POPC   C3B28437  43.439  15.531   7.942
 2109POPC   C4B28438  43.778  15.705   7.732
 2110POPC   NC328439  20.242   6.286   9.867
 2110POPC   PO428440  20.528   5.737   9.594
 2110POPC   GL128441  20.443   5.795   9.182
 2110POPC   GL228442  20.674   6.053   9.190
 2110POPC   C1A28443  20.310   5.627   8.764
 2110POPC   D2A28444  20.569   5.672   8.412
 2110POPC   C3A28445  20.431   5.620   8.023
 2110POPC   C4A28446  20.656   5.680   7.690
 2110POPC   C1B28447  20.577   6.062   8.771
 2110POPC   C2B28448  20.730   6.188   8.377
 2110POPC   C3B28449  20.591   6.106   7.993
 2110POPC   C4B28450  20.434   6.212   7.594
 2111POPC   NC328451  36.392   6.377   9.508
 2111POPC   PO428452  36.361   5.670   9.486
 2111POPC   GL128453  36.534   5.737   9.092
 2111POPC   GL228454  36.531   6.119   9.085
 2111POPC   C1A28455  36.385   5.571   8.694
 2111POPC   D2A28456  36.036   5.700   8.429
 2111POPC   C3A28457  36.101   5.598   7.995
 2111POPC   C4A28458  35.872   5.841   7.625
 2111POPC   C1B28459  36.311   6.088   8.686
 2111POPC   C2B28460  36.135   6.166   8.249
 2111POPC   C3B28461  36.300   6.037   7.851
 2111POPC   C4B28462  36.555   6.130   7.515
 2112POPC   NC328463  36.193  26.633   9.487
 2112POPC   PO428464  36.487  27.300   9.442
 2112POPC   GL128465  36.280  27.022   9.158
 2112POPC   GL228466  35.923  26.969   9.228
 2112POPC   C1A28467  36.389  26.800   8.787
 2112POPC   D2A28468  36.217  26.871   8.386
 2112POPC   C3A28469  36.480  26.688   8.079
 2112POPC   C4A28470  36.474  26.552   7.662
 2112POPC   C1B28471  35.921  26.645   8.858
 2112POPC   C2B28472  35.831  26.533   8.439
 2112POPC   C3B28473  35.810  26.775   8.079
 2112POPC   C4B28474  35.879  26.720   7.674
 2113POPC   NC328475  23.605  37.404   9.573
 2113POPC   PO428476  23.936  36.878   9.498
 2113POPC   GL128477  23.724  36.831   9.137
 2113POPC   GL228478  23.694  37.206   9.099
 2113POPC   C1A28479  23.895  36.767   8.716
 2113POPC   D2A28480  24.037  36.931   8.314
 2113POPC   C3A28481  23.952  36.863   7.870
 2113POPC   C4A28482  24.037  36.935   7.409
 2113POPC   C1B28483  23.475  37.066   8.748
 2113POPC   C2B28484  23.514  36.991   8.329
 2113POPC   C3B28485  23.527  37.165   7.935
 2113POPC   C4B28486  23.552  36.925   7.577
 2114POPC   NC328487   0.749  37.415   9.362
 2114POPC   PO428488   1.431  37.407   9.451
 2114POPC   GL128489   1.359  37.615   9.052
 2114POPC   GL228490   1.025  37.766   9.084
 2114POPC   C1A28491   1.494  37.580   8.620
 2114POPC   D2A28492   1.300  37.755   8.264
 2114POPC   C3A28493   1.339  37.619   7.825
 2114POPC   C4A28494   1.145  37.264   7.629
 2114POPC   C1B28495   0.951  37.860   8.644
 2114POPC   C2B28496   0.924  38.099   8.235
 2114POPC   C3B28497   0.890  37.859   7.836
 2114POPC   C4B28498   0.775  37.986   7.413
 2115POPC   NC328499  12.617  40.243   9.464
 2115POPC   PO428500  13.204  39.990   9.492
 2115POPC   GL128501  13.053  39.917   9.076
 2115POPC   GL228502  12.699  40.041   8.988
 2115POPC   C1A28503  13.100  39.913   8.641
 2115POPC   D2A28504  12.917  40.214   8.452
 2115POPC   C3A28505  12.770  40.105   8.086
 2115POPC   C4A28506  12.561  40.428   7.885
 2115POPC   C1B28507  12.726  39.611   8.817
 2115POPC   C2B28508  12.827  39.541   8.410
 2115POPC   C3B28509  12.651  39.576   8.028
 2115POPC   C4B28510  12.515  39.901   7.697
 2116POPC   NC328511  31.217  41.209   9.424
 2116POPC   PO428512  31.934  41.308   9.428
 2116POPC   GL128513  31.622  41.669   9.202
 2116POPC   GL228514  31.445  41.427   9.031
 2116POPC   C1A28515  31.635  41.772   8.712
 2116POPC   D2A28516  31.615  41.508   8.282
 2116POPC   C3A28517  31.739  41.703   7.926
 2116POPC   C4A28518  32.035  41.986   7.765
 2116POPC   C1B28519  31.255  41.449   8.639
 2116POPC   C2B28520  31.112  41.538   8.214
 2116POPC   C3B28521  31.230  41.745   7.821
 2116POPC   C4B28522  31.152  41.768   7.370
 2117POPC   NC328523   0.943  44.634   9.694
 2117POPC   PO428524   0.850   0.170   9.442
 2117POPC   GL128525   0.804  44.816   9.191
 2117POPC   GL228526   1.128  44.657   9.196
 2117POPC   C1A28527   0.859  44.669   8.767
 2117POPC   D2A28528   1.094  44.617   8.349
 2117POPC   C3A28529   0.937  44.624   7.911
 2117POPC   C4A28530   0.986  44.371   7.525
 2117POPC   C1B28531   1.384  44.710   8.787
 2117POPC   C2B28532   1.582  44.772   8.354
 2117POPC   C3B28533   1.516  44.793   7.897
 2117POPC   C4B28534   1.805  44.771   7.539
 2118POPC   NC328535  41.159  13.818   9.439
 2118POPC   PO428536  40.399  13.666   9.526
 2118POPC   GL128537  40.750  13.551   9.249
 2118POPC   GL228538  40.823  13.878   9.059
 2118POPC   C1A28539  40.968  13.437   8.849
 2118POPC   D2A28540  40.772  13.611   8.460
 2118POPC   C3A28541  40.903  13.523   8.028
 2118POPC   C4A28542  40.826  13.337   7.600
 2118POPC   C1B28543  41.113  13.932   8.692
 2118POPC   C2B28544  40.984  14.018   8.243
 2118POPC   C3B28545  40.587  13.949   8.031
 2118POPC   C4B28546  40.458  13.848   7.622
 2119POPC   NC328547  20.744  22.808   9.546
 2119POPC   PO428548  20.705  23.416   9.735
 2119POPC   GL128549  20.758  23.182   9.235
 2119POPC   GL228550  20.406  23.016   9.205
 2119POPC   C1A28551  20.638  23.209   8.782
 2119POPC   D2A28552  20.786  22.996   8.440
 2119POPC   C3A28553  20.606  23.023   8.037
 2119POPC   C4A28554  20.917  23.028   7.708
 2119POPC   C1B28555  20.458  22.731   8.834
 2119POPC   C2B28556  20.336  22.752   8.429
 2119POPC   C3B28557  20.372  22.522   8.081
 2119POPC   C4B28558  20.387  22.646   7.684
 2120POPC   NC328559  11.219   1.906   9.541
 2120POPC   PO428560  11.605   2.384   9.453
 2120POPC   GL128561  11.472   2.114   9.129
 2120POPC   GL228562  11.097   2.079   9.094
 2120POPC   C1A28563  11.487   1.871   8.748
 2120POPC   D2A28564  11.340   1.741   8.325
 2120POPC   C3A28565  11.460   1.974   7.960
 2120POPC   C4A28566  11.464   1.901   7.510
 2120POPC   C1B28567  10.969   1.770   8.784
 2120POPC   C2B28568  10.848   1.595   8.368
 2120POPC   C3B28569  10.967   1.744   7.964
 2120POPC   C4B28570  11.006   1.689   7.526
 2121POPC   NC328571   9.111  36.274   9.621
 2121POPC   PO428572   8.486  36.033   9.609
 2121POPC   GL128573   8.808  36.039   9.285
 2121POPC   GL228574   8.774  36.375   9.180
 2121POPC   C1A28575   9.204  36.127   8.985
 2121POPC   D2A28576   9.428  36.304   8.596
 2121POPC   C3A28577   9.308  36.242   8.163
 2121POPC   C4A28578   9.081  35.913   7.945
 2121POPC   C1B28579   8.747  36.070   8.796
 2121POPC   C2B28580   8.678  36.115   8.366
 2121POPC   C3B28581   8.592  36.078   7.939
 2121POPC   C4B28582   8.884  36.356   7.735
 2122POPC   NC328583  30.155  13.033   9.461
 2122POPC   PO428584  29.731  12.611   9.405
 2122POPC   GL128585  29.820  12.841   9.074
 2122POPC   GL228586  30.169  12.725   9.075
 2122POPC   C1A28587  29.663  12.761   8.675
 2122POPC   D2A28588  29.513  12.999   8.338
 2122POPC   C3A28589  29.689  12.862   7.962
 2122POPC   C4A28590  30.088  12.936   7.802
 2122POPC   C1B28591  30.166  12.567   8.701
 2122POPC   C2B28592  30.036  12.682   8.315
 2122POPC   C3B28593  30.207  12.473   7.994
 2122POPC   C4B28594  30.397  12.587   7.622
 2123POPC   NC328595  25.321  21.832   9.333
 2123POPC   PO428596  25.280  22.522   9.346
 2123POPC   GL128597  25.243  22.276   9.032
 2123POPC   GL228598  24.936  22.106   9.106
 2123POPC   C1A28599  25.508  22.241   8.683
 2123POPC   D2A28600  25.516  22.034   8.304
 2123POPC   C3A28601  25.548  22.250   7.902
 2123POPC   C4A28602  25.509  21.915   7.588
 2123POPC   C1B28603  25.035  21.970   8.669
 2123POPC   C2B28604  25.054  22.215   8.284
 2123POPC   C3B28605  25.047  22.144   7.851
 2123POPC   C4B28606  24.834  22.437   7.608
 2124POPC   NC328607   8.922   8.565   9.516
 2124POPC   PO428608   9.307   7.963   9.462
 2124POPC   GL128609   9.086   8.173   9.173
 2124POPC   GL228610   9.274   8.489   9.152
 2124POPC   C1A28611   9.154   8.040   8.760
 2124POPC   D2A28612   8.954   7.969   8.364
 2124POPC   C3A28613   9.161   7.966   7.960
 2124POPC   C4A28614   8.806   8.003   7.684
 2124POPC   C1B28615   9.021   8.533   8.793
 2124POPC   C2B28616   8.992   8.604   8.390
 2124POPC   C3B28617   8.892   8.400   8.029
 2124POPC   C4B28618   8.895   8.559   7.645
 2125POPC   NC328619  41.962   2.652   9.713
 2125POPC   PO428620  42.525   2.890   9.404
 2125POPC   GL128621  42.294   2.822   9.004
 2125POPC   GL228622  42.122   2.459   8.912
 2125POPC   C1A28623  42.438   2.721   8.600
 2125POPC   D2A28624  42.201   2.562   8.286
 2125POPC   C3A28625  42.402   2.741   7.951
 2125POPC   C4A28626  42.108   2.742   7.644
 2125POPC   C1B28627  42.464   2.215   8.651
 2125POPC   C2B28628  42.526   2.167   8.208
 2125POPC   C3B28629  42.280   2.279   7.832
 2125POPC   C4B28630  42.438   2.232   7.381
 2126POPC   NC328631  25.406  28.850   9.470
 2126POPC   PO428632  24.986  29.321   9.332
 2126POPC   GL128633  25.359  29.211   9.100
 2126POPC   GL228634  25.334  28.876   8.944
 2126POPC   C1A28635  25.523  29.265   8.692
 2126POPC   D2A28636  25.464  28.999   8.327
 2126POPC   C3A28637  25.425  29.153   7.920
 2126POPC   C4A28638  25.369  29.287   7.494
 2126POPC   C1B28639  25.027  29.089   8.712
 2126POPC   C2B28640  24.981  29.197   8.296
 2126POPC   C3B28641  24.909  29.059   7.904
 2126POPC   C4B28642  24.868  29.291   7.537
 2127POPC   NC328643   0.491  32.494   9.389
 2127POPC   PO428644   0.146  32.063   9.774
 2127POPC   GL128645   0.476  31.951   9.319
 2127POPC   GL228646   0.711  32.184   9.065
 2127POPC   C1A28647   0.536  31.813   8.822
 2127POPC   D2A28648   0.259  31.974   8.470
 2127POPC   C3A28649   0.342  32.052   8.036
 2127POPC   C4A28650   0.636  31.912   7.766
 2127POPC   C1B28651   0.409  32.352   8.768
 2127POPC   C2B28652   0.276  32.484   8.382
 2127POPC   C3B28653   0.573  32.510   8.116
 2127POPC   C4B28654   0.710  32.461   7.777
 2128POPC   NC328655  33.191   4.638   9.350
 2128POPC   PO428656  32.877   4.011   9.498
 2128POPC   GL128657  33.068   4.143   9.149
 2128POPC   GL228658  32.800   4.377   9.090
 2128POPC   C1A28659  33.166   4.298   8.741
 2128POPC   D2A28660  33.121   4.491   8.346
 2128POPC   C3A28661  33.036   4.304   7.949
 2128POPC   C4A28662  33.241   4.193   7.549
 2128POPC   C1B28663  32.799   4.680   8.751
 2128POPC   C2B28664  32.729   4.837   8.347
 2128POPC   C3B28665  32.690   4.711   7.928
 2128POPC   C4B28666  32.868   4.799   7.524
 2129POPC   NC328667   5.821  31.327   9.482
 2129POPC   PO428668   5.505  31.972   9.523
 2129POPC   GL128669   5.732  31.737   9.192
 2129POPC   GL228670   6.102  31.729   9.257
 2129POPC   C1A28671   5.714  31.537   8.787
 2129POPC   D2A28672   5.577  31.701   8.402
 2129POPC   C3A28673   5.732  31.474   8.094
 2129POPC   C4A28674   5.751  31.335   7.692
 2129POPC   C1B28675   6.234  31.513   8.876
 2129POPC   C2B28676   6.197  31.386   8.458
 2129POPC   C3B28677   6.243  31.354   8.010
 2129POPC   C4B28678   6.267  31.668   7.686
 2130POPC   NC328679  44.831   4.227   9.507
 2130POPC   PO428680  44.187   4.400   9.497
 2130POPC   GL128681  44.464   4.278   9.157
 2130POPC   GL228682  44.668   4.584   9.186
 2130POPC   C1A28683  44.671   4.090   8.771
 2130POPC   D2A28684   0.030   4.080   8.444
 2130POPC   C3A28685  44.852   4.128   8.011
 2130POPC   C4A28686  44.472   4.158   7.746
 2130POPC   C1B28687  44.504   4.599   8.772
 2130POPC   C2B28688  44.647   4.444   8.385
 2130POPC   C3B28689  44.735   4.624   8.003
 2130POPC   C4B28690  44.478   4.672   7.674
 2131POPC   NC328691  40.895  19.573   9.550
 2131POPC   PO428692  40.611  20.194   9.530
 2131POPC   GL128693  40.706  19.912   9.194
 2131POPC   GL228694  40.515  19.593   9.185
 2131POPC   C1A28695  40.917  19.922   8.816
 2131POPC   D2A28696  40.728  20.005   8.431
 2131POPC   C3A28697  41.008  19.766   8.161
 2131POPC   C4A28698  41.074  19.813   7.721
 2131POPC   C1B28699  40.439  19.718   8.752
 2131POPC   C2B28700  40.529  19.565   8.306
 2131POPC   C3B28701  40.588  19.712   7.879
 2131POPC   C4B28702  40.592  19.673   7.421
 2132POPC   NC328703  29.872  19.155   9.565
 2132POPC   PO428704  30.483  18.747   9.597
 2132POPC   GL128705  30.193  18.926   9.232
 2132POPC   GL228706  29.919  18.716   9.141
 2132POPC   C1A28707  29.974  19.117   8.832
 2132POPC   D2A28708  29.804  19.106   8.399
 2132POPC   C3A28709  29.964  19.293   7.975
 2132POPC   C4A28710  30.046  19.240   7.499
 2132POPC   C1B28711  29.604  18.757   8.781
 2132POPC   C2B28712  29.628  18.606   8.340
 2132POPC   C3B28713  29.781  18.802   7.971
 2132POPC   C4B28714  29.642  18.999   7.619
 2133POPC   NC328715  34.650  31.852   9.348
 2133POPC   PO428716  34.582  32.450   9.294
 2133POPC   GL128717  34.664  32.181   8.972
 2133POPC   GL228718  34.292  32.116   9.018
 2133POPC   C1A28719  34.773  32.258   8.552
 2133POPC   D2A28720  34.426  32.509   8.374
 2133POPC   C3A28721  34.406  32.431   7.980
 2133POPC   C4A28722  34.761  32.281   7.802
 2133POPC   C1B28723  34.318  32.022   8.586
 2133POPC   C2B28724  34.530  31.773   8.280
 2133POPC   C3B28725  34.487  31.791   7.833
 2133POPC   C4B28726  34.201  32.063   7.711
 2134POPC   NC328727   7.951  19.527   9.296
 2134POPC   PO428728   8.507  19.726   9.634
 2134POPC   GL128729   8.384  19.787   9.156
 2134POPC   GL228730   8.267  19.529   8.898
 2134POPC   C1A28731   8.432  20.002   8.733
 2134POPC   D2A28732   8.555  19.832   8.323
 2134POPC   C3A28733   8.283  19.749   7.961
 2134POPC   C4A28734   8.226  20.061   7.642
 2134POPC   C1B28735   7.946  19.839   8.708
 2134POPC   C2B28736   8.048  20.036   8.309
 2134POPC   C3B28737   7.814  19.972   7.928
 2134POPC   C4B28738   7.937  19.675   7.546
 2135POPC   NC328739   8.355  11.611   9.742
 2135POPC   PO428740   8.021  11.071   9.480
 2135POPC   GL128741   8.125  11.139   9.063
 2135POPC   GL228742   7.814  11.270   9.031
 2135POPC   C1A28743   8.417  11.213   8.734
 2135POPC   D2A28744   8.547  11.416   8.342
 2135POPC   C3A28745   8.353  11.422   7.933
 2135POPC   C4A28746   8.499  11.201   7.575
 2135POPC   C1B28747   7.794  11.234   8.607
 2135POPC   C2B28748   8.070  11.166   8.274
 2135POPC   C3B28749   8.211  10.926   7.903
 2135POPC   C4B28750   8.106  10.907   7.468
 2136POPC   NC328751  42.404  43.313   9.592
 2136POPC   PO428752  42.622  42.674   9.500
 2136POPC   GL128753  42.342  42.964   9.214
 2136POPC   GL228754  42.467  43.324   9.099
 2136POPC   C1A28755  42.156  43.027   8.814
 2136POPC   D2A28756  42.381  43.015   8.415
 2136POPC   C3A28757  42.238  43.344   8.161
 2136POPC   C4A28758  42.219  43.380   7.707
 2136POPC   C1B28759  42.726  43.311   8.733
 2136POPC   C2B28760  42.827  43.288   8.322
 2136POPC   C3B28761  42.674  43.142   7.946
 2136POPC   C4B28762  42.723  43.322   7.563
 2137POPC   NC328763  10.086   4.961   9.602
 2137POPC   PO428764  10.539   5.501   9.462
 2137POPC   GL128765  10.581   5.300   9.020
 2137POPC   GL228766  10.530   4.917   9.033
 2137POPC   C1A28767  10.637   5.118   8.590
 2137POPC   D2A28768  10.365   4.895   8.319
 2137POPC   C3A28769  10.376   5.160   7.954
 2137POPC   C4A28770  10.737   5.439   7.942
 2137POPC   C1B28771  10.492   4.551   8.744
 2137POPC   C2B28772  10.679   4.479   8.338
 2137POPC   C3B28773  10.743   4.788   7.968
 2137POPC   C4B28774  10.470   4.795   7.586
 2138POPC   NC328775  16.274  19.342   9.325
 2138POPC   PO428776  16.685  19.036   9.739
 2138POPC   GL128777  16.796  19.051   9.261
 2138POPC   GL228778  16.824  18.709   9.134
 2138POPC   C1A28779  16.938  19.114   8.783
 2138POPC   D2A28780  17.031  19.131   8.306
 2138POPC   C3A28781  16.736  19.055   7.958
 2138POPC   C4A28782  16.410  19.274   7.708
 2138POPC   C1B28783  17.022  18.567   8.727
 2138POPC   C2B28784  17.105  18.620   8.279
 2138POPC   C3B28785  16.876  18.558   7.864
 2138POPC   C4B28786  16.732  18.465   7.431
 2139POPC   NC328787  30.472   9.715   9.570
 2139POPC   PO428788  30.728  10.300   9.346
 2139POPC   GL128789  30.598   9.980   9.100
 2139POPC   GL228790  30.772   9.675   9.137
 2139POPC   C1A28791  30.792   9.955   8.698
 2139POPC   D2A28792  30.752   9.729   8.306
 2139POPC   C3A28793  30.748   9.938   7.916
 2139POPC   C4A28794  30.463  10.258   7.771
 2139POPC   C1B28795  30.815   9.409   8.752
 2139POPC   C2B28796  31.046   9.326   8.359
 2139POPC   C3B28797  30.898   9.396   7.917
 2139POPC   C4B28798  31.006   9.358   7.461
 2140POPC   NC328799  29.495  32.877   9.548
 2140POPC   PO428800  29.966  33.348   9.397
 2140POPC   GL128801  29.750  33.093   9.145
 2140POPC   GL228802  29.645  33.303   8.894
 2140POPC   C1A28803  29.786  32.796   8.805
 2140POPC   D2A28804  29.629  32.783   8.382
 2140POPC   C3A28805  29.921  32.680   8.072
 2140POPC   C4A28806  30.286  32.732   7.820
 2140POPC   C1B28807  30.116  33.196   8.780
 2140POPC   C2B28808  30.219  32.987   8.408
 2140POPC   C3B28809  30.066  33.154   8.016
 2140POPC   C4B28810  29.726  33.069   7.815
 2141POPC   NC328811  25.591  40.760   9.744
 2141POPC   PO428812  25.078  40.429   9.508
 2141POPC   GL128813  25.121  40.623   9.131
 2141POPC   GL228814  25.464  40.569   9.102
 2141POPC   C1A28815  25.081  40.884   8.787
 2141POPC   D2A28816  25.354  40.917   8.435
 2141POPC   C3A28817  25.155  40.961   8.058
 2141POPC   C4A28818  25.199  40.821   7.669
 2141POPC   C1B28819  25.337  40.430   8.720
 2141POPC   C2B28820  25.498  40.421   8.350
 2141POPC   C3B28821  25.494  40.589   8.013
 2141POPC   C4B28822  25.548  40.386   7.669
 2142POPC   NC328823   7.200  16.244   9.395
 2142POPC   PO428824   7.384  16.834   9.542
 2142POPC   GL128825   7.448  16.648   9.162
 2142POPC   GL228826   7.628  16.960   9.068
 2142POPC   C1A28827   7.473  16.454   8.756
 2142POPC   D2A28828   7.514  16.648   8.375
 2142POPC   C3A28829   7.330  16.449   8.046
 2142POPC   C4A28830   7.611  16.429   7.761
 2142POPC   C1B28831   7.249  16.910   8.770
 2142POPC   C2B28832   7.086  16.927   8.338
 2142POPC   C3B28833   7.297  16.930   7.906
 2142POPC   C4B28834   7.092  17.116   7.566
 2143POPC   NC328835  24.056  26.611   9.396
 2143POPC   PO428836  24.567  27.046   9.435
 2143POPC   GL128837  24.414  26.892   9.139
 2143POPC   GL228838  24.495  26.576   9.158
 2143POPC   C1A28839  24.606  26.899   8.752
 2143POPC   D2A28840  24.609  27.183   8.416
 2143POPC   C3A28841  24.615  26.952   8.028
 2143POPC   C4A28842  24.598  27.187   7.643
 2143POPC   C1B28843  24.573  26.389   8.768
 2143POPC   C2B28844  24.774  26.550   8.393
 2143POPC   C3B28845  24.771  26.358   8.009
 2143POPC   C4B28846  24.491  26.495   7.729
 2144POPC   NC328847  22.269  21.878   9.458
 2144POPC   PO428848  22.029  22.444   9.718
 2144POPC   GL128849  22.123  22.358   9.239
 2144POPC   GL228850  22.405  22.142   9.053
 2144POPC   C1A28851  22.075  22.402   8.767
 2144POPC   D2A28852  22.146  22.276   8.352
 2144POPC   C3A28853  22.250  22.527   8.018
 2144POPC   C4A28854  22.286  22.482   7.578
 2144POPC   C1B28855  22.477  21.979   8.636
 2144POPC   C2B28856  22.588  22.066   8.220
 2144POPC   C3B28857  22.308  22.023   7.922
 2144POPC   C4B28858  22.008  21.733   7.841
 2145POPC   NC328859  17.349  31.650   9.530
 2145POPC   PO428860  17.853  31.341   9.413
 2145POPC   GL128861  17.698  31.660   9.126
 2145POPC   GL228862  17.334  31.580   9.029
 2145POPC   C1A28863  17.656  31.770   8.700
 2145POPC   D2A28864  17.425  31.496   8.438
 2145POPC   C3A28865  17.510  31.445   7.992
 2145POPC   C4A28866  17.835  31.476   7.652
 2145POPC   C1B28867  17.077  31.793   8.701
 2145POPC   C2B28868  17.014  31.724   8.237
 2145POPC   C3B28869  17.216  31.859   7.893
 2145POPC   C4B28870  17.632  32.022   7.767
 2146POPC   NC328871  27.802  26.569   9.491
 2146POPC   PO428872  27.491  27.125   9.666
 2146POPC   GL128873  27.635  27.016   9.243
 2146POPC   GL228874  27.317  27.152   9.128
 2146POPC   C1A28875  27.886  26.816   8.871
 2146POPC   D2A28876  27.763  26.710   8.478
 2146POPC   C3A28877  27.857  26.888   8.090
 2146POPC   C4A28878  27.583  26.913   7.741
 2146POPC   C1B28879  27.407  26.958   8.767
 2146POPC   C2B28880  27.313  26.890   8.365
 2146POPC   C3B28881  27.145  26.828   8.028
 2146POPC   C4B28882  27.061  27.004   7.676
 2147POPC   NC328883  19.478  10.960   9.530
 2147POPC   PO428884  18.979  10.430   9.436
 2147POPC   GL128885  19.021  10.579   9.019
 2147POPC   GL228886  19.313  10.819   9.060
 2147POPC   C1A28887  18.875  10.423   8.607
 2147POPC   D2A28888  18.812  10.064   8.306
 2147POPC   C3A28889  18.786  10.277   7.924
 2147POPC   C4A28890  18.983  10.612   7.716
 2147POPC   C1B28891  19.370  10.653   8.638
 2147POPC   C2B28892  19.224  10.580   8.212
 2147POPC   C3B28893  19.312  10.273   7.899
 2147POPC   C4B28894  19.306  10.274   7.439
 2148POPC   NC328895   4.810   8.932   9.376
 2148POPC   PO428896   5.416   8.712   9.567
 2148POPC   GL128897   5.316   8.991   9.199
 2148POPC   GL228898   5.270   8.723   8.998
 2148POPC   C1A28899   5.056   9.158   8.819
 2148POPC   D2A28900   4.752   8.981   8.504
 2148POPC   C3A28901   4.984   8.946   8.113
 2148POPC   C4A28902   4.923   8.938   7.667
 2148POPC   C1B28903   5.224   8.700   8.545
 2148POPC   C2B28904   5.500   8.597   8.207
 2148POPC   C3B28905   5.504   8.626   7.757
 2148POPC   C4B28906   5.255   8.694   7.367
 2149POPC   NC328907  24.550  37.520   9.880
 2149POPC   PO428908  24.774  37.424   9.276
 2149POPC   GL128909  24.644  37.744   9.045
 2149POPC   GL228910  24.337  37.628   8.886
 2149POPC   C1A28911  24.641  38.018   8.723
 2149POPC   D2A28912  24.375  37.876   8.397
 2149POPC   C3A28913  24.521  37.930   8.010
 2149POPC   C4A28914  24.761  37.916   7.662
 2149POPC   C1B28915  24.646  37.487   8.613
 2149POPC   C2B28916  24.654  37.481   8.204
 2149POPC   C3B28917  24.684  37.431   7.804
 2149POPC   C4B28918  24.393  37.298   7.505
 2150POPC   NC328919  32.112  23.028   9.552
 2150POPC   PO428920  32.497  22.472   9.432
 2150POPC   GL128921  32.391  22.797   9.188
 2150POPC   GL228922  32.549  23.111   9.234
 2150POPC   C1A28923  32.188  22.955   8.814
 2150POPC   D2A28924  31.908  23.053   8.460
 2150POPC   C3A28925  31.993  23.021   8.016
 2150POPC   C4A28926  31.805  23.254   7.651
 2150POPC   C1B28927  32.540  23.357   8.855
 2150POPC   C2B28928  32.402  23.245   8.449
 2150POPC   C3B28929  32.479  23.127   8.055
 2150POPC   C4B28930  32.332  23.301   7.720
 2151POPC   NC328931  15.905  11.541   9.541
 2151POPC   PO428932  15.616  10.929   9.718
 2151POPC   GL128933  15.839  11.022   9.280
 2151POPC   GL228934  15.852  11.359   9.077
 2151POPC   C1A28935  15.715  10.945   8.812
 2151POPC   D2A28936  15.695  10.955   8.338
 2151POPC   C3A28937  15.933  11.212   8.094
 2151POPC   C4A28938  16.062  11.166   7.677
 2151POPC   C1B28939  16.037  11.674   8.833
 2151POPC   C2B28940  16.140  11.511   8.468
 2151POPC   C3B28941  16.193  11.667   8.085
 2151POPC   C4B28942  16.059  11.704   7.718
 2152POPC   NC328943  20.392  10.704   9.721
 2152POPC   PO428944  19.663  10.530   9.589
 2152POPC   GL128945  19.817  10.608   9.151
 2152POPC   GL228946  20.097  10.403   9.032
 2152POPC   C1A28947  19.909  10.725   8.707
 2152POPC   D2A28948  19.745  10.803   8.307
 2152POPC   C3A28949  19.756  10.459   8.080
 2152POPC   C4A28950  19.651  10.582   7.707
 2152POPC   C1B28951  20.371  10.498   8.665
 2152POPC   C2B28952  20.263  10.620   8.285
 2152POPC   C3B28953  20.143  10.778   7.939
 2152POPC   C4B28954  20.149  10.478   7.663
 2153POPC   NC328955  32.598  43.205   9.537
 2153POPC   PO428956  32.002  43.012   9.560
 2153POPC   GL128957  32.256  42.941   9.198
 2153POPC   GL228958  32.355  43.269   9.076
 2153POPC   C1A28959  32.354  42.857   8.763
 2153POPC   D2A28960  32.506  42.935   8.371
 2153POPC   C3A28961  32.248  42.971   8.048
 2153POPC   C4A28962  32.210  42.930   7.650
 2153POPC   C1B28963  32.328  43.398   8.630
 2153POPC   C2B28964  32.494  43.404   8.200
 2153POPC   C3B28965  32.383  43.393   7.760
 2153POPC   C4B28966  32.435  43.603   7.389
 2154POPC   NC328967   4.523  27.674   9.436
 2154POPC   PO428968   3.817  27.965   9.510
 2154POPC   GL128969   4.013  27.726   9.098
 2154POPC   GL228970   4.342  27.558   8.962
 2154POPC   C1A28971   3.972  27.668   8.632
 2154POPC   D2A28972   4.254  27.814   8.304
 2154POPC   C3A28973   4.195  27.692   7.854
 2154POPC   C4A28974   4.286  27.967   7.478
 2154POPC   C1B28975   4.177  27.219   8.675
 2154POPC   C2B28976   4.138  27.310   8.234
 2154POPC   C3B28977   4.332  27.206   7.854
 2154POPC   C4B28978   3.962  27.269   7.642
 2155POPC   NC328979   1.282  33.808   9.604
 2155POPC   PO428980   1.190  34.365   9.296
 2155POPC   GL128981   1.440  34.068   9.071
 2155POPC   GL228982   1.358  33.696   9.119
 2155POPC   C1A28983   1.355  34.088   8.631
 2155POPC   D2A28984   1.050  34.195   8.318
 2155POPC   C3A28985   1.211  33.972   7.994
 2155POPC   C4A28986   1.549  33.943   7.790
 2155POPC   C1B28987   1.084  33.705   8.792
 2155POPC   C2B28988   1.178  33.631   8.380
 2155POPC   C3B28989   1.364  33.500   7.998
 2155POPC   C4B28990   1.024  33.385   7.787
 2156POPC   NC328991  40.211  23.390   9.299
 2156POPC   PO428992  39.859  23.764   9.708
 2156POPC   GL128993  39.828  23.739   9.233
 2156POPC   GL228994  39.671  24.030   9.136
 2156POPC   C1A28995  39.784  23.535   8.834
 2156POPC   D2A28996  39.775  23.469   8.383
 2156POPC   C3A28997  40.175  23.629   8.175
 2156POPC   C4A28998  40.251  23.611   7.733
 2156POPC   C1B28999  39.579  23.949   8.675
 2156POPC   C2B29000  39.776  23.962   8.262
 2156POPC   C3B29001  39.791  23.777   7.844
 2156POPC   C4B29002  39.960  24.044   7.494
 2157POPC   NC329003  40.045  24.154   9.539
 2157POPC   PO429004  40.272  24.837   9.476
 2157POPC   GL129005  40.175  24.769   9.082
 2157POPC   GL229006  40.001  24.449   9.136
 2157POPC   C1A29007  39.963  24.682   8.711
 2157POPC   D2A29008  39.925  24.435   8.353
 2157POPC   C3A29009  39.992  24.631   7.974
 2157POPC   C4A29010  40.153  24.842   7.631
 2157POPC   C1B29011  40.048  24.165   8.777
 2157POPC   C2B29012  40.302  24.094   8.390
 2157POPC   C3B29013  40.179  24.128   7.953
 2157POPC   C4B29014  40.424  24.286   7.589
 2158POPC   NC329015  36.466  17.096   9.523
 2158POPC   PO429016  36.133  16.479   9.535
 2158POPC   GL129017  36.187  16.743   9.171
 2158POPC   GL229018  35.908  16.991   9.166
 2158POPC   C1A29019  36.369  16.702   8.736
 2158POPC   D2A29020  36.124  16.507   8.403
 2158POPC   C3A29021  36.255  16.612   7.997
 2158POPC   C4A29022  35.938  16.562   7.708
 2158POPC   C1B29023  35.888  16.869   8.733
 2158POPC   C2B29024  36.134  17.027   8.356
 2158POPC   C3B29025  35.975  17.042   7.929
 2158POPC   C4B29026  36.147  17.139   7.532
 2159POPC   NC329027  19.866  27.322   9.409
 2159POPC   PO429028  19.409  27.785   9.570
 2159POPC   GL129029  19.750  27.756   9.158
 2159POPC   GL229030  20.089  27.496   9.010
 2159POPC   C1A29031  19.956  27.898   8.762
 2159POPC   D2A29032  19.822  27.764   8.366
 2159POPC   C3A29033  19.993  27.923   8.011
 2159POPC   C4A29034  19.860  27.723   7.643
 2159POPC   C1B29035  20.385  27.237   8.706
 2159POPC   C2B29036  20.232  27.120   8.271
 2159POPC   C3B29037  20.078  27.393   7.951
 2159POPC   C4B29038  20.251  27.380   7.525
 2160POPC   NC329039  25.329  43.410   9.450
 2160POPC   PO429040  25.050  42.841   9.607
 2160POPC   GL129041  25.070  42.936   9.168
 2160POPC   GL229042  25.416  42.900   9.214
 2160POPC   C1A29043  25.279  43.208   8.820
 2160POPC   D2A29044  25.479  43.118   8.423
 2160POPC   C3A29045  25.198  43.194   8.077
 2160POPC   C4A29046  24.856  43.005   7.859
 2160POPC   C1B29047  25.417  42.716   8.837
 2160POPC   C2B29048  25.536  42.611   8.478
 2160POPC   C3B29049  25.462  42.729   8.084
 2160POPC   C4B29050  25.352  42.875   7.687
 2161POPC   NC329051  17.741  24.591   9.472
 2161POPC   PO429052  17.165  24.513   9.258
 2161POPC   GL129053  17.419  24.862   9.063
 2161POPC   GL229054  17.800  24.868   9.048
 2161POPC   C1A29055  17.259  24.833   8.647
 2161POPC   D2A29056  17.322  24.484   8.397
 2161POPC   C3A29057  17.425  24.642   8.022
 2161POPC   C4A29058  17.314  24.448   7.668
 2161POPC   C1B29059  17.677  24.467   8.826
 2161POPC   C2B29060  17.801  24.240   8.474
 2161POPC   C3B29061  17.911  24.453   8.117
 2161POPC   C4B29062  17.822  24.566   7.700
 2162POPC   NC329063  32.417  38.361   9.558
 2162POPC   PO429064  32.071  38.710   9.147
 2162POPC   GL129065  32.413  38.455   8.999
 2162POPC   GL229066  32.601  38.150   9.132
 2162POPC   C1A29067  32.309  38.415   8.575
 2162POPC   D2A29068  31.923  38.377   8.324
 2162POPC   C3A29069  32.052  38.501   7.905
 2162POPC   C4A29070  32.350  38.383   7.634
 2162POPC   C1B29071  32.490  37.951   8.730
 2162POPC   C2B29072  32.293  37.999   8.287
 2162POPC   C3B29073  32.407  37.951   7.879
 2162POPC   C4B29074  32.805  38.046   7.671
 2163POPC   NC329075  15.051  21.588   9.500
 2163POPC   PO429076  15.610  21.721   9.309
 2163POPC   GL129077  15.307  21.636   9.011
 2163POPC   GL229078  14.933  21.639   9.020
 2163POPC   C1A29079  15.239  21.629   8.585
 2163POPC   D2A29080  15.178  21.340   8.278
 2163POPC   C3A29081  15.338  21.322   7.877
 2163POPC   C4A29082  15.577  20.957   7.788
 2163POPC   C1B29083  14.784  21.392   8.740
 2163POPC   C2B29084  14.678  21.400   8.345
 2163POPC   C3B29085  14.791  21.109   8.021
 2163POPC   C4B29086  14.910  21.151   7.613
 2164POPC   NC329087  23.591  30.881   9.402
 2164POPC   PO429088  23.814  30.309   9.409
 2164POPC   GL129089  23.683  30.522   9.078
 2164POPC   GL229090  23.301  30.499   9.101
 2164POPC   C1A29091  23.885  30.709   8.767
 2164POPC   D2A29092  24.007  30.923   8.441
 2164POPC   C3A29093  24.052  30.753   8.058
 2164POPC   C4A29094  23.872  30.876   7.698
 2164POPC   C1B29095  23.383  30.608   8.654
 2164POPC   C2B29096  23.560  30.567   8.207
 2164POPC   C3B29097  23.387  30.663   7.769
 2164POPC   C4B29098  23.340  30.474   7.349
 2165POPC   NC329099  14.077  27.072   9.498
 2165POPC   PO429100  14.628  26.675   9.429
 2165POPC   GL129101  14.400  26.842   9.119
 2165POPC   GL229102  14.416  27.174   9.088
 2165POPC   C1A29103  14.424  26.795   8.671
 2165POPC   D2A29104  14.242  26.516   8.368
 2165POPC   C3A29105  14.453  26.502   7.981
 2165POPC   C4A29106  14.337  26.718   7.590
 2165POPC   C1B29107  14.005  27.022   8.853
 2165POPC   C2B29108  13.975  26.955   8.417
 2165POPC   C3B29109  14.267  26.995   8.073
 2165POPC   C4B29110  14.134  27.235   7.737
 2166POPC   NC329111   8.953  17.941   9.382
 2166POPC   PO429112   9.056  18.689   9.429
 2166POPC   GL129113   8.956  18.418   9.119
 2166POPC   GL229114   9.280  18.322   9.013
 2166POPC   C1A29115   8.790  18.216   8.740
 2166POPC   D2A29116   8.815  17.917   8.384
 2166POPC   C3A29117   8.960  18.181   8.040
 2166POPC   C4A29118   8.778  18.354   7.667
 2166POPC   C1B29119   9.182  18.589   8.687
 2166POPC   C2B29120   8.939  18.601   8.357
 2166POPC   C3B29121   9.053  18.679   7.977
 2166POPC   C4B29122   9.123  18.696   7.564
 2167POPC   NC329123   4.090  10.741   9.385
 2167POPC   PO429124   4.557  10.447   9.719
 2167POPC   GL129125   4.357  10.350   9.255
 2167POPC   GL229126   4.425  10.640   9.040
 2167POPC   C1A29127   4.342  10.214   8.798
 2167POPC   D2A29128   4.212  10.381   8.429
 2167POPC   C3A29129   4.309  10.275   8.038
 2167POPC   C4A29130   4.153  10.516   7.703
 2167POPC   C1B29131   4.433  10.799   8.656
 2167POPC   C2B29132   4.378  11.063   8.333
 2167POPC   C3B29133   4.692  11.009   8.055
 2167POPC   C4B29134   4.596  10.691   7.831
 2168POPC   NC329135  13.405   2.265   9.294
 2168POPC   PO429136  12.790   2.014   9.535
 2168POPC   GL129137  12.871   1.821   9.169
 2168POPC   GL229138  12.515   1.718   9.122
 2168POPC   C1A29139  12.987   2.035   8.793
 2168POPC   D2A29140  12.974   1.839   8.390
 2168POPC   C3A29141  13.138   2.092   8.121
 2168POPC   C4A29142  12.877   2.124   7.785
 2168POPC   C1B29143  12.557   1.768   8.687
 2168POPC   C2B29144  12.383   1.998   8.333
 2168POPC   C3B29145  12.400   2.042   7.911
 2168POPC   C4B29146  12.528   1.640   7.780
 2169POPC   NC329147   9.618  12.347   9.535
 2169POPC   PO429148  10.140  11.979   9.583
 2169POPC   GL129149   9.837  11.981   9.231
 2169POPC   GL229150   9.995  11.824   8.980
 2169POPC   C1A29151   9.583  12.133   8.860
 2169POPC   D2A29152   9.524  12.019   8.427
 2169POPC   C3A29153   9.517  12.237   8.054
 2169POPC   C4A29154   9.476  12.067   7.636
 2169POPC   C1B29155   9.992  11.924   8.597
 2169POPC   C2B29156  10.006  12.031   8.194
 2169POPC   C3B29157  10.203  11.846   7.884
 2169POPC   C4B29158   9.988  11.970   7.553
 2170POPC   NC329159   1.299  12.615   9.997
 2170POPC   PO429160   1.141  13.034   9.505
 2170POPC   GL129161   1.122  12.863   9.099
 2170POPC   GL229162   1.384  12.639   9.199
 2170POPC   C1A29163   1.067  13.029   8.672
 2170POPC   D2A29164   1.095  13.088   8.218
 2170POPC   C3A29165   0.986  13.052   7.785
 2170POPC   C4A29166   0.691  13.006   7.432
 2170POPC   C1B29167   1.410  12.560   8.767
 2170POPC   C2B29168   1.462  12.652   8.331
 2170POPC   C3B29169   1.225  12.611   7.970
 2170POPC   C4B29170   1.358  12.598   7.575
 2171POPC   NC329171  27.960  22.448   9.843
 2171POPC   PO429172  28.386  22.015   9.509
 2171POPC   GL129173  28.506  22.099   9.086
 2171POPC   GL229174  28.230  22.315   9.056
 2171POPC   C1A29175  28.494  22.143   8.635
 2171POPC   D2A29176  28.690  22.322   8.289
 2171POPC   C3A29177  28.502  22.106   7.975
 2171POPC   C4A29178  28.334  22.007   7.603
 2171POPC   C1B29179  28.043  22.394   8.673
 2171POPC   C2B29180  28.109  22.207   8.287
 2171POPC   C3B29181  28.045  22.353   7.883
 2171POPC   C4B29182  28.206  22.509   7.529
 2172POPC   NC329183   6.823  43.261   9.470
 2172POPC   PO429184   6.247  42.812   9.485
 2172POPC   GL129185   6.521  42.706   9.123
 2172POPC   GL229186   6.893  42.774   9.149
 2172POPC   C1A29187   6.634  42.804   8.687
 2172POPC   D2A29188   6.643  43.224   8.486
 2172POPC   C3A29189   6.695  43.130   8.054
 2172POPC   C4A29190   6.669  43.342   7.692
 2172POPC   C1B29191   7.044  43.076   8.812
 2172POPC   C2B29192   7.131  43.105   8.363
 2172POPC   C3B29193   7.124  43.394   7.982
 2172POPC   C4B29194   7.186  43.268   7.556
 2173POPC   NC329195  28.286  42.037   9.717
 2173POPC   PO429196  28.420  41.332   9.735
 2173POPC   GL129197  28.400  41.573   9.233
 2173POPC   GL229198  28.608  41.843   9.179
 2173POPC   C1A29199  28.197  41.498   8.826
 2173POPC   D2A29200  28.290  41.466   8.400
 2173POPC   C3A29201  28.063  41.685   8.091
 2173POPC   C4A29202  28.021  41.343   7.842
 2173POPC   C1B29203  28.587  41.804   8.748
 2173POPC   C2B29204  28.380  41.996   8.390
 2173POPC   C3B29205  28.487  41.955   7.953
 2173POPC   C4B29206  28.328  41.676   7.607
 2174POPC   NC329207  16.262  20.996   9.303
 2174POPC   PO429208  15.991  20.475   9.662
 2174POPC   GL129209  15.916  20.623   9.205
 2174POPC   GL229210  16.195  20.478   9.117
 2174POPC   C1A29211  16.008  20.723   8.741
 2174POPC   D2A29212  16.119  20.768   8.338
 2174POPC   C3A29213  15.833  20.638   8.100
 2174POPC   C4A29214  15.999  20.655   7.735
 2174POPC   C1B29215  16.391  20.299   8.794
 2174POPC   C2B29216  16.181  20.275   8.444
 2174POPC   C3B29217  16.147  20.241   8.042
 2174POPC   C4B29218  16.251  20.224   7.623
 2175POPC   NC329219  19.238  38.996   9.445
 2175POPC   PO429220  18.903  38.306   9.448
 2175POPC   GL129221  19.204  38.539   9.200
 2175POPC   GL229222  18.970  38.449   8.967
 2175POPC   C1A29223  19.314  38.726   8.773
 2175POPC   D2A29224  19.190  38.509   8.390
 2175POPC   C3A29225  19.221  38.634   7.981
 2175POPC   C4A29226  19.376  38.772   7.575
 2175POPC   C1B29227  19.335  38.207   8.776
 2175POPC   C2B29228  19.225  37.984   8.402
 2175POPC   C3B29229  19.030  38.129   8.017
 2175POPC   C4B29230  19.230  38.275   7.628
 2176POPC   NC329231  25.836  20.446   9.505
 2176POPC   PO429232  26.203  21.066   9.494
 2176POPC   GL129233  25.946  20.823   9.181
 2176POPC   GL229234  26.205  20.565   9.152
 2176POPC   C1A29235  25.860  20.606   8.777
 2176POPC   D2A29236  25.984  20.359   8.414
 2176POPC   C3A29237  25.939  20.564   8.019
 2176POPC   C4A29238  25.718  20.607   7.626
 2176POPC   C1B29239  26.388  20.520   8.756
 2176POPC   C2B29240  26.399  20.612   8.315
 2176POPC   C3B29241  26.434  20.385   7.903
 2176POPC   C4B29242  26.388  20.436   7.413
 2177POPC   NC329243  44.920  12.539   9.389
 2177POPC   PO429244  44.901  11.861   9.522
 2177POPC   GL129245  44.639  11.958   9.170
 2177POPC   GL229246  44.465  12.296   9.234
 2177POPC   C1A29247  44.711  12.070   8.742
 2177POPC   D2A29248  44.779  11.914   8.338
 2177POPC   C3A29249  44.566  11.884   7.969
 2177POPC   C4A29250  44.906  12.021   7.771
 2177POPC   C1B29251  44.409  12.459   8.814
 2177POPC   C2B29252  44.399  12.353   8.366
 2177POPC   C3B29253  44.362  12.523   7.946
 2177POPC   C4B29254  44.428  12.269   7.607
 2178POPC   NC329255  41.396  36.303   9.609
 2178POPC   PO429256  41.575  36.890   9.678
 2178POPC   GL129257  41.466  36.859   9.238
 2178POPC   GL229258  41.192  36.654   9.249
 2178POPC   C1A29259  41.603  36.845   8.768
 2178POPC   D2A29260  41.538  36.669   8.332
 2178POPC   C3A29261  41.746  36.902   7.960
 2178POPC   C4A29262  41.880  36.731   7.558
 2178POPC   C1B29263  41.112  36.862   8.849
 2178POPC   C2B29264  41.158  37.059   8.474
 2178POPC   C3B29265  41.245  36.981   8.076
 2178POPC   C4B29266  41.303  37.251   7.765
 2179POPC   NC329267   3.347  12.933   9.444
 2179POPC   PO429268   3.913  12.749   9.741
 2179POPC   GL129269   3.782  12.729   9.259
 2179POPC   GL229270   4.022  12.609   9.024
 2179POPC   C1A29271   3.553  12.792   8.835
 2179POPC   D2A29272   3.528  13.050   8.430
 2179POPC   C3A29273   3.204  12.976   8.117
 2179POPC   C4A29274   3.339  12.871   7.700
 2179POPC   C1B29275   3.987  12.515   8.582
 2179POPC   C2B29276   4.042  12.658   8.145
 2179POPC   C3B29277   3.764  12.588   7.790
 2179POPC   C4B29278   3.813  12.897   7.481
 2180POPC   NC329279  42.554  33.571   9.441
 2180POPC   PO429280  41.958  33.407   9.204
 2180POPC   GL129281  42.256  33.593   9.019
 2180POPC   GL229282  42.348  33.925   9.116
 2180POPC   C1A29283  42.156  33.658   8.638
 2180POPC   D2A29284  42.326  33.832   8.308
 2180POPC   C3A29285  42.244  33.626   7.916
 2180POPC   C4A29286  42.187  33.903   7.558
 2180POPC   C1B29287  42.629  33.861   8.737
 2180POPC   C2B29288  42.830  33.926   8.333
 2180POPC   C3B29289  42.614  34.009   7.934
 2180POPC   C4B29290  42.655  34.164   7.531
 2181POPC   NC329291  43.638  10.908   9.393
 2181POPC   PO429292  44.098  10.437   9.513
 2181POPC   GL129293  44.088  10.434   9.121
 2181POPC   GL229294  44.024  10.787   9.073
 2181POPC   C1A29295  43.823  10.411   8.770
 2181POPC   D2A29296  43.862  10.631   8.386
 2181POPC   C3A29297  43.701  10.386   8.072
 2181POPC   C4A29298  43.512  10.365   7.650
 2181POPC   C1B29299  44.079  11.011   8.670
 2181POPC   C2B29300  44.229  11.033   8.257
 2181POPC   C3B29301  44.040  10.806   7.934
 2181POPC   C4B29302  43.584  10.832   7.889
 2182POPC   NC329303   4.461  14.054   9.522
 2182POPC   PO429304   4.192  14.647   9.491
 2182POPC   GL129305   4.266  14.346   9.152
 2182POPC   GL229306   4.053  14.089   9.043
 2182POPC   C1A29307   4.470  14.336   8.773
 2182POPC   D2A29308   4.385  14.271   8.338
 2182POPC   C3A29309   4.610  14.284   7.976
 2182POPC   C4A29310   4.480  14.524   7.629
 2182POPC   C1B29311   3.974  14.384   8.678
 2182POPC   C2B29312   3.895  14.500   8.258
 2182POPC   C3B29313   4.054  14.395   7.886
 2182POPC   C4B29314   4.033  14.108   7.564
 2183POPC   NC329315  21.375  26.219   9.332
 2183POPC   PO429316  21.655  25.629   9.479
 2183POPC   GL129317  21.462  25.761   9.085
 2183POPC   GL229318  21.154  25.583   8.976
 2183POPC   C1A29319  21.280  26.016   8.735
 2183POPC   D2A29320  21.436  26.286   8.449
 2183POPC   C3A29321  21.429  26.027   8.100
 2183POPC   C4A29322  21.294  26.111   7.687
 2183POPC   C1B29323  21.003  25.600   8.573
 2183POPC   C2B29324  21.066  25.639   8.137
 2183POPC   C3B29325  20.864  25.821   7.791
 2183POPC   C4B29326  21.040  25.872   7.321
 2184POPC   NC329327  34.994  39.702   9.558
 2184POPC   PO429328  35.391  40.251   9.401
 2184POPC   GL129329  35.304  40.020   9.037
 2184POPC   GL229330  35.110  39.703   9.064
 2184POPC   C1A29331  35.357  40.006   8.603
 2184POPC   D2A29332  35.438  40.237   8.229
 2184POPC   C3A29333  35.487  39.995   7.879
 2184POPC   C4A29334  35.683  39.611   7.840
 2184POPC   C1B29335  35.117  39.560   8.626
 2184POPC   C2B29336  35.143  39.745   8.185
 2184POPC   C3B29337  35.043  39.736   7.720
 2184POPC   C4B29338  34.903  39.605   7.259
 2185POPC   NC329339  17.788  34.946   9.778
 2185POPC   PO429340  17.394  35.355   9.562
 2185POPC   GL129341  17.596  35.204   9.195
 2185POPC   GL229342  17.282  35.057   9.113
 2185POPC   C1A29343  17.605  35.093   8.727
 2185POPC   D2A29344  17.493  34.848   8.360
 2185POPC   C3A29345  17.507  35.126   8.042
 2185POPC   C4A29346  17.653  35.521   7.863
 2185POPC   C1B29347  17.258  35.477   8.913
 2185POPC   C2B29348  17.072  35.621   8.566
 2185POPC   C3B29349  17.264  35.592   8.171
 2185POPC   C4B29350  17.178  35.599   7.723
 2186POPC   NC329351  43.679   0.246   9.641
 2186POPC   PO429352  44.223   0.583   9.548
 2186POPC   GL129353  43.990   0.569   9.166
 2186POPC   GL229354  43.759   0.309   9.061
 2186POPC   C1A29355  44.114   0.500   8.723
 2186POPC   D2A29356  43.858   0.409   8.359
 2186POPC   C3A29357  44.053   0.223   7.976
 2186POPC   C4A29358  44.380   0.414   7.697
 2186POPC   C1B29359  43.661   0.723   8.812
 2186POPC   C2B29360  43.471   0.769   8.407
 2186POPC   C3B29361  43.574   0.646   7.998
 2186POPC   C4B29362  43.524   0.356   7.657
 2187POPC   NC329363   4.837  34.761   9.451
 2187POPC   PO429364   5.512  34.628   9.465
 2187POPC   GL129365   5.206  34.604   9.119
 2187POPC   GL229366   5.011  34.306   9.188
 2187POPC   C1A29367   4.870  34.637   8.758
 2187POPC   D2A29368   4.695  34.559   8.326
 2187POPC   C3A29369   4.989  34.696   7.986
 2187POPC   C4A29370   5.282  34.700   7.603
 2187POPC   C1B29371   5.246  34.264   8.755
 2187POPC   C2B29372   5.167  34.351   8.318
 2187POPC   C3B29373   5.204  34.264   7.875
 2187POPC   C4B29374   5.049  34.271   7.459
 2188POPC   NC329375   6.946  22.745   9.472
 2188POPC   PO429376   6.373  23.109   9.457
 2188POPC   GL129377   6.632  23.027   9.116
 2188POPC   GL229378   6.529  22.682   9.170
 2188POPC   C1A29379   6.647  22.923   8.660
 2188POPC   D2A29380   6.937  22.916   8.341
 2188POPC   C3A29381   6.728  23.062   7.998
 2188POPC   C4A29382   6.857  23.257   7.640
 2188POPC   C1B29383   6.699  22.482   8.865
 2188POPC   C2B29384   6.709  22.366   8.429
 2188POPC   C3B29385   6.833  22.528   8.016
 2188POPC   C4B29386   6.559  22.681   7.708
 2189POPC   NC329387   5.056  17.903   9.632
 2189POPC   PO429388   5.316  18.363   9.850
 2189POPC   GL129389   5.224  18.242   9.315
 2189POPC   GL229390   4.969  18.408   9.117
 2189POPC   C1A29391   5.418  18.264   8.901
 2189POPC   D2A29392   5.378  18.151   8.491
 2189POPC   C3A29393   5.498  18.258   8.100
 2189POPC   C4A29394   5.276  18.329   7.753
 2189POPC   C1B29395   4.793  18.157   8.779
 2189POPC   C2B29396   4.922  17.924   8.446
 2189POPC   C3B29397   4.969  18.149   8.116
 2189POPC   C4B29398   4.799  18.075   7.741
 2190POPC   NC329399  22.572  27.672   9.496
 2190POPC   PO429400  23.231  27.488   9.531
 2190POPC   GL129401  22.945  27.432   9.193
 2190POPC   GL229402  22.946  27.111   9.096
 2190POPC   C1A29403  22.758  27.648   8.834
 2190POPC   D2A29404  22.955  27.935   8.559
 2190POPC   C3A29405  22.878  27.904   8.111
 2190POPC   C4A29406  23.069  27.807   7.691
 2190POPC   C1B29407  22.810  27.172   8.640
 2190POPC   C2B29408  22.797  27.350   8.188
 2190POPC   C3B29409  22.862  27.299   7.716
 2190POPC   C4B29410  23.157  27.401   7.381
 2191POPC   NC329411  41.404  17.191   9.399
 2191POPC   PO429412  42.060  17.433   9.578
 2191POPC   GL129413  41.816  17.463   9.225
 2191POPC   GL229414  41.889  17.122   9.198
 2191POPC   C1A29415  41.571  17.577   8.817
 2191POPC   D2A29416  41.405  17.674   8.379
 2191POPC   C3A29417  41.319  17.345   8.055
 2191POPC   C4A29418  41.498  17.635   7.785
 2191POPC   C1B29419  41.918  17.202   8.787
 2191POPC   C2B29420  41.654  17.223   8.438
 2191POPC   C3B29421  41.835  17.334   8.047
 2191POPC   C4B29422  41.773  17.231   7.648
 2192POPC   NC329423  21.767  10.086   9.387
 2192POPC   PO429424  21.224   9.646   9.616
 2192POPC   GL129425  21.103   9.766   9.193
 2192POPC   GL229426  21.448   9.784   9.123
 2192POPC   C1A29427  21.143   9.821   8.722
 2192POPC   D2A29428  21.426   9.787   8.353
 2192POPC   C3A29429  21.282   9.887   7.968
 2192POPC   C4A29430  21.212   9.650   7.626
 2192POPC   C1B29431  21.686   9.943   8.765
 2192POPC   C2B29432  21.822  10.122   8.379
 2192POPC   C3B29433  21.781   9.931   7.958
 2192POPC   C4B29434  21.643   9.967   7.559
 2193POPC   NC329435   0.157  10.064   9.535
 2193POPC   PO429436   0.506   9.533   9.587
 2193POPC   GL129437   0.305   9.617   9.190
 2193POPC   GL229438   0.412   9.943   9.102
 2193POPC   C1A29439   0.444   9.585   8.744
 2193POPC   D2A29440   0.724   9.522   8.382
 2193POPC   C3A29441   0.470   9.637   8.052
 2193POPC   C4A29442   0.384   9.647   7.646
 2193POPC   C1B29443   0.375  10.186   8.742
 2193POPC   C2B29444   0.120  10.315   8.431
 2193POPC   C3B29445   0.278  10.172   8.040
 2193POPC   C4B29446   0.492  10.171   7.650
 2194POPC   NC329447  20.412  10.774   9.224
 2194POPC   PO429448  20.836  10.536   9.746
 2194POPC   GL129449  20.896  10.588   9.266
 2194POPC   GL229450  20.863  10.294   9.115
 2194POPC   C1A29451  20.911  10.693   8.789
 2194POPC   D2A29452  20.777  10.609   8.354
 2194POPC   C3A29453  20.677  10.895   8.013
 2194POPC   C4A29454  20.690  10.777   7.589
 2194POPC   C1B29455  20.766  10.183   8.713
 2194POPC   C2B29456  20.562  10.137   8.317
 2194POPC   C3B29457  20.552  10.377   7.926
 2194POPC   C4B29458  20.664  10.291   7.471
 2195POPC   NC329459   7.987  42.195   9.543
 2195POPC   PO429460   8.610  42.410   9.825
 2195POPC   GL129461   8.446  42.473   9.324
 2195POPC   GL229462   8.155  42.339   9.104
 2195POPC   C1A29463   8.471  42.566   8.814
 2195POPC   D2A29464   8.274  42.310   8.512
 2195POPC   C3A29465   8.208  42.448   8.090
 2195POPC   C4A29466   8.071  42.172   7.771
 2195POPC   C1B29467   7.862  42.482   8.775
 2195POPC   C2B29468   7.759  42.354   8.331
 2195POPC   C3B29469   7.727  42.529   7.908
 2195POPC   C4B29470   8.028  42.629   7.563
 2196POPC   NC329471   6.553  30.152   9.461
 2196POPC   PO429472   6.818  29.527   9.483
 2196POPC   GL129473   6.624  29.749   9.131
 2196POPC   GL229474   6.789  30.037   9.005
 2196POPC   C1A29475   6.481  29.818   8.686
 2196POPC   D2A29476   6.726  29.971   8.347
 2196POPC   C3A29477   6.456  29.941   8.004
 2196POPC   C4A29478   6.485  29.955   7.578
 2196POPC   C1B29479   6.604  30.342   8.748
 2196POPC   C2B29480   6.375  30.358   8.387
 2196POPC   C3B29481   6.668  30.391   8.039
 2196POPC   C4B29482   6.947  30.122   7.817
 2197POPC   NC329483   4.686  13.086   9.410
 2197POPC   PO429484   4.376  13.634   9.693
 2197POPC   GL129485   4.311  13.676   9.215
 2197POPC   GL229486   4.488  13.441   9.076
 2197POPC   C1A29487   4.360  13.830   8.753
 2197POPC   D2A29488   4.050  13.923   8.425
 2197POPC   C3A29489   4.251  13.912   7.993
 2197POPC   C4A29490   4.162  13.641   7.635
 2197POPC   C1B29491   4.255  13.338   8.690
 2197POPC   C2B29492   4.334  13.496   8.274
 2197POPC   C3B29493   4.593  13.468   7.889
 2197POPC   C4B29494   4.623  13.499   7.440
 2198POPC   NC329495  25.731   6.326   9.397
 2198POPC   PO429496  26.370   6.519   9.475
 2198POPC   GL129497  26.142   6.418   9.110
 2198POPC   GL229498  26.021   6.724   9.047
 2198POPC   C1A29499  25.921   6.398   8.686
 2198POPC   D2A29500  25.793   6.654   8.324
 2198POPC   C3A29501  26.009   6.647   7.967
 2198POPC   C4A29502  25.873   6.477   7.558
 2198POPC   C1B29503  25.944   6.956   8.704
 2198POPC   C2B29504  26.139   7.177   8.369
 2198POPC   C3B29505  26.298   7.103   7.942
 2198POPC   C4B29506  26.183   6.895   7.566
 2199POPC   NC329507  40.120  20.203   9.499
 2199POPC   PO429508  39.864  19.536   9.569
 2199POPC   GL129509  39.966  19.792   9.192
 2199POPC   GL229510  39.730  20.084   9.164
 2199POPC   C1A29511  39.945  19.857   8.731
 2199POPC   D2A29512  40.178  19.928   8.335
 2199POPC   C3A29513  40.085  19.622   8.003
 2199POPC   C4A29514  39.749  19.796   7.772
 2199POPC   C1B29515  39.552  20.202   8.755
 2199POPC   C2B29516  39.518  20.145   8.278
 2199POPC   C3B29517  39.855  20.241   7.999
 2199POPC   C4B29518  39.951  20.480   7.651
 2200POPC   NC329519  33.375  32.773   9.491
 2200POPC   PO429520  32.901  33.195   9.679
 2200POPC   GL129521  32.795  33.263   9.246
 2200POPC   GL229522  33.131  33.172   9.199
 2200POPC   C1A29523  32.775  33.052   8.839
 2200POPC   D2A29524  33.031  33.003   8.478
 2200POPC   C3A29525  32.871  32.913   8.064
 2200POPC   C4A29526  32.897  33.048   7.665
 2200POPC   C1B29527  33.177  33.365   8.815
 2200POPC   C2B29528  33.276  33.441   8.382
 2200POPC   C3B29529  33.295  33.291   7.979
 2200POPC   C4B29530  33.349  33.283   7.544
 2201POPC   NC329531  37.113   1.067   9.820
 2201POPC   PO429532  36.680   1.398   9.437
 2201POPC   GL129533  36.961   1.208   9.149
 2201POPC   GL229534  37.205   1.027   9.276
 2201POPC   C1A29535  37.205   1.354   8.787
 2201POPC   D2A29536  37.103   1.638   8.440
 2201POPC   C3A29537  36.902   1.459   8.097
 2201POPC   C4A29538  37.155   1.515   7.796
 2201POPC   C1B29539  37.155   0.817   8.849
 2201POPC   C2B29540  37.161   0.977   8.435
 2201POPC   C3B29541  37.239   1.061   8.033
 2201POPC   C4B29542  36.967   1.045   7.706
 2202POPC   NC329543   8.963  16.269   9.420
 2202POPC   PO429544   9.070  16.865   9.259
 2202POPC   GL129545   8.875  16.575   9.004
 2202POPC   GL229546   8.655  16.836   8.876
 2202POPC   C1A29547   8.800  16.459   8.570
 2202POPC   D2A29548   8.661  16.845   8.349
 2202POPC   C3A29549   8.802  16.907   7.957
 2202POPC   C4A29550   9.023  16.569   7.788
 2202POPC   C1B29551   9.072  16.917   8.635
 2202POPC   C2B29552   9.194  16.701   8.274
 2202POPC   C3B29553   9.324  16.973   7.990
 2202POPC   C4B29554   9.205  16.986   7.569
 2203POPC   NC329555  23.675   7.798   9.512
 2203POPC   PO429556  23.861   8.474   9.535
 2203POPC   GL129557  23.609   8.330   9.175
 2203POPC   GL229558  23.346   8.550   9.061
 2203POPC   C1A29559  23.493   8.170   8.739
 2203POPC   D2A29560  23.540   8.297   8.294
 2203POPC   C3A29561  23.891   8.076   8.084
 2203POPC   C4A29562  24.031   7.951   7.659
 2203POPC   C1B29563  23.543   8.673   8.711
 2203POPC   C2B29564  23.607   8.830   8.305
 2203POPC   C3B29565  23.478   8.637   7.914
 2203POPC   C4B29566  23.758   8.375   7.665
 2204POPC   NC329567   9.209  30.651   9.498
 2204POPC   PO429568   8.562  30.964   9.610
 2204POPC   GL129569   8.814  30.781   9.206
 2204POPC   GL229570   9.115  30.958   9.101
 2204POPC   C1A29571   9.054  30.530   8.826
 2204POPC   D2A29572   9.111  30.347   8.375
 2204POPC   C3A29573   8.843  30.397   7.995
 2204POPC   C4A29574   9.137  30.430   7.655
 2204POPC   C1B29575   8.841  31.002   8.742
 2204POPC   C2B29576   9.072  30.874   8.431
 2204POPC   C3B29577   9.117  30.819   8.042
 2204POPC   C4B29578   9.299  30.914   7.704
 2205POPC   NC329579  42.097  11.402   9.694
 2205POPC   PO429580  42.475  10.895   9.369
 2205POPC   GL129581  42.297  11.280   9.172
 2205POPC   GL229582  42.063  11.105   8.951
 2205POPC   C1A29583  42.519  11.571   8.844
 2205POPC   D2A29584  42.390  11.596   8.389
 2205POPC   C3A29585  42.585  11.369   8.043
 2205POPC   C4A29586  42.340  11.413   7.683
 2205POPC   C1B29587  42.391  11.112   8.663
 2205POPC   C2B29588  42.392  10.923   8.293
 2205POPC   C3B29589  42.222  10.962   7.900
 2205POPC   C4B29590  42.351  10.730   7.548
 2206POPC   NC329591  27.891  28.143   9.451
 2206POPC   PO429592  27.312  28.466   9.498
 2206POPC   GL129593  27.492  28.358   9.142
 2206POPC   GL229594  27.397  28.683   9.026
 2206POPC   C1A29595  27.562  28.179   8.744
 2206POPC   D2A29596  27.536  28.442   8.378
 2206POPC   C3A29597  27.677  28.239   8.079
 2206POPC   C4A29598  27.813  28.203   7.684
 2206POPC   C1B29599  27.166  28.483   8.712
 2206POPC   C2B29600  27.021  28.556   8.337
 2206POPC   C3B29601  27.181  28.801   8.043
 2206POPC   C4B29602  27.492  28.626   7.809
 2207POPC   NC329603   8.939  39.822   9.463
 2207POPC   PO429604   9.418  40.009   9.157
 2207POPC   GL129605   9.023  40.077   8.976
 2207POPC   GL229606   8.686  40.069   9.090
 2207POPC   C1A29607   9.082  40.321   8.623
 2207POPC   D2A29608   9.362  40.110   8.324
 2207POPC   C3A29609   9.186  40.028   7.929
 2207POPC   C4A29610   9.069  40.002   7.526
 2207POPC   C1B29611   8.499  40.193   8.710
 2207POPC   C2B29612   8.706  40.180   8.304
 2207POPC   C3B29613   8.674  39.918   7.932
 2207POPC   C4B29614   8.578  39.986   7.508
 2208POPC   NC329615  22.519  33.725   9.547
 2208POPC   PO429616  21.978  34.079   9.733
 2208POPC   GL129617  22.103  33.918   9.305
 2208POPC   GL229618  22.136  33.568   9.247
 2208POPC   C1A29619  22.212  33.959   8.855
 2208POPC   D2A29620  22.189  33.733   8.462
 2208POPC   C3A29621  22.301  33.938   8.087
 2208POPC   C4A29622  22.163  34.144   7.746
 2208POPC   C1B29623  21.927  33.512   8.858
 2208POPC   C2B29624  21.701  33.591   8.471
 2208POPC   C3B29625  21.864  33.654   8.036
 2208POPC   C4B29626  21.838  33.439   7.644
 2209POPC   NC329627  22.554  34.701   9.490
 2209POPC   PO429628  23.252  34.483   9.573
 2209POPC   GL129629  23.110  34.610   9.150
 2209POPC   GL229630  22.761  34.470   9.092
 2209POPC   C1A29631  22.980  34.752   8.727
 2209POPC   D2A29632  22.859  34.975   8.365
 2209POPC   C3A29633  22.965  34.781   7.977
 2209POPC   C4A29634  23.025  34.373   7.803
 2209POPC   C1B29635  22.527  34.395   8.730
 2209POPC   C2B29636  22.735  34.430   8.326
 2209POPC   C3B29637  22.532  34.467   7.939
 2209POPC   C4B29638  22.591  34.514   7.488
 2210POPC   NC329639  38.955  38.641   9.454
 2210POPC   PO429640  39.630  38.591   9.514
 2210POPC   GL129641  39.358  38.548   9.145
 2210POPC   GL229642  39.195  38.240   9.198
 2210POPC   C1A29643  39.092  38.628   8.775
 2210POPC   D2A29644  38.958  38.526   8.362
 2210POPC   C3A29645  39.305  38.624   8.078
 2210POPC   C4A29646  39.213  38.794   7.689
 2210POPC   C1B29647  39.103  38.114   8.783
 2210POPC   C2B29648  39.355  38.214   8.410
 2210POPC   C3B29649  39.302  38.081   7.982
 2210POPC   C4B29650  39.371  38.286   7.600
 2211POPC   NC329651   7.233   7.683   9.542
 2211POPC   PO429652   7.677   7.123   9.496
 2211POPC   GL129653   7.417   7.187   9.137
 2211POPC   GL229654   7.292   7.527   9.074
 2211POPC   C1A29655   7.273   7.177   8.719
 2211POPC   D2A29656   7.201   7.453   8.398
 2211POPC   C3A29657   7.248   7.224   8.015
 2211POPC   C4A29658   7.280   7.435   7.613
 2211POPC   C1B29659   7.480   7.798   8.768
 2211POPC   C2B29660   7.710   7.721   8.400
 2211POPC   C3B29661   7.475   7.693   8.011
 2211POPC   C4B29662   7.451   7.914   7.615
 2212POPC   NC329663  20.576  26.179   9.608
 2212POPC   PO429664  21.091  25.864   9.404
 2212POPC   GL129665  20.815  26.115   9.137
 2212POPC   GL229666  20.433  26.077   9.128
 2212POPC   C1A29667  20.791  26.239   8.716
 2212POPC   D2A29668  20.940  26.094   8.323
 2212POPC   C3A29669  20.774  26.297   7.966
 2212POPC   C4A29670  20.797  26.252   7.533
 2212POPC   C1B29671  20.351  26.011   8.733
 2212POPC   C2B29672  20.407  26.213   8.357
 2212POPC   C3B29673  20.350  26.057   7.976
 2212POPC   C4B29674  20.160  26.266   7.701
 2213POPC   NC329675  24.183  24.305   9.256
 2213POPC   PO429676  24.733  24.616   9.489
 2213POPC   GL129677  24.618  24.579   9.108
 2213POPC   GL229678  24.857  24.333   9.065
 2213POPC   C1A29679  24.528  24.516   8.701
 2213POPC   D2A29680  24.624  24.498   8.303
 2213POPC   C3A29681  24.264  24.699   8.090
 2213POPC   C4A29682  24.182  24.705   7.627
 2213POPC   C1B29683  24.898  24.143   8.689
 2213POPC   C2B29684  24.736  23.992   8.290
 2213POPC   C3B29685  24.897  24.235   7.963
 2213POPC   C4B29686  24.632  24.522   7.781
 2214POPC   NC329687  10.975  43.712   9.627
 2214POPC   PO429688  11.594  43.901   9.431
 2214POPC   GL129689  11.420  43.694   9.114
 2214POPC   GL229690  11.091  43.751   9.139
 2214POPC   C1A29691  11.572  43.533   8.757
 2214POPC   D2A29692  11.377  43.655   8.432
 2214POPC   C3A29693  11.576  43.593   8.096
 2214POPC   C4A29694  11.379  43.781   7.781
 2214POPC   C1B29695  10.975  43.878   8.731
 2214POPC   C2B29696  10.862  43.686   8.346
 2214POPC   C3B29697  10.910  43.888   7.933
 2214POPC   C4B29698  10.689  43.919   7.522
 2215POPC   NC329699  24.520  29.311   9.424
 2215POPC   PO429700  24.273  28.726   9.704
 2215POPC   GL129701  24.564  28.860   9.256
 2215POPC   GL229702  24.905  28.799   9.198
 2215POPC   C1A29703  24.504  29.131   8.799
 2215POPC   D2A29704  24.406  29.206   8.337
 2215POPC   C3A29705  24.156  29.054   8.005
 2215POPC   C4A29706  24.410  29.107   7.668
 2215POPC   C1B29707  24.689  28.663   8.825
 2215POPC   C2B29708  24.685  28.807   8.441
 2215POPC   C3B29709  24.546  28.759   8.070
 2215POPC   C4B29710  24.647  28.587   7.706
 2216POPC   NC329711  17.624  38.727   9.611
 2216POPC   PO429712  16.995  38.736   9.430
 2216POPC   GL129713  17.318  38.449   9.163
 2216POPC   GL229714  17.693  38.519   9.161
 2216POPC   C1A29715  17.528  38.365   8.718
 2216POPC   D2A29716  17.712  38.309   8.294
 2216POPC   C3A29717  17.415  38.479   7.994
 2216POPC   C4A29718  17.312  38.530   7.544
 2216POPC   C1B29719  17.753  38.824   8.849
 2216POPC   C2B29720  17.582  38.803   8.440
 2216POPC   C3B29721  17.760  38.846   8.049
 2216POPC   C4B29722  17.826  38.566   7.681
 2217POPC   NC329723  32.665  16.852   9.495
 2217POPC   PO429724  33.319  16.960   9.527
 2217POPC   GL129725  33.047  16.819   9.151
 2217POPC   GL229726  32.710  16.584   9.075
 2217POPC   C1A29727  33.106  16.628   8.766
 2217POPC   D2A29728  33.228  16.439   8.393
 2217POPC   C3A29729  33.102  16.564   7.988
 2217POPC   C4A29730  33.383  16.646   7.671
 2217POPC   C1B29731  32.665  16.926   8.743
 2217POPC   C2B29732  32.739  17.053   8.299
 2217POPC   C3B29733  32.645  16.791   7.936
 2217POPC   C4B29734  32.529  16.818   7.501
 2218POPC   NC329735  10.757   5.095   9.454
 2218POPC   PO429736  11.325   4.743   9.561
 2218POPC   GL129737  11.217   5.030   9.215
 2218POPC   GL229738  11.528   5.176   9.148
 2218POPC   C1A29739  11.109   5.245   8.804
 2218POPC   D2A29740  11.327   5.251   8.397
 2218POPC   C3A29741  11.139   5.151   8.000
 2218POPC   C4A29742  11.117   4.965   7.588
 2218POPC   C1B29743  11.487   4.887   8.789
 2218POPC   C2B29744  11.574   4.797   8.376
 2218POPC   C3B29745  11.620   5.016   7.999
 2218POPC   C4B29746  11.618   4.785   7.683
 2219POPC   NC329747  24.552   7.308   9.712
 2219POPC   PO429748  24.121   7.698   9.411
 2219POPC   GL129749  24.321   7.426   9.150
 2219POPC   GL229750  24.676   7.273   9.175
 2219POPC   C1A29751  24.273   7.467   8.722
 2219POPC   D2A29752  24.692   7.525   8.504
 2219POPC   C3A29753  24.655   7.548   8.067
 2219POPC   C4A29754  24.240   7.573   7.914
 2219POPC   C1B29755  24.591   7.079   8.748
 2219POPC   C2B29756  24.364   7.157   8.320
 2219POPC   C3B29757  24.440   7.089   7.885
 2219POPC   C4B29758  24.553   7.097   7.459
 2220POPC   NC329759  28.113  10.985   9.440
 2220POPC   PO429760  28.676  11.406   9.534
 2220POPC   GL129761  28.511  11.192   9.181
 2220POPC   GL229762  28.211  11.409   9.183
 2220POPC   C1A29763  28.269  11.054   8.799
 2220POPC   D2A29764  28.086  11.025   8.412
 2220POPC   C3A29765  28.338  11.117   8.057
 2220POPC   C4A29766  28.264  10.914   7.660
 2220POPC   C1B29767  28.427  11.547   8.819
 2220POPC   C2B29768  28.277  11.538   8.399
 2220POPC   C3B29769  28.427  11.637   7.997
 2220POPC   C4B29770  28.347  11.425   7.637
 2221POPC   NC329771  31.417  17.863   9.426
 2221POPC   PO429772  31.457  18.533   9.638
 2221POPC   GL129773  31.493  18.501   9.145
 2221POPC   GL229774  31.722  18.255   9.031
 2221POPC   C1A29775  31.216  18.498   8.756
 2221POPC   D2A29776  31.156  18.250   8.390
 2221POPC   C3A29777  31.406  18.412   8.086
 2221POPC   C4A29778  31.348  18.601   7.723
 2221POPC   C1B29779  31.648  18.293   8.557
 2221POPC   C2B29780  31.640  17.984   8.218
 2221POPC   C3B29781  31.889  17.904   7.818
 2221POPC   C4B29782  31.789  18.020   7.346
 2222POPC   NC329783  25.733  38.115   9.564
 2222POPC   PO429784  26.090  38.779   9.692
 2222POPC   GL129785  26.203  38.649   9.234
 2222POPC   GL229786  26.167  38.279   9.272
 2222POPC   C1A29787  26.130  38.460   8.801
 2222POPC   D2A29788  25.942  38.311   8.447
 2222POPC   C3A29789  25.777  38.484   8.112
 2222POPC   C4A29790  25.969  38.432   7.723
 2222POPC   C1B29791  26.382  38.033   8.933
 2222POPC   C2B29792  26.421  38.034   8.474
 2222POPC   C3B29793  26.255  38.160   8.075
 2222POPC   C4B29794  26.246  38.004   7.673
 2223POPC   NC329795   0.893  14.948   9.441
 2223POPC   PO429796   1.308  15.471   9.607
 2223POPC   GL129797   1.238  15.261   9.235
 2223POPC   GL229798   1.508  15.319   9.063
 2223POPC   C1A29799   1.000  15.262   8.850
 2223POPC   D2A29800   1.126  15.203   8.429
 2223POPC   C3A29801   0.869  15.026   8.098
 2223POPC   C4A29802   0.974  15.061   7.657
 2223POPC   C1B29803   1.520  15.025   8.756
 2223POPC   C2B29804   1.637  15.174   8.366
 2223POPC   C3B29805   1.418  15.185   8.005
 2223POPC   C4B29806   1.465  15.502   7.682
 2224POPC   NC329807   1.680  19.103   9.495
 2224POPC   PO429808   1.961  19.511   9.286
 2224POPC   GL129809   2.018  19.131   9.082
 2224POPC   GL229810   1.885  18.791   9.105
 2224POPC   C1A29811   1.859  19.105   8.688
 2224POPC   D2A29812   2.086  19.192   8.360
 2224POPC   C3A29813   1.921  19.348   8.040
 2224POPC   C4A29814   1.652  19.132   7.780
 2224POPC   C1B29815   2.145  18.688   8.796
 2224POPC   C2B29816   2.006  18.673   8.391
 2224POPC   C3B29817   2.028  18.836   7.989
 2224POPC   C4B29818   2.388  18.916   7.763
 2225POPC   NC329819   3.082  17.145   9.816
 2225POPC   PO429820   2.503  17.405   9.628
 2225POPC   GL129821   2.630  17.645   9.172
 2225POPC   GL229822   2.893  17.524   8.964
 2225POPC   C1A29823   2.408  17.712   8.767
 2225POPC   D2A29824   2.186  17.605   8.384
 2225POPC   C3A29825   2.432  17.380   8.091
 2225POPC   C4A29826   2.749  17.437   7.783
 2225POPC   C1B29827   2.724  17.375   8.552
 2225POPC   C2B29828   2.977  17.551   8.229
 2225POPC   C3B29829   3.231  17.551   7.832
 2225POPC   C4B29830   3.141  17.415   7.366
 2226POPC   NC329831  24.743  13.172   9.540
 2226POPC   PO429832  24.128  12.928   9.590
 2226POPC   GL129833  24.281  12.796   9.094
 2226POPC   GL229834  24.586  12.999   9.018
 2226POPC   C1A29835  24.520  12.623   8.693
 2226POPC   D2A29836  24.698  12.490   8.273
 2226POPC   C3A29837  24.503  12.673   7.963
 2226POPC   C4A29838  24.157  12.974   7.917
 2226POPC   C1B29839  24.806  13.121   8.628
 2226POPC   C2B29840  24.879  12.978   8.202
 2226POPC   C3B29841  24.776  13.037   7.763
 2226POPC   C4B29842  24.790  13.387   7.469
 2227POPC   NC329843  15.258  29.754   9.319
 2227POPC   PO429844  15.350  29.100   9.576
 2227POPC   GL129845  15.227  29.251   9.166
 2227POPC   GL229846  14.890  29.166   9.056
 2227POPC   C1A29847  15.284  29.084   8.761
 2227POPC   D2A29848  15.515  29.184   8.439
 2227POPC   C3A29849  15.306  29.078   8.077
 2227POPC   C4A29850  15.373  29.274   7.699
 2227POPC   C1B29851  14.931  29.509   8.714
 2227POPC   C2B29852  14.979  29.471   8.234
 2227POPC   C3B29853  14.892  29.291   7.811
 2227POPC   C4B29854  15.017  29.184   7.356
 2228POPC   NC329855   3.144  36.548   9.549
 2228POPC   PO429856   2.473  36.454   9.542
 2228POPC   GL129857   2.591  36.674   9.194
 2228POPC   GL229858   2.876  36.547   9.124
 2228POPC   C1A29859   2.641  36.938   8.839
 2228POPC   D2A29860   2.426  37.175   8.539
 2228POPC   C3A29861   2.592  37.081   8.149
 2228POPC   C4A29862   2.743  36.957   7.776
 2228POPC   C1B29863   3.041  36.635   8.750
 2228POPC   C2B29864   2.834  36.683   8.395
 2228POPC   C3B29865   2.876  36.490   8.019
 2228POPC   C4B29866   3.087  36.596   7.669
 2229POPC   NC329867  10.019  40.708   9.770
 2229POPC   PO429868   9.672  40.966   9.292
 2229POPC   GL129869   9.774  41.042   8.903
 2229POPC   GL229870   9.938  40.702   8.903
 2229POPC   C1A29871   9.616  40.891   8.544
 2229POPC   D2A29872   9.693  40.506   8.358
 2229POPC   C3A29873   9.417  40.495   7.985
 2229POPC   C4A29874   9.284  40.864   7.772
 2229POPC   C1B29875  10.143  40.873   8.548
 2229POPC   C2B29876   9.924  40.954   8.149
 2229POPC   C3B29877   9.886  40.646   7.897
 2229POPC   C4B29878  10.202  40.428   7.741
 2230POPC   NC329879  39.639   7.770   9.323
 2230POPC   PO429880  40.055   7.252   9.623
 2230POPC   GL129881  39.935   7.337   9.262
 2230POPC   GL229882  40.211   7.484   9.168
 2230POPC   C1A29883  39.945   7.119   8.902
 2230POPC   D2A29884  39.951   7.305   8.526
 2230POPC   C3A29885  40.077   7.152   8.165
 2230POPC   C4A29886  39.912   7.306   7.812
 2230POPC   C1B29887  40.411   7.432   8.815
 2230POPC   C2B29888  40.407   7.461   8.403
 2230POPC   C3B29889  40.504   7.510   8.000
 2230POPC   C4B29890  40.326   7.506   7.627
 2231POPC   NC329891  35.012  17.560   9.518
 2231POPC   PO429892  35.573  17.148   9.525
 2231POPC   GL129893  35.358  17.424   9.178
 2231POPC   GL229894  35.598  17.645   9.005
 2231POPC   C1A29895  35.115  17.508   8.848
 2231POPC   D2A29896  35.172  17.404   8.433
 2231POPC   C3A29897  35.192  17.756   8.164
 2231POPC   C4A29898  35.186  17.734   7.737
 2231POPC   C1B29899  35.640  17.316   8.763
 2231POPC   C2B29900  35.631  17.158   8.357
 2231POPC   C3B29901  35.496  17.354   8.012
 2231POPC   C4B29902  35.730  17.417   7.664
 2232POPC   NC329903  10.803  19.563   9.396
 2232POPC   PO429904  10.651  20.134   9.127
 2232POPC   GL129905  10.538  19.726   8.990
 2232POPC   GL229906  10.233  19.615   9.142
 2232POPC   C1A29907  10.472  19.690   8.571
 2232POPC   D2A29908  10.397  20.086   8.322
 2232POPC   C3A29909  10.683  20.071   7.952
 2232POPC   C4A29910  10.725  19.647   7.764
 2232POPC   C1B29911  10.047  19.867   8.797
 2232POPC   C2B29912   9.991  19.737   8.391
 2232POPC   C3B29913  10.299  19.629   8.072
 2232POPC   C4B29914  10.254  19.904   7.720
 2233POPC   NC329915  43.449  39.682   9.573
 2233POPC   PO429916  43.176  39.036   9.590
 2233POPC   GL129917  43.223  39.308   9.247
 2233POPC   GL229918  42.946  39.499   9.122
 2233POPC   C1A29919  43.285  39.288   8.783
 2233POPC   D2A29920  43.093  39.079   8.423
 2233POPC   C3A29921  43.034  39.210   7.999
 2233POPC   C4A29922  43.306  39.258   7.668
 2233POPC   C1B29923  42.691  39.581   8.753
 2233POPC   C2B29924  42.830  39.545   8.345
 2233POPC   C3B29925  42.631  39.489   7.957
 2233POPC   C4B29926  42.811  39.379   7.541
 2234POPC   NC329927  18.981  21.957   9.289
 2234POPC   PO429928  19.121  22.490   9.672
 2234POPC   GL129929  18.997  22.431   9.141
 2234POPC   GL229930  19.257  22.462   8.959
 2234POPC   C1A29931  18.898  22.221   8.697
 2234POPC   D2A29932  19.074  21.996   8.320
 2234POPC   C3A29933  18.941  22.128   7.898
 2234POPC   C4A29934  19.135  22.505   7.723
 2234POPC   C1B29935  19.542  22.276   8.706
 2234POPC   C2B29936  19.588  22.067   8.374
 2234POPC   C3B29937  19.452  22.179   8.032
 2234POPC   C4B29938  19.538  22.142   7.645
 2235POPC   NC329939  19.026  27.745   9.826
 2235POPC   PO429940  18.814  27.272   9.401
 2235POPC   GL129941  18.887  27.378   8.991
 2235POPC   GL229942  19.220  27.558   9.079
 2235POPC   C1A29943  18.915  27.667   8.666
 2235POPC   D2A29944  19.046  27.602   8.290
 2235POPC   C3A29945  18.823  27.819   8.032
 2235POPC   C4A29946  18.952  27.678   7.675
 2235POPC   C1B29947  19.431  27.759   8.720
 2235POPC   C2B29948  19.359  27.994   8.326
 2235POPC   C3B29949  19.438  27.766   7.949
 2235POPC   C4B29950  19.400  27.866   7.515
 2236POPC   NC329951   2.368   6.232   9.542
 2236POPC   PO429952   2.773   6.807   9.759
 2236POPC   GL129953   2.768   6.785   9.264
 2236POPC   GL229954   2.918   6.526   9.057
 2236POPC   C1A29955   2.659   6.880   8.818
 2236POPC   D2A29956   2.638   6.911   8.365
 2236POPC   C3A29957   2.634   6.647   7.982
 2236POPC   C4A29958   2.707   6.756   7.494
 2236POPC   C1B29959   2.794   6.377   8.663
 2236POPC   C2B29960   3.053   6.346   8.310
 2236POPC   C3B29961   3.196   6.186   7.939
 2236POPC   C4B29962   2.919   6.333   7.657
 2237POPC   NC329963  38.776   2.717   9.397
 2237POPC   PO429964  38.126   2.826   9.409
 2237POPC   GL129965  38.344   2.692   9.036
 2237POPC   GL229966  38.690   2.563   8.935
 2237POPC   C1A29967  38.279   2.492   8.641
 2237POPC   D2A29968  38.061   2.297   8.297
 2237POPC   C3A29969  38.226   2.512   7.940
 2237POPC   C4A29970  38.525   2.889   7.924
 2237POPC   C1B29971  38.713   2.950   8.767
 2237POPC   C2B29972  38.804   2.896   8.367
 2237POPC   C3B29973  38.878   2.543   8.204
 2237POPC   C4B29974  38.758   2.436   7.810
 2238POPC   NC329975  22.774  16.910   9.491
 2238POPC   PO429976  23.316  16.570   9.476
 2238POPC   GL129977  23.019  16.597   9.149
 2238POPC   GL229978  22.987  16.972   9.041
 2238POPC   C1A29979  23.086  16.574   8.712
 2238POPC   D2A29980  22.949  16.816   8.353
 2238POPC   C3A29981  22.886  16.602   7.971
 2238POPC   C4A29982  23.239  16.508   7.754
 2238POPC   C1B29983  22.645  16.997   8.735
 2238POPC   C2B29984  22.466  16.995   8.300
 2238POPC   C3B29985  22.538  16.968   7.812
 2238POPC   C4B29986  22.727  17.079   7.366
 2239POPC   NC329987  17.542   9.796   9.467
 2239POPC   PO429988  17.580   9.166   9.255
 2239POPC   GL129989  17.435   9.527   9.029
 2239POPC   GL229990  17.187   9.810   9.104
 2239POPC   C1A29991  17.753   9.649   8.728
 2239POPC   D2A29992  17.818   9.671   8.287
 2239POPC   C3A29993  17.497   9.446   8.062
 2239POPC   C4A29994  17.289   9.542   7.679
 2239POPC   C1B29995  17.399  10.022   8.767
 2239POPC   C2B29996  17.386   9.971   8.319
 2239POPC   C3B29997  17.564   9.941   7.905
 2239POPC   C4B29998  17.326  10.040   7.530
 2240POPC   NC329999  22.634  13.661   9.513
 2240POPC   PO430000  23.259  13.377   9.565
 2240POPC   GL130001  23.079  13.629   9.231
 2240POPC   GL230002  22.744  13.805   9.050
 2240POPC   C1A30003  23.144  13.629   8.818
 2240POPC   D2A30004  22.935  13.910   8.551
 2240POPC   C3A30005  23.049  13.800   8.147
 2240POPC   C4A30006  22.895  13.893   7.788
 2240POPC   C1B30007  22.662  13.455   8.780
 2240POPC   C2B30008  22.554  13.298   8.374
 2240POPC   C3B30009  22.690  13.426   7.955
 2240POPC   C4B30010  22.644  13.563   7.513
 2241POPC   NC330011  40.392  13.185   9.541
 2241POPC   PO430012  40.841  12.735   9.607
 2241POPC   GL130013  40.666  12.756   9.216
 2241POPC   GL230014  40.986  12.674   9.095
 2241POPC   C1A30015  40.592  12.941   8.801
 2241POPC   D2A30016  40.874  13.096   8.484
 2241POPC   C3A30017  40.784  13.014   8.049
 2241POPC   C4A30018  40.534  12.889   7.696
 2241POPC   C1B30019  40.920  12.568   8.718
 2241POPC   C2B30020  40.788  12.594   8.344
 2241POPC   C3B30021  40.702  12.495   7.955
 2241POPC   C4B30022  40.930  12.339   7.614
 2242POPC   NC330023  41.812  32.344   9.559
 2242POPC   PO430024  41.198  32.059   9.466
 2242POPC   GL130025  41.474  32.252   9.161
 2242POPC   GL230026  41.772  32.486   9.081
 2242POPC   C1A30027  41.375  32.374   8.744
 2242POPC   D2A30028  41.522  32.476   8.364
 2242POPC   C3A30029  41.233  32.426   8.047
 2242POPC   C4A30030  41.348  32.098   7.794
 2242POPC   C1B30031  42.026  32.515   8.699
 2242POPC   C2B30032  42.026  32.312   8.289
 2242POPC   C3B30033  41.812  32.388   7.884
 2242POPC   C4B30034  41.866  32.752   7.584
 2243POPC   NC330035  14.453  11.755   9.592
 2243POPC   PO430036  13.939  12.186   9.399
 2243POPC   GL130037  14.316  12.022   9.088
 2243POPC   GL230038  14.607  11.798   9.114
 2243POPC   C1A30039  14.526  12.192   8.698
 2243POPC   D2A30040  14.331  12.316   8.310
 2243POPC   C3A30041  14.358  12.098   7.933
 2243POPC   C4A30042  14.675  12.087   7.623
 2243POPC   C1B30043  14.458  11.693   8.689
 2243POPC   C2B30044  14.704  11.769   8.309
 2243POPC   C3B30045  14.589  11.659   7.875
 2243POPC   C4B30046  14.295  11.767   7.529
 2244POPC   NC330047  42.441   9.034   9.433
 2244POPC   PO430048  42.036   8.476   9.422
 2244POPC   GL130049  42.337   8.581   9.088
 2244POPC   GL230050  42.664   8.750   9.058
 2244POPC   C1A30051  42.424   8.619   8.647
 2244POPC   D2A30052  42.322   8.877   8.362
 2244POPC   C3A30053  42.429   8.705   8.024
 2244POPC   C4A30054  42.269   8.862   7.675
 2244POPC   C1B30055  42.566   9.094   8.749
 2244POPC   C2B30056  42.482   9.385   8.417
 2244POPC   C3B30057  42.460   9.223   8.021
 2244POPC   C4B30058  42.612   9.247   7.647
 2245POPC   NC330059   9.146  32.430   9.454
 2245POPC   PO430060   8.735  31.882   9.470
 2245POPC   GL130061   8.828  32.132   9.107
 2245POPC   GL230062   9.202  32.131   9.031
 2245POPC   C1A30063   8.863  32.144   8.651
 2245POPC   D2A30064   9.208  32.049   8.393
 2245POPC   C3A30065   9.120  32.038   7.941
 2245POPC   C4A30066   8.718  32.094   7.806
 2245POPC   C1B30067   9.285  32.502   8.745
 2245POPC   C2B30068   9.433  32.761   8.392
 2245POPC   C3B30069   9.338  32.523   8.015
 2245POPC   C4B30070   8.927  32.555   7.776
 2246POPC   NC330071  19.951   9.305   9.433
 2246POPC   PO430072  19.407   8.893   9.466
 2246POPC   GL130073  19.645   8.982   9.139
 2246POPC   GL230074  19.946   8.840   9.162
 2246POPC   C1A30075  19.813   9.177   8.770
 2246POPC   D2A30076  19.977   9.236   8.352
 2246POPC   C3A30077  19.645   9.338   8.054
 2246POPC   C4A30078  19.608   9.121   7.652
 2246POPC   C1B30079  20.207   8.814   8.794
 2246POPC   C2B30080  20.234   8.759   8.349
 2246POPC   C3B30081  19.932   8.826   8.007
 2246POPC   C4B30082  20.070   8.809   7.584
 2247POPC   NC330083   1.075  14.143   9.490
 2247POPC   PO430084   1.371  14.706   9.363
 2247POPC   GL130085   1.007  14.528   9.100
 2247POPC   GL230086   0.784  14.172   9.103
 2247POPC   C1A30087   1.059  14.740   8.711
 2247POPC   D2A30088   1.357  14.737   8.351
 2247POPC   C3A30089   1.220  14.663   7.944
 2247POPC   C4A30090   1.072  14.574   7.536
 2247POPC   C1B30091   1.011  14.115   8.749
 2247POPC   C2B30092   0.979  13.998   8.328
 2247POPC   C3B30093   1.141  14.132   7.955
 2247POPC   C4B30094   1.108  13.946   7.580
 2248POPC   NC330095  26.340   6.993   9.301
 2248POPC   PO430096  26.860   6.722   9.720
 2248POPC   GL130097  26.730   6.702   9.168
 2248POPC   GL230098  26.641   6.337   9.080
 2248POPC   C1A30099  26.966   6.508   8.745
 2248POPC   D2A30100  27.298   6.497   8.428
 2248POPC   C3A30101  27.300   6.726   8.047
 2248POPC   C4A30102  27.016   6.580   7.709
 2248POPC   C1B30103  26.440   6.588   8.727
 2248POPC   C2B30104  26.506   6.775   8.308
 2248POPC   C3B30105  26.540   6.663   7.852
 2248POPC   C4B30106  26.673   6.852   7.410
 2249POPC   NC330107  23.972  14.592   9.544
 2249POPC   PO430108  23.591  14.134   9.464
 2249POPC   GL130109  23.701  14.392   9.071
 2249POPC   GL230110  23.877  14.751   9.088
 2249POPC   C1A30111  23.726  14.287   8.599
 2249POPC   D2A30112  23.960  14.056   8.349
 2249POPC   C3A30113  24.115  14.362   8.096
 2249POPC   C4A30114  23.766  14.372   7.841
 2249POPC   C1B30115  23.682  14.766   8.712
 2249POPC   C2B30116  23.602  14.679   8.255
 2249POPC   C3B30117  23.532  14.819   7.824
 2249POPC   C4B30118  23.792  14.811   7.473
 2250POPC   NC330119   7.699  44.247   9.352
 2250POPC   PO430120   7.500  43.613   9.412
 2250POPC   GL130121   7.398  43.897   9.091
 2250POPC   GL230122   7.285  43.636   8.846
 2250POPC   C1A30123   7.499  44.113   8.734
 2250POPC   D2A30124   7.331  43.932   8.386
 2250POPC   C3A30125   7.335  44.134   7.995
 2250POPC   C4A30126   7.375  43.792   7.711
 2250POPC   C1B30127   7.740  43.647   8.798
 2250POPC   C2B30128   7.931  43.771   8.440
 2250POPC   C3B30129   7.743  43.826   8.070
 2250POPC   C4B30130   7.916  43.836   7.697
 2251POPC   NC330131  35.679  12.244   9.665
 2251POPC   PO430132  35.179  11.771   9.674
 2251POPC   GL130133  35.157  11.892   9.207
 2251POPC   GL230134  34.990  12.230   9.201
 2251POPC   C1A30135  35.359  11.977   8.796
 2251POPC   D2A30136  35.496  12.276   8.471
 2251POPC   C3A30137  35.394  12.166   8.050
 2251POPC   C4A30138  35.500  11.823   7.811
 2251POPC   C1B30139  34.972  12.327   8.773
 2251POPC   C2B30140  35.002  12.128   8.386
 2251POPC   C3B30141  34.880  12.208   7.973
 2251POPC   C4B30142  35.100  12.229   7.610
 2252POPC   NC330143   3.238  31.703   9.469
 2252POPC   PO430144   3.769  31.260   9.489
 2252POPC   GL130145   3.485  31.344   9.167
 2252POPC   GL230146   3.561  31.675   9.050
 2252POPC   C1A30147   3.534  31.266   8.724
 2252POPC   D2A30148   3.714  31.435   8.327
 2252POPC   C3A30149   3.654  31.270   7.904
 2252POPC   C4A30150   3.644  31.407   7.461
 2252POPC   C1B30151   3.397  31.747   8.625
 2252POPC   C2B30152   3.148  31.873   8.286
 2252POPC   C3B30153   3.173  31.852   7.849
 2252POPC   C4B30154   3.393  31.849   7.434
 2253POPC   NC330155  42.573  19.679   9.525
 2253POPC   PO430156  42.122  20.171   9.610
 2253POPC   GL130157  42.152  20.023   9.168
 2253POPC   GL230158  41.894  20.188   8.960
 2253POPC   C1A30159  42.393  19.901   8.792
 2253POPC   D2A30160  42.347  19.741   8.367
 2253POPC   C3A30161  42.597  19.927   8.059
 2253POPC   C4A30162  42.741  19.708   7.728
 2253POPC   C1B30163  41.945  20.005   8.569
 2253POPC   C2B30164  41.954  20.055   8.140
 2253POPC   C3B30165  42.194  20.008   7.773
 2253POPC   C4B30166  42.112  20.103   7.349
 2254POPC   NC330167  25.942  23.816   9.301
 2254POPC   PO430168  25.603  23.307   9.287
 2254POPC   GL130169  25.844  23.479   8.937
 2254POPC   GL230170  26.234  23.586   8.954
 2254POPC   C1A30171  25.873  23.772   8.611
 2254POPC   D2A30172  25.770  23.852   8.204
 2254POPC   C3A30173  25.740  23.475   7.958
 2254POPC   C4A30174  25.913  23.467   7.567
 2254POPC   C1B30175  26.324  23.997   8.745
 2254POPC   C2B30176  26.276  23.970   8.303
 2254POPC   C3B30177  26.158  23.797   7.885
 2254POPC   C4B30178  26.229  23.820   7.418
 2255POPC   NC330179  21.990  25.296   9.434
 2255POPC   PO430180  22.201  24.654   9.486
 2255POPC   GL130181  22.262  24.997   9.116
 2255POPC   GL230182  22.361  25.367   9.077
 2255POPC   C1A30183  22.390  25.064   8.674
 2255POPC   D2A30184  22.103  25.156   8.326
 2255POPC   C3A30185  22.199  25.115   7.887
 2255POPC   C4A30186  22.044  25.057   7.451
 2255POPC   C1B30187  22.190  25.561   8.688
 2255POPC   C2B30188  22.012  25.651   8.287
 2255POPC   C3B30189  22.217  25.630   7.914
 2255POPC   C4B30190  22.038  25.552   7.539
 2256POPC   NC330191  31.482  40.246   9.468
 2256POPC   PO430192  31.453  39.563   9.503
 2256POPC   GL130193  31.428  39.738   9.064
 2256POPC   GL230194  31.296  40.034   9.005
 2256POPC   C1A30195  31.459  39.788   8.596
 2256POPC   D2A30196  31.278  39.669   8.195
 2256POPC   C3A30197  31.537  39.764   7.825
 2256POPC   C4A30198  31.599  39.693   7.367
 2256POPC   C1B30199  31.610  40.268   8.716
 2256POPC   C2B30200  31.653  40.146   8.273
 2256POPC   C3B30201  31.289  40.149   7.999
 2256POPC   C4B30202  31.339  40.161   7.565
 2257POPC   NC330203  22.915  40.492   9.530
 2257POPC   PO430204  23.284  40.995   9.595
 2257POPC   GL130205  23.082  41.002   9.198
 2257POPC   GL230206  22.755  40.855   9.208
 2257POPC   C1A30207  23.149  40.904   8.781
 2257POPC   D2A30208  22.908  40.961   8.424
 2257POPC   C3A30209  23.070  40.814   8.092
 2257POPC   C4A30210  22.945  40.939   7.734
 2257POPC   C1B30211  22.589  40.829   8.805
 2257POPC   C2B30212  22.483  40.686   8.400
 2257POPC   C3B30213  22.531  40.830   8.033
 2257POPC   C4B30214  22.546  40.631   7.671
 2258POPC   NC330215  42.920  30.491   9.455
 2258POPC   PO430216  43.458  30.966   9.423
 2258POPC   GL130217  43.308  30.694   9.110
 2258POPC   GL230218  42.936  30.748   9.037
 2258POPC   C1A30219  43.243  30.699   8.666
 2258POPC   D2A30220  43.098  30.537   8.318
 2258POPC   C3A30221  43.332  30.720   8.013
 2258POPC   C4A30222  43.430  30.408   7.767
 2258POPC   C1B30223  42.766  30.445   8.708
 2258POPC   C2B30224  42.569  30.541   8.274
 2258POPC   C3B30225  42.816  30.704   7.938
 2258POPC   C4B30226  42.920  30.325   7.797
 2259POPC   NC330227   0.186  43.254   9.323
 2259POPC   PO430228  44.561  43.044   9.605
 2259POPC   GL130229  44.652  42.870   9.181
 2259POPC   GL230230   0.028  42.791   9.072
 2259POPC   C1A30231  44.634  42.694   8.762
 2259POPC   D2A30232  44.951  42.768   8.408
 2259POPC   C3A30233  44.723  42.880   8.025
 2259POPC   C4A30234  44.381  43.185   7.927
 2259POPC   C1B30235  44.864  43.148   8.780
 2259POPC   C2B30236  44.933  43.396   8.411
 2259POPC   C3B30237   0.013  43.573   8.009
 2259POPC   C4B30238  44.829  43.333   7.724
 2260POPC   NC330239  10.485  34.866   9.311
 2260POPC   PO430240  10.177  34.327   9.350
 2260POPC   GL130241  10.383  34.463   9.018
 2260POPC   GL230242  10.734  34.423   8.955
 2260POPC   C1A30243  10.367  34.479   8.610
 2260POPC   D2A30244  10.393  34.765   8.302
 2260POPC   C3A30245  10.586  34.599   7.917
 2260POPC   C4A30246  10.728  34.169   7.848
 2260POPC   C1B30247  10.757  34.803   8.701
 2260POPC   C2B30248  10.885  34.792   8.282
 2260POPC   C3B30249  10.831  35.067   7.950
 2260POPC   C4B30250  10.686  34.976   7.573
 2261POPC   NC330251  29.883  43.418   9.331
 2261POPC   PO430252  30.303  43.975   9.391
 2261POPC   GL130253  30.040  43.831   9.029
 2261POPC   GL230254  29.700  43.656   8.948
 2261POPC   C1A30255  30.022  43.843   8.591
 2261POPC   D2A30256  30.129  43.681   8.219
 2261POPC   C3A30257  30.225  43.946   7.875
 2261POPC   C4A30258  30.151  44.233   7.567
 2261POPC   C1B30259  29.547  43.936   8.657
 2261POPC   C2B30260  29.663  43.983   8.227
 2261POPC   C3B30261  29.725  43.994   7.803
 2261POPC   C4B30262  29.691  43.637   7.544
 2262POPC   NC330263  25.706  35.717   9.353
 2262POPC   PO430264  26.043  36.255   9.346
 2262POPC   GL130265  25.994  36.017   9.019
 2262POPC   GL230266  26.297  35.840   9.115
 2262POPC   C1A30267  26.009  36.073   8.561
 2262POPC   D2A30268  25.834  36.298   8.228
 2262POPC   C3A30269  25.948  36.144   7.866
 2262POPC   C4A30270  26.303  35.927   7.896
 2262POPC   C1B30271  26.432  36.166   8.816
 2262POPC   C2B30272  26.514  36.140   8.392
 2262POPC   C3B30273  26.347  36.390   8.118
 2262POPC   C4B30274  26.391  36.411   7.710
 2263POPC   NC330275   5.270   4.153   9.580
 2263POPC   PO430276   4.943   4.789   9.551
 2263POPC   GL130277   5.012   4.445   9.243
 2263POPC   GL230278   4.818   4.131   9.290
 2263POPC   C1A30279   4.997   4.303   8.809
 2263POPC   D2A30280   4.962   4.475   8.364
 2263POPC   C3A30281   5.082   4.291   7.933
 2263POPC   C4A30282   5.044   4.385   7.500
 2263POPC   C1B30283   4.734   3.892   8.912
 2263POPC   C2B30284   4.634   4.069   8.497
 2263POPC   C3B30285   4.789   3.926   8.109
 2263POPC   C4B30286   4.675   4.031   7.665
 2264POPC   NC330287  13.823  15.735   9.489
 2264POPC   PO430288  13.312  16.222   9.438
 2264POPC   GL130289  13.458  15.861   9.097
 2264POPC   GL230290  13.798  15.712   8.998
 2264POPC   C1A30291  13.405  15.678   8.669
 2264POPC   D2A30292  13.357  15.915   8.263
 2264POPC   C3A30293  13.532  15.880   7.812
 2264POPC   C4A30294  13.557  15.771   7.354
 2264POPC   C1B30295  13.921  15.677   8.598
 2264POPC   C2B30296  13.854  15.807   8.196
 2264POPC   C3B30297  14.001  15.664   7.824
 2264POPC   C4B30298  14.053  15.901   7.441
 2265POPC   NC330299   1.109  21.511   9.551
 2265POPC   PO430300   1.203  20.899   9.528
 2265POPC   GL130301   1.132  21.172   9.144
 2265POPC   GL230302   0.844  21.387   9.125
 2265POPC   C1A30303   1.310  21.347   8.732
 2265POPC   D2A30304   1.569  21.460   8.338
 2265POPC   C3A30305   1.403  21.578   7.912
 2265POPC   C4A30306   1.387  21.862   7.533
 2265POPC   C1B30307   0.852  21.580   8.714
 2265POPC   C2B30308   1.044  21.493   8.307
 2265POPC   C3B30309   0.911  21.614   7.902
 2265POPC   C4B30310   0.658  21.310   7.769
 2266POPC   NC330311  17.445  12.473   9.361
 2266POPC   PO430312  17.337  11.898   9.456
 2266POPC   GL130313  17.526  12.058   9.088
 2266POPC   GL230314  17.556  11.805   8.876
 2266POPC   C1A30315  17.716  12.277   8.730
 2266POPC   D2A30316  17.521  12.092   8.386
 2266POPC   C3A30317  17.550  12.260   7.977
 2266POPC   C4A30318  17.761  11.961   7.731
 2266POPC   C1B30319  17.116  11.768   8.816
 2266POPC   C2B30320  16.948  11.874   8.424
 2266POPC   C3B30321  17.039  11.681   8.037
 2266POPC   C4B30322  17.234  11.938   7.744
 2267POPC   NC330323  11.216  16.464   9.489
 2267POPC   PO430324  10.906  17.088   9.298
 2267POPC   GL130325  11.129  16.725   9.052
 2267POPC   GL230326  11.464  16.689   9.078
 2267POPC   C1A30327  11.296  16.381   8.742
 2267POPC   D2A30328  11.497  16.444   8.357
 2267POPC   C3A30329  11.235  16.627   8.014
 2267POPC   C4A30330  11.326  16.691   7.583
 2267POPC   C1B30331  11.632  16.826   8.683
 2267POPC   C2B30332  11.374  16.984   8.358
 2267POPC   C3B30333  11.440  17.108   7.935
 2267POPC   C4B30334  11.752  16.934   7.674
 2268POPC   NC330335  22.348  38.236   9.585
 2268POPC   PO430336  22.067  38.814   9.461
 2268POPC   GL130337  22.226  38.577   9.157
 2268POPC   GL230338  21.936  38.366   9.147
 2268POPC   C1A30339  22.390  38.671   8.756
 2268POPC   D2A30340  22.218  38.652   8.356
 2268POPC   C3A30341  22.188  38.340   8.088
 2268POPC   C4A30342  22.104  38.494   7.696
 2268POPC   C1B30343  22.005  38.325   8.693
 2268POPC   C2B30344  21.721  38.286   8.332
 2268POPC   C3B30345  21.714  38.219   7.887
 2268POPC   C4B30346  21.837  38.135   7.450
 2269POPC   NC330347  16.416  22.538   9.400
 2269POPC   PO430348  17.034  22.248   9.469
 2269POPC   GL130349  16.758  22.127   9.092
 2269POPC   GL230350  16.445  21.947   9.107
 2269POPC   C1A30351  16.682  21.867   8.684
 2269POPC   D2A30352  16.600  22.062   8.297
 2269POPC   C3A30353  16.954  22.151   8.024
 2269POPC   C4A30354  17.104  21.958   7.640
 2269POPC   C1B30355  16.372  22.271   8.776
 2269POPC   C2B30356  16.276  22.481   8.392
 2269POPC   C3B30357  16.370  22.365   7.948
 2269POPC   C4B30358  16.702  22.288   7.610
 2270POPC   NC330359  32.050  41.759   9.454
 2270POPC   PO430360  32.506  41.198   9.540
 2270POPC   GL130361  32.347  41.442   9.134
 2270POPC   GL230362  32.013  41.496   8.980
 2270POPC   C1A30363  32.362  41.748   8.778
 2270POPC   D2A30364  32.074  41.657   8.473
 2270POPC   C3A30365  32.225  41.606   8.091
 2270POPC   C4A30366  32.386  41.603   7.706
 2270POPC   C1B30367  31.796  41.272   8.690
 2270POPC   C2B30368  31.988  41.139   8.300
 2270POPC   C3B30369  31.932  41.237   7.863
 2270POPC   C4B30370  32.046  41.294   7.441
 2271POPC   NC330371  20.349  36.723   9.437
 2271POPC   PO430372  19.593  36.836   9.476
 2271POPC   GL130373  19.756  36.962   9.119
 2271POPC   GL230374  20.076  37.158   9.229
 2271POPC   C1A30375  19.640  37.191   8.746
 2271POPC   D2A30376  19.632  37.014   8.343
 2271POPC   C3A30377  19.676  37.257   7.955
 2271POPC   C4A30378  19.637  37.030   7.584
 2271POPC   C1B30379  20.159  36.928   8.835
 2271POPC   C2B30380  20.291  37.049   8.465
 2271POPC   C3B30381  20.091  36.965   8.084
 2271POPC   C4B30382  19.948  36.668   7.769
 2272POPC   NC330383  27.817  29.670   9.441
 2272POPC   PO430384  27.245  30.049   9.388
 2272POPC   GL130385  27.409  29.916   9.040
 2272POPC   GL230386  27.704  30.094   9.088
 2272POPC   C1A30387  27.444  30.053   8.608
 2272POPC   D2A30388  27.293  29.804   8.273
 2272POPC   C3A30389  27.309  29.883   7.857
 2272POPC   C4A30390  27.640  29.661   7.647
 2272POPC   C1B30391  27.889  29.853   8.758
 2272POPC   C2B30392  28.030  29.888   8.332
 2272POPC   C3B30393  27.790  30.034   7.983
 2272POPC   C4B30394  27.800  30.149   7.525
 2273POPC   NC330395  21.280  40.468   9.800
 2273POPC   PO430396  21.253  41.061   9.514
 2273POPC   GL130397  21.305  40.778   9.184
 2273POPC   GL230398  21.502  40.509   9.320
 2273POPC   C1A30399  21.293  40.835   8.743
 2273POPC   D2A30400  21.543  40.832   8.382
 2273POPC   C3A30401  21.349  40.811   7.967
 2273POPC   C4A30402  21.388  40.885   7.514
 2273POPC   C1B30403  21.655  40.510   8.897
 2273POPC   C2B30404  21.524  40.288   8.538
 2273POPC   C3B30405  21.639  40.190   8.125
 2273POPC   C4B30406  21.585  40.413   7.747
 2274POPC   NC330407  11.450  25.008   9.817
 2274POPC   PO430408  12.025  25.003   9.470
 2274POPC   GL130409  12.083  25.259   9.148
 2274POPC   GL230410  11.787  25.147   9.005
 2274POPC   C1A30411  12.199  25.415   8.746
 2274POPC   D2A30412  12.319  25.171   8.424
 2274POPC   C3A30413  12.211  25.213   8.053
 2274POPC   C4A30414  12.225  25.241   7.662
 2274POPC   C1B30415  11.804  25.101   8.566
 2274POPC   C2B30416  11.844  25.461   8.302
 2274POPC   C3B30417  11.810  25.462   7.862
 2274POPC   C4B30418  11.755  25.038   7.652
 2275POPC   NC330419  20.275  15.346   9.588
 2275POPC   PO430420  19.661  15.080   9.641
 2275POPC   GL130421  19.936  15.103   9.263
 2275POPC   GL230422  20.059  15.463   9.155
 2275POPC   C1A30423  19.894  14.925   8.844
 2275POPC   D2A30424  19.696  15.087   8.471
 2275POPC   C3A30425  19.867  14.936   8.094
 2275POPC   C4A30426  19.814  15.103   7.688
 2275POPC   C1B30427  19.746  15.434   8.853
 2275POPC   C2B30428  19.814  15.598   8.462
 2275POPC   C3B30429  19.690  15.455   8.075
 2275POPC   C4B30430  19.764  15.601   7.684
 2276POPC   NC330431  17.046  27.347   9.426
 2276POPC   PO430432  16.494  27.692   9.369
 2276POPC   GL130433  16.713  27.569   9.069
 2276POPC   GL230434  17.027  27.773   9.099
 2276POPC   C1A30435  16.706  27.737   8.670
 2276POPC   D2A30436  16.944  27.648   8.329
 2276POPC   C3A30437  16.659  27.650   8.022
 2276POPC   C4A30438  16.613  27.872   7.660
 2276POPC   C1B30439  17.101  27.424   8.782
 2276POPC   C2B30440  17.231  27.227   8.387
 2276POPC   C3B30441  17.097  27.275   8.003
 2276POPC   C4B30442  17.003  27.533   7.671
 2277POPC   NC330443   2.310   1.188   9.757
 2277POPC   PO430444   2.855   1.380   9.463
 2277POPC   GL130445   2.775   1.180   9.054
 2277POPC   GL230446   2.421   1.063   9.128
 2277POPC   C1A30447   2.928   1.189   8.603
 2277POPC   D2A30448   2.953   0.892   8.261
 2277POPC   C3A30449   2.825   1.007   7.835
 2277POPC   C4A30450   2.665   1.455   7.745
 2277POPC   C1B30451   2.474   0.984   8.660
 2277POPC   C2B30452   2.535   1.190   8.242
 2277POPC   C3B30453   2.318   1.077   7.855
 2277POPC   C4B30454   2.157   0.886   7.473
 2278POPC   NC330455  36.394   4.361   9.374
 2278POPC   PO430456  35.737   4.264   9.567
 2278POPC   GL130457  35.942   4.339   9.139
 2278POPC   GL230458  36.177   4.092   8.992
 2278POPC   C1A30459  36.063   4.527   8.736
 2278POPC   D2A30460  36.063   4.712   8.329
 2278POPC   C3A30461  36.300   4.481   8.005
 2278POPC   C4A30462  36.610   4.189   7.849
 2278POPC   C1B30463  36.529   4.046   8.719
 2278POPC   C2B30464  36.518   3.870   8.292
 2278POPC   C3B30465  36.224   3.864   7.933
 2278POPC   C4B30466  35.857   4.077   7.786
 2279POPC   NC330467  20.933  10.070   9.707
 2279POPC   PO430468  20.441  10.338   9.398
 2279POPC   GL130469  20.589   9.875   9.144
 2279POPC   GL230470  20.425   9.512   9.168
 2279POPC   C1A30471  20.658   9.689   8.692
 2279POPC   D2A30472  20.897   9.686   8.278
 2279POPC   C3A30473  20.780   9.918   7.885
 2279POPC   C4A30474  20.396   9.875   7.654
 2279POPC   C1B30475  20.189   9.516   8.762
 2279POPC   C2B30476  20.283   9.695   8.337
 2279POPC   C3B30477  20.067   9.624   7.964
 2279POPC   C4B30478  20.081   9.267   7.785
 2280POPC   NC330479  31.043   3.774   9.506
 2280POPC   PO430480  31.423   3.254   9.380
 2280POPC   GL130481  31.403   3.579   9.159
 2280POPC   GL230482  31.740   3.521   9.021
 2280POPC   C1A30483  31.186   3.521   8.785
 2280POPC   D2A30484  31.461   3.499   8.456
 2280POPC   C3A30485  31.317   3.297   8.164
 2280POPC   C4A30486  31.197   3.360   7.798
 2280POPC   C1B30487  31.607   3.857   8.770
 2280POPC   C2B30488  31.673   3.957   8.339
 2280POPC   C3B30489  31.766   3.596   8.047
 2280POPC   C4B30490  31.932   3.874   7.787
 2281POPC   NC330491   8.655  20.791   9.384
 2281POPC   PO430492   9.114  20.399   9.728
 2281POPC   GL130493   9.182  20.546   9.249
 2281POPC   GL230494   9.088  20.900   9.154
 2281POPC   C1A30495   9.113  20.381   8.815
 2281POPC   D2A30496   8.977  20.140   8.439
 2281POPC   C3A30497   9.017  20.368   8.048
 2281POPC   C4A30498   8.793  20.488   7.668
 2281POPC   C1B30499   8.862  20.979   8.774
 2281POPC   C2B30500   8.943  20.736   8.421
 2281POPC   C3B30501   9.169  20.847   8.078
 2281POPC   C4B30502   8.984  20.941   7.702
 2282POPC   NC330503  23.414  43.674   9.430
 2282POPC   PO430504  23.209  44.269   9.476
 2282POPC   GL130505  23.413  44.146   9.093
 2282POPC   GL230506  23.756  44.088   9.199
 2282POPC   C1A30507  23.594  43.854   8.758
 2282POPC   D2A30508  23.718  43.697   8.329
 2282POPC   C3A30509  23.539  43.928   7.959
 2282POPC   C4A30510  23.513  43.837   7.512
 2282POPC   C1B30511  23.979  44.198   8.816
 2282POPC   C2B30512  24.128  44.019   8.442
 2282POPC   C3B30513  24.078  44.041   8.015
 2282POPC   C4B30514  23.966  44.069   7.601
 2283POPC   NC330515  36.578   8.097   9.494
 2283POPC   PO430516  35.919   8.250   9.370
 2283POPC   GL130517  36.135   8.370   9.095
 2283POPC   GL230518  36.357   8.126   9.019
 2283POPC   C1A30519  35.953   8.464   8.712
 2283POPC   D2A30520  36.108   8.678   8.379
 2283POPC   C3A30521  36.098   8.417   8.026
 2283POPC   C4A30522  36.218   8.561   7.658
 2283POPC   C1B30523  36.151   7.969   8.681
 2283POPC   C2B30524  35.966   7.992   8.294
 2283POPC   C3B30525  36.177   7.850   7.907
 2283POPC   C4B30526  36.521   7.790   7.589
 2284POPC   NC330527  33.740  22.411   9.355
 2284POPC   PO430528  33.327  22.064   9.788
 2284POPC   GL130529  33.538  21.946   9.298
 2284POPC   GL230530  33.905  21.914   9.206
 2284POPC   C1A30531  33.586  22.039   8.817
 2284POPC   D2A30532  33.799  22.283   8.454
 2284POPC   C3A30533  33.813  22.093   8.088
 2284POPC   C4A30534  33.535  22.139   7.755
 2284POPC   C1B30535  34.092  22.123   8.821
 2284POPC   C2B30536  34.309  22.250   8.447
 2284POPC   C3B30537  34.187  22.443   8.044
 2284POPC   C4B30538  33.964  22.378   7.647
 2285POPC   NC330539  21.498  32.102   9.580
 2285POPC   PO430540  21.542  31.377   9.510
 2285POPC   GL130541  21.399  31.434   9.085
 2285POPC   GL230542  21.352  31.790   9.068
 2285POPC   C1A30543  21.543  31.272   8.695
 2285POPC   D2A30544  21.671  31.226   8.259
 2285POPC   C3A30545  21.390  31.267   7.947
 2285POPC   C4A30546  21.736  31.356   7.679
 2285POPC   C1B30547  21.233  31.758   8.661
 2285POPC   C2B30548  21.506  31.696   8.328
 2285POPC   C3B30549  21.509  31.784   7.905
 2285POPC   C4B30550  21.229  32.061   7.699
 2286POPC   NC330551  17.555  21.173   9.599
 2286POPC   PO430552  17.119  21.608   9.553
 2286POPC   GL130553  17.362  21.476   9.186
 2286POPC   GL230554  17.701  21.319   9.157
 2286POPC   C1A30555  17.542  21.641   8.811
 2286POPC   D2A30556  17.544  21.417   8.463
 2286POPC   C3A30557  17.792  21.538   8.147
 2286POPC   C4A30558  17.544  21.272   7.850
 2286POPC   C1B30559  17.840  21.128   8.819
 2286POPC   C2B30560  18.001  21.144   8.416
 2286POPC   C3B30561  17.996  21.082   8.003
 2286POPC   C4B30562  17.777  20.852   7.683
 2287POPC   NC330563  38.601  17.125   9.842
 2287POPC   PO430564  38.689  16.495   9.542
 2287POPC   GL130565  38.584  16.729   9.130
 2287POPC   GL230566  38.250  16.930   9.057
 2287POPC   C1A30567  38.556  16.480   8.757
 2287POPC   D2A30568  38.345  16.277   8.445
 2287POPC   C3A30569  38.509  16.406   8.076
 2287POPC   C4A30570  38.541  16.332   7.653
 2287POPC   C1B30571  38.186  16.835   8.600
 2287POPC   C2B30572  38.237  16.858   8.141
 2287POPC   C3B30573  38.218  16.887   7.683
 2287POPC   C4B30574  38.072  17.014   7.207
 2288POPC   NC330575  19.709  19.699   9.455
 2288POPC   PO430576  20.187  20.182   9.537
 2288POPC   GL130577  20.088  19.925   9.181
 2288POPC   GL230578  19.859  20.172   9.076
 2288POPC   C1A30579  19.858  19.699   8.826
 2288POPC   D2A30580  19.729  19.760   8.405
 2288POPC   C3A30581  19.481  19.508   8.168
 2288POPC   C4A30582  19.721  19.608   7.826
 2288POPC   C1B30583  20.002  20.153   8.630
 2288POPC   C2B30584  19.796  20.245   8.221
 2288POPC   C3B30585  19.777  20.103   7.780
 2288POPC   C4B30586  19.844  20.221   7.342
 2289POPC   NC330587  13.872  30.581   9.459
 2289POPC   PO430588  13.195  30.417   9.458
 2289POPC   GL130589  13.482  30.535   9.131
 2289POPC   GL230590  13.653  30.906   9.101
 2289POPC   C1A30591  13.800  30.474   8.824
 2289POPC   D2A30592  13.705  30.754   8.526
 2289POPC   C3A30593  13.715  30.657   8.116
 2289POPC   C4A30594  13.533  30.683   7.755
 2289POPC   C1B30595  13.974  31.098   8.776
 2289POPC   C2B30596  14.090  30.991   8.303
 2289POPC   C3B30597  14.010  30.972   7.815
 2289POPC   C4B30598  14.011  31.148   7.365
 2290POPC   NC330599  32.609  11.087   9.490
 2290POPC   PO430600  33.236  11.371   9.512
 2290POPC   GL130601  33.361  11.226   9.138
 2290POPC   GL230602  33.053  11.029   9.149
 2290POPC   C1A30603  33.544  11.142   8.739
 2290POPC   D2A30604  33.345  11.314   8.375
 2290POPC   C3A30605  33.348  11.201   7.955
 2290POPC   C4A30606  33.192  11.517   7.676
 2290POPC   C1B30607  33.026  11.260   8.758
 2290POPC   C2B30608  32.863  11.100   8.387
 2290POPC   C3B30609  32.844  11.237   7.985
 2290POPC   C4B30610  32.951  11.045   7.616
 2291POPC   NC330611   0.079  43.172   9.839
 2291POPC   PO430612   0.478  42.880   9.366
 2291POPC   GL130613   0.519  43.026   9.025
 2291POPC   GL230614   0.783  43.223   9.113
 2291POPC   C1A30615   0.345  43.047   8.637
 2291POPC   D2A30616   0.494  42.957   8.269
 2291POPC   C3A30617   0.194  43.073   8.034
 2291POPC   C4A30618   0.347  43.291   7.741
 2291POPC   C1B30619   0.860  43.097   8.676
 2291POPC   C2B30620   0.894  43.293   8.295
 2291POPC   C3B30621   0.835  43.380   7.870
 2291POPC   C4B30622   1.071  43.235   7.515
 2292POPC   NC330623  23.302  24.735   9.450
 2292POPC   PO430624  23.783  24.303   9.477
 2292POPC   GL130625  23.533  24.355   9.124
 2292POPC   GL230626  23.540  24.700   9.019
 2292POPC   C1A30627  23.702  24.302   8.741
 2292POPC   D2A30628  23.750  24.525   8.393
 2292POPC   C3A30629  23.767  24.239   8.083
 2292POPC   C4A30630  23.467  24.310   7.792
 2292POPC   C1B30631  23.636  24.951   8.679
 2292POPC   C2B30632  23.898  25.014   8.299
 2292POPC   C3B30633  23.774  24.788   7.941
 2292POPC   C4B30634  23.380  24.866   7.795
 2293POPC   NC330635  16.366  13.894   9.415
 2293POPC   PO430636  15.678  13.540   9.406
 2293POPC   GL130637  15.723  13.673   9.002
 2293POPC   GL230638  15.625  14.002   8.972
 2293POPC   C1A30639  15.765  13.561   8.567
 2293POPC   D2A30640  15.676  13.469   8.146
 2293POPC   C3A30641  16.049  13.578   7.921
 2293POPC   C4A30642  16.406  13.862   7.952
 2293POPC   C1B30643  15.900  14.062   8.664
 2293POPC   C2B30644  15.990  13.940   8.264
 2293POPC   C3B30645  15.800  14.054   7.878
 2293POPC   C4B30646  15.549  14.096   7.490
 2294POPC   NC330647  23.403  34.926   9.535
 2294POPC   PO430648  23.996  34.613   9.630
 2294POPC   GL130649  24.003  34.605   9.220
 2294POPC   GL230650  23.655  34.500   9.130
 2294POPC   C1A30651  24.060  34.677   8.799
 2294POPC   D2A30652  23.767  34.669   8.450
 2294POPC   C3A30653  23.947  34.646   8.043
 2294POPC   C4A30654  23.915  34.486   7.641
 2294POPC   C1B30655  23.387  34.409   8.745
 2294POPC   C2B30656  23.280  34.523   8.295
 2294POPC   C3B30657  23.457  34.651   7.866
 2294POPC   C4B30658  23.553  34.838   7.427
 2295POPC   NC330659  18.775  11.696   9.479
 2295POPC   PO430660  19.516  11.516   9.505
 2295POPC   GL130661  19.271  11.347   9.123
 2295POPC   GL230662  18.928  11.476   9.044
 2295POPC   C1A30663  19.223  11.430   8.650
 2295POPC   D2A30664  18.994  11.465   8.277
 2295POPC   C3A30665  19.251  11.337   7.974
 2295POPC   C4A30666  19.341  10.948   7.859
 2295POPC   C1B30667  18.812  11.099   8.779
 2295POPC   C2B30668  18.730  10.898   8.378
 2295POPC   C3B30669  18.824  11.046   7.978
 2295POPC   C4B30670  18.718  11.435   7.785
 2296POPC   NC330671  20.812  11.768   9.620
 2296POPC   PO430672  20.753  11.101   9.343
 2296POPC   GL130673  20.468  11.285   9.083
 2296POPC   GL230674  20.259  11.511   9.157
 2296POPC   C1A30675  20.474  11.510   8.671
 2296POPC   D2A30676  20.664  11.276   8.367
 2296POPC   C3A30677  20.705  11.452   7.961
 2296POPC   C4A30678  20.859  11.256   7.604
 2296POPC   C1B30679  20.079  11.231   8.798
 2296POPC   C2B30680  20.145  11.098   8.419
 2296POPC   C3B30681  20.249  11.266   8.066
 2296POPC   C4B30682  20.359  11.155   7.654
 2297POPC   NC330683   8.536  28.870   9.695
 2297POPC   PO430684   8.007  29.107   9.323
 2297POPC   GL130685   8.232  28.968   9.014
 2297POPC   GL230686   8.326  29.301   8.923
 2297POPC   C1A30687   8.073  28.938   8.600
 2297POPC   D2A30688   8.241  28.934   8.200
 2297POPC   C3A30689   8.007  28.887   7.824
 2297POPC   C4A30690   8.348  28.939   7.519
 2297POPC   C1B30691   8.047  29.521   8.664
 2297POPC   C2B30692   8.085  29.731   8.280
 2297POPC   C3B30693   8.113  29.427   7.953
 2297POPC   C4B30694   8.050  29.329   7.551
 2298POPC   NC330695   2.438  42.488   9.410
 2298POPC   PO430696   2.997  42.132   9.480
 2298POPC   GL130697   2.836  42.186   9.094
 2298POPC   GL230698   2.880  42.524   9.071
 2298POPC   C1A30699   3.031  42.189   8.687
 2298POPC   D2A30700   2.882  42.273   8.287
 2298POPC   C3A30701   2.668  42.263   7.921
 2298POPC   C4A30702   2.279  42.091   7.807
 2298POPC   C1B30703   2.624  42.505   8.677
 2298POPC   C2B30704   2.691  42.735   8.259
 2298POPC   C3B30705   2.468  42.753   7.869
 2298POPC   C4B30706   2.448  42.990   7.464
 2299POPC   NC330707   7.795   5.756   9.446
 2299POPC   PO430708   8.326   6.094   9.539
 2299POPC   GL130709   8.195   5.945   9.166
 2299POPC   GL230710   8.276   5.606   9.113
 2299POPC   C1A30711   7.915   6.044   8.832
 2299POPC   D2A30712   7.920   5.905   8.434
 2299POPC   C3A30713   8.223   6.017   8.159
 2299POPC   C4A30714   8.166   5.848   7.779
 2299POPC   C1B30715   8.183   5.541   8.697
 2299POPC   C2B30716   8.241   5.510   8.249
 2299POPC   C3B30717   8.487   5.454   7.902
 2299POPC   C4B30718   8.574   5.671   7.501
 2300POPC   NC330719  31.110   2.915   9.516
 2300POPC   PO430720  30.588   2.389   9.503
 2300POPC   GL130721  30.588   2.651   9.150
 2300POPC   GL230722  30.404   2.964   9.092
 2300POPC   C1A30723  30.520   2.584   8.725
 2300POPC   D2A30724  30.544   2.788   8.333
 2300POPC   C3A30725  30.686   2.629   7.901
 2300POPC   C4A30726  30.603   2.640   7.449
 2300POPC   C1B30727  30.842   3.009   8.872
 2300POPC   C2B30728  30.909   3.177   8.441
 2300POPC   C3B30729  30.690   3.154   8.020
 2300POPC   C4B30730  30.835   3.053   7.628
 2301POPC   NC330731  20.310  36.748  10.092
 2301POPC   PO430732  20.526  37.113   9.617
 2301POPC   GL130733  20.670  37.147   9.219
 2301POPC   GL230734  20.802  36.856   9.132
 2301POPC   C1A30735  20.699  37.202   8.780
 2301POPC   D2A30736  20.803  36.990   8.394
 2301POPC   C3A30737  20.593  37.181   8.074
 2301POPC   C4A30738  20.408  37.072   7.712
 2301POPC   C1B30739  20.608  36.684   8.755
 2301POPC   C2B30740  20.457  36.589   8.337
 2301POPC   C3B30741  20.640  36.638   7.931
 2301POPC   C4B30742  20.466  36.594   7.508
 2302POPC   NC330743   5.991  43.268   9.469
 2302POPC   PO430744   5.408  42.865   9.648
 2302POPC   GL130745   5.600  43.013   9.237
 2302POPC   GL230746   5.930  42.908   9.117
 2302POPC   C1A30747   5.689  43.249   8.832
 2302POPC   D2A30748   5.800  43.136   8.391
 2302POPC   C3A30749   5.561  43.243   8.035
 2302POPC   C4A30750   5.486  43.026   7.682
 2302POPC   C1B30751   6.158  42.986   8.729
 2302POPC   C2B30752   6.265  42.963   8.272
 2302POPC   C3B30753   6.202  43.075   7.844
 2302POPC   C4B30754   6.305  43.177   7.398
 2303POPC   NC330755  22.297  18.500   9.478
 2303POPC   PO430756  21.887  18.048   9.716
 2303POPC   GL130757  21.902  18.215   9.250
 2303POPC   GL230758  21.638  18.009   9.076
 2303POPC   C1A30759  22.207  18.289   8.866
 2303POPC   D2A30760  22.385  18.210   8.439
 2303POPC   C3A30761  22.287  18.432   8.057
 2303POPC   C4A30762  22.245  18.124   7.770
 2303POPC   C1B30763  21.714  18.253   8.711
 2303POPC   C2B30764  21.853  18.302   8.303
 2303POPC   C3B30765  21.735  18.133   7.915
 2303POPC   C4B30766  21.835  18.401   7.597
 2304POPC   NC330767  35.021   5.068   9.542
 2304POPC   PO430768  34.403   5.256   9.531
 2304POPC   GL130769  34.696   5.236   9.168
 2304POPC   GL230770  34.985   5.413   9.143
 2304POPC   C1A30771  34.730   5.166   8.722
 2304POPC   D2A30772  34.356   5.127   8.434
 2304POPC   C3A30773  34.476   4.954   8.050
 2304POPC   C4A30774  34.861   4.880   7.844
 2304POPC   C1B30775  34.929   5.632   8.774
 2304POPC   C2B30776  34.998   5.577   8.352
 2304POPC   C3B30777  34.749   5.394   8.050
 2304POPC   C4B30778  34.549   5.311   7.677
 2305POPC   NC330779  43.098  40.598   9.832
 2305POPC   PO430780  42.699  41.064   9.532
 2305POPC   GL130781  42.914  41.110   9.130
 2305POPC   GL230782  43.094  40.834   9.031
 2305POPC   C1A30783  42.749  40.981   8.708
 2305POPC   D2A30784  42.968  40.929   8.368
 2305POPC   C3A30785  42.748  40.976   7.962
 2305POPC   C4A30786  42.928  40.881   7.527
 2305POPC   C1B30787  42.938  40.505   8.702
 2305POPC   C2B30788  42.829  40.469   8.245
 2305POPC   C3B30789  43.127  40.660   7.971
 2305POPC   C4B30790  43.335  40.572   7.677
 2306POPC   NC330791  12.347  17.113   9.361
 2306POPC   PO430792  11.688  16.878   9.481
 2306POPC   GL130793  11.944  16.658   9.178
 2306POPC   GL230794  11.992  16.946   9.034
 2306POPC   C1A30795  12.081  16.557   8.730
 2306POPC   D2A30796  12.174  16.661   8.324
 2306POPC   C3A30797  11.828  16.792   8.151
 2306POPC   C4A30798  11.694  16.451   7.894
 2306POPC   C1B30799  12.208  17.051   8.681
 2306POPC   C2B30800  12.263  17.203   8.268
 2306POPC   C3B30801  12.254  16.983   7.890
 2306POPC   C4B30802  12.178  16.546   7.802
 2307POPC   NC330803  29.529  22.654   9.611
 2307POPC   PO430804  30.099  22.979   9.434
 2307POPC   GL130805  29.753  22.850   9.175
 2307POPC   GL230806  29.617  22.525   9.136
 2307POPC   C1A30807  29.841  22.860   8.755
 2307POPC   D2A30808  29.834  23.120   8.403
 2307POPC   C3A30809  30.110  22.960   8.118
 2307POPC   C4A30810  30.086  22.868   7.681
 2307POPC   C1B30811  29.434  22.531   8.749
 2307POPC   C2B30812  29.690  22.499   8.408
 2307POPC   C3B30813  29.747  22.632   8.013
 2307POPC   C4B30814  29.792  22.447   7.603
 2308POPC   NC330815  26.154  22.279   9.533
 2308POPC   PO430816  25.776  21.923   9.206
 2308POPC   GL130817  26.032  22.273   9.035
 2308POPC   GL230818  26.395  22.371   9.102
 2308POPC   C1A30819  26.161  22.438   8.647
 2308POPC   D2A30820  25.887  22.399   8.306
 2308POPC   C3A30821  25.955  22.008   8.061
 2308POPC   C4A30822  26.006  22.035   7.626
 2308POPC   C1B30823  26.389  21.962   8.837
 2308POPC   C2B30824  26.323  21.875   8.414
 2308POPC   C3B30825  26.441  22.091   8.034
 2308POPC   C4B30826  26.513  21.958   7.644
 2309POPC   NC330827  44.971  17.660   9.553
 2309POPC   PO430828  44.321  17.601   9.500
 2309POPC   GL130829  44.637  17.556   9.158
 2309POPC   GL230830  44.884  17.839   9.075
 2309POPC   C1A30831  44.626  17.464   8.721
 2309POPC   D2A30832  44.761  17.605   8.333
 2309POPC   C3A30833  44.545  17.398   7.991
 2309POPC   C4A30834  44.484  17.036   7.726
 2309POPC   C1B30835  44.524  17.961   8.802
 2309POPC   C2B30836  44.297  17.952   8.367
 2309POPC   C3B30837  44.532  17.906   7.974
 2309POPC   C4B30838  44.922  17.746   7.868
 2310POPC   NC330839  39.215  21.834   9.418
 2310POPC   PO430840  39.312  22.466   9.558
 2310POPC   GL130841  39.104  22.280   9.195
 2310POPC   GL230842  39.065  22.540   9.027
 2310POPC   C1A30843  39.179  22.068   8.764
 2310POPC   D2A30844  39.390  21.930   8.353
 2310POPC   C3A30845  39.433  22.126   7.961
 2310POPC   C4A30846  39.424  21.983   7.557
 2310POPC   C1B30847  39.391  22.548   8.764
 2310POPC   C2B30848  39.545  22.466   8.341
 2310POPC   C3B30849  39.430  22.641   7.936
 2310POPC   C4B30850  39.323  22.550   7.479
 2311POPC   NC330851  22.362  32.060   9.353
 2311POPC   PO430852  22.460  32.654   9.503
 2311POPC   GL130853  22.209  32.479   9.081
 2311POPC   GL230854  22.104  32.131   8.931
 2311POPC   C1A30855  22.015  32.543   8.655
 2311POPC   D2A30856  22.201  32.645   8.259
 2311POPC   C3A30857  22.140  32.296   7.938
 2311POPC   C4A30858  21.943  32.327   7.531
 2311POPC   C1B30859  22.474  32.010   8.682
 2311POPC   C2B30860  22.488  31.810   8.259
 2311POPC   C3B30861  22.582  32.029   7.871
 2311POPC   C4B30862  22.353  32.011   7.490
 2312POPC   NC330863   5.902   1.874   9.639
 2312POPC   PO430864   6.125   2.525   9.481
 2312POPC   GL130865   5.855   2.219   9.248
 2312POPC   GL230866   5.972   1.864   9.142
 2312POPC   C1A30867   5.697   2.201   8.839
 2312POPC   D2A30868   5.872   2.210   8.410
 2312POPC   C3A30869   5.646   2.108   8.038
 2312POPC   C4A30870   5.984   1.944   7.804
 2312POPC   C1B30871   5.791   1.696   8.765
 2312POPC   C2B30872   5.847   1.694   8.317
 2312POPC   C3B30873   5.652   1.587   7.923
 2312POPC   C4B30874   5.569   1.824   7.543
 2313POPC   NC330875  11.561  20.983   9.460
 2313POPC   PO430876  11.284  21.467   9.204
 2313POPC   GL130877  11.313  21.108   9.028
 2313POPC   GL230878  11.029  20.974   9.207
 2313POPC   C1A30879  11.358  21.046   8.610
 2313POPC   D2A30880  11.405  21.048   8.205
 2313POPC   C3A30881  11.450  21.407   8.092
 2313POPC   C4A30882  11.358  21.526   7.718
 2313POPC   C1B30883  10.880  21.066   8.760
 2313POPC   C2B30884  10.964  21.288   8.343
 2313POPC   C3B30885  11.007  21.217   7.891
 2313POPC   C4B30886  10.916  21.489   7.478
 2314POPC   NC330887  38.223  22.400   9.419
 2314POPC   PO430888  38.731  21.920   9.410
 2314POPC   GL130889  38.582  22.201   9.067
 2314POPC   GL230890  38.578  22.573   9.082
 2314POPC   C1A30891  38.413  22.151   8.636
 2314POPC   D2A30892  38.077  22.006   8.346
 2314POPC   C3A30893  38.252  22.064   7.934
 2314POPC   C4A30894  38.674  22.202   7.782
 2314POPC   C1B30895  38.403  22.693   8.649
 2314POPC   C2B30896  38.185  22.611   8.227
 2314POPC   C3B30897  38.301  22.569   7.773
 2314POPC   C4B30898  38.602  22.547   7.402
 2315POPC   NC330899  10.869   8.323   9.602
 2315POPC   PO430900  10.301   8.022   9.370
 2315POPC   GL130901  10.571   8.100   9.072
 2315POPC   GL230902  10.784   7.836   9.113
 2315POPC   C1A30903  10.486   8.302   8.660
 2315POPC   D2A30904  10.058   8.308   8.443
 2315POPC   C3A30905  10.120   8.269   7.995
 2315POPC   C4A30906  10.380   7.978   7.754
 2315POPC   C1B30907  10.568   7.792   8.682
 2315POPC   C2B30908  10.566   7.962   8.260
 2315POPC   C3B30909  10.856   7.948   7.921
 2315POPC   C4B30910  10.812   7.805   7.481
 2316POPC   NC330911  26.421  25.776   9.552
 2316POPC   PO430912  26.211  25.126   9.504
 2316POPC   GL130913  26.064  25.226   9.123
 2316POPC   GL230914  25.724  25.334   9.116
 2316POPC   C1A30915  26.007  25.131   8.728
 2316POPC   D2A30916  26.082  25.258   8.340
 2316POPC   C3A30917  26.336  25.202   7.988
 2316POPC   C4A30918  26.226  25.216   7.573
 2316POPC   C1B30919  25.701  25.579   8.750
 2316POPC   C2B30920  25.828  25.720   8.333
 2316POPC   C3B30921  25.848  25.460   7.944
 2316POPC   C4B30922  25.880  24.993   7.903
 2317POPC   NC330923  10.754  17.916   9.517
 2317POPC   PO430924  10.142  18.157   9.417
 2317POPC   GL130925  10.497  18.214   9.147
 2317POPC   GL230926  10.403  18.481   8.956
 2317POPC   C1A30927  10.763  17.970   8.885
 2317POPC   D2A30928  10.804  17.841   8.476
 2317POPC   C3A30929  10.718  18.084   8.109
 2317POPC   C4A30930  10.883  17.936   7.728
 2317POPC   C1B30931  10.526  18.290   8.585
 2317POPC   C2B30932  10.876  18.460   8.426
 2317POPC   C3B30933  10.677  18.681   8.153
 2317POPC   C4B30934  10.404  18.457   7.891
 2318POPC   NC330935  16.674   5.381   9.594
 2318POPC   PO430936  16.878   4.806   9.626
 2318POPC   GL130937  16.853   5.031   9.226
 2318POPC   GL230938  16.500   5.157   9.159
 2318POPC   C1A30939  16.837   5.093   8.777
 2318POPC   D2A30940  16.839   5.294   8.379
 2318POPC   C3A30941  16.770   5.117   8.001
 2318POPC   C4A30942  17.092   5.221   7.704
 2318POPC   C1B30943  16.312   5.034   8.751
 2318POPC   C2B30944  16.354   4.879   8.327
 2318POPC   C3B30945  16.245   4.663   7.959
 2318POPC   C4B30946  16.423   4.938   7.687
 2319POPC   NC330947   4.183   8.666   9.523
 2319POPC   PO430948   4.660   8.058   9.582
 2319POPC   GL130949   4.494   8.155   9.134
 2319POPC   GL230950   4.196   8.322   9.155
 2319POPC   C1A30951   4.430   8.063   8.749
 2319POPC   D2A30952   4.231   8.121   8.376
 2319POPC   C3A30953   4.475   8.180   8.011
 2319POPC   C4A30954   4.477   8.194   7.577
 2319POPC   C1B30955   4.041   8.473   8.788
 2319POPC   C2B30956   3.751   8.354   8.493
 2319POPC   C3B30957   3.881   8.347   8.084
 2319POPC   C4B30958   4.108   8.493   7.773
 2320POPC   NC330959  41.473  29.959   9.589
 2320POPC   PO430960  41.989  29.559   9.455
 2320POPC   GL130961  41.565  29.613   9.237
 2320POPC   GL230962  41.722  29.896   9.147
 2320POPC   C1A30963  41.349  29.753   8.843
 2320POPC   D2A30964  41.601  29.851   8.470
 2320POPC   C3A30965  41.448  29.822   8.051
 2320POPC   C4A30966  41.513  30.070   7.681
 2320POPC   C1B30967  41.863  29.573   8.831
 2320POPC   C2B30968  41.958  29.451   8.422
 2320POPC   C3B30969  41.997  29.736   8.098
 2320POPC   C4B30970  41.906  29.658   7.696
 2321POPC   NC330971  18.130  26.299   9.505
 2321POPC   PO430972  18.435  25.706   9.249
 2321POPC   GL130973  18.381  26.087   9.086
 2321POPC   GL230974  18.038  26.012   9.082
 2321POPC   C1A30975  18.355  26.294   8.708
 2321POPC   D2A30976  18.104  26.420   8.359
 2321POPC   C3A30977  18.370  26.340   7.987
 2321POPC   C4A30978  18.542  26.217   7.599
 2321POPC   C1B30979  18.154  25.831   8.677
 2321POPC   C2B30980  18.248  25.926   8.282
 2321POPC   C3B30981  18.113  25.883   7.885
 2321POPC   C4B30982  18.288  25.730   7.539
 2322POPC   NC330983  10.979   0.210   9.291
 2322POPC   PO430984  11.373   0.732   9.444
 2322POPC   GL130985  11.361   0.508   9.066
 2322POPC   GL230986  11.045   0.561   8.932
 2322POPC   C1A30987  11.560   0.337   8.691
 2322POPC   D2A30988  11.469   0.098   8.325
 2322POPC   C3A30989  11.215   0.297   7.999
 2322POPC   C4A30990  11.374   0.363   7.567
 2322POPC   C1B30991  11.069   0.195   8.653
 2322POPC   C2B30992  10.807   0.070   8.335
 2322POPC   C3B30993  10.813  44.942   7.938
 2322POPC   C4B30994  10.927   0.133   7.595
 2323POPC   NC330995  41.392  42.780   9.311
 2323POPC   PO430996  41.539  42.171   9.424
 2323POPC   GL130997  41.694  42.388   9.102
 2323POPC   GL230998  41.896  42.678   9.139
 2323POPC   C1A30999  41.503  42.393   8.721
 2323POPC   D2A31000  41.657  42.335   8.325
 2323POPC   C3A31001  41.356  42.362   7.977
 2323POPC   C4A31002  41.384  42.533   7.560
 2323POPC   C1B31003  41.999  42.555   8.706
 2323POPC   C2B31004  41.931  42.783   8.307
 2323POPC   C3B31005  41.839  42.575   7.933
 2323POPC   C4B31006  41.873  42.144   7.825
 2324POPC   NC331007   7.481  18.235   9.813
 2324POPC   PO431008   7.816  18.778   9.563
 2324POPC   GL131009   7.545  18.496   9.250
 2324POPC   GL231010   7.348  18.170   9.244
 2324POPC   C1A31011   7.334  18.445   8.831
 2324POPC   D2A31012   7.499  18.465   8.425
 2324POPC   C3A31013   7.300  18.372   8.045
 2324POPC   C4A31014   7.336  18.603   7.685
 2324POPC   C1B31015   7.361  17.930   8.841
 2324POPC   C2B31016   7.282  17.998   8.402
 2324POPC   C3B31017   7.514  17.912   7.992
 2324POPC   C4B31018   7.598  17.863   7.524
 2325POPC   NC331019  23.557   6.357   9.422
 2325POPC   PO431020  24.058   6.753   9.516
 2325POPC   GL131021  23.823   6.700   9.128
 2325POPC   GL231022  23.897   6.402   8.980
 2325POPC   C1A31023  23.593   6.852   8.753
 2325POPC   D2A31024  23.691   6.953   8.320
 2325POPC   C3A31025  23.438   6.818   8.011
 2325POPC   C4A31026  23.609   6.559   7.715
 2325POPC   C1B31027  23.470   6.368   8.766
 2325POPC   C2B31028  23.485   6.403   8.322
 2325POPC   C3B31029  23.840   6.283   8.089
 2325POPC   C4B31030  24.077   6.297   7.707
 2326POPC   NC331031   1.800   7.740   9.363
 2326POPC   PO431032   2.193   7.141   9.340
 2326POPC   GL131033   2.106   7.436   9.075
 2326POPC   GL231034   1.750   7.340   9.063
 2326POPC   C1A31035   2.018   7.491   8.664
 2326POPC   D2A31036   2.016   7.692   8.300
 2326POPC   C3A31037   2.036   7.517   7.940
 2326POPC   C4A31038   2.392   7.337   7.759
 2326POPC   C1B31039   1.637   7.106   8.695
 2326POPC   C2B31040   1.719   7.204   8.293
 2326POPC   C3B31041   1.641   7.204   7.870
 2326POPC   C4B31042   1.920   7.164   7.533
 2327POPC   NC331043  33.424  42.747   9.762
 2327POPC   PO431044  33.633  42.116   9.550
 2327POPC   GL131045  33.670  42.195   9.128
 2327POPC   GL231046  33.335  42.272   9.169
 2327POPC   C1A31047  33.895  42.421   8.817
 2327POPC   D2A31048  33.839  42.598   8.421
 2327POPC   C3A31049  34.034  42.431   8.055
 2327POPC   C4A31050  33.959  42.297   7.676
 2327POPC   C1B31051  33.381  42.537   8.845
 2327POPC   C2B31052  33.268  42.523   8.439
 2327POPC   C3B31053  33.514  42.392   8.071
 2327POPC   C4B31054  33.456  42.248   7.683
 2328POPC   NC331055  23.213  42.204   9.555
 2328POPC   PO431056  22.708  42.598   9.523
 2328POPC   GL131057  22.826  42.316   9.178
 2328POPC   GL231058  23.164  42.123   9.075
 2328POPC   C1A31059  22.944  42.424   8.746
 2328POPC   D2A31060  22.721  42.405   8.387
 2328POPC   C3A31061  22.984  42.226   8.100
 2328POPC   C4A31062  23.020  42.446   7.731
 2328POPC   C1B31063  22.803  41.919   8.863
 2328POPC   C2B31064  22.760  41.869   8.438
 2328POPC   C3B31065  22.634  41.777   8.051
 2328POPC   C4B31066  22.684  42.046   7.710
 2329POPC   NC331067  36.405  29.607   9.485
 2329POPC   PO431068  35.867  29.978   9.460
 2329POPC   GL131069  36.128  29.875   9.144
 2329POPC   GL231070  36.117  29.507   9.073
 2329POPC   C1A31071  36.078  29.996   8.761
 2329POPC   D2A31072  35.863  29.962   8.412
 2329POPC   C3A31073  36.093  30.057   8.074
 2329POPC   C4A31074  35.943  29.951   7.709
 2329POPC   C1B31075  36.382  29.582   8.735
 2329POPC   C2B31076  36.437  29.686   8.295
 2329POPC   C3B31077  36.291  29.573   7.898
 2329POPC   C4B31078  35.955  29.427   7.662
 2330POPC   NC331079  16.730  33.193   9.489
 2330POPC   PO431080  16.787  32.564   9.320
 2330POPC   GL131081  16.631  32.856   9.101
 2330POPC   GL231082  16.861  33.055   9.016
 2330POPC   C1A31083  16.458  33.192   8.786
 2330POPC   D2A31084  16.502  33.360   8.375
 2330POPC   C3A31085  16.534  33.031   8.055
 2330POPC   C4A31086  16.837  33.077   7.764
 2330POPC   C1B31087  16.867  32.809   8.658
 2330POPC   C2B31088  17.171  32.616   8.432
 2330POPC   C3B31089  17.100  32.732   8.020
 2330POPC   C4B31090  16.722  32.596   7.789
 2331POPC   NC331091   6.702  24.135   9.187
 2331POPC   PO431092   6.503  24.678   9.571
 2331POPC   GL131093   6.584  24.635   9.195
 2331POPC   GL231094   6.315  24.420   9.098
 2331POPC   C1A31095   6.621  24.688   8.792
 2331POPC   D2A31096   6.697  24.461   8.420
 2331POPC   C3A31097   6.721  24.677   8.051
 2331POPC   C4A31098   6.696  24.560   7.613
 2331POPC   C1B31099   6.247  24.360   8.693
 2331POPC   C2B31100   6.257  24.192   8.292
 2331POPC   C3B31101   6.307  24.433   7.945
 2331POPC   C4B31102   6.185  24.426   7.517
 2332POPC   NC331103  28.473  36.273   9.634
 2332POPC   PO431104  27.945  36.044   9.386
 2332POPC   GL131105  28.219  36.249   9.084
 2332POPC   GL231106  28.575  36.327   9.154
 2332POPC   C1A31107  28.244  36.210   8.630
 2332POPC   D2A31108  28.012  36.238   8.250
 2332POPC   C3A31109  28.215  35.978   7.937
 2332POPC   C4A31110  28.247  35.905   7.501
 2332POPC   C1B31111  28.603  36.537   8.794
 2332POPC   C2B31112  28.755  36.388   8.420
 2332POPC   C3B31113  28.519  36.372   8.044
 2332POPC   C4B31114  28.384  36.493   7.662
 2333POPC   NC331115  30.266  42.497   9.399
 2333POPC   PO431116  29.693  42.259   9.684
 2333POPC   GL131117  29.844  42.239   9.224
 2333POPC   GL231118  29.827  42.533   9.043
 2333POPC   C1A31119  29.985  42.116   8.779
 2333POPC   D2A31120  29.926  41.984   8.391
 2333POPC   C3A31121  29.787  42.117   8.017
 2333POPC   C4A31122  29.907  42.211   7.621
 2333POPC   C1B31123  30.145  42.577   8.710
 2333POPC   C2B31124  30.181  42.423   8.257
 2333POPC   C3B31125  30.127  42.606   7.833
 2333POPC   C4B31126  29.866  42.748   7.485
 2334POPC   NC331127  25.437  40.157   9.412
 2334POPC   PO431128  24.888  39.690   9.426
 2334POPC   GL131129  25.180  39.817   9.114
 2334POPC   GL231130  25.037  40.129   9.070
 2334POPC   C1A31131  25.319  39.924   8.696
 2334POPC   D2A31132  25.078  40.111   8.370
 2334POPC   C3A31133  25.301  40.085   8.012
 2334POPC   C4A31134  25.363  39.852   7.681
 2334POPC   C1B31135  24.826  40.387   8.753
 2334POPC   C2B31136  24.945  40.606   8.370
 2334POPC   C3B31137  24.967  40.471   7.971
 2334POPC   C4B31138  25.060  40.303   7.587
 2335POPC   NC331139  27.976   1.033   9.299
 2335POPC   PO431140  28.333   1.506   9.635
 2335POPC   GL131141  28.414   1.381   9.176
 2335POPC   GL231142  28.476   1.036   9.071
 2335POPC   C1A31143  28.262   1.300   8.716
 2335POPC   D2A31144  28.277   1.034   8.389
 2335POPC   C3A31145  28.391   1.205   8.027
 2335POPC   C4A31146  28.259   1.472   7.740
 2335POPC   C1B31147  28.709   1.045   8.701
 2335POPC   C2B31148  28.788   0.906   8.297
 2335POPC   C3B31149  28.880   1.064   7.937
 2335POPC   C4B31150  28.619   0.949   7.638
 2336POPC   NC331151  13.096  32.647   9.588
 2336POPC   PO431152  13.659  33.108   9.645
 2336POPC   GL131153  13.473  33.132   9.191
 2336POPC   GL231154  13.541  32.773   9.120
 2336POPC   C1A31155  13.633  33.271   8.746
 2336POPC   D2A31156  13.890  33.373   8.363
 2336POPC   C3A31157  13.677  33.269   7.993
 2336POPC   C4A31158  13.535  32.965   7.695
 2336POPC   C1B31159  13.684  32.655   8.716
 2336POPC   C2B31160  13.723  32.881   8.347
 2336POPC   C3B31161  13.900  32.795   7.980
 2336POPC   C4B31162  13.757  32.456   7.700
 2337POPC   NC331163   9.490  31.610   9.520
 2337POPC   PO431164  10.107  31.445   9.625
 2337POPC   GL131165  10.045  31.490   9.212
 2337POPC   GL231166   9.742  31.354   9.142
 2337POPC   C1A31167  10.019  31.574   8.760
 2337POPC   D2A31168   9.927  31.358   8.378
 2337POPC   C3A31169   9.858  31.573   8.013
 2337POPC   C4A31170  10.046  31.404   7.640
 2337POPC   C1B31171   9.511  31.611   8.870
 2337POPC   C2B31172   9.553  31.684   8.461
 2337POPC   C3B31173   9.311  31.597   8.115
 2337POPC   C4B31174   9.407  31.468   7.747
 2338POPC   NC331175  24.745  32.966   9.469
 2338POPC   PO431176  24.318  33.300   9.133
 2338POPC   GL131177  24.421  32.880   9.085
 2338POPC   GL231178  24.211  32.646   9.248
 2338POPC   C1A31179  24.555  32.698   8.719
 2338POPC   D2A31180  24.643  32.906   8.302
 2338POPC   C3A31181  24.743  32.750   7.887
 2338POPC   C4A31182  24.945  33.144   7.751
 2338POPC   C1B31183  24.025  32.698   8.829
 2338POPC   C2B31184  24.143  32.815   8.427
 2338POPC   C3B31185  24.172  33.140   8.122
 2338POPC   C4B31186  24.279  33.062   7.728
 2339POPC   NC331187  13.598  39.750   9.537
 2339POPC   PO431188  13.793  40.399   9.483
 2339POPC   GL131189  13.660  40.111   9.193
 2339POPC   GL231190  13.955  39.819   9.180
 2339POPC   C1A31191  13.556  39.868   8.858
 2339POPC   D2A31192  13.562  39.761   8.436
 2339POPC   C3A31193  13.354  40.047   8.177
 2339POPC   C4A31194  13.453  40.017   7.762
 2339POPC   C1B31195  14.039  40.139   8.873
 2339POPC   C2B31196  13.839  40.196   8.486
 2339POPC   C3B31197  13.891  39.993   8.075
 2339POPC   C4B31198  13.923  40.210   7.678
 2340POPC   NC331199   5.294  16.468   9.450
 2340POPC   PO431200   5.783  17.010   9.459
 2340POPC   GL131201   5.910  16.655   9.130
 2340POPC   GL231202   5.679  16.346   9.036
 2340POPC   C1A31203   6.029  16.528   8.686
 2340POPC   D2A31204   5.782  16.631   8.307
 2340POPC   C3A31205   5.900  16.668   7.876
 2340POPC   C4A31206   6.034  17.076   7.695
 2340POPC   C1B31207   5.466  16.627   8.736
 2340POPC   C2B31208   5.317  16.889   8.380
 2340POPC   C3B31209   5.423  16.880   7.912
 2340POPC   C4B31210   5.305  16.766   7.472
 2341POPC   NC331211  10.903  17.239   9.729
 2341POPC   PO431212  10.251  17.446   9.539
 2341POPC   GL131213  10.571  17.520   9.233
 2341POPC   GL231214  10.330  17.741   9.085
 2341POPC   C1A31215  10.770  17.467   8.822
 2341POPC   D2A31216  10.674  17.286   8.429
 2341POPC   C3A31217  10.928  17.147   8.093
 2341POPC   C4A31218  10.740  17.385   7.756
 2341POPC   C1B31219  10.334  17.670   8.631
 2341POPC   C2B31220  10.407  17.673   8.165
 2341POPC   C3B31221  10.383  17.856   7.744
 2341POPC   C4B31222  10.128  17.800   7.379
 2342POPC   NC331223  32.617   3.377   9.461
 2342POPC   PO431224  31.990   3.652   9.494
 2342POPC   GL131225  32.196   3.696   9.180
 2342POPC   GL231226  32.247   3.382   9.116
 2342POPC   C1A31227  32.271   3.798   8.776
 2342POPC   D2A31228  32.051   3.641   8.470
 2342POPC   C3A31229  32.289   3.676   8.088
 2342POPC   C4A31230  32.182   3.379   7.754
 2342POPC   C1B31231  32.585   3.383   8.778
 2342POPC   C2B31232  32.759   3.431   8.363
 2342POPC   C3B31233  32.670   3.401   7.896
 2342POPC   C4B31234  32.640   3.093   7.557
 2343POPC   NC331235   9.475  37.616   9.378
 2343POPC   PO431236   9.585  38.309   9.508
 2343POPC   GL131237   9.537  38.048   9.106
 2343POPC   GL231238   9.718  37.738   8.966
 2343POPC   C1A31239   9.719  38.133   8.693
 2343POPC   D2A31240   9.548  38.098   8.320
 2343POPC   C3A31241   9.583  37.734   8.098
 2343POPC   C4A31242   9.497  37.889   7.709
 2343POPC   C1B31243   9.436  37.661   8.630
 2343POPC   C2B31244   9.309  37.243   8.456
 2343POPC   C3B31245   9.109  37.162   8.063
 2343POPC   C4B31246   9.292  37.436   7.758
 2344POPC   NC331247  44.429  24.276   9.431
 2344POPC   PO431248  44.889  24.530   9.856
 2344POPC   GL131249  44.894  24.425   9.317
 2344POPC   GL231250  44.809  24.676   9.204
 2344POPC   C1A31251  44.732  24.365   8.803
 2344POPC   D2A31252  44.555  24.534   8.338
 2344POPC   C3A31253  44.699  24.320   7.906
 2344POPC   C4A31254  44.454  24.085   7.553
 2344POPC   C1B31255  44.865  24.855   8.803
 2344POPC   C2B31256   0.037  24.683   8.452
 2344POPC   C3B31257   0.012  24.752   8.035
 2344POPC   C4B31258  44.726  24.798   7.739
 2345POPC   NC331259  19.484  11.929   9.290
 2345POPC   PO431260  19.675  12.500   9.578
 2345POPC   GL131261  19.862  12.310   9.163
 2345POPC   GL231262  19.983  11.958   9.194
 2345POPC   C1A31263  19.793  12.186   8.701
 2345POPC   D2A31264  19.698  12.239   8.260
 2345POPC   C3A31265  19.959  12.191   7.906
 2345POPC   C4A31266  20.021  12.421   7.516
 2345POPC   C1B31267  20.178  11.898   8.809
 2345POPC   C2B31268  20.231  12.056   8.372
 2345POPC   C3B31269  20.418  11.957   7.967
 2345POPC   C4B31270  20.364  12.036   7.512
 2346POPC   NC331271  12.539  41.993   9.330
 2346POPC   PO431272  11.874  41.746   9.516
 2346POPC   GL131273  11.892  41.563   9.101
 2346POPC   GL231274  11.610  41.338   9.158
 2346POPC   C1A31275  12.154  41.542   8.716
 2346POPC   D2A31276  12.487  41.513   8.417
 2346POPC   C3A31277  12.355  41.823   8.116
 2346POPC   C4A31278  12.158  41.783   7.735
 2346POPC   C1B31279  11.721  41.266   8.720
 2346POPC   C2B31280  11.617  41.158   8.316
 2346POPC   C3B31281  11.792  41.113   7.906
 2346POPC   C4B31282  11.899  41.366   7.603
 2347POPC   NC331283  11.741  26.469   9.241
 2347POPC   PO431284  11.351  26.905   9.606
 2347POPC   GL131285  11.322  26.874   9.160
 2347POPC   GL231286  11.145  26.555   9.127
 2347POPC   C1A31287  11.375  27.002   8.713
 2347POPC   D2A31288  11.119  27.006   8.321
 2347POPC   C3A31289  11.327  27.199   7.966
 2347POPC   C4A31290  11.687  27.045   7.714
 2347POPC   C1B31291  10.962  26.689   8.732
 2347POPC   C2B31292  10.973  26.529   8.289
 2347POPC   C3B31293  11.181  26.708   7.905
 2347POPC   C4B31294  11.261  26.840   7.474
 2348POPC   NC331295   1.863  31.778   9.792
 2348POPC   PO431296   2.208  31.305   9.472
 2348POPC   GL131297   1.941  31.639   9.282
 2348POPC   GL231298   2.148  31.594   9.013
 2348POPC   C1A31299   1.676  31.694   8.871
 2348POPC   D2A31300   1.721  31.409   8.501
 2348POPC   C3A31301   1.822  31.564   8.076
 2348POPC   C4A31302   1.612  31.511   7.679
 2348POPC   C1B31303   2.342  31.278   8.801
 2348POPC   C2B31304   2.354  31.432   8.408
 2348POPC   C3B31305   2.273  31.252   8.023
 2348POPC   C4B31306   2.116  31.389   7.656
 2349POPC   NC331307  20.823  21.042   9.450
 2349POPC   PO431308  20.590  21.637   9.555
 2349POPC   GL131309  20.536  21.453   9.173
 2349POPC   GL231310  20.398  21.121   9.182
 2349POPC   C1A31311  20.693  21.547   8.758
 2349POPC   D2A31312  20.463  21.593   8.407
 2349POPC   C3A31313  20.600  21.520   7.988
 2349POPC   C4A31314  20.479  21.560   7.559
 2349POPC   C1B31315  20.620  21.052   8.827
 2349POPC   C2B31316  20.706  21.151   8.418
 2349POPC   C3B31317  20.785  21.051   8.047
 2349POPC   C4B31318  20.804  21.143   7.642
 2350POPC   NC331319   7.820  43.255   9.399
 2350POPC   PO431320   7.208  42.997   9.503
 2350POPC   GL131321   7.423  42.877   9.121
 2350POPC   GL231322   7.443  43.213   9.081
 2350POPC   C1A31323   7.387  42.698   8.693
 2350POPC   D2A31324   7.588  42.834   8.315
 2350POPC   C3A31325   7.371  42.909   7.945
 2350POPC   C4A31326   7.595  42.954   7.575
 2350POPC   C1B31327   7.553  43.191   8.683
 2350POPC   C2B31328   7.509  43.449   8.335
 2350POPC   C3B31329   7.634  43.359   7.915
 2350POPC   C4B31330   7.667  43.447   7.496
 2351POPC   NC331331   0.506  39.139   9.644
 2351POPC   PO431332   0.776  38.669   9.176
 2351POPC   GL131333   0.529  39.081   9.130
 2351POPC   GL231334   0.163  39.123   9.234
 2351POPC   C1A31335   0.374  39.416   8.839
 2351POPC   D2A31336   0.244  39.617   8.495
 2351POPC   C3A31337   0.324  39.330   8.186
 2351POPC   C4A31338   0.486  39.258   7.799
 2351POPC   C1B31339   0.061  38.991   8.792
 2351POPC   C2B31340   0.084  38.824   8.361
 2351POPC   C3B31341   0.111  38.927   7.936
 2351POPC   C4B31342   0.289  38.866   7.507
 2352POPC   NC331343  37.304  22.909   9.807
 2352POPC   PO431344  37.790  22.448   9.589
 2352POPC   GL131345  37.719  22.528   9.112
 2352POPC   GL231346  37.496  22.824   9.069
 2352POPC   C1A31347  37.845  22.689   8.687
 2352POPC   D2A31348  37.543  22.925   8.440
 2352POPC   C3A31349  37.739  22.950   8.055
 2352POPC   C4A31350  37.779  22.638   7.703
 2352POPC   C1B31351  37.314  23.179   8.845
 2352POPC   C2B31352  37.242  23.433   8.466
 2352POPC   C3B31353  37.321  23.334   8.030
 2352POPC   C4B31354  37.381  23.007   7.696
 2353POPC   NC331355  33.461  18.338   9.474
 2353POPC   PO431356  32.834  18.066   9.474
 2353POPC   GL131357  33.032  18.272   9.150
 2353POPC   GL231358  33.252  18.036   9.118
 2353POPC   C1A31359  33.225  18.414   8.753
 2353POPC   D2A31360  33.051  18.585   8.347
 2353POPC   C3A31361  33.126  18.358   7.932
 2353POPC   C4A31362  32.800  18.126   7.722
 2353POPC   C1B31363  33.375  17.906   8.747
 2353POPC   C2B31364  33.256  18.050   8.355
 2353POPC   C3B31365  33.289  17.870   7.966
 2353POPC   C4B31366  33.199  17.845   7.528
 2354POPC   NC331367  18.510  24.208   9.456
 2354POPC   PO431368  18.123  24.831   9.453
 2354POPC   GL131369  18.294  24.615   9.126
 2354POPC   GL231370  18.087  24.325   9.131
 2354POPC   C1A31371  18.173  24.591   8.695
 2354POPC   D2A31372  18.235  24.854   8.367
 2354POPC   C3A31373  18.419  24.633   8.066
 2354POPC   C4A31374  18.293  24.356   7.791
 2354POPC   C1B31375  18.253  24.071   8.775
 2354POPC   C2B31376  18.288  24.145   8.321
 2354POPC   C3B31377  18.019  23.967   7.992
 2354POPC   C4B31378  17.955  24.019   7.557
 2355POPC   NC331379   6.215  36.862   9.374
 2355POPC   PO431380   5.755  37.087   9.762
 2355POPC   GL131381   5.664  36.962   9.300
 2355POPC   GL231382   5.788  36.630   9.158
 2355POPC   C1A31383   5.649  36.984   8.822
 2355POPC   D2A31384   5.720  36.723   8.453
 2355POPC   C3A31385   5.544  36.781   8.076
 2355POPC   C4A31386   5.678  36.839   7.661
 2355POPC   C1B31387   6.106  36.666   8.782
 2355POPC   C2B31388   6.186  36.524   8.382
 2355POPC   C3B31389   6.051  36.752   8.024
 2355POPC   C4B31390   6.219  36.897   7.655
 2356POPC   NC331391  24.936   3.366   9.574
 2356POPC   PO431392  24.356   3.701   9.490
 2356POPC   GL131393  24.406   3.586   9.107
 2356POPC   GL231394  24.747   3.610   9.147
 2356POPC   C1A31395  24.217   3.695   8.738
 2356POPC   D2A31396  24.416   3.573   8.374
 2356POPC   C3A31397  24.385   3.769   7.989
 2356POPC   C4A31398  24.662   3.918   7.695
 2356POPC   C1B31399  24.807   3.284   8.856
 2356POPC   C2B31400  24.856   3.260   8.429
 2356POPC   C3B31401  24.826   3.491   8.054
 2356POPC   C4B31402  24.651   3.418   7.673
 2357POPC   NC331403  14.145   7.858   9.622
 2357POPC   PO431404  14.781   7.787   9.455
 2357POPC   GL131405  14.475   7.637   9.167
 2357POPC   GL231406  14.107   7.573   9.186
 2357POPC   C1A31407  14.495   7.452   8.769
 2357POPC   D2A31408  14.503   7.250   8.360
 2357POPC   C3A31409  14.525   7.483   7.986
 2357POPC   C4A31410  14.639   7.465   7.533
 2357POPC   C1B31411  14.104   7.795   8.811
 2357POPC   C2B31412  14.251   7.706   8.404
 2357POPC   C3B31413  14.060   7.696   8.027
 2357POPC   C4B31414  14.154   7.581   7.651
 2358POPC   NC331415   8.394  38.189   9.468
 2358POPC   PO431416   7.810  38.604   9.503
 2358POPC   GL131417   8.087  38.441   9.146
 2358POPC   GL231418   8.477  38.534   9.095
 2358POPC   C1A31419   8.154  38.194   8.753
 2358POPC   D2A31420   7.916  38.194   8.350
 2358POPC   C3A31421   8.024  38.420   8.009
 2358POPC   C4A31422   7.795  38.769   7.893
 2358POPC   C1B31423   8.671  38.224   8.793
 2358POPC   C2B31424   8.537  38.106   8.355
 2358POPC   C3B31425   8.514  38.284   7.917
 2358POPC   C4B31426   8.303  38.607   7.604
 2359POPC   NC331427  37.081  34.388   9.454
 2359POPC   PO431428  36.546  34.785   9.411
 2359POPC   GL131429  36.675  34.576   9.029
 2359POPC   GL231430  37.033  34.570   8.983
 2359POPC   C1A31431  36.684  34.393   8.602
 2359POPC   D2A31432  37.008  34.411   8.272
 2359POPC   C3A31433  36.945  34.344   7.807
 2359POPC   C4A31434  36.684  34.426   7.423
 2359POPC   C1B31435  37.378  34.728   8.737
 2359POPC   C2B31436  37.445  34.684   8.296
 2359POPC   C3B31437  37.137  34.826   7.993
 2359POPC   C4B31438  36.997  34.826   7.584
 2360POPC   NC331439  15.605  30.397   9.564
 2360POPC   PO431440  15.081  30.870   9.476
 2360POPC   GL131441  15.187  30.701   9.129
 2360POPC   GL231442  15.398  30.947   9.036
 2360POPC   C1A31443  15.311  30.543   8.729
 2360POPC   D2A31444  15.349  30.787   8.336
 2360POPC   C3A31445  15.297  30.497   8.003
 2360POPC   C4A31446  15.387  30.221   7.678
 2360POPC   C1B31447  15.050  31.011   8.732
 2360POPC   C2B31448  14.816  31.032   8.365
 2360POPC   C3B31449  14.886  30.806   7.980
 2360POPC   C4B31450  15.209  30.851   7.649
 2361POPC   NC331451  20.606  18.473   9.340
 2361POPC   PO431452  20.593  17.862   9.360
 2361POPC   GL131453  20.647  18.067   9.054
 2361POPC   GL231454  20.308  18.164   9.033
 2361POPC   C1A31455  20.694  18.310   8.693
 2361POPC   D2A31456  20.925  18.479   8.346
 2361POPC   C3A31457  20.608  18.393   8.038
 2361POPC   C4A31458  20.609  18.367   7.620
 2361POPC   C1B31459  20.359  17.853   8.687
 2361POPC   C2B31460  20.242  17.811   8.249
 2361POPC   C3B31461  20.397  17.942   7.837
 2361POPC   C4B31462  20.363  17.971   7.393
 2362POPC   NC331463   2.779  17.185   9.320
 2362POPC   PO431464   2.522  16.515   9.446
 2362POPC   GL131465   2.633  16.732   9.116
 2362POPC   GL231466   2.988  16.709   9.219
 2362POPC   C1A31467   2.479  16.646   8.717
 2362POPC   D2A31468   2.686  16.362   8.445
 2362POPC   C3A31469   2.632  16.458   8.027
 2362POPC   C4A31470   2.423  16.485   7.649
 2362POPC   C1B31471   3.016  16.570   8.801
 2362POPC   C2B31472   2.909  16.847   8.483
 2362POPC   C3B31473   2.854  17.081   8.130
 2362POPC   C4B31474   2.687  16.933   7.744
 2363POPC   NC331475  21.196  15.701   9.433
 2363POPC   PO431476  21.436  15.065   9.455
 2363POPC   GL131477  21.311  15.250   9.076
 2363POPC   GL231478  21.436  15.574   9.014
 2363POPC   C1A31479  21.158  15.305   8.639
 2363POPC   D2A31480  21.007  15.379   8.220
 2363POPC   C3A31481  21.149  15.029   8.043
 2363POPC   C4A31482  21.381  14.910   7.695
 2363POPC   C1B31483  21.664  15.347   8.704
 2363POPC   C2B31484  21.630  15.131   8.330
 2363POPC   C3B31485  21.573  15.314   7.948
 2363POPC   C4B31486  21.823  15.581   7.724
 2364POPC   NC331487  14.443  21.085   9.560
 2364POPC   PO431488  14.607  21.733   9.421
 2364POPC   GL131489  14.444  21.424   9.169
 2364POPC   GL231490  14.124  21.572   9.100
 2364POPC   C1A31491  14.312  21.202   8.803
 2364POPC   D2A31492  14.176  21.406   8.434
 2364POPC   C3A31493  14.298  21.229   8.051
 2364POPC   C4A31494  14.398  21.211   7.649
 2364POPC   C1B31495  14.420  21.764   8.777
 2364POPC   C2B31496  14.447  21.876   8.339
 2364POPC   C3B31497  14.514  21.677   7.937
 2364POPC   C4B31498  14.687  21.604   7.522
 2365POPC   NC331499  39.811  21.114   9.772
 2365POPC   PO431500  39.750  20.520   9.429
 2365POPC   GL131501  40.080  20.556   9.132
 2365POPC   GL231502  40.205  20.220   8.989
 2365POPC   C1A31503  40.053  20.740   8.746
 2365POPC   D2A31504  39.826  20.549   8.409
 2365POPC   C3A31505  39.816  20.787   8.037
 2365POPC   C4A31506  39.585  20.883   7.678
 2365POPC   C1B31507  40.348  20.361   8.578
 2365POPC   C2B31508  40.292  20.722   8.258
 2365POPC   C3B31509  40.321  20.797   7.797
 2365POPC   C4B31510  40.396  20.526   7.399
 2366POPC   NC331511  28.162  43.351   9.452
 2366POPC   PO431512  28.636  42.899   9.306
 2366POPC   GL131513  28.516  43.218   9.061
 2366POPC   GL231514  28.203  43.054   9.037
 2366POPC   C1A31515  28.561  43.095   8.650
 2366POPC   D2A31516  28.516  43.204   8.255
 2366POPC   C3A31517  28.325  42.862   8.021
 2366POPC   C4A31518  28.487  42.932   7.619
 2366POPC   C1B31519  28.132  43.387   8.726
 2366POPC   C2B31520  28.020  43.305   8.293
 2366POPC   C3B31521  28.190  43.321   7.854
 2366POPC   C4B31522  28.008  43.558   7.526
 2367POPC   NC331523   2.252  13.753   9.402
 2367POPC   PO431524   1.527  13.954   9.445
 2367POPC   GL131525   1.828  13.890   9.115
 2367POPC   GL231526   1.857  13.521   9.062
 2367POPC   C1A31527   2.109  13.871   8.737
 2367POPC   D2A31528   2.162  13.703   8.334
 2367POPC   C3A31529   1.868  13.431   8.139
 2367POPC   C4A31530   1.844  13.438   7.696
 2367POPC   C1B31531   2.028  13.271   8.689
 2367POPC   C2B31532   2.306  13.204   8.328
 2367POPC   C3B31533   2.334  13.414   7.928
 2367POPC   C4B31534   2.301  13.217   7.539
 2368POPC   NC331535  24.840  20.847   9.475
 2368POPC   PO431536  24.232  20.515   9.492
 2368POPC   GL131537  24.396  20.389   9.096
 2368POPC   GL231538  24.766  20.362   9.136
 2368POPC   C1A31539  24.313  20.694   8.772
 2368POPC   D2A31540  24.508  20.801   8.384
 2368POPC   C3A31541  24.415  20.579   8.017
 2368POPC   C4A31542  24.069  20.562   7.784
 2368POPC   C1B31543  24.842  20.659   8.782
 2368POPC   C2B31544  24.989  20.928   8.405
 2368POPC   C3B31545  24.845  20.856   7.986
 2368POPC   C4B31546  24.848  20.544   7.703
 2369POPC   NC331547  11.725  19.731   9.453
 2369POPC   PO431548  11.050  19.933   9.534
 2369POPC   GL131549  11.132  19.930   9.109
 2369POPC   GL231550  11.376  19.666   9.059
 2369POPC   C1A31551  10.989  19.760   8.721
 2369POPC   D2A31552  11.229  19.550   8.450
 2369POPC   C3A31553  11.164  19.664   8.052
 2369POPC   C4A31554  11.156  19.936   7.730
 2369POPC   C1B31555  11.493  19.920   8.683
 2369POPC   C2B31556  11.584  20.099   8.253
 2369POPC   C3B31557  11.641  19.867   7.872
 2369POPC   C4B31558  11.534  19.437   7.785
 2370POPC   NC331559   6.031   4.026   9.321
 2370POPC   PO431560   5.558   4.555   9.509
 2370POPC   GL131561   5.618   4.311   9.151
 2370POPC   GL231562   5.450   4.571   9.001
 2370POPC   C1A31563   5.919   4.425   8.797
 2370POPC   D2A31564   5.914   4.392   8.358
 2370POPC   C3A31565   5.933   4.595   7.959
 2370POPC   C4A31566   5.956   4.274   7.643
 2370POPC   C1B31567   5.446   4.416   8.618
 2370POPC   C2B31568   5.451   4.511   8.223
 2370POPC   C3B31569   5.583   4.241   7.969
 2370POPC   C4B31570   5.443   4.109   7.582
 2371POPC   NC331571  12.018  22.430   9.980
 2371POPC   PO431572  12.231  22.069   9.456
 2371POPC   GL131573  12.111  21.869   9.076
 2371POPC   GL231574  11.771  21.969   9.116
 2371POPC   C1A31575  12.154  21.956   8.636
 2371POPC   D2A31576  12.132  22.273   8.313
 2371POPC   C3A31577  12.285  22.082   7.950
 2371POPC   C4A31578  12.405  22.274   7.544
 2371POPC   C1B31579  11.759  22.272   8.765
 2371POPC   C2B31580  11.656  22.113   8.355
 2371POPC   C3B31581  11.757  22.188   7.911
 2371POPC   C4B31582  11.590  21.973   7.549
 2372POPC   NC331583  34.445  16.965   9.551
 2372POPC   PO431584  34.549  17.780   9.549
 2372POPC   GL131585  34.528  17.594   9.165
 2372POPC   GL231586  34.599  17.250   9.158
 2372POPC   C1A31587  34.593  17.550   8.731
 2372POPC   D2A31588  34.813  17.828   8.507
 2372POPC   C3A31589  34.688  17.724   8.116
 2372POPC   C4A31590  34.652  17.706   7.714
 2372POPC   C1B31591  34.816  17.112   8.767
 2372POPC   C2B31592  34.701  17.229   8.308
 2372POPC   C3B31593  34.955  17.306   7.917
 2372POPC   C4B31594  34.945  17.382   7.427
 2373POPC   NC331595   8.029  27.115   9.407
 2373POPC   PO431596   8.394  26.567   9.541
 2373POPC   GL131597   8.194  26.685   9.134
 2373POPC   GL231598   8.408  26.988   9.091
 2373POPC   C1A31599   7.900  26.900   8.780
 2373POPC   D2A31600   7.883  27.171   8.389
 2373POPC   C3A31601   7.888  26.974   7.972
 2373POPC   C4A31602   8.080  26.588   7.828
 2373POPC   C1B31603   8.378  26.829   8.678
 2373POPC   C2B31604   8.217  26.787   8.322
 2373POPC   C3B31605   8.490  26.864   8.048
 2373POPC   C4B31606   8.501  26.855   7.676
 2374POPC   NC331607   7.788  38.963   9.786
 2374POPC   PO431608   8.315  39.322   9.983
 2374POPC   GL131609   8.210  39.280   9.462
 2374POPC   GL231610   7.976  39.028   9.262
 2374POPC   C1A31611   8.310  39.297   8.960
 2374POPC   D2A31612   8.206  39.199   8.473
 2374POPC   C3A31613   8.251  39.492   8.095
 2374POPC   C4A31614   8.361  39.503   7.615
 2374POPC   C1B31615   8.031  38.829   8.822
 2374POPC   C2B31616   8.242  38.617   8.458
 2374POPC   C3B31617   8.423  38.787   8.074
 2374POPC   C4B31618   8.191  39.068   7.795
 2375POPC   NC331619  41.163  27.735   9.472
 2375POPC   PO431620  40.523  27.525   9.398
 2375POPC   GL131621  40.835  27.597   9.108
 2375POPC   GL231622  40.965  27.252   9.194
 2375POPC   C1A31623  40.885  27.901   8.753
 2375POPC   D2A31624  40.658  27.889   8.362
 2375POPC   C3A31625  40.850  27.943   7.971
 2375POPC   C4A31626  40.812  27.784   7.555
 2375POPC   C1B31627  40.814  27.224   8.758
 2375POPC   C2B31628  40.820  27.400   8.344
 2375POPC   C3B31629  40.696  27.459   7.924
 2375POPC   C4B31630  40.950  27.241   7.589
 2376POPC   NC331631   5.668  34.331   9.803
 2376POPC   PO431632   5.983  33.791   9.488
 2376POPC   GL131633   5.985  33.587   9.121
 2376POPC   GL231634   5.657  33.631   9.085
 2376POPC   C1A31635   6.120  33.644   8.722
 2376POPC   D2A31636   5.987  33.875   8.350
 2376POPC   C3A31637   6.127  33.751   7.955
 2376POPC   C4A31638   6.011  34.015   7.636
 2376POPC   C1B31639   5.647  33.869   8.735
 2376POPC   C2B31640   5.429  33.936   8.389
 2376POPC   C3B31641   5.584  33.963   8.016
 2376POPC   C4B31642   5.639  33.692   7.749
 2377POPC   NC331643  40.083   1.335   9.713
 2377POPC   PO431644  39.568   1.101   9.357
 2377POPC   GL131645  39.348   1.042   9.031
 2377POPC   GL231646  39.459   0.721   8.929
 2377POPC   C1A31647  39.255   1.341   8.726
 2377POPC   D2A31648  39.417   1.453   8.333
 2377POPC   C3A31649  39.098   1.548   8.041
 2377POPC   C4A31650  39.013   1.368   7.652
 2377POPC   C1B31651  39.331   0.886   8.520
 2377POPC   C2B31652  39.057   1.033   8.194
 2377POPC   C3B31653  38.997   0.893   7.788
 2377POPC   C4B31654  39.344   0.847   7.494
 2378POPC   NC331655   8.523  21.549   9.466
 2378POPC   PO431656   7.803  21.566   9.617
 2378POPC   GL131657   7.823  21.434   9.129
 2378POPC   GL231658   8.036  21.154   9.106
 2378POPC   C1A31659   8.005  21.447   8.668
 2378POPC   D2A31660   8.286  21.580   8.290
 2378POPC   C3A31661   8.131  21.461   7.868
 2378POPC   C4A31662   8.157  21.306   7.441
 2378POPC   C1B31663   8.212  20.926   8.737
 2378POPC   C2B31664   8.216  21.043   8.290
 2378POPC   C3B31665   7.951  20.990   7.924
 2378POPC   C4B31666   7.892  20.836   7.506
 2379POPC   NC331667  32.044  10.452   9.477
 2379POPC   PO431668  32.188  11.082   9.660
 2379POPC   GL131669  32.247  10.865   9.214
 2379POPC   GL231670  32.468  10.559   9.183
 2379POPC   C1A31671  32.114  10.688   8.805
 2379POPC   D2A31672  32.053  10.448   8.393
 2379POPC   C3A31673  32.097  10.570   7.938
 2379POPC   C4A31674  32.402  10.640   7.577
 2379POPC   C1B31675  32.372  10.260   8.823
 2379POPC   C2B31676  32.498  10.185   8.384
 2379POPC   C3B31677  32.521  10.269   7.960
 2379POPC   C4B31678  32.217  10.127   7.722
 2380POPC   NC331679  39.668  29.517   9.609
 2380POPC   PO431680  40.053  29.966   9.479
 2380POPC   GL131681  40.009  29.809   9.102
 2380POPC   GL231682  39.763  29.589   9.110
 2380POPC   C1A31683  39.946  29.873   8.693
 2380POPC   D2A31684  39.975  30.057   8.321
 2380POPC   C3A31685  40.113  29.737   8.053
 2380POPC   C4A31686  40.012  29.952   7.678
 2380POPC   C1B31687  39.475  29.699   8.807
 2380POPC   C2B31688  39.538  29.764   8.402
 2380POPC   C3B31689  39.605  29.840   8.014
 2380POPC   C4B31690  39.585  29.667   7.664
 2381POPC   NC331691  12.902  34.912   9.641
 2381POPC   PO431692  12.349  35.324   9.642
 2381POPC   GL131693  12.639  35.146   9.256
 2381POPC   GL231694  13.019  35.128   9.206
 2381POPC   C1A31695  12.756  35.280   8.806
 2381POPC   D2A31696  12.779  35.060   8.428
 2381POPC   C3A31697  12.876  35.276   8.067
 2381POPC   C4A31698  13.022  35.109   7.692
 2381POPC   C1B31699  13.260  35.282   8.862
 2381POPC   C2B31700  13.175  35.522   8.479
 2381POPC   C3B31701  13.294  35.572   8.042
 2381POPC   C4B31702  13.075  35.624   7.673
 2382POPC   NC331703  10.331  18.596   9.448
 2382POPC   PO431704  10.723  19.111   9.416
 2382POPC   GL131705  10.531  19.190   9.036
 2382POPC   GL231706  10.267  18.980   9.106
 2382POPC   C1A31707  10.528  19.148   8.578
 2382POPC   D2A31708  10.764  19.392   8.278
 2382POPC   C3A31709  10.634  19.189   7.960
 2382POPC   C4A31710  10.618  18.888   7.689
 2382POPC   C1B31711  10.101  18.823   8.733
 2382POPC   C2B31712  10.191  18.763   8.308
 2382POPC   C3B31713   9.937  18.647   7.944
 2382POPC   C4B31714  10.146  18.786   7.556
 2383POPC   NC331715   1.283   3.841   9.612
 2383POPC   PO431716   1.447   3.195   9.401
 2383POPC   GL131717   1.197   3.374   9.068
 2383POPC   GL231718   1.141   3.697   9.129
 2383POPC   C1A31719   1.279   3.511   8.654
 2383POPC   D2A31720   1.203   3.270   8.276
 2383POPC   C3A31721   0.961   3.422   7.967
 2383POPC   C4A31722   1.275   3.666   7.806
 2383POPC   C1B31723   0.883   3.849   8.806
 2383POPC   C2B31724   0.907   3.737   8.388
 2383POPC   C3B31725   0.857   3.931   8.021
 2383POPC   C4B31726   0.856   3.890   7.588
 2384POPC   NC331727  15.487  23.137   9.444
 2384POPC   PO431728  14.816  22.946   9.539
 2384POPC   GL131729  15.048  22.913   9.188
 2384POPC   GL231730  15.184  22.586   9.217
 2384POPC   C1A31731  15.274  22.908   8.811
 2384POPC   D2A31732  15.362  23.010   8.405
 2384POPC   C3A31733  15.097  22.925   8.064
 2384POPC   C4A31734  15.215  23.223   7.777
 2384POPC   C1B31735  15.003  22.476   8.801
 2384POPC   C2B31736  15.212  22.473   8.370
 2384POPC   C3B31737  15.526  22.649   8.045
 2384POPC   C4B31738  15.440  22.782   7.609
 2385POPC   NC331739  21.750  24.583   9.537
 2385POPC   PO431740  22.210  24.082   9.558
 2385POPC   GL131741  22.073  24.280   9.158
 2385POPC   GL231742  21.924  24.613   9.065
 2385POPC   C1A31743  22.280  24.414   8.771
 2385POPC   D2A31744  22.272  24.636   8.388
 2385POPC   C3A31745  22.131  24.423   8.045
 2385POPC   C4A31746  22.201  24.533   7.652
 2385POPC   C1B31747  21.917  24.846   8.705
 2385POPC   C2B31748  21.769  24.766   8.285
 2385POPC   C3B31749  21.810  24.784   7.838
 2385POPC   C4B31750  21.741  24.688   7.352
 2386POPC   NC331751  43.248   2.437   9.457
 2386POPC   PO431752  43.199   3.112   9.633
 2386POPC   GL131753  43.111   2.907   9.254
 2386POPC   GL231754  43.427   2.862   9.105
 2386POPC   C1A31755  43.000   2.881   8.813
 2386POPC   D2A31756  43.171   2.850   8.404
 2386POPC   C3A31757  42.873   2.914   8.073
 2386POPC   C4A31758  42.955   2.869   7.672
 2386POPC   C1B31759  43.435   2.576   8.749
 2386POPC   C2B31760  43.411   2.403   8.327
 2386POPC   C3B31761  43.376   2.688   7.970
 2386POPC   C4B31762  43.252   2.456   7.691
 2387POPC   NC331763  41.424  21.264   9.495
 2387POPC   PO431764  41.986  20.897   9.525
 2387POPC   GL131765  41.761  21.091   9.171
 2387POPC   GL231766  41.737  21.479   9.138
 2387POPC   C1A31767  41.561  21.090   8.788
 2387POPC   D2A31768  41.736  20.862   8.470
 2387POPC   C3A31769  41.600  21.021   8.102
 2387POPC   C4A31770  41.766  21.343   7.870
 2387POPC   C1B31771  41.654  21.702   8.749
 2387POPC   C2B31772  41.575  21.628   8.323
 2387POPC   C3B31773  41.651  21.830   7.941
 2387POPC   C4B31774  41.452  21.670   7.592
 2388POPC   NC331775  28.146  19.770   9.520
 2388POPC   PO431776  28.628  19.252   9.390
 2388POPC   GL131777  28.403  19.596   9.074
 2388POPC   GL231778  28.078  19.818   9.043
 2388POPC   C1A31779  28.414  19.841   8.674
 2388POPC   D2A31780  28.495  19.666   8.268
 2388POPC   C3A31781  28.315  19.860   7.935
 2388POPC   C4A31782  28.366  19.959   7.535
 2388POPC   C1B31783  27.951  19.591   8.706
 2388POPC   C2B31784  27.729  19.724   8.363
 2388POPC   C3B31785  27.830  19.703   7.935
 2388POPC   C4B31786  27.937  19.694   7.479
 2389POPC   NC331787  41.738   1.249   9.659
 2389POPC   PO431788  41.114   0.974   9.480
 2389POPC   GL131789  41.330   1.169   9.125
 2389POPC   GL231790  41.692   1.226   9.138
 2389POPC   C1A31791  41.413   1.254   8.673
 2389POPC   D2A31792  41.736   1.122   8.357
 2389POPC   C3A31793  41.531   1.083   7.979
 2389POPC   C4A31794  41.184   1.276   7.811
 2389POPC   C1B31795  41.878   1.429   8.765
 2389POPC   C2B31796  41.769   1.627   8.343
 2389POPC   C3B31797  41.812   1.494   7.909
 2389POPC   C4B31798  42.005   1.367   7.484
 2390POPC   NC331799  33.340  38.721   9.422
 2390POPC   PO431800  32.864  38.315   9.647
 2390POPC   GL131801  33.049  38.325   9.275
 2390POPC   GL231802  32.867  38.617   9.199
 2390POPC   C1A31803  33.013  38.199   8.853
 2390POPC   D2A31804  33.262  38.284   8.515
 2390POPC   C3A31805  33.153  38.249   8.073
 2390POPC   C4A31806  33.414  38.173   7.718
 2390POPC   C1B31807  32.976  38.713   8.785
 2390POPC   C2B31808  32.841  38.569   8.380
 2390POPC   C3B31809  33.010  38.737   7.984
 2390POPC   C4B31810  32.927  38.530   7.616
 2391POPC   NC331811  34.840  41.587   9.486
 2391POPC   PO431812  34.171  41.710   9.650
 2391POPC   GL131813  34.400  41.663   9.240
 2391POPC   GL231814  34.552  41.321   9.162
 2391POPC   C1A31815  34.455  41.667   8.792
 2391POPC   D2A31816  34.222  41.601   8.419
 2391POPC   C3A31817  34.421  41.498   8.016
 2391POPC   C4A31818  34.751  41.762   7.789
 2391POPC   C1B31819  34.843  41.299   8.834
 2391POPC   C2B31820  34.945  41.534   8.467
 2391POPC   C3B31821  35.026  41.414   8.049
 2391POPC   C4B31822  34.783  41.229   7.745
 2392POPC   NC331823  21.858   2.421   9.279
 2392POPC   PO431824  22.259   2.864   9.546
 2392POPC   GL131825  22.281   2.757   9.134
 2392POPC   GL231826  22.363   2.431   9.139
 2392POPC   C1A31827  22.284   2.854   8.709
 2392POPC   D2A31828  22.454   2.730   8.305
 2392POPC   C3A31829  22.232   3.002   8.041
 2392POPC   C4A31830  22.066   3.043   7.645
 2392POPC   C1B31831  22.220   2.346   8.727
 2392POPC   C2B31832  21.987   2.493   8.357
 2392POPC   C3B31833  22.121   2.492   7.920
 2392POPC   C4B31834  22.191   2.446   7.454
 2393POPC   NC331835  29.217   2.276   9.467
 2393POPC   PO431836  29.208   1.664   9.340
 2393POPC   GL131837  29.257   1.940   9.033
 2393POPC   GL231838  28.948   2.062   9.080
 2393POPC   C1A31839  29.178   1.950   8.604
 2393POPC   D2A31840  29.201   1.730   8.222
 2393POPC   C3A31841  29.329   1.949   7.885
 2393POPC   C4A31842  29.406   1.909   7.479
 2393POPC   C1B31843  28.651   2.151   8.797
 2393POPC   C2B31844  28.684   1.982   8.404
 2393POPC   C3B31845  28.844   2.086   8.015
 2393POPC   C4B31846  28.962   2.151   7.588
 2394POPC   NC331847  25.236  12.681   9.443
 2394POPC   PO431848  24.608  12.716   9.473
 2394POPC   GL131849  24.923  12.602   9.051
 2394POPC   GL231850  25.331  12.734   8.975
 2394POPC   C1A31851  25.031  12.677   8.601
 2394POPC   D2A31852  25.359  12.772   8.319
 2394POPC   C3A31853  25.239  12.802   7.887
 2394POPC   C4A31854  25.231  13.101   7.538
 2394POPC   C1B31855  25.668  12.647   8.749
 2394POPC   C2B31856  25.723  12.418   8.385
 2394POPC   C3B31857  25.741  12.634   7.971
 2394POPC   C4B31858  25.548  12.591   7.540
 2395POPC   NC331859  14.014   1.971   9.217
 2395POPC   PO431860  14.620   1.909   9.552
 2395POPC   GL131861  14.505   1.955   9.107
 2395POPC   GL231862  14.427   1.617   9.061
 2395POPC   C1A31863  14.487   2.207   8.702
 2395POPC   D2A31864  14.272   2.163   8.272
 2395POPC   C3A31865  14.504   2.089   7.886
 2395POPC   C4A31866  14.497   2.071   7.390
 2395POPC   C1B31867  14.375   1.725   8.622
 2395POPC   C2B31868  14.051   1.694   8.333
 2395POPC   C3B31869  14.125   1.701   7.915
 2395POPC   C4B31870  13.801   1.607   7.652
 2396POPC   NC331871  27.736  31.921   9.583
 2396POPC   PO431872  27.446  32.532   9.535
 2396POPC   GL131873  27.527  32.200   9.210
 2396POPC   GL231874  27.558  32.471   9.029
 2396POPC   C1A31875  27.609  32.009   8.791
 2396POPC   D2A31876  27.808  32.152   8.397
 2396POPC   C3A31877  27.669  32.018   8.019
 2396POPC   C4A31878  27.607  32.249   7.680
 2396POPC   C1B31879  27.484  32.486   8.588
 2396POPC   C2B31880  27.486  32.494   8.140
 2396POPC   C3B31881  27.210  32.514   7.803
 2396POPC   C4B31882  26.818  32.612   7.718
 2397POPC   NC331883   5.680  24.955   9.480
 2397POPC   PO431884   6.214  25.304   9.423
 2397POPC   GL131885   5.906  25.279   9.115
 2397POPC   GL231886   5.528  25.322   9.139
 2397POPC   C1A31887   5.858  25.405   8.723
 2397POPC   D2A31888   5.736  25.548   8.360
 2397POPC   C3A31889   5.833  25.359   7.990
 2397POPC   C4A31890   5.593  25.379   7.711
 2397POPC   C1B31891   5.587  24.983   8.819
 2397POPC   C2B31892   5.716  25.040   8.390
 2397POPC   C3B31893   5.562  24.914   7.984
 2397POPC   C4B31894   5.803  24.870   7.624
 2398POPC   NC331895   3.289  13.878   9.494
 2398POPC   PO431896   2.649  13.580   9.569
 2398POPC   GL131897   2.690  13.614   9.143
 2398POPC   GL231898   3.028  13.653   9.111
 2398POPC   C1A31899   2.738  13.398   8.759
 2398POPC   D2A31900   2.656  13.575   8.370
 2398POPC   C3A31901   2.835  13.481   8.005
 2398POPC   C4A31902   2.703  13.524   7.575
 2398POPC   C1B31903   3.151  13.814   8.738
 2398POPC   C2B31904   3.042  13.927   8.304
 2398POPC   C3B31905   3.111  13.875   7.844
 2398POPC   C4B31906   3.204  13.455   7.593
 2399POPC   NC331907  33.337  22.562   9.700
 2399POPC   PO431908  33.853  22.860   9.454
 2399POPC   GL131909  33.592  22.994   9.147
 2399POPC   GL231910  33.415  22.724   9.167
 2399POPC   C1A31911  33.748  23.062   8.741
 2399POPC   D2A31912  33.906  23.287   8.369
 2399POPC   C3A31913  33.721  23.139   7.989
 2399POPC   C4A31914  33.844  22.925   7.629
 2399POPC   C1B31915  33.505  22.557   8.759
 2399POPC   C2B31916  33.594  22.761   8.377
 2399POPC   C3B31917  33.691  22.618   7.997
 2399POPC   C4B31918  33.419  22.615   7.636
 2400POPC   NC331919  33.616  25.081   9.468
 2400POPC   PO431920  34.316  25.479   9.582
 2400POPC   GL131921  34.021  25.393   9.205
 2400POPC   GL231922  33.665  25.480   9.145
 2400POPC   C1A31923  34.007  25.579   8.763
 2400POPC   D2A31924  33.766  25.497   8.410
 2400POPC   C3A31925  33.889  25.099   8.223
 2400POPC   C4A31926  33.830  25.184   7.808
 2400POPC   C1B31927  33.761  25.136   8.807
 2400POPC   C2B31928  33.477  24.977   8.504
 2400POPC   C3B31929  33.402  25.177   8.108
 2400POPC   C4B31930  33.347  25.035   7.684
 2401POPC   NC331931   3.325  12.080   9.594
 2401POPC   PO431932   3.822  12.169   9.219
 2401POPC   GL131933   3.454  12.087   9.077
 2401POPC   GL231934   3.346  12.415   9.187
 2401POPC   C1A31935   3.466  12.126   8.642
 2401POPC   D2A31936   3.287  11.975   8.277
 2401POPC   C3A31937   3.568  12.067   7.939
 2401POPC   C4A31938   3.913  11.809   7.765
 2401POPC   C1B31939   3.126  12.464   8.812
 2401POPC   C2B31940   3.332  12.561   8.419
 2401POPC   C3B31941   3.189  12.461   8.031
 2401POPC   C4B31942   3.259  12.338   7.654
 2402POPC   NC331943   3.046  39.069   9.503
 2402POPC   PO431944   2.774  39.657   9.556
 2402POPC   GL131945   2.739  39.348   9.175
 2402POPC   GL231946   2.632  38.953   9.221
 2402POPC   C1A31947   2.545  39.470   8.743
 2402POPC   D2A31948   2.404  39.603   8.310
 2402POPC   C3A31949   2.638  39.412   7.972
 2402POPC   C4A31950   2.641  39.263   7.555
 2402POPC   C1B31951   2.921  38.947   8.843
 2402POPC   C2B31952   2.890  38.779   8.424
 2402POPC   C3B31953   2.796  38.915   7.994
 2402POPC   C4B31954   3.052  38.994   7.611
 2403POPC   NC331955  11.688  38.772   9.511
 2403POPC   PO431956  10.987  38.675   9.436
 2403POPC   GL131957  11.301  38.637   9.123
 2403POPC   GL231958  11.545  38.347   9.185
 2403POPC   C1A31959  11.229  38.856   8.711
 2403POPC   D2A31960  11.351  39.070   8.315
 2403POPC   C3A31961  11.229  38.864   7.917
 2403POPC   C4A31962  11.252  38.628   7.486
 2403POPC   C1B31963  11.566  38.439   8.725
 2403POPC   C2B31964  11.435  38.565   8.306
 2403POPC   C3B31965  11.540  38.427   7.912
 2403POPC   C4B31966  11.540  37.991   7.936
 2404POPC   NC331967  31.938  33.853   9.420
 2404POPC   PO431968  32.482  33.561   9.530
 2404POPC   GL131969  32.372  33.693   9.128
 2404POPC   GL231970  32.527  34.032   9.185
 2404POPC   C1A31971  32.002  33.666   8.806
 2404POPC   D2A31972  31.900  33.911   8.450
 2404POPC   C3A31973  32.142  33.633   8.145
 2404POPC   C4A31974  32.061  33.715   7.729
 2404POPC   C1B31975  32.263  34.113   8.849
 2404POPC   C2B31976  32.403  33.932   8.479
 2404POPC   C3B31977  32.350  34.082   8.058
 2404POPC   C4B31978  32.472  34.062   7.670
 2405POPC   NC331979  44.109   8.480   9.580
 2405POPC   PO431980  43.414   8.274   9.618
 2405POPC   GL131981  43.571   8.375   9.217
 2405POPC   GL231982  43.874   8.176   9.211
 2405POPC   C1A31983  43.539   8.188   8.777
 2405POPC   D2A31984  43.716   8.376   8.417
 2405POPC   C3A31985  43.668   8.182   8.058
 2405POPC   C4A31986  43.612   8.255   7.657
 2405POPC   C1B31987  44.050   8.294   8.825
 2405POPC   C2B31988  44.184   8.150   8.448
 2405POPC   C3B31989  44.152   8.311   8.054
 2405POPC   C4B31990  44.167   8.166   7.662
 2406POPC   NC331991  14.188  35.142   9.314
 2406POPC   PO431992  14.684  35.575   9.429
 2406POPC   GL131993  14.580  35.365   9.080
 2406POPC   GL231994  14.297  35.600   9.032
 2406POPC   C1A31995  14.607  35.222   8.679
 2406POPC   D2A31996  14.557  35.435   8.333
 2406POPC   C3A31997  14.493  35.182   7.988
 2406POPC   C4A31998  14.309  35.529   7.793
 2406POPC   C1B31999  14.115  35.413   8.696
 2406POPC   C2B32000  14.144  35.097   8.417
 2406POPC   C3B32001  13.985  35.103   8.036
 2406POPC   C4B32002  13.976  35.209   7.607
 2407POPC   NC332003  41.017   6.152   9.316
 2407POPC   PO432004  41.527   6.634   9.513
 2407POPC   GL132005  41.376   6.473   9.163
 2407POPC   GL232006  41.095   6.634   9.149
 2407POPC   C1A32007  41.387   6.299   8.734
 2407POPC   D2A32008  41.592   6.559   8.435
 2407POPC   C3A32009  41.563   6.493   7.998
 2407POPC   C4A32010  41.899   6.714   7.747
 2407POPC   C1B32011  41.225   6.803   8.771
 2407POPC   C2B32012  41.224   7.015   8.395
 2407POPC   C3B32013  41.472   6.999   8.057
 2407POPC   C4B32014  41.352   6.866   7.654
 2408POPC   NC332015   4.543  14.985   9.539
 2408POPC   PO432016   4.181  15.603   9.469
 2408POPC   GL132017   4.397  15.335   9.195
 2408POPC   GL232018   4.144  15.090   9.232
 2408POPC   C1A32019   4.506  15.189   8.790
 2408POPC   D2A32020   4.271  15.225   8.392
 2408POPC   C3A32021   4.461  15.323   7.982
 2408POPC   C4A32022   4.517  15.060   7.625
 2408POPC   C1B32023   4.135  14.843   8.867
 2408POPC   C2B32024   4.324  14.743   8.501
 2408POPC   C3B32025   4.366  14.788   8.073
 2408POPC   C4B32026   4.031  14.918   7.795
 2409POPC   NC332027   1.556   5.881   9.518
 2409POPC   PO432028   2.266   5.746   9.501
 2409POPC   GL132029   2.118   5.953   9.167
 2409POPC   GL232030   1.780   5.969   9.069
 2409POPC   C1A32031   2.263   6.029   8.753
 2409POPC   D2A32032   2.261   6.239   8.346
 2409POPC   C3A32033   2.183   5.958   7.996
 2409POPC   C4A32034   2.389   5.799   7.639
 2409POPC   C1B32035   1.953   5.593   8.838
 2409POPC   C2B32036   2.042   5.599   8.386
 2409POPC   C3B32037   1.807   5.592   7.999
 2409POPC   C4B32038   1.775   5.946   7.669
 2410POPC   NC332039  24.680  18.519   9.472
 2410POPC   PO432040  24.190  18.089   9.362
 2410POPC   GL132041  24.531  18.156   9.099
 2410POPC   GL232042  24.412  18.493   9.042
 2410POPC   C1A32043  24.467  18.094   8.650
 2410POPC   D2A32044  24.294  17.871   8.293
 2410POPC   C3A32045  24.382  18.095   7.937
 2410POPC   C4A32046  24.661  18.012   7.642
 2410POPC   C1B32047  24.703  18.557   8.717
 2410POPC   C2B32048  24.635  18.453   8.296
 2410POPC   C3B32049  24.854  18.376   7.951
 2410POPC   C4B32050  24.910  18.453   7.546
 2411POPC   NC332051  34.097   8.131   9.319
 2411POPC   PO432052  33.750   8.695   9.369
 2411POPC   GL132053  33.785   8.497   8.977
 2411POPC   GL232054  34.131   8.421   8.887
 2411POPC   C1A32055  33.539   8.370   8.599
 2411POPC   D2A32056  33.430   8.066   8.255
 2411POPC   C3A32057  33.744   8.082   7.931
 2411POPC   C4A32058  33.878   8.448   7.683
 2411POPC   C1B32059  33.910   7.999   8.733
 2411POPC   C2B32060  33.884   7.753   8.362
 2411POPC   C3B32061  34.091   7.694   7.971
 2411POPC   C4B32062  34.315   7.796   7.626
 2412POPC   NC332063   0.575  27.984   9.564
 2412POPC   PO432064   0.258  28.585   9.486
 2412POPC   GL132065   0.586  28.358   9.205
 2412POPC   GL232066   0.295  28.162   9.172
 2412POPC   C1A32067   0.801  28.369   8.781
 2412POPC   D2A32068   0.548  28.341   8.369
 2412POPC   C3A32069   0.715  28.216   7.982
 2412POPC   C4A32070   0.902  28.552   7.757
 2412POPC   C1B32071   0.290  28.376   8.797
 2412POPC   C2B32072   0.050  28.532   8.486
 2412POPC   C3B32073   0.072  28.572   8.064
 2412POPC   C4B32074   0.304  28.381   7.723
 2413POPC   NC332075  17.221  19.621   9.487
 2413POPC   PO432076  17.735  20.047   9.522
 2413POPC   GL132077  17.461  19.982   9.199
 2413POPC   GL232078  17.568  19.659   9.083
 2413POPC   C1A32079  17.460  20.076   8.777
 2413POPC   D2A32080  17.517  19.865   8.413
 2413POPC   C3A32081  17.533  20.020   8.022
 2413POPC   C4A32082  17.276  20.153   7.699
 2413POPC   C1B32083  17.226  19.590   8.787
 2413POPC   C2B32084  17.040  19.679   8.384
 2413POPC   C3B32085  17.211  19.634   7.952
 2413POPC   C4B32086  17.478  19.693   7.591
 2414POPC   NC332087  11.990  25.730   9.383
 2414POPC   PO432088  12.057  26.415   9.581
 2414POPC   GL132089  12.166  26.175   9.192
 2414POPC   GL232090  12.458  26.045   9.070
 2414POPC   C1A32091  12.063  26.138   8.735
 2414POPC   D2A32092  12.035  26.357   8.348
 2414POPC   C3A32093  11.978  26.090   7.989
 2414POPC   C4A32094  12.119  26.268   7.640
 2414POPC   C1B32095  12.511  25.927   8.638
 2414POPC   C2B32096  12.323  25.687   8.296
 2414POPC   C3B32097  12.320  25.712   7.852
 2414POPC   C4B32098  12.101  25.717   7.459
 2415POPC   NC332099  25.372  13.456   9.567
 2415POPC   PO432100  25.047  13.073   9.222
 2415POPC   GL132101  25.222  13.440   9.052
 2415POPC   GL232102  25.576  13.376   9.113
 2415POPC   C1A32103  25.426  13.675   8.689
 2415POPC   D2A32104  25.490  13.952   8.317
 2415POPC   C3A32105  25.348  13.745   7.971
 2415POPC   C4A32106  25.026  13.419   7.938
 2415POPC   C1B32107  25.494  13.157   8.723
 2415POPC   C2B32108  25.279  13.282   8.367
 2415POPC   C3B32109  25.482  13.232   7.975
 2415POPC   C4B32110  25.697  13.512   7.687
 2416POPC   NC332111  34.711  14.278   9.595
 2416POPC   PO432112  34.326  14.813   9.425
 2416POPC   GL132113  34.697  14.555   9.172
 2416POPC   GL232114  34.719  14.131   9.100
 2416POPC   C1A32115  34.916  14.463   8.802
 2416POPC   D2A32116  34.744  14.447   8.405
 2416POPC   C3A32117  35.003  14.471   8.043
 2416POPC   C4A32118  34.992  14.203   7.718
 2416POPC   C1B32119  34.480  14.151   8.739
 2416POPC   C2B32120  34.282  14.218   8.350
 2416POPC   C3B32121  34.501  14.327   7.971
 2416POPC   C4B32122  34.507  14.214   7.560
 2417POPC   NC332123  19.606   6.844   9.528
 2417POPC   PO432124  19.066   6.449   9.656
 2417POPC   GL132125  18.965   6.565   9.209
 2417POPC   GL232126  19.293   6.679   9.116
 2417POPC   C1A32127  18.725   6.485   8.828
 2417POPC   D2A32128  18.870   6.654   8.450
 2417POPC   C3A32129  18.838   6.462   8.053
 2417POPC   C4A32130  18.851   6.636   7.672
 2417POPC   C1B32131  19.267   6.902   8.728
 2417POPC   C2B32132  19.426   6.904   8.294
 2417POPC   C3B32133  19.345   6.827   7.825
 2417POPC   C4B32134  19.383   6.975   7.374
 2418POPC   NC332135  34.924  25.775   9.295
 2418POPC   PO432136  34.488  26.250   9.621
 2418POPC   GL132137  34.486  26.075   9.193
 2418POPC   GL232138  34.771  26.214   9.031
 2418POPC   C1A32139  34.521  25.910   8.739
 2418POPC   D2A32140  34.641  26.156   8.367
 2418POPC   C3A32141  34.593  26.033   7.889
 2418POPC   C4A32142  34.320  26.037   7.519
 2418POPC   C1B32143  34.897  26.500   8.669
 2418POPC   C2B32144  34.934  26.537   8.224
 2418POPC   C3B32145  34.853  26.536   7.798
 2418POPC   C4B32146  34.740  26.319   7.429
 2419POPC   NC332147  37.834  42.079   9.542
 2419POPC   PO432148  37.434  42.580   9.368
 2419POPC   GL132149  37.486  42.296   9.091
 2419POPC   GL232150  37.783  42.444   9.001
 2419POPC   C1A32151  37.360  42.442   8.687
 2419POPC   D2A32152  37.535  42.500   8.345
 2419POPC   C3A32153  37.300  42.579   8.010
 2419POPC   C4A32154  37.432  42.591   7.594
 2419POPC   C1B32155  37.800  42.163   8.683
 2419POPC   C2B32156  37.841  42.104   8.270
 2419POPC   C3B32157  37.773  42.365   7.917
 2419POPC   C4B32158  37.982  42.596   7.585
 2420POPC   NC332159   6.536  34.364   9.700
 2420POPC   PO432160   6.713  34.889   9.345
 2420POPC   GL132161   6.591  34.544   9.099
 2420POPC   GL232162   6.862  34.370   9.203
 2420POPC   C1A32163   6.540  34.517   8.653
 2420POPC   D2A32164   6.755  34.732   8.321
 2420POPC   C3A32165   6.590  34.660   7.928
 2420POPC   C4A32166   6.223  34.558   7.700
 2420POPC   C1B32167   6.859  34.160   8.815
 2420POPC   C2B32168   6.924  34.234   8.393
 2420POPC   C3B32169   6.927  34.010   8.016
 2420POPC   C4B32170   6.916  34.300   7.706
 2421POPC   NC332171  13.153  14.329   9.621
 2421POPC   PO432172  12.474  14.457   9.459
 2421POPC   GL132173  12.816  14.290   9.217
 2421POPC   GL232174  13.109  14.513   9.158
 2421POPC   C1A32175  12.823  14.274   8.785
 2421POPC   D2A32176  12.737  14.044   8.479
 2421POPC   C3A32177  12.724  14.271   8.139
 2421POPC   C4A32178  12.856  14.178   7.764
 2421POPC   C1B32179  12.892  14.755   8.889
 2421POPC   C2B32180  13.028  14.662   8.502
 2421POPC   C3B32181  12.929  14.729   8.108
 2421POPC   C4B32182  13.089  14.628   7.768
 2422POPC   NC332183   7.122  21.217   9.498
 2422POPC   PO432184   6.603  21.675   9.644
 2422POPC   GL132185   6.830  21.569   9.250
 2422POPC   GL232186   6.681  21.238   9.179
 2422POPC   C1A32187   6.861  21.504   8.795
 2422POPC   D2A32188   6.683  21.440   8.407
 2422POPC   C3A32189   6.871  21.540   8.034
 2422POPC   C4A32190   6.786  21.679   7.600
 2422POPC   C1B32191   6.519  21.102   8.764
 2422POPC   C2B32192   6.337  21.076   8.331
 2422POPC   C3B32193   6.415  21.311   7.947
 2422POPC   C4B32194   6.743  21.182   7.650
 2423POPC   NC332195  29.880   0.887   9.516
 2423POPC   PO432196  30.099   1.515   9.445
 2423POPC   GL132197  29.797   1.301   9.069
 2423POPC   GL232198  29.892   0.976   9.024
 2423POPC   C1A32199  29.648   1.121   8.618
 2423POPC   D2A32200  29.905   1.022   8.273
 2423POPC   C3A32201  29.720   0.871   7.929
 2423POPC   C4A32202  29.584   1.064   7.547
 2423POPC   C1B32203  30.137   1.249   8.713
 2423POPC   C2B32204  30.214   1.430   8.305
 2423POPC   C3B32205  30.222   1.307   7.876
 2423POPC   C4B32206  30.502   1.088   7.572
 2424POPC   NC332207   2.681  14.653   9.322
 2424POPC   PO432208   3.247  14.357   9.542
 2424POPC   GL132209   3.112  14.195   9.130
 2424POPC   GL232210   2.782  14.127   9.142
 2424POPC   C1A32211   3.046  14.316   8.719
 2424POPC   D2A32212   2.814  14.483   8.415
 2424POPC   C3A32213   2.849  14.327   8.023
 2424POPC   C4A32214   2.742  14.713   7.856
 2424POPC   C1B32215   2.653  13.956   8.740
 2424POPC   C2B32216   2.527  14.057   8.331
 2424POPC   C3B32217   2.497  13.940   7.912
 2424POPC   C4B32218   2.473  14.315   7.664
 2425POPC   NC332219  35.915  28.206   9.470
 2425POPC   PO432220  36.482  28.183   9.163
 2425POPC   GL132221  36.108  28.376   9.032
 2425POPC   GL232222  36.005  28.006   8.993
 2425POPC   C1A32223  36.074  28.649   8.678
 2425POPC   D2A32224  36.414  28.679   8.412
 2425POPC   C3A32225  36.396  28.461   8.060
 2425POPC   C4A32226  36.427  28.615   7.689
 2425POPC   C1B32227  36.162  28.140   8.574
 2425POPC   C2B32228  35.907  28.340   8.284
 2425POPC   C3B32229  35.703  28.111   7.990
 2425POPC   C4B32230  35.959  28.294   7.698
 2426POPC   NC332231  42.988  29.959   9.724
 2426POPC   PO432232  42.873  29.633   9.206
 2426POPC   GL132233  43.085  29.897   8.983
 2426POPC   GL232234  43.084  30.235   9.041
 2426POPC   C1A32235  42.971  29.857   8.578
 2426POPC   D2A32236  42.819  30.089   8.304
 2426POPC   C3A32237  42.898  29.818   7.987
 2426POPC   C4A32238  43.189  29.919   7.724
 2426POPC   C1B32239  43.340  30.195   8.626
 2426POPC   C2B32240  43.405  29.927   8.204
 2426POPC   C3B32241  43.506  29.567   7.846
 2426POPC   C4B32242  43.367  29.652   7.349
 2427POPC   NC332243   8.131  31.102   9.743
 2427POPC   PO432244   7.963  31.735   9.574
 2427POPC   GL132245   8.203  31.583   9.237
 2427POPC   GL232246   8.020  31.279   9.205
 2427POPC   C1A32247   8.077  31.659   8.811
 2427POPC   D2A32248   7.876  31.503   8.445
 2427POPC   C3A32249   8.091  31.510   8.071
 2427POPC   C4A32250   7.971  31.519   7.637
 2427POPC   C1B32251   8.120  31.148   8.781
 2427POPC   C2B32252   8.334  31.193   8.384
 2427POPC   C3B32253   8.153  31.011   7.994
 2427POPC   C4B32254   8.270  30.976   7.567
 2428POPC   NC332255  35.631  17.622   9.527
 2428POPC   PO432256  36.364  17.565   9.538
 2428POPC   GL132257  36.062  17.498   9.223
 2428POPC   GL232258  36.146  17.807   9.080
 2428POPC   C1A32259  36.150  17.359   8.797
 2428POPC   D2A32260  36.309  17.561   8.419
 2428POPC   C3A32261  36.042  17.526   8.071
 2428POPC   C4A32262  36.204  17.625   7.664
 2428POPC   C1B32263  35.941  17.859   8.685
 2428POPC   C2B32264  35.661  17.695   8.378
 2428POPC   C3B32265  35.645  17.836   7.934
 2428POPC   C4B32266  35.816  17.887   7.511
 2429POPC   NC332267  14.002  31.351   9.881
 2429POPC   PO432268  13.441  31.363   9.496
 2429POPC   GL132269  13.519  31.426   9.108
 2429POPC   GL232270  13.641  31.763   9.205
 2429POPC   C1A32271  13.469  31.219   8.694
 2429POPC   D2A32272  13.176  31.304   8.338
 2429POPC   C3A32273  13.302  31.093   7.974
 2429POPC   C4A32274  13.603  31.232   7.679
 2429POPC   C1B32275  13.736  31.740   8.771
 2429POPC   C2B32276  13.569  31.651   8.370
 2429POPC   C3B32277  13.397  31.614   7.970
 2429POPC   C4B32278  13.342  31.679   7.548
 2430POPC   NC332279  31.297  37.910   9.486
 2430POPC   PO432280  31.651  37.312   9.546
 2430POPC   GL132281  31.760  37.624   9.225
 2430POPC   GL232282  31.628  37.950   9.118
 2430POPC   C1A32283  31.637  37.581   8.777
 2430POPC   D2A32284  31.702  37.321   8.439
 2430POPC   C3A32285  31.438  37.362   8.084
 2430POPC   C4A32286  31.686  37.547   7.760
 2430POPC   C1B32287  31.277  37.943   8.814
 2430POPC   C2B32288  31.274  37.736   8.417
 2430POPC   C3B32289  31.372  37.867   8.014
 2430POPC   C4B32290  31.434  38.000   7.612
 2431POPC   NC332291   6.401  27.735   9.474
 2431POPC   PO432292   6.983  27.535   9.449
 2431POPC   GL132293   6.854  27.444   9.085
 2431POPC   GL232294   6.746  27.119   9.189
 2431POPC   C1A32295   6.672  27.660   8.744
 2431POPC   D2A32296   6.514  27.829   8.359
 2431POPC   C3A32297   6.608  27.710   7.950
 2431POPC   C4A32298   6.911  27.853   7.633
 2431POPC   C1B32299   6.586  27.138   8.755
 2431POPC   C2B32300   6.587  27.302   8.346
 2431POPC   C3B32301   6.461  27.207   7.952
 2431POPC   C4B32302   6.782  27.331   7.638
 2432POPC   NC332303  10.234  11.587   9.342
 2432POPC   PO432304  10.524  11.060   9.662
 2432POPC   GL132305  10.406  11.141   9.208
 2432POPC   GL232306  10.093  11.073   9.046
 2432POPC   C1A32307  10.539  11.319   8.797
 2432POPC   D2A32308  10.733  11.511   8.436
 2432POPC   C3A32309  10.604  11.519   8.032
 2432POPC   C4A32310  10.784  11.450   7.620
 2432POPC   C1B32311  10.032  11.379   8.735
 2432POPC   C2B32312  10.213  11.513   8.391
 2432POPC   C3B32313  10.114  11.369   8.032
 2432POPC   C4B32314  10.332  11.235   7.706
 2433POPC   NC332315  13.413  30.015   9.531
 2433POPC   PO432316  14.074  30.168   9.508
 2433POPC   GL132317  13.768  30.078   9.199
 2433POPC   GL232318  13.710  29.702   9.239
 2433POPC   C1A32319  13.470  30.060   8.844
 2433POPC   D2A32320  13.558  30.243   8.437
 2433POPC   C3A32321  13.474  30.201   8.016
 2433POPC   C4A32322  13.845  30.263   7.777
 2433POPC   C1B32323  13.614  29.559   8.831
 2433POPC   C2B32324  13.577  29.710   8.443
 2433POPC   C3B32325  13.731  29.748   8.015
 2433POPC   C4B32326  13.712  29.793   7.589
 2434POPC   NC332327   0.178  10.784   9.523
 2434POPC   PO432328   0.608  10.189   9.494
 2434POPC   GL132329   0.473  10.470   9.163
 2434POPC   GL232330   0.120  10.382   9.150
 2434POPC   C1A32331   0.610  10.646   8.718
 2434POPC   D2A32332   0.543  10.575   8.241
 2434POPC   C3A32333   0.861  10.520   7.904
 2434POPC   C4A32334   0.961  10.333   7.484
 2434POPC   C1B32335   0.107  10.671   8.830
 2434POPC   C2B32336   0.162  10.839   8.456
 2434POPC   C3B32337   0.061  10.680   8.080
 2434POPC   C4B32338   0.111  10.516   7.701
 2435POPC   NC332339  41.434  34.050   9.431
 2435POPC   PO432340  41.436  34.796   9.534
 2435POPC   GL132341  41.626  34.771   9.162
 2435POPC   GL232342  41.590  34.439   9.137
 2435POPC   C1A32343  41.555  34.864   8.763
 2435POPC   D2A32344  41.589  34.680   8.366
 2435POPC   C3A32345  41.857  34.851   8.089
 2435POPC   C4A32346  41.530  34.917   7.809
 2435POPC   C1B32347  41.690  34.342   8.718
 2435POPC   C2B32348  41.546  34.193   8.271
 2435POPC   C3B32349  41.656  34.419   7.872
 2435POPC   C4B32350  41.734  34.261   7.459
 2436POPC   NC332351  38.696  19.669   9.543
 2436POPC   PO432352  38.775  20.323   9.328
 2436POPC   GL132353  38.518  20.090   9.018
 2436POPC   GL232354  38.529  19.725   9.064
 2436POPC   C1A32355  38.462  19.898   8.588
 2436POPC   D2A32356  38.609  19.563   8.297
 2436POPC   C3A32357  38.741  19.789   7.946
 2436POPC   C4A32358  38.583  20.176   7.818
 2436POPC   C1B32359  38.209  19.479   8.816
 2436POPC   C2B32360  38.056  19.438   8.397
 2436POPC   C3B32361  38.179  19.582   8.008
 2436POPC   C4B32362  38.354  19.691   7.643
 2437POPC   NC332363   6.726  36.490   9.299
 2437POPC   PO432364   6.586  37.128   9.416
 2437POPC   GL132365   6.773  36.967   9.076
 2437POPC   GL232366   6.811  37.313   8.959
 2437POPC   C1A32367   6.652  36.700   8.711
 2437POPC   D2A32368   6.573  36.875   8.359
 2437POPC   C3A32369   6.618  36.761   7.952
 2437POPC   C4A32370   6.758  37.027   7.594
 2437POPC   C1B32371   6.398  37.155   8.779
 2437POPC   C2B32372   6.122  37.065   8.433
 2437POPC   C3B32373   6.313  37.196   8.061
 2437POPC   C4B32374   6.403  37.387   7.706
 2438POPC   NC332375  44.069  44.341   9.470
 2438POPC   PO432376  43.638  44.774   9.740
 2438POPC   GL132377  43.753  44.802   9.265
 2438POPC   GL232378  43.794  44.508   9.084
 2438POPC   C1A32379  43.608  44.860   8.791
 2438POPC   D2A32380  43.692  44.924   8.346
 2438POPC   C3A32381  43.727  44.629   8.009
 2438POPC   C4A32382  43.741  44.899   7.664
 2438POPC   C1B32383  44.105  44.676   8.815
 2438POPC   C2B32384  44.104  44.601   8.386
 2438POPC   C3B32385  44.246  44.641   7.970
 2438POPC   C4B32386  44.048  44.455   7.615
 2439POPC   NC332387  10.194  33.276   9.538
 2439POPC   PO432388  10.879  33.068   9.551
 2439POPC   GL132389  10.613  33.026   9.160
 2439POPC   GL232390  10.252  33.044   9.091
 2439POPC   C1A32391  10.538  33.240   8.715
 2439POPC   D2A32392  10.330  33.322   8.298
 2439POPC   C3A32393  10.623  33.259   7.960
 2439POPC   C4A32394  10.620  32.961   7.641
 2439POPC   C1B32395  10.314  32.762   8.792
 2439POPC   C2B32396  10.480  32.829   8.408
 2439POPC   C3B32397  10.326  32.822   8.036
 2439POPC   C4B32398  10.170  32.740   7.641
 2440POPC   NC332399   6.180  13.051   9.613
 2440POPC   PO432400   6.766  12.588   9.481
 2440POPC   GL132401   6.728  12.844   9.132
 2440POPC   GL232402   6.473  13.104   9.177
 2440POPC   C1A32403   6.818  12.809   8.702
 2440POPC   D2A32404   6.595  12.956   8.353
 2440POPC   C3A32405   6.842  12.980   8.029
 2440POPC   C4A32406   6.854  12.683   7.737
 2440POPC   C1B32407   6.316  12.872   8.821
 2440POPC   C2B32408   6.097  12.851   8.436
 2440POPC   C3B32409   6.131  13.054   8.084
 2440POPC   C4B32410   6.401  12.953   7.757
 2441POPC   NC332411  20.300  28.560   9.444
 2441POPC   PO432412  20.384  27.908   9.389
 2441POPC   GL132413  20.597  28.224   9.112
 2441POPC   GL232414  20.794  28.527   9.212
 2441POPC   C1A32415  20.788  28.222   8.705
 2441POPC   D2A32416  20.879  27.967   8.344
 2441POPC   C3A32417  20.562  27.980   8.028
 2441POPC   C4A32418  20.348  28.230   7.764
 2441POPC   C1B32419  20.586  28.687   8.831
 2441POPC   C2B32420  20.709  28.749   8.419
 2441POPC   C3B32421  20.729  28.455   8.111
 2441POPC   C4B32422  20.781  28.524   7.712
 2442POPC   NC332423   4.913  26.430   9.692
 2442POPC   PO432424   5.429  26.048   9.558
 2442POPC   GL132425   5.230  25.914   9.185
 2442POPC   GL232426   5.116  26.213   9.133
 2442POPC   C1A32427   5.020  25.884   8.753
 2442POPC   D2A32428   4.902  26.152   8.401
 2442POPC   C3A32429   5.061  26.026   7.997
 2442POPC   C4A32430   4.887  25.910   7.608
 2442POPC   C1B32431   5.369  26.291   8.738
 2442POPC   C2B32432   5.335  26.417   8.289
 2442POPC   C3B32433   5.457  26.572   7.865
 2442POPC   C4B32434   5.516  26.426   7.440
 2443POPC   NC332435  38.039   9.038   9.413
 2443POPC   PO432436  38.682   8.848   9.432
 2443POPC   GL132437  38.458   8.811   9.076
 2443POPC   GL232438  38.586   8.533   8.935
 2443POPC   C1A32439  38.346   8.970   8.692
 2443POPC   D2A32440  38.230   8.896   8.273
 2443POPC   C3A32441  38.438   8.991   7.899
 2443POPC   C4A32442  38.427   9.381   7.651
 2443POPC   C1B32443  38.606   8.581   8.496
 2443POPC   C2B32444  38.704   8.497   8.105
 2443POPC   C3B32445  38.913   8.716   7.799
 2443POPC   C4B32446  38.694   8.965   7.464
 2444POPC   NC332447  24.315   6.370   9.431
 2444POPC   PO432448  24.708   6.900   9.550
 2444POPC   GL132449  24.560   6.735   9.171
 2444POPC   GL232450  24.293   6.923   9.116
 2444POPC   C1A32451  24.403   6.518   8.801
 2444POPC   D2A32452  24.502   6.676   8.394
 2444POPC   C3A32453  24.475   6.406   8.056
 2444POPC   C4A32454  24.491   6.615   7.646
 2444POPC   C1B32455  24.101   6.925   8.720
 2444POPC   C2B32456  24.001   6.593   8.463
 2444POPC   C3B32457  24.079   6.731   8.035
 2444POPC   C4B32458  24.038   6.838   7.614
 2445POPC   NC332459  21.595   3.836   9.338
 2445POPC   PO432460  21.179   3.257   9.498
 2445POPC   GL132461  21.358   3.384   9.106
 2445POPC   GL232462  21.602   3.590   8.904
 2445POPC   C1A32463  21.176   3.390   8.688
 2445POPC   D2A32464  21.353   3.513   8.304
 2445POPC   C3A32465  21.306   3.234   7.992
 2445POPC   C4A32466  21.606   3.277   7.686
 2445POPC   C1B32467  21.322   3.881   8.677
 2445POPC   C2B32468  20.971   3.827   8.426
 2445POPC   C3B32469  21.071   3.862   7.990
 2445POPC   C4B32470  21.217   3.622   7.629
 2446POPC   NC332471  24.476   2.493   9.409
 2446POPC   PO432472  24.998   2.938   9.410
 2446POPC   GL132473  24.696   2.843   9.106
 2446POPC   GL232474  24.421   3.037   9.140
 2446POPC   C1A32475  24.415   2.692   8.748
 2446POPC   D2A32476  24.325   2.470   8.359
 2446POPC   C3A32477  24.323   2.691   7.972
 2446POPC   C4A32478  24.515   2.936   7.655
 2446POPC   C1B32479  24.302   3.192   8.731
 2446POPC   C2B32480  24.348   3.083   8.292
 2446POPC   C3B32481  24.194   3.271   7.894
 2446POPC   C4B32482  24.122   3.138   7.415
 2447POPC   NC332483   6.397  42.356   9.486
 2447POPC   PO432484   7.039  42.200   9.499
 2447POPC   GL132485   6.740  42.187   9.145
 2447POPC   GL232486   6.491  41.923   9.236
 2447POPC   C1A32487   6.447  42.323   8.800
 2447POPC   D2A32488   6.381  42.475   8.365
 2447POPC   C3A32489   6.693  42.599   8.048
 2447POPC   C4A32490   6.594  42.807   7.642
 2447POPC   C1B32491   6.588  41.834   8.812
 2447POPC   C2B32492   6.543  42.000   8.402
 2447POPC   C3B32493   6.808  42.067   8.058
 2447POPC   C4B32494   6.755  42.240   7.666
 2448POPC   NC332495   2.536  31.733   9.683
 2448POPC   PO432496   2.993  31.205   9.664
 2448POPC   GL132497   2.939  31.316   9.261
 2448POPC   GL232498   2.633  31.491   9.237
 2448POPC   C1A32499   3.070  31.412   8.863
 2448POPC   D2A32500   2.898  31.394   8.455
 2448POPC   C3A32501   3.177  31.375   8.096
 2448POPC   C4A32502   3.195  31.176   7.682
 2448POPC   C1B32503   2.645  31.698   8.848
 2448POPC   C2B32504   2.652  31.853   8.448
 2448POPC   C3B32505   2.671  31.654   8.070
 2448POPC   C4B32506   2.804  31.513   7.732
 2449POPC   NC332507  21.660  27.789   9.506
 2449POPC   PO432508  21.173  27.339   9.619
 2449POPC   GL132509  21.289  27.460   9.143
 2449POPC   GL232510  21.458  27.787   9.032
 2449POPC   C1A32511  21.465  27.431   8.692
 2449POPC   D2A32512  21.641  27.286   8.305
 2449POPC   C3A32513  21.486  27.488   7.949
 2449POPC   C4A32514  21.455  27.770   7.601
 2449POPC   C1B32515  21.838  27.816   8.788
 2449POPC   C2B32516  21.962  27.688   8.384
 2449POPC   C3B32517  21.866  27.807   7.975
 2449POPC   C4B32518  21.885  27.501   7.629
 2450POPC   NC332519  35.289  36.519   9.477
 2450POPC   PO432520  35.483  35.899   9.398
 2450POPC   GL132521  35.259  36.149   9.131
 2450POPC   GL232522  34.987  35.894   9.162
 2450POPC   C1A32523  35.409  36.341   8.732
 2450POPC   D2A32524  35.693  36.248   8.368
 2450POPC   C3A32525  35.577  36.175   7.930
 2450POPC   C4A32526  35.727  36.329   7.512
 2450POPC   C1B32527  35.160  35.861   8.746
 2450POPC   C2B32528  35.119  36.054   8.371
 2450POPC   C3B32529  34.997  35.729   8.132
 2450POPC   C4B32530  35.110  35.691   7.740
 2451POPC   NC332531  21.756   6.621   9.729
 2451POPC   PO432532  21.389   6.933   9.283
 2451POPC   GL132533  21.416   6.496   9.222
 2451POPC   GL232534  21.118   6.302   9.231
 2451POPC   C1A32535  21.493   6.272   8.851
 2451POPC   D2A32536  21.577   6.474   8.458
 2451POPC   C3A32537  21.365   6.345   8.090
 2451POPC   C4A32538  21.534   6.544   7.754
 2451POPC   C1B32539  21.057   6.533   8.826
 2451POPC   C2B32540  21.023   6.611   8.411
 2451POPC   C3B32541  20.998   6.895   8.110
 2451POPC   C4B32542  21.079   6.788   7.703
 2452POPC   NC332543   4.725  22.305   9.403
 2452POPC   PO432544   4.142  22.214   9.458
 2452POPC   GL132545   4.359  22.171   9.063
 2452POPC   GL232546   4.543  21.859   9.076
 2452POPC   C1A32547   4.382  22.390   8.656
 2452POPC   D2A32548   4.298  22.269   8.215
 2452POPC   C3A32549   4.257  22.404   7.779
 2452POPC   C4A32550   4.484  22.508   7.392
 2452POPC   C1B32551   4.335  21.880   8.640
 2452POPC   C2B32552   4.081  21.828   8.225
 2452POPC   C3B32553   4.336  21.868   7.866
 2452POPC   C4B32554   4.495  22.014   7.482
 2453POPC   NC332555  35.342  11.351   9.575
 2453POPC   PO432556  34.803  11.494   9.309
 2453POPC   GL132557  35.156  11.388   9.063
 2453POPC   GL232558  35.521  11.254   9.086
 2453POPC   C1A32559  35.337  11.476   8.668
 2453POPC   D2A32560  35.510  11.598   8.275
 2453POPC   C3A32561  35.369  11.326   7.921
 2453POPC   C4A32562  35.360  11.261   7.473
 2453POPC   C1B32563  35.629  11.046   8.649
 2453POPC   C2B32564  35.775  11.110   8.187
 2453POPC   C3B32565  35.805  11.093   7.702
 2453POPC   C4B32566  35.818  11.147   7.199
 2454POPC   NC332567  26.455  18.911   9.570
 2454POPC   PO432568  27.098  18.933   9.566
 2454POPC   GL132569  26.838  19.008   9.184
 2454POPC   GL232570  26.538  18.737   9.114
 2454POPC   C1A32571  26.880  19.281   8.790
 2454POPC   D2A32572  26.753  19.230   8.385
 2454POPC   C3A32573  26.991  19.315   8.021
 2454POPC   C4A32574  26.720  19.296   7.676
 2454POPC   C1B32575  26.664  18.817   8.725
 2454POPC   C2B32576  26.802  18.715   8.362
 2454POPC   C3B32577  26.696  18.853   7.988
 2454POPC   C4B32578  26.598  18.540   7.737
 2455POPC   NC332579   9.655  40.487   9.318
 2455POPC   PO432580  10.009  39.979   9.684
 2455POPC   GL132581   9.988  40.103   9.221
 2455POPC   GL232582  10.260  40.001   9.006
 2455POPC   C1A32583   9.853  40.205   8.759
 2455POPC   D2A32584   9.948  40.002   8.404
 2455POPC   C3A32585   9.788  40.137   8.023
 2455POPC   C4A32586   9.619  39.756   7.961
 2455POPC   C1B32587  10.315  40.372   8.713
 2455POPC   C2B32588  10.222  40.405   8.268
 2455POPC   C3B32589  10.269  40.008   8.012
 2455POPC   C4B32590  10.051  39.900   7.625
 2456POPC   NC332591  29.614  33.640   9.304
 2456POPC   PO432592  30.142  34.043   9.533
 2456POPC   GL132593  30.022  33.997   9.119
 2456POPC   GL232594  30.036  33.675   9.019
 2456POPC   C1A32595  30.111  34.108   8.687
 2456POPC   D2A32596  29.950  33.986   8.272
 2456POPC   C3A32597  30.107  34.152   7.927
 2456POPC   C4A32598  29.992  34.007   7.532
 2456POPC   C1B32599  29.900  33.631   8.620
 2456POPC   C2B32600  30.210  33.519   8.326
 2456POPC   C3B32601  30.189  33.636   7.884
 2456POPC   C4B32602  29.870  33.503   7.569
 2457POPC   NC332603  19.349  28.322   9.640
 2457POPC   PO432604  19.925  28.631   9.704
 2457POPC   GL132605  19.699  28.479   9.293
 2457POPC   GL232606  19.623  28.722   9.036
 2457POPC   C1A32607  19.584  28.233   8.894
 2457POPC   D2A32608  19.778  28.258   8.455
 2457POPC   C3A32609  19.628  28.346   8.036
 2457POPC   C4A32610  19.812  28.241   7.641
 2457POPC   C1B32611  20.007  28.518   8.830
 2457POPC   C2B32612  20.286  28.426   8.479
 2457POPC   C3B32613  20.258  28.646   8.093
 2457POPC   C4B32614  20.114  28.655   7.694
 2458POPC   NC332615  25.271  15.135   9.605
 2458POPC   PO432616  25.837  15.121   9.643
 2458POPC   GL132617  25.579  15.196   9.183
 2458POPC   GL232618  25.180  15.250   9.108
 2458POPC   C1A32619  25.511  15.298   8.698
 2458POPC   D2A32620  25.183  15.361   8.349
 2458POPC   C3A32621  25.236  15.263   7.889
 2458POPC   C4A32622  25.094  15.467   7.487
 2458POPC   C1B32623  25.065  15.004   8.731
 2458POPC   C2B32624  25.237  14.835   8.328
 2458POPC   C3B32625  25.177  14.733   7.899
 2458POPC   C4B32626  25.274  14.691   7.480
 2459POPC   NC332627  17.344  36.676   9.417
 2459POPC   PO432628  17.207  37.322   9.347
 2459POPC   GL132629  17.368  37.076   9.064
 2459POPC   GL232630  17.709  37.055   9.205
 2459POPC   C1A32631  17.226  36.803   8.731
 2459POPC   D2A32632  17.159  36.585   8.354
 2459POPC   C3A32633  17.345  36.788   8.048
 2459POPC   C4A32634  17.272  36.841   7.665
 2459POPC   C1B32635  17.731  36.816   8.822
 2459POPC   C2B32636  17.711  36.691   8.401
 2459POPC   C3B32637  17.876  36.760   8.007
 2459POPC   C4B32638  17.771  37.076   7.693
 2460POPC   NC332639  19.400  35.566   9.391
 2460POPC   PO432640  18.806  35.212   9.433
 2460POPC   GL132641  18.919  35.236   9.037
 2460POPC   GL232642  18.911  35.592   9.059
 2460POPC   C1A32643  19.268  35.386   8.760
 2460POPC   D2A32644  19.259  35.578   8.375
 2460POPC   C3A32645  19.292  35.250   8.101
 2460POPC   C4A32646  19.376  35.247   7.679
 2460POPC   C1B32647  18.771  35.510   8.628
 2460POPC   C2B32648  18.810  35.378   8.222
 2460POPC   C3B32649  18.866  35.322   7.810
 2460POPC   C4B32650  18.618  35.465   7.475
 2461POPC   NC332651  33.702  41.690   9.711
 2461POPC   PO432652  34.066  41.253   9.290
 2461POPC   GL132653  33.888  41.643   9.202
 2461POPC   GL232654  33.548  41.704   9.213
 2461POPC   C1A32655  33.869  41.777   8.791
 2461POPC   D2A32656  33.638  41.629   8.423
 2461POPC   C3A32657  33.879  41.810   8.092
 2461POPC   C4A32658  34.088  41.808   7.726
 2461POPC   C1B32659  33.382  41.914   8.823
 2461POPC   C2B32660  33.571  42.113   8.478
 2461POPC   C3B32661  33.387  41.895   8.063
 2461POPC   C4B32662  33.558  41.693   7.699
 2462POPC   NC332663  15.010   2.215   9.634
 2462POPC   PO432664  15.293   1.575   9.494
 2462POPC   GL132665  15.245   1.903   9.227
 2462POPC   GL232666  14.968   1.764   9.116
 2462POPC   C1A32667  15.358   2.042   8.811
 2462POPC   D2A32668  15.467   1.852   8.409
 2462POPC   C3A32669  15.295   1.907   7.987
 2462POPC   C4A32670  15.355   2.111   7.589
 2462POPC   C1B32671  14.869   1.848   8.723
 2462POPC   C2B32672  14.930   2.016   8.330
 2462POPC   C3B32673  14.981   2.343   8.030
 2462POPC   C4B32674  14.877   2.326   7.607
 2463POPC   NC332675   4.784  40.159   9.463
 2463POPC   PO432676   5.340  40.422   9.645
 2463POPC   GL132677   5.200  39.965   9.300
 2463POPC   GL232678   5.006  40.145   9.015
 2463POPC   C1A32679   5.306  39.786   8.862
 2463POPC   D2A32680   5.313  40.120   8.571
 2463POPC   C3A32681   5.185  40.088   8.150
 2463POPC   C4A32682   5.250  40.214   7.741
 2463POPC   C1B32683   4.753  39.896   8.804
 2463POPC   C2B32684   4.571  40.077   8.451
 2463POPC   C3B32685   4.702  40.204   8.054
 2463POPC   C4B32686   4.794  39.970   7.688
 2464POPC   NC332687  27.384  11.685   9.472
 2464POPC   PO432688  27.652  11.014   9.520
 2464POPC   GL132689  27.691  11.135   9.127
 2464POPC   GL232690  27.701  11.453   9.132
 2464POPC   C1A32691  27.480  11.157   8.732
 2464POPC   D2A32692  27.550  10.952   8.355
 2464POPC   C3A32693  27.476  11.227   7.985
 2464POPC   C4A32694  27.748  11.078   7.684
 2464POPC   C1B32695  27.912  11.430   8.758
 2464POPC   C2B32696  27.767  11.414   8.356
 2464POPC   C3B32697  27.945  11.448   7.976
 2464POPC   C4B32698  27.858  11.583   7.563
 2465POPC   NC332699  35.187  13.438   9.435
 2465POPC   PO432700  35.114  14.163   9.396
 2465POPC   GL132701  35.307  13.876   9.095
 2465POPC   GL232702  35.061  13.667   9.005
 2465POPC   C1A32703  35.498  13.543   8.789
 2465POPC   D2A32704  35.671  13.347   8.405
 2465POPC   C3A32705  35.617  13.654   8.058
 2465POPC   C4A32706  35.256  13.683   7.764
 2465POPC   C1B32707  35.029  13.424   8.613
 2465POPC   C2B32708  35.191  13.452   8.241
 2465POPC   C3B32709  35.213  13.196   7.905
 2465POPC   C4B32710  34.918  13.137   7.655
 2466POPC   NC332711   4.801   1.943   9.707
 2466POPC   PO432712   5.457   1.966   9.548
 2466POPC   GL132713   5.107   1.916   9.262
 2466POPC   GL232714   4.900   2.210   9.271
 2466POPC   C1A32715   5.158   1.833   8.829
 2466POPC   D2A32716   5.410   1.955   8.498
 2466POPC   C3A32717   5.254   1.789   8.174
 2466POPC   C4A32718   5.113   1.835   7.773
 2466POPC   C1B32719   5.028   2.334   8.859
 2466POPC   C2B32720   4.961   2.244   8.448
 2466POPC   C3B32721   5.119   2.265   8.060
 2466POPC   C4B32722   4.895   2.298   7.683
 2467POPC   NC332723  10.273   7.534   9.459
 2467POPC   PO432724  10.838   7.177   9.481
 2467POPC   GL132725  10.883   7.337   9.071
 2467POPC   GL232726  10.527   7.400   9.020
 2467POPC   C1A32727  10.853   7.386   8.610
 2467POPC   D2A32728  10.543   7.432   8.278
 2467POPC   C3A32729  10.584   7.504   7.864
 2467POPC   C4A32730  10.790   7.308   7.541
 2467POPC   C1B32731  10.363   7.171   8.662
 2467POPC   C2B32732  10.282   6.945   8.292
 2467POPC   C3B32733  10.239   7.095   7.887
 2467POPC   C4B32734  10.371   7.062   7.465
 2468POPC   NC332735  15.752  25.466   9.363
 2468POPC   PO432736  15.918  24.866   9.473
 2468POPC   GL132737  15.716  25.027   9.079
 2468POPC   GL232738  16.021  25.160   8.966
 2468POPC   C1A32739  15.644  25.284   8.677
 2468POPC   D2A32740  15.927  25.247   8.323
 2468POPC   C3A32741  15.869  25.405   7.929
 2468POPC   C4A32742  15.758  25.075   7.694
 2468POPC   C1B32743  16.269  25.387   8.651
 2468POPC   C2B32744  16.454  25.236   8.309
 2468POPC   C3B32745  16.323  25.168   7.888
 2468POPC   C4B32746  16.187  25.397   7.530
 2469POPC   NC332747  22.566  41.859   9.700
 2469POPC   PO432748  22.063  41.401   9.578
 2469POPC   GL132749  22.082  41.342   9.180
 2469POPC   GL232750  22.423  41.250   9.172
 2469POPC   C1A32751  22.022  41.650   8.860
 2469POPC   D2A32752  22.248  41.773   8.490
 2469POPC   C3A32753  22.102  41.656   8.095
 2469POPC   C4A32754  22.236  41.782   7.690
 2469POPC   C1B32755  22.320  41.253   8.732
 2469POPC   C2B32756  22.516  41.330   8.347
 2469POPC   C3B32757  22.421  41.316   7.918
 2469POPC   C4B32758  22.242  41.069   7.653
 2470POPC   NC332759  39.444  27.334   9.820
 2470POPC   PO432760  39.360  26.743   9.488
 2470POPC   GL132761  39.098  26.816   9.149
 2470POPC   GL232762  39.179  26.506   9.007
 2470POPC   C1A32763  39.205  26.976   8.737
 2470POPC   D2A32764  39.305  26.808   8.317
 2470POPC   C3A32765  39.098  26.985   7.961
 2470POPC   C4A32766  39.369  27.252   7.716
 2470POPC   C1B32767  38.960  26.540   8.616
 2470POPC   C2B32768  38.922  26.509   8.174
 2470POPC   C3B32769  39.207  26.495   7.836
 2470POPC   C4B32770  39.132  26.601   7.401
 2471POPC   NC332771   4.396  17.891   9.487
 2471POPC   PO432772   4.130  17.348   9.315
 2471POPC   GL132773   4.470  17.556   9.116
 2471POPC   GL232774   4.374  17.887   8.977
 2471POPC   C1A32775   4.711  17.600   8.775
 2471POPC   D2A32776   4.481  17.658   8.411
 2471POPC   C3A32777   4.479  17.308   8.114
 2471POPC   C4A32778   4.580  17.288   7.690
 2471POPC   C1B32779   4.001  17.940   8.715
 2471POPC   C2B32780   4.011  17.857   8.278
 2471POPC   C3B32781   4.358  17.863   7.958
 2471POPC   C4B32782   4.397  17.818   7.531
 2472POPC   NC332783  24.445  25.832   9.583
 2472POPC   PO432784  24.593  26.460   9.678
 2472POPC   GL132785  24.679  26.131   9.269
 2472POPC   GL232786  24.362  25.978   9.082
 2472POPC   C1A32787  24.834  25.937   8.887
 2472POPC   D2A32788  24.809  26.018   8.435
 2472POPC   C3A32789  24.485  25.908   8.102
 2472POPC   C4A32790  24.585  25.983   7.653
 2472POPC   C1B32791  24.072  26.254   8.817
 2472POPC   C2B32792  24.121  26.254   8.354
 2472POPC   C3B32793  24.061  26.253   7.896
 2472POPC   C4B32794  24.110  26.043   7.485
 2473POPC   NC332795  14.309  35.858   9.477
 2473POPC   PO432796  14.715  36.334   9.380
 2473POPC   GL132797  14.484  36.093   9.056
 2473POPC   GL232798  14.117  36.176   9.106
 2473POPC   C1A32799  14.523  35.944   8.613
 2473POPC   D2A32800  14.627  36.271   8.289
 2473POPC   C3A32801  14.631  36.189   7.839
 2473POPC   C4A32802  14.739  35.804   7.687
 2473POPC   C1B32803  14.026  35.934   8.733
 2473POPC   C2B32804  14.110  35.765   8.304
 2473POPC   C3B32805  14.131  35.990   7.906
 2473POPC   C4B32806  13.934  36.306   7.634
 2474POPC   NC332807  25.692   5.299   9.431
 2474POPC   PO432808  26.273   4.941   9.705
 2474POPC   GL132809  26.154   5.088   9.281
 2474POPC   GL232810  26.125   5.451   9.194
 2474POPC   C1A32811  26.107   5.036   8.837
 2474POPC   D2A32812  26.017   4.746   8.475
 2474POPC   C3A32813  26.149   4.882   8.056
 2474POPC   C4A32814  26.308   5.234   7.791
 2474POPC   C1B32815  25.878   5.476   8.787
 2474POPC   C2B32816  25.934   5.260   8.388
 2474POPC   C3B32817  25.812   5.297   7.975
 2474POPC   C4B32818  25.894   5.531   7.647
 2475POPC   NC332819  39.479  25.651   9.546
 2475POPC   PO432820  39.191  24.987   9.560
 2475POPC   GL132821  39.199  25.285   9.244
 2475POPC   GL232822  39.527  25.242   9.182
 2475POPC   C1A32823  39.062  25.246   8.819
 2475POPC   D2A32824  39.166  25.074   8.420
 2475POPC   C3A32825  39.071  25.344   8.075
 2475POPC   C4A32826  38.917  25.376   7.665
 2475POPC   C1B32827  39.540  24.972   8.806
 2475POPC   C2B32828  39.582  24.804   8.387
 2475POPC   C3B32829  39.552  24.905   7.973
 2475POPC   C4B32830  39.453  25.239   7.711
 2476POPC   NC332831  21.826   6.835   9.173
 2476POPC   PO432832  22.184   6.418   9.622
 2476POPC   GL132833  22.301   6.708   9.277
 2476POPC   GL232834  22.231   6.465   9.083
 2476POPC   C1A32835  22.355   6.902   8.819
 2476POPC   D2A32836  22.111   7.067   8.430
 2476POPC   C3A32837  21.910   6.781   8.118
 2476POPC   C4A32838  21.949   6.926   7.699
 2476POPC   C1B32839  21.989   6.158   8.893
 2476POPC   C2B32840  22.063   6.054   8.457
 2476POPC   C3B32841  21.892   6.216   8.080
 2476POPC   C4B32842  22.027   6.420   7.728
 2477POPC   NC332843  13.545   0.105   9.462
 2477POPC   PO432844  13.807   0.698   9.341
 2477POPC   GL132845  13.558   0.545   9.006
 2477POPC   GL232846  13.444   0.921   9.065
 2477POPC   C1A32847  13.617   0.142   8.720
 2477POPC   D2A32848  13.755   0.097   8.257
 2477POPC   C3A32849  13.805   0.368   7.874
 2477POPC   C4A32850  13.515   0.265   7.502
 2477POPC   C1B32851  13.327   0.861   8.654
 2477POPC   C2B32852  13.491   0.536   8.396
 2477POPC   C3B32853  13.336   0.424   8.002
 2477POPC   C4B32854  13.427   0.717   7.685
 2478POPC   NC332855  10.684  41.885   9.473
 2478POPC   PO432856  10.448  42.484   9.432
 2478POPC   GL132857  10.575  42.265   9.110
 2478POPC   GL232858  10.941  42.239   9.179
 2478POPC   C1A32859  10.383  42.363   8.704
 2478POPC   D2A32860  10.032  42.334   8.402
 2478POPC   C3A32861  10.182  42.253   7.984
 2478POPC   C4A32862  10.416  42.605   7.855
 2478POPC   C1B32863  10.885  42.192   8.734
 2478POPC   C2B32864  10.922  42.094   8.340
 2478POPC   C3B32865  10.695  42.166   8.000
 2478POPC   C4B32866  10.551  41.903   7.757
 2479POPC   NC332867  39.684  39.076   9.472
 2479POPC   PO432868  38.968  39.109   9.533
 2479POPC   GL132869  39.228  39.043   9.206
 2479POPC   GL232870  39.333  39.361   9.195
 2479POPC   C1A32871  39.304  39.081   8.762
 2479POPC   D2A32872  39.538  39.024   8.409
 2479POPC   C3A32873  39.358  39.158   8.027
 2479POPC   C4A32874  39.402  39.259   7.608
 2479POPC   C1B32875  39.079  39.545   8.896
 2479POPC   C2B32876  39.232  39.493   8.471
 2479POPC   C3B32877  39.092  39.588   8.075
 2479POPC   C4B32878  39.326  39.749   7.781
 2480POPC   NC332879  35.136   0.048   9.468
 2480POPC   PO432880  35.668   0.489   9.454
 2480POPC   GL132881  35.528   0.215   9.147
 2480POPC   GL232882  35.239   0.385   9.062
 2480POPC   C1A32883  35.461   0.026   8.761
 2480POPC   D2A32884  35.280   0.180   8.384
 2480POPC   C3A32885  35.394   0.384   7.995
 2480POPC   C4A32886  35.234   0.254   7.558
 2480POPC   C1B32887  35.514   0.551   8.722
 2480POPC   C2B32888  35.479   0.903   8.412
 2480POPC   C3B32889  35.241   0.888   8.037
 2480POPC   C4B32890  35.330   0.757   7.629
 2481POPC   NC332891  26.268  26.757   9.677
 2481POPC   PO432892  25.869  27.143   9.414
 2481POPC   GL132893  26.219  27.013   9.141
 2481POPC   GL232894  26.256  26.646   9.172
 2481POPC   C1A32895  26.132  27.051   8.698
 2481POPC   D2A32896  25.780  27.052   8.368
 2481POPC   C3A32897  25.933  27.185   7.965
 2481POPC   C4A32898  26.336  27.345   7.951
 2481POPC   C1B32899  26.163  26.538   8.729
 2481POPC   C2B32900  26.246  26.718   8.309
 2481POPC   C3B32901  26.039  26.680   7.902
 2481POPC   C4B32902  25.709  26.462   7.653
 2482POPC   NC332903  12.647  41.033   9.183
 2482POPC   PO432904  13.279  41.181   9.381
 2482POPC   GL132905  13.120  40.854   9.024
 2482POPC   GL232906  12.891  40.545   9.124
 2482POPC   C1A32907  12.864  40.716   8.608
 2482POPC   D2A32908  12.582  40.980   8.284
 2482POPC   C3A32909  12.631  40.975   7.809
 2482POPC   C4A32910  12.741  41.016   7.343
 2482POPC   C1B32911  13.236  40.367   8.864
 2482POPC   C2B32912  13.348  40.499   8.439
 2482POPC   C3B32913  13.115  40.499   8.047
 2482POPC   C4B32914  13.038  40.735   7.674
 2483POPC   NC332915   8.823   3.807   9.346
 2483POPC   PO432916   8.759   4.425   9.485
 2483POPC   GL132917   8.863   4.238   9.096
 2483POPC   GL232918   9.202   4.262   8.929
 2483POPC   C1A32919   8.732   4.360   8.727
 2483POPC   D2A32920   8.980   4.337   8.379
 2483POPC   C3A32921   8.728   4.447   8.079
 2483POPC   C4A32922   8.661   4.503   7.682
 2483POPC   C1B32923   9.177   4.680   8.706
 2483POPC   C2B32924   9.179   4.797   8.273
 2483POPC   C3B32925   9.182   4.541   7.898
 2483POPC   C4B32926   9.165   4.563   7.457
 2484POPC   NC332927  17.001  20.348   9.486
 2484POPC   PO432928  17.568  20.714   9.553
 2484POPC   GL132929  17.665  20.732   9.118
 2484POPC   GL232930  17.378  20.931   9.020
 2484POPC   C1A32931  17.645  20.698   8.652
 2484POPC   D2A32932  17.588  20.867   8.252
 2484POPC   C3A32933  17.678  20.498   8.018
 2484POPC   C4A32934  17.767  20.293   7.611
 2484POPC   C1B32935  17.185  20.514   8.827
 2484POPC   C2B32936  17.167  20.294   8.391
 2484POPC   C3B32937  17.037  20.466   8.000
 2484POPC   C4B32938  17.277  20.809   7.838
 2485POPC   NC332939  15.574   0.096   9.380
 2485POPC   PO432940  16.134   0.508   9.557
 2485POPC   GL132941  15.992   0.649   9.134
 2485POPC   GL232942  15.919   0.327   9.056
 2485POPC   C1A32943  15.837   0.654   8.675
 2485POPC   D2A32944  15.719   0.837   8.300
 2485POPC   C3A32945  15.765   0.618   7.894
 2485POPC   C4A32946  15.998   0.506   7.526
 2485POPC   C1B32947  15.697   0.168   8.693
 2485POPC   C2B32948  15.834   0.273   8.283
 2485POPC   C3B32949  15.926   0.144   7.867
 2485POPC   C4B32950  15.628   0.166   7.566
 2486POPC   NC332951  42.738   4.108   9.458
 2486POPC   PO432952  43.217   4.635   9.455
 2486POPC   GL132953  43.253   4.354   9.142
 2486POPC   GL232954  42.909   4.425   9.085
 2486POPC   C1A32955  43.184   4.189   8.743
 2486POPC   D2A32956  43.316   4.250   8.362
 2486POPC   C3A32957  43.158   4.245   7.949
 2486POPC   C4A32958  43.450   4.088   7.696
 2486POPC   C1B32959  42.773   4.499   8.652
 2486POPC   C2B32960  42.560   4.592   8.276
 2486POPC   C3B32961  42.699   4.645   7.872
 2486POPC   C4B32962  42.727   4.486   7.470
 2487POPC   NC332963  32.579  30.520   9.463
 2487POPC   PO432964  33.263  30.412   9.609
 2487POPC   GL132965  33.302  30.584   9.194
 2487POPC   GL232966  33.281  30.961   9.208
 2487POPC   C1A32967  33.107  30.640   8.756
 2487POPC   D2A32968  32.836  30.771   8.374
 2487POPC   C3A32969  32.973  30.749   7.932
 2487POPC   C4A32970  33.158  30.574   7.548
 2487POPC   C1B32971  33.227  31.143   8.806
 2487POPC   C2B32972  33.359  30.952   8.426
 2487POPC   C3B32973  33.414  31.027   8.029
 2487POPC   C4B32974  33.248  31.057   7.642
 2488POPC   NC332975  13.300  24.538   9.282
 2488POPC   PO432976  12.711  24.645   9.579
 2488POPC   GL132977  12.710  24.384   9.184
 2488POPC   GL232978  12.972  24.383   8.959
 2488POPC   C1A32979  12.548  24.491   8.752
 2488POPC   D2A32980  12.812  24.371   8.418
 2488POPC   C3A32981  12.653  24.428   8.038
 2488POPC   C4A32982  12.696  24.486   7.620
 2488POPC   C1B32983  13.080  24.699   8.686
 2488POPC   C2B32984  13.283  24.629   8.333
 2488POPC   C3B32985  13.081  24.702   7.968
 2488POPC   C4B32986  13.071  25.068   7.741
 2489POPC   NC332987   8.287  32.055   9.487
 2489POPC   PO432988   8.304  32.676   9.526
 2489POPC   GL132989   8.250  32.403   9.134
 2489POPC   GL232990   7.927  32.190   9.143
 2489POPC   C1A32991   8.341  32.102   8.771
 2489POPC   D2A32992   8.110  31.940   8.383
 2489POPC   C3A32993   8.211  32.005   7.937
 2489POPC   C4A32994   8.353  31.883   7.525
 2489POPC   C1B32995   7.935  32.421   8.736
 2489POPC   C2B32996   8.069  32.435   8.324
 2489POPC   C3B32997   7.818  32.336   7.968
 2489POPC   C4B32998   7.999  32.296   7.545
 2490POPC   NC332999   4.143  25.050   9.509
 2490POPC   PO433000   4.504  25.668   9.553
 2490POPC   GL133001   4.372  25.454   9.153
 2490POPC   GL233002   4.558  25.153   9.199
 2490POPC   C1A33003   4.225  25.453   8.676
 2490POPC   D2A33004   4.346  25.435   8.219
 2490POPC   C3A33005   4.120  25.289   7.855
 2490POPC   C4A33006   4.076  25.417   7.418
 2490POPC   C1B33007   4.441  24.991   8.797
 2490POPC   C2B33008   4.387  24.919   8.344
 2490POPC   C3B33009   4.554  25.015   7.944
 2490POPC   C4B33010   4.376  25.022   7.510
 2491POPC   NC333011  25.398  18.181   9.411
 2491POPC   PO433012  25.155  18.832   9.521
 2491POPC   GL133013  25.274  18.596   9.158
 2491POPC   GL233014  25.012  18.402   9.087
 2491POPC   C1A33015  25.403  18.452   8.738
 2491POPC   D2A33016  25.162  18.387   8.361
 2491POPC   C3A33017  25.378  18.359   7.928
 2491POPC   C4A33018  25.404  18.460   7.464
 2491POPC   C1B33019  24.965  18.095   8.780
 2491POPC   C2B33020  24.970  17.893   8.393
 2491POPC   C3B33021  25.082  17.931   7.972
 2491POPC   C4B33022  25.166  18.013   7.551
 2492POPC   NC333023  11.453  14.784   9.807
 2492POPC   PO433024  11.031  15.181   9.619
 2492POPC   GL133025  11.191  15.147   9.213
 2492POPC   GL233026  11.088  15.493   9.114
 2492POPC   C1A33027  11.464  15.078   8.835
 2492POPC   D2A33028  11.318  15.065   8.397
 2492POPC   C3A33029  11.452  15.193   7.952
 2492POPC   C4A33030  11.320  14.941   7.571
 2492POPC   C1B33031  11.231  15.522   8.701
 2492POPC   C2B33032  11.253  15.561   8.265
 2492POPC   C3B33033  11.135  15.674   7.928
 2492POPC   C4B33034  11.119  15.399   7.603
 2493POPC   NC333035  28.989   4.922   9.522
 2493POPC   PO433036  29.562   5.312   9.548
 2493POPC   GL133037  29.357   5.102   9.194
 2493POPC   GL233038  29.043   5.313   9.173
 2493POPC   C1A33039  29.208   4.816   8.828
 2493POPC   D2A33040  28.950   4.943   8.455
 2493POPC   C3A33041  29.136   4.899   8.048
 2493POPC   C4A33042  29.109   5.043   7.629
 2493POPC   C1B33043  29.197   5.309   8.741
 2493POPC   C2B33044  29.260   5.568   8.376
 2493POPC   C3B33045  29.219   5.439   7.977
 2493POPC   C4B33046  28.892   5.511   7.715
 2494POPC   NC333047  37.031  26.974   9.569
 2494POPC   PO433048  36.623  26.511   9.580
 2494POPC   GL133049  36.743  26.676   9.153
 2494POPC   GL233050  36.787  27.033   9.136
 2494POPC   C1A33051  36.911  26.805   8.710
 2494POPC   D2A33052  37.172  26.943   8.362
 2494POPC   C3A33053  37.047  26.674   8.031
 2494POPC   C4A33054  36.889  26.857   7.673
 2494POPC   C1B33055  36.624  27.246   8.779
 2494POPC   C2B33056  36.503  27.286   8.382
 2494POPC   C3B33057  36.726  27.143   8.061
 2494POPC   C4B33058  36.437  27.094   7.749
 2495POPC   NC333059   9.157   0.220   9.542
 2495POPC   PO433060   8.756   0.659   9.392
 2495POPC   GL133061   8.964   0.451   9.116
 2495POPC   GL233062   9.261   0.575   9.195
 2495POPC   C1A33063   8.883   0.551   8.709
 2495POPC   D2A33064   8.620   0.313   8.465
 2495POPC   C3A33065   8.865   0.411   8.122
 2495POPC   C4A33066   8.964   0.725   7.820
 2495POPC   C1B33067   9.384   0.399   8.810
 2495POPC   C2B33068   9.341   0.556   8.410
 2495POPC   C3B33069   9.348   0.414   7.972
 2495POPC   C4B33070   9.310   0.522   7.507
 2496POPC   NC333071   4.058  36.157   9.665
 2496POPC   PO433072   4.688  35.949   9.428
 2496POPC   GL133073   4.459  35.970   9.059
 2496POPC   GL233074   4.191  36.171   9.125
 2496POPC   C1A33075   4.377  35.897   8.607
 2496POPC   D2A33076   4.081  35.959   8.253
 2496POPC   C3A33077   4.314  36.127   7.948
 2496POPC   C4A33078   4.555  35.837   7.829
 2496POPC   C1B33079   3.943  36.137   8.733
 2496POPC   C2B33080   3.941  36.444   8.399
 2496POPC   C3B33081   3.876  36.382   7.983
 2496POPC   C4B33082   4.039  36.392   7.577
 2497POPC   NC333083   1.805   6.902   9.283
 2497POPC   PO433084   1.822   6.268   9.541
 2497POPC   GL133085   2.001   6.442   9.165
 2497POPC   GL233086   2.265   6.684   9.091
 2497POPC   C1A33087   1.922   6.459   8.734
 2497POPC   D2A33088   1.846   6.702   8.371
 2497POPC   C3A33089   1.961   6.488   7.983
 2497POPC   C4A33090   1.779   6.692   7.660
 2497POPC   C1B33091   2.161   6.983   8.710
 2497POPC   C2B33092   2.232   7.202   8.316
 2497POPC   C3B33093   2.091   6.993   7.998
 2497POPC   C4B33094   2.264   6.822   7.683
 2498POPC   NC333095   7.447  23.574   9.446
 2498POPC   PO433096   7.700  24.219   9.509
 2498POPC   GL133097   7.604  24.008   9.074
 2498POPC   GL233098   7.394  23.702   8.978
 2498POPC   C1A33099   7.570  23.936   8.583
 2498POPC   D2A33100   7.281  23.912   8.239
 2498POPC   C3A33101   7.508  23.831   7.898
 2498POPC   C4A33102   7.474  23.867   7.453
 2498POPC   C1B33103   7.188  23.383   8.744
 2498POPC   C2B33104   7.028  23.430   8.328
 2498POPC   C3B33105   7.208  23.250   8.010
 2498POPC   C4B33106   7.359  23.401   7.663
 2499POPC   NC333107   5.497  26.482   9.369
 2499POPC   PO433108   4.953  26.880   9.624
 2499POPC   GL133109   5.041  26.722   9.221
 2499POPC   GL233110   4.704  26.521   9.199
 2499POPC   C1A33111   5.184  26.926   8.784
 2499POPC   D2A33112   5.004  27.226   8.428
 2499POPC   C3A33113   4.903  27.053   7.999
 2499POPC   C4A33114   5.093  26.885   7.627
 2499POPC   C1B33115   4.902  26.504   8.782
 2499POPC   C2B33116   4.916  26.690   8.390
 2499POPC   C3B33117   4.926  26.525   7.990
 2499POPC   C4B33118   5.041  26.380   7.602
 2500POPC   NC333119  27.281   9.923   9.208
 2500POPC   PO433120  27.811   9.582   9.471
 2500POPC   GL133121  27.779   9.887   9.107
 2500POPC   GL233122  27.634   9.631   9.004
 2500POPC   C1A33123  27.651   9.947   8.642
 2500POPC   D2A33124  27.770   9.730   8.303
 2500POPC   C3A33125  27.739  10.007   8.006
 2500POPC   C4A33126  27.575   9.816   7.657
 2500POPC   C1B33127  27.539   9.421   8.695
 2500POPC   C2B33128  27.322   9.340   8.374
 2500POPC   C3B33129  27.520   9.412   7.986
 2500POPC   C4B33130  27.311   9.310   7.642
 2501POPC   NC333131  27.440  38.859   9.489
 2501POPC   PO433132  27.478  39.564   9.327
 2501POPC   GL133133  27.590  39.216   9.150
 2501POPC   GL233134  27.242  39.123   9.087
 2501POPC   C1A33135  27.704  39.275   8.761
 2501POPC   D2A33136  27.919  39.205   8.425
 2501POPC   C3A33137  27.665  39.231   8.084
 2501POPC   C4A33138  27.590  39.519   7.784
 2501POPC   C1B33139  27.347  38.893   8.716
 2501POPC   C2B33140  27.260  38.915   8.291
 2501POPC   C3B33141  27.373  38.857   7.890
 2501POPC   C4B33142  27.511  39.066   7.543
 2502POPC   NC333143  31.005  11.584   9.748
 2502POPC   PO433144  30.508  11.247   9.581
 2502POPC   GL133145  30.716  11.394   9.234
 2502POPC   GL233146  30.382  11.538   9.141
 2502POPC   C1A33147  30.921  11.194   8.867
 2502POPC   D2A33148  30.805  11.039   8.454
 2502POPC   C3A33149  30.977  11.223   8.078
 2502POPC   C4A33150  30.843  11.239   7.656
 2502POPC   C1B33151  30.456  11.395   8.749
 2502POPC   C2B33152  30.297  11.528   8.339
 2502POPC   C3B33153  30.454  11.374   7.973
 2502POPC   C4B33154  30.469  11.624   7.615
 2503POPC   NC333155   2.475  32.452   9.378
 2503POPC   PO433156   2.915  31.989   9.653
 2503POPC   GL133157   2.718  32.015   9.231
 2503POPC   GL233158   2.356  31.975   9.256
 2503POPC   C1A33159   2.785  32.231   8.787
 2503POPC   D2A33160   3.015  32.528   8.495
 2503POPC   C3A33161   3.025  32.351   8.074
 2503POPC   C4A33162   2.687  32.321   7.778
 2503POPC   C1B33163   2.301  32.088   8.808
 2503POPC   C2B33164   2.444  32.312   8.403
 2503POPC   C3B33165   2.325  32.042   8.053
 2503POPC   C4B33166   2.400  31.856   7.668
 2504POPC   NC333167   0.845  20.580   9.543
 2504POPC   PO433168   1.281  20.234   9.272
 2504POPC   GL133169   1.190  20.422   8.942
 2504POPC   GL233170   1.004  20.677   9.085
 2504POPC   C1A33171   1.274  20.419   8.491
 2504POPC   D2A33172   1.413  20.549   8.075
 2504POPC   C3A33173   1.103  20.394   7.784
 2504POPC   C4A33174   1.024  20.131   7.383
 2504POPC   C1B33175   1.117  20.866   8.708
 2504POPC   C2B33176   0.993  20.815   8.299
 2504POPC   C3B33177   1.076  21.097   7.976
 2504POPC   C4B33178   1.342  21.061   7.657
 2505POPC   NC333179   7.720   5.173   9.725
 2505POPC   PO433180   7.218   4.889   9.381
 2505POPC   GL133181   7.394   5.185   9.111
 2505POPC   GL233182   7.709   5.310   9.181
 2505POPC   C1A33183   7.443   5.105   8.701
 2505POPC   D2A33184   7.184   4.811   8.472
 2505POPC   C3A33185   7.134   4.956   8.062
 2505POPC   C4A33186   7.230   4.727   7.724
 2505POPC   C1B33187   7.682   5.560   8.824
 2505POPC   C2B33188   7.761   5.418   8.420
 2505POPC   C3B33189   7.689   5.536   8.013
 2505POPC   C4B33190   7.534   5.157   7.817
 2506POPC   NC333191  36.368  42.536   9.539
 2506POPC   PO433192  36.162  41.940   9.350
 2506POPC   GL133193  36.142  42.276   9.051
 2506POPC   GL233194  35.893  42.491   9.244
 2506POPC   C1A33195  36.064  42.246   8.576
 2506POPC   D2A33196  35.772  42.076   8.231
 2506POPC   C3A33197  36.020  42.098   7.817
 2506POPC   C4A33198  36.408  42.348   7.759
 2506POPC   C1B33199  35.838  42.639   8.833
 2506POPC   C2B33200  35.686  42.599   8.414
 2506POPC   C3B33201  35.911  42.530   8.040
 2506POPC   C4B33202  35.933  42.631   7.624
 2507POPC   NC333203  29.793  10.397   9.546
 2507POPC   PO433204  29.130  10.652   9.554
 2507POPC   GL133205  29.015  10.529   9.137
 2507POPC   GL233206  28.731  10.269   9.078
 2507POPC   C1A33207  29.137  10.715   8.719
 2507POPC   D2A33208  29.369  10.460   8.398
 2507POPC   C3A33209  29.270  10.517   7.954
 2507POPC   C4A33210  29.249  10.932   7.781
 2507POPC   C1B33211  28.879  10.296   8.682
 2507POPC   C2B33212  28.850  10.406   8.266
 2507POPC   C3B33213  28.893  10.148   7.903
 2507POPC   C4B33214  28.817  10.274   7.444
 2508POPC   NC333215  26.572  38.659   9.601
 2508POPC   PO433216  26.842  38.102   9.448
 2508POPC   GL133217  26.661  38.398   9.158
 2508POPC   GL233218  26.742  38.763   9.120
 2508POPC   C1A33219  26.698  38.382   8.737
 2508POPC   D2A33220  26.889  38.615   8.450
 2508POPC   C3A33221  26.868  38.374   8.086
 2508POPC   C4A33222  27.058  38.505   7.723
 2508POPC   C1B33223  26.465  38.824   8.754
 2508POPC   C2B33224  26.391  38.570   8.337
 2508POPC   C3B33225  26.469  38.574   7.848
 2508POPC   C4B33226  26.465  38.983   7.645
 2509POPC   NC333227  39.066   0.031   9.550
 2509POPC   PO433228  39.232  44.385   9.512
 2509POPC   GL133229  39.342  44.492   9.117
 2509POPC   GL233230  39.105  44.758   9.135
 2509POPC   C1A33231  39.459  44.402   8.677
 2509POPC   D2A33232  39.237  44.366   8.272
 2509POPC   C3A33233  39.498  44.536   7.950
 2509POPC   C4A33234  39.624  44.476   7.539
 2509POPC   C1B33235  39.259  44.872   8.769
 2509POPC   C2B33236  39.399  44.840   8.394
 2509POPC   C3B33237  39.516   0.036   8.071
 2509POPC   C4B33238  39.324   0.035   7.697
 2510POPC   NC333239   5.108   8.297   9.618
 2510POPC   PO433240   4.604   8.539   9.417
 2510POPC   GL133241   4.928   8.398   9.170
 2510POPC   GL233242   5.010   8.022   9.189
 2510POPC   C1A33243   4.951   8.324   8.771
 2510POPC   D2A33244   4.815   8.218   8.393
 2510POPC   C3A33245   5.006   8.429   8.073
 2510POPC   C4A33246   4.962   8.178   7.745
 2510POPC   C1B33247   5.308   7.967   8.834
 2510POPC   C2B33248   5.321   8.157   8.403
 2510POPC   C3B33249   5.428   8.126   7.953
 2510POPC   C4B33250   5.388   8.216   7.467
 2511POPC   NC333251  10.282  37.277   9.441
 2511POPC   PO433252  10.667  37.843   9.523
 2511POPC   GL133253  10.463  37.678   9.172
 2511POPC   GL233254  10.133  37.798   9.265
 2511POPC   C1A33255  10.573  37.552   8.748
 2511POPC   D2A33256  10.410  37.452   8.325
 2511POPC   C3A33257  10.602  37.683   7.972
 2511POPC   C4A33258  10.747  37.554   7.564
 2511POPC   C1B33259  10.177  37.896   8.816
 2511POPC   C2B33260  10.043  37.872   8.387
 2511POPC   C3B33261  10.089  37.699   7.993
 2511POPC   C4B33262  10.162  37.879   7.617
 2512POPC   NC333263  11.475  18.053   9.633
 2512POPC   PO433264  10.843  18.391   9.499
 2512POPC   GL133265  11.122  18.183   9.197
 2512POPC   GL233266  11.485  18.291   9.149
 2512POPC   C1A33267  11.190  18.211   8.737
 2512POPC   D2A33268  11.238  18.062   8.312
 2512POPC   C3A33269  11.152  18.359   7.997
 2512POPC   C4A33270  11.076  18.766   7.878
 2512POPC   C1B33271  11.682  18.318   8.722
 2512POPC   C2B33272  11.708  18.251   8.267
 2512POPC   C3B33273  11.670  18.239   7.865
 2512POPC   C4B33274  11.366  18.034   7.682
 2513POPC   NC333275   1.558  19.894   9.397
 2513POPC   PO433276   0.826  20.108   9.570
 2513POPC   GL133277   0.891  19.977   9.113
 2513POPC   GL233278   1.191  19.744   9.085
 2513POPC   C1A33279   1.025  20.012   8.692
 2513POPC   D2A33280   1.176  19.758   8.429
 2513POPC   C3A33281   1.225  20.001   8.095
 2513POPC   C4A33282   1.077  19.728   7.733
 2513POPC   C1B33283   1.403  19.452   8.824
 2513POPC   C2B33284   1.627  19.505   8.449
 2513POPC   C3B33285   1.474  19.564   8.023
 2513POPC   C4B33286   1.710  19.608   7.638
 2514POPC   NC333287   9.781   7.956   9.531
 2514POPC   PO433288  10.014   8.594   9.576
 2514POPC   GL133289   9.817   8.359   9.186
 2514POPC   GL233290   9.893   7.989   9.039
 2514POPC   C1A33291   9.589   8.353   8.772
 2514POPC   D2A33292   9.410   8.222   8.360
 2514POPC   C3A33293   9.585   8.372   7.987
 2514POPC   C4A33294   9.408   8.571   7.637
 2514POPC   C1B33295   9.657   7.867   8.662
 2514POPC   C2B33296   9.799   7.902   8.217
 2514POPC   C3B33297   9.681   7.909   7.786
 2514POPC   C4B33298   9.958   8.160   7.519
 2515POPC   NC333299  27.807  24.849   9.463
 2515POPC   PO433300  28.205  25.402   9.477
 2515POPC   GL133301  27.869  25.482   9.138
 2515POPC   GL233302  27.537  25.626   9.243
 2515POPC   C1A33303  27.643  25.378   8.739
 2515POPC   D2A33304  27.647  24.961   8.499
 2515POPC   C3A33305  27.832  24.941   8.084
 2515POPC   C4A33306  27.675  25.089   7.710
 2515POPC   C1B33307  27.255  25.779   8.898
 2515POPC   C2B33308  27.301  25.715   8.457
 2515POPC   C3B33309  27.474  25.436   8.135
 2515POPC   C4B33310  27.351  25.497   7.716
 2516POPC   NC333311  31.734   8.667   9.395
 2516POPC   PO433312  31.073   8.764   9.492
 2516POPC   GL133313  31.334   8.940   9.155
 2516POPC   GL233314  31.532   9.260   9.111
 2516POPC   C1A33315  31.237   9.001   8.725
 2516POPC   D2A33316  31.463   8.715   8.476
 2516POPC   C3A33317  31.390   8.693   8.046
 2516POPC   C4A33318  31.261   9.011   7.738
 2516POPC   C1B33319  31.724   9.067   8.783
 2516POPC   C2B33320  31.566   9.246   8.416
 2516POPC   C3B33321  31.636   9.144   8.030
 2516POPC   C4B33322  31.780   9.231   7.637
 2517POPC   NC333323  30.383  37.759   9.631
 2517POPC   PO433324  30.986  37.570   9.442
 2517POPC   GL133325  30.654  37.768   9.206
 2517POPC   GL233326  30.397  37.500   9.174
 2517POPC   C1A33327  30.614  37.815   8.783
 2517POPC   D2A33328  30.799  37.535   8.472
 2517POPC   C3A33329  30.832  37.775   8.081
 2517POPC   C4A33330  30.966  38.081   7.784
 2517POPC   C1B33331  30.479  37.211   8.807
 2517POPC   C2B33332  30.456  37.147   8.341
 2517POPC   C3B33333  30.718  37.286   7.966
 2517POPC   C4B33334  30.687  37.376   7.493
 2518POPC   NC333335  18.002  25.309   9.465
 2518POPC   PO433336  18.592  25.405   9.706
 2518POPC   GL133337  18.396  25.202   9.207
 2518POPC   GL233338  18.115  25.414   8.985
 2518POPC   C1A33339  18.431  25.060   8.801
 2518POPC   D2A33340  18.386  25.387   8.491
 2518POPC   C3A33341  18.290  25.268   8.081
 2518POPC   C4A33342  18.508  25.334   7.748
 2518POPC   C1B33343  17.901  25.175   8.672
 2518POPC   C2B33344  17.740  24.818   8.447
 2518POPC   C3B33345  17.842  24.959   8.033
 2518POPC   C4B33346  17.820  25.242   7.687
 2519POPC   NC333347  11.181  13.972   9.532
 2519POPC   PO433348  11.216  13.348   9.652
 2519POPC   GL133349  11.457  13.342   9.201
 2519POPC   GL233350  11.416  13.698   9.142
 2519POPC   C1A33351  11.568  13.491   8.716
 2519POPC   D2A33352  11.345  13.534   8.328
 2519POPC   C3A33353  11.478  13.519   7.901
 2519POPC   C4A33354  11.229  13.494   7.506
 2519POPC   C1B33355  11.110  13.726   8.769
 2519POPC   C2B33356  10.864  13.707   8.369
 2519POPC   C3B33357  10.979  13.744   7.914
 2519POPC   C4B33358  10.748  13.747   7.505
 2520POPC   NC333359  18.426  21.527   9.504
 2520POPC   PO433360  17.757  21.681   9.545
 2520POPC   GL133361  18.053  21.682   9.147
 2520POPC   GL233362  18.230  21.341   9.076
 2520POPC   C1A33363  18.031  21.586   8.689
 2520POPC   D2A33364  18.364  21.495   8.392
 2520POPC   C3A33365  18.333  21.677   7.971
 2520POPC   C4A33366  18.028  21.518   7.700
 2520POPC   C1B33367  18.585  21.210   8.797
 2520POPC   C2B33368  18.685  21.057   8.370
 2520POPC   C3B33369  18.505  21.202   7.988
 2520POPC   C4B33370  18.541  21.262   7.561
 2521POPC   NC333371  34.154  25.916   9.574
 2521POPC   PO433372  33.646  26.344   9.541
 2521POPC   GL133373  33.682  26.005   9.218
 2521POPC   GL233374  33.991  25.909   9.116
 2521POPC   C1A33375  33.595  25.875   8.786
 2521POPC   D2A33376  33.665  26.067   8.408
 2521POPC   C3A33377  33.635  25.865   8.037
 2521POPC   C4A33378  33.526  26.070   7.646
 2521POPC   C1B33379  34.057  26.106   8.739
 2521POPC   C2B33380  34.169  25.903   8.360
 2521POPC   C3B33381  34.160  25.770   7.966
 2521POPC   C4B33382  33.913  25.713   7.620
 2522POPC   NC333383   7.215   6.851   9.467
 2522POPC   PO433384   7.603   6.242   9.408
 2522POPC   GL133385   7.679   6.567   9.102
 2522POPC   GL233386   7.345   6.621   9.047
 2522POPC   C1A33387   7.661   6.833   8.720
 2522POPC   D2A33388   7.409   6.799   8.385
 2522POPC   C3A33389   7.664   6.806   8.051
 2522POPC   C4A33390   7.628   6.532   7.771
 2522POPC   C1B33391   7.038   6.742   8.759
 2522POPC   C2B33392   6.905   6.763   8.315
 2522POPC   C3B33393   7.161   6.713   7.914
 2522POPC   C4B33394   7.440   6.955   7.610
 2523POPC   NC333395  44.166  19.079   9.542
 2523POPC   PO433396  43.628  19.414   9.497
 2523POPC   GL133397  43.865  19.112   9.133
 2523POPC   GL233398  44.187  18.800   9.138
 2523POPC   C1A33399  43.646  19.131   8.709
 2523POPC   D2A33400  43.585  19.290   8.284
 2523POPC   C3A33401  43.942  19.446   8.115
 2523POPC   C4A33402  43.913  19.145   7.789
 2523POPC   C1B33403  43.995  18.767   8.762
 2523POPC   C2B33404  44.026  18.971   8.358
 2523POPC   C3B33405  44.270  18.878   8.014
 2523POPC   C4B33406  44.033  18.650   7.757
 2524POPC   NC333407  33.303  43.232   9.386
 2524POPC   PO433408  32.814  43.566   9.381
 2524POPC   GL133409  32.867  43.162   9.108
 2524POPC   GL233410  33.193  43.026   8.937
 2524POPC   C1A33411  32.789  43.203   8.696
 2524POPC   D2A33412  33.011  43.064   8.335
 2524POPC   C3A33413  32.755  43.063   7.933
 2524POPC   C4A33414  32.820  43.275   7.525
 2524POPC   C1B33415  33.506  42.972   8.612
 2524POPC   C2B33416  33.497  42.895   8.207
 2524POPC   C3B33417  33.161  42.735   7.982
 2524POPC   C4B33418  33.194  42.974   7.681
 2525POPC   NC333419  22.694  29.293   9.470
 2525POPC   PO433420  23.283  28.915   9.530
 2525POPC   GL133421  23.048  29.001   9.175
 2525POPC   GL233422  22.705  28.854   9.171
 2525POPC   C1A33423  23.003  28.825   8.762
 2525POPC   D2A33424  22.939  29.101   8.432
 2525POPC   C3A33425  23.092  28.981   8.042
 2525POPC   C4A33426  23.075  29.285   7.746
 2525POPC   C1B33427  22.590  29.163   8.832
 2525POPC   C2B33428  22.397  29.146   8.439
 2525POPC   C3B33429  22.571  29.056   8.050
 2525POPC   C4B33430  22.562  29.357   7.732
 2526POPC   NC333431  11.785  26.747   9.754
 2526POPC   PO433432  12.109  27.000   9.242
 2526POPC   GL133433  11.865  26.883   8.958
 2526POPC   GL233434  12.107  26.603   8.922
 2526POPC   C1A33435  11.827  26.803   8.553
 2526POPC   D2A33436  11.642  26.847   8.190
 2526POPC   C3A33437  11.965  26.678   7.947
 2526POPC   C4A33438  12.095  26.791   7.518
 2526POPC   C1B33439  12.392  26.768   8.657
 2526POPC   C2B33440  12.490  26.638   8.260
 2526POPC   C3B33441  12.459  26.595   7.836
 2526POPC   C4B33442  12.507  26.547   7.381
 2527POPC   NC333443  29.331  32.074   9.486
 2527POPC   PO433444  29.023  32.678   9.491
 2527POPC   GL133445  28.934  32.480   9.110
 2527POPC   GL233446  28.913  32.122   9.100
 2527POPC   C1A33447  28.958  32.406   8.679
 2527POPC   D2A33448  29.348  32.352   8.451
 2527POPC   C3A33449  29.337  32.487   8.053
 2527POPC   C4A33450  29.542  32.328   7.734
 2527POPC   C1B33451  29.254  32.008   8.804
 2527POPC   C2B33452  29.307  31.811   8.384
 2527POPC   C3B33453  29.351  31.924   7.970
 2527POPC   C4B33454  29.065  32.134   7.736
 2528POPC   NC333455   6.873  16.049   9.806
 2528POPC   PO433456   6.486  15.679   9.549
 2528POPC   GL133457   6.653  15.786   9.143
 2528POPC   GL233458   6.805  15.996   9.199
 2528POPC   C1A33459   6.727  15.701   8.711
 2528POPC   D2A33460   6.935  15.826   8.336
 2528POPC   C3A33461   6.849  15.735   7.928
 2528POPC   C4A33462   6.520  15.847   7.753
 2528POPC   C1B33463   6.858  16.224   8.827
 2528POPC   C2B33464   7.015  16.365   8.437
 2528POPC   C3B33465   6.873  16.226   8.041
 2528POPC   C4B33466   6.745  16.293   7.644
 2529POPC   NC333467  31.703  31.839   9.505
 2529POPC   PO433468  31.357  31.239   9.462
 2529POPC   GL133469  31.505  31.477   9.132
 2529POPC   GL233470  31.212  31.690   9.118
 2529POPC   C1A33471  31.466  31.253   8.718
 2529POPC   D2A33472  31.712  31.134   8.333
 2529POPC   C3A33473  31.513  31.194   7.935
 2529POPC   C4A33474  31.527  31.467   7.586
 2529POPC   C1B33475  31.418  31.772   8.718
 2529POPC   C2B33476  31.471  31.590   8.348
 2529POPC   C3B33477  31.398  31.702   8.008
 2529POPC   C4B33478  31.234  31.877   7.690
 2530POPC   NC333479  28.352  40.591   9.579
 2530POPC   PO433480  28.663  41.099   9.311
 2530POPC   GL133481  28.498  40.729   9.086
 2530POPC   GL233482  28.173  40.766   9.111
 2530POPC   C1A33483  28.389  40.641   8.629
 2530POPC   D2A33484  28.401  40.945   8.254
 2530POPC   C3A33485  28.480  40.688   7.882
 2530POPC   C4A33486  28.732  40.295   7.813
 2530POPC   C1B33487  28.050  40.999   8.735
 2530POPC   C2B33488  27.912  40.809   8.333
 2530POPC   C3B33489  27.876  40.850   7.891
 2530POPC   C4B33490  28.078  40.722   7.510
 2531POPC   NC333491  26.440  35.360   9.885
 2531POPC   PO433492  25.836  35.290   9.508
 2531POPC   GL133493  25.943  35.303   9.079
 2531POPC   GL233494  26.294  35.339   9.041
 2531POPC   C1A33495  25.956  35.589   8.736
 2531POPC   D2A33496  25.691  35.722   8.390
 2531POPC   C3A33497  25.819  35.632   7.981
 2531POPC   C4A33498  25.901  35.316   7.688
 2531POPC   C1B33499  26.229  35.132   8.667
 2531POPC   C2B33500  26.106  35.343   8.311
 2531POPC   C3B33501  26.291  35.431   7.966
 2531POPC   C4B33502  26.405  35.148   7.637
 2532POPC   NC333503  15.287  10.894   9.379
 2532POPC   PO433504  15.469  10.229   9.482
 2532POPC   GL133505  15.154  10.417   9.190
 2532POPC   GL233506  14.867  10.208   9.077
 2532POPC   C1A33507  15.055  10.641   8.819
 2532POPC   D2A33508  15.289  10.699   8.470
 2532POPC   C3A33509  15.015  10.811   8.131
 2532POPC   C4A33510  15.132  10.689   7.753
 2532POPC   C1B33511  15.084  10.151   8.682
 2532POPC   C2B33512  15.043  10.308   8.281
 2532POPC   C3B33513  14.874  10.262   7.897
 2532POPC   C4B33514  14.989  10.004   7.589
 2533POPC   NC333515  21.075  12.969   9.613
 2533POPC   PO433516  21.250  12.308   9.618
 2533POPC   GL133517  21.274  12.629   9.238
 2533POPC   GL233518  21.581  12.830   9.196
 2533POPC   C1A33519  21.235  12.860   8.813
 2533POPC   D2A33520  21.128  12.746   8.373
 2533POPC   C3A33521  21.332  12.864   7.996
 2533POPC   C4A33522  21.243  13.018   7.628
 2533POPC   C1B33523  21.704  12.608   8.767
 2533POPC   C2B33524  21.628  12.559   8.304
 2533POPC   C3B33525  21.769  12.579   7.854
 2533POPC   C4B33526  21.782  12.570   7.354
 2534POPC   NC333527  17.170   9.027   9.396
 2534POPC   PO433528  16.568   8.851   9.308
 2534POPC   GL133529  16.840   8.925   8.994
 2534POPC   GL233530  16.526   9.101   8.845
 2534POPC   C1A33531  16.929   8.975   8.560
 2534POPC   D2A33532  16.667   9.156   8.238
 2534POPC   C3A33533  16.956   9.237   7.924
 2534POPC   C4A33534  16.966   9.186   7.461
 2534POPC   C1B33535  16.512   8.656   8.698
 2534POPC   C2B33536  16.704   8.554   8.354
 2534POPC   C3B33537  16.471   8.728   8.057
 2534POPC   C4B33538  16.529   9.035   7.727
 2535POPC   NC333539  41.270  23.208   9.335
 2535POPC   PO433540  41.686  22.730   9.629
 2535POPC   GL133541  41.663  22.909   9.201
 2535POPC   GL233542  41.417  22.695   9.062
 2535POPC   C1A33543  41.718  22.910   8.736
 2535POPC   D2A33544  41.653  23.088   8.290
 2535POPC   C3A33545  41.506  22.850   7.932
 2535POPC   C4A33546  41.135  22.589   7.824
 2535POPC   C1B33547  41.212  22.883   8.750
 2535POPC   C2B33548  41.235  22.739   8.349
 2535POPC   C3B33549  41.015  23.016   8.073
 2535POPC   C4B33550  41.116  23.139   7.689
 2536POPC   NC333551  10.650  44.518   9.903
 2536POPC   PO433552  10.192  44.936   9.628
 2536POPC   GL133553  10.389  44.842   9.203
 2536POPC   GL233554  10.645  44.554   9.145
 2536POPC   C1A33555  10.498  44.920   8.759
 2536POPC   D2A33556  10.277   0.058   8.362
 2536POPC   C3A33557  10.331  44.760   8.007
 2536POPC   C4A33558  10.486  44.799   7.573
 2536POPC   C1B33559  10.880  44.491   8.725
 2536POPC   C2B33560  10.974  44.580   8.270
 2536POPC   C3B33561  10.764  44.428   7.865
 2536POPC   C4B33562  10.726  44.398   7.398
 2537POPC   NC333563   8.292   9.723   9.552
 2537POPC   PO433564   8.550  10.436   9.579
 2537POPC   GL133565   8.412  10.089   9.250
 2537POPC   GL233566   8.047   9.969   9.161
 2537POPC   C1A33567   8.423   9.910   8.813
 2537POPC   D2A33568   8.551   9.752   8.385
 2537POPC   C3A33569   8.339   9.852   8.010
 2537POPC   C4A33570   8.332   9.688   7.586
 2537POPC   C1B33571   7.958   9.739   8.757
 2537POPC   C2B33572   8.012   9.612   8.314
 2537POPC   C3B33573   7.847   9.718   7.875
 2537POPC   C4B33574   7.862   9.575   7.452
 2538POPC   NC333575  17.582  15.021   9.825
 2538POPC   PO433576  17.345  14.399   9.554
 2538POPC   GL133577  17.205  14.463   9.118
 2538POPC   GL233578  17.542  14.543   9.040
 2538POPC   C1A33579  17.251  14.313   8.681
 2538POPC   D2A33580  17.484  14.205   8.314
 2538POPC   C3A33581  17.276  14.370   7.976
 2538POPC   C4A33582  17.508  14.323   7.663
 2538POPC   C1B33583  17.702  14.547   8.640
 2538POPC   C2B33584  17.435  14.704   8.332
 2538POPC   C3B33585  17.483  14.866   7.933
 2538POPC   C4B33586  17.377  14.787   7.521
 2539POPC   NC333587  40.153  10.435   9.516
 2539POPC   PO433588  40.100  11.090   9.479
 2539POPC   GL133589  40.077  10.761   9.108
 2539POPC   GL233590  39.845  10.446   9.111
 2539POPC   C1A33591  40.095  10.758   8.636
 2539POPC   D2A33592  39.925  10.709   8.206
 2539POPC   C3A33593  40.249  10.688   7.862
 2539POPC   C4A33594  40.289  10.709   7.397
 2539POPC   C1B33595  40.022  10.255   8.731
 2539POPC   C2B33596  40.158  10.257   8.273
 2539POPC   C3B33597  39.908  10.304   7.868
 2539POPC   C4B33598  39.851  10.402   7.396
 2540POPC   NC333599  39.407   6.116   9.555
 2540POPC   PO433600  38.811   5.858   9.650
 2540POPC   GL133601  39.026   6.021   9.250
 2540POPC   GL233602  39.336   5.885   9.085
 2540POPC   C1A33603  38.939   6.053   8.822
 2540POPC   D2A33604  38.921   5.837   8.447
 2540POPC   C3A33605  39.265   5.868   8.190
 2540POPC   C4A33606  39.124   5.901   7.762
 2540POPC   C1B33607  39.474   5.656   8.705
 2540POPC   C2B33608  39.575   5.443   8.306
 2540POPC   C3B33609  39.623   5.650   7.903
 2540POPC   C4B33610  39.618   6.030   7.675
 2541POPC   NC333611   9.038  42.577   9.913
 2541POPC   PO433612   9.198  43.153   9.521
 2541POPC   GL133613   9.066  42.962   9.123
 2541POPC   GL233614   9.285  42.766   8.939
 2541POPC   C1A33615   9.061  43.220   8.750
 2541POPC   D2A33616   8.850  43.360   8.402
 2541POPC   C3A33617   8.958  43.201   8.040
 2541POPC   C4A33618   8.852  43.444   7.684
 2541POPC   C1B33619   8.932  42.741   8.616
 2541POPC   C2B33620   8.701  42.512   8.281
 2541POPC   C3B33621   8.608  42.651   7.833
 2541POPC   C4B33622   8.861  42.955   7.606
 2542POPC   NC333623  25.315  39.572   9.537
 2542POPC   PO433624  25.114  38.948   9.554
 2542POPC   GL133625  25.143  39.219   9.204
 2542POPC   GL233626  25.451  39.079   9.146
 2542POPC   C1A33627  25.312  39.425   8.820
 2542POPC   D2A33628  25.523  39.275   8.461
 2542POPC   C3A33629  25.410  39.517   8.106
 2542POPC   C4A33630  25.481  39.314   7.724
 2542POPC   C1B33631  25.295  38.919   8.764
 2542POPC   C2B33632  25.239  38.709   8.420
 2542POPC   C3B33633  25.349  38.916   8.064
 2542POPC   C4B33634  25.207  38.840   7.638
 2543POPC   NC333635  30.506  12.266   9.563
 2543POPC   PO433636  31.201  12.585   9.474
 2543POPC   GL133637  30.883  12.288   9.212
 2543POPC   GL233638  30.671  11.960   9.197
 2543POPC   C1A33639  30.660  12.296   8.793
 2543POPC   D2A33640  30.863  12.185   8.387
 2543POPC   C3A33641  30.689  12.286   7.982
 2543POPC   C4A33642  30.563  12.126   7.595
 2543POPC   C1B33643  30.857  11.716   8.861
 2543POPC   C2B33644  30.813  11.588   8.445
 2543POPC   C3B33645  30.703  11.791   8.093
 2543POPC   C4B33646  30.965  11.710   7.789
 2544POPC   NC333647  33.160  27.664   9.409
 2544POPC   PO433648  32.590  27.594   9.373
 2544POPC   GL133649  32.872  27.415   9.059
 2544POPC   GL233650  32.927  27.769   8.962
 2544POPC   C1A33651  33.140  27.427   8.681
 2544POPC   D2A33652  33.102  27.804   8.449
 2544POPC   C3A33653  33.149  27.770   8.024
 2544POPC   C4A33654  33.170  27.447   7.730
 2544POPC   C1B33655  32.665  27.568   8.611
 2544POPC   C2B33656  32.807  27.352   8.226
 2544POPC   C3B33657  32.688  27.308   7.774
 2544POPC   C4B33658  32.500  27.625   7.495
 2545POPC   NC333659  34.597  35.757   9.484
 2545POPC   PO433660  34.241  36.257   9.423
 2545POPC   GL133661  34.594  36.244   9.158
 2545POPC   GL233662  34.489  35.935   9.033
 2545POPC   C1A33663  34.773  36.219   8.725
 2545POPC   D2A33664  34.600  36.018   8.337
 2545POPC   C3A33665  34.773  36.127   7.899
 2545POPC   C4A33666  34.559  36.030   7.494
 2545POPC   C1B33667  34.253  36.214   8.745
 2545POPC   C2B33668  34.298  36.434   8.369
 2545POPC   C3B33669  34.270  36.239   7.946
 2545POPC   C4B33670  34.092  36.293   7.517
 2546POPC   NC333671  21.257  19.223   9.451
 2546POPC   PO433672  21.791  18.739   9.421
 2546POPC   GL133673  21.551  18.986   9.085
 2546POPC   GL233674  21.161  18.924   9.063
 2546POPC   C1A33675  21.698  19.172   8.683
 2546POPC   D2A33676  21.596  19.114   8.261
 2546POPC   C3A33677  21.742  19.205   7.844
 2546POPC   C4A33678  21.567  18.931   7.503
 2546POPC   C1B33679  21.127  19.213   8.732
 2546POPC   C2B33680  21.088  19.029   8.326
 2546POPC   C3B33681  21.251  19.059   7.908
 2546POPC   C4B33682  21.059  19.160   7.546
 2547POPC   NC333683  33.299   5.728   9.576
 2547POPC   PO433684  33.891   6.007   9.767
 2547POPC   GL133685  33.863   5.951   9.304
 2547POPC   GL233686  33.515   6.104   9.289
 2547POPC   C1A33687  34.016   5.832   8.857
 2547POPC   D2A33688  33.967   5.589   8.472
 2547POPC   C3A33689  33.962   5.874   8.102
 2547POPC   C4A33690  33.736   5.974   7.721
 2547POPC   C1B33691  33.534   5.793   8.936
 2547POPC   C2B33692  33.585   5.911   8.513
 2547POPC   C3B33693  33.444   5.969   8.126
 2547POPC   C4B33694  33.358   5.634   7.813
 2548POPC   NC333695  36.828   0.177   9.496
 2548POPC   PO433696  37.321   0.671   9.680
 2548POPC   GL133697  37.124   0.515   9.263
 2548POPC   GL233698  36.795   0.677   9.189
 2548POPC   C1A33699  36.968   0.259   8.855
 2548POPC   D2A33700  37.195   0.223   8.439
 2548POPC   C3A33701  37.233   0.539   8.110
 2548POPC   C4A33702  37.028   0.354   7.773
 2548POPC   C1B33703  36.579   0.556   8.818
 2548POPC   C2B33704  36.810   0.590   8.443
 2548POPC   C3B33705  36.753   0.688   8.011
 2548POPC   C4B33706  36.652   0.642   7.573
 2549POPC   NC333707   5.725  20.071   9.389
 2549POPC   PO433708   6.011  19.436   9.491
 2549POPC   GL133709   5.904  19.646   9.149
 2549POPC   GL233710   5.592  19.536   9.094
 2549POPC   C1A33711   5.966  19.839   8.759
 2549POPC   D2A33712   5.929  19.648   8.359
 2549POPC   C3A33713   6.026  19.929   8.061
 2549POPC   C4A33714   5.934  20.011   7.697
 2549POPC   C1B33715   5.545  19.536   8.683
 2549POPC   C2B33716   5.442  19.527   8.248
 2549POPC   C3B33717   5.684  19.608   7.873
 2549POPC   C4B33718   5.739  19.543   7.411
 2550POPC   NC333719  17.424   3.252   9.457
 2550POPC   PO433720  17.799   3.766   9.362
 2550POPC   GL133721  17.578   3.731   8.975
 2550POPC   GL233722  17.307   3.554   9.050
 2550POPC   C1A33723  17.478   3.736   8.523
 2550POPC   D2A33724  17.701   3.472   8.245
 2550POPC   C3A33725  17.565   3.476   7.867
 2550POPC   C4A33726  17.358   3.169   7.777
 2550POPC   C1B33727  17.370   3.247   8.712
 2550POPC   C2B33728  17.224   3.280   8.298
 2550POPC   C3B33729  17.153   3.675   8.095
 2550POPC   C4B33730  17.081   3.586   7.676
 2551POPC   NC333731  41.037   4.239   9.453
 2551POPC   PO433732  40.544   4.496   9.094
 2551POPC   GL133733  40.708   4.218   8.875
 2551POPC   GL233734  41.015   4.307   8.968
 2551POPC   C1A33735  40.721   4.066   8.489
 2551POPC   D2A33736  40.483   4.303   8.250
 2551POPC   C3A33737  40.588   4.351   7.856
 2551POPC   C4A33738  40.949   4.426   7.719
 2551POPC   C1B33739  41.139   3.935   8.823
 2551POPC   C2B33740  41.199   3.909   8.418
 2551POPC   C3B33741  41.001   4.014   8.043
 2551POPC   C4B33742  40.949   3.867   7.651
 2552POPC   NC333743   0.278   2.404   9.342
 2552POPC   PO433744   0.463   3.036   9.483
 2552POPC   GL133745   0.440   3.089   9.082
 2552POPC   GL233746   0.738   2.918   9.037
 2552POPC   C1A33747   0.341   2.946   8.681
 2552POPC   D2A33748   0.242   2.693   8.330
 2552POPC   C3A33749   0.163   2.852   7.875
 2552POPC   C4A33750   0.299   2.813   7.426
 2552POPC   C1B33751   0.811   2.668   8.718
 2552POPC   C2B33752   0.780   2.514   8.342
 2552POPC   C3B33753   0.593   2.595   7.987
 2552POPC   C4B33754   0.752   2.680   7.617
 2553POPC   NC333755  37.324  40.048   9.490
 2553POPC   PO433756  37.942  40.112   9.477
 2553POPC   GL133757  37.706  39.917   9.114
 2553POPC   GL233758  37.339  39.951   9.000
 2553POPC   C1A33759  37.722  39.949   8.660
 2553POPC   D2A33760  37.534  39.848   8.275
 2553POPC   C3A33761  37.844  39.792   7.979
 2553POPC   C4A33762  37.874  39.984   7.611
 2553POPC   C1B33763  37.254  39.618   8.677
 2553POPC   C2B33764  37.129  39.533   8.231
 2553POPC   C3B33765  37.364  39.629   7.799
 2553POPC   C4B33766  37.417  39.666   7.344
 2554POPC   NC333767  28.475  37.889   9.547
 2554POPC   PO433768  28.377  37.293   9.369
 2554POPC   GL133769  28.385  37.662   9.105
 2554POPC   GL233770  28.716  37.827   9.106
 2554POPC   C1A33771  28.381  37.957   8.730
 2554POPC   D2A33772  28.350  38.005   8.290
 2554POPC   C3A33773  28.069  37.718   8.076
 2554POPC   C4A33774  28.154  37.571   7.668
 2554POPC   C1B33775  28.687  37.537   8.745
 2554POPC   C2B33776  28.405  37.515   8.450
 2554POPC   C3B33777  28.546  37.538   8.062
 2554POPC   C4B33778  28.651  37.448   7.669
 2555POPC   NC333779  12.173  31.034   9.431
 2555POPC   PO433780  11.603  30.635   9.505
 2555POPC   GL133781  11.805  30.804   9.113
 2555POPC   GL233782  12.082  30.599   9.074
 2555POPC   C1A33783  12.011  30.859   8.666
 2555POPC   D2A33784  12.268  30.776   8.352
 2555POPC   C3A33785  12.336  31.014   8.049
 2555POPC   C4A33786  12.337  30.944   7.693
 2555POPC   C1B33787  11.718  30.461   8.740
 2555POPC   C2B33788  11.812  30.522   8.306
 2555POPC   C3B33789  12.025  30.585   7.934
 2555POPC   C4B33790  11.695  30.642   7.707
 2556POPC   NC333791  38.792  29.720   9.507
 2556POPC   PO433792  38.265  30.100   9.427
 2556POPC   GL133793  38.557  29.988   9.128
 2556POPC   GL233794  38.639  30.296   9.028
 2556POPC   C1A33795  38.615  29.821   8.717
 2556POPC   D2A33796  38.506  29.865   8.263
 2556POPC   C3A33797  38.692  29.664   7.869
 2556POPC   C4A33798  38.375  29.610   7.515
 2556POPC   C1B33799  38.512  30.299   8.595
 2556POPC   C2B33800  38.849  30.266   8.331
 2556POPC   C3B33801  38.763  30.164   7.936
 2556POPC   C4B33802  38.393  30.055   7.766
 2557POPC   NC333803  14.274  36.566   9.413
 2557POPC   PO433804  14.615  37.162   9.350
 2557POPC   GL133805  14.278  37.015   9.062
 2557POPC   GL233806  14.094  36.698   8.973
 2557POPC   C1A33807  14.397  36.963   8.657
 2557POPC   D2A33808  14.609  36.792   8.336
 2557POPC   C3A33809  14.610  37.150   8.091
 2557POPC   C4A33810  14.606  37.160   7.668
 2557POPC   C1B33811  14.283  36.425   8.690
 2557POPC   C2B33812  14.099  36.281   8.335
 2557POPC   C3B33813  14.248  36.489   7.996
 2557POPC   C4B33814  14.199  36.854   7.813
 2558POPC   NC333815  26.275  29.116   9.471
 2558POPC   PO433816  25.801  28.594   9.546
 2558POPC   GL133817  25.793  28.806   9.142
 2558POPC   GL233818  25.891  29.150   9.099
 2558POPC   C1A33819  25.820  28.856   8.677
 2558POPC   D2A33820  25.927  29.231   8.368
 2558POPC   C3A33821  25.941  29.119   7.907
 2558POPC   C4A33822  25.693  28.845   7.600
 2558POPC   C1B33823  26.206  29.403   8.866
 2558POPC   C2B33824  26.307  29.550   8.475
 2558POPC   C3B33825  26.404  29.351   8.110
 2558POPC   C4B33826  26.250  29.497   7.709
 2559POPC   NC333827  31.252  34.124   9.335
 2559POPC   PO433828  31.592  33.514   9.425
 2559POPC   GL133829  31.529  33.777   9.061
 2559POPC   GL233830  31.734  34.071   8.958
 2559POPC   C1A33831  31.469  33.657   8.648
 2559POPC   D2A33832  31.723  33.438   8.362
 2559POPC   C3A33833  31.645  33.734   8.022
 2559POPC   C4A33834  31.241  33.709   7.847
 2559POPC   C1B33835  31.430  34.199   8.654
 2559POPC   C2B33836  31.341  34.141   8.207
 2559POPC   C3B33837  31.432  34.185   7.765
 2559POPC   C4B33838  31.256  34.263   7.321
 2560POPC   NC333839  21.335  16.372   9.679
 2560POPC   PO433840  21.651  15.829   9.465
 2560POPC   GL133841  21.641  16.068   9.101
 2560POPC   GL233842  21.288  16.172   9.162
 2560POPC   C1A33843  21.676  15.946   8.646
 2560POPC   D2A33844  21.425  15.649   8.363
 2560POPC   C3A33845  21.295  15.755   7.934
 2560POPC   C4A33846  21.586  16.031   7.724
 2560POPC   C1B33847  21.183  15.922   8.772
 2560POPC   C2B33848  21.030  15.994   8.347
 2560POPC   C3B33849  21.208  16.261   8.013
 2560POPC   C4B33850  21.115  16.162   7.589
 2561POPC   NC333851  37.581  30.908   9.568
 2561POPC   PO433852  37.174  30.588   9.121
 2561POPC   GL133853  37.642  30.634   9.128
 2561POPC   GL233854  37.844  30.983   9.121
 2561POPC   C1A33855  37.688  30.535   8.695
 2561POPC   D2A33856  37.404  30.643   8.352
 2561POPC   C3A33857  37.546  30.759   7.938
 2561POPC   C4A33858  37.462  30.614   7.546
 2561POPC   C1B33859  38.082  30.842   8.754
 2561POPC   C2B33860  37.952  30.708   8.306
 2561POPC   C3B33861  38.040  30.906   7.928
 2561POPC   C4B33862  37.885  30.895   7.508
 2562POPC   NC333863  28.649  12.647   9.489
 2562POPC   PO433864  27.966  12.735   9.325
 2562POPC   GL133865  28.349  12.718   9.088
 2562POPC   GL233866  28.458  12.392   9.086
 2562POPC   C1A33867  28.551  12.829   8.715
 2562POPC   D2A33868  28.397  13.058   8.372
 2562POPC   C3A33869  28.475  12.897   7.967
 2562POPC   C4A33870  28.197  12.989   7.622
 2562POPC   C1B33871  28.230  12.404   8.687
 2562POPC   C2B33872  28.229  12.530   8.251
 2562POPC   C3B33873  28.132  12.488   7.820
 2562POPC   C4B33874  27.822  12.676   7.507
 2563POPC   NC333875  40.347  14.183   9.499
 2563POPC   PO433876  41.005  14.264   9.442
 2563POPC   GL133877  40.689  14.364   9.174
 2563POPC   GL233878  40.709  14.682   9.216
 2563POPC   C1A33879  40.711  14.314   8.753
 2563POPC   D2A33880  40.936  14.501   8.426
 2563POPC   C3A33881  40.649  14.478   8.068
 2563POPC   C4A33882  40.673  14.313   7.651
 2563POPC   C1B33883  40.913  14.837   8.855
 2563POPC   C2B33884  40.924  15.080   8.490
 2563POPC   C3B33885  40.947  14.915   8.120
 2563POPC   C4B33886  40.956  14.731   7.740
 2564POPC   NC333887   1.972  27.435   9.541
 2564POPC   PO433888   2.436  27.969   9.646
 2564POPC   GL133889   2.285  27.736   9.248
 2564POPC   GL233890   1.877  27.753   9.174
 2564POPC   C1A33891   2.215  27.669   8.803
 2564POPC   D2A33892   1.991  27.584   8.422
 2564POPC   C3A33893   2.221  27.573   8.049
 2564POPC   C4A33894   2.396  27.532   7.649
 2564POPC   C1B33895   1.741  27.900   8.777
 2564POPC   C2B33896   1.659  27.990   8.349
 2564POPC   C3B33897   1.772  27.790   7.952
 2564POPC   C4B33898   1.843  27.801   7.497
 2565POPC   NC333899   7.262  34.218   9.469
 2565POPC   PO433900   7.512  34.878   9.484
 2565POPC   GL133901   7.309  34.636   9.160
 2565POPC   GL233902   7.606  34.421   9.123
 2565POPC   C1A33903   7.051  34.664   8.768
 2565POPC   D2A33904   7.292  34.713   8.364
 2565POPC   C3A33905   7.136  34.748   7.936
 2565POPC   C4A33906   7.311  34.595   7.554
 2565POPC   C1B33907   7.844  34.390   8.725
 2565POPC   C2B33908   7.827  34.658   8.389
 2565POPC   C3B33909   7.687  34.620   7.958
 2565POPC   C4B33910   7.824  34.579   7.519
 2566POPC   NC333911  39.113  24.588   9.816
 2566POPC   PO433912  39.651  24.406   9.522
 2566POPC   GL133913  39.356  24.607   9.260
 2566POPC   GL233914  39.228  24.296   9.164
 2566POPC   C1A33915  39.095  24.725   8.894
 2566POPC   D2A33916  38.916  24.519   8.529
 2566POPC   C3A33917  39.089  24.624   8.135
 2566POPC   C4A33918  39.042  24.312   7.835
 2566POPC   C1B33919  39.520  24.430   8.818
 2566POPC   C2B33920  39.403  24.333   8.410
 2566POPC   C3B33921  39.537  24.383   8.015
 2566POPC   C4B33922  39.489  24.143   7.683
 2567POPC   NC333923  12.179   9.197   9.565
 2567POPC   PO433924  12.246   8.469   9.544
 2567POPC   GL133925  12.200   8.738   9.166
 2567POPC   GL233926  12.073   9.105   9.086
 2567POPC   C1A33927  12.329   8.667   8.743
 2567POPC   D2A33928  12.232   8.911   8.398
 2567POPC   C3A33929  12.240   8.793   7.999
 2567POPC   C4A33930  12.288   9.051   7.661
 2567POPC   C1B33931  11.859   8.940   8.747
 2567POPC   C2B33932  11.709   8.982   8.336
 2567POPC   C3B33933  11.848   9.141   7.946
 2567POPC   C4B33934  11.828   9.174   7.484
 2568POPC   NC333935   6.617  40.224   9.421
 2568POPC   PO433936   6.068  39.804   9.380
 2568POPC   GL133937   6.394  39.876   9.064
 2568POPC   GL233938   6.767  39.987   9.006
 2568POPC   C1A33939   6.341  40.083   8.662
 2568POPC   D2A33940   6.412  40.338   8.290
 2568POPC   C3A33941   6.405  40.138   7.897
 2568POPC   C4A33942   6.437  39.715   7.810
 2568POPC   C1B33943   6.765  39.770   8.633
 2568POPC   C2B33944   6.718  39.862   8.211
 2568POPC   C3B33945   6.924  39.849   7.803
 2568POPC   C4B33946   7.033  40.114   7.433
 2569POPC   NC333947   5.702   9.096   9.530
 2569POPC   PO433948   6.136   8.571   9.343
 2569POPC   GL133949   5.786   8.741   9.168
 2569POPC   GL233950   6.010   9.037   9.139
 2569POPC   C1A33951   5.713   8.891   8.754
 2569POPC   D2A33952   5.962   8.668   8.455
 2569POPC   C3A33953   5.928   8.857   8.047
 2569POPC   C4A33954   6.012   8.640   7.674
 2569POPC   C1B33955   6.116   9.321   8.782
 2569POPC   C2B33956   5.926   9.408   8.397
 2569POPC   C3B33957   6.020   9.404   7.968
 2569POPC   C4B33958   5.918   9.183   7.633
 2570POPC   NC333959  34.739  34.194   9.658
 2570POPC   PO433960  34.273  34.686   9.484
 2570POPC   GL133961  34.512  34.664   9.097
 2570POPC   GL233962  34.824  34.459   9.137
 2570POPC   C1A33963  34.709  34.702   8.695
 2570POPC   D2A33964  34.727  34.510   8.311
 2570POPC   C3A33965  34.723  34.772   7.977
 2570POPC   C4A33966  34.489  34.586   7.675
 2570POPC   C1B33967  34.759  34.197   8.751
 2570POPC   C2B33968  34.851  34.023   8.359
 2570POPC   C3B33969  34.735  34.129   7.918
 2570POPC   C4B33970  34.893  34.314   7.527
 2571POPC   NC333971  40.558  21.521   9.597
 2571POPC   PO433972  41.001  21.069   9.502
 2571POPC   GL133973  40.777  21.294   9.169
 2571POPC   GL233974  40.908  21.621   9.228
 2571POPC   C1A33975  40.697  21.539   8.769
 2571POPC   D2A33976  40.874  21.730   8.397
 2571POPC   C3A33977  40.721  21.614   8.022
 2571POPC   C4A33978  40.786  21.285   7.743
 2571POPC   C1B33979  41.198  21.466   8.889
 2571POPC   C2B33980  41.195  21.320   8.461
 2571POPC   C3B33981  41.233  21.388   8.005
 2571POPC   C4B33982  41.221  21.028   7.744
 2572POPC   NC333983  24.757  35.733   9.358
 2572POPC   PO433984  24.423  35.281   9.615
 2572POPC   GL133985  24.540  35.246   9.185
 2572POPC   GL233986  24.214  35.113   9.140
 2572POPC   C1A33987  24.464  35.482   8.785
 2572POPC   D2A33988  24.245  35.547   8.391
 2572POPC   C3A33989  24.472  35.499   7.990
 2572POPC   C4A33990  24.615  35.761   7.643
 2572POPC   C1B33991  24.019  35.172   8.746
 2572POPC   C2B33992  24.086  35.060   8.342
 2572POPC   C3B33993  24.121  35.135   7.920
 2572POPC   C4B33994  24.023  35.013   7.503
 2573POPC   NC333995  44.405  14.075   9.430
 2573POPC   PO433996  44.882  14.491   9.656
 2573POPC   GL133997  44.736  14.418   9.174
 2573POPC   GL233998  44.437  14.512   9.098
 2573POPC   C1A33999  44.576  14.100   8.799
 2573POPC   D2A34000  44.356  14.176   8.406
 2573POPC   C3A34001  44.606  14.407   8.104
 2573POPC   C4A34002  44.726  14.331   7.663
 2573POPC   C1B34003  44.603  14.593   8.695
 2573POPC   C2B34004  44.285  14.708   8.417
 2573POPC   C3B34005  44.316  14.898   8.041
 2573POPC   C4B34006  44.746  14.826   7.859
 2574POPC   NC334007  36.364  20.753   9.339
 2574POPC   PO434008  35.821  20.401   9.375
 2574POPC   GL134009  36.030  20.573   9.022
 2574POPC   GL234010  35.969  20.945   9.065
 2574POPC   C1A34011  36.207  20.450   8.619
 2574POPC   D2A34012  36.242  20.265   8.155
 2574POPC   C3A34013  36.391  20.458   7.761
 2574POPC   C4A34014  36.389  20.880   7.596
 2574POPC   C1B34015  35.808  20.855   8.652
 2574POPC   C2B34016  35.904  20.651   8.286
 2574POPC   C3B34017  35.963  20.666   7.903
 2574POPC   C4B34018  35.902  21.046   7.735
 2575POPC   NC334019  18.146   5.750   9.781
 2575POPC   PO434020  18.628   6.092   9.425
 2575POPC   GL134021  18.482   6.057   8.977
 2575POPC   GL234022  18.522   5.669   8.864
 2575POPC   C1A34023  18.125   5.917   8.683
 2575POPC   D2A34024  18.400   5.992   8.374
 2575POPC   C3A34025  18.208   5.904   8.010
 2575POPC   C4A34026  18.180   5.581   7.784
 2575POPC   C1B34027  18.834   5.925   8.674
 2575POPC   C2B34028  18.950   6.058   8.341
 2575POPC   C3B34029  18.750   5.926   8.020
 2575POPC   C4B34030  18.565   6.119   7.682
 2576POPC   NC334031  34.415   2.549   9.421
 2576POPC   PO434032  34.854   2.951   9.634
 2576POPC   GL134033  34.596   2.927   9.133
 2576POPC   GL234034  34.352   3.216   9.028
 2576POPC   C1A34035  34.638   2.692   8.714
 2576POPC   D2A34036  34.502   2.611   8.298
 2576POPC   C3A34037  34.689   2.655   7.895
 2576POPC   C4A34038  34.577   2.447   7.499
 2576POPC   C1B34039  34.241   3.016   8.654
 2576POPC   C2B34040  34.084   2.908   8.280
 2576POPC   C3B34041  34.344   3.027   7.964
 2576POPC   C4B34042  34.350   2.896   7.559
 2577POPC   NC334043  28.797  20.518   9.351
 2577POPC   PO434044  29.422  20.647   9.389
 2577POPC   GL134045  29.174  20.572   9.007
 2577POPC   GL234046  28.914  20.841   8.973
 2577POPC   C1A34047  29.240  20.342   8.608
 2577POPC   D2A34048  29.373  20.557   8.216
 2577POPC   C3A34049  29.474  20.362   7.828
 2577POPC   C4A34050  29.311  20.431   7.417
 2577POPC   C1B34051  28.747  20.499   8.672
 2577POPC   C2B34052  28.873  20.465   8.233
 2577POPC   C3B34053  28.939  20.565   7.825
 2577POPC   C4B34054  28.618  20.680   7.521
 2578POPC   NC334055  38.564  18.056   9.531
 2578POPC   PO434056  38.194  18.635   9.536
 2578POPC   GL134057  38.294  18.400   9.165
 2578POPC   GL234058  38.511  18.145   9.053
 2578POPC   C1A34059  38.226  18.449   8.716
 2578POPC   D2A34060  38.327  18.130   8.413
 2578POPC   C3A34061  38.239  18.199   7.980
 2578POPC   C4A34062  38.532  18.085   7.651
 2578POPC   C1B34063  38.747  18.400   8.826
 2578POPC   C2B34064  38.666  18.538   8.438
 2578POPC   C3B34065  38.710  18.340   8.090
 2578POPC   C4B34066  38.922  18.439   7.752
 2579POPC   NC334067  23.325  27.033   9.522
 2579POPC   PO434068  22.630  26.890   9.482
 2579POPC   GL134069  22.851  26.606   9.197
 2579POPC   GL234070  23.221  26.669   9.179
 2579POPC   C1A34071  22.885  26.586   8.746
 2579POPC   D2A34072  22.737  26.742   8.355
 2579POPC   C3A34073  22.781  26.463   8.021
 2579POPC   C4A34074  22.804  26.670   7.647
 2579POPC   C1B34075  23.290  26.910   8.793
 2579POPC   C2B34076  23.247  27.076   8.379
 2579POPC   C3B34077  23.089  26.920   8.012
 2579POPC   C4B34078  23.224  26.949   7.616
 2580POPC   NC334079  37.695  28.419   9.674
 2580POPC   PO434080  38.112  28.749   9.448
 2580POPC   GL134081  37.824  28.474   9.146
 2580POPC   GL234082  37.470  28.419   9.178
 2580POPC   C1A34083  37.665  28.177   8.776
 2580POPC   D2A34084  37.586  27.919   8.395
 2580POPC   C3A34085  37.747  28.103   8.039
 2580POPC   C4A34086  38.106  28.068   7.828
 2580POPC   C1B34087  37.306  28.562   8.792
 2580POPC   C2B34088  37.335  28.381   8.381
 2580POPC   C3B34089  37.377  28.443   7.963
 2580POPC   C4B34090  37.386  28.683   7.610
 2581POPC   NC334091  17.293   8.041   9.510
 2581POPC   PO434092  17.804   8.377   9.371
 2581POPC   GL134093  17.602   8.211   9.065
 2581POPC   GL234094  17.547   7.911   9.090
 2581POPC   C1A34095  17.456   8.198   8.664
 2581POPC   D2A34096  17.414   8.018   8.257
 2581POPC   C3A34097  17.678   8.271   8.031
 2581POPC   C4A34098  17.700   8.457   7.648
 2581POPC   C1B34099  17.548   7.684   8.676
 2581POPC   C2B34100  17.720   7.584   8.254
 2581POPC   C3B34101  17.707   7.806   7.859
 2581POPC   C4B34102  17.810   7.792   7.413
 2582POPC   NC334103  26.986  21.794   9.473
 2582POPC   PO434104  27.063  21.142   9.616
 2582POPC   GL134105  26.947  21.268   9.204
 2582POPC   GL234106  26.604  21.270   9.235
 2582POPC   C1A34107  27.077  21.349   8.775
 2582POPC   D2A34108  26.920  21.481   8.378
 2582POPC   C3A34109  27.033  21.296   7.971
 2582POPC   C4A34110  27.152  21.497   7.595
 2582POPC   C1B34111  26.559  21.453   8.829
 2582POPC   C2B34112  26.393  21.356   8.434
 2582POPC   C3B34113  26.528  21.512   8.055
 2582POPC   C4B34114  26.571  21.250   7.713
 2583POPC   NC334115  37.004  33.353   9.339
 2583POPC   PO434116  36.882  33.950   9.523
 2583POPC   GL134117  36.790  34.057   9.112
 2583POPC   GL234118  36.871  33.717   9.030
 2583POPC   C1A34119  37.065  34.082   8.747
 2583POPC   D2A34120  37.089  33.920   8.356
 2583POPC   C3A34121  36.692  34.003   8.137
 2583POPC   C4A34122  36.561  34.007   7.706
 2583POPC   C1B34123  36.985  33.505   8.648
 2583POPC   C2B34124  36.847  33.495   8.213
 2583POPC   C3B34125  36.975  33.711   7.823
 2583POPC   C4B34126  37.121  33.510   7.443
 2584POPC   NC334127  22.856  39.651   9.405
 2584POPC   PO434128  23.244  40.132   9.527
 2584POPC   GL134129  23.084  40.077   9.159
 2584POPC   GL234130  22.727  40.138   9.187
 2584POPC   C1A34131  23.195  40.031   8.715
 2584POPC   D2A34132  23.177  39.794   8.334
 2584POPC   C3A34133  23.303  39.949   7.928
 2584POPC   C4A34134  22.956  39.926   7.662
 2584POPC   C1B34135  22.920  40.453   8.884
 2584POPC   C2B34136  22.949  40.450   8.460
 2584POPC   C3B34137  22.817  40.365   8.047
 2584POPC   C4B34138  23.021  40.420   7.689
 2585POPC   NC334139  27.086  27.317   9.544
 2585POPC   PO434140  26.609  27.813   9.478
 2585POPC   GL134141  26.709  27.480   9.206
 2585POPC   GL234142  27.026  27.599   9.096
 2585POPC   C1A34143  26.516  27.445   8.811
 2585POPC   D2A34144  26.660  27.496   8.396
 2585POPC   C3A34145  26.887  27.740   8.101
 2585POPC   C4A34146  26.785  27.477   7.764
 2585POPC   C1B34147  27.015  27.311   8.752
 2585POPC   C2B34148  27.175  27.392   8.352
 2585POPC   C3B34149  27.268  27.375   7.939
 2585POPC   C4B34150  27.189  27.578   7.510
 2586POPC   NC334151   0.100   7.095   9.501
 2586POPC   PO434152   0.171   6.378   9.527
 2586POPC   GL134153   0.307   6.444   9.146
 2586POPC   GL234154   0.568   6.641   9.231
 2586POPC   C1A34155   0.259   6.686   8.784
 2586POPC   D2A34156   0.435   6.836   8.384
 2586POPC   C3A34157   0.269   6.682   7.983
 2586POPC   C4A34158   0.274   6.618   7.540
 2586POPC   C1B34159   0.787   6.707   8.845
 2586POPC   C2B34160   0.877   6.569   8.437
 2586POPC   C3B34161   0.896   6.757   8.029
 2586POPC   C4B34162   0.737   6.883   7.655
 2587POPC   NC334163  12.613  19.341   9.483
 2587POPC   PO434164  13.252  19.157   9.385
 2587POPC   GL134165  13.090  18.960   9.001
 2587POPC   GL234166  12.722  19.022   9.058
 2587POPC   C1A34167  12.909  18.855   8.621
 2587POPC   D2A34168  12.716  19.249   8.490
 2587POPC   C3A34169  12.896  19.459   8.150
 2587POPC   C4A34170  13.033  19.234   7.785
 2587POPC   C1B34171  12.410  18.919   8.727
 2587POPC   C2B34172  12.460  18.828   8.306
 2587POPC   C3B34173  12.713  18.837   7.950
 2587POPC   C4B34174  12.488  18.613   7.648
 2588POPC   NC334175  27.843   9.128   9.436
 2588POPC   PO434176  28.434   8.878   9.358
 2588POPC   GL134177  28.317   9.241   9.086
 2588POPC   GL234178  27.967   9.239   8.962
 2588POPC   C1A34179  28.501   9.360   8.686
 2588POPC   D2A34180  28.595   9.216   8.242
 2588POPC   C3A34181  28.700   8.801   8.110
 2588POPC   C4A34182  28.698   8.589   7.737
 2588POPC   C1B34183  28.177   8.911   8.684
 2588POPC   C2B34184  28.217   8.855   8.237
 2588POPC   C3B34185  28.240   8.861   7.764
 2588POPC   C4B34186  27.989   8.762   7.369
 2589POPC   NC334187   8.320   0.763   9.468
 2589POPC   PO434188   7.935   0.225   9.627
 2589POPC   GL134189   8.093   0.301   9.205
 2589POPC   GL234190   7.983   0.624   9.108
 2589POPC   C1A34191   8.108   0.232   8.744
 2589POPC   D2A34192   8.025   0.449   8.338
 2589POPC   C3A34193   8.001   0.163   7.979
 2589POPC   C4A34194   8.004   0.173   7.521
 2589POPC   C1B34195   8.321   0.713   8.774
 2589POPC   C2B34196   8.441   0.761   8.335
 2589POPC   C3B34197   8.391   0.543   7.940
 2589POPC   C4B34198   8.554   0.656   7.528
 2590POPC   NC334199  20.936  11.468   9.115
 2590POPC   PO434200  21.457  11.280   9.498
 2590POPC   GL134201  21.454  11.267   9.020
 2590POPC   GL234202  21.770  11.122   8.858
 2590POPC   C1A34203  21.264  11.259   8.580
 2590POPC   D2A34204  21.130  11.205   8.152
 2590POPC   C3A34205  21.218  11.520   7.837
 2590POPC   C4A34206  21.127  11.599   7.346
 2590POPC   C1B34207  21.741  11.429   8.592
 2590POPC   C2B34208  21.658  11.370   8.190
 2590POPC   C3B34209  21.563  11.023   7.934
 2590POPC   C4B34210  21.177  10.870   7.765
 2591POPC   NC334211  28.553  28.868   9.258
 2591POPC   PO434212  28.257  29.406   9.505
 2591POPC   GL134213  28.166  29.184   9.120
 2591POPC   GL234214  28.069  28.811   9.088
 2591POPC   C1A34215  28.152  29.138   8.661
 2591POPC   D2A34216  28.221  29.031   8.215
 2591POPC   C3A34217  28.292  29.412   7.940
 2591POPC   C4A34218  28.567  29.418   7.545
 2591POPC   C1B34219  28.277  28.627   8.719
 2591POPC   C2B34220  28.536  28.556   8.342
 2591POPC   C3B34221  28.524  28.692   7.900
 2591POPC   C4B34222  28.308  28.987   7.679
 2592POPC   NC334223  18.506  10.057   9.518
 2592POPC   PO434224  18.060   9.600   9.519
 2592POPC   GL134225  18.193   9.625   9.072
 2592POPC   GL234226  18.255   9.968   9.093
 2592POPC   C1A34227  18.237   9.752   8.593
 2592POPC   D2A34228  18.301   9.519   8.203
 2592POPC   C3A34229  18.068   9.630   7.839
 2592POPC   C4A34230  18.186   9.407   7.440
 2592POPC   C1B34231  18.449  10.196   8.780
 2592POPC   C2B34232  18.359  10.313   8.399
 2592POPC   C3B34233  18.307  10.017   8.121
 2592POPC   C4B34234  18.534   9.856   7.810
 2593POPC   NC334235  13.729  20.392   9.462
 2593POPC   PO434236  13.372  20.989   9.333
 2593POPC   GL134237  13.510  20.662   9.063
 2593POPC   GL234238  13.873  20.613   9.035
 2593POPC   C1A34239  13.570  20.447   8.679
 2593POPC   D2A34240  13.750  20.439   8.296
 2593POPC   C3A34241  13.554  20.244   7.944
 2593POPC   C4A34242  13.382  20.406   7.558
 2593POPC   C1B34243  13.996  20.782   8.639
 2593POPC   C2B34244  13.964  20.901   8.222
 2593POPC   C3B34245  14.027  20.878   7.766
 2593POPC   C4B34246  13.812  20.717   7.383
 2594POPC   NC334247   6.169  21.644   9.480
 2594POPC   PO434248   5.707  21.244   9.534
 2594POPC   GL134249   5.895  21.154   9.162
 2594POPC   GL234250   6.191  20.983   9.162
 2594POPC   C1A34251   5.961  21.376   8.777
 2594POPC   D2A34252   6.044  21.509   8.354
 2594POPC   C3A34253   5.707  21.457   8.071
 2594POPC   C4A34254   5.727  21.374   7.663
 2594POPC   C1B34255   6.058  20.888   8.720
 2594POPC   C2B34256   5.812  21.049   8.374
 2594POPC   C3B34257   5.984  21.027   7.947
 2594POPC   C4B34258   6.237  21.015   7.549
 2595POPC   NC334259  17.103  18.794   9.601
 2595POPC   PO434260  17.606  19.312   9.463
 2595POPC   GL134261  17.570  19.133   9.070
 2595POPC   GL234262  17.312  18.876   9.090
 2595POPC   C1A34263  17.703  19.309   8.678
 2595POPC   D2A34264  17.469  19.373   8.320
 2595POPC   C3A34265  17.615  19.300   7.909
 2595POPC   C4A34266  17.849  19.339   7.533
 2595POPC   C1B34267  17.398  18.910   8.626
 2595POPC   C2B34268  17.543  18.865   8.195
 2595POPC   C3B34269  17.239  18.919   7.861
 2595POPC   C4B34270  17.209  18.692   7.462
 2596POPC   NC334271   4.150  33.275   9.736
 2596POPC   PO434272   4.604  32.880   9.493
 2596POPC   GL134273   4.266  33.139   9.229
 2596POPC   GL234274   4.053  32.962   8.982
 2596POPC   C1A34275   4.189  33.400   8.825
 2596POPC   D2A34276   4.209  33.090   8.492
 2596POPC   C3A34277   4.164  33.237   8.112
 2596POPC   C4A34278   4.276  33.304   7.726
 2596POPC   C1B34279   4.462  32.806   8.826
 2596POPC   C2B34280   4.486  32.549   8.472
 2596POPC   C3B34281   4.360  32.583   8.108
 2596POPC   C4B34282   4.483  32.843   7.840
 2597POPC   NC334283  21.065  30.240   9.550
 2597POPC   PO434284  21.636  29.760   9.602
 2597POPC   GL134285  21.545  29.811   9.165
 2597POPC   GL234286  21.231  29.988   9.123
 2597POPC   C1A34287  21.634  29.666   8.751
 2597POPC   D2A34288  21.843  29.844   8.380
 2597POPC   C3A34289  21.627  29.855   7.940
 2597POPC   C4A34290  21.247  29.903   7.606
 2597POPC   C1B34291  21.354  30.086   8.725
 2597POPC   C2B34292  21.461  30.178   8.331
 2597POPC   C3B34293  21.251  30.221   7.997
 2597POPC   C4B34294  21.294  30.405   7.632
 2598POPC   NC334295  13.452  22.740   9.302
 2598POPC   PO434296  13.609  23.330   9.517
 2598POPC   GL134297  13.346  23.248   9.188
 2598POPC   GL234298  13.672  23.122   9.046
 2598POPC   C1A34299  13.278  23.177   8.747
 2598POPC   D2A34300  13.618  23.312   8.455
 2598POPC   C3A34301  13.594  23.199   8.042
 2598POPC   C4A34302  13.602  22.812   7.851
 2598POPC   C1B34303  13.665  22.842   8.671
 2598POPC   C2B34304  13.576  22.593   8.331
 2598POPC   C3B34305  13.714  22.325   8.024
 2598POPC   C4B34306  13.899  22.444   7.625
 2599POPC   NC334307  30.224   6.704   9.428
 2599POPC   PO434308  29.571   6.907   9.474
 2599POPC   GL134309  29.842   6.836   9.114
 2599POPC   GL234310  29.859   6.460   9.112
 2599POPC   C1A34311  29.889   6.715   8.668
 2599POPC   D2A34312  29.815   6.448   8.335
 2599POPC   C3A34313  29.823   6.676   7.973
 2599POPC   C4A34314  29.800   6.778   7.581
 2599POPC   C1B34315  30.097   6.252   8.771
 2599POPC   C2B34316  30.152   6.071   8.334
 2599POPC   C3B34317  29.938   6.178   7.893
 2599POPC   C4B34318  30.024   6.349   7.448
 2600POPC   NC334319  30.680  43.698   9.538
 2600POPC   PO434320  30.123  43.333   9.710
 2600POPC   GL134321  30.364  43.455   9.222
 2600POPC   GL234322  30.593  43.711   9.051
 2600POPC   C1A34323  30.306  43.464   8.744
 2600POPC   D2A34324  30.465  43.301   8.327
 2600POPC   C3A34325  30.595  43.603   8.003
 2600POPC   C4A34326  30.866  43.945   7.823
 2600POPC   C1B34327  30.483  43.991   8.700
 2600POPC   C2B34328  30.564  44.055   8.247
 2600POPC   C3B34329  30.539  44.352   7.877
 2600POPC   C4B34330  30.847  44.546   7.609
 2601POPC   NC334331  10.177   5.906   9.520
 2601POPC   PO434332  10.723   6.313   9.333
 2601POPC   GL134333  10.316   6.137   9.065
 2601POPC   GL234334  10.250   5.736   9.064
 2601POPC   C1A34335  10.290   5.958   8.614
 2601POPC   D2A34336  10.620   5.734   8.398
 2601POPC   C3A34337  10.677   5.946   8.010
 2601POPC   C4A34338  10.630   6.177   7.663
 2601POPC   C1B34339  10.141   5.445   8.756
 2601POPC   C2B34340  10.207   5.399   8.380
 2601POPC   C3B34341  10.198   5.715   8.109
 2601POPC   C4B34342  10.331   5.637   7.743
 2602POPC   NC334343  37.887  19.797   9.569
 2602POPC   PO434344  37.307  19.835   9.310
 2602POPC   GL134345  37.687  19.732   9.106
 2602POPC   GL234346  38.036  19.898   9.097
 2602POPC   C1A34347  37.725  19.667   8.699
 2602POPC   D2A34348  37.487  19.781   8.338
 2602POPC   C3A34349  37.659  19.592   7.999
 2602POPC   C4A34350  37.847  19.678   7.619
 2602POPC   C1B34351  37.992  20.119   8.702
 2602POPC   C2B34352  37.944  19.992   8.263
 2602POPC   C3B34353  38.079  20.106   7.843
 2602POPC   C4B34354  37.986  20.122   7.387
 2603POPC   NC334355   7.405   9.275   9.440
 2603POPC   PO434356   7.721   8.665   9.493
 2603POPC   GL134357   7.526   8.852   9.164
 2603POPC   GL234358   7.751   9.129   9.080
 2603POPC   C1A34359   7.408   8.798   8.753
 2603POPC   D2A34360   7.324   8.989   8.372
 2603POPC   C3A34361   7.626   8.925   8.037
 2603POPC   C4A34362   7.301   8.854   7.798
 2603POPC   C1B34363   7.732   9.238   8.628
 2603POPC   C2B34364   7.563   9.407   8.218
 2603POPC   C3B34365   7.508   9.341   7.786
 2603POPC   C4B34366   7.717   9.092   7.494
 2604POPC   NC334367  21.318  42.977   9.425
 2604POPC   PO434368  21.993  42.964   9.397
 2604POPC   GL134369  21.720  42.881   9.132
 2604POPC   GL234370  21.690  43.207   9.057
 2604POPC   C1A34371  21.509  42.816   8.764
 2604POPC   D2A34372  21.366  42.862   8.373
 2604POPC   C3A34373  21.613  43.028   8.048
 2604POPC   C4A34374  21.416  42.789   7.759
 2604POPC   C1B34375  21.384  43.323   8.790
 2604POPC   C2B34376  21.476  43.379   8.415
 2604POPC   C3B34377  21.264  43.521   8.139
 2604POPC   C4B34378  21.395  43.473   7.772
 2605POPC   NC334379  24.089  38.278   9.618
 2605POPC   PO434380  23.494  38.612   9.556
 2605POPC   GL134381  23.823  38.545   9.252
 2605POPC   GL234382  23.799  38.214   9.194
 2605POPC   C1A34383  24.055  38.622   8.860
 2605POPC   D2A34384  24.064  38.793   8.418
 2605POPC   C3A34385  23.823  38.538   8.148
 2605POPC   C4A34386  23.598  38.632   7.774
 2605POPC   C1B34387  23.648  38.045   8.803
 2605POPC   C2B34388  23.869  38.007   8.409
 2605POPC   C3B34389  24.033  38.046   8.032
 2605POPC   C4B34390  23.995  38.314   7.714
 2606POPC   NC334391  37.442  25.673   9.520
 2606POPC   PO434392  37.865  26.141   9.549
 2606POPC   GL134393  37.644  26.056   9.188
 2606POPC   GL234394  37.847  25.759   9.196
 2606POPC   C1A34395  37.668  26.311   8.812
 2606POPC   D2A34396  37.898  26.379   8.444
 2606POPC   C3A34397  37.771  26.196   8.093
 2606POPC   C4A34398  37.893  26.049   7.726
 2606POPC   C1B34399  37.564  25.653   8.860
 2606POPC   C2B34400  37.668  25.859   8.488
 2606POPC   C3B34401  37.729  25.688   8.091
 2606POPC   C4B34402  37.826  25.554   7.695
 2607POPC   NC334403  17.213  30.661   9.477
 2607POPC   PO434404  17.852  30.363   9.584
 2607POPC   GL134405  17.760  30.608   9.193
 2607POPC   GL234406  17.622  30.944   9.189
 2607POPC   C1A34407  17.600  30.579   8.765
 2607POPC   D2A34408  17.409  30.374   8.377
 2607POPC   C3A34409  17.657  30.335   7.992
 2607POPC   C4A34410  17.844  30.672   7.750
 2607POPC   C1B34411  17.608  31.118   8.750
 2607POPC   C2B34412  17.569  30.978   8.287
 2607POPC   C3B34413  17.418  30.955   7.831
 2607POPC   C4B34414  17.520  30.940   7.369
 2608POPC   NC334415   2.571  10.826   9.450
 2608POPC   PO434416   3.002  10.264   9.341
 2608POPC   GL134417   2.832  10.586   9.068
 2608POPC   GL234418   2.533  10.421   9.143
 2608POPC   C1A34419   2.928  10.650   8.630
 2608POPC   D2A34420   3.126  10.322   8.368
 2608POPC   C3A34421   2.888  10.373   7.993
 2608POPC   C4A34422   2.595  10.660   7.817
 2608POPC   C1B34423   2.553  10.306   8.720
 2608POPC   C2B34424   2.357  10.459   8.344
 2608POPC   C3B34425   2.370  10.213   7.992
 2608POPC   C4B34426   2.529  10.204   7.610
 2609POPC   NC334427   8.504  41.267   9.546
 2609POPC   PO434428   8.287  41.822   9.595
 2609POPC   GL134429   8.438  41.715   9.210
 2609POPC   GL234430   8.274  41.412   9.105
 2609POPC   C1A34431   8.294  41.862   8.802
 2609POPC   D2A34432   7.978  41.869   8.482
 2609POPC   C3A34433   8.140  41.774   8.086
 2609POPC   C4A34434   8.009  41.690   7.675
 2609POPC   C1B34435   7.989  41.399   8.744
 2609POPC   C2B34436   7.995  41.209   8.315
 2609POPC   C3B34437   8.151  41.277   7.901
 2609POPC   C4B34438   7.939  41.203   7.484
 2610POPC   NC334439   0.604   6.186   9.540
 2610POPC   PO434440   0.479   5.466   9.504
 2610POPC   GL134441   0.627   5.697   9.154
 2610POPC   GL234442   0.660   6.071   9.068
 2610POPC   C1A34443   0.410   5.743   8.789
 2610POPC   D2A34444   0.239   5.836   8.434
 2610POPC   C3A34445   0.426   5.834   8.050
 2610POPC   C4A34446   0.326   5.668   7.654
 2610POPC   C1B34447   0.538   6.263   8.702
 2610POPC   C2B34448   0.425   6.301   8.274
 2610POPC   C3B34449   0.632   6.349   7.855
 2610POPC   C4B34450   0.720   6.415   7.399
 2611POPC   NC334451   5.813  42.665   9.566
 2611POPC   PO434452   6.020  42.089   9.498
 2611POPC   GL134453   5.989  42.385   9.157
 2611POPC   GL234454   5.618  42.493   9.110
 2611POPC   C1A34455   5.932  42.278   8.737
 2611POPC   D2A34456   6.005  42.123   8.344
 2611POPC   C3A34457   5.944  42.263   7.950
 2611POPC   C4A34458   6.263  42.432   7.688
 2611POPC   C1B34459   5.700  42.732   8.723
 2611POPC   C2B34460   5.891  42.631   8.353
 2611POPC   C3B34461   5.811  42.750   7.948
 2611POPC   C4B34462   5.576  42.529   7.602
 2612POPC   NC334463   8.938  33.700   9.502
 2612POPC   PO434464   8.545  34.164   9.318
 2612POPC   GL134465   8.792  33.886   9.018
 2612POPC   GL234466   9.166  33.758   9.031
 2612POPC   C1A34467   8.882  33.811   8.573
 2612POPC   D2A34468   8.808  33.732   8.147
 2612POPC   C3A34469   8.932  33.793   7.762
 2612POPC   C4A34470   8.682  33.962   7.468
 2612POPC   C1B34471   9.208  34.148   8.775
 2612POPC   C2B34472   9.094  34.213   8.329
 2612POPC   C3B34473   9.323  33.979   8.016
 2612POPC   C4B34474   9.439  33.705   7.668
 2613POPC   NC334475  40.461  11.382   9.472
 2613POPC   PO434476  40.972  11.058   9.234
 2613POPC   GL134477  40.938  11.423   9.058
 2613POPC   GL234478  40.624  11.463   8.976
 2613POPC   C1A34479  41.130  11.625   8.774
 2613POPC   D2A34480  40.949  11.649   8.369
 2613POPC   C3A34481  40.867  11.267   8.208
 2613POPC   C4A34482  40.938  11.155   7.790
 2613POPC   C1B34483  40.532  11.072   8.721
 2613POPC   C2B34484  40.351  11.098   8.314
 2613POPC   C3B34485  40.423  11.392   7.984
 2613POPC   C4B34486  40.436  11.146   7.652
 2614POPC   NC334487  20.034  17.022   9.745
 2614POPC   PO434488  19.713  16.483   9.662
 2614POPC   GL134489  19.708  16.473   9.224
 2614POPC   GL234490  19.458  16.238   9.171
 2614POPC   C1A34491  19.943  16.568   8.836
 2614POPC   D2A34492  20.179  16.666   8.431
 2614POPC   C3A34493  20.007  16.815   8.031
 2614POPC   C4A34494  19.976  16.589   7.647
 2614POPC   C1B34495  19.447  16.366   8.744
 2614POPC   C2B34496  19.662  16.563   8.420
 2614POPC   C3B34497  19.752  16.386   8.070
 2614POPC   C4B34498  19.512  16.405   7.741
 2615POPC   NC334499  38.817  40.598   9.274
 2615POPC   PO434500  38.251  41.062   9.419
 2615POPC   GL134501  38.372  40.776   9.117
 2615POPC   GL234502  38.076  40.683   8.954
 2615POPC   C1A34503  38.512  40.722   8.681
 2615POPC   D2A34504  38.252  40.537   8.372
 2615POPC   C3A34505  38.466  40.592   8.018
 2615POPC   C4A34506  38.711  40.828   7.802
 2615POPC   C1B34507  38.164  41.123   8.780
 2615POPC   C2B34508  38.288  41.372   8.469
 2615POPC   C3B34509  38.388  41.101   8.147
 2615POPC   C4B34510  38.233  40.998   7.770
 2616POPC   NC334511  28.789   1.578   9.505
 2616POPC   PO434512  29.338   1.133   9.628
 2616POPC   GL134513  29.304   1.182   9.171
 2616POPC   GL234514  28.950   1.250   9.129
 2616POPC   C1A34515  29.267   1.410   8.761
 2616POPC   D2A34516  29.104   1.271   8.398
 2616POPC   C3A34517  29.354   1.233   8.037
 2616POPC   C4A34518  29.253   1.470   7.719
 2616POPC   C1B34519  28.776   1.560   8.814
 2616POPC   C2B34520  28.620   1.483   8.400
 2616POPC   C3B34521  28.769   1.568   7.996
 2616POPC   C4B34522  28.741   1.436   7.584
 2617POPC   NC334523  22.656   6.290   9.447
 2617POPC   PO434524  22.669   5.595   9.425
 2617POPC   GL134525  22.899   5.918   9.202
 2617POPC   GL234526  23.162   5.740   9.045
 2617POPC   C1A34527  22.997   6.160   8.816
 2617POPC   D2A34528  23.146   6.025   8.424
 2617POPC   C3A34529  22.942   6.255   8.094
 2617POPC   C4A34530  22.907   6.085   7.674
 2617POPC   C1B34531  22.805   5.666   8.774
 2617POPC   C2B34532  22.888   5.548   8.398
 2617POPC   C3B34533  22.865   5.751   8.061
 2617POPC   C4B34534  22.636   5.662   7.735
 2618POPC   NC334535  25.502  18.733   9.828
 2618POPC   PO434536  25.367  19.375   9.511
 2618POPC   GL134537  25.297  19.240   9.040
 2618POPC   GL234538  25.030  19.342   8.905
 2618POPC   C1A34539  25.114  18.867   8.766
 2618POPC   D2A34540  24.970  18.858   8.298
 2618POPC   C3A34541  25.209  18.836   7.907
 2618POPC   C4A34542  25.111  18.930   7.467
 2618POPC   C1B34543  25.206  19.281   8.516
 2618POPC   C2B34544  25.550  19.337   8.306
 2618POPC   C3B34545  25.535  19.256   7.881
 2618POPC   C4B34546  25.508  19.250   7.461
 2619POPC   NC334547  18.292  30.202   9.585
 2619POPC   PO434548  18.066  29.696   9.488
 2619POPC   GL134549  18.079  30.004   9.153
 2619POPC   GL234550  18.437  30.121   9.110
 2619POPC   C1A34551  18.153  29.955   8.709
 2619POPC   D2A34552  18.351  30.145   8.374
 2619POPC   C3A34553  18.117  30.075   8.015
 2619POPC   C4A34554  18.118  29.757   7.696
 2619POPC   C1B34555  18.631  29.903   8.798
 2619POPC   C2B34556  18.566  29.616   8.461
 2619POPC   C3B34557  18.508  29.729   8.051
 2619POPC   C4B34558  18.627  29.727   7.653
 2620POPC   NC334559   6.287   6.222   9.393
 2620POPC   PO434560   6.892   6.505   9.440
 2620POPC   GL134561   6.599   6.663   9.132
 2620POPC   GL234562   6.418   6.402   8.945
 2620POPC   C1A34563   6.548   6.821   8.708
 2620POPC   D2A34564   6.355   6.619   8.383
 2620POPC   C3A34565   6.503   6.686   7.995
 2620POPC   C4A34566   6.776   7.037   7.895
 2620POPC   C1B34567   6.260   6.168   8.601
 2620POPC   C2B34568   6.470   6.141   8.193
 2620POPC   C3B34569   6.843   6.301   8.015
 2620POPC   C4B34570   6.781   6.468   7.621
 2621POPC   NC334571  41.906  14.408   9.411
 2621POPC   PO434572  42.587  14.273   9.517
 2621POPC   GL134573  42.394  14.339   9.148
 2621POPC   GL234574  42.499  14.679   9.110
 2621POPC   C1A34575  42.189  14.401   8.763
 2621POPC   D2A34576  42.121  14.158   8.422
 2621POPC   C3A34577  42.322  14.257   8.055
 2621POPC   C4A34578  42.161  14.394   7.642
 2621POPC   C1B34579  42.419  14.863   8.721
 2621POPC   C2B34580  42.271  14.709   8.325
 2621POPC   C3B34581  42.403  14.750   7.895
 2621POPC   C4B34582  42.511  14.708   7.415
 2622POPC   NC334583  32.983  35.859   9.603
 2622POPC   PO434584  32.772  36.432   9.717
 2622POPC   GL134585  33.116  36.210   9.293
 2622POPC   GL234586  33.015  35.881   9.114
 2622POPC   C1A34587  33.182  36.225   8.803
 2622POPC   D2A34588  33.024  36.087   8.419
 2622POPC   C3A34589  33.243  36.283   8.111
 2622POPC   C4A34590  33.052  36.189   7.764
 2622POPC   C1B34591  32.774  35.672   8.797
 2622POPC   C2B34592  32.670  35.694   8.348
 2622POPC   C3B34593  32.815  35.716   7.892
 2622POPC   C4B34594  32.872  35.828   7.453
 2623POPC   NC334595  38.135  31.154   9.524
 2623POPC   PO434596  38.560  31.711   9.542
 2623POPC   GL134597  38.530  31.579   9.152
 2623POPC   GL234598  38.205  31.469   9.153
 2623POPC   C1A34599  38.752  31.621   8.757
 2623POPC   D2A34600  38.945  31.705   8.381
 2623POPC   C3A34601  38.711  31.620   8.027
 2623POPC   C4A34602  38.522  31.687   7.614
 2623POPC   C1B34603  37.990  31.355   8.767
 2623POPC   C2B34604  38.116  31.204   8.372
 2623POPC   C3B34605  38.090  31.422   8.002
 2623POPC   C4B34606  38.172  31.325   7.599
 2624POPC   NC334607  20.951   9.300   9.460
 2624POPC   PO434608  20.353   9.051   9.422
 2624POPC   GL134609  20.687   9.006   9.121
 2624POPC   GL234610  20.846   9.303   8.954
 2624POPC   C1A34611  20.897   8.804   8.793
 2624POPC   D2A34612  20.756   8.517   8.484
 2624POPC   C3A34613  20.730   8.749   8.106
 2624POPC   C4A34614  20.517   8.978   7.775
 2624POPC   C1B34615  20.553   9.165   8.645
 2624POPC   C2B34616  20.472   9.213   8.236
 2624POPC   C3B34617  20.562   9.462   7.913
 2624POPC   C4B34618  20.817   9.371   7.576
 2625POPC   NC334619  34.387   1.860  10.144
 2625POPC   PO434620  34.615   2.087   9.560
 2625POPC   GL134621  34.641   2.045   9.113
 2625POPC   GL234622  34.574   1.676   9.130
 2625POPC   C1A34623  34.856   2.189   8.720
 2625POPC   D2A34624  34.948   2.319   8.274
 2625POPC   C3A34625  34.760   2.138   7.880
 2625POPC   C4A34626  34.749   1.964   7.439
 2625POPC   C1B34627  34.551   1.762   8.688
 2625POPC   C2B34628  34.476   2.082   8.380
 2625POPC   C3B34629  34.349   1.864   8.035
 2625POPC   C4B34630  34.551   1.602   7.737
 2626POPC   NC334631   3.359  26.564   9.472
 2626POPC   PO434632   3.596  25.907   9.646
 2626POPC   GL134633   3.717  26.149   9.259
 2626POPC   GL234634   3.367  26.196   9.094
 2626POPC   C1A34635   3.765  26.194   8.803
 2626POPC   D2A34636   3.498  26.180   8.462
 2626POPC   C3A34637   3.688  26.015   8.112
 2626POPC   C4A34638   3.796  26.196   7.753
 2626POPC   C1B34639   3.160  25.937   8.737
 2626POPC   C2B34640   3.198  25.814   8.260
 2626POPC   C3B34641   3.235  25.761   7.798
 2626POPC   C4B34642   2.995  25.540   7.413
 2627POPC   NC334643   0.494  30.158   9.487
 2627POPC   PO434644   0.185  29.562   9.285
 2627POPC   GL134645   0.262  29.953   9.080
 2627POPC   GL234646   0.651  30.050   9.028
 2627POPC   C1A34647   0.296  30.036   8.668
 2627POPC   D2A34648   0.542  30.054   8.317
 2627POPC   C3A34649   0.336  30.261   8.004
 2627POPC   C4A34650   0.183  30.167   7.638
 2627POPC   C1B34651   0.693  29.720   8.724
 2627POPC   C2B34652   0.940  29.747   8.321
 2627POPC   C3B34653   0.814  29.802   7.890
 2627POPC   C4B34654   0.748  29.538   7.503
 2628POPC   NC334655  19.819  39.061   9.728
 2628POPC   PO434656  19.284  39.452   9.476
 2628POPC   GL134657  19.114  39.358   9.069
 2628POPC   GL234658  18.985  39.008   9.022
 2628POPC   C1A34659  19.221  39.218   8.643
 2628POPC   D2A34660  19.055  39.001   8.313
 2628POPC   C3A34661  19.226  39.132   7.960
 2628POPC   C4A34662  19.034  39.400   7.737
 2628POPC   C1B34663  18.786  38.833   8.703
 2628POPC   C2B34664  18.536  38.920   8.363
 2628POPC   C3B34665  18.681  39.085   7.964
 2628POPC   C4B34666  18.887  38.864   7.644
 2629POPC   NC334667  33.372  26.753   9.414
 2629POPC   PO434668  32.742  26.671   9.567
 2629POPC   GL134669  32.701  26.666   9.137
 2629POPC   GL234670  32.963  26.894   9.058
 2629POPC   C1A34671  32.789  26.515   8.710
 2629POPC   D2A34672  33.078  26.642   8.382
 2629POPC   C3A34673  32.998  26.538   7.953
 2629POPC   C4A34674  33.310  26.558   7.617
 2629POPC   C1B34675  33.308  26.934   8.763
 2629POPC   C2B34676  33.316  27.102   8.345
 2629POPC   C3B34677  33.114  27.020   7.985
 2629POPC   C4B34678  33.489  27.022   7.788
 2630POPC   NC334679  36.605   4.940   9.405
 2630POPC   PO434680  37.182   5.317   9.513
 2630POPC   GL134681  37.023   5.152   9.125
 2630POPC   GL234682  37.029   4.802   9.115
 2630POPC   C1A34683  36.879   5.137   8.675
 2630POPC   D2A34684  36.641   5.339   8.302
 2630POPC   C3A34685  36.830   5.229   7.882
 2630POPC   C4A34686  36.885   5.372   7.418
 2630POPC   C1B34687  37.299   4.814   8.795
 2630POPC   C2B34688  37.252   4.671   8.378
 2630POPC   C3B34689  37.338   4.871   7.981
 2630POPC   C4B34690  37.139   4.958   7.585
 2631POPC   NC334691  27.106  35.392   9.612
 2631POPC   PO434692  26.499  35.720   9.613
 2631POPC   GL134693  26.738  35.496   9.270
 2631POPC   GL234694  27.100  35.615   9.163
 2631POPC   C1A34695  26.755  35.278   8.874
 2631POPC   D2A34696  26.591  35.435   8.482
 2631POPC   C3A34697  26.650  35.164   8.162
 2631POPC   C4A34698  26.882  35.196   7.790
 2631POPC   C1B34699  27.215  35.448   8.761
 2631POPC   C2B34700  27.111  35.334   8.350
 2631POPC   C3B34701  27.294  35.445   7.956
 2631POPC   C4B34702  27.135  35.576   7.571
 2632POPC   NC334703  29.452  26.784   9.585
 2632POPC   PO434704  28.859  26.985   9.489
 2632POPC   GL134705  29.169  26.929   9.165
 2632POPC   GL234706  29.092  26.618   9.127
 2632POPC   C1A34707  29.116  26.902   8.703
 2632POPC   D2A34708  28.720  26.920   8.436
 2632POPC   C3A34709  28.918  26.982   8.021
 2632POPC   C4A34710  29.352  27.091   7.833
 2632POPC   C1B34711  28.860  26.457   8.772
 2632POPC   C2B34712  28.972  26.475   8.332
 2632POPC   C3B34713  28.981  26.484   7.896
 2632POPC   C4B34714  29.143  26.740   7.539
 2633POPC   NC334715  10.855  25.227   9.524
 2633POPC   PO434716  10.225  25.002   9.430
 2633POPC   GL134717  10.493  25.200   9.135
 2633POPC   GL234718  10.494  24.895   8.946
 2633POPC   C1A34719  10.456  25.448   8.747
 2633POPC   D2A34720  10.209  25.551   8.364
 2633POPC   C3A34721  10.478  25.502   7.986
 2633POPC   C4A34722  10.651  25.421   7.571
 2633POPC   C1B34723  10.167  25.055   8.612
 2633POPC   C2B34724  10.197  25.109   8.134
 2633POPC   C3B34725  10.398  24.996   7.737
 2633POPC   C4B34726  10.350  25.126   7.287
 2634POPC   NC334727  43.672  30.563   9.494
 2634POPC   PO434728  44.255  30.844   9.553
 2634POPC   GL134729  43.963  30.911   9.214
 2634POPC   GL234730  43.983  30.580   9.106
 2634POPC   C1A34731  43.708  30.919   8.819
 2634POPC   D2A34732  43.696  30.665   8.439
 2634POPC   C3A34733  43.864  30.856   8.088
 2634POPC   C4A34734  43.901  30.610   7.732
 2634POPC   C1B34735  44.173  30.681   8.745
 2634POPC   C2B34736  44.180  30.451   8.368
 2634POPC   C3B34737  44.335  30.602   8.001
 2634POPC   C4B34738  44.290  31.017   7.828
 2635POPC   NC334739  10.369  42.918   9.576
 2635POPC   PO434740  10.704  43.449   9.376
 2635POPC   GL134741  10.706  43.151   9.065
 2635POPC   GL234742  10.783  42.812   9.188
 2635POPC   C1A34743  10.615  43.185   8.622
 2635POPC   D2A34744  10.394  42.927   8.314
 2635POPC   C3A34745  10.485  43.113   7.909
 2635POPC   C4A34746  10.544  43.542   7.831
 2635POPC   C1B34747  10.776  42.710   8.744
 2635POPC   C2B34748  10.769  42.581   8.299
 2635POPC   C3B34749  10.934  42.584   7.854
 2635POPC   C4B34750  10.695  42.724   7.439
 2636POPC   NC334751  43.913  24.850   9.528
 2636POPC   PO434752  43.982  24.218   9.572
 2636POPC   GL134753  43.918  24.466   9.174
 2636POPC   GL234754  44.070  24.786   9.042
 2636POPC   C1A34755  43.688  24.497   8.770
 2636POPC   D2A34756  43.594  24.230   8.394
 2636POPC   C3A34757  43.760  24.417   8.021
 2636POPC   C4A34758  43.659  24.542   7.616
 2636POPC   C1B34759  44.224  24.465   8.755
 2636POPC   C2B34760  44.113  24.183   8.413
 2636POPC   C3B34761  44.228  24.188   8.012
 2636POPC   C4B34762  44.228  24.572   7.796
 2637POPC   NC334763  24.026  42.351   9.464
 2637POPC   PO434764  23.419  42.637   9.520
 2637POPC   GL134765  23.600  42.446   9.157
 2637POPC   GL234766  23.954  42.512   9.010
 2637POPC   C1A34767  23.554  42.292   8.760
 2637POPC   D2A34768  23.464  42.246   8.355
 2637POPC   C3A34769  23.688  42.097   8.016
 2637POPC   C4A34770  23.448  42.164   7.642
 2637POPC   C1B34771  24.060  42.187   8.752
 2637POPC   C2B34772  24.158  42.218   8.321
 2637POPC   C3B34773  24.085  42.415   7.913
 2637POPC   C4B34774  23.906  42.377   7.506
 2638POPC   NC334775   6.333  12.398   9.516
 2638POPC   PO434776   6.447  11.765   9.515
 2638POPC   GL134777   6.616  12.007   9.212
 2638POPC   GL234778   6.838  11.775   9.074
 2638POPC   C1A34779   6.510  12.035   8.789
 2638POPC   D2A34780   6.632  11.791   8.481
 2638POPC   C3A34781   6.619  12.036   8.091
 2638POPC   C4A34782   6.433  11.956   7.714
 2638POPC   C1B34783   6.963  12.227   8.881
 2638POPC   C2B34784   6.891  12.270   8.458
 2638POPC   C3B34785   7.061  12.302   8.028
 2638POPC   C4B34786   6.894  12.192   7.632
 2639POPC   NC334787   1.828  33.407   9.631
 2639POPC   PO434788   1.978  34.016   9.697
 2639POPC   GL134789   1.850  33.740   9.228
 2639POPC   GL234790   2.195  33.662   8.984
 2639POPC   C1A34791   1.729  33.740   8.754
 2639POPC   D2A34792   1.657  33.826   8.291
 2639POPC   C3A34793   1.882  33.605   7.912
 2639POPC   C4A34794   1.857  33.717   7.452
 2639POPC   C1B34795   2.200  33.917   8.626
 2639POPC   C2B34796   2.129  34.036   8.242
 2639POPC   C3B34797   2.360  33.828   7.949
 2639POPC   C4B34798   2.366  33.699   7.543
 2640POPC   NC334799  17.835  32.498   9.639
 2640POPC   PO434800  18.409  32.119   9.572
 2640POPC   GL134801  18.397  32.272   9.176
 2640POPC   GL234802  18.096  32.462   9.186
 2640POPC   C1A34803  18.279  32.053   8.784
 2640POPC   D2A34804  18.026  32.001   8.416
 2640POPC   C3A34805  18.182  32.095   8.008
 2640POPC   C4A34806  18.124  31.904   7.608
 2640POPC   C1B34807  18.157  32.618   8.737
 2640POPC   C2B34808  18.290  32.559   8.278
 2640POPC   C3B34809  18.289  32.574   7.791
 2640POPC   C4B34810  18.311  32.613   7.325
 2641POPC   NC334811   5.456  22.333   9.530
 2641POPC   PO434812   4.961  21.907   9.480
 2641POPC   GL134813   5.088  22.096   9.117
 2641POPC   GL234814   5.435  21.969   9.142
 2641POPC   C1A34815   4.837  22.134   8.724
 2641POPC   D2A34816   4.787  22.402   8.334
 2641POPC   C3A34817   4.737  22.237   7.900
 2641POPC   C4A34818   4.948  22.296   7.486
 2641POPC   C1B34819   5.377  22.069   8.704
 2641POPC   C2B34820   5.165  22.064   8.318
 2641POPC   C3B34821   5.257  22.122   7.900
 2641POPC   C4B34822   5.403  22.038   7.500
 2642POPC   NC334823  30.103  31.911   9.551
 2642POPC   PO434824  29.845  32.541   9.512
 2642POPC   GL134825  29.791  32.171   9.241
 2642POPC   GL234826  30.137  32.102   9.064
 2642POPC   C1A34827  29.687  32.279   8.847
 2642POPC   D2A34828  29.951  32.383   8.524
 2642POPC   C3A34829  29.771  32.227   8.179
 2642POPC   C4A34830  30.028  32.239   7.844
 2642POPC   C1B34831  30.362  31.937   8.674
 2642POPC   C2B34832  30.243  31.923   8.224
 2642POPC   C3B34833  30.346  31.821   7.790
 2642POPC   C4B34834  30.261  31.807   7.347
 2643POPC   NC334835  38.742  44.184   9.360
 2643POPC   PO434836  38.675  43.551   9.642
 2643POPC   GL134837  38.347  43.642   9.275
 2643POPC   GL234838  38.285  43.992   9.181
 2643POPC   C1A34839  38.360  43.586   8.795
 2643POPC   D2A34840  38.140  43.616   8.433
 2643POPC   C3A34841  38.339  43.662   8.008
 2643POPC   C4A34842  38.242  43.857   7.681
 2643POPC   C1B34843  38.422  44.074   8.742
 2643POPC   C2B34844  38.382  44.057   8.319
 2643POPC   C3B34845  38.632  44.141   7.986
 2643POPC   C4B34846  38.765  43.868   7.683
 2644POPC   NC334847   9.709  41.791   9.677
 2644POPC   PO434848   9.959  41.175   9.719
 2644POPC   GL134849   9.796  41.466   9.294
 2644POPC   GL234850   9.476  41.689   9.224
 2644POPC   C1A34851   9.810  41.558   8.828
 2644POPC   D2A34852   9.975  41.364   8.434
 2644POPC   C3A34853   9.900  41.437   7.951
 2644POPC   C4A34854  10.054  41.798   7.688
 2644POPC   C1B34855   9.331  41.362   8.908
 2644POPC   C2B34856   9.440  41.372   8.489
 2644POPC   C3B34857   9.455  41.604   8.131
 2644POPC   C4B34858   9.403  41.366   7.765
 2645POPC   NC334859  11.706   1.085   9.424
 2645POPC   PO434860  11.133   1.455   9.476
 2645POPC   GL134861  11.065   1.336   9.062
 2645POPC   GL234862  11.280   1.047   9.059
 2645POPC   C1A34863  11.231   1.349   8.648
 2645POPC   D2A34864  11.296   1.142   8.279
 2645POPC   C3A34865  11.285   1.333   7.907
 2645POPC   C4A34866  11.640   1.530   7.833
 2645POPC   C1B34867  11.398   0.843   8.690
 2645POPC   C2B34868  11.450   0.660   8.293
 2645POPC   C3B34869  11.310   0.785   7.873
 2645POPC   C4B34870  10.986   0.654   7.605
 2646POPC   NC334871   8.873   9.273   9.541
 2646POPC   PO434872   8.572   8.705   9.250
 2646POPC   GL134873   8.909   8.916   9.120
 2646POPC   GL234874   8.692   9.166   9.046
 2646POPC   C1A34875   9.197   9.018   8.792
 2646POPC   D2A34876   9.148   9.122   8.366
 2646POPC   C3A34877   9.165   8.879   7.984
 2646POPC   C4A34878   9.163   9.001   7.528
 2646POPC   C1B34879   8.688   8.988   8.635
 2646POPC   C2B34880   8.667   9.258   8.304
 2646POPC   C3B34881   8.504   9.353   7.955
 2646POPC   C4B34882   8.722   9.042   7.743
 2647POPC   NC334883  26.277  39.218   9.625
 2647POPC   PO434884  25.761  39.699   9.514
 2647POPC   GL134885  25.968  39.439   9.232
 2647POPC   GL234886  25.930  39.082   9.280
 2647POPC   C1A34887  25.870  39.399   8.815
 2647POPC   D2A34888  26.001  39.523   8.411
 2647POPC   C3A34889  25.866  39.283   8.078
 2647POPC   C4A34890  26.028  39.249   7.658
 2647POPC   C1B34891  25.871  38.898   8.866
 2647POPC   C2B34892  26.073  38.979   8.455
 2647POPC   C3B34893  26.097  38.859   8.009
 2647POPC   C4B34894  25.714  38.860   7.734
 2648POPC   NC334895  12.015  16.980   9.796
 2648POPC   PO434896  12.203  17.566   9.481
 2648POPC   GL134897  12.114  17.475   9.062
 2648POPC   GL234898  11.796  17.385   9.168
 2648POPC   C1A34899  12.119  17.557   8.623
 2648POPC   D2A34900  12.440  17.711   8.334
 2648POPC   C3A34901  12.430  17.541   7.933
 2648POPC   C4A34902  12.292  17.708   7.572
 2648POPC   C1B34903  11.662  17.342   8.736
 2648POPC   C2B34904  11.765  17.311   8.299
 2648POPC   C3B34905  11.930  17.377   7.877
 2648POPC   C4B34906  11.905  17.350   7.403
 2649POPC   NC334907  26.696  20.071   9.388
 2649POPC   PO434908  27.009  19.575   9.350
 2649POPC   GL134909  27.084  19.956   9.065
 2649POPC   GL234910  26.731  19.986   8.879
 2649POPC   C1A34911  27.172  20.013   8.609
 2649POPC   D2A34912  26.858  19.795   8.351
 2649POPC   C3A34913  26.690  19.921   7.964
 2649POPC   C4A34914  26.939  19.752   7.663
 2649POPC   C1B34915  26.493  19.631   8.664
 2649POPC   C2B34916  26.409  19.557   8.205
 2649POPC   C3B34917  26.324  19.606   7.746
 2649POPC   C4B34918  26.404  19.426   7.302
 2650POPC   NC334919   7.379  42.544   9.496
 2650POPC   PO434920   7.630  41.884   9.475
 2650POPC   GL134921   7.547  42.204   9.136
 2650POPC   GL234922   7.210  42.376   9.056
 2650POPC   C1A34923   7.462  42.157   8.688
 2650POPC   D2A34924   7.489  41.891   8.326
 2650POPC   C3A34925   7.630  42.010   7.959
 2650POPC   C4A34926   7.605  41.998   7.538
 2650POPC   C1B34927   6.969  42.350   8.676
 2650POPC   C2B34928   7.204  42.334   8.278
 2650POPC   C3B34929   7.239  42.352   7.843
 2650POPC   C4B34930   7.087  42.684   7.582
 2651POPC   NC334931  19.427  22.819   9.553
 2651POPC   PO434932  18.849  23.048   9.411
 2651POPC   GL134933  19.104  22.924   9.137
 2651POPC   GL234934  19.383  23.108   9.116
 2651POPC   C1A34935  19.003  22.833   8.731
 2651POPC   D2A34936  19.166  23.080   8.421
 2651POPC   C3A34937  19.038  22.964   8.022
 2651POPC   C4A34938  18.805  22.919   7.660
 2651POPC   C1B34939  19.590  23.289   8.762
 2651POPC   C2B34940  19.551  23.421   8.352
 2651POPC   C3B34941  19.537  23.107   8.023
 2651POPC   C4B34942  19.359  23.033   7.609
 2652POPC   NC334943  31.553  43.212   9.587
 2652POPC   PO434944  31.264  42.610   9.614
 2652POPC   GL134945  31.375  42.845   9.246
 2652POPC   GL234946  31.723  42.884   9.150
 2652POPC   C1A34947  31.198  42.953   8.841
 2652POPC   D2A34948  31.456  43.025   8.469
 2652POPC   C3A34949  31.325  42.927   8.045
 2652POPC   C4A34950  31.517  43.025   7.649
 2652POPC   C1B34951  31.896  43.095   8.777
 2652POPC   C2B34952  31.934  43.253   8.337
 2652POPC   C3B34953  31.882  43.292   7.875
 2652POPC   C4B34954  31.941  43.606   7.539
 2653POPC   NC334955  32.916  42.260   9.470
 2653POPC   PO434956  33.016  42.903   9.555
 2653POPC   GL134957  32.977  42.640   9.163
 2653POPC   GL234958  32.645  42.596   9.102
 2653POPC   C1A34959  32.953  42.245   8.827
 2653POPC   D2A34960  33.070  42.059   8.430
 2653POPC   C3A34961  33.013  42.227   8.009
 2653POPC   C4A34962  32.981  42.426   7.618
 2653POPC   C1B34963  32.843  42.705   8.690
 2653POPC   C2B34964  32.758  42.505   8.322
 2653POPC   C3B34965  32.583  42.592   7.923
 2653POPC   C4B34966  32.664  42.784   7.503
 2654POPC   NC334967  26.561  43.814   9.509
 2654POPC   PO434968  27.120  44.201   9.620
 2654POPC   GL134969  26.856  44.124   9.253
 2654POPC   GL234970  26.948  43.743   9.201
 2654POPC   C1A34971  26.615  43.985   8.876
 2654POPC   D2A34972  26.733  43.914   8.462
 2654POPC   C3A34973  26.546  43.905   8.045
 2654POPC   C4A34974  26.425  43.677   7.687
 2654POPC   C1B34975  26.910  43.527   8.804
 2654POPC   C2B34976  27.173  43.649   8.472
 2654POPC   C3B34977  27.091  43.798   8.081
 2654POPC   C4B34978  27.039  43.895   7.682
 2655POPC   NC334979  18.011  38.248   9.471
 2655POPC   PO434980  18.212  37.664   9.443
 2655POPC   GL134981  18.316  37.658   9.038
 2655POPC   GL234982  18.091  37.399   8.912
 2655POPC   C1A34983  18.321  37.935   8.720
 2655POPC   D2A34984  18.229  38.160   8.367
 2655POPC   C3A34985  18.486  38.089   8.029
 2655POPC   C4A34986  18.430  37.861   7.689
 2655POPC   C1B34987  18.365  37.447   8.554
 2655POPC   C2B34988  18.348  37.534   8.090
 2655POPC   C3B34989  18.116  37.485   7.680
 2655POPC   C4B34990  17.869  37.432   7.315
 2656POPC   NC334991  29.716  41.819   9.538
 2656POPC   PO434992  30.278  42.000   9.326
 2656POPC   GL134993  30.074  41.606   9.202
 2656POPC   GL234994  29.770  41.746   9.056
 2656POPC   C1A34995  30.000  41.358   8.821
 2656POPC   D2A34996  30.003  41.501   8.402
 2656POPC   C3A34997  30.118  41.259   8.095
 2656POPC   C4A34998  29.918  41.225   7.749
 2656POPC   C1B34999  29.601  41.670   8.693
 2656POPC   C2B35000  29.463  41.801   8.313
 2656POPC   C3B35001  29.689  41.617   7.989
 2656POPC   C4B35002  29.882  41.718   7.628
 2657POPC   NC335003  26.652  12.020   9.469
 2657POPC   PO435004  27.280  12.140   9.411
 2657POPC   GL135005  26.977  11.978   9.076
 2657POPC   GL235006  26.665  12.191   8.992
 2657POPC   C1A35007  27.090  12.083   8.646
 2657POPC   D2A35008  26.963  12.129   8.197
 2657POPC   C3A35009  27.184  12.212   7.804
 2657POPC   C4A35010  27.023  12.103   7.399
 2657POPC   C1B35011  26.573  11.973   8.608
 2657POPC   C2B35012  26.458  12.080   8.182
 2657POPC   C3B35013  26.632  12.248   7.767
 2657POPC   C4B35014  26.403  12.353   7.351
 2658POPC   NC335015  16.612  12.338   9.457
 2658POPC   PO435016  16.350  11.737   9.424
 2658POPC   GL135017  16.588  12.005   9.098
 2658POPC   GL235018  16.970  12.108   9.149
 2658POPC   C1A35019  16.669  12.196   8.710
 2658POPC   D2A35020  16.587  12.322   8.291
 2658POPC   C3A35021  16.608  11.956   8.005
 2658POPC   C4A35022  16.739  11.927   7.565
 2658POPC   C1B35023  17.177  12.279   8.741
 2658POPC   C2B35024  17.100  12.370   8.271
 2658POPC   C3B35025  16.885  12.358   7.854
 2658POPC   C4B35026  16.975  12.345   7.416
 2659POPC   NC335027  34.165  15.285   9.440
 2659POPC   PO435028  33.490  15.346   9.570
 2659POPC   GL135029  33.558  15.359   9.156
 2659POPC   GL235030  33.868  15.525   9.089
 2659POPC   C1A35031  33.726  15.117   8.800
 2659POPC   D2A35032  33.897  15.087   8.379
 2659POPC   C3A35033  33.614  14.864   8.128
 2659POPC   C4A35034  33.637  14.986   7.735
 2659POPC   C1B35035  34.078  15.474   8.685
 2659POPC   C2B35036  33.871  15.591   8.327
 2659POPC   C3B35037  33.879  15.407   7.919
 2659POPC   C4B35038  34.052  15.224   7.531
 2660POPC   NC335039  20.071  33.849   9.628
 2660POPC   PO435040  19.410  33.686   9.529
 2660POPC   GL135041  19.692  33.881   9.210
 2660POPC   GL235042  20.066  34.036   9.169
 2660POPC   C1A35043  19.850  33.725   8.824
 2660POPC   D2A35044  19.851  33.945   8.448
 2660POPC   C3A35045  19.845  33.767   8.070
 2660POPC   C4A35046  20.142  33.817   7.789
 2660POPC   C1B35047  20.285  34.044   8.756
 2660POPC   C2B35048  20.263  34.216   8.328
 2660POPC   C3B35049  20.366  34.268   7.899
 2660POPC   C4B35050  20.092  34.328   7.582
 2661POPC   NC335051  38.633  18.866   9.539
 2661POPC   PO435052  38.199  19.425   9.503
 2661POPC   GL135053  38.477  19.226   9.180
 2661POPC   GL235054  38.298  18.919   9.127
 2661POPC   C1A35055  38.721  19.335   8.755
 2661POPC   D2A35056  38.963  19.176   8.359
 2661POPC   C3A35057  38.765  18.880   8.065
 2661POPC   C4A35058  38.436  19.109   7.846
 2661POPC   C1B35059  38.468  18.904   8.744
 2661POPC   C2B35060  38.353  19.018   8.366
 2661POPC   C3B35061  38.260  18.692   8.116
 2661POPC   C4B35062  38.444  18.604   7.744
 2662POPC   NC335063   7.239  18.849   9.482
 2662POPC   PO435064   7.575  19.380   9.534
 2662POPC   GL135065   7.470  19.480   9.116
 2662POPC   GL235066   7.215  19.252   9.119
 2662POPC   C1A35067   7.569  19.359   8.709
 2662POPC   D2A35068   7.495  18.980   8.477
 2662POPC   C3A35069   7.582  18.861   8.078
 2662POPC   C4A35070   7.383  19.103   7.786
 2662POPC   C1B35071   7.159  18.917   8.848
 2662POPC   C2B35072   7.054  18.712   8.466
 2662POPC   C3B35073   7.073  18.816   8.070
 2662POPC   C4B35074   6.851  18.800   7.699
 2663POPC   NC335075  34.758  20.840   9.365
 2663POPC   PO435076  34.201  20.725   9.631
 2663POPC   GL135077  34.359  20.554   9.201
 2663POPC   GL235078  34.692  20.394   9.105
 2663POPC   C1A35079  34.272  20.350   8.809
 2663POPC   D2A35080  34.278  20.212   8.375
 2663POPC   C3A35081  34.310  20.543   8.077
 2663POPC   C4A35082  34.139  20.590   7.675
 2663POPC   C1B35083  34.757  20.672   8.712
 2663POPC   C2B35084  34.944  20.805   8.301
 2663POPC   C3B35085  35.032  20.693   7.880
 2663POPC   C4B35086  34.623  20.826   7.735
 2664POPC   NC335087   7.884   1.524   9.453
 2664POPC   PO435088   8.400   1.185   9.622
 2664POPC   GL135089   8.284   1.361   9.205
 2664POPC   GL235090   8.138   1.111   9.124
 2664POPC   C1A35091   8.067   1.525   8.796
 2664POPC   D2A35092   8.086   1.674   8.363
 2664POPC   C3A35093   8.020   1.428   8.001
 2664POPC   C4A35094   8.132   1.426   7.580
 2664POPC   C1B35095   7.912   1.028   8.791
 2664POPC   C2B35096   8.082   1.125   8.429
 2664POPC   C3B35097   8.021   0.918   8.082
 2664POPC   C4B35098   8.195   0.952   7.717
 2665POPC   NC335099  35.848  40.318   9.466
 2665POPC   PO435100  36.238  39.712   9.491
 2665POPC   GL135101  36.288  39.908   9.097
 2665POPC   GL235102  36.031  40.157   9.015
 2665POPC   C1A35103  36.396  39.924   8.662
 2665POPC   D2A35104  36.700  39.841   8.323
 2665POPC   C3A35105  36.541  39.674   7.964
 2665POPC   C4A35106  36.177  39.813   7.725
 2665POPC   C1B35107  35.878  39.981   8.632
 2665POPC   C2B35108  35.940  39.949   8.176
 2665POPC   C3B35109  35.924  40.257   7.825
 2665POPC   C4B35110  35.653  40.413   7.437
 2666POPC   NC335111  34.593   9.646   9.603
 2666POPC   PO435112  34.651  10.292   9.561
 2666POPC   GL135113  34.674   9.999   9.244
 2666POPC   GL235114  34.399  10.092   9.090
 2666POPC   C1A35115  34.636   9.617   8.930
 2666POPC   D2A35116  34.655   9.536   8.462
 2666POPC   C3A35117  34.503   9.791   8.104
 2666POPC   C4A35118  34.407   9.626   7.705
 2666POPC   C1B35119  34.744  10.068   8.750
 2666POPC   C2B35120  34.750  10.185   8.356
 2666POPC   C3B35121  34.873  10.184   7.942
 2666POPC   C4B35122  34.711   9.995   7.570
 2667POPC   NC335123   1.637  25.426   9.507
 2667POPC   PO435124   2.151  25.777   9.533
 2667POPC   GL135125   2.095  26.198   9.211
 2667POPC   GL235126   1.801  26.433   9.250
 2667POPC   C1A35127   2.253  26.228   8.771
 2667POPC   D2A35128   2.200  25.942   8.414
 2667POPC   C3A35129   2.171  26.146   8.006
 2667POPC   C4A35130   1.929  25.939   7.665
 2667POPC   C1B35131   1.703  26.284   8.831
 2667POPC   C2B35132   1.859  26.330   8.412
 2667POPC   C3B35133   1.671  26.259   7.996
 2667POPC   C4B35134   1.706  26.381   7.571
 2668POPC   NC335135  25.672  41.013   9.224
 2668POPC   PO435136  26.293  40.976   9.515
 2668POPC   GL135137  26.198  40.919   9.066
 2668POPC   GL235138  26.035  40.638   9.056
 2668POPC   C1A35139  26.269  40.802   8.609
 2668POPC   D2A35140  26.065  40.462   8.314
 2668POPC   C3A35141  25.982  40.622   7.898
 2668POPC   C4A35142  26.179  40.973   7.856
 2668POPC   C1B35143  25.783  40.690   8.687
 2668POPC   C2B35144  25.847  40.929   8.324
 2668POPC   C3B35145  25.678  41.087   7.984
 2668POPC   C4B35146  25.683  40.918   7.564
 2669POPC   NC335147  14.659  19.291   9.813
 2669POPC   PO435148  14.247  19.068   9.401
 2669POPC   GL135149  14.370  19.255   9.029
 2669POPC   GL235150  14.671  19.407   9.168
 2669POPC   C1A35151  14.440  19.117   8.603
 2669POPC   D2A35152  14.198  18.957   8.236
 2669POPC   C3A35153  14.336  18.977   7.796
 2669POPC   C4A35154  14.153  18.637   7.556
 2669POPC   C1B35155  14.633  19.592   8.743
 2669POPC   C2B35156  14.628  19.488   8.301
 2669POPC   C3B35157  14.666  19.497   7.867
 2669POPC   C4B35158  14.718  19.254   7.480
 2670POPC   NC335159   4.130  31.017   9.286
 2670POPC   PO435160   4.622  30.810   9.753
 2670POPC   GL135161   4.528  30.671   9.255
 2670POPC   GL235162   4.352  30.343   9.143
 2670POPC   C1A35163   4.445  30.754   8.798
 2670POPC   D2A35164   4.547  30.472   8.466
 2670POPC   C3A35165   4.476  30.572   8.042
 2670POPC   C4A35166   4.473  30.470   7.589
 2670POPC   C1B35167   4.078  30.391   8.739
 2670POPC   C2B35168   4.019  30.559   8.297
 2670POPC   C3B35169   4.032  30.474   7.834
 2670POPC   C4B35170   3.990  30.557   7.386
 2671POPC   NC335171  19.116   3.264   9.421
 2671POPC   PO435172  18.916   3.911   9.411
 2671POPC   GL135173  18.747   3.775   9.012
 2671POPC   GL235174  18.769   4.085   8.917
 2671POPC   C1A35175  18.909   3.520   8.638
 2671POPC   D2A35176  18.693   3.183   8.374
 2671POPC   C3A35177  18.908   3.202   7.971
 2671POPC   C4A35178  18.940   3.621   7.755
 2671POPC   C1B35179  19.231   3.919   8.851
 2671POPC   C2B35180  19.413   3.846   8.458
 2671POPC   C3B35181  19.293   3.857   8.037
 2671POPC   C4B35182  19.463   3.648   7.659
 2672POPC   NC335183  26.515  37.672   9.482
 2672POPC   PO435184  27.137  37.448   9.530
 2672POPC   GL135185  26.922  37.589   9.158
 2672POPC   GL235186  26.657  37.346   9.129
 2672POPC   C1A35187  26.850  37.755   8.722
 2672POPC   D2A35188  26.974  37.755   8.260
 2672POPC   C3A35189  26.671  37.903   7.966
 2672POPC   C4A35190  26.696  38.182   7.603
 2672POPC   C1B35191  26.755  37.245   8.759
 2672POPC   C2B35192  27.047  37.264   8.465
 2672POPC   C3B35193  26.918  37.253   8.059
 2672POPC   C4B35194  26.945  37.548   7.757
 2673POPC   NC335195  35.570  14.787   9.555
 2673POPC   PO435196  35.331  15.492   9.491
 2673POPC   GL135197  35.378  15.314   9.115
 2673POPC   GL235198  35.604  15.016   9.098
 2673POPC   C1A35199  35.133  15.287   8.743
 2673POPC   D2A35200  35.025  15.421   8.340
 2673POPC   C3A35201  34.938  15.250   7.939
 2673POPC   C4A35202  35.136  15.222   7.537
 2673POPC   C1B35203  35.631  15.187   8.682
 2673POPC   C2B35204  35.423  15.107   8.307
 2673POPC   C3B35205  35.443  15.332   7.952
 2673POPC   C4B35206  35.743  15.207   7.708
 2674POPC   NC335207  17.673  29.922   9.551
 2674POPC   PO435208  17.112  30.200   9.428
 2674POPC   GL135209  17.353  29.885   9.147
 2674POPC   GL235210  17.692  29.639   9.129
 2674POPC   C1A35211  17.247  30.026   8.744
 2674POPC   D2A35212  17.285  29.811   8.383
 2674POPC   C3A35213  17.239  30.000   7.988
 2674POPC   C4A35214  17.071  29.754   7.658
 2674POPC   C1B35215  17.691  29.781   8.739
 2674POPC   C2B35216  17.764  29.995   8.381
 2674POPC   C3B35217  17.697  29.800   8.010
 2674POPC   C4B35218  17.593  29.863   7.629
 2675POPC   NC335219  28.129   1.125   9.812
 2675POPC   PO435220  27.660   1.571   9.529
 2675POPC   GL135221  27.579   1.326   9.132
 2675POPC   GL235222  27.918   1.450   9.040
 2675POPC   C1A35223  27.341   0.962   8.848
 2675POPC   D2A35224  27.150   0.831   8.426
 2675POPC   C3A35225  27.408   0.849   8.036
 2675POPC   C4A35226  27.602   0.922   7.605
 2675POPC   C1B35227  27.751   1.229   8.669
 2675POPC   C2B35228  27.785   1.130   8.248
 2675POPC   C3B35229  27.786   1.304   7.860
 2675POPC   C4B35230  27.853   1.359   7.390
 2676POPC   NC335231  41.547  40.320   9.505
 2676POPC   PO435232  41.321  39.726   9.538
 2676POPC   GL135233  41.399  40.004   9.136
 2676POPC   GL235234  41.752  40.138   9.021
 2676POPC   C1A35235  41.413  40.075   8.682
 2676POPC   D2A35236  41.784  40.150   8.419
 2676POPC   C3A35237  41.574  40.054   8.050
 2676POPC   C4A35238  41.168  39.987   7.805
 2676POPC   C1B35239  41.800  39.752   8.729
 2676POPC   C2B35240  41.791  39.607   8.281
 2676POPC   C3B35241  41.848  39.680   7.804
 2676POPC   C4B35242  41.985  39.854   7.365
 2677POPC   NC335243  37.142  36.740   9.507
 2677POPC   PO435244  36.754  37.366   9.466
 2677POPC   GL135245  36.885  37.018   9.198
 2677POPC   GL235246  37.118  37.219   9.073
 2677POPC   C1A35247  37.187  36.750   8.857
 2677POPC   D2A35248  37.127  36.402   8.505
 2677POPC   C3A35249  37.045  36.558   8.054
 2677POPC   C4A35250  37.112  36.876   7.715
 2677POPC   C1B35251  36.693  37.250   8.819
 2677POPC   C2B35252  36.600  37.215   8.415
 2677POPC   C3B35253  36.837  37.175   8.055
 2677POPC   C4B35254  36.728  37.216   7.646
 2678POPC   NC335255   5.374  17.251   9.464
 2678POPC   PO435256   4.738  17.565   9.573
 2678POPC   GL135257   4.982  17.525   9.231
 2678POPC   GL235258   4.868  17.880   9.172
 2678POPC   C1A35259   5.100  17.286   8.819
 2678POPC   D2A35260   4.942  17.381   8.385
 2678POPC   C3A35261   5.226  17.312   8.104
 2678POPC   C4A35262   5.154  17.283   7.702
 2678POPC   C1B35263   5.202  17.805   8.878
 2678POPC   C2B35264   5.354  17.639   8.502
 2678POPC   C3B35265   5.333  17.790   8.101
 2678POPC   C4B35266   5.350  17.790   7.692
 2679POPC   NC335267  38.258  38.970   9.270
 2679POPC   PO435268  38.557  39.451   9.677
 2679POPC   GL135269  38.612  39.373   9.202
 2679POPC   GL235270  38.726  39.035   9.102
 2679POPC   C1A35271  38.364  39.360   8.759
 2679POPC   D2A35272  38.477  39.195   8.332
 2679POPC   C3A35273  38.129  39.228   8.085
 2679POPC   C4A35274  38.177  39.470   7.749
 2679POPC   C1B35275  38.822  39.166   8.711
 2679POPC   C2B35276  38.985  39.050   8.339
 2679POPC   C3B35277  38.863  39.140   7.917
 2679POPC   C4B35278  38.487  38.995   7.821
 2680POPC   NC335279   5.771   9.876   9.476
 2680POPC   PO435280   6.181   9.356   9.578
 2680POPC   GL135281   6.017   9.541   9.213
 2680POPC   GL235282   6.269   9.744   9.113
 2680POPC   C1A35283   5.754   9.676   8.826
 2680POPC   D2A35284   5.685   9.961   8.467
 2680POPC   C3A35285   5.649   9.757   8.089
 2680POPC   C4A35286   5.643   9.639   7.671
 2680POPC   C1B35287   6.079  10.055   8.877
 2680POPC   C2B35288   6.160  10.122   8.486
 2680POPC   C3B35289   6.159   9.827   8.218
 2680POPC   C4B35290   6.069   9.917   7.824
 2681POPC   NC335291   3.217   4.113   9.625
 2681POPC   PO435292   2.652   4.370   9.791
 2681POPC   GL135293   2.608   4.345   9.355
 2681POPC   GL235294   2.899   4.461   9.204
 2681POPC   C1A35295   2.553   4.155   8.917
 2681POPC   D2A35296   2.516   4.372   8.526
 2681POPC   C3A35297   2.659   4.310   8.113
 2681POPC   C4A35298   2.800   4.540   7.729
 2681POPC   C1B35299   2.995   4.353   8.793
 2681POPC   C2B35300   3.169   4.241   8.422
 2681POPC   C3B35301   3.147   4.414   8.051
 2681POPC   C4B35302   3.250   4.239   7.680
 2682POPC   NC335303   0.120   7.824   9.495
 2682POPC   PO435304   0.543   7.306   9.536
 2682POPC   GL135305   0.351   7.426   9.175
 2682POPC   GL235306   0.690   7.480   9.066
 2682POPC   C1A35307   0.322   7.198   8.794
 2682POPC   D2A35308   0.269   7.334   8.379
 2682POPC   C3A35309   0.018   7.125   8.114
 2682POPC   C4A35310   0.287   7.128   7.759
 2682POPC   C1B35311   0.538   7.641   8.677
 2682POPC   C2B35312   0.692   7.659   8.268
 2682POPC   C3B35313   0.654   7.530   7.820
 2682POPC   C4B35314   0.645   7.810   7.435
 2683POPC   NC335315  33.098   6.715   9.508
 2683POPC   PO435316  32.465   6.692   9.320
 2683POPC   GL135317  32.834   6.669   9.067
 2683POPC   GL235318  32.993   6.370   9.155
 2683POPC   C1A35319  33.172   6.646   8.743
 2683POPC   D2A35320  33.066   6.808   8.332
 2683POPC   C3A35321  33.159   6.788   7.897
 2683POPC   C4A35322  32.789   6.861   7.667
 2683POPC   C1B35323  32.723   6.224   8.829
 2683POPC   C2B35324  32.641   6.493   8.483
 2683POPC   C3B35325  32.608   6.566   8.046
 2683POPC   C4B35326  32.701   6.338   7.667
 2684POPC   NC335327   6.971  26.131   9.566
 2684POPC   PO435328   6.280  26.220   9.664
 2684POPC   GL135329   6.597  26.212   9.209
 2684POPC   GL235330   6.890  25.976   9.088
 2684POPC   C1A35331   6.758  26.279   8.725
 2684POPC   D2A35332   6.479  26.134   8.411
 2684POPC   C3A35333   6.542  26.031   8.000
 2684POPC   C4A35334   6.761  26.370   7.772
 2684POPC   C1B35335   6.564  25.808   8.795
 2684POPC   C2B35336   6.643  25.641   8.358
 2684POPC   C3B35337   6.823  25.616   7.916
 2684POPC   C4B35338   6.823  25.913   7.547
 2685POPC   NC335339  28.500  24.961   9.605
 2685POPC   PO435340  28.755  25.539   9.882
 2685POPC   GL135341  28.718  25.276   9.300
 2685POPC   GL235342  28.395  25.091   9.136
 2685POPC   C1A35343  28.664  25.388   8.838
 2685POPC   D2A35344  28.579  25.210   8.424
 2685POPC   C3A35345  28.673  25.390   8.000
 2685POPC   C4A35346  28.661  25.094   7.649
 2685POPC   C1B35347  28.075  25.089   8.809
 2685POPC   C2B35348  28.036  25.285   8.386
 2685POPC   C3B35349  28.177  25.296   7.967
 2685POPC   C4B35350  28.161  24.971   7.659
 2686POPC   NC335351  14.428  26.325   9.193
 2686POPC   PO435352  13.835  26.170   9.451
 2686POPC   GL135353  14.074  26.007   9.053
 2686POPC   GL235354  14.370  25.790   8.997
 2686POPC   C1A35355  14.222  26.053   8.599
 2686POPC   D2A35356  14.452  25.941   8.195
 2686POPC   C3A35357  14.145  25.855   7.853
 2686POPC   C4A35358  14.172  26.252   7.634
 2686POPC   C1B35359  14.636  25.730   8.645
 2686POPC   C2B35360  14.968  25.749   8.328
 2686POPC   C3B35361  14.881  25.674   7.888
 2686POPC   C4B35362  14.600  25.967   7.684
 2687POPC   NC335363  44.218   9.255   9.410
 2687POPC   PO435364  43.836   8.822   9.753
 2687POPC   GL135365  43.843   8.933   9.310
 2687POPC   GL235366  43.969   8.688   9.130
 2687POPC   C1A35367  43.831   9.095   8.839
 2687POPC   D2A35368  43.861   8.869   8.413
 2687POPC   C3A35369  43.648   9.057   8.029
 2687POPC   C4A35370  43.774   9.204   7.584
 2687POPC   C1B35371  44.223   8.768   8.774
 2687POPC   C2B35372  44.343   8.684   8.341
 2687POPC   C3B35373  44.131   8.831   7.955
 2687POPC   C4B35374  43.797   8.707   7.699
 2688POPC   NC335375  39.684  43.083   9.515
 2688POPC   PO435376  40.365  43.294   9.519
 2688POPC   GL135377  40.100  43.152   9.187
 2688POPC   GL235378  40.148  42.856   9.005
 2688POPC   C1A35379  39.949  43.260   8.769
 2688POPC   D2A35380  39.808  43.490   8.429
 2688POPC   C3A35381  39.931  43.289   8.061
 2688POPC   C4A35382  39.768  43.451   7.659
 2688POPC   C1B35383  39.796  42.772   8.708
 2688POPC   C2B35384  39.757  42.682   8.271
 2688POPC   C3B35385  40.047  42.711   7.943
 2688POPC   C4B35386  40.066  43.009   7.638
 2689POPC   NC335387  28.084  34.998   9.800
 2689POPC   PO435388  28.475  35.525   9.645
 2689POPC   GL135389  28.378  35.496   9.196
 2689POPC   GL235390  28.112  35.709   9.023
 2689POPC   C1A35391  28.498  35.353   8.769
 2689POPC   D2A35392  28.700  35.478   8.387
 2689POPC   C3A35393  28.547  35.579   8.005
 2689POPC   C4A35394  28.563  35.242   7.748
 2689POPC   C1B35395  28.022  35.249   8.919
 2689POPC   C2B35396  28.080  35.186   8.505
 2689POPC   C3B35397  28.120  35.222   8.074
 2689POPC   C4B35398  28.093  35.509   7.770
 2690POPC   NC335399  25.109  23.322   9.518
 2690POPC   PO435400  24.933  24.009   9.529
 2690POPC   GL135401  25.094  23.879   9.128
 2690POPC   GL235402  24.984  23.553   9.102
 2690POPC   C1A35403  25.352  23.713   8.779
 2690POPC   D2A35404  25.453  23.503   8.397
 2690POPC   C3A35405  25.298  23.778   8.051
 2690POPC   C4A35406  25.352  24.159   7.762
 2690POPC   C1B35407  24.799  23.652   8.729
 2690POPC   C2B35408  24.942  23.533   8.361
 2690POPC   C3B35409  24.846  23.522   7.958
 2690POPC   C4B35410  24.978  23.804   7.668
 2691POPC   NC335411  33.772  30.232   9.488
 2691POPC   PO435412  33.471  29.656   9.545
 2691POPC   GL135413  33.726  29.826   9.184
 2691POPC   GL235414  33.533  30.117   9.052
 2691POPC   C1A35415  33.987  29.849   8.770
 2691POPC   D2A35416  33.946  30.109   8.367
 2691POPC   C3A35417  33.772  29.948   7.939
 2691POPC   C4A35418  33.511  30.146   7.594
 2691POPC   C1B35419  33.488  29.740   8.767
 2691POPC   C2B35420  33.647  29.692   8.378
 2691POPC   C3B35421  33.510  29.506   8.034
 2691POPC   C4B35422  33.403  29.646   7.606
 2692POPC   NC335423   4.961  21.455   9.572
 2692POPC   PO435424   5.117  20.869   9.393
 2692POPC   GL135425   5.234  21.234   9.099
 2692POPC   GL235426   5.506  21.073   8.857
 2692POPC   C1A35427   5.042  21.649   8.820
 2692POPC   D2A35428   4.761  21.738   8.398
 2692POPC   C3A35429   4.900  21.758   7.957
 2692POPC   C4A35430   5.289  21.604   7.779
 2692POPC   C1B35431   5.209  21.235   8.590
 2692POPC   C2B35432   5.240  21.548   8.307
 2692POPC   C3B35433   5.015  21.276   8.071
 2692POPC   C4B35434   4.976  20.942   7.844
 2693POPC   NC335435  19.341  10.096   9.488
 2693POPC   PO435436  18.777   9.626   9.498
 2693POPC   GL135437  19.042   9.805   9.178
 2693POPC   GL235438  18.824  10.082   9.096
 2693POPC   C1A35439  19.132   9.882   8.705
 2693POPC   D2A35440  19.237   9.681   8.280
 2693POPC   C3A35441  19.081   9.839   7.851
 2693POPC   C4A35442  19.100   9.804   7.397
 2693POPC   C1B35443  18.661   9.721   8.860
 2693POPC   C2B35444  18.753   9.569   8.468
 2693POPC   C3B35445  18.819   9.481   8.062
 2693POPC   C4B35446  18.648   9.397   7.697
 2694POPC   NC335447  39.607  30.014   9.363
 2694POPC   PO435448  38.989  30.135   9.658
 2694POPC   GL135449  39.095  30.177   9.242
 2694POPC   GL235450  39.362  30.388   9.144
 2694POPC   C1A35451  39.072  30.051   8.808
 2694POPC   D2A35452  39.050  29.703   8.516
 2694POPC   C3A35453  39.101  29.830   8.128
 2694POPC   C4A35454  39.146  29.909   7.713
 2694POPC   C1B35455  39.559  30.246   8.755
 2694POPC   C2B35456  39.383  30.250   8.351
 2694POPC   C3B35457  39.599  30.340   7.978
 2694POPC   C4B35458  39.542  30.181   7.593
 2695POPC   NC335459  33.864  38.068   9.353
 2695POPC   PO435460  33.801  38.768   9.490
 2695POPC   GL135461  33.824  38.555   9.139
 2695POPC   GL235462  33.523  38.348   9.064
 2695POPC   C1A35463  33.955  38.403   8.758
 2695POPC   D2A35464  33.744  38.354   8.393
 2695POPC   C3A35465  34.008  38.436   8.093
 2695POPC   C4A35466  33.865  38.424   7.724
 2695POPC   C1B35467  33.502  38.690   8.765
 2695POPC   C2B35468  33.342  38.772   8.379
 2695POPC   C3B35469  33.549  38.740   7.989
 2695POPC   C4B35470  33.417  38.672   7.556
 2696POPC   NC335471  20.224  21.361   9.625
 2696POPC   PO435472  19.797  21.771   9.679
 2696POPC   GL135473  19.886  21.566   9.241
 2696POPC   GL235474  19.901  21.215   9.226
 2696POPC   C1A35475  19.638  21.396   8.826
 2696POPC   D2A35476  19.778  21.291   8.386
 2696POPC   C3A35477  19.563  21.253   7.972
 2696POPC   C4A35478  19.638  21.471   7.575
 2696POPC   C1B35479  20.145  21.384   8.837
 2696POPC   C2B35480  20.220  21.103   8.521
 2696POPC   C3B35481  20.265  21.166   8.119
 2696POPC   C4B35482  20.083  21.261   7.740
 2697POPC   NC335483  31.832  39.325   9.636
 2697POPC   PO435484  31.179  39.071   9.419
 2697POPC   GL135485  31.348  39.240   9.095
 2697POPC   GL235486  31.707  39.296   9.130
 2697POPC   C1A35487  31.211  39.364   8.697
 2697POPC   D2A35488  31.320  39.166   8.323
 2697POPC   C3A35489  31.649  39.313   8.053
 2697POPC   C4A35490  31.421  39.303   7.685
 2697POPC   C1B35491  31.658  39.083   8.740
 2697POPC   C2B35492  31.565  38.753   8.486
 2697POPC   C3B35493  31.732  38.819   8.123
 2697POPC   C4B35494  31.636  38.844   7.709
 2698POPC   NC335495   8.230  39.765  10.166
 2698POPC   PO435496   8.397  40.043   9.510
 2698POPC   GL135497   8.247  39.830   9.104
 2698POPC   GL235498   8.113  40.157   9.098
 2698POPC   C1A35499   8.299  39.701   8.633
 2698POPC   D2A35500   8.224  39.984   8.264
 2698POPC   C3A35501   8.173  39.921   7.822
 2698POPC   C4A35502   8.109  39.869   7.380
 2698POPC   C1B35503   7.975  40.075   8.711
 2698POPC   C2B35504   7.772  40.224   8.382
 2698POPC   C3B35505   7.903  40.328   7.984
 2698POPC   C4B35506   7.810  40.196   7.600
 2699POPC   NC335507  29.593   8.692   9.356
 2699POPC   PO435508  30.137   9.114   9.483
 2699POPC   GL135509  30.012   8.991   9.098
 2699POPC   GL235510  30.277   8.745   9.064
 2699POPC   C1A35511  29.782   9.129   8.708
 2699POPC   D2A35512  29.633   9.141   8.233
 2699POPC   C3A35513  29.862   9.181   7.819
 2699POPC   C4A35514  29.862   8.942   7.391
 2699POPC   C1B35515  30.150   8.752   8.626
 2699POPC   C2B35516  30.063   8.825   8.187
 2699POPC   C3B35517  29.815   8.659   7.838
 2699POPC   C4B35518  29.623   8.491   7.438
 2700POPC   NC335519  10.695  36.557   9.465
 2700POPC   PO435520  10.101  36.883   9.585
 2700POPC   GL135521  10.375  36.819   9.162
 2700POPC   GL235522  10.434  37.124   8.989
 2700POPC   C1A35523  10.482  36.655   8.718
 2700POPC   D2A35524  10.606  36.451   8.306
 2700POPC   C3A35525  10.394  36.710   7.940
 2700POPC   C4A35526  10.506  37.179   7.843
 2700POPC   C1B35527  10.781  37.069   8.724
 2700POPC   C2B35528  10.679  36.965   8.293
 2700POPC   C3B35529  10.897  36.837   7.905
 2700POPC   C4B35530  10.911  37.035   7.515
 2701POPC   NC335531  37.698  23.820   9.667
 2701POPC   PO435532  37.539  23.192   9.538
 2701POPC   GL135533  37.758  23.492   9.230
 2701POPC   GL235534  37.867  23.878   9.186
 2701POPC   C1A35535  37.644  23.566   8.813
 2701POPC   D2A35536  37.745  23.410   8.429
 2701POPC   C3A35537  37.727  23.638   8.084
 2701POPC   C4A35538  37.745  23.392   7.745
 2701POPC   C1B35539  37.759  24.054   8.750
 2701POPC   C2B35540  37.866  24.235   8.338
 2701POPC   C3B35541  37.664  24.137   7.956
 2701POPC   C4B35542  37.585  23.854   7.640
 2702POPC   NC335543  22.306  17.898   9.854
 2702POPC   PO435544  22.229  17.348   9.465
 2702POPC   GL135545  22.191  17.413   9.058
 2702POPC   GL235546  22.075  17.742   9.149
 2702POPC   C1A35547  22.343  17.418   8.655
 2702POPC   D2A35548  22.072  17.337   8.324
 2702POPC   C3A35549  22.304  17.452   7.972
 2702POPC   C4A35550  22.402  17.416   7.528
 2702POPC   C1B35551  21.882  17.671   8.752
 2702POPC   C2B35552  21.750  17.808   8.356
 2702POPC   C3B35553  21.827  17.621   7.963
 2702POPC   C4B35554  22.007  17.726   7.590
 2703POPC   NC335555  10.858  26.878   9.474
 2703POPC   PO435556  10.811  26.258   9.409
 2703POPC   GL135557  10.603  26.583   9.112
 2703POPC   GL235558  10.630  26.978   9.033
 2703POPC   C1A35559  10.342  26.687   8.744
 2703POPC   D2A35560  10.578  26.902   8.429
 2703POPC   C3A35561  10.492  26.808   7.981
 2703POPC   C4A35562  10.759  26.870   7.648
 2703POPC   C1B35563  10.263  27.199   8.809
 2703POPC   C2B35564  10.257  27.312   8.362
 2703POPC   C3B35565  10.630  27.296   8.093
 2703POPC   C4B35566  10.414  27.246   7.727
 2704POPC   NC335567  23.365   1.294   9.416
 2704POPC   PO435568  23.920   0.907   9.437
 2704POPC   GL135569  23.785   1.217   9.136
 2704POPC   GL235570  23.856   1.544   9.147
 2704POPC   C1A35571  23.561   1.416   8.761
 2704POPC   D2A35572  23.658   1.266   8.355
 2704POPC   C3A35573  23.356   1.121   8.066
 2704POPC   C4A35574  23.599   1.173   7.667
 2704POPC   C1B35575  24.079   1.392   8.756
 2704POPC   C2B35576  24.178   1.328   8.337
 2704POPC   C3B35577  24.057   1.219   7.946
 2704POPC   C4B35578  24.090   1.420   7.569
 2705POPC   NC335579  14.546  39.631   9.445
 2705POPC   PO435580  14.618  40.327   9.555
 2705POPC   GL135581  14.540  40.116   9.175
 2705POPC   GL235582  14.437  39.811   8.990
 2705POPC   C1A35583  14.537  40.238   8.765
 2705POPC   D2A35584  14.322  39.940   8.478
 2705POPC   C3A35585  14.413  39.998   8.050
 2705POPC   C4A35586  14.244  39.819   7.713
 2705POPC   C1B35587  14.763  39.704   8.708
 2705POPC   C2B35588  14.863  39.433   8.403
 2705POPC   C3B35589  14.832  39.668   8.064
 2705POPC   C4B35590  14.680  39.583   7.704
 2706POPC   NC335591  37.288  42.907   9.660
 2706POPC   PO435592  36.658  42.875   9.357
 2706POPC   GL135593  36.897  43.159   9.081
 2706POPC   GL235594  37.162  43.404   9.157
 2706POPC   C1A35595  37.156  43.052   8.727
 2706POPC   D2A35596  37.035  42.769   8.388
 2706POPC   C3A35597  36.802  42.947   8.016
 2706POPC   C4A35598  36.823  43.097   7.585
 2706POPC   C1B35599  37.034  43.552   8.719
 2706POPC   C2B35600  37.068  43.325   8.304
 2706POPC   C3B35601  37.003  43.464   7.886
 2706POPC   C4B35602  37.175  43.538   7.480
 2707POPC   NC335603  35.945   2.377   9.438
 2707POPC   PO435604  36.608   2.282   9.476
 2707POPC   GL135605  36.373   2.140   9.156
 2707POPC   GL235606  36.151   2.381   8.981
 2707POPC   C1A35607  36.371   1.986   8.753
 2707POPC   D2A35608  36.252   2.279   8.453
 2707POPC   C3A35609  36.189   2.097   8.074
 2707POPC   C4A35610  36.481   2.083   7.749
 2707POPC   C1B35611  35.865   2.045   8.804
 2707POPC   C2B35612  35.868   1.810   8.400
 2707POPC   C3B35613  35.743   1.872   7.941
 2707POPC   C4B35614  35.797   2.262   7.685
 2708POPC   NC335615  33.903  34.939   9.353
 2708POPC   PO435616  34.211  35.501   9.578
 2708POPC   GL135617  33.860  35.466   9.267
 2708POPC   GL235618  34.057  35.289   9.023
 2708POPC   C1A35619  33.706  35.557   8.826
 2708POPC   D2A35620  33.538  35.327   8.499
 2708POPC   C3A35621  33.783  35.437   8.156
 2708POPC   C4A35622  33.715  35.502   7.755
 2708POPC   C1B35623  34.043  35.233   8.569
 2708POPC   C2B35624  33.843  34.946   8.301
 2708POPC   C3B35625  33.738  34.986   7.870
 2708POPC   C4B35626  33.999  34.789   7.577
 2709POPC   NC335627  13.939  14.214   9.542
 2709POPC   PO435628  13.448  14.677   9.511
 2709POPC   GL135629  13.612  14.403   9.175
 2709POPC   GL235630  13.484  14.073   9.272
 2709POPC   C1A35631  13.589  14.501   8.710
 2709POPC   D2A35632  13.491  14.648   8.274
 2709POPC   C3A35633  13.793  14.427   8.025
 2709POPC   C4A35634  13.794  14.110   7.718
 2709POPC   C1B35635  13.296  14.112   8.867
 2709POPC   C2B35636  13.225  14.177   8.419
 2709POPC   C3B35637  13.332  14.197   7.987
 2709POPC   C4B35638  13.332  14.264   7.540
 2710POPC   NC335639  27.990   6.770   9.422
 2710POPC   PO435640  28.641   6.581   9.303
 2710POPC   GL135641  28.518   6.875   8.987
 2710POPC   GL235642  28.221   6.673   8.972
 2710POPC   C1A35643  28.540   6.888   8.534
 2710POPC   D2A35644  28.299   6.516   8.382
 2710POPC   C3A35645  28.524   6.369   8.054
 2710POPC   C4A35646  28.539   6.797   7.961
 2710POPC   C1B35647  28.053   6.888   8.634
 2710POPC   C2B35648  28.128   7.018   8.227
 2710POPC   C3B35649  28.004   6.853   7.844
 2710POPC   C4B35650  28.234   6.529   7.666
 2711POPC   NC335651  35.194  43.517   9.411
 2711POPC   PO435652  35.795  43.846   9.638
 2711POPC   GL135653  35.560  43.867   9.182
 2711POPC   GL235654  35.308  44.140   9.078
 2711POPC   C1A35655  35.574  43.833   8.722
 2711POPC   D2A35656  35.504  43.578   8.348
 2711POPC   C3A35657  35.515  43.799   7.976
 2711POPC   C4A35658  35.496  43.629   7.585
 2711POPC   C1B35659  35.068  43.867   8.800
 2711POPC   C2B35660  35.114  43.903   8.392
 2711POPC   C3B35661  35.012  43.892   7.994
 2711POPC   C4B35662  34.830  44.179   7.733
 2712POPC   NC335663  22.100  21.005  10.006
 2712POPC   PO435664  22.140  21.439   9.471
 2712POPC   GL135665  22.170  21.354   9.063
 2712POPC   GL235666  22.248  21.668   8.974
 2712POPC   C1A35667  21.933  21.142   8.739
 2712POPC   D2A35668  22.066  21.035   8.342
 2712POPC   C3A35669  21.885  21.206   7.978
 2712POPC   C4A35670  22.110  21.283   7.606
 2712POPC   C1B35671  22.345  21.436   8.609
 2712POPC   C2B35672  22.256  21.505   8.215
 2712POPC   C3B35673  22.479  21.515   7.862
 2712POPC   C4B35674  22.589  21.520   7.418
 2713POPC   NC335675  23.464  35.867   9.277
 2713POPC   PO435676  23.883  36.325   9.562
 2713POPC   GL135677  23.750  36.308   9.136
 2713POPC   GL235678  23.390  36.343   9.122
 2713POPC   C1A35679  23.696  36.116   8.721
 2713POPC   D2A35680  23.907  35.954   8.382
 2713POPC   C3A35681  23.755  36.097   8.021
 2713POPC   C4A35682  23.952  35.981   7.645
 2713POPC   C1B35683  23.442  36.547   8.757
 2713POPC   C2B35684  23.633  36.493   8.364
 2713POPC   C3B35685  23.519  36.587   7.967
 2713POPC   C4B35686  23.742  36.453   7.629
 2714POPC   NC335687   8.810  24.105   9.365
 2714POPC   PO435688   9.232  24.555   9.594
 2714POPC   GL135689   9.061  24.524   9.210
 2714POPC   GL235690   9.285  24.199   9.156
 2714POPC   C1A35691   8.765  24.576   8.850
 2714POPC   D2A35692   8.861  24.446   8.455
 2714POPC   C3A35693   8.857  24.551   8.032
 2714POPC   C4A35694   8.824  24.312   7.638
 2714POPC   C1B35695   9.310  24.022   8.724
 2714POPC   C2B35696   9.298  24.201   8.312
 2714POPC   C3B35697   9.271  24.282   7.868
 2714POPC   C4B35698   9.368  24.196   7.400
 2715POPC   NC335699  18.636   6.599   9.584
 2715POPC   PO435700  18.105   6.218   9.814
 2715POPC   GL135701  18.274   6.414   9.282
 2715POPC   GL235702  18.419   6.731   9.151
 2715POPC   C1A35703  18.140   6.411   8.800
 2715POPC   D2A35704  17.983   6.290   8.341
 2715POPC   C3A35705  18.317   6.397   8.019
 2715POPC   C4A35706  18.461   6.824   7.949
 2715POPC   C1B35707  18.251   6.915   8.791
 2715POPC   C2B35708  18.246   6.731   8.405
 2715POPC   C3B35709  17.959   6.735   8.059
 2715POPC   C4B35710  18.034   6.905   7.642
 2716POPC   NC335711  34.182  38.964   9.662
 2716POPC   PO435712  33.886  39.634   9.567
 2716POPC   GL135713  33.820  39.229   9.282
 2716POPC   GL235714  34.089  39.022   9.161
 2716POPC   C1A35715  33.729  39.151   8.804
 2716POPC   D2A35716  33.558  39.221   8.346
 2716POPC   C3A35717  33.741  39.356   7.984
 2716POPC   C4A35718  33.759  39.364   7.576
 2716POPC   C1B35719  34.142  38.872   8.777
 2716POPC   C2B35720  33.914  38.847   8.402
 2716POPC   C3B35721  34.033  38.948   7.983
 2716POPC   C4B35722  33.890  38.892   7.554
 2717POPC   NC335723   1.318  16.637   9.433
 2717POPC   PO435724   0.766  16.944   9.522
 2717POPC   GL135725   1.025  16.992   9.133
 2717POPC   GL235726   1.404  16.945   9.040
 2717POPC   C1A35727   1.017  16.830   8.715
 2717POPC   D2A35728   1.299  16.902   8.381
 2717POPC   C3A35729   1.121  16.765   7.986
 2717POPC   C4A35730   1.232  16.921   7.595
 2717POPC   C1B35731   1.481  16.567   8.802
 2717POPC   C2B35732   1.537  16.452   8.395
 2717POPC   C3B35733   1.611  16.636   8.014
 2717POPC   C4B35734   1.428  16.472   7.668
 2718POPC   NC335735  35.713  34.575   9.280
 2718POPC   PO435736  35.162  34.230   9.470
 2718POPC   GL135737  35.322  34.289   9.079
 2718POPC   GL235738  35.626  34.137   9.019
 2718POPC   C1A35739  35.188  34.461   8.680
 2718POPC   D2A35740  35.153  34.768   8.356
 2718POPC   C3A35741  35.158  34.524   7.973
 2718POPC   C4A35742  35.137  34.738   7.606
 2718POPC   C1B35743  35.705  34.413   8.658
 2718POPC   C2B35744  35.627  34.587   8.258
 2718POPC   C3B35745  35.654  34.512   7.836
 2718POPC   C4B35746  35.705  34.133   7.748
 2719POPC   NC335747  43.416   5.355   9.341
 2719POPC   PO435748  43.859   4.941   9.606
 2719POPC   GL135749  43.840   4.958   9.182
 2719POPC   GL235750  43.567   4.769   9.078
 2719POPC   C1A35751  44.078   4.893   8.794
 2719POPC   D2A35752  44.280   4.838   8.378
 2719POPC   C3A35753  44.069   5.039   8.058
 2719POPC   C4A35754  43.985   4.891   7.665
 2719POPC   C1B35755  43.597   5.075   8.737
 2719POPC   C2B35756  43.454   5.041   8.332
 2719POPC   C3B35757  43.558   4.992   7.934
 2719POPC   C4B35758  43.718   5.352   7.738
 2720POPC   NC335759  26.616  34.401   9.555
 2720POPC   PO435760  26.716  35.081   9.632
 2720POPC   GL135761  26.693  34.857   9.206
 2720POPC   GL235762  26.901  34.535   9.141
 2720POPC   C1A35763  26.653  34.795   8.732
 2720POPC   D2A35764  26.908  34.763   8.325
 2720POPC   C3A35765  26.676  34.716   7.925
 2720POPC   C4A35766  26.506  34.316   7.878
 2720POPC   C1B35767  26.797  34.300   8.734
 2720POPC   C2B35768  26.820  34.200   8.282
 2720POPC   C3B35769  27.047  34.364   7.905
 2720POPC   C4B35770  27.181  34.788   7.754
 2721POPC   NC335771  11.218  24.114   9.434
 2721POPC   PO435772  11.134  24.812   9.524
 2721POPC   GL135773  11.220  24.555   9.114
 2721POPC   GL235774  11.402  24.823   8.876
 2721POPC   C1A35775  11.502  24.351   8.776
 2721POPC   D2A35776  11.574  24.630   8.417
 2721POPC   C3A35777  11.476  24.347   8.090
 2721POPC   C4A35778  11.372  24.232   7.687
 2721POPC   C1B35779  11.079  24.661   8.614
 2721POPC   C2B35780  11.112  24.715   8.166
 2721POPC   C3B35781  11.310  24.729   7.765
 2721POPC   C4B35782  11.138  24.573   7.362
 2722POPC   NC335783  28.153  18.922   9.428
 2722POPC   PO435784  28.729  18.527   9.581
 2722POPC   GL135785  28.539  18.674   9.131
 2722POPC   GL235786  28.396  19.037   9.001
 2722POPC   C1A35787  28.727  18.806   8.707
 2722POPC   D2A35788  28.622  19.168   8.447
 2722POPC   C3A35789  28.436  18.975   8.090
 2722POPC   C4A35790  28.035  18.863   7.920
 2722POPC   C1B35791  28.130  19.104   8.646
 2722POPC   C2B35792  28.090  19.347   8.258
 2722POPC   C3B35793  28.200  19.370   7.830
 2722POPC   C4B35794  28.016  19.180   7.486
 2723POPC   NC335795   5.270  24.096   9.411
 2723POPC   PO435796   5.501  23.501   9.420
 2723POPC   GL135797   5.290  23.697   9.069
 2723POPC   GL235798   4.953  23.864   9.059
 2723POPC   C1A35799   5.160  23.630   8.637
 2723POPC   D2A35800   5.266  23.803   8.228
 2723POPC   C3A35801   5.110  23.569   7.853
 2723POPC   C4A35802   5.210  23.297   7.476
 2723POPC   C1B35803   5.194  24.117   8.752
 2723POPC   C2B35804   5.057  24.271   8.378
 2723POPC   C3B35805   4.934  24.104   7.971
 2723POPC   C4B35806   4.957  24.248   7.569
 2724POPC   NC335807  23.433  23.986   9.474
 2724POPC   PO435808  24.109  23.846   9.352
 2724POPC   GL135809  23.770  23.880   9.066
 2724POPC   GL235810  23.500  23.609   9.102
 2724POPC   C1A35811  23.797  23.822   8.616
 2724POPC   D2A35812  23.690  23.664   8.221
 2724POPC   C3A35813  23.861  23.779   7.849
 2724POPC   C4A35814  23.721  23.810   7.447
 2724POPC   C1B35815  23.809  23.363   8.859
 2724POPC   C2B35816  23.961  23.260   8.421
 2724POPC   C3B35817  23.951  23.272   7.971
 2724POPC   C4B35818  23.993  23.382   7.499
 2725POPC   NC335819   0.631  17.237   9.842
 2725POPC   PO435820   0.423  17.691   9.444
 2725POPC   GL135821   0.226  17.442   9.148
 2725POPC   GL235822   0.509  17.296   9.015
 2725POPC   C1A35823   0.149  17.471   8.690
 2725POPC   D2A35824   0.348  17.276   8.326
 2725POPC   C3A35825   0.440  17.454   7.949
 2725POPC   C4A35826   0.228  17.529   7.561
 2725POPC   C1B35827   0.746  17.262   8.653
 2725POPC   C2B35828   0.846  17.131   8.246
 2725POPC   C3B35829   0.842  17.167   7.823
 2725POPC   C4B35830   0.550  17.159   7.497
 2726POPC   NC335831  29.625   1.510   9.478
 2726POPC   PO435832  29.965   2.159   9.497
 2726POPC   GL135833  29.735   2.190   9.132
 2726POPC   GL235834  29.755   1.834   9.101
 2726POPC   C1A35835  29.673   2.255   8.693
 2726POPC   D2A35836  29.610   2.037   8.312
 2726POPC   C3A35837  29.813   2.063   7.900
 2726POPC   C4A35838  29.761   2.262   7.497
 2726POPC   C1B35839  29.710   1.666   8.682
 2726POPC   C2B35840  29.707   1.525   8.255
 2726POPC   C3B35841  29.756   1.535   7.801
 2726POPC   C4B35842  29.928   1.785   7.469
 2727POPC   NC335843  15.780  26.454   9.515
 2727POPC   PO435844  16.023  25.846   9.463
 2727POPC   GL135845  15.978  26.007   9.075
 2727POPC   GL235846  16.106  26.358   9.150
 2727POPC   C1A35847  15.870  25.772   8.685
 2727POPC   D2A35848  16.059  25.760   8.269
 2727POPC   C3A35849  15.807  25.919   7.896
 2727POPC   C4A35850  15.967  25.870   7.461
 2727POPC   C1B35851  16.175  26.397   8.757
 2727POPC   C2B35852  15.937  26.260   8.447
 2727POPC   C3B35853  16.026  26.425   8.070
 2727POPC   C4B35854  15.937  26.390   7.667
 2728POPC   NC335855  24.216  20.048   9.466
 2728POPC   PO435856  24.874  19.752   9.424
 2728POPC   GL135857  24.584  19.867   9.087
 2728POPC   GL235858  24.203  19.726   9.078
 2728POPC   C1A35859  24.699  20.092   8.710
 2728POPC   D2A35860  24.436  20.307   8.468
 2728POPC   C3A35861  24.212  20.108   8.145
 2728POPC   C4A35862  24.340  19.892   7.802
 2728POPC   C1B35863  24.262  19.843   8.658
 2728POPC   C2B35864  24.330  19.604   8.272
 2728POPC   C3B35865  24.417  19.408   7.882
 2728POPC   C4B35866  24.157  19.461   7.547
 2729POPC   NC335867  42.731  42.198   9.416
 2729POPC   PO435868  43.391  42.450   9.435
 2729POPC   GL135869  43.130  42.510   9.081
 2729POPC   GL235870  43.350  42.796   9.012
 2729POPC   C1A35871  42.931  42.341   8.682
 2729POPC   D2A35872  43.107  42.352   8.258
 2729POPC   C3A35873  42.922  42.232   7.871
 2729POPC   C4A35874  42.986  41.954   7.468
 2729POPC   C1B35875  43.433  42.591   8.602
 2729POPC   C2B35876  43.592  42.217   8.356
 2729POPC   C3B35877  43.441  42.090   7.950
 2729POPC   C4B35878  43.397  42.488   7.787
 2730POPC   NC335879  12.740   8.694   9.496
 2730POPC   PO435880  12.643   9.386   9.514
 2730POPC   GL135881  12.876   9.208   9.137
 2730POPC   GL235882  13.049   8.867   9.132
 2730POPC   C1A35883  12.731   8.972   8.751
 2730POPC   D2A35884  12.710   8.764   8.346
 2730POPC   C3A35885  12.639   9.103   8.084
 2730POPC   C4A35886  12.830   9.130   7.726
 2730POPC   C1B35887  13.203   8.803   8.687
 2730POPC   C2B35888  13.193   8.583   8.314
 2730POPC   C3B35889  13.057   8.715   7.941
 2730POPC   C4B35890  12.786   8.609   7.651
 2731POPC   NC335891  41.291  12.860   9.463
 2731POPC   PO435892  41.980  12.644   9.417
 2731POPC   GL135893  41.746  12.880   9.158
 2731POPC   GL235894  41.571  12.626   9.035
 2731POPC   C1A35895  41.823  12.947   8.718
 2731POPC   D2A35896  41.666  13.076   8.349
 2731POPC   C3A35897  41.695  12.804   7.977
 2731POPC   C4A35898  41.645  13.122   7.674
 2731POPC   C1B35899  41.321  12.892   8.759
 2731POPC   C2B35900  41.244  12.791   8.339
 2731POPC   C3B35901  41.228  12.480   8.039
 2731POPC   C4B35902  41.302  12.705   7.658
 2732POPC   NC335903  19.991  11.608   9.579
 2732POPC   PO435904  20.053  10.929   9.484
 2732POPC   GL135905  19.768  11.133   9.165
 2732POPC   GL235906  19.763  11.491   9.088
 2732POPC   C1A35907  19.598  11.115   8.732
 2732POPC   D2A35908  19.632  11.308   8.309
 2732POPC   C3A35909  19.787  11.194   7.878
 2732POPC   C4A35910  19.585  11.214   7.457
 2732POPC   C1B35911  19.722  11.640   8.713
 2732POPC   C2B35912  20.019  11.601   8.428
 2732POPC   C3B35913  19.936  11.701   8.058
 2732POPC   C4B35914  20.135  11.614   7.713
 2733POPC   NC335915  41.786  26.378   9.621
 2733POPC   PO435916  42.379  26.090   9.608
 2733POPC   GL135917  42.344  26.146   9.156
 2733POPC   GL235918  42.659  26.338   9.117
 2733POPC   C1A35919  42.094  25.874   8.823
 2733POPC   D2A35920  42.050  25.559   8.475
 2733POPC   C3A35921  41.995  25.669   8.029
 2733POPC   C4A35922  42.253  25.746   7.658
 2733POPC   C1B35923  42.690  25.998   8.811
 2733POPC   C2B35924  42.426  25.926   8.446
 2733POPC   C3B35925  42.534  25.962   8.023
 2733POPC   C4B35926  42.393  26.253   7.699
 2734POPC   NC335927  23.927  28.544   9.464
 2734POPC   PO435928  23.394  28.251   9.676
 2734POPC   GL135929  23.565  28.223   9.242
 2734POPC   GL235930  23.586  28.548   9.097
 2734POPC   C1A35931  23.748  28.142   8.813
 2734POPC   D2A35932  24.018  28.159   8.445
 2734POPC   C3A35933  23.846  28.085   8.073
 2734POPC   C4A35934  23.745  28.358   7.747
 2734POPC   C1B35935  23.675  28.667   8.677
 2734POPC   C2B35936  23.636  28.567   8.234
 2734POPC   C3B35937  23.700  28.855   7.886
 2734POPC   C4B35938  23.708  28.810   7.425
 2735POPC   NC335939  28.915  39.772   9.466
 2735POPC   PO435940  29.331  40.180   9.442
 2735POPC   GL135941  29.153  40.042   9.072
 2735POPC   GL235942  28.777  40.097   9.076
 2735POPC   C1A35943  29.407  39.931   8.723
 2735POPC   D2A35944  29.301  39.827   8.304
 2735POPC   C3A35945  29.160  40.185   8.100
 2735POPC   C4A35946  29.246  40.295   7.689
 2735POPC   C1B35947  28.756  39.720   8.801
 2735POPC   C2B35948  28.852  39.576   8.378
 2735POPC   C3B35949  28.905  39.736   7.974
 2735POPC   C4B35950  28.907  39.873   7.573
 2736POPC   NC335951  42.982   0.353   9.379
 2736POPC   PO435952  43.484   0.659   9.750
 2736POPC   GL135953  43.401   0.625   9.251
 2736POPC   GL235954  43.069   0.790   9.136
 2736POPC   C1A35955  43.267   0.430   8.797
 2736POPC   D2A35956  43.215   0.073   8.524
 2736POPC   C3A35957  43.306   0.216   8.110
 2736POPC   C4A35958  43.068   0.139   7.743
 2736POPC   C1B35959  42.838   0.707   8.744
 2736POPC   C2B35960  42.989   0.535   8.372
 2736POPC   C3B35961  43.055   0.676   7.977
 2736POPC   C4B35962  42.831   0.577   7.622
 2737POPC   NC335963  43.337  21.431   9.512
 2737POPC   PO435964  44.012  21.389   9.501
 2737POPC   GL135965  43.928  21.222   9.125
 2737POPC   GL235966  43.597  21.137   9.198
 2737POPC   C1A35967  43.969  21.341   8.693
 2737POPC   D2A35968  43.723  21.316   8.335
 2737POPC   C3A35969  43.839  21.412   7.931
 2737POPC   C4A35970  43.940  21.741   7.715
 2737POPC   C1B35971  43.540  21.065   8.772
 2737POPC   C2B35972  43.750  20.823   8.458
 2737POPC   C3B35973  43.662  20.889   8.015
 2737POPC   C4B35974  43.815  21.010   7.606
 2738POPC   NC335975   3.769  16.310   9.484
 2738POPC   PO435976   3.345  16.870   9.560
 2738POPC   GL135977   3.532  16.693   9.185
 2738POPC   GL235978   3.395  16.388   9.107
 2738POPC   C1A35979   3.485  16.776   8.731
 2738POPC   D2A35980   3.343  16.533   8.359
 2738POPC   C3A35981   3.122  16.676   8.042
 2738POPC   C4A35982   3.212  17.029   7.772
 2738POPC   C1B35983   3.570  16.260   8.713
 2738POPC   C2B35984   3.842  16.374   8.354
 2738POPC   C3B35985   3.770  16.605   7.969
 2738POPC   C4B35986   3.422  16.521   7.670
 2739POPC   NC335987  35.942   0.047   9.389
 2739POPC   PO435988  36.406  44.503   9.472
 2739POPC   GL135989  36.127  44.590   9.165
 2739POPC   GL235990  35.862  44.457   9.342
 2739POPC   C1A35991  35.897  44.747   8.807
 2739POPC   D2A35992  36.028  44.783   8.418
 2739POPC   C3A35993  36.023  44.517   8.065
 2739POPC   C4A35994  36.084  44.836   7.794
 2739POPC   C1B35995  35.777  44.278   8.945
 2739POPC   C2B35996  35.726  44.304   8.449
 2739POPC   C3B35997  35.554  44.328   8.007
 2739POPC   C4B35998  35.740  44.516   7.601
 2740POPC   NC335999  14.519  38.355   9.463
 2740POPC   PO436000  14.442  39.000   9.385
 2740POPC   GL136001  14.409  38.808   9.085
 2740POPC   GL236002  14.165  38.598   9.176
 2740POPC   C1A36003  14.217  38.868   8.712
 2740POPC   D2A36004  14.136  38.651   8.342
 2740POPC   C3A36005  14.277  38.801   7.912
 2740POPC   C4A36006  14.493  38.615   7.541
 2740POPC   C1B36007  14.265  38.346   8.815
 2740POPC   C2B36008  14.475  38.283   8.420
 2740POPC   C3B36009  14.353  38.289   7.978
 2740POPC   C4B36010  14.459  38.106   7.586
 2741POPC   NC336011  28.910   3.983   9.530
 2741POPC   PO436012  29.238   4.521   9.416
 2741POPC   GL136013  29.076   4.318   9.054
 2741POPC   GL236014  29.224   4.014   8.974
 2741POPC   C1A36015  28.923   4.253   8.618
 2741POPC   D2A36016  28.950   3.922   8.261
 2741POPC   C3A36017  28.924   4.140   7.855
 2741POPC   C4A36018  29.128   4.523   7.686
 2741POPC   C1B36019  29.421   4.332   8.662
 2741POPC   C2B36020  29.249   4.399   8.225
 2741POPC   C3B36021  29.433   4.169   7.869
 2741POPC   C4B36022  29.593   4.290   7.450
 2742POPC   NC336023  12.220  11.520   9.451
 2742POPC   PO436024  11.581  11.521   9.193
 2742POPC   GL136025  11.999  11.332   9.028
 2742POPC   GL236026  12.020  10.962   9.021
 2742POPC   C1A36027  12.312  11.395   8.673
 2742POPC   D2A36028  12.284  11.541   8.247
 2742POPC   C3A36029  11.912  11.346   8.112
 2742POPC   C4A36030  11.740  11.002   7.848
 2742POPC   C1B36031  11.923  11.036   8.621
 2742POPC   C2B36032  12.041  10.867   8.287
 2742POPC   C3B36033  12.327  11.024   8.045
 2742POPC   C4B36034  12.246  11.315   7.730
 2743POPC   NC336035   0.833  12.595   9.437
 2743POPC   PO436036   0.202  12.953   9.476
 2743POPC   GL136037   0.516  12.937   9.133
 2743POPC   GL236038   0.490  12.567   9.058
 2743POPC   C1A36039   0.554  12.920   8.667
 2743POPC   D2A36040   0.293  12.731   8.373
 2743POPC   C3A36041   0.144  12.874   8.043
 2743POPC   C4A36042   0.313  12.788   7.696
 2743POPC   C1B36043   0.866  12.522   8.792
 2743POPC   C2B36044   0.950  12.593   8.408
 2743POPC   C3B36045   0.716  12.739   8.090
 2743POPC   C4B36046   0.755  12.564   7.717
 2744POPC   NC336047  35.025  38.999   9.803
 2744POPC   PO436048  35.406  38.450   9.665
 2744POPC   GL136049  35.264  38.394   9.235
 2744POPC   GL236050  34.893  38.417   9.316
 2744POPC   C1A36051  35.390  38.391   8.758
 2744POPC   D2A36052  35.446  38.660   8.348
 2744POPC   C3A36053  35.409  38.530   7.913
 2744POPC   C4A36054  35.460  38.721   7.513
 2744POPC   C1B36055  34.878  38.340   8.873
 2744POPC   C2B36056  34.991  38.328   8.431
 2744POPC   C3B36057  35.076  38.148   8.021
 2744POPC   C4B36058  34.826  38.407   7.757
 2745POPC   NC336059  24.562  14.035   9.476
 2745POPC   PO436060  24.415  14.700   9.456
 2745POPC   GL136061  24.242  14.377   9.175
 2745POPC   GL236062  24.548  14.292   9.034
 2745POPC   C1A36063  24.173  14.468   8.751
 2745POPC   D2A36064  24.545  14.623   8.565
 2745POPC   C3A36065  24.649  14.424   8.193
 2745POPC   C4A36066  24.538  14.698   7.868
 2745POPC   C1B36067  24.623  14.114   8.639
 2745POPC   C2B36068  24.423  13.865   8.385
 2745POPC   C3B36069  24.316  13.897   7.991
 2745POPC   C4B36070  24.481  14.189   7.775
 2746POPC   NC336071   2.976  41.656   9.545
 2746POPC   PO436072   2.504  41.239   9.576
 2746POPC   GL136073   2.693  41.402   9.198
 2746POPC   GL236074   3.021  41.264   9.193
 2746POPC   C1A36075   2.922  41.690   8.868
 2746POPC   D2A36076   2.711  41.818   8.464
 2746POPC   C3A36077   2.894  41.816   8.043
 2746POPC   C4A36078   2.998  41.634   7.664
 2746POPC   C1B36079   2.886  41.184   8.793
 2746POPC   C2B36080   2.689  41.290   8.454
 2746POPC   C3B36081   2.768  41.323   8.064
 2746POPC   C4B36082   2.738  41.137   7.669
 2747POPC   NC336083  24.808  31.490   9.418
 2747POPC   PO436084  25.412  31.226   9.624
 2747POPC   GL136085  25.319  31.490   9.258
 2747POPC   GL236086  25.276  31.225   9.024
 2747POPC   C1A36087  25.198  31.668   8.828
 2747POPC   D2A36088  25.359  31.482   8.444
 2747POPC   C3A36089  25.253  31.719   8.107
 2747POPC   C4A36090  24.863  31.829   7.934
 2747POPC   C1B36091  25.600  31.083   8.703
 2747POPC   C2B36092  25.686  31.045   8.267
 2747POPC   C3B36093  25.358  31.135   7.975
 2747POPC   C4B36094  25.185  31.452   7.692
 2748POPC   NC336095   6.202  15.315   9.577
 2748POPC   PO436096   5.594  15.227   9.528
 2748POPC   GL136097   5.650  15.005   9.147
 2748POPC   GL236098   6.008  14.976   9.205
 2748POPC   C1A36099   5.629  15.153   8.709
 2748POPC   D2A36100   5.709  15.566   8.470
 2748POPC   C3A36101   5.851  15.491   8.064
 2748POPC   C4A36102   5.685  15.078   7.959
 2748POPC   C1B36103   6.101  14.920   8.792
 2748POPC   C2B36104   6.080  15.151   8.407
 2748POPC   C3B36105   6.295  15.021   8.058
 2748POPC   C4B36106   6.081  14.969   7.677
 2749POPC   NC336107  22.057  16.209   9.472
 2749POPC   PO436108  22.296  15.573   9.499
 2749POPC   GL136109  22.109  15.800   9.185
 2749POPC   GL236110  21.927  15.613   9.055
 2749POPC   C1A36111  22.159  16.096   8.836
 2749POPC   D2A36112  22.324  16.007   8.426
 2749POPC   C3A36113  21.990  16.078   8.155
 2749POPC   C4A36114  22.078  16.102   7.747
 2749POPC   C1B36115  22.070  15.636   8.673
 2749POPC   C2B36116  21.929  15.581   8.276
 2749POPC   C3B36117  22.252  15.649   7.992
 2749POPC   C4B36118  22.316  15.706   7.555
 2750POPC   NC336119  30.175  30.678   9.736
 2750POPC   PO436120  29.577  30.928   9.539
 2750POPC   GL136121  29.774  30.771   9.145
 2750POPC   GL236122  30.135  30.840   9.138
 2750POPC   C1A36123  29.859  30.649   8.689
 2750POPC   D2A36124  30.109  30.667   8.289
 2750POPC   C3A36125  30.051  30.449   7.869
 2750POPC   C4A36126  30.317  30.311   7.496
 2750POPC   C1B36127  30.324  30.888   8.732
 2750POPC   C2B36128  30.423  31.075   8.333
 2750POPC   C3B36129  30.307  30.952   7.913
 2750POPC   C4B36130  29.894  30.935   7.803
 2751POPC   NC336131  16.738   6.675   9.643
 2751POPC   PO436132  16.337   7.148   9.337
 2751POPC   GL136133  16.547   6.746   9.170
 2751POPC   GL236134  16.920   6.664   9.139
 2751POPC   C1A36135  16.603   6.592   8.735
 2751POPC   D2A36136  16.528   6.834   8.375
 2751POPC   C3A36137  16.676   6.714   7.994
 2751POPC   C4A36138  16.823   6.864   7.575
 2751POPC   C1B36139  17.085   6.390   8.766
 2751POPC   C2B36140  17.063   6.342   8.306
 2751POPC   C3B36141  16.741   6.189   7.999
 2751POPC   C4B36142  16.612   6.386   7.601
 2752POPC   NC336143  20.906   4.347   9.404
 2752POPC   PO436144  20.398   3.876   9.579
 2752POPC   GL136145  20.459   4.116   9.185
 2752POPC   GL236146  20.225   4.390   9.067
 2752POPC   C1A36147  20.623   4.248   8.770
 2752POPC   D2A36148  20.552   4.087   8.357
 2752POPC   C3A36149  20.636   4.246   7.946
 2752POPC   C4A36150  20.332   4.151   7.605
 2752POPC   C1B36151  20.316   4.690   8.728
 2752POPC   C2B36152  20.399   4.653   8.264
 2752POPC   C3B36153  20.359   4.649   7.802
 2752POPC   C4B36154  20.156   4.594   7.411
 2753POPC   NC336155   0.263  14.726   9.537
 2753POPC   PO436156   0.626  15.361   9.493
 2753POPC   GL136157   0.340  15.373   9.174
 2753POPC   GL236158   0.395  15.043   9.154
 2753POPC   C1A36159   0.411  15.460   8.783
 2753POPC   D2A36160   0.644  15.358   8.447
 2753POPC   C3A36161   0.522  15.539   8.102
 2753POPC   C4A36162   0.577  15.329   7.773
 2753POPC   C1B36163   0.581  14.945   8.765
 2753POPC   C2B36164   0.394  14.887   8.357
 2753POPC   C3B36165   0.269  14.729   7.959
 2753POPC   C4B36166   0.560  14.774   7.650
 2754POPC   NC336167  22.431  30.491   9.591
 2754POPC   PO436168  22.507  31.118   9.472
 2754POPC   GL136169  22.309  30.799   9.183
 2754POPC   GL236170  22.252  30.412   9.123
 2754POPC   C1A36171  21.937  30.786   8.936
 2754POPC   D2A36172  21.878  30.869   8.534
 2754POPC   C3A36173  22.123  30.724   8.211
 2754POPC   C4A36174  22.030  30.736   7.793
 2754POPC   C1B36175  22.311  30.525   8.704
 2754POPC   C2B36176  22.445  30.292   8.338
 2754POPC   C3B36177  22.414  30.392   7.905
 2754POPC   C4B36178  22.492  30.651   7.587
 2755POPC   NC336179  37.808   2.473   9.442
 2755POPC   PO436180  37.309   2.968   9.425
 2755POPC   GL136181  37.400   2.707   9.108
 2755POPC   GL236182  37.725   2.849   9.090
 2755POPC   C1A36183  37.456   2.813   8.663
 2755POPC   D2A36184  37.508   3.007   8.261
 2755POPC   C3A36185  37.567   2.724   7.934
 2755POPC   C4A36186  37.838   2.690   7.582
 2755POPC   C1B36187  37.984   2.927   8.741
 2755POPC   C2B36188  37.973   2.800   8.344
 2755POPC   C3B36189  38.003   2.979   7.980
 2755POPC   C4B36190  37.977   3.173   7.594
 2756POPC   NC336191  19.353  33.338   9.231
 2756POPC   PO436192  19.858  33.164   9.629
 2756POPC   GL136193  19.858  33.071   9.189
 2756POPC   GL236194  19.741  32.739   9.139
 2756POPC   C1A36195  20.055  33.198   8.797
 2756POPC   D2A36196  19.838  33.386   8.428
 2756POPC   C3A36197  19.874  33.269   7.983
 2756POPC   C4A36198  19.444  33.219   7.810
 2756POPC   C1B36199  19.622  32.942   8.700
 2756POPC   C2B36200  19.533  32.964   8.255
 2756POPC   C3B36201  19.736  32.799   7.898
 2756POPC   C4B36202  19.585  32.650   7.551
 2757POPC   NC336203  37.848  22.872   9.442
 2757POPC   PO436204  38.504  22.915   9.484
 2757POPC   GL136205  38.372  23.054   9.147
 2757POPC   GL236206  38.147  22.827   9.062
 2757POPC   C1A36207  38.514  23.199   8.773
 2757POPC   D2A36208  38.649  23.203   8.353
 2757POPC   C3A36209  38.535  22.968   8.010
 2757POPC   C4A36210  38.582  23.038   7.559
 2757POPC   C1B36211  37.986  23.166   8.832
 2757POPC   C2B36212  38.135  23.099   8.432
 2757POPC   C3B36213  38.154  23.318   8.082
 2757POPC   C4B36214  38.113  23.069   7.720
 2758POPC   NC336215  16.918  14.727   9.456
 2758POPC   PO436216  16.898  14.068   9.375
 2758POPC   GL136217  16.686  14.281   9.096
 2758POPC   GL236218  16.482  14.564   9.216
 2758POPC   C1A36219  16.755  14.206   8.672
 2758POPC   D2A36220  16.902  14.446   8.325
 2758POPC   C3A36221  16.766  14.309   7.933
 2758POPC   C4A36222  16.958  14.430   7.549
 2758POPC   C1B36223  16.684  14.709   8.824
 2758POPC   C2B36224  16.508  14.768   8.417
 2758POPC   C3B36225  16.541  14.792   7.967
 2758POPC   C4B36226  16.493  14.657   7.518
 2759POPC   NC336227  33.508  16.534   9.571
 2759POPC   PO436228  33.995  17.049   9.472
 2759POPC   GL136229  33.779  16.786   9.215
 2759POPC   GL236230  33.955  16.503   9.336
 2759POPC   C1A36231  33.571  16.874   8.801
 2759POPC   D2A36232  33.737  17.038   8.409
 2759POPC   C3A36233  33.850  16.810   8.064
 2759POPC   C4A36234  33.910  16.780   7.631
 2759POPC   C1B36235  33.716  16.391   8.927
 2759POPC   C2B36236  33.725  16.505   8.476
 2759POPC   C3B36237  33.596  16.392   8.045
 2759POPC   C4B36238  33.752  16.292   7.613
 2760POPC   NC336239   2.976  16.229   9.429
 2760POPC   PO436240   2.859  15.650   9.555
 2760POPC   GL136241   2.563  15.845   9.224
 2760POPC   GL236242   2.611  16.193   9.048
 2760POPC   C1A36243   2.522  15.751   8.768
 2760POPC   D2A36244   2.792  15.630   8.423
 2760POPC   C3A36245   2.673  15.930   8.133
 2760POPC   C4A36246   2.623  16.012   7.721
 2760POPC   C1B36247   2.968  16.042   8.778
 2760POPC   C2B36248   3.113  16.070   8.344
 2760POPC   C3B36249   3.054  16.194   7.892
 2760POPC   C4B36250   2.923  16.517   7.595
 2761POPC   NC336251  44.064  17.636   9.135
 2761POPC   PO436252  43.670  17.295   9.501
 2761POPC   GL136253  43.647  17.340   9.080
 2761POPC   GL236254  43.532  17.669   9.075
 2761POPC   C1A36255  43.877  17.203   8.700
 2761POPC   D2A36256  44.159  17.417   8.383
 2761POPC   C3A36257  44.049  17.297   7.952
 2761POPC   C4A36258  44.195  17.425   7.571
 2761POPC   C1B36259  43.485  17.550   8.645
 2761POPC   C2B36260  43.640  17.324   8.272
 2761POPC   C3B36261  43.561  17.446   7.861
 2761POPC   C4B36262  43.730  17.682   7.498
 2762POPC   NC336263   9.443  29.052   9.405
 2762POPC   PO436264   9.993  29.399   9.407
 2762POPC   GL136265   9.753  29.338   9.064
 2762POPC   GL236266   9.886  29.003   9.071
 2762POPC   C1A36267   9.837  29.274   8.620
 2762POPC   D2A36268   9.780  29.384   8.195
 2762POPC   C3A36269   9.942  29.250   7.805
 2762POPC   C4A36270   9.906  29.401   7.364
 2762POPC   C1B36271   9.595  28.848   8.765
 2762POPC   C2B36272   9.504  28.955   8.338
 2762POPC   C3B36273   9.476  29.030   7.892
 2762POPC   C4B36274   9.700  28.941   7.459
 2763POPC   NC336275   6.323  18.723   9.631
 2763POPC   PO436276   6.843  19.200   9.492
 2763POPC   GL136277   6.768  18.923   9.207
 2763POPC   GL236278   6.717  19.238   8.990
 2763POPC   C1A36279   6.674  18.782   8.821
 2763POPC   D2A36280   6.689  19.076   8.502
 2763POPC   C3A36281   6.612  18.971   8.127
 2763POPC   C4A36282   6.447  19.099   7.763
 2763POPC   C1B36283   7.064  19.378   8.655
 2763POPC   C2B36284   7.106  19.304   8.229
 2763POPC   C3B36285   6.919  19.309   7.828
 2763POPC   C4B36286   7.144  19.457   7.464
 2764POPC   NC336287   8.142  33.918   9.439
 2764POPC   PO436288   7.626  33.408   9.585
 2764POPC   GL136289   7.834  33.594   9.181
 2764POPC   GL236290   7.790  33.934   9.012
 2764POPC   C1A36291   8.168  33.671   8.822
 2764POPC   D2A36292   8.362  33.686   8.402
 2764POPC   C3A36293   8.146  33.714   7.989
 2764POPC   C4A36294   8.210  33.782   7.545
 2764POPC   C1B36295   7.781  33.890   8.572
 2764POPC   C2B36296   8.032  34.125   8.281
 2764POPC   C3B36297   7.913  34.165   7.857
 2764POPC   C4B36298   7.826  34.077   7.432
 2765POPC   NC336299   9.400  23.719   9.637
 2765POPC   PO436300   8.768  23.627   9.414
 2765POPC   GL136301   9.025  23.734   9.083
 2765POPC   GL236302   9.349  23.687   9.129
 2765POPC   C1A36303   8.929  23.689   8.686
 2765POPC   D2A36304   8.836  23.956   8.369
 2765POPC   C3A36305   8.970  23.899   7.967
 2765POPC   C4A36306   8.857  23.632   7.651
 2765POPC   C1B36307   9.384  23.487   8.736
 2765POPC   C2B36308   9.303  23.672   8.301
 2765POPC   C3B36309   9.343  23.566   7.835
 2765POPC   C4B36310   9.296  23.687   7.371
 2766POPC   NC336311  24.259  13.264   9.294
 2766POPC   PO436312  24.824  13.647   9.576
 2766POPC   GL136313  24.708  13.489   9.134
 2766POPC   GL236314  24.704  13.794   9.020
 2766POPC   C1A36315  24.443  13.470   8.704
 2766POPC   D2A36316  24.607  13.410   8.253
 2766POPC   C3A36317  24.431  13.430   7.843
 2766POPC   C4A36318  24.435  13.738   7.506
 2766POPC   C1B36319  24.916  13.636   8.656
 2766POPC   C2B36320  24.935  13.818   8.261
 2766POPC   C3B36321  24.855  13.864   7.807
 2766POPC   C4B36322  24.877  13.955   7.364
 2767POPC   NC336323  28.455   6.307   9.616
 2767POPC   PO436324  28.613   5.611   9.439
 2767POPC   GL136325  28.478   6.003   9.210
 2767POPC   GL236326  28.774   6.137   9.027
 2767POPC   C1A36327  28.321   6.192   8.817
 2767POPC   D2A36328  28.407   6.023   8.421
 2767POPC   C3A36329  28.072   6.075   8.123
 2767POPC   C4A36330  28.085   6.015   7.681
 2767POPC   C1B36331  28.607   5.727   8.798
 2767POPC   C2B36332  28.741   5.518   8.421
 2767POPC   C3B36333  28.568   5.678   8.064
 2767POPC   C4B36334  28.401   5.612   7.659
 2768POPC   NC336335   6.956   4.516   9.470
 2768POPC   PO436336   6.366   4.273   9.500
 2768POPC   GL136337   6.611   4.362   9.117
 2768POPC   GL236338   6.922   4.133   9.111
 2768POPC   C1A36339   6.431   4.329   8.715
 2768POPC   D2A36340   6.283   4.067   8.396
 2768POPC   C3A36341   6.366   4.364   8.083
 2768POPC   C4A36342   6.457   4.316   7.675
 2768POPC   C1B36343   7.050   4.379   8.781
 2768POPC   C2B36344   6.852   4.359   8.397
 2768POPC   C3B36345   6.856   4.240   7.996
 2768POPC   C4B36346   7.011   4.277   7.601
 2769POPC   NC336347   0.508  16.484   9.500
 2769POPC   PO436348   0.195  17.152   9.681
 2769POPC   GL136349   0.240  16.909   9.225
 2769POPC   GL236350   0.577  16.748   9.076
 2769POPC   C1A36351   0.296  16.969   8.732
 2769POPC   D2A36352   0.544  16.762   8.428
 2769POPC   C3A36353   0.441  16.877   7.997
 2769POPC   C4A36354   0.689  16.691   7.676
 2769POPC   C1B36355   0.270  16.482   8.830
 2769POPC   C2B36356   0.053  16.602   8.462
 2769POPC   C3B36357   0.159  16.408   8.104
 2769POPC   C4B36358   0.204  16.520   7.692
 2770POPC   NC336359   1.912   9.878   9.454
 2770POPC   PO436360   2.452   9.436   9.448
 2770POPC   GL136361   2.233   9.692   9.119
 2770POPC   GL236362   2.255  10.001   9.055
 2770POPC   C1A36363   1.858   9.729   8.820
 2770POPC   D2A36364   1.671   9.950   8.442
 2770POPC   C3A36365   1.737   9.801   8.051
 2770POPC   C4A36366   1.679   9.604   7.687
 2770POPC   C1B36367   2.055  10.192   8.719
 2770POPC   C2B36368   2.170   9.960   8.381
 2770POPC   C3B36369   2.253   9.705   8.039
 2770POPC   C4B36370   2.155   9.854   7.649
 2771POPC   NC336371  39.314  37.923   9.605
 2771POPC   PO436372  39.202  37.264   9.501
 2771POPC   GL136373  39.189  37.464   9.104
 2771POPC   GL236374  39.365  37.752   9.126
 2771POPC   C1A36375  39.284  37.498   8.686
 2771POPC   D2A36376  39.156  37.741   8.376
 2771POPC   C3A36377  39.261  37.479   8.063
 2771POPC   C4A36378  39.021  37.612   7.764
 2771POPC   C1B36379  39.579  37.907   8.764
 2771POPC   C2B36380  39.663  37.808   8.323
 2771POPC   C3B36381  39.662  37.737   7.865
 2771POPC   C4B36382  39.478  37.757   7.471
 2772POPC   NC336383  38.437  38.028   9.553
 2772POPC   PO436384  38.371  37.359   9.586
 2772POPC   GL136385  38.559  37.488   9.193
 2772POPC   GL236386  38.818  37.770   9.250
 2772POPC   C1A36387  38.299  37.636   8.826
 2772POPC   D2A36388  38.019  37.449   8.488
 2772POPC   C3A36389  38.141  37.615   8.068
 2772POPC   C4A36390  38.497  37.617   7.764
 2772POPC   C1B36391  38.816  37.681   8.782
 2772POPC   C2B36392  38.618  37.744   8.354
 2772POPC   C3B36393  38.775  38.006   7.998
 2772POPC   C4B36394  38.899  38.400   7.796
 2773POPC   NC336395  13.343  25.513   9.500
 2773POPC   PO436396  13.981  25.339   9.602
 2773POPC   GL136397  13.718  25.098   9.268
 2773POPC   GL236398  13.526  25.288   9.069
 2773POPC   C1A36399  13.918  25.082   8.826
 2773POPC   D2A36400  14.038  25.063   8.380
 2773POPC   C3A36401  13.688  24.949   8.109
 2773POPC   C4A36402  13.548  25.247   7.809
 2773POPC   C1B36403  13.441  25.053   8.663
 2773POPC   C2B36404  13.183  25.157   8.292
 2773POPC   C3B36405  13.174  25.530   8.009
 2773POPC   C4B36406  13.184  25.552   7.559
 2774POPC   NC336407  33.927  29.487   9.506
 2774POPC   PO436408  33.984  28.800   9.497
 2774POPC   GL136409  33.994  29.104   9.178
 2774POPC   GL236410  33.673  29.302   9.105
 2774POPC   C1A36411  34.123  29.312   8.833
 2774POPC   D2A36412  33.907  29.279   8.487
 2774POPC   C3A36413  34.008  29.185   8.068
 2774POPC   C4A36414  33.889  29.453   7.711
 2774POPC   C1B36415  33.622  28.971   8.778
 2774POPC   C2B36416  33.632  28.903   8.300
 2774POPC   C3B36417  33.551  29.024   7.862
 2774POPC   C4B36418  33.425  28.775   7.509
 2775POPC   NC336419  16.424  32.374   9.541
 2775POPC   PO436420  16.961  31.901   9.522
 2775POPC   GL136421  16.859  32.128   9.110
 2775POPC   GL236422  16.468  32.299   9.044
 2775POPC   C1A36423  16.817  32.301   8.709
 2775POPC   D2A36424  16.724  32.069   8.460
 2775POPC   C3A36425  16.875  32.220   8.134
 2775POPC   C4A36426  16.725  32.083   7.776
 2775POPC   C1B36427  16.391  32.616   8.739
 2775POPC   C2B36428  16.505  32.543   8.311
 2775POPC   C3B36429  16.240  32.517   7.947
 2775POPC   C4B36430  16.247  32.813   7.639
 2776POPC   NC336431  30.175   2.563   9.479
 2776POPC   PO436432  29.949   3.157   9.551
 2776POPC   GL136433  29.900   2.922   9.193
 2776POPC   GL236434  29.652   2.694   9.263
 2776POPC   C1A36435  30.017   2.616   8.849
 2776POPC   D2A36436  30.093   2.477   8.417
 2776POPC   C3A36437  30.088   2.859   8.111
 2776POPC   C4A36438  30.291   2.952   7.710
 2776POPC   C1B36439  29.569   2.856   8.817
 2776POPC   C2B36440  29.629   2.719   8.417
 2776POPC   C3B36441  29.708   2.529   8.056
 2776POPC   C4B36442  29.801   2.732   7.686
 2777POPC   NC336443  22.562  17.641   9.290
 2777POPC   PO436444  23.143  17.276   9.457
 2777POPC   GL136445  23.068  17.527   9.112
 2777POPC   GL236446  22.990  17.898   9.216
 2777POPC   C1A36447  22.922  17.440   8.705
 2777POPC   D2A36448  22.732  17.639   8.354
 2777POPC   C3A36449  22.795  17.332   8.056
 2777POPC   C4A36450  23.024  17.330   7.701
 2777POPC   C1B36451  23.048  17.923   8.788
 2777POPC   C2B36452  23.250  17.787   8.395
 2777POPC   C3B36453  23.091  17.768   7.988
 2777POPC   C4B36454  22.672  17.759   7.791
 2778POPC   NC336455  42.097  22.825   9.454
 2778POPC   PO436456  42.716  23.126   9.586
 2778POPC   GL136457  42.571  22.871   9.221
 2778POPC   GL236458  42.360  23.159   9.159
 2778POPC   C1A36459  42.418  22.819   8.770
 2778POPC   D2A36460  42.517  22.684   8.327
 2778POPC   C3A36461  42.479  22.897   7.948
 2778POPC   C4A36462  42.324  22.749   7.559
 2778POPC   C1B36463  42.090  23.229   8.810
 2778POPC   C2B36464  42.143  23.039   8.398
 2778POPC   C3B36465  42.069  23.191   7.992
 2778POPC   C4B36466  42.265  23.253   7.603
 2779POPC   NC336467  32.414  35.576   9.439
 2779POPC   PO436468  31.876  35.132   9.448
 2779POPC   GL136469  32.178  35.230   9.137
 2779POPC   GL236470  32.502  35.100   9.250
 2779POPC   C1A36471  32.317  35.456   8.777
 2779POPC   D2A36472  32.275  35.368   8.340
 2779POPC   C3A36473  32.294  35.618   7.989
 2779POPC   C4A36474  31.994  35.532   7.684
 2779POPC   C1B36475  32.623  35.007   8.841
 2779POPC   C2B36476  32.590  34.964   8.379
 2779POPC   C3B36477  32.694  35.233   8.044
 2779POPC   C4B36478  32.541  35.336   7.634
 2780POPC   NC336479  29.902  38.165   9.374
 2780POPC   PO436480  29.995  37.513   9.561
 2780POPC   GL136481  29.910  37.694   9.117
 2780POPC   GL236482  29.634  37.957   9.001
 2780POPC   C1A36483  30.150  37.604   8.728
 2780POPC   D2A36484  30.359  37.729   8.334
 2780POPC   C3A36485  30.319  37.611   7.891
 2780POPC   C4A36486  30.170  37.598   7.453
 2780POPC   C1B36487  29.805  37.922   8.586
 2780POPC   C2B36488  29.888  37.575   8.250
 2780POPC   C3B36489  29.809  37.700   7.809
 2780POPC   C4B36490  29.432  37.957   7.717
 2781POPC   NC336491  29.681  43.157   9.734
 2781POPC   PO436492  30.261  42.978   9.329
 2781POPC   GL136493  30.016  43.027   9.028
 2781POPC   GL236494  29.671  42.987   9.209
 2781POPC   C1A36495  30.068  43.065   8.584
 2781POPC   D2A36496  30.020  42.909   8.220
 2781POPC   C3A36497  30.256  43.106   7.905
 2781POPC   C4A36498  30.130  43.463   7.753
 2781POPC   C1B36499  29.616  43.153   8.768
 2781POPC   C2B36500  29.717  43.461   8.463
 2781POPC   C3B36501  29.684  43.481   8.034
 2781POPC   C4B36502  29.739  43.105   7.811
 2782POPC   NC336503  25.785  24.965   9.468
 2782POPC   PO436504  25.887  24.263   9.368
 2782POPC   GL136505  25.966  24.643   9.135
 2782POPC   GL236506  26.333  24.750   9.192
 2782POPC   C1A36507  25.738  24.698   8.742
 2782POPC   D2A36508  25.750  24.316   8.460
 2782POPC   C3A36509  25.974  24.295   8.064
 2782POPC   C4A36510  26.253  24.243   7.713
 2782POPC   C1B36511  26.280  24.700   8.759
 2782POPC   C2B36512  26.079  24.736   8.362
 2782POPC   C3B36513  26.299  24.682   8.020
 2782POPC   C4B36514  26.261  24.726   7.629
 2783POPC   NC336515  10.129  38.437   9.601
 2783POPC   PO436516   9.855  39.010   9.467
 2783POPC   GL136517   9.879  38.656   9.165
 2783POPC   GL236518   9.966  38.306   9.134
 2783POPC   C1A36519   9.712  38.625   8.751
 2783POPC   D2A36520   9.378  38.580   8.446
 2783POPC   C3A36521   9.525  38.600   8.038
 2783POPC   C4A36522   9.297  38.659   7.668
 2783POPC   C1B36523  10.181  38.399   8.753
 2783POPC   C2B36524   9.985  38.394   8.329
 2783POPC   C3B36525   9.884  38.188   7.943
 2783POPC   C4B36526   9.698  38.354   7.593
 2784POPC   NC336527  32.447   7.117   9.525
 2784POPC   PO436528  31.981   6.654   9.677
 2784POPC   GL136529  31.985   6.719   9.171
 2784POPC   GL236530  32.112   7.069   9.077
 2784POPC   C1A36531  32.116   6.456   8.780
 2784POPC   D2A36532  32.151   6.579   8.357
 2784POPC   C3A36533  32.131   6.323   8.014
 2784POPC   C4A36534  32.241   6.543   7.641
 2784POPC   C1B36535  32.397   6.882   8.729
 2784POPC   C2B36536  32.539   6.997   8.320
 2784POPC   C3B36537  32.335   6.989   7.900
 2784POPC   C4B36538  32.296   7.026   7.444
 2785POPC   NC336539   1.422  13.434   9.437
 2785POPC   PO436540   0.817  13.742   9.470
 2785POPC   GL136541   1.108  13.738   9.165
 2785POPC   GL236542   1.040  13.381   9.089
 2785POPC   C1A36543   1.365  13.705   8.797
 2785POPC   D2A36544   1.255  13.554   8.389
 2785POPC   C3A36545   1.428  13.673   7.972
 2785POPC   C4A36546   1.296  13.451   7.580
 2785POPC   C1B36547   0.835  13.608   8.758
 2785POPC   C2B36548   0.725  13.532   8.360
 2785POPC   C3B36549   0.930  13.552   7.983
 2785POPC   C4B36550   0.773  13.496   7.603
 2786POPC   NC336551   9.708  34.239   9.255
 2786POPC   PO436552   9.935  34.633   9.751
 2786POPC   GL136553   9.942  34.786   9.265
 2786POPC   GL236554   9.600  34.819   9.074
 2786POPC   C1A36555   9.981  34.758   8.775
 2786POPC   D2A36556   9.934  34.526   8.359
 2786POPC   C3A36557  10.049  34.681   7.948
 2786POPC   C4A36558   9.837  34.726   7.560
 2786POPC   C1B36559   9.518  34.568   8.703
 2786POPC   C2B36560   9.436  34.573   8.296
 2786POPC   C3B36561   9.583  34.471   7.981
 2786POPC   C4B36562   9.503  34.305   7.679
 2787POPC   NC336563  10.332  26.207   9.337
 2787POPC   PO436564  10.580  25.592   9.474
 2787POPC   GL136565  10.449  25.771   9.119
 2787POPC   GL236566  10.701  25.999   9.003
 2787POPC   C1A36567  10.292  25.929   8.709
 2787POPC   D2A36568  10.576  25.901   8.365
 2787POPC   C3A36569  10.379  26.000   8.004
 2787POPC   C4A36570  10.563  25.906   7.661
 2787POPC   C1B36571  10.643  26.298   8.679
 2787POPC   C2B36572  10.487  26.407   8.276
 2787POPC   C3B36573  10.746  26.365   7.852
 2787POPC   C4B36574  10.916  26.464   7.403
 2788POPC   NC336575   2.530  31.178   9.785
 2788POPC   PO436576   2.393  30.501   9.606
 2788POPC   GL136577   2.690  30.688   9.289
 2788POPC   GL236578   2.530  30.983   9.210
 2788POPC   C1A36579   2.888  30.493   8.901
 2788POPC   D2A36580   3.001  30.409   8.460
 2788POPC   C3A36581   2.727  30.557   8.148
 2788POPC   C4A36582   2.657  30.621   7.729
 2788POPC   C1B36583   2.771  30.999   8.818
 2788POPC   C2B36584   2.587  30.984   8.393
 2788POPC   C3B36585   2.748  31.069   7.969
 2788POPC   C4B36586   2.715  31.068   7.492
 2789POPC   NC336587  15.743  31.850   9.433
 2789POPC   PO436588  15.711  32.471   9.585
 2789POPC   GL136589  15.769  32.299   9.163
 2789POPC   GL236590  16.026  32.049   9.028
 2789POPC   C1A36591  15.864  32.482   8.779
 2789POPC   D2A36592  15.885  32.486   8.342
 2789POPC   C3A36593  15.849  32.135   8.070
 2789POPC   C4A36594  15.819  32.336   7.647
 2789POPC   C1B36595  16.219  32.175   8.579
 2789POPC   C2B36596  16.342  32.066   8.152
 2789POPC   C3B36597  16.228  32.005   7.740
 2789POPC   C4B36598  16.055  32.047   7.302
 2790POPC   NC336599   9.891  31.050   9.540
 2790POPC   PO436600   9.837  30.386   9.458
 2790POPC   GL136601   9.882  30.631   9.127
 2790POPC   GL236602   9.625  30.854   9.101
 2790POPC   C1A36603   9.906  30.543   8.722
 2790POPC   D2A36604   9.525  30.653   8.524
 2790POPC   C3A36605   9.570  30.625   8.093
 2790POPC   C4A36606   9.827  30.641   7.744
 2790POPC   C1B36607   9.491  31.114   8.738
 2790POPC   C2B36608   9.481  31.135   8.277
 2790POPC   C3B36609   9.714  31.102   7.910
 2790POPC   C4B36610   9.673  31.129   7.440
 2791POPC   NC336611  10.891  10.630   9.679
 2791POPC   PO436612  11.446  10.366   9.303
 2791POPC   GL136613  11.404  10.616   8.985
 2791POPC   GL236614  11.085  10.547   8.966
 2791POPC   C1A36615  11.617  10.617   8.581
 2791POPC   D2A36616  11.529  10.908   8.294
 2791POPC   C3A36617  11.268  10.792   7.957
 2791POPC   C4A36618  10.976  10.536   7.761
 2791POPC   C1B36619  11.273  10.250   8.682
 2791POPC   C2B36620  11.175  10.366   8.288
 2791POPC   C3B36621  10.881  10.155   8.092
 2791POPC   C4B36622  10.951  10.035   7.713
 2792POPC   NC336623  40.527   3.387   9.331
 2792POPC   PO436624  41.095   3.764   9.496
 2792POPC   GL136625  41.005   3.536   9.144
 2792POPC   GL236626  40.748   3.772   9.096
 2792POPC   C1A36627  41.009   3.425   8.704
 2792POPC   D2A36628  40.861   3.548   8.282
 2792POPC   C3A36629  41.060   3.385   7.924
 2792POPC   C4A36630  41.067   3.408   7.462
 2792POPC   C1B36631  40.548   3.642   8.729
 2792POPC   C2B36632  40.373   3.695   8.332
 2792POPC   C3B36633  40.492   3.867   7.935
 2792POPC   C4B36634  40.484   4.024   7.481
 2793POPC   NC336635  24.799   0.718   9.481
 2793POPC   PO436636  24.314   0.248   9.512
 2793POPC   GL136637  24.618   0.321   9.219
 2793POPC   GL236638  24.468   0.606   9.076
 2793POPC   C1A36639  24.787   0.284   8.818
 2793POPC   D2A36640  24.640   0.096   8.446
 2793POPC   C3A36641  24.766   0.282   8.048
 2793POPC   C4A36642  24.569   0.282   7.670
 2793POPC   C1B36643  24.208   0.331   8.773
 2793POPC   C2B36644  24.001   0.295   8.338
 2793POPC   C3B36645  24.098   0.311   7.862
 2793POPC   C4B36646  24.073   0.450   7.385
 2794POPC   NC336647  34.872   8.561   9.460
 2794POPC   PO436648  34.649   9.187   9.468
 2794POPC   GL136649  34.646   9.120   9.075
 2794POPC   GL236650  34.539   8.806   9.025
 2794POPC   C1A36651  34.426   9.140   8.681
 2794POPC   D2A36652  34.265   8.928   8.309
 2794POPC   C3A36653  34.431   9.198   7.991
 2794POPC   C4A36654  34.823   9.416   7.985
 2794POPC   C1B36655  34.701   8.612   8.651
 2794POPC   C2B36656  34.600   8.519   8.224
 2794POPC   C3B36657  34.431   8.697   7.859
 2794POPC   C4B36658  34.259   8.702   7.442
 2795POPC   NC336659  28.030  29.012   9.636
 2795POPC   PO436660  27.435  29.309   9.513
 2795POPC   GL136661  27.531  29.413   9.113
 2795POPC   GL236662  27.665  29.117   9.039
 2795POPC   C1A36663  27.486  29.528   8.695
 2795POPC   D2A36664  27.715  29.478   8.313
 2795POPC   C3A36665  27.418  29.384   8.021
 2795POPC   C4A36666  27.375  29.142   7.707
 2795POPC   C1B36667  27.749  28.821   8.677
 2795POPC   C2B36668  27.673  28.940   8.245
 2795POPC   C3B36669  27.841  29.130   7.890
 2795POPC   C4B36670  27.787  28.911   7.517
 2796POPC   NC336671  24.578  10.987   9.499
 2796POPC   PO436672  23.971  10.765   9.306
 2796POPC   GL136673  24.335  11.007   9.050
 2796POPC   GL236674  24.472  11.365   9.140
 2796POPC   C1A36675  24.340  11.216   8.646
 2796POPC   D2A36676  24.507  11.027   8.306
 2796POPC   C3A36677  24.365  11.059   7.911
 2796POPC   C4A36678  24.566  11.172   7.504
 2796POPC   C1B36679  24.637  11.605   8.774
 2796POPC   C2B36680  24.602  11.535   8.325
 2796POPC   C3B36681  24.654  11.516   7.894
 2796POPC   C4B36682  24.250  11.515   7.715
 2797POPC   NC336683  21.618  35.117   9.367
 2797POPC   PO436684  21.331  34.532   9.508
 2797POPC   GL136685  21.526  34.661   9.133
 2797POPC   GL236686  21.273  34.943   9.038
 2797POPC   C1A36687  21.468  34.499   8.720
 2797POPC   D2A36688  21.288  34.605   8.329
 2797POPC   C3A36689  21.175  34.276   8.064
 2797POPC   C4A36690  21.294  34.374   7.637
 2797POPC   C1B36691  21.572  35.016   8.713
 2797POPC   C2B36692  21.781  34.776   8.389
 2797POPC   C3B36693  21.606  34.844   7.975
 2797POPC   C4B36694  21.797  34.955   7.587
 2798POPC   NC336695  34.414  11.046   9.454
 2798POPC   PO436696  34.201  11.634   9.514
 2798POPC   GL136697  34.357  11.404   9.104
 2798POPC   GL236698  34.670  11.107   9.032
 2798POPC   C1A36699  34.501  11.470   8.698
 2798POPC   D2A36700  34.328  11.471   8.324
 2798POPC   C3A36701  34.583  11.479   7.973
 2798POPC   C4A36702  34.283  11.413   7.693
 2798POPC   C1B36703  34.460  10.955   8.707
 2798POPC   C2B36704  34.613  11.052   8.308
 2798POPC   C3B36705  34.553  10.970   7.871
 2798POPC   C4B36706  34.871  11.184   7.624
 2799POPC   NC336707  40.472  30.171   9.497
 2799POPC   PO436708  41.045  29.834   9.475
 2799POPC   GL136709  40.804  29.967   9.160
 2799POPC   GL236710  40.509  29.738   9.201
 2799POPC   C1A36711  40.917  30.080   8.759
 2799POPC   D2A36712  41.053  29.829   8.425
 2799POPC   C3A36713  40.882  30.017   8.095
 2799POPC   C4A36714  41.038  29.893   7.717
 2799POPC   C1B36715  40.412  30.016   8.842
 2799POPC   C2B36716  40.497  30.199   8.443
 2799POPC   C3B36717  40.382  30.174   8.005
 2799POPC   C4B36718  40.650  30.216   7.663
 2800POPC   NC336719  26.245  27.444   9.440
 2800POPC   PO436720  25.623  27.721   9.622
 2800POPC   GL136721  25.832  27.624   9.217
 2800POPC   GL236722  26.181  27.866   9.169
 2800POPC   C1A36723  25.991  27.538   8.816
 2800POPC   D2A36724  26.149  27.482   8.417
 2800POPC   C3A36725  25.983  27.739   8.130
 2800POPC   C4A36726  25.924  27.671   7.744
 2800POPC   C1B36727  26.304  27.961   8.741
 2800POPC   C2B36728  26.436  27.931   8.310
 2800POPC   C3B36729  26.432  27.834   7.857
 2800POPC   C4B36730  26.348  27.559   7.468
 2801POPC   NC336731  10.541  30.203   9.813
 2801POPC   PO436732  10.890  29.588   9.582
 2801POPC   GL136733  10.743  29.819   9.178
 2801POPC   GL236734  10.623  30.104   9.078
 2801POPC   C1A36735  10.878  29.845   8.733
 2801POPC   D2A36736  10.633  29.810   8.353
 2801POPC   C3A36737  10.481  30.077   8.009
 2801POPC   C4A36738  10.573  29.987   7.557
 2801POPC   C1B36739  10.395  30.060   8.729
 2801POPC   C2B36740  10.294  30.350   8.431
 2801POPC   C3B36741  10.024  30.357   8.119
 2801POPC   C4B36742  10.057  30.170   7.729
 2802POPC   NC336743  36.530   9.654   9.480
 2802POPC   PO436744  35.902   9.327   9.358
 2802POPC   GL136745  35.913   9.588   9.010
 2802POPC   GL236746  36.218   9.671   9.084
 2802POPC   C1A36747  36.030   9.849   8.659
 2802POPC   D2A36748  36.168   9.786   8.277
 2802POPC   C3A36749  36.209  10.134   8.022
 2802POPC   C4A36750  36.137   9.916   7.645
 2802POPC   C1B36751  36.408   9.458   8.710
 2802POPC   C2B36752  36.615   9.519   8.270
 2802POPC   C3B36753  36.496   9.622   7.850
 2802POPC   C4B36754  36.369   9.508   7.401
 2803POPC   NC336755  24.502  27.505   9.452
 2803POPC   PO436756  24.957  28.081   9.362
 2803POPC   GL136757  24.757  27.742   9.090
 2803POPC   GL236758  24.694  27.355   9.000
 2803POPC   C1A36759  24.374  27.735   8.825
 2803POPC   D2A36760  24.281  27.702   8.394
 2803POPC   C3A36761  24.629  27.624   8.108
 2803POPC   C4A36762  24.432  27.717   7.742
 2803POPC   C1B36763  24.250  27.251   8.823
 2803POPC   C2B36764  24.067  27.224   8.405
 2803POPC   C3B36765  24.233  27.306   8.013
 2803POPC   C4B36766  24.105  27.341   7.586
 2804POPC   NC336767  32.716   7.796   9.593
 2804POPC   PO436768  32.925   7.162   9.583
 2804POPC   GL136769  32.841   7.193   9.182
 2804POPC   GL236770  32.937   7.542   9.212
 2804POPC   C1A36771  32.878   7.073   8.754
 2804POPC   D2A36772  32.925   7.345   8.420
 2804POPC   C3A36773  32.893   7.216   8.019
 2804POPC   C4A36774  33.003   7.406   7.660
 2804POPC   C1B36775  33.187   7.476   8.860
 2804POPC   C2B36776  33.414   7.562   8.496
 2804POPC   C3B36777  33.264   7.602   8.090
 2804POPC   C4B36778  33.306   7.827   7.737
 2805POPC   NC336779   0.914  40.746   9.575
 2805POPC   PO436780   0.368  40.397   9.466
 2805POPC   GL136781   0.365  40.615   9.100
 2805POPC   GL236782   0.324  40.961   9.114
 2805POPC   C1A36783   0.345  40.735   8.670
 2805POPC   D2A36784   0.226  40.592   8.293
 2805POPC   C3A36785   0.531  40.749   8.050
 2805POPC   C4A36786   0.523  40.604   7.684
 2805POPC   C1B36787   0.117  41.181   8.764
 2805POPC   C2B36788   0.176  41.108   8.293
 2805POPC   C3B36789   0.360  41.201   7.876
 2805POPC   C4B36790   0.341  41.019   7.422
 2806POPC   NC336791  27.043  36.960   9.522
 2806POPC   PO436792  26.421  36.717   9.595
 2806POPC   GL136793  26.679  36.843   9.193
 2806POPC   GL236794  26.998  36.899   9.027
 2806POPC   C1A36795  26.566  36.761   8.737
 2806POPC   D2A36796  26.555  37.005   8.349
 2806POPC   C3A36797  26.442  36.876   7.958
 2806POPC   C4A36798  26.655  37.072   7.657
 2806POPC   C1B36799  27.040  36.754   8.604
 2806POPC   C2B36800  27.147  36.819   8.213
 2806POPC   C3B36801  27.093  36.827   7.794
 2806POPC   C4B36802  27.130  36.501   7.561
 2807POPC   NC336803  25.455  25.526   9.491
 2807POPC   PO436804  24.846  25.597   9.497
 2807POPC   GL136805  25.108  25.397   9.159
 2807POPC   GL236806  24.897  25.232   9.020
 2807POPC   C1A36807  25.354  25.135   8.818
 2807POPC   D2A36808  25.598  25.122   8.431
 2807POPC   C3A36809  25.408  25.138   8.048
 2807POPC   C4A36810  25.365  25.455   7.768
 2807POPC   C1B36811  24.980  25.479   8.675
 2807POPC   C2B36812  24.762  25.516   8.321
 2807POPC   C3B36813  24.938  25.331   7.982
 2807POPC   C4B36814  24.985  25.102   7.575
 2808POPC   NC336815  18.824  30.908   9.294
 2808POPC   PO436816  19.399  30.432   9.343
 2808POPC   GL136817  19.133  30.613   9.061
 2808POPC   GL236818  18.738  30.531   8.982
 2808POPC   C1A36819  19.118  30.715   8.657
 2808POPC   D2A36820  19.333  30.562   8.337
 2808POPC   C3A36821  19.238  30.684   7.931
 2808POPC   C4A36822  19.424  30.365   7.761
 2808POPC   C1B36823  18.597  30.769   8.643
 2808POPC   C2B36824  18.760  30.760   8.258
 2808POPC   C3B36825  18.682  30.830   7.894
 2808POPC   C4B36826  18.831  30.601   7.587
 2809POPC   NC336827  30.155   8.320   9.897
 2809POPC   PO436828  29.661   8.235   9.493
 2809POPC   GL136829  29.968   8.328   9.191
 2809POPC   GL236830  29.846   8.014   9.069
 2809POPC   C1A36831  30.138   8.258   8.760
 2809POPC   D2A36832  29.954   8.326   8.367
 2809POPC   C3A36833  30.134   8.267   7.978
 2809POPC   C4A36834  29.791   8.134   7.766
 2809POPC   C1B36835  29.972   7.756   8.740
 2809POPC   C2B36836  30.240   7.867   8.405
 2809POPC   C3B36837  30.074   7.762   8.021
 2809POPC   C4B36838  30.228   7.886   7.614
 2810POPC   NC336839  27.078  28.867   9.455
 2810POPC   PO436840  26.677  29.391   9.515
 2810POPC   GL136841  26.674  29.249   9.129
 2810POPC   GL236842  27.041  29.273   9.116
 2810POPC   C1A36843  26.717  29.370   8.707
 2810POPC   D2A36844  27.089  29.315   8.419
 2810POPC   C3A36845  26.924  29.252   7.989
 2810POPC   C4A36846  26.911  29.087   7.567
 2810POPC   C1B36847  26.977  28.949   8.791
 2810POPC   C2B36848  26.729  28.952   8.394
 2810POPC   C3B36849  26.654  28.820   7.999
 2810POPC   C4B36850  26.442  29.037   7.712
 2811POPC   NC336851   9.776  28.033   9.448
 2811POPC   PO436852   9.710  28.663   9.412
 2811POPC   GL136853   9.977  28.487   9.068
 2811POPC   GL236854   9.993  28.148   8.986
 2811POPC   C1A36855   9.996  28.535   8.634
 2811POPC   D2A36856   9.786  28.310   8.337
 2811POPC   C3A36857   9.721  28.603   8.027
 2811POPC   C4A36858  10.026  28.725   7.786
 2811POPC   C1B36859   9.561  28.337   8.820
 2811POPC   C2B36860   9.307  28.477   8.439
 2811POPC   C3B36861   9.355  28.265   8.025
 2811POPC   C4B36862   9.753  28.118   7.849
 2812POPC   NC336863  38.640  23.435   9.496
 2812POPC   PO436864  38.185  23.936   9.709
 2812POPC   GL136865  38.389  23.864   9.309
 2812POPC   GL236866  38.281  23.555   9.160
 2812POPC   C1A36867  38.560  23.955   8.906
 2812POPC   D2A36868  38.628  23.663   8.576
 2812POPC   C3A36869  38.563  23.672   8.139
 2812POPC   C4A36870  38.837  23.843   7.867
 2812POPC   C1B36871  38.139  23.680   8.786
 2812POPC   C2B36872  38.109  23.785   8.389
 2812POPC   C3B36873  38.151  23.937   7.975
 2812POPC   C4B36874  38.216  23.623   7.677
 2813POPC   NC336875  22.825   7.895   9.615
 2813POPC   PO436876  23.086   8.520   9.488
 2813POPC   GL136877  22.853   8.361   9.139
 2813POPC   GL236878  22.662   8.062   9.156
 2813POPC   C1A36879  22.914   8.297   8.728
 2813POPC   D2A36880  23.083   8.068   8.415
 2813POPC   C3A36881  23.053   8.266   8.053
 2813POPC   C4A36882  23.290   8.183   7.713
 2813POPC   C1B36883  22.417   8.119   8.785
 2813POPC   C2B36884  22.555   8.197   8.360
 2813POPC   C3B36885  22.636   7.917   8.034
 2813POPC   C4B36886  22.814   8.016   7.655
 2814POPC   NC336887  35.630  18.477   9.404
 2814POPC   PO436888  35.278  17.912   9.663
 2814POPC   GL136889  35.219  17.956   9.172
 2814POPC   GL236890  35.355  18.297   9.024
 2814POPC   C1A36891  35.302  17.949   8.674
 2814POPC   D2A36892  35.139  18.248   8.347
 2814POPC   C3A36893  35.327  18.264   7.920
 2814POPC   C4A36894  35.757  18.305   7.773
 2814POPC   C1B36895  35.402  18.660   8.708
 2814POPC   C2B36896  34.999  18.850   8.553
 2814POPC   C3B36897  34.872  18.671   8.174
 2814POPC   C4B36898  35.058  18.749   7.780
 2815POPC   NC336899  23.801  10.763   9.732
 2815POPC   PO436900  23.692  10.030   9.685
 2815POPC   GL136901  23.458  10.288   9.282
 2815POPC   GL236902  23.722  10.459   8.997
 2815POPC   C1A36903  23.261  10.544   8.905
 2815POPC   D2A36904  23.552  10.701   8.557
 2815POPC   C3A36905  23.462  10.581   8.145
 2815POPC   C4A36906  23.527  10.704   7.725
 2815POPC   C1B36907  23.966  10.292   8.655
 2815POPC   C2B36908  23.849  10.225   8.256
 2815POPC   C3B36909  24.049  10.121   7.874
 2815POPC   C4B36910  24.323  10.339   7.626
 2816POPC   NC336911  34.752  11.898   9.512
 2816POPC   PO436912  34.593  12.545   9.437
 2816POPC   GL136913  34.484  12.249   9.075
 2816POPC   GL236914  34.542  11.890   9.053
 2816POPC   C1A36915  34.502  12.181   8.614
 2816POPC   D2A36916  34.565  11.908   8.250
 2816POPC   C3A36917  34.471  11.972   7.791
 2816POPC   C4A36918  34.660  12.191   7.370
 2816POPC   C1B36919  34.873  11.806   8.757
 2816POPC   C2B36920  34.914  11.545   8.398
 2816POPC   C3B36921  35.051  11.722   8.050
 2816POPC   C4B36922  34.926  11.754   7.662
 2817POPC   NC336923  25.201   8.026   9.518
 2817POPC   PO436924  25.603   8.483   9.735
 2817POPC   GL136925  25.435   8.401   9.209
 2817POPC   GL236926  25.143   8.230   9.057
 2817POPC   C1A36927  25.542   8.094   8.789
 2817POPC   D2A36928  25.639   7.845   8.390
 2817POPC   C3A36929  25.361   8.030   8.084
 2817POPC   C4A36930  25.219   8.215   7.698
 2817POPC   C1B36931  24.882   8.327   8.711
 2817POPC   C2B36932  24.822   8.212   8.276
 2817POPC   C3B36933  24.796   8.486   7.911
 2817POPC   C4B36934  24.833   8.452   7.468
 2818POPC   NC336935   5.004  31.852   9.468
 2818POPC   PO436936   5.383  31.292   9.317
 2818POPC   GL136937   5.190  31.517   9.014
 2818POPC   GL236938   4.825  31.557   9.078
 2818POPC   C1A36939   5.188  31.403   8.585
 2818POPC   D2A36940   4.985  31.256   8.212
 2818POPC   C3A36941   5.231  31.319   7.846
 2818POPC   C4A36942   5.395  31.735   7.770
 2818POPC   C1B36943   4.601  31.737   8.719
 2818POPC   C2B36944   4.646  31.660   8.274
 2818POPC   C3B36945   4.703  31.488   7.866
 2818POPC   C4B36946   4.909  31.675   7.532
 2819POPC   NC336947  26.259  35.063   9.448
 2819POPC   PO436948  26.155  34.390   9.509
 2819POPC   GL136949  26.056  34.488   9.120
 2819POPC   GL236950  26.206  34.791   9.043
 2819POPC   C1A36951  26.232  34.423   8.702
 2819POPC   D2A36952  26.389  34.581   8.330
 2819POPC   C3A36953  26.049  34.451   8.063
 2819POPC   C4A36954  26.008  34.262   7.722
 2819POPC   C1B36955  25.827  34.839   8.822
 2819POPC   C2B36956  25.932  34.811   8.399
 2819POPC   C3B36957  26.132  34.934   8.010
 2819POPC   C4B36958  25.840  34.796   7.710
 2820POPC   NC336959  34.780  28.990   9.536
 2820POPC   PO436960  34.386  29.467   9.437
 2820POPC   GL136961  34.527  29.173   9.145
 2820POPC   GL236962  34.428  28.816   9.174
 2820POPC   C1A36963  34.669  29.198   8.754
 2820POPC   D2A36964  34.397  29.123   8.433
 2820POPC   C3A36965  34.523  29.323   8.074
 2820POPC   C4A36966  34.340  29.237   7.691
 2820POPC   C1B36967  34.594  28.686   8.754
 2820POPC   C2B36968  34.809  28.805   8.381
 2820POPC   C3B36969  34.533  28.805   8.044
 2820POPC   C4B36970  34.456  28.741   7.666
 2821POPC   NC336971  12.983  22.729   9.797
 2821POPC   PO436972  12.735  23.246   9.543
 2821POPC   GL136973  12.843  23.132   9.145
 2821POPC   GL236974  12.988  22.789   9.125
 2821POPC   C1A36975  12.779  23.029   8.718
 2821POPC   D2A36976  12.963  23.079   8.320
 2821POPC   C3A36977  12.638  23.057   8.009
 2821POPC   C4A36978  12.715  23.058   7.571
 2821POPC   C1B36979  13.177  22.656   8.710
 2821POPC   C2B36980  13.066  22.552   8.279
 2821POPC   C3B36981  13.044  22.787   7.875
 2821POPC   C4B36982  13.014  22.676   7.391
 2822POPC   NC336983  36.391  43.416   9.322
 2822POPC   PO436984  36.079  42.889   9.654
 2822POPC   GL136985  36.174  42.925   9.204
 2822POPC   GL236986  35.968  43.098   8.988
 2822POPC   C1A36987  36.347  42.817   8.784
 2822POPC   D2A36988  36.152  42.810   8.386
 2822POPC   C3A36989  36.220  42.936   7.938
 2822POPC   C4A36990  36.367  43.278   7.696
 2822POPC   C1B36991  36.193  43.312   8.643
 2822POPC   C2B36992  36.265  43.372   8.199
 2822POPC   C3B36993  35.922  43.467   7.884
 2822POPC   C4B36994  35.979  43.607   7.441
 2823POPC   NC336995  32.631  25.609   9.472
 2823POPC   PO436996  33.319  25.560   9.556
 2823POPC   GL136997  33.073  25.309   9.231
 2823POPC   GL236998  33.296  25.071   9.044
 2823POPC   C1A36999  32.818  25.251   8.835
 2823POPC   D2A37000  32.996  25.249   8.412
 2823POPC   C3A37001  32.793  25.180   8.007
 2823POPC   C4A37002  32.863  25.066   7.580
 2823POPC   C1B37003  33.348  25.423   8.745
 2823POPC   C2B37004  33.280  25.697   8.377
 2823POPC   C3B37005  33.127  25.575   7.983
 2823POPC   C4B37006  33.443  25.530   7.709
 2824POPC   NC337007  28.307  44.224   9.269
 2824POPC   PO437008  28.563  43.611   9.442
 2824POPC   GL137009  28.375  43.730   9.065
 2824POPC   GL237010  28.025  43.851   9.029
 2824POPC   C1A37011  28.368  43.911   8.656
 2824POPC   D2A37012  28.336  43.688   8.300
 2824POPC   C3A37013  28.070  43.788   7.987
 2824POPC   C4A37014  28.414  43.807   7.687
 2824POPC   C1B37015  28.005  44.260   8.722
 2824POPC   C2B37016  28.028  44.219   8.295
 2824POPC   C3B37017  28.211  44.268   7.896
 2824POPC   C4B37018  27.997  44.073   7.543
 2825POPC   NC337019  40.415  25.306   9.616
 2825POPC   PO437020  41.092  25.173   9.460
 2825POPC   GL137021  40.814  25.227   9.124
 2825POPC   GL237022  40.447  25.224   9.139
 2825POPC   C1A37023  40.645  24.953   8.777
 2825POPC   D2A37024  40.771  25.020   8.371
 2825POPC   C3A37025  40.523  25.039   8.040
 2825POPC   C4A37026  40.796  25.223   7.704
 2825POPC   C1B37027  40.540  25.487   8.801
 2825POPC   C2B37028  40.409  25.418   8.406
 2825POPC   C3B37029  40.645  25.545   8.065
 2825POPC   C4B37030  40.659  25.726   7.663
 2826POPC   NC337031  19.685  18.857   9.386
 2826POPC   PO437032  20.084  19.427   9.479
 2826POPC   GL137033  20.128  19.321   9.078
 2826POPC   GL237034  19.781  19.233   9.030
 2826POPC   C1A37035  20.116  19.297   8.626
 2826POPC   D2A37036  19.949  19.291   8.216
 2826POPC   C3A37037  20.033  18.874   8.042
 2826POPC   C4A37038  20.324  18.775   7.751
 2826POPC   C1B37039  19.559  18.949   8.716
 2826POPC   C2B37040  19.539  18.905   8.269
 2826POPC   C3B37041  19.601  19.106   7.891
 2826POPC   C4B37042  19.530  19.292   7.492
 2827POPC   NC337043   8.091  27.985   9.552
 2827POPC   PO437044   8.435  27.409   9.408
 2827POPC   GL137045   8.125  27.631   9.172
 2827POPC   GL237046   7.896  27.404   8.997
 2827POPC   C1A37047   8.166  27.826   8.779
 2827POPC   D2A37048   8.076  27.666   8.391
 2827POPC   C3A37049   8.196  27.870   8.064
 2827POPC   C4A37050   8.028  27.668   7.728
 2827POPC   C1B37051   8.248  27.324   8.751
 2827POPC   C2B37052   8.414  27.268   8.370
 2827POPC   C3B37053   8.265  27.307   7.974
 2827POPC   C4B37054   8.514  27.349   7.604
 2828POPC   NC337055  44.716  16.912   9.600
 2828POPC   PO437056  44.998  16.318   9.390
 2828POPC   GL137057  44.776  16.634   9.136
 2828POPC   GL237058  44.572  16.964   9.121
 2828POPC   C1A37059  44.630  16.511   8.744
 2828POPC   D2A37060  44.550  16.681   8.320
 2828POPC   C3A37061  44.749  16.652   7.903
 2828POPC   C4A37062  44.418  16.543   7.574
 2828POPC   C1B37063  44.797  16.986   8.742
 2828POPC   C2B37064  44.867  17.092   8.324
 2828POPC   C3B37065   0.003  17.187   7.917
 2828POPC   C4B37066   0.056  16.991   7.543
 2829POPC   NC337067   7.566  31.363   9.507
 2829POPC   PO437068   7.141  31.928   9.441
 2829POPC   GL137069   7.355  31.696   9.153
 2829POPC   GL237070   7.693  31.708   9.138
 2829POPC   C1A37071   7.261  31.678   8.736
 2829POPC   D2A37072   7.359  31.449   8.396
 2829POPC   C3A37073   7.247  31.676   8.028
 2829POPC   C4A37074   7.464  31.473   7.701
 2829POPC   C1B37075   7.624  31.329   8.863
 2829POPC   C2B37076   7.695  31.046   8.514
 2829POPC   C3B37077   7.650  31.154   8.079
 2829POPC   C4B37078   7.766  31.057   7.665
 2830POPC   NC337079  43.191  23.250   9.497
 2830POPC   PO437080  43.212  22.609   9.277
 2830POPC   GL137081  43.095  22.964   9.062
 2830POPC   GL237082  42.864  23.278   9.118
 2830POPC   C1A37083  43.312  22.978   8.681
 2830POPC   D2A37084  43.319  23.153   8.258
 2830POPC   C3A37085  43.400  22.788   7.987
 2830POPC   C4A37086  43.274  22.693   7.610
 2830POPC   C1B37087  42.923  23.282   8.698
 2830POPC   C2B37088  42.757  23.146   8.316
 2830POPC   C3B37089  42.958  23.079   7.904
 2830POPC   C4B37090  42.810  22.873   7.541
 2831POPC   NC337091  18.690  12.535   9.335
 2831POPC   PO437092  19.213  12.928   9.637
 2831POPC   GL137093  19.125  12.931   9.181
 2831POPC   GL237094  19.040  13.270   9.021
 2831POPC   C1A37095  19.328  12.928   8.772
 2831POPC   D2A37096  19.138  12.803   8.368
 2831POPC   C3A37097  19.299  12.690   7.968
 2831POPC   C4A37098  19.093  12.811   7.597
 2831POPC   C1B37099  18.951  13.231   8.594
 2831POPC   C2B37100  18.990  13.235   8.147
 2831POPC   C3B37101  18.994  13.301   7.717
 2831POPC   C4B37102  18.857  13.159   7.318
 2832POPC   NC337103  34.215  26.637   9.621
 2832POPC   PO437104  33.736  27.044   9.359
 2832POPC   GL137105  34.042  26.772   9.136
 2832POPC   GL237106  34.043  26.404   9.201
 2832POPC   C1A37107  34.003  26.764   8.694
 2832POPC   D2A37108  33.837  27.002   8.345
 2832POPC   C3A37109  33.991  26.788   8.003
 2832POPC   C4A37110  33.816  26.650   7.649
 2832POPC   C1B37111  33.677  26.413   8.890
 2832POPC   C2B37112  33.565  26.573   8.477
 2832POPC   C3B37113  33.570  26.429   8.050
 2832POPC   C4B37114  33.963  26.227   7.877
 2833POPC   NC337115  26.371  23.209   9.502
 2833POPC   PO437116  27.040  23.047   9.433
 2833POPC   GL137117  26.664  22.907   9.181
 2833POPC   GL237118  26.634  23.252   9.029
 2833POPC   C1A37119  26.512  22.847   8.739
 2833POPC   D2A37120  26.525  23.097   8.320
 2833POPC   C3A37121  26.543  22.863   7.917
 2833POPC   C4A37122  26.971  22.792   7.821
 2833POPC   C1B37123  26.966  23.181   8.674
 2833POPC   C2B37124  27.245  23.298   8.294
 2833POPC   C3B37125  27.064  23.527   7.905
 2833POPC   C4B37126  26.782  23.290   7.660
 2834POPC   NC337127  13.995  23.042   9.519
 2834POPC   PO437128  14.480  23.375   9.956
 2834POPC   GL137129  14.422  23.244   9.390
 2834POPC   GL237130  14.126  23.401   9.181
 2834POPC   C1A37131  14.548  23.082   8.950
 2834POPC   D2A37132  14.515  23.153   8.481
 2834POPC   C3A37133  14.558  22.951   8.058
 2834POPC   C4A37134  14.570  23.194   7.654
 2834POPC   C1B37135  14.075  23.164   8.761
 2834POPC   C2B37136  14.127  22.816   8.438
 2834POPC   C3B37137  14.096  22.722   8.001
 2834POPC   C4B37138  14.139  22.893   7.581
 2835POPC   NC337139  39.139  29.039   9.527
 2835POPC   PO437140  39.269  29.704   9.450
 2835POPC   GL137141  39.337  29.343   9.186
 2835POPC   GL237142  39.004  29.225   9.070
 2835POPC   C1A37143  39.441  29.188   8.789
 2835POPC   D2A37144  39.164  29.212   8.456
 2835POPC   C3A37145  39.360  29.373   8.087
 2835POPC   C4A37146  39.118  29.379   7.719
 2835POPC   C1B37147  38.982  28.850   8.817
 2835POPC   C2B37148  38.927  28.762   8.380
 2835POPC   C3B37149  39.096  28.934   7.989
 2835POPC   C4B37150  39.234  28.865   7.554
 2836POPC   NC337151  12.436  13.917   9.402
 2836POPC   PO437152  13.090  13.881   9.558
 2836POPC   GL137153  12.990  13.802   9.127
 2836POPC   GL237154  12.661  13.846   8.972
 2836POPC   C1A37155  13.055  13.693   8.689
 2836POPC   D2A37156  12.868  13.605   8.303
 2836POPC   C3A37157  13.019  13.768   7.988
 2836POPC   C4A37158  13.022  13.452   7.717
 2836POPC   C1B37159  12.522  13.591   8.670
 2836POPC   C2B37160  12.332  13.532   8.302
 2836POPC   C3B37161  12.538  13.437   7.949
 2836POPC   C4B37162  12.608  13.725   7.623
 2837POPC   NC337163  22.176  10.764   9.649
 2837POPC   PO437164  22.543  10.210   9.567
 2837POPC   GL137165  22.317  10.366   9.180
 2837POPC   GL237166  22.261  10.752   9.136
 2837POPC   C1A37167  22.411  10.435   8.712
 2837POPC   D2A37168  22.309  10.586   8.281
 2837POPC   C3A37169  22.419  10.543   7.801
 2837POPC   C4A37170  22.422  10.249   7.389
 2837POPC   C1B37171  21.951  10.647   8.804
 2837POPC   C2B37172  21.783  10.629   8.400
 2837POPC   C3B37173  21.920  10.664   7.980
 2837POPC   C4B37174  21.940  10.839   7.577
 2838POPC   NC337175  37.939  19.018   9.488
 2838POPC   PO437176  37.279  19.038   9.552
 2838POPC   GL137177  37.530  18.971   9.164
 2838POPC   GL237178  37.798  19.228   9.046
 2838POPC   C1A37179  37.449  19.003   8.719
 2838POPC   D2A37180  37.540  19.276   8.406
 2838POPC   C3A37181  37.389  19.148   8.024
 2838POPC   C4A37182  37.580  19.076   7.630
 2838POPC   C1B37183  37.949  18.919   8.739
 2838POPC   C2B37184  37.812  18.841   8.320
 2838POPC   C3B37185  37.927  19.126   7.999
 2838POPC   C4B37186  38.048  19.231   7.560
 2839POPC   NC337187  32.661   5.734   9.784
 2839POPC   PO437188  33.095   6.177   9.606
 2839POPC   GL137189  32.807   5.903   9.315
 2839POPC   GL237190  33.086   5.858   9.127
 2839POPC   C1A37191  32.712   5.650   8.901
 2839POPC   D2A37192  33.067   5.702   8.574
 2839POPC   C3A37193  32.985   5.785   8.125
 2839POPC   C4A37194  32.791   5.700   7.717
 2839POPC   C1B37195  33.219   6.138   8.791
 2839POPC   C2B37196  33.080   6.233   8.420
 2839POPC   C3B37197  33.059   6.306   8.025
 2839POPC   C4B37198  33.148   6.066   7.685
 2840POPC   NC337199  41.942  15.287   9.522
 2840POPC   PO437200  42.630  15.326   9.540
 2840POPC   GL137201  42.394  15.215   9.176
 2840POPC   GL237202  42.112  15.018   9.114
 2840POPC   C1A37203  42.317  15.372   8.763
 2840POPC   D2A37204  42.227  15.233   8.357
 2840POPC   C3A37205  42.503  15.258   8.006
 2840POPC   C4A37206  42.340  15.160   7.624
 2840POPC   C1B37207  41.899  14.858   8.750
 2840POPC   C2B37208  41.806  14.963   8.325
 2840POPC   C3B37209  41.895  14.750   7.937
 2840POPC   C4B37210  41.956  14.854   7.488
 2841POPC   NC337211  21.487  29.360   9.458
 2841POPC   PO437212  21.084  28.866   9.480
 2841POPC   GL137213  21.220  29.103   9.124
 2841POPC   GL237214  21.080  29.451   9.140
 2841POPC   C1A37215  21.406  29.184   8.745
 2841POPC   D2A37216  21.395  28.872   8.453
 2841POPC   C3A37217  21.478  29.034   8.054
 2841POPC   C4A37218  21.641  28.777   7.763
 2841POPC   C1B37219  21.109  29.621   8.726
 2841POPC   C2B37220  21.345  29.598   8.324
 2841POPC   C3B37221  21.282  29.473   7.882
 2841POPC   C4B37222  21.584  29.540   7.523
 2842POPC   NC337223  10.046  23.322   9.412
 2842POPC   PO437224   9.722  23.926   9.399
 2842POPC   GL137225   9.855  23.826   9.039
 2842POPC   GL237226   9.818  23.530   9.031
 2842POPC   C1A37227   9.770  23.772   8.597
 2842POPC   D2A37228   9.796  24.047   8.324
 2842POPC   C3A37229   9.650  23.960   7.947
 2842POPC   C4A37230   9.752  23.828   7.543
 2842POPC   C1B37231  10.180  23.522   8.780
 2842POPC   C2B37232  10.178  23.520   8.355
 2842POPC   C3B37233  10.112  23.682   7.959
 2842POPC   C4B37234  10.102  23.448   7.584
 2843POPC   NC337235  39.550  28.527   9.526
 2843POPC   PO437236  40.172  28.399   9.497
 2843POPC   GL137237  39.937  28.433   9.151
 2843POPC   GL237238  40.006  28.073   9.109
 2843POPC   C1A37239  40.012  28.433   8.722
 2843POPC   D2A37240  39.871  28.538   8.334
 2843POPC   C3A37241  40.111  28.679   8.038
 2843POPC   C4A37242  40.043  28.448   7.673
 2843POPC   C1B37243  40.378  28.070   8.841
 2843POPC   C2B37244  40.506  28.348   8.489
 2843POPC   C3B37245  40.453  28.281   8.025
 2843POPC   C4B37246  40.354  28.047   7.626
 2844POPC   NC337247  44.004  28.904   9.227
 2844POPC   PO437248  43.653  29.402   9.602
 2844POPC   GL137249  43.900  29.411   9.206
 2844POPC   GL237250  43.646  29.221   8.998
 2844POPC   C1A37251  44.053  29.436   8.754
 2844POPC   D2A37252  43.780  29.487   8.375
 2844POPC   C3A37253  43.826  29.179   8.080
 2844POPC   C4A37254  44.003  29.150   7.702
 2844POPC   C1B37255  43.603  29.006   8.577
 2844POPC   C2B37256  43.596  28.720   8.217
 2844POPC   C3B37257  43.604  28.771   7.786
 2844POPC   C4B37258  43.375  28.715   7.407
 2845POPC   NC337259  30.449   6.098   9.525
 2845POPC   PO437260  31.101   5.887   9.611
 2845POPC   GL137261  30.819   5.904   9.252
 2845POPC   GL237262  30.899   6.222   9.132
 2845POPC   C1A37263  30.541   5.993   8.871
 2845POPC   D2A37264  30.598   5.712   8.496
 2845POPC   C3A37265  30.612   5.899   8.091
 2845POPC   C4A37266  30.408   6.096   7.739
 2845POPC   C1B37267  31.025   5.939   8.782
 2845POPC   C2B37268  31.123   5.846   8.368
 2845POPC   C3B37269  31.107   5.994   7.928
 2845POPC   C4B37270  31.098   5.829   7.520
 2846POPC   NC337271  24.173  41.657   9.530
 2846POPC   PO437272  24.784  41.382   9.433
 2846POPC   GL137273  24.623  41.673   9.088
 2846POPC   GL237274  24.238  41.746   9.049
 2846POPC   C1A37275  24.766  41.573   8.654
 2846POPC   D2A37276  24.787  41.211   8.354
 2846POPC   C3A37277  24.573  41.372   8.011
 2846POPC   C4A37278  24.798  41.755   7.970
 2846POPC   C1B37279  24.247  41.615   8.663
 2846POPC   C2B37280  24.388  41.756   8.306
 2846POPC   C3B37281  24.120  41.811   8.005
 2846POPC   C4B37282  24.089  41.486   7.772
 2847POPC   NC337283   0.130  15.580   9.579
 2847POPC   PO437284   0.550  16.006   9.794
 2847POPC   GL137285   0.460  15.896   9.344
 2847POPC   GL237286   0.760  15.903   9.143
 2847POPC   C1A37287   0.299  15.944   8.912
 2847POPC   D2A37288   0.389  16.062   8.490
 2847POPC   C3A37289   0.146  15.870   8.169
 2847POPC   C4A37290   0.214  16.016   7.769
 2847POPC   C1B37291   0.830  15.758   8.718
 2847POPC   C2B37292   0.866  15.896   8.272
 2847POPC   C3B37293   0.730  15.922   7.803
 2847POPC   C4B37294   0.513  15.711   7.425
 2848POPC   NC337295  23.036  35.571   9.596
 2848POPC   PO437296  22.936  34.972   9.479
 2848POPC   GL137297  23.129  35.145   9.128
 2848POPC   GL237298  23.137  35.509   9.112
 2848POPC   C1A37299  22.839  35.271   8.779
 2848POPC   D2A37300  22.772  35.565   8.436
 2848POPC   C3A37301  22.924  35.369   8.047
 2848POPC   C4A37302  22.850  35.153   7.659
 2848POPC   C1B37303  23.333  35.421   8.743
 2848POPC   C2B37304  23.282  35.655   8.400
 2848POPC   C3B37305  23.359  35.676   7.991
 2848POPC   C4B37306  23.100  35.612   7.628
 2849POPC   NC337307  36.077   3.947   9.468
 2849POPC   PO437308  35.721   3.409   9.605
 2849POPC   GL137309  35.881   3.360   9.146
 2849POPC   GL237310  36.186   3.592   9.111
 2849POPC   C1A37311  35.838   3.391   8.683
 2849POPC   D2A37312  35.924   3.688   8.321
 2849POPC   C3A37313  35.805   3.555   7.885
 2849POPC   C4A37314  35.897   3.695   7.452
 2849POPC   C1B37315  36.313   3.577   8.693
 2849POPC   C2B37316  36.282   3.301   8.329
 2849POPC   C3B37317  36.294   3.353   7.869
 2849POPC   C4B37318  36.009   3.213   7.519
 2850POPC   NC337319  28.799  19.684   9.386
 2850POPC   PO437320  29.461  19.649   9.416
 2850POPC   GL137321  29.268  19.806   9.084
 2850POPC   GL237322  29.088  20.098   9.210
 2850POPC   C1A37323  29.321  19.813   8.646
 2850POPC   D2A37324  29.317  19.975   8.236
 2850POPC   C3A37325  29.249  19.668   7.934
 2850POPC   C4A37326  29.196  19.966   7.656
 2850POPC   C1B37327  28.875  20.010   8.829
 2850POPC   C2B37328  28.852  20.015   8.437
 2850POPC   C3B37329  28.818  19.997   8.004
 2850POPC   C4B37330  28.768  19.663   7.715
 2851POPC   NC337331  26.484   2.145   9.373
 2851POPC   PO437332  27.019   1.733   9.422
 2851POPC   GL137333  27.142   2.026   9.074
 2851POPC   GL237334  26.832   2.232   8.972
 2851POPC   C1A37335  27.261   1.899   8.650
 2851POPC   D2A37336  26.971   2.040   8.346
 2851POPC   C3A37337  27.028   2.054   7.930
 2851POPC   C4A37338  26.806   2.248   7.610
 2851POPC   C1B37339  26.781   1.808   8.784
 2851POPC   C2B37340  26.756   1.594   8.380
 2851POPC   C3B37341  26.579   1.789   7.984
 2851POPC   C4B37342  26.628   1.779   7.498
 2852POPC   NC337343  22.279  26.968   9.776
 2852POPC   PO437344  22.271  26.358   9.505
 2852POPC   GL137345  22.121  26.334   9.077
 2852POPC   GL237346  21.826  26.524   8.988
 2852POPC   C1A37347  22.353  26.543   8.711
 2852POPC   D2A37348  22.325  26.428   8.306
 2852POPC   C3A37349  22.323  26.651   7.942
 2852POPC   C4A37350  22.491  27.030   7.913
 2852POPC   C1B37351  21.870  26.605   8.558
 2852POPC   C2B37352  21.954  26.878   8.200
 2852POPC   C3B37353  21.982  27.002   7.758
 2852POPC   C4B37354  21.932  27.085   7.298
 2853POPC   NC337355  11.184   9.130   9.490
 2853POPC   PO437356  11.821   8.829   9.527
 2853POPC   GL137357  11.563   8.944   9.175
 2853POPC   GL237358  11.335   8.665   9.227
 2853POPC   C1A37359  11.398   9.191   8.786
 2853POPC   D2A37360  11.128   9.316   8.428
 2853POPC   C3A37361  11.334   9.234   8.069
 2853POPC   C4A37362  11.417   9.001   7.739
 2853POPC   C1B37363  11.419   8.664   8.766
 2853POPC   C2B37364  11.244   8.807   8.393
 2853POPC   C3B37365  11.105   8.707   8.024
 2853POPC   C4B37366  11.244   8.547   7.641
 2854POPC   NC337367  39.596  41.208   9.419
 2854POPC   PO437368  39.927  40.648   9.497
 2854POPC   GL137369  40.054  40.901   9.179
 2854POPC   GL237370  39.834  40.693   8.984
 2854POPC   C1A37371  40.210  40.934   8.765
 2854POPC   D2A37372  40.019  40.678   8.470
 2854POPC   C3A37373  39.961  40.951   8.155
 2854POPC   C4A37374  40.051  40.899   7.748
 2854POPC   C1B37375  39.584  40.905   8.710
 2854POPC   C2B37376  39.425  41.023   8.313
 2854POPC   C3B37377  39.554  41.151   7.907
 2854POPC   C4B37378  39.644  40.991   7.495
 2855POPC   NC337379  38.864   7.565   9.750
 2855POPC   PO437380  39.417   7.361   9.279
 2855POPC   GL137381  39.361   7.635   8.927
 2855POPC   GL237382  39.714   7.606   8.854
 2855POPC   C1A37383  39.027   7.881   8.746
 2855POPC   D2A37384  38.851   7.680   8.445
 2855POPC   C3A37385  39.066   7.715   8.090
 2855POPC   C4A37386  39.058   7.419   7.807
 2855POPC   C1B37387  39.480   7.222   8.671
 2855POPC   C2B37388  39.301   7.304   8.328
 2855POPC   C3B37389  39.546   7.523   8.103
 2855POPC   C4B37390  39.512   7.648   7.727
 2856POPC   NC337391  34.026  43.502  10.022
 2856POPC   PO437392  33.673  43.112   9.626
 2856POPC   GL137393  33.697  42.956   9.158
 2856POPC   GL237394  33.650  43.278   9.004
 2856POPC   C1A37395  34.000  42.961   8.760
 2856POPC   D2A37396  34.041  43.194   8.339
 2856POPC   C3A37397  34.007  42.948   7.966
 2856POPC   C4A37398  33.677  42.751   7.747
 2856POPC   C1B37399  33.351  43.447   8.704
 2856POPC   C2B37400  33.480  43.412   8.290
 2856POPC   C3B37401  33.591  43.259   7.886
 2856POPC   C4B37402  33.832  43.435   7.626
 2857POPC   NC337403  28.910  13.603   9.624
 2857POPC   PO437404  29.544  13.422   9.406
 2857POPC   GL137405  29.388  13.222   8.995
 2857POPC   GL237406  29.651  13.265   8.773
 2857POPC   C1A37407  29.216  13.372   8.545
 2857POPC   D2A37408  29.384  13.510   8.128
 2857POPC   C3A37409  29.063  13.569   7.781
 2857POPC   C4A37410  29.081  13.434   7.335
 2857POPC   C1B37411  29.605  13.705   8.627
 2857POPC   C2B37412  29.485  13.993   8.286
 2857POPC   C3B37413  29.330  13.998   7.859
 2857POPC   C4B37414  29.129  13.980   7.439
 2858POPC   NC337415  14.144   1.718   9.687
 2858POPC   PO437416  13.571   1.828   9.270
 2858POPC   GL137417  13.576   1.811   8.887
 2858POPC   GL237418  13.911   1.675   8.828
 2858POPC   C1A37419  13.490   1.744   8.454
 2858POPC   D2A37420  13.441   1.574   8.041
 2858POPC   C3A37421  13.434   1.919   7.763
 2858POPC   C4A37422  13.511   2.336   7.745
 2858POPC   C1B37423  13.847   2.094   8.572
 2858POPC   C2B37424  13.773   2.069   8.113
 2858POPC   C3B37425  13.994   2.151   7.704
 2858POPC   C4B37426  14.015   2.339   7.284
 2859POPC   NC337427   2.216  36.910   9.463
 2859POPC   PO437428   1.650  36.561   9.609
 2859POPC   GL137429   1.803  36.666   9.207
 2859POPC   GL237430   2.106  36.459   9.157
 2859POPC   C1A37431   1.718  37.015   8.904
 2859POPC   D2A37432   1.723  37.091   8.452
 2859POPC   C3A37433   1.886  36.819   8.118
 2859POPC   C4A37434   2.045  36.903   7.710
 2859POPC   C1B37435   2.153  36.750   8.801
 2859POPC   C2B37436   2.324  36.698   8.390
 2859POPC   C3B37437   2.388  36.631   7.964
 2859POPC   C4B37438   2.152  36.380   7.695
 2860POPC   NC337439  10.633  14.547  10.045
 2860POPC   PO437440  10.792  14.228   9.437
 2860POPC   GL137441  10.534  14.416   9.123
 2860POPC   GL237442  10.357  14.089   9.090
 2860POPC   C1A37443  10.324  14.434   8.716
 2860POPC   D2A37444  10.246  14.748   8.410
 2860POPC   C3A37445  10.495  14.729   8.053
 2860POPC   C4A37446  10.422  14.631   7.630
 2860POPC   C1B37447  10.710  14.074   8.773
 2860POPC   C2B37448  10.832  14.230   8.361
 2860POPC   C3B37449  10.666  14.208   7.954
 2860POPC   C4B37450  10.370  14.053   7.660
 2861POPC   NC337451  35.224  28.269   9.600
 2861POPC   PO437452  35.768  28.645   9.518
 2861POPC   GL137453  35.596  28.480   9.154
 2861POPC   GL237454  35.245  28.499   9.096
 2861POPC   C1A37455  35.665  28.346   8.745
 2861POPC   D2A37456  35.457  28.138   8.439
 2861POPC   C3A37457  35.296  28.428   8.139
 2861POPC   C4A37458  35.533  28.563   7.809
 2861POPC   C1B37459  35.082  28.403   8.655
 2861POPC   C2B37460  34.976  28.069   8.291
 2861POPC   C3B37461  35.169  27.984   7.870
 2861POPC   C4B37462  35.043  28.076   7.427
 2862POPC   NC337463  15.191   7.639   9.577
 2862POPC   PO437464  15.488   7.053   9.498
 2862POPC   GL137465  15.346   7.407   9.148
 2862POPC   GL237466  15.542   7.717   9.208
 2862POPC   C1A37467  14.998   7.630   8.865
 2862POPC   D2A37468  14.778   7.776   8.463
 2862POPC   C3A37469  14.997   7.637   8.121
 2862POPC   C4A37470  15.157   7.608   7.721
 2862POPC   C1B37471  15.482   7.819   8.812
 2862POPC   C2B37472  15.360   7.544   8.487
 2862POPC   C3B37473  15.469   7.429   8.065
 2862POPC   C4B37474  15.353   7.112   7.721
 2863POPC   NC337475   7.200  27.934   9.405
 2863POPC   PO437476   7.637  27.378   9.444
 2863POPC   GL137477   7.412  27.566   9.117
 2863POPC   GL237478   7.643  27.866   9.112
 2863POPC   C1A37479   7.177  27.641   8.724
 2863POPC   D2A37480   6.982  27.632   8.303
 2863POPC   C3A37481   7.200  27.491   7.935
 2863POPC   C4A37482   7.605  27.346   7.756
 2863POPC   C1B37483   7.670  27.753   8.699
 2863POPC   C2B37484   7.569  27.567   8.340
 2863POPC   C3B37485   7.645  27.766   8.033
 2863POPC   C4B37486   7.467  27.877   7.702
 2864POPC   NC337487  13.420  35.653   9.407
 2864POPC   PO437488  13.358  34.968   9.546
 2864POPC   GL137489  13.663  35.033   9.186
 2864POPC   GL237490  13.776  35.391   9.119
 2864POPC   C1A37491  13.698  35.062   8.717
 2864POPC   D2A37492  13.349  35.060   8.383
 2864POPC   C3A37493  13.485  35.106   7.956
 2864POPC   C4A37494  13.480  35.298   7.546
 2864POPC   C1B37495  13.634  35.605   8.742
 2864POPC   C2B37496  13.702  35.446   8.333
 2864POPC   C3B37497  13.793  35.582   7.912
 2864POPC   C4B37498  13.908  35.745   7.490
 2865POPC   NC337499  26.155  39.950   9.476
 2865POPC   PO437500  25.802  40.449   9.472
 2865POPC   GL137501  25.855  40.170   9.106
 2865POPC   GL237502  25.703  39.846   9.037
 2865POPC   C1A37503  25.808  40.174   8.670
 2865POPC   D2A37504  25.689  39.921   8.332
 2865POPC   C3A37505  25.816  40.145   8.014
 2865POPC   C4A37506  26.144  40.164   7.737
 2865POPC   C1B37507  26.148  39.836   8.821
 2865POPC   C2B37508  26.281  39.970   8.394
 2865POPC   C3B37509  26.232  39.748   8.005
 2865POPC   C4B37510  25.829  39.697   7.812
 2866POPC   NC337511  42.545   1.846   9.612
 2866POPC   PO437512  42.100   2.329   9.418
 2866POPC   GL137513  42.279   1.989   9.176
 2866POPC   GL237514  42.638   1.969   9.133
 2866POPC   C1A37515  42.140   1.860   8.790
 2866POPC   D2A37516  42.029   2.073   8.425
 2866POPC   C3A37517  42.160   1.844   8.076
 2866POPC   C4A37518  42.099   1.836   7.671
 2866POPC   C1B37519  42.806   1.845   8.786
 2866POPC   C2B37520  42.674   1.708   8.418
 2866POPC   C3B37521  42.666   1.654   8.023
 2866POPC   C4B37522  42.594   1.905   7.723
 2867POPC   NC337523  28.545   8.428   9.345
 2867POPC   PO437524  28.057   8.025   9.532
 2867POPC   GL137525  28.342   8.001   9.183
 2867POPC   GL237526  28.674   7.870   9.232
 2867POPC   C1A37527  28.342   8.226   8.770
 2867POPC   D2A37528  28.539   8.451   8.437
 2867POPC   C3A37529  28.363   8.343   8.027
 2867POPC   C4A37530  28.269   8.358   7.564
 2867POPC   C1B37531  28.577   7.777   8.782
 2867POPC   C2B37532  28.619   7.937   8.375
 2867POPC   C3B37533  28.438   7.820   7.977
 2867POPC   C4B37534  28.426   7.877   7.507
 2868POPC   NC337535   5.185  27.117   9.939
 2868POPC   PO437536   4.987  27.650   9.592
 2868POPC   GL137537   5.015  27.733   9.134
 2868POPC   GL237538   4.720  27.921   9.022
 2868POPC   C1A37539   5.188  27.637   8.695
 2868POPC   D2A37540   5.131  27.779   8.239
 2868POPC   C3A37541   5.109  27.494   7.837
 2868POPC   C4A37542   5.190  27.361   7.386
 2868POPC   C1B37543   4.682  27.702   8.594
 2868POPC   C2B37544   4.660  27.536   8.155
 2868POPC   C3B37545   4.694  27.800   7.780
 2868POPC   C4B37546   4.719  27.703   7.343
 2869POPC   NC337547   0.297  37.776  10.156
 2869POPC   PO437548   0.505  37.778   9.523
 2869POPC   GL137549   0.492  37.815   9.093
 2869POPC   GL237550   0.269  38.110   9.081
 2869POPC   C1A37551   0.554  37.560   8.711
 2869POPC   D2A37552   0.608  37.709   8.278
 2869POPC   C3A37553   0.405  37.587   7.905
 2869POPC   C4A37554   0.198  37.403   7.575
 2869POPC   C1B37555   0.288  38.003   8.628
 2869POPC   C2B37556   0.085  37.834   8.250
 2869POPC   C3B37557  44.972  37.879   7.837
 2869POPC   C4B37558  44.721  38.126   7.546
 2870POPC   NC337559  44.373  10.848   9.456
 2870POPC   PO437560  44.866  10.411   9.611
 2870POPC   GL137561  44.603  10.432   9.246
 2870POPC   GL237562  44.716  10.722   9.129
 2870POPC   C1A37563  44.744  10.291   8.816
 2870POPC   D2A37564  44.671  10.049   8.442
 2870POPC   C3A37565  44.754  10.245   8.039
 2870POPC   C4A37566  44.614  10.386   7.648
 2870POPC   C1B37567  44.421  10.657   8.784
 2870POPC   C2B37568  44.600  10.600   8.383
 2870POPC   C3B37569  44.576  10.779   7.972
 2870POPC   C4B37570  44.451  10.925   7.574
 2871POPC   NC337571  27.075  22.501   9.440
 2871POPC   PO437572  26.546  21.986   9.474
 2871POPC   GL137573  26.819  22.094   9.110
 2871POPC   GL237574  26.890  22.439   8.990
 2871POPC   C1A37575  26.917  21.860   8.747
 2871POPC   D2A37576  26.831  21.984   8.328
 2871POPC   C3A37577  26.948  21.807   7.942
 2871POPC   C4A37578  26.988  21.955   7.503
 2871POPC   C1B37579  26.677  22.351   8.645
 2871POPC   C2B37580  26.760  22.493   8.238
 2871POPC   C3B37581  26.874  22.304   7.858
 2871POPC   C4B37582  26.720  22.439   7.454
 2872POPC   NC337583   2.354  28.331   9.379
 2872POPC   PO437584   1.652  28.194   9.395
 2872POPC   GL137585   1.908  28.365   9.115
 2872POPC   GL237586   2.125  28.156   8.982
 2872POPC   C1A37587   1.790  28.398   8.690
 2872POPC   D2A37588   1.956  28.483   8.326
 2872POPC   C3A37589   1.716  28.347   7.999
 2872POPC   C4A37590   1.901  28.280   7.637
 2872POPC   C1B37591   2.465  28.126   8.754
 2872POPC   C2B37592   2.327  27.967   8.403
 2872POPC   C3B37593   2.166  28.085   8.062
 2872POPC   C4B37594   2.348  28.022   7.703
 2873POPC   NC337595  26.286  33.279   9.695
 2873POPC   PO437596  25.774  32.925   9.471
 2873POPC   GL137597  26.062  33.084   9.141
 2873POPC   GL237598  26.237  33.396   9.188
 2873POPC   C1A37599  25.905  33.121   8.717
 2873POPC   D2A37600  25.674  32.891   8.408
 2873POPC   C3A37601  25.972  32.756   8.152
 2873POPC   C4A37602  25.958  32.999   7.801
 2873POPC   C1B37603  26.346  33.414   8.747
 2873POPC   C2B37604  26.290  33.213   8.303
 2873POPC   C3B37605  26.364  33.311   7.838
 2873POPC   C4B37606  26.319  33.071   7.433
 2874POPC   NC337607  22.935  11.214   9.733
 2874POPC   PO437608  23.402  11.584   9.375
 2874POPC   GL137609  23.043  11.270   9.244
 2874POPC   GL237610  23.186  11.390   8.949
 2874POPC   C1A37611  22.720  11.217   8.948
 2874POPC   D2A37612  22.856  11.374   8.533
 2874POPC   C3A37613  22.565  11.374   8.194
 2874POPC   C4A37614  22.719  11.530   7.822
 2874POPC   C1B37615  23.183  11.025   8.732
 2874POPC   C2B37616  23.152  10.984   8.315
 2874POPC   C3B37617  23.132  11.296   7.993
 2874POPC   C4B37618  23.381  11.239   7.610
 2875POPC   NC337619  35.915   0.550   9.843
 2875POPC   PO437620  36.491   0.496   9.552
 2875POPC   GL137621  36.286   0.395   9.198
 2875POPC   GL237622  36.419   0.046   9.156
 2875POPC   C1A37623  36.033   0.471   8.831
 2875POPC   D2A37624  35.828   0.239   8.489
 2875POPC   C3A37625  35.916   0.250   8.073
 2875POPC   C4A37626  35.818   0.478   7.700
 2875POPC   C1B37627  36.378   0.078   8.703
 2875POPC   C2B37628  36.318   0.419   8.393
 2875POPC   C3B37629  36.254   0.620   8.003
 2875POPC   C4B37630  36.326   0.277   7.741
 2876POPC   NC337631  15.583  22.182   9.387
 2876POPC   PO437632  16.256  22.112   9.532
 2876POPC   GL137633  16.026  22.305   9.166
 2876POPC   GL237634  15.941  21.977   9.041
 2876POPC   C1A37635  15.857  22.339   8.724
 2876POPC   D2A37636  16.032  22.044   8.437
 2876POPC   C3A37637  15.891  22.214   8.075
 2876POPC   C4A37638  15.826  22.361   7.694
 2876POPC   C1B37639  15.739  21.723   8.700
 2876POPC   C2B37640  15.830  21.589   8.287
 2876POPC   C3B37641  15.675  21.749   7.911
 2876POPC   C4B37642  15.357  21.801   7.622
 2877POPC   NC337643  39.553  12.848  10.031
 2877POPC   PO437644  39.940  13.167   9.633
 2877POPC   GL137645  40.030  13.019   9.193
 2877POPC   GL237646  39.718  13.154   9.087
 2877POPC   C1A37647  40.102  12.788   8.752
 2877POPC   D2A37648  40.332  12.782   8.319
 2877POPC   C3A37649  40.098  12.734   7.903
 2877POPC   C4A37650  40.129  12.775   7.407
 2877POPC   C1B37651  39.954  13.269   8.737
 2877POPC   C2B37652  39.933  13.086   8.350
 2877POPC   C3B37653  39.780  13.251   8.003
 2877POPC   C4B37654  39.782  13.069   7.620
 2878POPC   NC337655  14.823  33.104   9.348
 2878POPC   PO437656  15.475  33.148   9.583
 2878POPC   GL137657  15.380  33.099   9.158
 2878POPC   GL237658  15.230  32.779   9.187
 2878POPC   C1A37659  15.498  32.897   8.751
 2878POPC   D2A37660  15.276  32.802   8.380
 2878POPC   C3A37661  15.366  32.898   7.980
 2878POPC   C4A37662  15.269  33.133   7.632
 2878POPC   C1B37663  14.986  32.919   8.779
 2878POPC   C2B37664  14.792  32.964   8.396
 2878POPC   C3B37665  14.840  33.100   7.998
 2878POPC   C4B37666  14.893  32.787   7.739
 2879POPC   NC337667  10.698  23.750   9.831
 2879POPC   PO437668  11.367  23.717   9.673
 2879POPC   GL137669  11.326  23.645   9.242
 2879POPC   GL237670  10.996  23.640   9.146
 2879POPC   C1A37671  11.409  23.629   8.777
 2879POPC   D2A37672  11.482  23.928   8.417
 2879POPC   C3A37673  11.523  23.787   7.987
 2879POPC   C4A37674  11.611  23.816   7.548
 2879POPC   C1B37675  10.996  23.964   8.812
 2879POPC   C2B37676  11.038  24.181   8.408
 2879POPC   C3B37677  11.053  24.007   8.026
 2879POPC   C4B37678  11.084  23.733   7.696
 2880POPC   NC337679   5.064  38.384   9.705
 2880POPC   PO437680   5.488  38.558   9.223
 2880POPC   GL137681   5.227  38.361   8.967
 2880POPC   GL237682   4.866  38.396   9.041
 2880POPC   C1A37683   5.097  38.387   8.566
 2880POPC   D2A37684   5.037  38.655   8.251
 2880POPC   C3A37685   5.414  38.549   8.105
 2880POPC   C4A37686   5.517  38.483   7.736
 2880POPC   C1B37687   4.687  38.112   8.676
 2880POPC   C2B37688   4.920  37.961   8.290
 2880POPC   C3B37689   5.041  38.216   7.936
 2880POPC   C4B37690   5.098  38.160   7.453
 2881POPC   NC337691  42.123  30.443   9.593
 2881POPC   PO437692  42.599  30.859   9.422
 2881POPC   GL137693  42.448  30.587   9.114
 2881POPC   GL237694  42.468  30.914   8.923
 2881POPC   C1A37695  42.259  30.516   8.691
 2881POPC   D2A37696  42.086  30.768   8.336
 2881POPC   C3A37697  42.074  30.640   7.912
 2881POPC   C4A37698  42.425  30.454   7.745
 2881POPC   C1B37699  42.742  30.930   8.557
 2881POPC   C2B37700  42.538  31.051   8.189
 2881POPC   C3B37701  42.439  30.979   7.772
 2881POPC   C4B37702  42.667  30.959   7.383
 2882POPC   NC337703   3.998  13.408   9.528
 2882POPC   PO437704   3.299  13.391   9.454
 2882POPC   GL137705   3.617  13.538   9.196
 2882POPC   GL237706   3.764  13.226   9.067
 2882POPC   C1A37707   3.772  13.686   8.808
 2882POPC   D2A37708   3.556  13.778   8.413
 2882POPC   C3A37709   3.798  13.691   8.038
 2882POPC   C4A37710   3.643  13.745   7.629
 2882POPC   C1B37711   3.341  13.313   8.826
 2882POPC   C2B37712   3.143  13.408   8.435
 2882POPC   C3B37713   3.341  13.469   8.072
 2882POPC   C4B37714   3.643  13.243   7.842
 2883POPC   NC337715   3.212  40.308   9.324
 2883POPC   PO437716   3.721  39.964   9.466
 2883POPC   GL137717   3.729  40.081   9.066
 2883POPC   GL237718   3.399  39.962   9.010
 2883POPC   C1A37719   3.748  39.916   8.642
 2883POPC   D2A37720   3.592  40.135   8.259
 2883POPC   C3A37721   3.750  40.064   7.860
 2883POPC   C4A37722   3.561  40.218   7.489
 2883POPC   C1B37723   3.249  39.974   8.617
 2883POPC   C2B37724   3.323  39.689   8.346
 2883POPC   C3B37725   3.318  39.814   7.932
 2883POPC   C4B37726   3.564  39.684   7.567
 2884POPC   NC337727  39.120  26.306   9.522
 2884POPC   PO437728  39.746  26.071   9.533
 2884POPC   GL137729  39.594  26.225   9.146
 2884POPC   GL237730  39.311  26.008   9.145
 2884POPC   C1A37731  39.518  26.086   8.705
 2884POPC   D2A37732  39.338  26.278   8.339
 2884POPC   C3A37733  39.481  26.076   7.962
 2884POPC   C4A37734  39.271  25.730   7.733
 2884POPC   C1B37735  39.003  26.064   8.812
 2884POPC   C2B37736  38.819  26.061   8.420
 2884POPC   C3B37737  38.950  26.020   8.001
 2884POPC   C4B37738  38.865  26.192   7.603
 2885POPC   NC337739  34.214  13.615   9.588
 2885POPC   PO437740  34.812  13.313   9.730
 2885POPC   GL137741  34.654  13.666   9.317
 2885POPC   GL237742  34.333  13.779   9.135
 2885POPC   C1A37743  34.634  13.683   8.779
 2885POPC   D2A37744  34.806  13.890   8.387
 2885POPC   C3A37745  34.767  13.624   7.997
 2885POPC   C4A37746  34.507  13.432   7.668
 2885POPC   C1B37747  34.129  13.773   8.705
 2885POPC   C2B37748  34.327  13.699   8.333
 2885POPC   C3B37749  34.294  13.853   7.912
 2885POPC   C4B37750  34.207  13.807   7.480
 2886POPC   NC337751   7.671  11.635   9.386
 2886POPC   PO437752   8.293  12.030   9.558
 2886POPC   GL137753   8.155  11.941   9.204
 2886POPC   GL237754   8.185  11.601   9.251
 2886POPC   C1A37755   8.091  12.200   8.837
 2886POPC   D2A37756   7.965  12.363   8.426
 2886POPC   C3A37757   8.258  12.337   8.090
 2886POPC   C4A37758   8.093  12.274   7.676
 2886POPC   C1B37759   8.128  11.624   8.808
 2886POPC   C2B37760   8.190  11.863   8.450
 2886POPC   C3B37761   8.024  11.899   8.064
 2886POPC   C4B37762   8.061  11.762   7.682
 2887POPC   NC337763  23.367  43.103   9.426
 2887POPC   PO437764  23.894  43.545   9.394
 2887POPC   GL137765  23.854  43.311   9.030
 2887POPC   GL237766  23.723  42.972   9.096
 2887POPC   C1A37767  23.554  43.306   8.701
 2887POPC   D2A37768  23.483  43.096   8.311
 2887POPC   C3A37769  23.828  43.185   8.054
 2887POPC   C4A37770  23.873  43.587   7.834
 2887POPC   C1B37771  23.749  42.821   8.687
 2887POPC   C2B37772  23.907  42.690   8.326
 2887POPC   C3B37773  23.625  42.612   8.022
 2887POPC   C4B37774  23.655  42.820   7.687
 2888POPC   NC337775  38.023  25.049   9.569
 2888POPC   PO437776  37.430  25.221   9.610
 2888POPC   GL137777  37.589  25.260   9.214
 2888POPC   GL237778  37.923  25.278   9.129
 2888POPC   C1A37779  37.586  25.100   8.805
 2888POPC   D2A37780  37.602  25.328   8.445
 2888POPC   C3A37781  37.403  25.118   8.117
 2888POPC   C4A37782  37.365  25.404   7.846
 2888POPC   C1B37783  38.046  25.500   8.765
 2888POPC   C2B37784  38.125  25.418   8.344
 2888POPC   C3B37785  37.924  25.188   8.033
 2888POPC   C4B37786  37.704  25.035   7.669
 2889POPC   NC337787  23.899   0.431   9.420
 2889POPC   PO437788  23.331   0.130   9.659
 2889POPC   GL137789  23.438   0.455   9.240
 2889POPC   GL237790  23.431   0.813   9.231
 2889POPC   C1A37791  23.651   0.403   8.806
 2889POPC   D2A37792  23.426   0.259   8.431
 2889POPC   C3A37793  23.606   0.312   8.014
 2889POPC   C4A37794  23.761  44.953   7.778
 2889POPC   C1B37795  23.593   0.908   8.806
 2889POPC   C2B37796  23.602   0.743   8.413
 2889POPC   C3B37797  23.741   0.814   8.041
 2889POPC   C4B37798  23.806   0.710   7.703
 2890POPC   NC337799   3.209  40.920   9.663
 2890POPC   PO437800   3.808  40.686   9.417
 2890POPC   GL137801   3.560  40.625   9.097
 2890POPC   GL237802   3.448  40.975   9.194
 2890POPC   C1A37803   3.523  40.412   8.694
 2890POPC   D2A37804   3.208  40.495   8.335
 2890POPC   C3A37805   3.355  40.487   7.914
 2890POPC   C4A37806   3.767  40.556   7.802
 2890POPC   C1B37807   3.719  41.047   8.831
 2890POPC   C2B37808   3.683  41.159   8.414
 2890POPC   C3B37809   3.591  40.997   8.027
 2890POPC   C4B37810   3.761  41.014   7.629
 2891POPC   NC337811  44.534  14.787   9.545
 2891POPC   PO437812   0.060  15.134   9.557
 2891POPC   GL137813  44.819  15.235   9.203
 2891POPC   GL237814  44.899  14.883   9.124
 2891POPC   C1A37815  44.571  15.118   8.808
 2891POPC   D2A37816  44.720  14.989   8.378
 2891POPC   C3A37817  44.627  15.280   8.057
 2891POPC   C4A37818  44.714  15.278   7.614
 2891POPC   C1B37819   0.078  15.072   8.757
 2891POPC   C2B37820   0.111  15.327   8.385
 2891POPC   C3B37821   0.118  15.221   7.970
 2891POPC   C4B37822   0.129  15.534   7.684
 2892POPC   NC337823   8.437   4.104   9.629
 2892POPC   PO437824   8.072   4.665   9.476
 2892POPC   GL137825   8.342   4.381   9.175
 2892POPC   GL237826   8.397   4.015   9.143
 2892POPC   C1A37827   8.202   4.213   8.741
 2892POPC   D2A37828   7.906   4.253   8.377
 2892POPC   C3A37829   7.862   4.196   7.970
 2892POPC   C4A37830   8.051   4.304   7.612
 2892POPC   C1B37831   8.551   3.850   8.750
 2892POPC   C2B37832   8.541   4.067   8.365
 2892POPC   C3B37833   8.363   4.110   7.983
 2892POPC   C4B37834   8.324   3.829   7.653
 2893POPC   NC337835  44.232  39.678   9.478
 2893POPC   PO437836  43.666  40.112   9.500
 2893POPC   GL137837  43.867  40.041   9.134
 2893POPC   GL237838  43.940  39.720   9.073
 2893POPC   C1A37839  43.982  40.170   8.726
 2893POPC   D2A37840  44.172  40.374   8.393
 2893POPC   C3A37841  44.014  40.260   7.993
 2893POPC   C4A37842  43.654  40.209   7.799
 2893POPC   C1B37843  43.714  39.728   8.700
 2893POPC   C2B37844  43.870  39.687   8.342
 2893POPC   C3B37845  43.822  39.756   7.941
 2893POPC   C4B37846  43.568  39.678   7.590
 2894POPC   NC337847  24.054  30.126   9.771
 2894POPC   PO437848  24.553  29.782   9.401
 2894POPC   GL137849  24.645  29.678   9.016
 2894POPC   GL237850  24.281  29.555   9.021
 2894POPC   C1A37851  24.665  30.014   8.687
 2894POPC   D2A37852  24.440  30.067   8.289
 2894POPC   C3A37853  24.693  30.015   7.899
 2894POPC   C4A37854  24.627  30.101   7.444
 2894POPC   C1B37855  24.356  29.619   8.608
 2894POPC   C2B37856  24.727  29.634   8.344
 2894POPC   C3B37857  24.636  29.485   7.961
 2894POPC   C4B37858  24.507  29.643   7.588
 2895POPC   NC337859   7.359  36.595   9.650
 2895POPC   PO437860   7.860  36.745   9.291
 2895POPC   GL137861   7.642  37.008   9.002
 2895POPC   GL237862   7.285  37.097   9.045
 2895POPC   C1A37863   7.603  37.156   8.602
 2895POPC   D2A37864   7.451  36.881   8.316
 2895POPC   C3A37865   7.605  36.955   7.918
 2895POPC   C4A37866   7.818  36.992   7.552
 2895POPC   C1B37867   7.067  37.014   8.631
 2895POPC   C2B37868   7.001  37.049   8.168
 2895POPC   C3B37869   7.126  36.792   7.870
 2895POPC   C4B37870   7.329  36.891   7.486
 2896POPC   NC337871   8.048  17.758   9.498
 2896POPC   PO437872   8.086  17.071   9.455
 2896POPC   GL137873   8.291  17.254   9.110
 2896POPC   GL237874   8.300  17.631   9.077
 2896POPC   C1A37875   8.200  17.316   8.699
 2896POPC   D2A37876   8.011  17.483   8.329
 2896POPC   C3A37877   8.159  17.368   7.945
 2896POPC   C4A37878   8.221  17.228   7.542
 2896POPC   C1B37879   8.169  17.829   8.704
 2896POPC   C2B37880   8.297  17.887   8.269
 2896POPC   C3B37881   8.021  17.864   7.922
 2896POPC   C4B37882   8.090  17.728   7.529
 2897POPC   NC337883  30.240  36.776   9.513
 2897POPC   PO437884  29.546  36.842   9.509
 2897POPC   GL137885  29.659  37.011   9.141
 2897POPC   GL237886  29.986  37.172   9.137
 2897POPC   C1A37887  29.516  36.962   8.738
 2897POPC   D2A37888  29.522  37.176   8.352
 2897POPC   C3A37889  29.586  36.950   7.962
 2897POPC   C4A37890  29.737  37.103   7.573
 2897POPC   C1B37891  29.979  37.137   8.675
 2897POPC   C2B37892  29.959  36.874   8.324
 2897POPC   C3B37893  30.206  36.875   7.945
 2897POPC   C4B37894  30.262  37.113   7.579
 2898POPC   NC337895   8.953  28.259   9.548
 2898POPC   PO437896   8.974  28.909   9.484
 2898POPC   GL137897   9.086  28.635   9.114
 2898POPC   GL237898   9.146  28.255   9.085
 2898POPC   C1A37899   8.863  28.493   8.727
 2898POPC   D2A37900   8.708  28.663   8.332
 2898POPC   C3A37901   9.033  28.667   8.003
 2898POPC   C4A37902   9.076  28.433   7.625
 2898POPC   C1B37903   9.152  28.040   8.679
 2898POPC   C2B37904   8.916  28.140   8.292
 2898POPC   C3B37905   8.962  27.985   7.865
 2898POPC   C4B37906   8.868  28.045   7.402
 2899POPC   NC337907  11.069  18.815   9.493
 2899POPC   PO437908  11.560  19.281   9.405
 2899POPC   GL137909  11.156  19.188   9.147
 2899POPC   GL237910  10.929  18.833   9.019
 2899POPC   C1A37911  10.984  19.252   8.769
 2899POPC   D2A37912  11.020  18.969   8.438
 2899POPC   C3A37913  11.258  19.155   8.132
 2899POPC   C4A37914  11.079  19.252   7.726
 2899POPC   C1B37915  11.334  18.752   8.823
 2899POPC   C2B37916  11.374  18.595   8.415
 2899POPC   C3B37917  11.563  18.686   8.057
 2899POPC   C4B37918  11.533  18.934   7.759
 2900POPC   NC337919  11.467  27.997   9.617
 2900POPC   PO437920  11.290  28.674   9.641
 2900POPC   GL137921  11.329  28.380   9.295
 2900POPC   GL237922  11.434  28.643   9.078
 2900POPC   C1A37923  11.214  28.199   8.906
 2900POPC   D2A37924  11.448  27.968   8.593
 2900POPC   C3A37925  11.497  28.176   8.181
 2900POPC   C4A37926  11.399  28.223   7.725
 2900POPC   C1B37927  11.229  28.655   8.654
 2900POPC   C2B37928  11.168  28.601   8.184
 2900POPC   C3B37929  11.306  28.745   7.787
 2900POPC   C4B37930  11.464  28.585   7.374
 2901POPC   NC337931   3.924   2.456   9.575
 2901POPC   PO437932   4.264   3.067   9.538
 2901POPC   GL137933   4.389   2.905   9.139
 2901POPC   GL237934   4.303   2.583   9.245
 2901POPC   C1A37935   4.159   2.758   8.761
 2901POPC   D2A37936   3.919   2.641   8.384
 2901POPC   C3A37937   4.165   2.685   8.036
 2901POPC   C4A37938   4.060   2.867   7.666
 2901POPC   C1B37939   4.517   2.424   8.921
 2901POPC   C2B37940   4.497   2.478   8.479
 2901POPC   C3B37941   4.639   2.494   8.070
 2901POPC   C4B37942   4.561   2.696   7.666
 2902POPC   NC337943   3.757   4.059   9.346
 2902POPC   PO437944   3.316   4.566   9.533
 2902POPC   GL137945   3.414   4.426   9.148
 2902POPC   GL237946   3.327   4.113   9.073
 2902POPC   C1A37947   3.534   4.459   8.730
 2902POPC   D2A37948   3.476   4.647   8.347
 2902POPC   C3A37949   3.639   4.402   8.032
 2902POPC   C4A37950   3.712   4.436   7.611
 2902POPC   C1B37951   3.476   3.918   8.651
 2902POPC   C2B37952   3.559   3.912   8.175
 2902POPC   C3B37953   3.800   3.943   7.754
 2902POPC   C4B37954   3.884   3.786   7.305
 2903POPC   NC337955  16.959  39.176   9.580
 2903POPC   PO437956  17.655  39.254   9.622
 2903POPC   GL137957  17.461  39.276   9.238
 2903POPC   GL237958  17.380  38.953   9.182
 2903POPC   C1A37959  17.444  39.242   8.769
 2903POPC   D2A37960  17.633  39.286   8.345
 2903POPC   C3A37961  17.423  39.305   7.971
 2903POPC   C4A37962  17.778  39.381   7.799
 2903POPC   C1B37963  17.189  38.787   8.772
 2903POPC   C2B37964  17.077  38.817   8.310
 2903POPC   C3B37965  17.159  38.894   7.852
 2903POPC   C4B37966  17.565  38.981   7.607
 2904POPC   NC337967  41.824  16.221   9.382
 2904POPC   PO437968  41.709  16.885   9.620
 2904POPC   GL137969  41.611  16.682   9.230
 2904POPC   GL237970  41.959  16.629   9.100
 2904POPC   C1A37971  41.579  16.768   8.772
 2904POPC   D2A37972  41.378  16.800   8.356
 2904POPC   C3A37973  41.631  16.868   8.005
 2904POPC   C4A37974  41.455  16.864   7.612
 2904POPC   C1B37975  41.916  16.363   8.754
 2904POPC   C2B37976  41.798  16.509   8.354
 2904POPC   C3B37977  41.492  16.369   8.050
 2904POPC   C4B37978  41.717  16.432   7.680
 2905POPC   NC337979  23.356  15.379   9.453
 2905POPC   PO437980  23.902  15.033   9.587
 2905POPC   GL137981  23.828  15.279   9.218
 2905POPC   GL237982  23.528  15.135   9.038
 2905POPC   C1A37983  23.909  15.375   8.792
 2905POPC   D2A37984  23.694  15.194   8.458
 2905POPC   C3A37985  23.790  15.300   8.082
 2905POPC   C4A37986  23.749  15.268   7.672
 2905POPC   C1B37987  23.407  15.495   8.766
 2905POPC   C2B37988  23.398  15.618   8.326
 2905POPC   C3B37989  23.318  15.500   7.907
 2905POPC   C4B37990  23.187  15.176   7.635
 2906POPC   NC337991  11.859   7.479   9.483
 2906POPC   PO437992  12.515   7.511   9.447
 2906POPC   GL137993  12.276   7.596   9.093
 2906POPC   GL237994  12.028   7.330   9.033
 2906POPC   C1A37995  12.284   7.482   8.649
 2906POPC   D2A37996  12.023   7.552   8.326
 2906POPC   C3A37997  12.124   7.395   7.972
 2906POPC   C4A37998  12.069   7.691   7.683
 2906POPC   C1B37999  11.802   7.209   8.636
 2906POPC   C2B38000  11.608   6.999   8.281
 2906POPC   C3B38001  11.830   6.900   7.881
 2906POPC   C4B38002  12.027   7.172   7.536
 2907POPC   NC338003  25.141  16.761   9.499
 2907POPC   PO438004  25.601  17.119   9.479
 2907POPC   GL138005  25.206  17.105   9.125
 2907POPC   GL238006  25.061  16.711   9.010
 2907POPC   C1A38007  24.933  17.087   8.723
 2907POPC   D2A38008  25.023  16.734   8.424
 2907POPC   C3A38009  25.235  16.817   8.020
 2907POPC   C4A38010  25.129  16.763   7.573
 2907POPC   C1B38011  25.315  16.424   8.720
 2907POPC   C2B38012  25.277  16.252   8.282
 2907POPC   C3B38013  25.167  16.320   7.833
 2907POPC   C4B38014  25.371  16.336   7.403
 2908POPC   NC338015  34.713  27.424   9.757
 2908POPC   PO438016  34.248  27.836   9.448
 2908POPC   GL138017  34.368  27.557   9.142
 2908POPC   GL238018  34.228  27.244   9.279
 2908POPC   C1A38019  34.527  27.578   8.701
 2908POPC   D2A38020  34.514  27.842   8.320
 2908POPC   C3A38021  34.699  27.740   7.946
 2908POPC   C4A38022  34.847  27.630   7.531
 2908POPC   C1B38023  34.143  27.230   8.828
 2908POPC   C2B38024  34.320  27.131   8.424
 2908POPC   C3B38025  34.191  27.258   8.003
 2908POPC   C4B38026  34.311  27.529   7.645
 2909POPC   NC338027  38.590  24.142   9.885
 2909POPC   PO438028  38.359  24.730   9.493
 2909POPC   GL138029  38.244  24.619   9.060
 2909POPC   GL238030  37.951  24.780   9.130
 2909POPC   C1A38031  38.216  24.323   8.721
 2909POPC   D2A38032  38.480  24.139   8.409
 2909POPC   C3A38033  38.569  24.383   8.050
 2909POPC   C4A38034  38.228  24.411   7.763
 2909POPC   C1B38035  38.098  24.964   8.716
 2909POPC   C2B38036  38.238  24.716   8.338
 2909POPC   C3B38037  38.310  24.877   7.907
 2909POPC   C4B38038  38.323  24.910   7.433
 2910POPC   NC338039   7.505  30.450   9.384
 2910POPC   PO438040   7.216  31.070   9.586
 2910POPC   GL138041   7.231  30.855   9.189
 2910POPC   GL238042   7.565  30.830   9.008
 2910POPC   C1A38043   7.117  30.688   8.778
 2910POPC   D2A38044   7.235  30.882   8.399
 2910POPC   C3A38045   7.161  30.644   8.049
 2910POPC   C4A38046   7.306  30.842   7.691
 2910POPC   C1B38047   7.581  30.561   8.607
 2910POPC   C2B38048   7.677  30.634   8.158
 2910POPC   C3B38049   7.871  30.580   7.767
 2910POPC   C4B38050   7.877  30.205   7.493
 2911POPC   NC338051   7.992   3.251   9.357
 2911POPC   PO438052   8.424   2.676   9.535
 2911POPC   GL138053   8.296   2.836   9.152
 2911POPC   GL238054   8.497   3.108   9.198
 2911POPC   C1A38055   7.995   2.746   8.816
 2911POPC   D2A38056   7.932   2.538   8.418
 2911POPC   C3A38057   7.944   2.757   8.032
 2911POPC   C4A38058   8.249   2.772   7.693
 2911POPC   C1B38059   8.469   3.147   8.764
 2911POPC   C2B38060   8.245   2.956   8.423
 2911POPC   C3B38061   8.425   2.681   8.158
 2911POPC   C4B38062   8.730   2.936   7.874
 2912POPC   NC338063  14.859  12.666   9.524
 2912POPC   PO438064  15.489  12.877   9.570
 2912POPC   GL138065  15.352  12.954   9.156
 2912POPC   GL238066  15.002  12.943   9.125
 2912POPC   C1A38067  15.352  12.828   8.732
 2912POPC   D2A38068  15.398  12.630   8.346
 2912POPC   C3A38069  15.468  12.928   8.012
 2912POPC   C4A38070  15.415  12.683   7.652
 2912POPC   C1B38071  14.889  13.080   8.721
 2912POPC   C2B38072  15.046  13.004   8.320
 2912POPC   C3B38073  14.987  12.866   7.901
 2912POPC   C4B38074  14.814  13.098   7.642
 2913POPC   NC338075  22.323  29.218  10.000
 2913POPC   PO438076  22.297  29.036   9.403
 2913POPC   GL138077  22.093  29.035   9.037
 2913POPC   GL238078  21.865  29.336   9.093
 2913POPC   C1A38079  21.891  28.988   8.647
 2913POPC   D2A38080  21.841  28.761   8.277
 2913POPC   C3A38081  22.061  28.958   7.974
 2913POPC   C4A38082  22.286  28.911   7.647
 2913POPC   C1B38083  22.093  29.455   8.717
 2913POPC   C2B38084  21.952  29.365   8.265
 2913POPC   C3B38085  22.036  29.455   7.796
 2913POPC   C4B38086  22.041  29.555   7.325
 2914POPC   NC338087   0.701   9.270   9.263
 2914POPC   PO438088   0.098   8.928   9.536
 2914POPC   GL138089   0.271   9.017   9.165
 2914POPC   GL238090   0.518   8.763   9.132
 2914POPC   C1A38091   0.387   9.068   8.736
 2914POPC   D2A38092   0.268   8.911   8.375
 2914POPC   C3A38093   0.579   9.063   8.141
 2914POPC   C4A38094   0.487   9.162   7.758
 2914POPC   C1B38095   0.532   8.578   8.715
 2914POPC   C2B38096   0.693   8.553   8.271
 2914POPC   C3B38097   0.532   8.606   7.828
 2914POPC   C4B38098   0.165   8.802   7.585
 2915POPC   NC338099   5.287  14.912   9.648
 2915POPC   PO438100   4.868  15.384   9.489
 2915POPC   GL138101   5.130  15.281   9.162
 2915POPC   GL238102   5.023  14.949   9.204
 2915POPC   C1A38103   5.036  15.201   8.720
 2915POPC   D2A38104   4.777  15.087   8.338
 2915POPC   C3A38105   5.011  15.195   7.966
 2915POPC   C4A38106   5.330  15.507   7.909
 2915POPC   C1B38107   5.261  14.758   8.895
 2915POPC   C2B38108   5.268  14.845   8.455
 2915POPC   C3B38109   5.467  14.655   8.146
 2915POPC   C4B38110   5.356  14.729   7.767
 2916POPC   NC338111  10.493  40.002   9.544
 2916POPC   PO438112  10.185  40.625   9.337
 2916POPC   GL138113  10.596  40.354   9.170
 2916POPC   GL238114  10.766  39.955   9.145
 2916POPC   C1A38115  10.819  40.280   8.770
 2916POPC   D2A38116  10.652  40.144   8.397
 2916POPC   C3A38117  10.701  40.299   8.029
 2916POPC   C4A38118  10.615  40.130   7.661
 2916POPC   C1B38119  10.683  39.777   8.778
 2916POPC   C2B38120  10.399  39.719   8.469
 2916POPC   C3B38121  10.603  39.645   8.082
 2916POPC   C4B38122  10.371  39.525   7.743
 2917POPC   NC338123  24.340  43.348   9.294
 2917POPC   PO438124  24.334  42.708   9.351
 2917POPC   GL138125  24.235  42.941   9.003
 2917POPC   GL238126  24.583  43.001   8.910
 2917POPC   C1A38127  24.157  43.132   8.613
 2917POPC   D2A38128  24.477  43.093   8.310
 2917POPC   C3A38129  24.330  43.110   7.905
 2917POPC   C4A38130  24.466  43.246   7.511
 2917POPC   C1B38131  24.806  43.318   8.634
 2917POPC   C2B38132  24.766  43.533   8.214
 2917POPC   C3B38133  24.865  43.507   7.762
 2917POPC   C4B38134  24.975  43.272   7.406
 2918POPC   NC338135  27.628  31.191   9.450
 2918POPC   PO438136  27.288  31.731   9.535
 2918POPC   GL138137  27.629  31.653   9.175
 2918POPC   GL238138  27.940  31.856   9.136
 2918POPC   C1A38139  27.790  31.448   8.811
 2918POPC   D2A38140  27.717  31.649   8.408
 2918POPC   C3A38141  27.368  31.626   8.134
 2918POPC   C4A38142  27.453  31.414   7.775
 2918POPC   C1B38143  28.095  31.892   8.718
 2918POPC   C2B38144  28.160  31.810   8.245
 2918POPC   C3B38145  27.932  31.596   7.885
 2918POPC   C4B38146  27.727  31.776   7.490
 2919POPC   NC338147  17.791   8.828   9.487
 2919POPC   PO438148  17.163   8.508   9.496
 2919POPC   GL138149  17.411   8.679   9.115
 2919POPC   GL238150  17.800   8.679   8.987
 2919POPC   C1A38151  17.440   8.827   8.687
 2919POPC   D2A38152  17.724   8.621   8.423
 2919POPC   C3A38153  17.604   8.787   8.034
 2919POPC   C4A38154  17.355   8.993   7.749
 2919POPC   C1B38155  17.955   9.023   8.779
 2919POPC   C2B38156  17.802   9.176   8.420
 2919POPC   C3B38157  17.949   9.165   8.017
 2919POPC   C4B38158  17.751   9.281   7.647
 2920POPC   NC338159  19.131   4.313   9.525
 2920POPC   PO438160  19.593   4.795   9.398
 2920POPC   GL138161  19.301   4.600   9.067
 2920POPC   GL238162  18.933   4.525   9.087
 2920POPC   C1A38163  19.185   4.378   8.636
 2920POPC   D2A38164  18.918   4.011   8.455
 2920POPC   C3A38165  18.755   3.991   8.077
 2920POPC   C4A38166  18.962   4.167   7.780
 2920POPC   C1B38167  18.704   4.540   8.670
 2920POPC   C2B38168  18.848   4.491   8.219
 2920POPC   C3B38169  18.987   4.685   7.814
 2920POPC   C4B38170  18.759   4.702   7.365
 2921POPC   NC338171   1.590   8.326   9.501
 2921POPC   PO438172   2.186   7.927   9.549
 2921POPC   GL138173   2.105   8.094   9.138
 2921POPC   GL238174   2.006   8.418   9.201
 2921POPC   C1A38175   1.988   8.003   8.699
 2921POPC   D2A38176   1.651   8.026   8.402
 2921POPC   C3A38177   1.862   8.060   7.990
 2921POPC   C4A38178   1.918   8.366   7.676
 2921POPC   C1B38179   1.878   8.546   8.788
 2921POPC   C2B38180   1.964   8.442   8.373
 2921POPC   C3B38181   2.260   8.613   8.059
 2921POPC   C4B38182   2.428   8.455   7.688
 2922POPC   NC338183   0.901  33.331   9.853
 2922POPC   PO438184   0.461  32.953   9.445
 2922POPC   GL138185   0.533  32.996   9.028
 2922POPC   GL238186   0.714  32.703   8.966
 2922POPC   C1A38187   0.332  33.223   8.705
 2922POPC   D2A38188   0.397  33.503   8.347
 2922POPC   C3A38189   0.507  33.366   7.967
 2922POPC   C4A38190   0.239  33.393   7.637
 2922POPC   C1B38191   0.674  32.766   8.563
 2922POPC   C2B38192   0.457  32.976   8.272
 2922POPC   C3B38193   0.309  32.862   7.860
 2922POPC   C4B38194   0.243  32.886   7.414
 2923POPC   NC338195  27.161  24.222   9.673
 2923POPC   PO438196  27.793  24.489   9.745
 2923POPC   GL138197  27.546  24.400   9.373
 2923POPC   GL238198  27.818  24.434   9.155
 2923POPC   C1A38199  27.352  24.343   8.937
 2923POPC   D2A38200  27.486  24.229   8.506
 2923POPC   C3A38201  27.586  24.515   8.178
 2923POPC   C4A38202  27.689  24.581   7.747
 2923POPC   C1B38203  27.999  24.530   8.774
 2923POPC   C2B38204  28.024  24.330   8.380
 2923POPC   C3B38205  28.104  24.456   7.965
 2923POPC   C4B38206  28.093  24.513   7.453
 2924POPC   NC338207  28.301  11.699   9.594
 2924POPC   PO438208  28.726  12.181   9.503
 2924POPC   GL138209  28.610  11.906   9.152
 2924POPC   GL238210  28.256  11.924   9.142
 2924POPC   C1A38211  28.587  12.034   8.715
 2924POPC   D2A38212  28.377  12.039   8.319
 2924POPC   C3A38213  28.550  12.164   7.908
 2924POPC   C4A38214  28.643  12.118   7.429
 2924POPC   C1B38215  28.078  11.909   8.746
 2924POPC   C2B38216  27.880  11.899   8.366
 2924POPC   C3B38217  28.001  11.954   7.968
 2924POPC   C4B38218  28.213  11.933   7.612
 2925POPC   NC338219  23.011  10.223   9.619
 2925POPC   PO438220  23.355  10.784   9.570
 2925POPC   GL138221  22.960  10.639   9.297
 2925POPC   GL238222  22.858  10.273   9.145
 2925POPC   C1A38223  22.789  10.717   8.868
 2925POPC   D2A38224  22.576  10.944   8.524
 2925POPC   C3A38225  22.699  10.884   8.084
 2925POPC   C4A38226  23.055  10.833   7.827
 2925POPC   C1B38227  22.920  10.200   8.707
 2925POPC   C2B38228  23.004  10.489   8.368
 2925POPC   C3B38229  23.021  10.349   7.929
 2925POPC   C4B38230  22.694  10.104   7.828
 2926POPC   NC338231  23.796  12.750   9.835
 2926POPC   PO438232  23.761  13.211   9.283
 2926POPC   GL138233  23.773  12.856   9.026
 2926POPC   GL238234  23.424  12.816   8.884
 2926POPC   C1A38235  23.807  12.858   8.574
 2926POPC   D2A38236  23.406  12.923   8.363
 2926POPC   C3A38237  23.435  12.685   8.044
 2926POPC   C4A38238  23.751  12.623   7.790
 2926POPC   C1B38239  23.501  13.279   8.704
 2926POPC   C2B38240  23.571  13.411   8.270
 2926POPC   C3B38241  23.675  13.164   7.922
 2926POPC   C4B38242  23.422  12.979   7.627
 2927POPC   NC338243  38.032  37.125   9.409
 2927POPC   PO438244  37.379  37.246   9.543
 2927POPC   GL138245  37.579  37.015   9.189
 2927POPC   GL238246  37.658  36.654   9.253
 2927POPC   C1A38247  37.860  37.014   8.815
 2927POPC   D2A38248  37.669  36.972   8.458
 2927POPC   C3A38249  37.870  37.062   8.080
 2927POPC   C4A38250  37.592  37.061   7.693
 2927POPC   C1B38251  37.692  36.543   8.813
 2927POPC   C2B38252  37.638  36.465   8.391
 2927POPC   C3B38253  37.537  36.665   8.051
 2927POPC   C4B38254  37.446  36.486   7.688
 2928POPC   NC338255  31.981   7.954   9.237
 2928POPC   PO438256  32.164   8.479   9.420
 2928POPC   GL138257  32.239   8.379   9.012
 2928POPC   GL238258  31.901   8.357   8.899
 2928POPC   C1A38259  32.325   8.312   8.567
 2928POPC   D2A38260  32.582   8.172   8.232
 2928POPC   C3A38261  32.525   8.355   7.816
 2928POPC   C4A38262  32.207   8.440   7.495
 2928POPC   C1B38263  31.946   7.978   8.609
 2928POPC   C2B38264  32.111   7.950   8.198
 2928POPC   C3B38265  32.096   8.014   7.776
 2928POPC   C4B38266  32.108   7.900   7.365
 2929POPC   NC338267  36.103  25.499   9.345
 2929POPC   PO438268  36.053  26.169   9.490
 2929POPC   GL138269  36.205  25.952   9.157
 2929POPC   GL238270  35.878  25.848   9.053
 2929POPC   C1A38271  36.392  25.995   8.782
 2929POPC   D2A38272  36.330  26.356   8.479
 2929POPC   C3A38273  36.126  26.290   8.064
 2929POPC   C4A38274  36.329  26.080   7.718
 2929POPC   C1B38275  35.869  26.039   8.650
 2929POPC   C2B38276  36.159  25.833   8.366
 2929POPC   C3B38277  36.228  25.678   7.979
 2929POPC   C4B38278  35.891  25.805   7.660
 2930POPC   NC338279   7.353  35.808   9.538
 2930POPC   PO438280   7.755  36.353   9.760
 2930POPC   GL138281   7.718  36.153   9.306
 2930POPC   GL238282   7.494  36.389   9.194
 2930POPC   C1A38283   7.541  36.035   8.825
 2930POPC   D2A38284   7.662  35.948   8.347
 2930POPC   C3A38285   7.567  35.972   7.885
 2930POPC   C4A38286   7.190  35.945   7.566
 2930POPC   C1B38287   7.345  36.603   8.837
 2930POPC   C2B38288   7.202  36.449   8.457
 2930POPC   C3B38289   7.423  36.426   8.081
 2930POPC   C4B38290   7.397  36.407   7.658
 2931POPC   NC338291  39.270  18.724   9.293
 2931POPC   PO438292  38.973  19.262   9.534
 2931POPC   GL138293  39.003  19.146   9.127
 2931POPC   GL238294  38.829  18.839   9.073
 2931POPC   C1A38295  39.263  19.266   8.763
 2931POPC   D2A38296  39.579  19.251   8.416
 2931POPC   C3A38297  39.362  19.261   8.006
 2931POPC   C4A38298  38.913  19.317   7.856
 2931POPC   C1B38299  39.058  18.780   8.672
 2931POPC   C2B38300  39.349  18.810   8.325
 2931POPC   C3B38301  39.497  18.681   7.931
 2931POPC   C4B38302  39.189  18.863   7.749
 2932POPC   NC338303  21.643   9.430   9.754
 2932POPC   PO438304  21.583   8.784   9.447
 2932POPC   GL138305  21.346   8.903   9.097
 2932POPC   GL238306  21.317   9.277   9.112
 2932POPC   C1A38307  21.382   8.968   8.665
 2932POPC   D2A38308  21.051   9.163   8.387
 2932POPC   C3A38309  21.085   9.080   7.930
 2932POPC   C4A38310  21.397   9.022   7.603
 2932POPC   C1B38311  21.489   9.451   8.739
 2932POPC   C2B38312  21.657   9.313   8.352
 2932POPC   C3B38313  21.509   9.398   7.961
 2932POPC   C4B38314  21.660   9.460   7.545
 2933POPC   NC338315   1.616  42.817   9.607
 2933POPC   PO438316   1.174  42.251   9.485
 2933POPC   GL138317   1.237  42.307   9.068
 2933POPC   GL238318   1.479  42.558   9.157
 2933POPC   C1A38319   1.182  42.108   8.674
 2933POPC   D2A38320   0.893  42.274   8.352
 2933POPC   C3A38321   1.068  42.383   7.922
 2933POPC   C4A38322   1.170  42.222   7.493
 2933POPC   C1B38323   1.553  42.506   8.718
 2933POPC   C2B38324   1.380  42.441   8.322
 2933POPC   C3B38325   1.492  42.660   7.938
 2933POPC   C4B38326   1.627  42.522   7.531
 2934POPC   NC338327   8.953  19.886   9.685
 2934POPC   PO438328   8.708  20.346   9.309
 2934POPC   GL138329   8.854  19.993   9.088
 2934POPC   GL238330   9.188  19.997   9.202
 2934POPC   C1A38331   8.821  19.664   8.740
 2934POPC   D2A38332   9.039  19.603   8.318
 2934POPC   C3A38333   8.844  19.658   7.920
 2934POPC   C4A38334   8.690  20.035   7.855
 2934POPC   C1B38335   9.277  19.884   8.782
 2934POPC   C2B38336   9.485  19.974   8.403
 2934POPC   C3B38337   9.301  19.927   8.027
 2934POPC   C4B38338   9.351  19.588   7.737
 2935POPC   NC338339  43.436  20.089  10.016
 2935POPC   PO438340  43.061  19.741   9.564
 2935POPC   GL138341  43.136  20.060   9.214
 2935POPC   GL238342  43.397  19.960   8.954
 2935POPC   C1A38343  42.924  20.080   8.809
 2935POPC   D2A38344  42.913  19.813   8.444
 2935POPC   C3A38345  43.110  19.998   8.065
 2935POPC   C4A38346  43.095  20.096   7.661
 2935POPC   C1B38347  43.261  19.539   8.864
 2935POPC   C2B38348  43.126  19.344   8.498
 2935POPC   C3B38349  43.114  19.472   8.079
 2935POPC   C4B38350  43.181  19.477   7.655
 2936POPC   NC338351  27.095  29.640   9.524
 2936POPC   PO438352  26.620  30.276   9.553
 2936POPC   GL138353  26.797  30.146   9.154
 2936POPC   GL238354  26.884  29.784   9.088
 2936POPC   C1A38355  26.847  30.282   8.762
 2936POPC   D2A38356  26.994  30.209   8.376
 2936POPC   C3A38357  26.772  30.160   8.043
 2936POPC   C4A38358  26.954  30.246   7.698
 2936POPC   C1B38359  26.986  29.788   8.674
 2936POPC   C2B38360  26.789  29.688   8.257
 2936POPC   C3B38361  26.815  29.705   7.795
 2936POPC   C4B38362  27.131  29.552   7.475
 2937POPC   NC338363   1.411  36.952   9.524
 2937POPC   PO438364   0.776  36.964   9.337
 2937POPC   GL138365   1.139  37.087   9.103
 2937POPC   GL238366   1.297  36.730   9.074
 2937POPC   C1A38367   1.061  37.337   8.735
 2937POPC   D2A38368   1.007  37.341   8.288
 2937POPC   C3A38369   1.388  37.210   8.099
 2937POPC   C4A38370   1.545  36.982   7.764
 2937POPC   C1B38371   1.292  36.845   8.638
 2937POPC   C2B38372   1.365  36.709   8.214
 2937POPC   C3B38373   1.096  36.795   7.864
 2937POPC   C4B38374   1.160  36.576   7.491
 2938POPC   NC338375  34.861  26.540   9.777
 2938POPC   PO438376  35.386  26.913   9.445
 2938POPC   GL138377  35.474  26.814   9.069
 2938POPC   GL238378  35.607  26.487   9.208
 2938POPC   C1A38379  35.258  26.903   8.712
 2938POPC   D2A38380  35.359  26.780   8.341
 2938POPC   C3A38381  35.151  26.952   8.005
 2938POPC   C4A38382  35.509  27.117   7.813
 2938POPC   C1B38383  35.449  26.412   8.767
 2938POPC   C2B38384  35.394  26.267   8.379
 2938POPC   C3B38385  35.422  26.416   7.978
 2938POPC   C4B38386  35.619  26.270   7.625
 2939POPC   NC338387   6.504   9.690   9.566
 2939POPC   PO438388   7.023   9.976   9.494
 2939POPC   GL138389   6.789   9.744   9.153
 2939POPC   GL238390   6.943   9.458   9.260
 2939POPC   C1A38391   6.619   9.582   8.743
 2939POPC   D2A38392   6.670   9.817   8.338
 2939POPC   C3A38393   6.554   9.768   7.882
 2939POPC   C4A38394   6.555   9.785   7.406
 2939POPC   C1B38395   7.102   9.392   8.840
 2939POPC   C2B38396   7.081   9.519   8.412
 2939POPC   C3B38397   7.066   9.351   8.047
 2939POPC   C4B38398   6.940   9.534   7.672
 2940POPC   NC338399  26.478  44.916   9.395
 2940POPC   PO438400  25.821  44.753   9.570
 2940POPC   GL138401  26.006  44.785   9.184
 2940POPC   GL238402  25.959  44.456   9.100
 2940POPC   C1A38403  26.103  44.769   8.732
 2940POPC   D2A38404  26.106  44.495   8.373
 2940POPC   C3A38405  26.300  44.730   8.038
 2940POPC   C4A38406  26.265   0.040   7.693
 2940POPC   C1B38407  25.700  44.426   8.718
 2940POPC   C2B38408  25.607  44.552   8.300
 2940POPC   C3B38409  25.814  44.623   7.942
 2940POPC   C4B38410  25.762  44.836   7.580
 2941POPC   NC338411   8.468  42.865   9.629
 2941POPC   PO438412   7.850  42.677   9.449
 2941POPC   GL138413   8.152  42.885   9.144
 2941POPC   GL238414   8.542  42.948   9.130
 2941POPC   C1A38415   8.045  42.976   8.703
 2941POPC   D2A38416   7.947  43.201   8.324
 2941POPC   C3A38417   7.987  42.991   7.926
 2941POPC   C4A38418   8.057  43.134   7.466
 2941POPC   C1B38419   8.545  43.070   8.691
 2941POPC   C2B38420   8.455  42.996   8.229
 2941POPC   C3B38421   8.445  43.167   7.787
 2941POPC   C4B38422   8.523  43.337   7.323
 2942POPC   NC338423  43.713  42.080   9.400
 2942POPC   PO438424  44.219  42.555   9.300
 2942POPC   GL138425  43.844  42.605   9.048
 2942POPC   GL238426  43.623  42.315   8.965
 2942POPC   C1A38427  43.955  42.489   8.623
 2942POPC   D2A38428  44.117  42.229   8.296
 2942POPC   C3A38429  43.920  42.377   7.942
 2942POPC   C4A38430  43.867  42.547   7.550
 2942POPC   C1B38431  43.873  41.979   8.717
 2942POPC   C2B38432  43.894  41.769   8.286
 2942POPC   C3B38433  43.893  41.888   7.840
 2942POPC   C4B38434  43.889  41.810   7.401
 2943POPC   NC338435  21.999  35.644   9.628
 2943POPC   PO438436  22.003  34.945   9.575
 2943POPC   GL138437  22.094  35.275   9.227
 2943POPC   GL238438  21.940  35.598   9.124
 2943POPC   C1A38439  22.336  35.408   8.848
 2943POPC   D2A38440  22.350  35.272   8.420
 2943POPC   C3A38441  22.420  35.508   8.037
 2943POPC   C4A38442  22.415  35.365   7.626
 2943POPC   C1B38443  21.838  35.492   8.719
 2943POPC   C2B38444  21.815  35.292   8.340
 2943POPC   C3B38445  22.010  35.191   7.985
 2943POPC   C4B38446  21.936  35.476   7.654
 2944POPC   NC338447  12.535  10.656   9.389
 2944POPC   PO438448  13.177  10.777   9.345
 2944POPC   GL138449  13.034  10.420   9.105
 2944POPC   GL238450  13.361  10.442   8.954
 2944POPC   C1A38451  12.705  10.363   8.771
 2944POPC   D2A38452  12.585  10.217   8.346
 2944POPC   C3A38453  12.587  10.533   8.029
 2944POPC   C4A38454  12.940  10.666   7.763
 2944POPC   C1B38455  13.185  10.253   8.616
 2944POPC   C2B38456  13.060  10.407   8.223
 2944POPC   C3B38457  12.968  10.169   7.851
 2944POPC   C4B38458  13.207  10.250   7.477
 2945POPC   NC338459  35.165  31.573   9.632
 2945POPC   PO438460  35.567  31.127   9.349
 2945POPC   GL138461  35.332  31.458   9.165
 2945POPC   GL238462  34.955  31.460   9.177
 2945POPC   C1A38463  35.394  31.618   8.784
 2945POPC   D2A38464  35.630  31.595   8.424
 2945POPC   C3A38465  35.464  31.601   8.041
 2945POPC   C4A38466  35.528  31.269   7.754
 2945POPC   C1B38467  35.049  31.222   8.797
 2945POPC   C2B38468  35.292  31.210   8.420
 2945POPC   C3B38469  35.106  31.228   8.020
 2945POPC   C4B38470  35.022  31.079   7.593
 2946POPC   NC338471   0.997  10.225   9.250
 2946POPC   PO438472   1.397  10.712   9.563
 2946POPC   GL138473   1.397  10.551   9.196
 2946POPC   GL238474   1.550  10.231   9.296
 2946POPC   C1A38475   1.209  10.707   8.800
 2946POPC   D2A38476   1.008  10.740   8.396
 2946POPC   C3A38477   1.327  10.720   8.102
 2946POPC   C4A38478   1.476  10.640   7.722
 2946POPC   C1B38479   1.536  10.209   8.848
 2946POPC   C2B38480   1.285  10.305   8.466
 2946POPC   C3B38481   1.334  10.221   8.016
 2946POPC   C4B38482   1.314   9.966   7.665
 2947POPC   NC338483  14.778  14.232   9.487
 2947POPC   PO438484  14.244  14.679   9.513
 2947POPC   GL138485  14.440  14.466   9.168
 2947POPC   GL238486  14.127  14.328   9.091
 2947POPC   C1A38487  14.724  14.482   8.799
 2947POPC   D2A38488  14.774  14.436   8.331
 2947POPC   C3A38489  14.352  14.491   8.113
 2947POPC   C4A38490  14.177  14.451   7.699
 2947POPC   C1B38491  14.281  14.182   8.746
 2947POPC   C2B38492  14.029  14.205   8.413
 2947POPC   C3B38493  14.141  14.013   8.069
 2947POPC   C4B38494  14.466  14.046   7.796
 2948POPC   NC338495  41.818   4.021   9.076
 2948POPC   PO438496  41.491   4.506   9.417
 2948POPC   GL138497  41.544   4.467   9.004
 2948POPC   GL238498  41.911   4.558   9.015
 2948POPC   C1A38499  41.349   4.369   8.609
 2948POPC   D2A38500  41.119   4.467   8.268
 2948POPC   C3A38501  41.392   4.373   7.973
 2948POPC   C4A38502  41.366   4.177   7.597
 2948POPC   C1B38503  41.846   4.446   8.565
 2948POPC   C2B38504  41.698   4.063   8.342
 2948POPC   C3B38505  41.779   4.055   7.913
 2948POPC   C4B38506  41.815   4.424   7.610
 2949POPC   NC338507  38.157  32.020   9.572
 2949POPC   PO438508  38.245  32.713   9.569
 2949POPC   GL138509  38.132  32.390   9.205
 2949POPC   GL238510  38.410  32.085   9.144
 2949POPC   C1A38511  38.199  32.305   8.759
 2949POPC   D2A38512  38.613  32.105   8.615
 2949POPC   C3A38513  38.685  32.116   8.194
 2949POPC   C4A38514  38.453  32.375   7.908
 2949POPC   C1B38515  38.242  31.803   8.795
 2949POPC   C2B38516  38.343  31.680   8.394
 2949POPC   C3B38517  38.274  31.894   8.003
 2949POPC   C4B38518  38.128  32.056   7.607
 2950POPC   NC338519  18.245   8.346   9.488
 2950POPC   PO438520  18.520   7.804   9.532
 2950POPC   GL138521  18.389   7.966   9.096
 2950POPC   GL238522  18.150   8.257   9.010
 2950POPC   C1A38523  18.440   8.036   8.607
 2950POPC   D2A38524  18.496   8.422   8.336
 2950POPC   C3A38525  18.544   8.456   7.877
 2950POPC   C4A38526  18.508   8.320   7.450
 2950POPC   C1B38527  17.969   7.928   8.819
 2950POPC   C2B38528  17.915   8.019   8.425
 2950POPC   C3B38529  18.198   8.052   8.109
 2950POPC   C4B38530  18.105   8.147   7.719
 2951POPC   NC338531  13.599  26.444   9.762
 2951POPC   PO438532  13.214  25.970   9.479
 2951POPC   GL138533  13.399  25.801   9.086
 2951POPC   GL238534  13.592  26.001   8.944
 2951POPC   C1A38535  13.444  25.582   8.679
 2951POPC   D2A38536  13.634  25.416   8.342
 2951POPC   C3A38537  13.652  25.735   8.060
 2951POPC   C4A38538  13.641  25.743   7.643
 2951POPC   C1B38539  13.719  25.989   8.524
 2951POPC   C2B38540  13.920  26.153   8.185
 2951POPC   C3B38541  13.705  26.204   7.804
 2951POPC   C4B38542  13.775  26.158   7.349
 2952POPC   NC338543  10.889  39.086   9.610
 2952POPC   PO438544  11.609  39.265   9.581
 2952POPC   GL138545  11.510  39.133   9.175
 2952POPC   GL238546  11.170  39.132   9.167
 2952POPC   C1A38547  11.544  39.271   8.756
 2952POPC   D2A38548  11.451  39.562   8.443
 2952POPC   C3A38549  11.637  39.470   8.064
 2952POPC   C4A38550  11.478  39.289   7.719
 2952POPC   C1B38551  11.052  39.397   8.808
 2952POPC   C2B38552  10.918  39.311   8.404
 2952POPC   C3B38553  11.081  39.407   8.010
 2952POPC   C4B38554  10.873  39.535   7.648
 2953POPC   NC338555  12.420  44.690   9.495
 2953POPC   PO438556  11.863  44.459   9.683
 2953POPC   GL138557  11.935  44.490   9.195
 2953POPC   GL238558  12.247  44.657   9.031
 2953POPC   C1A38559  11.917  44.473   8.701
 2953POPC   D2A38560  12.204  44.626   8.351
 2953POPC   C3A38561  12.103  44.461   7.929
 2953POPC   C4A38562  11.694  44.534   7.752
 2953POPC   C1B38563  12.171   0.009   8.754
 2953POPC   C2B38564  12.004   0.156   8.374
 2953POPC   C3B38565  12.105   0.039   7.958
 2953POPC   C4B38566  12.205  44.844   7.553
 2954POPC   NC338567  32.061  24.793   9.575
 2954POPC   PO438568  32.456  24.204   9.450
 2954POPC   GL138569  32.357  24.351   9.073
 2954POPC   GL238570  32.217  24.687   9.117
 2954POPC   C1A38571  32.533  24.607   8.742
 2954POPC   D2A38572  32.608  24.664   8.321
 2954POPC   C3A38573  32.561  24.270   8.074
 2954POPC   C4A38574  32.411  24.377   7.650
 2954POPC   C1B38575  31.963  24.542   8.782
 2954POPC   C2B38576  31.887  24.683   8.355
 2954POPC   C3B38577  32.031  24.587   7.937
 2954POPC   C4B38578  32.052  24.725   7.509
 2955POPC   NC338579  24.480  16.848   9.507
 2955POPC   PO438580  24.915  16.362   9.430
 2955POPC   GL138581  24.577  16.491   9.105
 2955POPC   GL238582  24.262  16.731   9.068
 2955POPC   C1A38583  24.593  16.696   8.701
 2955POPC   D2A38584  24.537  16.949   8.354
 2955POPC   C3A38585  24.725  16.771   8.007
 2955POPC   C4A38586  24.836  17.118   7.841
 2955POPC   C1B38587  24.091  16.586   8.722
 2955POPC   C2B38588  24.263  16.531   8.309
 2955POPC   C3B38589  24.235  16.787   7.925
 2955POPC   C4B38590  24.097  16.423   7.735
 2956POPC   NC338591   6.395  41.041   9.510
 2956POPC   PO438592   6.896  40.572   9.553
 2956POPC   GL138593   6.740  40.670   9.159
 2956POPC   GL238594   7.030  40.472   9.052
 2956POPC   C1A38595   6.746  40.896   8.752
 2956POPC   D2A38596   6.440  40.962   8.404
 2956POPC   C3A38597   6.559  40.768   8.020
 2956POPC   C4A38598   6.761  41.015   7.724
 2956POPC   C1B38599   6.759  40.391   8.706
 2956POPC   C2B38600   6.911  40.313   8.320
 2956POPC   C3B38601   6.892  40.347   7.899
 2956POPC   C4B38602   7.028  40.611   7.590
 2957POPC   NC338603   6.221  25.795   9.434
 2957POPC   PO438604   5.951  26.460   9.329
 2957POPC   GL138605   5.771  26.141   9.077
 2957POPC   GL238606   5.749  25.796   9.203
 2957POPC   C1A38607   6.012  25.924   8.733
 2957POPC   D2A38608   6.033  25.941   8.284
 2957POPC   C3A38609   5.784  26.249   8.124
 2957POPC   C4A38610   5.886  26.277   7.737
 2957POPC   C1B38611   5.520  25.777   8.803
 2957POPC   C2B38612   5.394  25.908   8.384
 2957POPC   C3B38613   5.547  25.827   7.964
 2957POPC   C4B38614   5.429  25.948   7.558
 2958POPC   NC338615  35.688  20.825   9.486
 2958POPC   PO438616  35.089  20.510   9.393
 2958POPC   GL138617  35.171  20.675   9.038
 2958POPC   GL238618  35.519  20.661   9.051
 2958POPC   C1A38619  35.302  20.748   8.632
 2958POPC   D2A38620  35.409  20.540   8.300
 2958POPC   C3A38621  35.496  20.868   8.052
 2958POPC   C4A38622  35.524  20.721   7.650
 2958POPC   C1B38623  35.687  20.364   8.738
 2958POPC   C2B38624  35.813  20.168   8.414
 2958POPC   C3B38625  35.722  20.177   8.006
 2958POPC   C4B38626  35.772  20.265   7.588
 2959POPC   NC338627  30.921  31.499   9.511
 2959POPC   PO438628  30.382  31.056   9.590
 2959POPC   GL138629  30.400  31.409   9.223
 2959POPC   GL238630  30.698  31.656   9.063
 2959POPC   C1A38631  30.428  31.388   8.757
 2959POPC   D2A38632  30.587  31.577   8.365
 2959POPC   C3A38633  30.597  31.387   7.959
 2959POPC   C4A38634  30.599  31.442   7.518
 2959POPC   C1B38635  30.972  31.468   8.703
 2959POPC   C2B38636  31.044  31.332   8.242
 2959POPC   C3B38637  31.058  31.408   7.782
 2959POPC   C4B38638  31.093  31.543   7.338
 2960POPC   NC338639  21.252  38.059   9.799
 2960POPC   PO438640  21.411  37.451   9.439
 2960POPC   GL138641  21.612  37.716   9.155
 2960POPC   GL238642  21.314  37.620   8.953
 2960POPC   C1A38643  21.632  37.972   8.766
 2960POPC   D2A38644  21.386  37.770   8.453
 2960POPC   C3A38645  21.489  37.795   8.062
 2960POPC   C4A38646  21.448  37.862   7.642
 2960POPC   C1B38647  21.183  37.331   8.638
 2960POPC   C2B38648  20.962  37.471   8.294
 2960POPC   C3B38649  21.052  37.611   7.896
 2960POPC   C4B38650  21.444  37.367   7.720
 2961POPC   NC338651  28.151   4.429   9.567
 2961POPC   PO438652  28.490   3.893   9.670
 2961POPC   GL138653  28.475   4.191   9.255
 2961POPC   GL238654  28.638   4.480   9.237
 2961POPC   C1A38655  28.248   4.438   8.878
 2961POPC   D2A38656  28.042   4.515   8.449
 2961POPC   C3A38657  28.166   4.176   8.198
 2961POPC   C4A38658  28.415   4.151   7.834
 2961POPC   C1B38659  28.711   4.681   8.863
 2961POPC   C2B38660  28.554   4.593   8.469
 2961POPC   C3B38661  28.393   4.714   8.098
 2961POPC   C4B38662  28.649   4.649   7.780
 2962POPC   NC338663  27.009  28.088   9.475
 2962POPC   PO438664  26.579  28.677   9.449
 2962POPC   GL138665  26.617  28.278   9.164
 2962POPC   GL238666  26.925  28.445   9.126
 2962POPC   C1A38667  26.825  28.054   8.770
 2962POPC   D2A38668  27.163  28.055   8.426
 2962POPC   C3A38669  27.131  28.203   7.985
 2962POPC   C4A38670  26.906  27.999   7.638
 2962POPC   C1B38671  26.653  28.546   8.738
 2962POPC   C2B38672  26.533  28.425   8.323
 2962POPC   C3B38673  26.602  28.325   7.894
 2962POPC   C4B38674  26.924  28.554   7.646
 2963POPC   NC338675  30.127  32.905   9.450
 2963POPC   PO438676  30.809  32.902   9.536
 2963POPC   GL138677  30.755  32.701   9.169
 2963POPC   GL238678  31.087  32.758   9.116
 2963POPC   C1A38679  30.639  32.933   8.801
 2963POPC   D2A38680  30.695  33.264   8.503
 2963POPC   C3A38681  30.635  33.061   8.129
 2963POPC   C4A38682  30.494  33.222   7.766
 2963POPC   C1B38683  31.051  32.602   8.752
 2963POPC   C2B38684  31.019  32.825   8.427
 2963POPC   C3B38685  31.002  32.683   8.055
 2963POPC   C4B38686  30.768  32.777   7.696
 2964POPC   NC338687  35.451  24.953   9.470
 2964POPC   PO438688  35.300  25.623   9.527
 2964POPC   GL138689  35.573  25.403   9.203
 2964POPC   GL238690  35.257  25.276   9.128
 2964POPC   C1A38691  35.578  25.165   8.757
 2964POPC   D2A38692  35.587  25.087   8.299
 2964POPC   C3A38693  35.336  25.324   7.991
 2964POPC   C4A38694  35.506  25.404   7.594
 2964POPC   C1B38695  35.066  25.050   8.792
 2964POPC   C2B38696  35.043  25.113   8.347
 2964POPC   C3B38697  35.138  24.862   7.959
 2964POPC   C4B38698  35.142  25.057   7.514
 2965POPC   NC338699  20.272   8.566   9.427
 2965POPC   PO438700  20.804   8.159   9.390
 2965POPC   GL138701  20.545   8.129   9.040
 2965POPC   GL238702  20.543   8.476   8.990
 2965POPC   C1A38703  20.651   7.951   8.638
 2965POPC   D2A38704  21.018   8.070   8.388
 2965POPC   C3A38705  20.866   8.254   8.018
 2965POPC   C4A38706  20.671   8.047   7.670
 2965POPC   C1B38707  20.305   8.325   8.635
 2965POPC   C2B38708  20.414   8.199   8.246
 2965POPC   C3B38709  20.357   8.455   7.897
 2965POPC   C4B38710  20.674   8.532   7.626
 2966POPC   NC338711  24.260   5.667   9.251
 2966POPC   PO438712  24.728   6.109   9.347
 2966POPC   GL138713  24.678   5.876   8.990
 2966POPC   GL238714  24.987   5.686   9.006
 2966POPC   C1A38715  24.445   5.853   8.590
 2966POPC   D2A38716  24.428   5.592   8.214
 2966POPC   C3A38717  24.348   5.889   7.917
 2966POPC   C4A38718  24.588   6.126   7.644
 2966POPC   C1B38719  24.975   5.832   8.571
 2966POPC   C2B38720  24.791   5.960   8.188
 2966POPC   C3B38721  24.906   5.762   7.801
 2966POPC   C4B38722  24.858   5.846   7.333
 2967POPC   NC338723  28.391  38.921   9.461
 2967POPC   PO438724  28.549  38.316   9.674
 2967POPC   GL138725  28.488  38.316   9.239
 2967POPC   GL238726  28.218  38.143   9.171
 2967POPC   C1A38727  28.488  38.508   8.822
 2967POPC   D2A38728  28.711  38.493   8.419
 2967POPC   C3A38729  28.506  38.410   8.022
 2967POPC   C4A38730  28.485  37.996   7.771
 2967POPC   C1B38731  28.027  38.312   8.845
 2967POPC   C2B38732  28.139  38.457   8.445
 2967POPC   C3B38733  27.977  38.304   8.085
 2967POPC   C4B38734  27.971  38.073   7.715
 2968POPC   NC338735  23.777  25.613   9.507
 2968POPC   PO438736  23.344  25.192   9.346
 2968POPC   GL138737  23.630  25.437   9.043
 2968POPC   GL238738  23.996  25.568   9.049
 2968POPC   C1A38739  23.697  25.445   8.601
 2968POPC   D2A38740  23.434  25.244   8.287
 2968POPC   C3A38741  23.629  25.327   7.900
 2968POPC   C4A38742  23.475  25.329   7.488
 2968POPC   C1B38743  24.081  25.790   8.666
 2968POPC   C2B38744  23.969  25.731   8.258
 2968POPC   C3B38745  24.057  25.683   7.835
 2968POPC   C4B38746  24.031  25.537   7.400
 2969POPC   NC338747   4.740  33.257   9.266
 2969POPC   PO438748   5.303  33.153   9.518
 2969POPC   GL138749   5.117  32.953   9.117
 2969POPC   GL238750   5.313  32.659   9.099
 2969POPC   C1A38751   4.960  33.083   8.669
 2969POPC   D2A38752   4.709  32.968   8.299
 2969POPC   C3A38753   4.904  33.121   7.938
 2969POPC   C4A38754   5.279  33.364   7.879
 2969POPC   C1B38755   5.430  32.839   8.680
 2969POPC   C2B38756   5.340  33.032   8.270
 2969POPC   C3B38757   5.329  32.822   7.849
 2969POPC   C4B38758   5.452  32.735   7.390
 2970POPC   NC338759   2.056  18.626   9.542
 2970POPC   PO438760   1.940  17.958   9.528
 2970POPC   GL138761   1.871  18.257   9.208
 2970POPC   GL238762   2.212  18.332   9.184
 2970POPC   C1A38763   1.785  18.343   8.768
 2970POPC   D2A38764   1.570  18.368   8.351
 2970POPC   C3A38765   1.854  18.234   8.057
 2970POPC   C4A38766   1.970  18.416   7.702
 2970POPC   C1B38767   2.268  18.177   8.831
 2970POPC   C2B38768   2.206  18.211   8.427
 2970POPC   C3B38769   2.358  18.433   8.078
 2970POPC   C4B38770   2.471  18.268   7.703
 2971POPC   NC338771   5.788   8.434   9.616
 2971POPC   PO438772   5.370   7.911   9.562
 2971POPC   GL138773   5.476   8.278   9.229
 2971POPC   GL238774   5.852   8.202   9.145
 2971POPC   C1A38775   5.594   8.395   8.771
 2971POPC   D2A38776   5.823   8.139   8.462
 2971POPC   C3A38777   5.917   8.306   8.069
 2971POPC   C4A38778   5.840   8.153   7.653
 2971POPC   C1B38779   6.179   8.310   8.784
 2971POPC   C2B38780   6.355   8.131   8.428
 2971POPC   C3B38781   6.359   7.910   8.072
 2971POPC   C4B38782   6.320   8.191   7.765
 2972POPC   NC338783   4.555  17.141   9.409
 2972POPC   PO438784   4.096  16.634   9.453
 2972POPC   GL138785   4.312  16.539   9.102
 2972POPC   GL238786   3.963  16.457   8.983
 2972POPC   C1A38787   4.487  16.546   8.708
 2972POPC   D2A38788   4.257  16.692   8.367
 2972POPC   C3A38789   4.434  16.739   7.993
 2972POPC   C4A38790   4.173  16.972   7.797
 2972POPC   C1B38791   4.138  16.171   8.702
 2972POPC   C2B38792   4.336  16.206   8.296
 2972POPC   C3B38793   4.240  16.283   7.852
 2972POPC   C4B38794   4.483  16.447   7.489
 2973POPC   NC338795  29.501  37.291   9.647
 2973POPC   PO438796  28.940  37.697   9.568
 2973POPC   GL138797  29.213  37.754   9.219
 2973POPC   GL238798  29.428  37.471   9.160
 2973POPC   C1A38799  29.145  37.770   8.777
 2973POPC   D2A38800  28.840  37.872   8.392
 2973POPC   C3A38801  28.989  37.797   7.976
 2973POPC   C4A38802  28.957  37.828   7.528
 2973POPC   C1B38803  29.588  37.500   8.742
 2973POPC   C2B38804  29.413  37.713   8.342
 2973POPC   C3B38805  29.395  37.482   7.972
 2973POPC   C4B38806  29.337  37.467   7.561
 2974POPC   NC338807   4.051  41.081   9.442
 2974POPC   PO438808   4.520  40.547   9.506
 2974POPC   GL138809   4.334  40.752   9.178
 2974POPC   GL238810   4.558  41.047   9.289
 2974POPC   C1A38811   4.170  40.837   8.756
 2974POPC   D2A38812   3.892  40.699   8.437
 2974POPC   C3A38813   4.092  40.845   8.085
 2974POPC   C4A38814   4.203  40.776   7.678
 2974POPC   C1B38815   4.629  41.016   8.859
 2974POPC   C2B38816   4.625  41.046   8.381
 2974POPC   C3B38817   4.501  41.181   7.939
 2974POPC   C4B38818   4.596  41.010   7.509
 2975POPC   NC338819  15.026  35.907   9.379
 2975POPC   PO438820  15.336  36.500   9.555
 2975POPC   GL138821  15.185  36.325   9.147
 2975POPC   GL238822  15.360  36.011   9.015
 2975POPC   C1A38823  14.970  36.165   8.753
 2975POPC   D2A38824  15.257  36.001   8.447
 2975POPC   C3A38825  15.040  35.982   8.084
 2975POPC   C4A38826  15.143  36.184   7.703
 2975POPC   C1B38827  15.581  35.754   8.748
 2975POPC   C2B38828  15.590  35.598   8.343
 2975POPC   C3B38829  15.519  35.852   7.986
 2975POPC   C4B38830  15.409  35.768   7.592
 2976POPC   NC338831   8.323  44.960   9.562
 2976POPC   PO438832   8.158  44.282   9.443
 2976POPC   GL138833   8.137  44.473   9.069
 2976POPC   GL238834   8.372  44.740   9.103
 2976POPC   C1A38835   8.007  44.646   8.680
 2976POPC   D2A38836   8.214  44.872   8.380
 2976POPC   C3A38837   8.383  44.581   8.090
 2976POPC   C4A38838   8.232  44.762   7.723
 2976POPC   C1B38839   8.542  44.627   8.717
 2976POPC   C2B38840   8.733  44.829   8.374
 2976POPC   C3B38841   8.542   0.054   8.017
 2976POPC   C4B38842   8.516   0.155   7.582
 2977POPC   NC338843  42.911  11.147   9.250
 2977POPC   PO438844  43.380  11.126   9.696
 2977POPC   GL138845  43.376  11.310   9.173
 2977POPC   GL238846  43.428  11.643   9.036
 2977POPC   C1A38847  43.180  11.285   8.690
 2977POPC   D2A38848  42.890  11.100   8.386
 2977POPC   C3A38849  43.121  11.095   8.008
 2977POPC   C4A38850  43.198  11.338   7.633
 2977POPC   C1B38851  43.024  11.750   8.791
 2977POPC   C2B38852  42.888  11.628   8.400
 2977POPC   C3B38853  43.113  11.635   8.028
 2977POPC   C4B38854  43.203  11.885   7.663
 2978POPC   NC338855  32.668  41.615   9.465
 2978POPC   PO438856  33.249  41.351   9.625
 2978POPC   GL138857  33.100  41.489   9.204
 2978POPC   GL238858  33.034  41.845   9.184
 2978POPC   C1A38859  33.274  41.415   8.787
 2978POPC   D2A38860  33.118  41.545   8.375
 2978POPC   C3A38861  33.261  41.368   7.984
 2978POPC   C4A38862  33.089  41.424   7.570
 2978POPC   C1B38863  32.857  41.731   8.780
 2978POPC   C2B38864  32.654  41.808   8.350
 2978POPC   C3B38865  32.851  41.710   7.947
 2978POPC   C4B38866  33.080  41.918   7.609
 2979POPC   NC338867  11.382  36.947   9.570
 2979POPC   PO438868  10.740  37.070   9.406
 2979POPC   GL138869  11.094  37.058   9.157
 2979POPC   GL238870  11.075  36.729   9.035
 2979POPC   C1A38871  11.307  37.097   8.771
 2979POPC   D2A38872  11.180  36.926   8.356
 2979POPC   C3A38873  11.386  37.053   7.964
 2979POPC   C4A38874  11.539  37.234   7.562
 2979POPC   C1B38875  11.450  36.612   8.757
 2979POPC   C2B38876  11.664  36.770   8.359
 2979POPC   C3B38877  11.608  36.620   7.931
 2979POPC   C4B38878  11.342  36.738   7.562
 2980POPC   NC338879  43.383   8.748   9.606
 2980POPC   PO438880  42.849   9.098   9.645
 2980POPC   GL138881  43.065   9.034   9.184
 2980POPC   GL238882  43.381   8.907   9.129
 2980POPC   C1A38883  43.058   8.952   8.734
 2980POPC   D2A38884  42.830   8.796   8.369
 2980POPC   C3A38885  42.923   8.895   7.942
 2980POPC   C4A38886  42.741   8.670   7.616
 2980POPC   C1B38887  43.515   8.696   8.778
 2980POPC   C2B38888  43.359   8.756   8.352
 2980POPC   C3B38889  43.367   8.602   7.955
 2980POPC   C4B38890  43.279   8.720   7.544
 2981POPC   NC338891  20.852  24.036   9.581
 2981POPC   PO438892  20.465  23.551   9.309
 2981POPC   GL138893  20.746  23.676   9.073
 2981POPC   GL238894  20.677  23.995   9.107
 2981POPC   C1A38895  20.581  23.704   8.662
 2981POPC   D2A38896  20.728  23.520   8.338
 2981POPC   C3A38897  20.526  23.635   8.031
 2981POPC   C4A38898  20.564  23.401   7.685
 2981POPC   C1B38899  20.922  24.060   8.742
 2981POPC   C2B38900  20.749  24.219   8.389
 2981POPC   C3B38901  20.695  24.183   7.979
 2981POPC   C4B38902  20.784  23.874   7.683
 2982POPC   NC338903  40.691   9.131   9.376
 2982POPC   PO438904  41.071   8.680   9.583
 2982POPC   GL138905  41.110   8.875   9.203
 2982POPC   GL238906  40.832   8.660   9.123
 2982POPC   C1A38907  40.944   9.101   8.803
 2982POPC   D2A38908  40.612   9.087   8.502
 2982POPC   C3A38909  40.763   9.173   8.095
 2982POPC   C4A38910  40.625   8.956   7.724
 2982POPC   C1B38911  41.121   8.618   8.773
 2982POPC   C2B38912  41.080   8.850   8.381
 2982POPC   C3B38913  41.006   8.725   7.963
 2982POPC   C4B38914  41.229   8.665   7.575
 2983POPC   NC338915   2.376  26.153   9.628
 2983POPC   PO438916   2.904  26.461   9.486
 2983POPC   GL138917   2.607  26.394   9.158
 2983POPC   GL238918   2.582  26.040   9.132
 2983POPC   C1A38919   2.767  26.341   8.707
 2983POPC   D2A38920   2.602  26.224   8.318
 2983POPC   C3A38921   2.665  26.323   7.913
 2983POPC   C4A38922   2.888  26.091   7.685
 2983POPC   C1B38923   2.630  25.848   8.702
 2983POPC   C2B38924   2.679  25.715   8.262
 2983POPC   C3B38925   2.722  25.607   7.831
 2983POPC   C4B38926   2.632  25.239   7.569
 2984POPC   NC338927   7.169  43.907   9.533
 2984POPC   PO438928   6.554  43.718   9.526
 2984POPC   GL138929   6.599  43.954   9.161
 2984POPC   GL238930   6.858  44.199   9.207
 2984POPC   C1A38931   6.516  43.813   8.770
 2984POPC   D2A38932   6.371  43.864   8.390
 2984POPC   C3A38933   6.449  43.601   8.083
 2984POPC   C4A38934   6.491  43.868   7.739
 2984POPC   C1B38935   6.980  44.029   8.813
 2984POPC   C2B38936   6.842  44.096   8.410
 2984POPC   C3B38937   6.897  43.890   8.031
 2984POPC   C4B38938   6.885  44.221   7.729
 2985POPC   NC338939  24.496  30.894   9.600
 2985POPC   PO438940  24.340  31.567   9.628
 2985POPC   GL138941  24.356  31.651   9.192
 2985POPC   GL238942  24.429  31.319   9.133
 2985POPC   C1A38943  24.382  31.674   8.744
 2985POPC   D2A38944  24.413  31.887   8.384
 2985POPC   C3A38945  24.431  31.590   8.097
 2985POPC   C4A38946  24.385  31.763   7.732
 2985POPC   C1B38947  24.776  31.360   8.798
 2985POPC   C2B38948  24.847  31.590   8.434
 2985POPC   C3B38949  24.893  31.340   8.085
 2985POPC   C4B38950  24.669  31.361   7.684
 2986POPC   NC338951  39.649  22.735   9.405
 2986POPC   PO438952  40.297  22.937   9.337
 2986POPC   GL138953  40.020  22.817   9.073
 2986POPC   GL238954  39.806  23.105   9.088
 2986POPC   C1A38955  39.877  22.655   8.695
 2986POPC   D2A38956  40.088  22.586   8.310
 2986POPC   C3A38957  39.957  22.745   7.935
 2986POPC   C4A38958  39.725  22.874   7.596
 2986POPC   C1B38959  40.047  23.130   8.686
 2986POPC   C2B38960  40.144  23.110   8.279
 2986POPC   C3B38961  39.939  23.253   7.930
 2986POPC   C4B38962  40.156  23.120   7.630
 2987POPC   NC338963  11.665   0.342   9.439
 2987POPC   PO438964  12.379   0.134   9.381
 2987POPC   GL138965  12.282   0.444   9.053
 2987POPC   GL238966  11.938   0.440   9.008
 2987POPC   C1A38967  12.351   0.497   8.619
 2987POPC   D2A38968  12.514   0.537   8.221
 2987POPC   C3A38969  12.230   0.606   7.891
 2987POPC   C4A38970  12.120   0.336   7.521
 2987POPC   C1B38971  11.901   0.732   8.693
 2987POPC   C2B38972  11.958   0.661   8.302
 2987POPC   C3B38973  11.754   0.415   7.976
 2987POPC   C4B38974  11.755   0.663   7.652
 2988POPC   NC338975   8.020  10.669   9.729
 2988POPC   PO438976   7.321  10.567   9.503
 2988POPC   GL138977   7.496  10.475   9.080
 2988POPC   GL238978   7.592  10.731   8.845
 2988POPC   C1A38979   7.475  10.197   8.744
 2988POPC   D2A38980   7.558  10.430   8.392
 2988POPC   C3A38981   7.467  10.352   7.968
 2988POPC   C4A38982   7.845  10.572   7.746
 2988POPC   C1B38983   7.158  10.594   8.723
 2988POPC   C2B38984   7.066  10.599   8.307
 2988POPC   C3B38985   7.104  10.911   8.039
 2988POPC   C4B38986   7.401  10.800   7.730
 2989POPC   NC338987  16.847   2.571   9.492
 2989POPC   PO438988  16.970   3.213   9.275
 2989POPC   GL138989  16.793   2.911   8.985
 2989POPC   GL238990  16.665   2.562   9.029
 2989POPC   C1A38991  16.925   2.891   8.533
 2989POPC   D2A38992  16.723   2.998   8.158
 2989POPC   C3A38993  16.867   3.125   7.769
 2989POPC   C4A38994  17.076   2.991   7.365
 2989POPC   C1B38995  16.916   2.411   8.715
 2989POPC   C2B38996  16.925   2.330   8.291
 2989POPC   C3B38997  16.754   2.556   7.942
 2989POPC   C4B38998  16.689   2.689   7.557
 2990POPC   NC338999  37.944   7.327   9.487
 2990POPC   PO439000  37.486   7.776   9.531
 2990POPC   GL139001  37.642   7.656   9.098
 2990POPC   GL239002  37.744   7.283   9.006
 2990POPC   C1A39003  37.658   7.606   8.630
 2990POPC   D2A39004  37.667   7.245   8.358
 2990POPC   C3A39005  37.540   7.386   7.958
 2990POPC   C4A39006  37.765   7.664   7.781
 2990POPC   C1B39007  38.087   7.176   8.687
 2990POPC   C2B39008  38.278   7.105   8.284
 2990POPC   C3B39009  38.009   7.184   7.944
 2990POPC   C4B39010  37.865   7.113   7.549
 2991POPC   NC339011  20.949  35.384   9.588
 2991POPC   PO439012  21.578  35.565   9.467
 2991POPC   GL139013  21.423  35.497   9.046
 2991POPC   GL239014  21.079  35.447   9.095
 2991POPC   C1A39015  21.231  35.765   8.718
 2991POPC   D2A39016  21.249  35.938   8.320
 2991POPC   C3A39017  21.387  35.540   8.140
 2991POPC   C4A39018  21.467  35.327   7.755
 2991POPC   C1B39019  20.981  35.237   8.726
 2991POPC   C2B39020  21.166  35.122   8.371
 2991POPC   C3B39021  21.030  35.189   7.974
 2991POPC   C4B39022  21.192  34.893   7.681
 2992POPC   NC339023  13.083  34.174   9.347
 2992POPC   PO439024  12.569  34.570   9.596
 2992POPC   GL139025  12.813  34.625   9.202
 2992POPC   GL239026  12.646  34.298   9.115
 2992POPC   C1A39027  13.027  34.815   8.807
 2992POPC   D2A39028  13.078  34.624   8.375
 2992POPC   C3A39029  12.882  34.740   8.001
 2992POPC   C4A39030  12.863  34.602   7.563
 2992POPC   C1B39031  12.721  34.433   8.715
 2992POPC   C2B39032  12.536  34.594   8.339
 2992POPC   C3B39033  12.532  34.381   7.900
 2992POPC   C4B39034  12.482  34.267   7.436
 2993POPC   NC339035  10.637  16.214   9.808
 2993POPC   PO439036  10.273  15.723   9.460
 2993POPC   GL139037  10.686  15.790   9.267
 2993POPC   GL239038  10.803  16.156   9.320
 2993POPC   C1A39039  10.662  15.635   8.821
 2993POPC   D2A39040  10.430  15.695   8.417
 2993POPC   C3A39041  10.655  15.582   8.046
 2993POPC   C4A39042  10.741  15.772   7.643
 2993POPC   C1B39043  10.558  16.155   8.921
 2993POPC   C2B39044  10.460  16.194   8.477
 2993POPC   C3B39045  10.621  16.079   8.058
 2993POPC   C4B39046  10.872  16.274   7.712
 2994POPC   NC339047  43.397  28.339   9.380
 2994POPC   PO439048  42.798  28.130   9.405
 2994POPC   GL139049  43.000  28.394   9.096
 2994POPC   GL239050  43.337  28.235   8.885
 2994POPC   C1A39051  43.064  28.626   8.749
 2994POPC   D2A39052  43.202  28.453   8.406
 2994POPC   C3A39053  43.105  28.601   8.024
 2994POPC   C4A39054  43.347  28.317   7.837
 2994POPC   C1B39055  42.910  28.135   8.693
 2994POPC   C2B39056  42.603  28.099   8.416
 2994POPC   C3B39057  42.904  28.110   8.137
 2994POPC   C4B39058  42.883  28.161   7.749
 2995POPC   NC339059  33.182  15.009   9.475
 2995POPC   PO439060  32.791  15.619   9.470
 2995POPC   GL139061  33.018  15.378   9.158
 2995POPC   GL239062  32.870  15.009   9.080
 2995POPC   C1A39063  33.216  15.230   8.791
 2995POPC   D2A39064  33.373  15.212   8.408
 2995POPC   C3A39065  33.025  15.268   8.130
 2995POPC   C4A39066  33.137  15.187   7.729
 2995POPC   C1B39067  32.969  14.762   8.705
 2995POPC   C2B39068  33.067  14.784   8.271
 2995POPC   C3B39069  32.766  14.821   7.898
 2995POPC   C4B39070  32.798  14.949   7.448
 2996POPC   NC339071  33.647  24.223   9.404
 2996POPC   PO439072  33.996  24.859   9.333
 2996POPC   GL139073  33.943  24.517   9.109
 2996POPC   GL239074  33.625  24.639   8.999
 2996POPC   C1A39075  33.937  24.257   8.758
 2996POPC   D2A39076  34.098  24.144   8.366
 2996POPC   C3A39077  33.951  24.310   8.002
 2996POPC   C4A39078  33.726  24.356   7.646
 2996POPC   C1B39079  33.418  24.329   8.744
 2996POPC   C2B39080  33.580  24.305   8.349
 2996POPC   C3B39081  33.571  24.658   8.053
 2996POPC   C4B39082  33.272  24.550   7.763
 2997POPC   NC339083  17.143  11.490   9.480
 2997POPC   PO439084  17.742  11.145   9.523
 2997POPC   GL139085  17.612  11.371   9.159
 2997POPC   GL239086  17.290  11.271   9.053
 2997POPC   C1A39087  17.628  11.347   8.694
 2997POPC   D2A39088  17.378  11.574   8.437
 2997POPC   C3A39089  17.556  11.676   8.093
 2997POPC   C4A39090  17.514  11.457   7.759
 2997POPC   C1B39091  17.291  10.952   8.724
 2997POPC   C2B39092  17.338  11.074   8.311
 2997POPC   C3B39093  17.424  10.971   7.911
 2997POPC   C4B39094  17.288  11.058   7.528
 2998POPC   NC339095   7.581  10.920   9.341
 2998POPC   PO439096   7.174  11.550   9.395
 2998POPC   GL139097   7.346  11.451   8.991
 2998POPC   GL239098   7.254  11.107   8.952
 2998POPC   C1A39099   7.631  11.717   8.698
 2998POPC   D2A39100   7.583  11.740   8.245
 2998POPC   C3A39101   7.366  11.373   8.079
 2998POPC   C4A39102   7.178  11.254   7.678
 2998POPC   C1B39103   7.330  11.025   8.505
 2998POPC   C2B39104   7.620  10.915   8.190
 2998POPC   C3B39105   7.768  11.144   7.828
 2998POPC   C4B39106   7.638  11.106   7.412
 2999POPC   NC339107   1.316   4.664   9.759
 2999POPC   PO439108   1.470   5.335   9.474
 2999POPC   GL139109   1.357   5.174   9.064
 2999POPC   GL239110   1.094   4.985   9.100
 2999POPC   C1A39111   1.160   5.287   8.652
 2999POPC   D2A39112   1.061   5.255   8.192
 2999POPC   C3A39113   1.275   5.448   7.818
 2999POPC   C4A39114   1.257   5.155   7.453
 2999POPC   C1B39115   0.902   4.832   8.736
 2999POPC   C2B39116   0.695   4.924   8.358
 2999POPC   C3B39117   0.710   4.874   7.930
 2999POPC   C4B39118   0.823   4.795   7.498
 3000POPC   NC339119   6.208  24.332   9.607
 3000POPC   PO439120   5.523  24.499   9.487
 3000POPC   GL139121   5.830  24.567   9.173
 3000POPC   GL239122   6.108  24.829   9.267
 3000POPC   C1A39123   5.738  24.456   8.760
 3000POPC   D2A39124   5.903  24.569   8.380
 3000POPC   C3A39125   5.825  24.477   7.986
 3000POPC   C4A39126   5.688  24.378   7.602
 3000POPC   C1B39127   6.106  24.862   8.823
 3000POPC   C2B39128   6.308  24.856   8.428
 3000POPC   C3B39129   6.118  24.919   8.055
 3000POPC   C4B39130   6.301  24.894   7.701
 3001POPC   NC339131   8.343  20.158   9.512
 3001POPC   PO439132   8.197  20.830   9.455
 3001POPC   GL139133   8.296  20.541   9.095
 3001POPC   GL239134   8.096  20.216   9.073
 3001POPC   C1A39135   8.581  20.498   8.705
 3001POPC   D2A39136   8.530  20.374   8.273
 3001POPC   C3A39137   8.578  20.759   8.033
 3001POPC   C4A39138   8.405  20.866   7.636
 3001POPC   C1B39139   8.084  20.405   8.660
 3001POPC   C2B39140   7.864  20.652   8.387
 3001POPC   C3B39141   7.708  20.531   7.980
 3001POPC   C4B39142   8.133  20.493   7.871
 3002POPC   NC339143  25.738  34.151   9.522
 3002POPC   PO439144  25.890  33.511   9.700
 3002POPC   GL139145  25.897  33.759   9.254
 3002POPC   GL239146  26.157  33.969   9.173
 3002POPC   C1A39147  25.877  33.630   8.799
 3002POPC   D2A39148  26.067  33.659   8.394
 3002POPC   C3A39149  25.934  33.513   7.976
 3002POPC   C4A39150  26.039  33.550   7.508
 3002POPC   C1B39151  25.832  34.125   8.860
 3002POPC   C2B39152  25.748  34.289   8.450
 3002POPC   C3B39153  25.802  34.001   8.112
 3002POPC   C4B39154  25.610  33.835   7.745
 3003POPC   NC339155  13.374  36.391   9.509
 3003POPC   PO439156  13.857  35.822   9.396
 3003POPC   GL139157  13.601  36.100   9.132
 3003POPC   GL239158  13.621  36.485   9.062
 3003POPC   C1A39159  13.554  36.150   8.700
 3003POPC   D2A39160  13.465  35.939   8.364
 3003POPC   C3A39161  13.657  36.124   8.055
 3003POPC   C4A39162  13.520  35.969   7.708
 3003POPC   C1B39163  13.217  36.532   8.822
 3003POPC   C2B39164  13.083  36.387   8.403
 3003POPC   C3B39165  13.264  36.467   7.996
 3003POPC   C4B39166  13.452  36.519   7.595
 3004POPC   NC339167  37.715   0.453   9.788
 3004POPC   PO439168  37.978  44.923   9.584
 3004POPC   GL139169  37.717   0.241   9.289
 3004POPC   GL239170  37.864   0.522   9.060
 3004POPC   C1A39171  37.446   0.344   8.902
 3004POPC   D2A39172  37.535   0.614   8.524
 3004POPC   C3A39173  37.714   0.359   8.181
 3004POPC   C4A39174  37.514   0.214   7.789
 3004POPC   C1B39175  37.902   0.311   8.696
 3004POPC   C2B39176  38.146   0.505   8.448
 3004POPC   C3B39177  38.203   0.604   8.081
 3004POPC   C4B39178  37.976   0.480   7.742
 3005POPC   NC339179   9.804   0.051   9.868
 3005POPC   PO439180   9.773   0.653   9.641
 3005POPC   GL139181   9.760   0.606   9.219
 3005POPC   GL239182   9.670   0.259   9.304
 3005POPC   C1A39183   9.809   0.718   8.793
 3005POPC   D2A39184  10.041   0.508   8.497
 3005POPC   C3A39185   9.802   0.531   8.160
 3005POPC   C4A39186   9.776   0.561   7.737
 3005POPC   C1B39187   9.842   0.196   8.892
 3005POPC   C2B39188   9.697   0.132   8.458
 3005POPC   C3B39189   9.841   0.036   8.024
 3005POPC   C4B39190   9.596   0.080   7.659
 3006POPC   NC339191  29.384  12.917   9.423
 3006POPC   PO439192  28.792  13.172   9.535
 3006POPC   GL139193  28.971  12.870   9.135
 3006POPC   GL239194  29.305  12.623   9.022
 3006POPC   C1A39195  29.090  12.904   8.688
 3006POPC   D2A39196  28.891  12.927   8.315
 3006POPC   C3A39197  29.139  13.049   7.995
 3006POPC   C4A39198  29.403  13.218   7.699
 3006POPC   C1B39199  28.878  12.461   8.828
 3006POPC   C2B39200  28.714  12.437   8.389
 3006POPC   C3B39201  28.876  12.552   7.962
 3006POPC   C4B39202  29.307  12.549   7.855
 3007POPC   NC339203  19.142  36.920   9.625
 3007POPC   PO439204  18.754  37.335   9.259
 3007POPC   GL139205  19.153  37.133   9.059
 3007POPC   GL239206  19.213  36.776   9.126
 3007POPC   C1A39207  19.100  37.045   8.596
 3007POPC   D2A39208  18.762  37.249   8.283
 3007POPC   C3A39209  18.772  37.063   7.841
 3007POPC   C4A39210  18.803  36.978   7.353
 3007POPC   C1B39211  19.468  36.713   8.760
 3007POPC   C2B39212  19.385  36.579   8.354
 3007POPC   C3B39213  19.460  36.720   7.953
 3007POPC   C4B39214  19.172  36.798   7.651
 3008POPC   NC339215  39.575  33.523   9.890
 3008POPC   PO439216  40.139  33.752   9.513
 3008POPC   GL139217  40.191  33.610   9.122
 3008POPC   GL239218  39.994  33.914   9.030
 3008POPC   C1A39219  40.243  33.657   8.682
 3008POPC   D2A39220  39.891  33.625   8.422
 3008POPC   C3A39221  40.006  33.554   8.017
 3008POPC   C4A39222  39.844  33.678   7.670
 3008POPC   C1B39223  39.779  34.175   8.711
 3008POPC   C2B39224  39.794  34.350   8.317
 3008POPC   C3B39225  39.813  34.078   7.980
 3008POPC   C4B39226  39.943  34.178   7.542
 3009POPC   NC339227  35.556  27.361   9.403
 3009POPC   PO439228  35.050  27.828   9.588
 3009POPC   GL139229  35.150  27.992   9.146
 3009POPC   GL239230  35.481  27.997   9.054
 3009POPC   C1A39231  35.118  27.822   8.706
 3009POPC   D2A39232  34.941  27.523   8.356
 3009POPC   C3A39233  35.137  27.467   7.924
 3009POPC   C4A39234  35.353  27.578   7.490
 3009POPC   C1B39235  35.655  27.747   8.709
 3009POPC   C2B39236  35.458  27.646   8.306
 3009POPC   C3B39237  35.629  27.598   7.919
 3009POPC   C4B39238  35.952  27.721   7.707
 3010POPC   NC339239  26.602  20.886   9.639
 3010POPC   PO439240  27.031  20.428   9.422
 3010POPC   GL139241  26.808  20.469   9.077
 3010POPC   GL239242  26.689  20.763   9.160
 3010POPC   C1A39243  26.878  20.441   8.652
 3010POPC   D2A39244  26.879  20.482   8.224
 3010POPC   C3A39245  27.102  20.233   7.952
 3010POPC   C4A39246  26.860  20.248   7.580
 3010POPC   C1B39247  26.735  20.953   8.803
 3010POPC   C2B39248  26.907  20.971   8.426
 3010POPC   C3B39249  26.675  20.963   8.099
 3010POPC   C4B39250  26.730  20.742   7.739
 3011POPC   NC339251  26.810   7.837   9.558
 3011POPC   PO439252  26.366   8.275   9.623
 3011POPC   GL139253  26.652   8.420   9.255
 3011POPC   GL239254  26.898   8.148   9.168
 3011POPC   C1A39255  26.923   8.507   8.835
 3011POPC   D2A39256  27.072   8.313   8.423
 3011POPC   C3A39257  26.826   8.301   8.041
 3011POPC   C4A39258  26.858   8.406   7.628
 3011POPC   C1B39259  26.832   7.980   8.739
 3011POPC   C2B39260  26.878   7.835   8.268
 3011POPC   C3B39261  26.828   7.872   7.775
 3011POPC   C4B39262  26.528   8.044   7.494
 3012POPC   NC339263  12.979  11.263   9.326
 3012POPC   PO439264  12.283  11.046   9.448
 3012POPC   GL139265  12.523  11.070   9.021
 3012POPC   GL239266  12.804  10.865   8.985
 3012POPC   C1A39267  12.820  11.286   8.670
 3012POPC   D2A39268  13.149  11.374   8.383
 3012POPC   C3A39269  13.014  11.506   7.981
 3012POPC   C4A39270  12.618  11.643   7.828
 3012POPC   C1B39271  12.632  10.826   8.549
 3012POPC   C2B39272  12.827  10.991   8.173
 3012POPC   C3B39273  12.729  11.131   7.740
 3012POPC   C4B39274  12.671  11.053   7.279
 3013POPC   NC339275  27.740  10.620   9.758
 3013POPC   PO439276  27.552  10.020   9.558
 3013POPC   GL139277  27.717  10.397   9.258
 3013POPC   GL239278  27.472  10.338   9.005
 3013POPC   C1A39279  27.745  10.717   8.828
 3013POPC   D2A39280  27.873  10.546   8.385
 3013POPC   C3A39281  27.759  10.630   7.924
 3013POPC   C4A39282  27.869  10.677   7.410
 3013POPC   C1B39283  27.266  10.273   8.617
 3013POPC   C2B39284  27.408  10.340   8.240
 3013POPC   C3B39285  27.311  10.213   7.851
 3013POPC   C4B39286  27.410  10.505   7.562
 3014POPC   NC339287  30.346  18.327   9.439
 3014POPC   PO439288  31.011  18.417   9.357
 3014POPC   GL139289  30.713  18.296   9.055
 3014POPC   GL239290  30.458  18.541   9.006
 3014POPC   C1A39291  30.767  18.049   8.679
 3014POPC   D2A39292  30.528  17.942   8.331
 3014POPC   C3A39293  30.694  17.955   7.942
 3014POPC   C4A39294  30.955  18.295   7.761
 3014POPC   C1B39295  30.700  18.557   8.617
 3014POPC   C2B39296  30.702  18.405   8.214
 3014POPC   C3B39297  30.473  18.445   7.821
 3014POPC   C4B39298  30.550  18.578   7.381
 3015POPC   NC339299  30.047  24.118   9.765
 3015POPC   PO439300  29.755  24.641   9.370
 3015POPC   GL139301  29.931  24.459   9.079
 3015POPC   GL239302  29.930  24.142   9.220
 3015POPC   C1A39303  29.720  24.309   8.757
 3015POPC   D2A39304  29.621  24.122   8.389
 3015POPC   C3A39305  29.713  24.446   8.102
 3015POPC   C4A39306  29.817  24.576   7.697
 3015POPC   C1B39307  30.165  24.049   8.801
 3015POPC   C2B39308  30.122  24.299   8.413
 3015POPC   C3B39309  30.225  24.403   7.969
 3015POPC   C4B39310  30.323  24.769   7.701
 3016POPC   NC339311  38.104  44.532   9.790
 3016POPC   PO439312  38.725  44.692   9.558
 3016POPC   GL139313  38.387  44.647   9.298
 3016POPC   GL239314  38.601  44.868   9.094
 3016POPC   C1A39315  38.287  44.531   8.882
 3016POPC   D2A39316  38.403  44.546   8.452
 3016POPC   C3A39317  38.140  44.497   8.092
 3016POPC   C4A39318  38.395  44.689   7.787
 3016POPC   C1B39319  38.774  44.968   8.735
 3016POPC   C2B39320  38.891  44.735   8.404
 3016POPC   C3B39321  39.017  44.761   8.001
 3016POPC   C4B39322  38.812   0.034   7.734
 3017POPC   NC339323   9.772   1.135   9.565
 3017POPC   PO439324   9.853   1.796   9.652
 3017POPC   GL139325   9.845   1.472   9.188
 3017POPC   GL239326   9.631   1.114   9.097
 3017POPC   C1A39327   9.896   1.305   8.716
 3017POPC   D2A39328   9.889   1.002   8.357
 3017POPC   C3A39329   9.906   1.139   7.906
 3017POPC   C4A39330   9.683   1.397   7.561
 3017POPC   C1B39331   9.342   0.925   8.831
 3017POPC   C2B39332   9.378   1.095   8.445
 3017POPC   C3B39333   9.461   0.912   8.074
 3017POPC   C4B39334   9.450   0.958   7.693
 3018POPC   NC339335  28.955   5.920   9.471
 3018POPC   PO439336  29.599   5.989   9.491
 3018POPC   GL139337  29.354   5.754   9.198
 3018POPC   GL239338  29.283   6.128   9.134
 3018POPC   C1A39339  29.117   5.790   8.812
 3018POPC   D2A39340  28.922   5.988   8.472
 3018POPC   C3A39341  29.019   5.927   8.056
 3018POPC   C4A39342  28.717   6.030   7.725
 3018POPC   C1B39343  29.227   6.292   8.754
 3018POPC   C2B39344  29.317   6.310   8.337
 3018POPC   C3B39345  29.423   6.237   7.934
 3018POPC   C4B39346  29.204   6.010   7.588
 3019POPC   NC339347  15.590   9.784   9.473
 3019POPC   PO439348  16.202   9.570   9.286
 3019POPC   GL139349  15.842   9.667   9.049
 3019POPC   GL239350  15.820  10.050   9.105
 3019POPC   C1A39351  15.845   9.440   8.667
 3019POPC   D2A39352  16.173   9.233   8.434
 3019POPC   C3A39353  16.197   9.519   8.103
 3019POPC   C4A39354  15.902   9.747   7.822
 3019POPC   C1B39355  15.976  10.020   8.687
 3019POPC   C2B39356  16.020   9.993   8.260
 3019POPC   C3B39357  16.035  10.229   7.894
 3019POPC   C4B39358  15.899  10.131   7.488
 3020POPC   NC339359  22.211  26.766   9.293
 3020POPC   PO439360  22.183  27.379   9.578
 3020POPC   GL139361  22.142  27.636   9.191
 3020POPC   GL239362  22.051  27.996   9.214
 3020POPC   C1A39363  22.256  27.479   8.771
 3020POPC   D2A39364  22.304  27.248   8.372
 3020POPC   C3A39365  22.283  27.500   7.998
 3020POPC   C4A39366  22.579  27.702   7.737
 3020POPC   C1B39367  22.345  27.984   8.833
 3020POPC   C2B39368  22.457  27.807   8.414
 3020POPC   C3B39369  22.354  28.037   8.033
 3020POPC   C4B39370  22.179  27.971   7.609
 3021POPC   NC339371  20.170  23.305   9.573
 3021POPC   PO439372  19.893  22.766   9.632
 3021POPC   GL139373  19.869  22.978   9.251
 3021POPC   GL239374  19.696  22.686   9.119
 3021POPC   C1A39375  20.037  23.029   8.829
 3021POPC   D2A39376  19.854  22.994   8.414
 3021POPC   C3A39377  20.027  22.883   8.040
 3021POPC   C4A39378  19.929  22.947   7.640
 3021POPC   C1B39379  19.515  22.794   8.713
 3021POPC   C2B39380  19.415  22.647   8.286
 3021POPC   C3B39381  19.612  22.623   7.862
 3021POPC   C4B39382  19.598  22.623   7.398
 3022POPC   NC339383  33.609  17.239   9.332
 3022POPC   PO439384  33.555  17.858   9.473
 3022POPC   GL139385  33.714  17.674   9.084
 3022POPC   GL239386  34.031  17.463   9.148
 3022POPC   C1A39387  33.578  17.433   8.695
 3022POPC   D2A39388  33.490  17.459   8.255
 3022POPC   C3A39389  33.740  17.333   7.899
 3022POPC   C4A39390  33.629  17.567   7.519
 3022POPC   C1B39391  34.062  17.574   8.723
 3022POPC   C2B39392  34.031  17.440   8.303
 3022POPC   C3B39393  34.216  17.552   7.919
 3022POPC   C4B39394  34.097  17.767   7.550
 3023POPC   NC339395  25.123  19.658   9.795
 3023POPC   PO439396  25.587  20.050   9.530
 3023POPC   GL139397  25.460  19.740   9.152
 3023POPC   GL239398  25.106  19.837   8.941
 3023POPC   C1A39399  25.499  19.628   8.732
 3023POPC   D2A39400  25.167  19.789   8.446
 3023POPC   C3A39401  25.293  19.703   8.071
 3023POPC   C4A39402  25.316  19.700   7.681
 3023POPC   C1B39403  25.182  20.246   8.693
 3023POPC   C2B39404  24.947  20.418   8.332
 3023POPC   C3B39405  24.719  20.163   8.050
 3023POPC   C4B39406  24.836  19.787   7.848
 3024POPC   NC339407  24.475  21.706   9.462
 3024POPC   PO439408  24.894  21.233   9.707
 3024POPC   GL139409  24.567  21.222   9.278
 3024POPC   GL239410  24.301  21.451   9.062
 3024POPC   C1A39411  24.637  21.139   8.820
 3024POPC   D2A39412  24.336  21.259   8.502
 3024POPC   C3A39413  24.510  21.252   8.097
 3024POPC   C4A39414  24.396  21.525   7.798
 3024POPC   C1B39415  24.575  21.651   8.732
 3024POPC   C2B39416  24.865  21.520   8.406
 3024POPC   C3B39417  24.850  21.687   7.984
 3024POPC   C4B39418  24.866  21.502   7.575
 3025POPC   NC339419   8.867  19.136   9.392
 3025POPC   PO439420   9.359  19.636   9.536
 3025POPC   GL139421   9.323  19.320   9.133
 3025POPC   GL239422   9.169  18.952   9.024
 3025POPC   C1A39423   9.192  19.296   8.682
 3025POPC   D2A39424   8.895  19.115   8.400
 3025POPC   C3A39425   9.030  19.185   7.972
 3025POPC   C4A39426   9.124  19.192   7.521
 3025POPC   C1B39427   8.732  18.797   8.797
 3025POPC   C2B39428   8.461  18.837   8.401
 3025POPC   C3B39429   8.561  18.749   7.950
 3025POPC   C4B39430   8.612  18.820   7.492
 3026POPC   NC339431   5.494  36.680   9.764
 3026POPC   PO439432   4.885  36.921   9.556
 3026POPC   GL139433   5.106  36.890   9.204
 3026POPC   GL239434   5.284  36.590   9.284
 3026POPC   C1A39435   5.081  37.083   8.798
 3026POPC   D2A39436   5.293  37.004   8.446
 3026POPC   C3A39437   5.185  37.162   8.069
 3026POPC   C4A39438   5.009  37.221   7.681
 3026POPC   C1B39439   5.305  36.584   8.833
 3026POPC   C2B39440   4.963  36.624   8.531
 3026POPC   C3B39441   4.971  36.671   8.089
 3026POPC   C4B39442   5.262  36.539   7.755
 3027POPC   NC339443   9.523  34.929   9.554
 3027POPC   PO439444  10.078  35.301   9.552
 3027POPC   GL139445   9.777  35.287   9.215
 3027POPC   GL239446   9.415  35.314   9.184
 3027POPC   C1A39447   9.862  35.319   8.782
 3027POPC   D2A39448   9.788  35.537   8.397
 3027POPC   C3A39449  10.045  35.607   8.024
 3027POPC   C4A39450   9.754  35.391   7.794
 3027POPC   C1B39451   9.357  35.143   8.759
 3027POPC   C2B39452   9.652  35.016   8.431
 3027POPC   C3B39453   9.630  34.966   8.003
 3027POPC   C4B39454   9.422  35.014   7.608
 3028POPC   NC339455  36.000  30.438   9.443
 3028POPC   PO439456  36.457  30.959   9.434
 3028POPC   GL139457  36.186  30.782   9.091
 3028POPC   GL239458  35.829  30.783   9.084
 3028POPC   C1A39459  36.267  30.621   8.678
 3028POPC   D2A39460  36.477  30.599   8.220
 3028POPC   C3A39461  36.216  30.541   7.846
 3028POPC   C4A39462  36.165  30.721   7.405
 3028POPC   C1B39463  35.831  30.954   8.650
 3028POPC   C2B39464  35.742  31.041   8.206
 3028POPC   C3B39465  35.823  30.874   7.807
 3028POPC   C4B39466  35.729  30.981   7.370
 3029POPC   NC339467  37.894  32.923   9.356
 3029POPC   PO439468  37.681  32.211   9.483
 3029POPC   GL139469  37.519  32.281   9.101
 3029POPC   GL239470  37.664  32.590   9.073
 3029POPC   C1A39471  37.697  32.258   8.687
 3029POPC   D2A39472  37.957  32.031   8.406
 3029POPC   C3A39473  37.808  32.072   8.022
 3029POPC   C4A39474  37.527  32.275   7.799
 3029POPC   C1B39475  37.909  32.727   8.694
 3029POPC   C2B39476  38.085  32.534   8.307
 3029POPC   C3B39477  37.936  32.545   7.897
 3029POPC   C4B39478  37.816  32.770   7.539
 3030POPC   NC339479  35.608  16.695   9.561
 3030POPC   PO439480  34.994  17.072   9.426
 3030POPC   GL139481  35.380  16.936   9.107
 3030POPC   GL239482  35.547  16.604   9.067
 3030POPC   C1A39483  35.311  16.932   8.696
 3030POPC   D2A39484  35.031  16.851   8.375
 3030POPC   C3A39485  35.256  16.891   8.025
 3030POPC   C4A39486  35.327  17.080   7.620
 3030POPC   C1B39487  35.366  16.410   8.696
 3030POPC   C2B39488  35.383  16.201   8.285
 3030POPC   C3B39489  35.456  16.351   7.864
 3030POPC   C4B39490  35.179  16.581   7.639
 3031POPC   NC339491  21.933   5.974   9.638
 3031POPC   PO439492  21.958   5.329   9.528
 3031POPC   GL139493  22.045   5.671   9.219
 3031POPC   GL239494  22.301   5.948   9.262
 3031POPC   C1A39495  22.179   5.683   8.797
 3031POPC   D2A39496  21.969   5.536   8.429
 3031POPC   C3A39497  22.071   5.704   8.048
 3031POPC   C4A39498  22.158   5.491   7.688
 3031POPC   C1B39499  22.496   6.076   8.864
 3031POPC   C2B39500  22.615   6.023   8.445
 3031POPC   C3B39501  22.443   6.056   8.053
 3031POPC   C4B39502  22.358   6.048   7.650
 3032POPC   NC339503  23.510  39.727   9.574
 3032POPC   PO439504  24.002  40.139   9.533
 3032POPC   GL139505  23.663  40.055   9.195
 3032POPC   GL239506  23.446  39.737   9.059
 3032POPC   C1A39507  23.749  40.029   8.755
 3032POPC   D2A39508  23.584  40.106   8.365
 3032POPC   C3A39509  23.872  40.169   8.047
 3032POPC   C4A39510  23.898  39.870   7.758
 3032POPC   C1B39511  23.540  39.578   8.618
 3032POPC   C2B39512  23.637  39.614   8.154
 3032POPC   C3B39513  23.544  39.531   7.691
 3032POPC   C4B39514  23.322  39.741   7.365
 3033POPC   NC339515   9.982  15.034   9.462
 3033POPC   PO439516   9.577  15.567   9.558
 3033POPC   GL139517   9.645  15.293   9.221
 3033POPC   GL239518   9.376  15.149   9.121
 3033POPC   C1A39519   9.849  15.060   8.819
 3033POPC   D2A39520   9.740  14.836   8.437
 3033POPC   C3A39521   9.917  14.858   8.041
 3033POPC   C4A39522  10.037  15.049   7.683
 3033POPC   C1B39523   9.574  15.479   8.785
 3033POPC   C2B39524   9.899  15.497   8.475
 3033POPC   C3B39525   9.811  15.364   8.075
 3033POPC   C4B39526   9.837  15.538   7.696
 3034POPC   NC339527  11.146   4.270   9.499
 3034POPC   PO439528  11.703   3.848   9.565
 3034POPC   GL139529  11.591   4.213   9.200
 3034POPC   GL239530  11.311   4.518   9.102
 3034POPC   C1A39531  11.539   4.272   8.739
 3034POPC   D2A39532  11.323   4.309   8.374
 3034POPC   C3A39533  11.580   4.228   8.010
 3034POPC   C4A39534  11.323   4.060   7.682
 3034POPC   C1B39535  10.993   4.742   8.835
 3034POPC   C2B39536  11.062   4.809   8.396
 3034POPC   C3B39537  11.229   4.630   7.991
 3034POPC   C4B39538  11.025   4.469   7.615
 3035POPC   NC339539  36.509  41.715   9.535
 3035POPC   PO439540  35.943  41.413   9.802
 3035POPC   GL139541  35.897  41.509   9.258
 3035POPC   GL239542  36.200  41.497   9.095
 3035POPC   C1A39543  35.806  41.552   8.781
 3035POPC   D2A39544  36.065  41.719   8.436
 3035POPC   C3A39545  36.121  41.605   7.967
 3035POPC   C4A39546  36.564  41.535   7.751
 3035POPC   C1B39547  36.287  41.300   8.715
 3035POPC   C2B39548  36.451  41.389   8.327
 3035POPC   C3B39549  36.357  41.158   8.013
 3035POPC   C4B39550  36.370  41.063   7.630
 3036POPC   NC339551  39.327  30.453   9.691
 3036POPC   PO439552  38.847  30.894   9.606
 3036POPC   GL139553  38.938  30.691   9.216
 3036POPC   GL239554  39.234  30.881   9.193
 3036POPC   C1A39555  39.074  30.571   8.774
 3036POPC   D2A39556  38.948  30.785   8.401
 3036POPC   C3A39557  38.819  30.679   7.992
 3036POPC   C4A39558  39.141  30.460   7.807
 3036POPC   C1B39559  39.479  31.039   8.851
 3036POPC   C2B39560  39.597  31.002   8.423
 3036POPC   C3B39561  39.446  30.851   8.039
 3036POPC   C4B39562  39.390  31.138   7.712
 3037POPC   NC339563   9.520  18.566   9.406
 3037POPC   PO439564   9.420  17.950   9.324
 3037POPC   GL139565   9.759  18.105   9.066
 3037POPC   GL239566   9.903  18.461   9.078
 3037POPC   C1A39567  10.069  18.089   8.762
 3037POPC   D2A39568  10.046  18.296   8.384
 3037POPC   C3A39569  10.059  18.102   8.035
 3037POPC   C4A39570   9.832  18.106   7.682
 3037POPC   C1B39571   9.672  18.460   8.687
 3037POPC   C2B39572   9.438  18.404   8.276
 3037POPC   C3B39573   9.464  18.417   7.830
 3037POPC   C4B39574   9.722  18.550   7.476
 3038POPC   NC339575  28.070   1.924   9.592
 3038POPC   PO439576  28.761   2.139   9.559
 3038POPC   GL139577  28.482   1.928   9.263
 3038POPC   GL239578  28.308   2.217   9.206
 3038POPC   C1A39579  28.310   1.777   8.854
 3038POPC   D2A39580  28.164   1.892   8.407
 3038POPC   C3A39581  28.348   1.903   8.014
 3038POPC   C4A39582  28.539   1.886   7.641
 3038POPC   C1B39583  28.104   2.227   8.804
 3038POPC   C2B39584  27.917   2.360   8.423
 3038POPC   C3B39585  27.947   2.260   8.001
 3038POPC   C4B39586  28.098   2.195   7.591
 3039POPC   NC339587   4.888   7.655   9.581
 3039POPC   PO439588   5.311   7.097   9.543
 3039POPC   GL139589   5.238   7.386   9.233
 3039POPC   GL239590   4.935   7.262   9.172
 3039POPC   C1A39591   5.251   7.456   8.789
 3039POPC   D2A39592   5.167   7.680   8.418
 3039POPC   C3A39593   5.403   7.594   8.070
 3039POPC   C4A39594   5.236   7.701   7.693
 3039POPC   C1B39595   4.687   7.168   8.823
 3039POPC   C2B39596   4.873   7.267   8.446
 3039POPC   C3B39597   4.881   7.459   8.050
 3039POPC   C4B39598   4.660   7.251   7.727
 3040POPC   NC339599  40.424  42.764   9.513
 3040POPC   PO439600  40.548  42.039   9.446
 3040POPC   GL139601  40.826  42.228   9.136
 3040POPC   GL239602  40.787  42.577   9.176
 3040POPC   C1A39603  40.967  42.344   8.722
 3040POPC   D2A39604  40.691  42.283   8.397
 3040POPC   C3A39605  40.800  42.143   8.017
 3040POPC   C4A39606  40.929  42.311   7.649
 3040POPC   C1B39607  40.593  42.692   8.774
 3040POPC   C2B39608  40.729  42.788   8.342
 3040POPC   C3B39609  40.595  42.614   7.933
 3040POPC   C4B39610  40.548  42.592   7.472
 3041POPC   NC339611  25.153  24.403   9.481
 3041POPC   PO439612  25.334  25.070   9.494
 3041POPC   GL139613  25.418  24.743   9.164
 3041POPC   GL239614  25.087  24.784   9.145
 3041POPC   C1A39615  25.349  24.373   8.833
 3041POPC   D2A39616  25.242  24.326   8.352
 3041POPC   C3A39617  25.513  24.589   8.060
 3041POPC   C4A39618  25.771  24.547   7.686
 3041POPC   C1B39619  24.998  24.725   8.746
 3041POPC   C2B39620  25.158  24.839   8.385
 3041POPC   C3B39621  25.033  24.772   7.978
 3041POPC   C4B39622  25.148  24.606   7.590
 3042POPC   NC339623  35.703  15.771   9.440
 3042POPC   PO439624  35.212  16.219   9.437
 3042POPC   GL139625  35.232  15.941   9.117
 3042POPC   GL239626  35.532  16.067   9.034
 3042POPC   C1A39627  35.126  15.944   8.688
 3042POPC   D2A39628  34.825  15.871   8.413
 3042POPC   C3A39629  34.924  15.790   8.011
 3042POPC   C4A39630  35.009  15.937   7.621
 3042POPC   C1B39631  35.525  15.675   8.791
 3042POPC   C2B39632  35.482  15.667   8.352
 3042POPC   C3B39633  35.443  15.840   7.925
 3042POPC   C4B39634  35.445  15.677   7.515
 3043POPC   NC339635  17.159  32.414   9.528
 3043POPC   PO439636  17.674  31.993   9.550
 3043POPC   GL139637  17.399  32.084   9.219
 3043POPC   GL239638  17.562  32.413   9.213
 3043POPC   C1A39639  17.300  32.242   8.805
 3043POPC   D2A39640  17.376  32.067   8.399
 3043POPC   C3A39641  17.378  32.311   8.093
 3043POPC   C4A39642  17.160  32.332   7.727
 3043POPC   C1B39643  17.794  32.252   8.849
 3043POPC   C2B39644  17.753  32.439   8.446
 3043POPC   C3B39645  17.848  32.484   8.022
 3043POPC   C4B39646  17.577  32.600   7.732
 3044POPC   NC339647  34.775  29.701   9.369
 3044POPC   PO439648  34.148  29.971   9.455
 3044POPC   GL139649  34.386  29.933   9.096
 3044POPC   GL239650  34.484  29.650   8.968
 3044POPC   C1A39651  34.482  30.177   8.745
 3044POPC   D2A39652  34.456  30.124   8.330
 3044POPC   C3A39653  34.705  29.808   8.180
 3044POPC   C4A39654  34.723  30.006   7.850
 3044POPC   C1B39655  34.423  29.636   8.569
 3044POPC   C2B39656  34.159  29.654   8.253
 3044POPC   C3B39657  34.269  29.761   7.876
 3044POPC   C4B39658  34.292  29.728   7.457
 3045POPC   NC339659  37.404   4.862   9.485
 3045POPC   PO439660  37.923   5.409   9.538
 3045POPC   GL139661  37.650   5.285   9.192
 3045POPC   GL239662  37.734   4.932   9.129
 3045POPC   C1A39663  37.631   5.215   8.738
 3045POPC   D2A39664  37.379   5.175   8.411
 3045POPC   C3A39665  37.640   5.281   8.104
 3045POPC   C4A39666  37.690   5.167   7.730
 3045POPC   C1B39667  37.823   4.732   8.768
 3045POPC   C2B39668  37.814   4.878   8.357
 3045POPC   C3B39669  37.849   4.711   7.941
 3045POPC   C4B39670  38.011   4.835   7.525
 3046POPC   NC339671   7.141  41.707   9.503
 3046POPC   PO439672   6.515  41.497   9.542
 3046POPC   GL139673   6.507  41.414   9.152
 3046POPC   GL239674   6.871  41.500   9.117
 3046POPC   C1A39675   6.513  41.345   8.750
 3046POPC   D2A39676   6.616  41.493   8.380
 3046POPC   C3A39677   6.450  41.297   8.011
 3046POPC   C4A39678   6.697  41.556   7.781
 3046POPC   C1B39679   7.089  41.845   8.893
 3046POPC   C2B39680   7.020  41.858   8.494
 3046POPC   C3B39681   7.086  41.627   8.135
 3046POPC   C4B39682   7.167  41.826   7.746
 3047POPC   NC339683  24.844  40.921   9.432
 3047POPC   PO439684  24.334  40.505   9.264
 3047POPC   GL139685  24.599  40.760   9.026
 3047POPC   GL239686  24.549  41.137   9.048
 3047POPC   C1A39687  24.578  40.841   8.628
 3047POPC   D2A39688  24.416  40.757   8.262
 3047POPC   C3A39689  24.668  40.875   7.943
 3047POPC   C4A39690  24.721  40.728   7.549
 3047POPC   C1B39691  24.173  41.125   8.775
 3047POPC   C2B39692  24.159  41.204   8.309
 3047POPC   C3B39693  24.185  41.011   7.885
 3047POPC   C4B39694  24.387  41.140   7.538
 3048POPC   NC339695  44.657  42.408   9.405
 3048POPC   PO439696  44.470  41.745   9.507
 3048POPC   GL139697  44.525  42.011   9.125
 3048POPC   GL239698  44.829  42.163   9.015
 3048POPC   C1A39699  44.402  42.182   8.722
 3048POPC   D2A39700  44.613  42.383   8.371
 3048POPC   C3A39701  44.502  42.359   7.967
 3048POPC   C4A39702  44.298  42.699   7.783
 3048POPC   C1B39703   0.016  42.323   8.722
 3048POPC   C2B39704   0.034  42.109   8.368
 3048POPC   C3B39705   0.020  42.379   8.037
 3048POPC   C4B39706   0.220  42.188   7.763
 3049POPC   NC339707   1.137  41.810   9.632
 3049POPC   PO439708   0.993  41.177   9.427
 3049POPC   GL139709   1.142  41.403   9.080
 3049POPC   GL239710   1.195  41.777   9.123
 3049POPC   C1A39711   1.064  41.444   8.639
 3049POPC   D2A39712   0.857  41.755   8.447
 3049POPC   C3A39713   1.031  41.874   8.067
 3049POPC   C4A39714   0.906  41.648   7.726
 3049POPC   C1B39715   1.493  41.650   8.800
 3049POPC   C2B39716   1.474  41.774   8.378
 3049POPC   C3B39717   1.436  41.566   8.005
 3049POPC   C4B39718   1.381  41.773   7.642
 3050POPC   NC339719   8.629  39.024   9.795
 3050POPC   PO439720   9.185  39.429   9.547
 3050POPC   GL139721   9.083  39.447   9.123
 3050POPC   GL239722   9.121  39.075   9.131
 3050POPC   C1A39723   8.789  39.605   8.794
 3050POPC   D2A39724   8.705  39.440   8.357
 3050POPC   C3A39725   8.996  39.538   7.986
 3050POPC   C4A39726   8.864  39.544   7.529
 3050POPC   C1B39727   9.018  39.136   8.694
 3050POPC   C2B39728   9.141  39.037   8.289
 3050POPC   C3B39729   9.055  39.064   7.850
 3050POPC   C4B39730   9.171  39.117   7.441
 3051POPC   NC339731   4.969  25.654   9.555
 3051POPC   PO439732   5.255  25.063   9.568
 3051POPC   GL139733   5.069  25.080   9.186
 3051POPC   GL239734   5.014  25.440   9.100
 3051POPC   C1A39735   5.066  25.055   8.755
 3051POPC   D2A39736   5.302  25.372   8.569
 3051POPC   C3A39737   5.304  25.343   8.131
 3051POPC   C4A39738   5.091  25.099   7.795
 3051POPC   C1B39739   4.732  25.444   8.777
 3051POPC   C2B39740   4.812  25.302   8.371
 3051POPC   C3B39741   4.837  25.536   8.003
 3051POPC   C4B39742   4.683  25.405   7.642
 3052POPC   NC339743  15.831  12.501   9.693
 3052POPC   PO439744  15.626  11.889   9.645
 3052POPC   GL139745  15.823  11.972   9.218
 3052POPC   GL239746  16.106  12.200   9.332
 3052POPC   C1A39747  15.709  12.034   8.726
 3052POPC   D2A39748  15.542  12.135   8.315
 3052POPC   C3A39749  15.667  12.026   7.892
 3052POPC   C4A39750  15.428  12.159   7.559
 3052POPC   C1B39751  16.165  12.204   8.892
 3052POPC   C2B39752  16.202  12.030   8.477
 3052POPC   C3B39753  16.141  12.175   8.050
 3052POPC   C4B39754  16.282  12.153   7.637
 3053POPC   NC339755   6.594  20.410   9.366
 3053POPC   PO439756   7.006  20.839   9.270
 3053POPC   GL139757   6.822  20.686   8.917
 3053POPC   GL239758   6.433  20.601   8.932
 3053POPC   C1A39759   6.955  20.908   8.526
 3053POPC   D2A39760   6.827  21.041   8.137
 3053POPC   C3A39761   6.600  20.745   7.936
 3053POPC   C4A39762   6.798  20.312   7.776
 3053POPC   C1B39763   6.532  20.628   8.513
 3053POPC   C2B39764   6.700  20.349   8.270
 3053POPC   C3B39765   6.351  20.312   8.030
 3053POPC   C4B39766   6.140  20.570   7.777
 3054POPC   NC339767  24.318  15.171   9.438
 3054POPC   PO439768  24.952  15.460   9.526
 3054POPC   GL139769  24.651  15.478   9.162
 3054POPC   GL239770  24.625  15.140   9.016
 3054POPC   C1A39771  24.403  15.548   8.750
 3054POPC   D2A39772  24.219  15.304   8.382
 3054POPC   C3A39773  24.479  15.186   8.043
 3054POPC   C4A39774  24.700  15.483   7.794
 3054POPC   C1B39775  24.238  14.983   8.794
 3054POPC   C2B39776  24.081  14.813   8.385
 3054POPC   C3B39777  24.032  14.865   7.952
 3054POPC   C4B39778  24.224  15.062   7.606
 3055POPC   NC339779  36.769   1.853   9.411
 3055POPC   PO439780  37.337   2.217   9.496
 3055POPC   GL139781  37.144   2.064   9.151
 3055POPC   GL239782  36.989   2.357   9.093
 3055POPC   C1A39783  36.887   1.987   8.759
 3055POPC   D2A39784  36.677   1.954   8.343
 3055POPC   C3A39785  36.923   1.950   7.978
 3055POPC   C4A39786  36.908   1.875   7.550
 3055POPC   C1B39787  37.241   2.358   8.740
 3055POPC   C2B39788  37.193   2.143   8.371
 3055POPC   C3B39789  37.194   2.368   8.009
 3055POPC   C4B39790  37.303   2.163   7.657
 3056POPC   NC339791  40.830  17.768   9.749
 3056POPC   PO439792  41.200  18.294   9.566
 3056POPC   GL139793  41.020  18.391   9.085
 3056POPC   GL239794  41.082  18.132   8.833
 3056POPC   C1A39795  40.642  18.375   8.768
 3056POPC   D2A39796  40.552  18.033   8.457
 3056POPC   C3A39797  40.706  18.180   8.040
 3056POPC   C4A39798  40.765  18.390   7.633
 3056POPC   C1B39799  41.245  18.560   8.673
 3056POPC   C2B39800  41.165  18.810   8.291
 3056POPC   C3B39801  41.151  18.524   7.951
 3056POPC   C4B39802  41.142  18.080   7.784
 3057POPC   NC339803  42.927  25.093   9.644
 3057POPC   PO439804  42.974  25.651   9.380
 3057POPC   GL139805  43.077  25.200   9.173
 3057POPC   GL239806  42.864  25.189   8.927
 3057POPC   C1A39807  43.338  25.057   8.794
 3057POPC   D2A39808  43.135  25.176   8.393
 3057POPC   C3A39809  43.386  25.282   8.028
 3057POPC   C4A39810  43.349  25.569   7.715
 3057POPC   C1B39811  42.950  25.553   8.710
 3057POPC   C2B39812  42.865  25.718   8.364
 3057POPC   C3B39813  42.896  25.486   8.031
 3057POPC   C4B39814  42.810  25.688   7.679
 3058POPC   NC339815  31.865   3.205   9.474
 3058POPC   PO439816  31.556   2.606   9.624
 3058POPC   GL139817  31.459   2.802   9.139
 3058POPC   GL239818  31.731   3.011   9.033
 3058POPC   C1A39819  31.396   3.033   8.669
 3058POPC   D2A39820  31.771   3.118   8.341
 3058POPC   C3A39821  31.680   3.013   7.939
 3058POPC   C4A39822  31.253   2.858   7.897
 3058POPC   C1B39823  31.797   2.721   8.691
 3058POPC   C2B39824  31.615   2.615   8.257
 3058POPC   C3B39825  31.497   2.392   7.838
 3058POPC   C4B39826  31.428   2.267   7.366
 3059POPC   NC339827  20.947  42.263   9.468
 3059POPC   PO439828  21.536  42.593   9.560
 3059POPC   GL139829  21.343  42.498   9.209
 3059POPC   GL239830  21.482  42.185   9.093
 3059POPC   C1A39831  21.135  42.477   8.835
 3059POPC   D2A39832  21.407  42.347   8.543
 3059POPC   C3A39833  21.370  42.394   8.127
 3059POPC   C4A39834  21.345  42.287   7.721
 3059POPC   C1B39835  21.805  42.119   8.760
 3059POPC   C2B39836  21.805  42.051   8.304
 3059POPC   C3B39837  21.786  42.011   7.857
 3059POPC   C4B39838  21.787  42.250   7.480
 3060POPC   NC339839  28.219  20.772   9.493
 3060POPC   PO439840  28.576  20.114   9.405
 3060POPC   GL139841  28.311  20.351   9.097
 3060POPC   GL239842  28.412  20.699   9.035
 3060POPC   C1A39843  28.214  20.425   8.643
 3060POPC   D2A39844  28.408  20.214   8.302
 3060POPC   C3A39845  28.452  20.367   7.901
 3060POPC   C4A39846  28.126  20.435   7.628
 3060POPC   C1B39847  28.487  20.944   8.688
 3060POPC   C2B39848  28.459  20.755   8.281
 3060POPC   C3B39849  28.304  20.879   7.888
 3060POPC   C4B39850  28.436  21.143   7.547
 3061POPC   NC339851  29.991  41.074   9.405
 3061POPC   PO439852  30.274  40.509   9.427
 3061POPC   GL139853  30.074  40.693   9.072
 3061POPC   GL239854  29.753  40.912   8.957
 3061POPC   C1A39855  30.173  40.903   8.692
 3061POPC   D2A39856  29.815  41.020   8.453
 3061POPC   C3A39857  29.793  40.840   8.074
 3061POPC   C4A39858  30.092  40.757   7.780
 3061POPC   C1B39859  29.743  40.502   8.741
 3061POPC   C2B39860  29.606  40.279   8.374
 3061POPC   C3B39861  29.719  40.337   7.962
 3061POPC   C4B39862  29.644  40.591   7.621
 3062POPC   NC339863   7.936  19.193   9.755
 3062POPC   PO439864   8.402  19.092   9.296
 3062POPC   GL139865   8.032  19.077   9.051
 3062POPC   GL239866   7.685  19.025   9.145
 3062POPC   C1A39867   8.004  19.136   8.609
 3062POPC   D2A39868   8.116  19.479   8.366
 3062POPC   C3A39869   8.491  19.333   8.173
 3062POPC   C4A39870   8.559  19.237   7.771
 3062POPC   C1B39871   7.762  18.717   8.821
 3062POPC   C2B39872   7.970  18.656   8.421
 3062POPC   C3B39873   8.078  18.854   8.019
 3062POPC   C4B39874   8.009  19.285   7.877
 3063POPC   NC339875  37.900  18.276   9.503
 3063POPC   PO439876  37.252  18.330   9.391
 3063POPC   GL139877  37.572  18.242   9.113
 3063POPC   GL239878  37.813  18.555   9.084
 3063POPC   C1A39879  37.902  18.088   8.859
 3063POPC   D2A39880  37.815  18.009   8.440
 3063POPC   C3A39881  37.783  18.335   8.165
 3063POPC   C4A39882  37.783  18.192   7.740
 3063POPC   C1B39883  37.597  18.507   8.679
 3063POPC   C2B39884  37.322  18.623   8.330
 3063POPC   C3B39885  37.484  18.656   7.899
 3063POPC   C4B39886  37.920  18.696   7.717
 3064POPC   NC339887  41.029  18.705   9.463
 3064POPC   PO439888  40.612  19.194   9.510
 3064POPC   GL139889  40.886  19.165   9.170
 3064POPC   GL239890  41.041  19.489   9.083
 3064POPC   C1A39891  40.817  18.883   8.813
 3064POPC   D2A39892  40.473  18.794   8.504
 3064POPC   C3A39893  40.654  18.709   8.086
 3064POPC   C4A39894  40.721  18.881   7.670
 3064POPC   C1B39895  40.854  19.413   8.708
 3064POPC   C2B39896  40.804  19.156   8.377
 3064POPC   C3B39897  40.851  19.263   7.987
 3064POPC   C4B39898  40.935  19.342   7.586
 3065POPC   NC339899  35.226  33.347   9.535
 3065POPC   PO439900  35.536  32.716   9.436
 3065POPC   GL139901  35.407  33.020   9.139
 3065POPC   GL239902  35.670  33.226   8.992
 3065POPC   C1A39903  35.308  32.859   8.726
 3065POPC   D2A39904  35.466  32.791   8.318
 3065POPC   C3A39905  35.151  32.758   7.981
 3065POPC   C4A39906  35.123  32.993   7.604
 3065POPC   C1B39907  35.294  33.362   8.738
 3065POPC   C2B39908  35.184  33.247   8.325
 3065POPC   C3B39909  35.442  33.200   7.988
 3065POPC   C4B39910  35.610  33.170   7.599
 3066POPC   NC339911  29.562  16.579   9.496
 3066POPC   PO439912  30.081  17.059   9.475
 3066POPC   GL139913  29.919  16.747   9.124
 3066POPC   GL239914  29.648  16.847   8.895
 3066POPC   C1A39915  30.101  16.664   8.707
 3066POPC   D2A39916  29.995  16.818   8.326
 3066POPC   C3A39917  30.090  16.545   8.016
 3066POPC   C4A39918  29.867  16.619   7.681
 3066POPC   C1B39919  29.509  17.216   8.684
 3066POPC   C2B39920  29.343  17.127   8.318
 3066POPC   C3B39921  29.509  16.832   8.046
 3066POPC   C4B39922  29.490  16.981   7.628
 3067POPC   NC339923   2.817  33.290   9.550
 3067POPC   PO439924   2.313  32.873   9.310
 3067POPC   GL139925   2.503  33.238   9.105
 3067POPC   GL239926   2.864  33.216   9.056
 3067POPC   C1A39927   2.473  33.194   8.654
 3067POPC   D2A39928   2.271  32.883   8.342
 3067POPC   C3A39929   2.578  32.898   7.996
 3067POPC   C4A39930   2.619  33.240   7.655
 3067POPC   C1B39931   3.028  33.034   8.694
 3067POPC   C2B39932   3.292  33.120   8.366
 3067POPC   C3B39933   3.307  32.956   7.980
 3067POPC   C4B39934   3.001  32.757   7.710
 3068POPC   NC339935   5.940  37.569   9.659
 3068POPC   PO439936   5.471  37.637   9.177
 3068POPC   GL139937   5.932  37.734   9.144
 3068POPC   GL239938   6.173  37.427   9.189
 3068POPC   C1A39939   6.103  37.889   8.717
 3068POPC   D2A39940   6.169  37.622   8.309
 3068POPC   C3A39941   5.995  37.652   7.850
 3068POPC   C4A39942   6.190  37.764   7.415
 3068POPC   C1B39943   5.951  37.402   8.770
 3068POPC   C2B39944   5.694  37.337   8.403
 3068POPC   C3B39945   5.788  37.218   7.997
 3068POPC   C4B39946   5.502  37.306   7.676
 3069POPC   NC339947  37.021  17.926   9.459
 3069POPC   PO439948  37.264  17.335   9.493
 3069POPC   GL139949  36.924  17.496   9.194
 3069POPC   GL239950  37.110  17.781   8.986
 3069POPC   C1A39951  36.673  17.606   8.811
 3069POPC   D2A39952  36.891  17.772   8.425
 3069POPC   C3A39953  36.793  17.511   8.072
 3069POPC   C4A39954  36.458  17.265   7.922
 3069POPC   C1B39955  37.169  17.383   8.760
 3069POPC   C2B39956  37.125  17.220   8.357
 3069POPC   C3B39957  37.300  17.358   7.971
 3069POPC   C4B39958  37.176  17.747   7.816
 3070POPC   NC339959  39.299   2.477   9.633
 3070POPC   PO439960  39.079   3.126   9.446
 3070POPC   GL139961  39.151   2.864   9.074
 3070POPC   GL239962  39.492   2.736   9.102
 3070POPC   C1A39963  39.139   2.627   8.676
 3070POPC   D2A39964  39.475   2.471   8.400
 3070POPC   C3A39965  39.324   2.460   7.999
 3070POPC   C4A39966  39.302   2.607   7.592
 3070POPC   C1B39967  39.528   2.952   8.683
 3070POPC   C2B39968  39.283   3.084   8.305
 3070POPC   C3B39969  39.079   2.933   7.928
 3070POPC   C4B39970  38.876   2.860   7.534
 3071POPC   NC339971  18.677  10.777   9.360
 3071POPC   PO439972  18.144  10.399   9.530
 3071POPC   GL139973  18.310  10.496   9.152
 3071POPC   GL239974  18.010  10.498   9.005
 3071POPC   C1A39975  18.390  10.721   8.742
 3071POPC   D2A39976  18.209  10.789   8.317
 3071POPC   C3A39977  18.465  10.680   7.965
 3071POPC   C4A39978  18.533  10.664   7.496
 3071POPC   C1B39979  17.920  10.146   8.760
 3071POPC   C2B39980  17.848  10.177   8.340
 3071POPC   C3B39981  17.993  10.394   8.001
 3071POPC   C4B39982  18.273  10.304   7.700
 3072POPC   NC339983  23.208  30.032   9.406
 3072POPC   PO439984  23.860  29.732   9.550
 3072POPC   GL139985  23.584  29.745   9.193
 3072POPC   GL239986  23.580  30.031   9.056
 3072POPC   C1A39987  23.679  29.670   8.723
 3072POPC   D2A39988  23.962  29.869   8.423
 3072POPC   C3A39989  23.756  29.891   8.060
 3072POPC   C4A39990  23.684  29.733   7.696
 3072POPC   C1B39991  23.714  30.223   8.673
 3072POPC   C2B39992  24.021  30.368   8.381
 3072POPC   C3B39993  24.077  30.260   7.944
 3072POPC   C4B39994  23.768  30.346   7.638
 3073POPC   NC339995  10.810   2.567   9.453
 3073POPC   PO439996  10.357   3.020   9.528
 3073POPC   GL139997  10.610   2.950   9.185
 3073POPC   GL239998  10.456   3.190   9.062
 3073POPC   C1A39999  10.746   2.769   8.796
 3073POPC   D2A40000  10.523   2.580   8.465
 3073POPC   C3A40001  10.604   2.480   8.082
 3073POPC   C4A40002  10.840   2.674   7.778
 3073POPC   C1B40003  10.311   3.012   8.699
 3073POPC   C2B40004  10.207   2.975   8.299
 3073POPC   C3B40005  10.393   2.921   7.917
 3073POPC   C4B40006  10.197   3.204   7.638
 3074POPC   NC340007   2.631   9.924   9.405
 3074POPC   PO440008   3.250   9.554   9.433
 3074POPC   GL140009   3.020   9.666   9.050
 3074POPC   GL240010   2.700   9.513   9.015
 3074POPC   C1A40011   2.958   9.535   8.587
 3074POPC   D2A40012   2.870   9.331   8.176
 3074POPC   C3A40013   3.135   9.550   7.890
 3074POPC   C4A40014   3.195  10.010   7.806
 3074POPC   C1B40015   2.531   9.785   8.699
 3074POPC   C2B40016   2.701   9.988   8.329
 3074POPC   C3B40017   2.729   9.853   7.915
 3074POPC   C4B40018   2.606   9.492   7.722
 3075POPC   NC340019  19.581  37.360   9.370
 3075POPC   PO440020  20.039  37.893   9.475
 3075POPC   GL140021  19.923  37.683   9.133
 3075POPC   GL240022  19.628  37.890   9.096
 3075POPC   C1A40023  20.086  37.450   8.788
 3075POPC   D2A40024  19.945  37.399   8.386
 3075POPC   C3A40025  20.120  37.504   8.013
 3075POPC   C4A40026  19.841  37.717   7.743
 3075POPC   C1B40027  19.660  37.754   8.676
 3075POPC   C2B40028  19.666  37.794   8.228
 3075POPC   C3B40029  19.359  37.716   7.961
 3075POPC   C4B40030  19.377  37.805   7.572
 3076POPC   NC340031  29.063   9.540   9.345
 3076POPC   PO440032  29.649   9.930   9.404
 3076POPC   GL140033  29.445   9.750   9.097
 3076POPC   GL240034  29.164  10.008   9.155
 3076POPC   C1A40035  29.272   9.562   8.704
 3076POPC   D2A40036  28.893   9.583   8.445
 3076POPC   C3A40037  29.002   9.583   8.036
 3076POPC   C4A40038  29.381   9.429   7.856
 3076POPC   C1B40039  29.328  10.084   8.749
 3076POPC   C2B40040  29.197   9.981   8.342
 3076POPC   C3B40041  29.400   9.985   7.959
 3076POPC   C4B40042  29.310  10.158   7.563
 3077POPC   NC340043  43.336  32.682   9.377
 3077POPC   PO440044  42.947  33.242   9.455
 3077POPC   GL140045  43.164  33.096   9.140
 3077POPC   GL240046  43.006  32.776   9.003
 3077POPC   C1A40047  43.335  33.129   8.776
 3077POPC   D2A40048  43.258  33.038   8.373
 3077POPC   C3A40049  43.374  33.218   7.988
 3077POPC   C4A40050  43.005  33.345   7.792
 3077POPC   C1B40051  43.383  32.596   8.744
 3077POPC   C2B40052  43.523  32.606   8.313
 3077POPC   C3B40053  43.293  32.723   7.963
 3077POPC   C4B40054  43.188  32.497   7.638
 3078POPC   NC340055  20.161  24.717   9.379
 3078POPC   PO440056  19.745  24.147   9.408
 3078POPC   GL140057  19.712  24.427   9.048
 3078POPC   GL240058  19.780  24.778   9.039
 3078POPC   C1A40059  19.789  24.493   8.609
 3078POPC   D2A40060  19.590  24.402   8.236
 3078POPC   C3A40061  19.935  24.261   8.010
 3078POPC   C4A40062  19.998  24.259   7.598
 3078POPC   C1B40063  19.573  24.943   8.674
 3078POPC   C2B40064  19.708  24.969   8.243
 3078POPC   C3B40065  19.836  24.745   7.879
 3078POPC   C4B40066  19.644  24.622   7.514
 3079POPC   NC340067  36.128  34.821   9.592
 3079POPC   PO440068  35.932  34.199   9.436
 3079POPC   GL140069  36.190  34.456   9.142
 3079POPC   GL240070  36.190  34.848   9.072
 3079POPC   C1A40071  36.198  34.548   8.699
 3079POPC   D2A40072  36.091  34.827   8.376
 3079POPC   C3A40073  36.123  34.562   8.032
 3079POPC   C4A40074  36.198  34.360   7.647
 3079POPC   C1B40075  36.503  34.951   8.695
 3079POPC   C2B40076  36.623  34.794   8.247
 3079POPC   C3B40077  36.516  34.794   7.787
 3079POPC   C4B40078  36.099  34.870   7.592
 3080POPC   NC340079  16.852   4.347   9.642
 3080POPC   PO440080  17.529   4.531   9.645
 3080POPC   GL140081  17.200   4.583   9.284
 3080POPC   GL240082  16.982   4.268   9.162
 3080POPC   C1A40083  17.106   4.634   8.824
 3080POPC   D2A40084  16.732   4.629   8.574
 3080POPC   C3A40085  16.726   4.524   8.144
 3080POPC   C4A40086  16.653   4.483   7.710
 3080POPC   C1B40087  16.804   4.132   8.747
 3080POPC   C2B40088  16.751   4.002   8.299
 3080POPC   C3B40089  16.437   4.098   7.971
 3080POPC   C4B40090  16.335   4.139   7.526
 3081POPC   NC340091  24.192  36.551   9.297
 3081POPC   PO440092  24.432  37.112   9.698
 3081POPC   GL140093  24.474  36.986   9.237
 3081POPC   GL240094  24.668  36.648   9.175
 3081POPC   C1A40095  24.334  37.082   8.789
 3081POPC   D2A40096  24.554  37.022   8.380
 3081POPC   C3A40097  24.413  37.037   7.966
 3081POPC   C4A40098  24.478  36.762   7.612
 3081POPC   C1B40099  24.818  36.861   8.787
 3081POPC   C2B40100  25.032  36.834   8.372
 3081POPC   C3B40101  24.904  36.869   7.930
 3081POPC   C4B40102  24.980  36.593   7.554
 3082POPC   NC340103  22.462   3.694   9.509
 3082POPC   PO440104  21.805   3.674   9.724
 3082POPC   GL140105  21.939   3.417   9.310
 3082POPC   GL240106  22.294   3.283   9.267
 3082POPC   C1A40107  22.020   3.314   8.846
 3082POPC   D2A40108  22.087   3.614   8.486
 3082POPC   C3A40109  21.904   3.488   8.077
 3082POPC   C4A40110  22.013   3.580   7.650
 3082POPC   C1B40111  22.541   3.303   8.879
 3082POPC   C2B40112  22.483   3.264   8.443
 3082POPC   C3B40113  22.426   3.490   8.083
 3082POPC   C4B40114  22.469   3.342   7.704
 3083POPC   NC340115   4.370   9.793   9.534
 3083POPC   PO440116   4.390   9.104   9.467
 3083POPC   GL140117   4.265   8.887   9.082
 3083POPC   GL240118   4.555   8.723   8.964
 3083POPC   C1A40119   4.208   8.953   8.655
 3083POPC   D2A40120   4.265   9.278   8.416
 3083POPC   C3A40121   4.053   9.313   8.032
 3083POPC   C4A40122   4.208   9.011   7.767
 3083POPC   C1B40123   4.502   8.542   8.607
 3083POPC   C2B40124   4.311   8.635   8.247
 3083POPC   C3B40125   4.569   8.676   7.911
 3083POPC   C4B40126   4.473   8.690   7.481
 3084POPC   NC340127   8.196   8.728   9.529
 3084POPC   PO440128   8.449   9.317   9.706
 3084POPC   GL140129   8.240   9.194   9.289
 3084POPC   GL240130   8.222   9.472   9.095
 3084POPC   C1A40131   8.168   8.969   8.846
 3084POPC   D2A40132   8.326   8.586   8.607
 3084POPC   C3A40133   8.499   8.704   8.205
 3084POPC   C4A40134   8.293   8.856   7.864
 3084POPC   C1B40135   8.341   9.395   8.673
 3084POPC   C2B40136   8.163   9.124   8.320
 3084POPC   C3B40137   8.007   9.252   7.895
 3084POPC   C4B40138   8.251   9.203   7.483
 3085POPC   NC340139  42.876  21.609   9.425
 3085POPC   PO440140  43.432  21.647   9.116
 3085POPC   GL140141  43.114  21.352   9.028
 3085POPC   GL240142  42.733  21.338   9.032
 3085POPC   C1A40143  43.020  21.064   8.702
 3085POPC   D2A40144  42.966  21.140   8.301
 3085POPC   C3A40145  43.271  21.368   8.115
 3085POPC   C4A40146  43.384  21.240   7.745
 3085POPC   C1B40147  42.846  21.724   8.781
 3085POPC   C2B40148  42.884  21.692   8.327
 3085POPC   C3B40149  42.823  21.488   7.920
 3085POPC   C4B40150  43.056  21.600   7.560
 3086POPC   NC340151   0.157  35.083   9.506
 3086POPC   PO440152   0.541  35.577   9.533
 3086POPC   GL140153   0.492  35.273   9.124
 3086POPC   GL240154   0.453  34.876   9.114
 3086POPC   C1A40155   0.346  35.314   8.666
 3086POPC   D2A40156   0.187  35.421   8.232
 3086POPC   C3A40157   0.546  35.519   7.997
 3086POPC   C4A40158   0.780  35.458   7.616
 3086POPC   C1B40159   0.438  34.826   8.657
 3086POPC   C2B40160   0.432  34.961   8.190
 3086POPC   C3B40161   0.388  35.118   7.737
 3086POPC   C4B40162   0.355  35.306   7.313
 3087POPC   NC340163  10.812  23.202   9.369
 3087POPC   PO440164  10.235  22.888   9.355
 3087POPC   GL140165  10.426  23.059   9.033
 3087POPC   GL240166  10.746  22.882   8.949
 3087POPC   C1A40167  10.403  23.092   8.608
 3087POPC   D2A40168  10.591  23.201   8.283
 3087POPC   C3A40169  10.328  23.173   7.976
 3087POPC   C4A40170  10.435  23.061   7.575
 3087POPC   C1B40171  10.593  22.582   8.624
 3087POPC   C2B40172  10.507  22.561   8.182
 3087POPC   C3B40173  10.732  22.806   7.895
 3087POPC   C4B40174  11.102  22.804   7.659
 3088POPC   NC340175  36.581  22.488   9.617
 3088POPC   PO440176  36.947  21.968   9.345
 3088POPC   GL140177  36.850  22.311   9.113
 3088POPC   GL240178  36.612  22.551   9.120
 3088POPC   C1A40179  36.945  22.234   8.704
 3088POPC   D2A40180  36.838  21.978   8.398
 3088POPC   C3A40181  37.118  22.053   8.070
 3088POPC   C4A40182  36.918  22.124   7.676
 3088POPC   C1B40183  36.494  22.459   8.711
 3088POPC   C2B40184  36.688  22.513   8.343
 3088POPC   C3B40185  36.716  22.501   7.930
 3088POPC   C4B40186  36.519  22.427   7.521
 3089POPC   NC340187  15.170   3.177   9.709
 3089POPC   PO440188  15.380   2.558   9.589
 3089POPC   GL140189  15.238   2.435   9.174
 3089POPC   GL240190  14.899   2.289   9.128
 3089POPC   C1A40191  15.306   2.735   8.844
 3089POPC   D2A40192  15.492   2.874   8.464
 3089POPC   C3A40193  15.232   2.836   8.109
 3089POPC   C4A40194  15.092   3.087   7.743
 3089POPC   C1B40195  14.987   2.373   8.689
 3089POPC   C2B40196  15.359   2.375   8.417
 3089POPC   C3B40197  15.493   2.393   8.006
 3089POPC   C4B40198  15.301   2.617   7.659
 3090POPC   NC340199  32.031  21.527   9.748
 3090POPC   PO440200  32.626  21.427   9.467
 3090POPC   GL140201  32.276  21.524   9.193
 3090POPC   GL240202  31.961  21.719   9.058
 3090POPC   C1A40203  32.251  21.318   8.786
 3090POPC   D2A40204  32.387  21.540   8.455
 3090POPC   C3A40205  32.394  21.410   8.038
 3090POPC   C4A40206  32.683  21.573   7.766
 3090POPC   C1B40207  31.776  21.495   8.672
 3090POPC   C2B40208  31.908  21.337   8.262
 3090POPC   C3B40209  31.893  21.582   7.870
 3090POPC   C4B40210  31.802  21.460   7.434
 3091POPC   NC340211  12.191  36.429  10.030
 3091POPC   PO440212  12.028  35.914   9.595
 3091POPC   GL140213  12.010  35.991   9.130
 3091POPC   GL240214  12.251  36.283   9.040
 3091POPC   C1A40215  11.812  36.211   8.756
 3091POPC   D2A40216  11.993  36.376   8.358
 3091POPC   C3A40217  11.834  36.186   7.951
 3091POPC   C4A40218  11.739  36.320   7.495
 3091POPC   C1B40219  12.275  35.989   8.673
 3091POPC   C2B40220  12.163  35.900   8.259
 3091POPC   C3B40221  12.280  35.992   7.860
 3091POPC   C4B40222  12.622  35.858   7.672
 3092POPC   NC340223   1.101  18.723   9.449
 3092POPC   PO440224   1.288  19.376   9.512
 3092POPC   GL140225   1.144  19.168   9.169
 3092POPC   GL240226   1.406  18.966   9.084
 3092POPC   C1A40227   1.037  19.045   8.742
 3092POPC   D2A40228   1.208  19.235   8.382
 3092POPC   C3A40229   1.049  19.265   7.981
 3092POPC   C4A40230   1.206  19.266   7.537
 3092POPC   C1B40231   1.488  18.759   8.696
 3092POPC   C2B40232   1.565  18.896   8.259
 3092POPC   C3B40233   1.288  18.817   7.900
 3092POPC   C4B40234   1.452  18.778   7.466
 3093POPC   NC340235   7.848  16.663   9.482
 3093POPC   PO440236   8.506  16.465   9.394
 3093POPC   GL140237   8.190  16.726   9.091
 3093POPC   GL240238   7.927  16.520   8.992
 3093POPC   C1A40239   7.923  16.898   8.667
 3093POPC   D2A40240   8.192  16.997   8.305
 3093POPC   C3A40241   8.259  16.837   7.904
 3093POPC   C4A40242   7.837  16.896   7.826
 3093POPC   C1B40243   8.274  16.556   8.626
 3093POPC   C2B40244   8.010  16.504   8.236
 3093POPC   C3B40245   8.103  16.330   7.828
 3093POPC   C4B40246   8.424  16.462   7.545
 3094POPC   NC340247   7.468  32.289   9.413
 3094POPC   PO440248   6.944  32.670   9.482
 3094POPC   GL140249   7.149  32.514   9.092
 3094POPC   GL240250   7.221  32.168   8.985
 3094POPC   C1A40251   7.184  32.567   8.656
 3094POPC   D2A40252   7.478  32.444   8.365
 3094POPC   C3A40253   7.277  32.204   8.058
 3094POPC   C4A40254   7.387  32.323   7.690
 3094POPC   C1B40255   7.607  32.042   8.766
 3094POPC   C2B40256   7.589  31.926   8.371
 3094POPC   C3B40257   7.723  31.830   8.007
 3094POPC   C4B40258   7.681  31.924   7.618
 3095POPC   NC340259  10.989  40.713   9.610
 3095POPC   PO440260  11.679  40.932   9.537
 3095POPC   GL140261  11.382  40.848   9.179
 3095POPC   GL240262  11.073  40.603   9.124
 3095POPC   C1A40263  11.301  40.965   8.753
 3095POPC   D2A40264  11.307  40.763   8.353
 3095POPC   C3A40265  11.336  40.936   7.923
 3095POPC   C4A40266  11.096  40.921   7.544
 3095POPC   C1B40267  11.295  40.437   8.776
 3095POPC   C2B40268  11.195  40.272   8.356
 3095POPC   C3B40269  11.307  40.401   7.957
 3095POPC   C4B40270  11.065  40.422   7.633
 3096POPC   NC340271  30.286  10.369   9.261
 3096POPC   PO440272  29.954  10.843   9.675
 3096POPC   GL140273  29.623  10.796   9.243
 3096POPC   GL240274  29.518  10.444   9.119
 3096POPC   C1A40275  29.646  10.794   8.738
 3096POPC   D2A40276  29.878  10.567   8.363
 3096POPC   C3A40277  29.923  10.658   7.887
 3096POPC   C4A40278  30.195  10.605   7.519
 3096POPC   C1B40279  29.802  10.259   8.808
 3096POPC   C2B40280  29.743  10.060   8.407
 3096POPC   C3B40281  29.927  10.147   8.018
 3096POPC   C4B40282  29.819  10.207   7.615
 3097POPC   NC340283   0.256  25.719   9.460
 3097POPC   PO440284   0.410  25.122   9.481
 3097POPC   GL140285   0.453  25.330   9.111
 3097POPC   GL240286   0.797  25.390   9.077
 3097POPC   C1A40287   0.355  25.581   8.762
 3097POPC   D2A40288   0.529  25.645   8.353
 3097POPC   C3A40289   0.403  25.397   8.033
 3097POPC   C4A40290   0.252  25.557   7.680
 3097POPC   C1B40291   0.761  25.296   8.636
 3097POPC   C2B40292   0.858  25.220   8.202
 3097POPC   C3B40293   0.729  25.064   7.827
 3097POPC   C4B40294   0.709  25.334   7.543
 3098POPC   NC340295  21.263  39.551   9.836
 3098POPC   PO440296  21.520  40.106   9.641
 3098POPC   GL140297  21.478  39.799   9.299
 3098POPC   GL240298  21.556  40.047   9.071
 3098POPC   C1A40299  21.447  39.581   8.876
 3098POPC   D2A40300  21.616  39.739   8.480
 3098POPC   C3A40301  21.475  39.660   8.093
 3098POPC   C4A40302  21.481  39.910   7.746
 3098POPC   C1B40303  21.175  40.293   8.955
 3098POPC   C2B40304  20.999  40.376   8.547
 3098POPC   C3B40305  21.165  40.365   8.130
 3098POPC   C4B40306  21.099  40.289   7.684
 3099POPC   NC340307   9.133  10.245   9.302
 3099POPC   PO440308   8.753   9.841   9.603
 3099POPC   GL140309   8.695   9.647   9.196
 3099POPC   GL240310   8.872   9.886   9.071
 3099POPC   C1A40311   8.873   9.512   8.730
 3099POPC   D2A40312   9.122   9.643   8.343
 3099POPC   C3A40313   9.035   9.401   7.946
 3099POPC   C4A40314   8.808   9.516   7.577
 3099POPC   C1B40315   8.892  10.033   8.671
 3099POPC   C2B40316   8.862  10.141   8.264
 3099POPC   C3B40317   8.846   9.877   7.949
 3099POPC   C4B40318   8.621  10.095   7.662
 3100POPC   NC340319  40.521  41.575   9.518
 3100POPC   PO440320  39.832  41.608   9.500
 3100POPC   GL140321  39.976  41.413   9.119
 3100POPC   GL240322  40.356  41.325   9.095
 3100POPC   C1A40323  39.896  41.333   8.682
 3100POPC   D2A40324  40.081  41.475   8.288
 3100POPC   C3A40325  39.839  41.577   7.907
 3100POPC   C4A40326  39.644  41.505   7.518
 3100POPC   C1B40327  40.290  41.669   8.804
 3100POPC   C2B40328  40.365  41.886   8.420
 3100POPC   C3B40329  40.454  41.752   7.999
 3100POPC   C4B40330  40.312  41.349   7.847
 3101POPC   NC340331  17.427  37.661   9.571
 3101POPC   PO440332  17.569  38.259   9.587
 3101POPC   GL140333  17.611  37.989   9.185
 3101POPC   GL240334  17.644  37.581   9.127
 3101POPC   C1A40335  17.357  37.882   8.816
 3101POPC   D2A40336  17.033  37.717   8.538
 3101POPC   C3A40337  17.196  37.647   8.111
 3101POPC   C4A40338  17.134  37.634   7.649
 3101POPC   C1B40339  17.658  37.481   8.679
 3101POPC   C2B40340  17.947  37.731   8.398
 3101POPC   C3B40341  17.949  37.897   7.967
 3101POPC   C4B40342  17.633  37.615   7.746
 3102POPC   NC340343   4.486  37.123   9.648
 3102POPC   PO440344   4.218  36.559   9.480
 3102POPC   GL140345   4.365  36.703   9.120
 3102POPC   GL240346   4.593  37.022   9.151
 3102POPC   C1A40347   4.335  36.482   8.732
 3102POPC   D2A40348   4.512  36.428   8.328
 3102POPC   C3A40349   4.425  36.626   7.942
 3102POPC   C4A40350   4.090  36.859   7.802
 3102POPC   C1B40351   4.590  36.925   8.729
 3102POPC   C2B40352   4.280  36.916   8.421
 3102POPC   C3B40353   4.322  37.191   8.101
 3102POPC   C4B40354   4.540  37.094   7.754
 3103POPC   NC340355  18.834  20.978   9.430
 3103POPC   PO440356  19.271  20.456   9.449
 3103POPC   GL140357  19.224  20.739   9.114
 3103POPC   GL240358  19.379  21.068   9.163
 3103POPC   C1A40359  18.943  20.808   8.760
 3103POPC   D2A40360  18.662  20.552   8.488
 3103POPC   C3A40361  18.864  20.477   8.084
 3103POPC   C4A40362  18.929  20.134   7.803
 3103POPC   C1B40363  19.470  20.942   8.717
 3103POPC   C2B40364  19.273  20.916   8.356
 3103POPC   C3B40365  19.128  20.933   7.982
 3103POPC   C4B40366  18.813  20.857   7.720
 3104POPC   NC340367   9.088  23.275   9.305
 3104POPC   PO440368   8.886  22.663   9.542
 3104POPC   GL140369   8.982  22.763   9.152
 3104POPC   GL240370   9.317  22.810   9.216
 3104POPC   C1A40371   8.848  22.878   8.747
 3104POPC   D2A40372   8.934  22.633   8.403
 3104POPC   C3A40373   8.860  22.809   8.020
 3104POPC   C4A40374   8.786  23.193   7.870
 3104POPC   C1B40375   9.354  22.969   8.764
 3104POPC   C2B40376   9.152  23.134   8.350
 3104POPC   C3B40377   9.315  23.054   7.900
 3104POPC   C4B40378   9.489  22.821   7.514
 3105POPC   NC340379   9.227   4.508   9.361
 3105POPC   PO440380   8.971   5.102   9.483
 3105POPC   GL140381   9.041   5.005   9.082
 3105POPC   GL240382   8.816   4.743   9.046
 3105POPC   C1A40383   9.134   5.196   8.681
 3105POPC   D2A40384   8.951   5.264   8.250
 3105POPC   C3A40385   9.255   5.213   7.957
 3105POPC   C4A40386   9.558   4.888   7.880
 3105POPC   C1B40387   8.732   4.903   8.606
 3105POPC   C2B40388   8.610   4.914   8.195
 3105POPC   C3B40389   8.861   4.929   7.851
 3105POPC   C4B40390   8.824   5.246   7.592
 3106POPC   NC340391  12.358  43.040   9.497
 3106POPC   PO440392  11.639  42.902   9.448
 3106POPC   GL140393  11.934  43.065   9.129
 3106POPC   GL240394  12.196  42.845   9.065
 3106POPC   C1A40395  12.063  43.370   8.788
 3106POPC   D2A40396  11.990  43.629   8.421
 3106POPC   C3A40397  12.120  43.403   8.084
 3106POPC   C4A40398  11.999  43.115   7.782
 3106POPC   C1B40399  12.069  42.881   8.647
 3106POPC   C2B40400  12.225  42.937   8.249
 3106POPC   C3B40401  12.167  42.645   7.907
 3106POPC   C4B40402  12.194  42.702   7.476
 3107POPC   NC340403  37.305  29.328   9.821
 3107POPC   PO440404  37.128  28.898   9.335
 3107POPC   GL140405  36.822  29.009   9.079
 3107POPC   GL240406  36.650  29.332   9.125
 3107POPC   C1A40407  36.969  28.997   8.676
 3107POPC   D2A40408  36.906  28.842   8.279
 3107POPC   C3A40409  37.122  29.001   7.927
 3107POPC   C4A40410  37.044  29.271   7.556
 3107POPC   C1B40411  36.886  29.491   8.749
 3107POPC   C2B40412  37.077  29.351   8.345
 3107POPC   C3B40413  36.818  29.411   8.004
 3107POPC   C4B40414  36.746  29.726   7.740
 3108POPC   NC340415   5.737  28.997   9.548
 3108POPC   PO440416   5.971  29.650   9.551
 3108POPC   GL140417   5.914  29.311   9.176
 3108POPC   GL240418   6.137  29.079   8.955
 3108POPC   C1A40419   5.651  29.162   8.784
 3108POPC   D2A40420   5.580  29.085   8.301
 3108POPC   C3A40421   5.840  29.342   7.988
 3108POPC   C4A40422   6.214  29.301   7.707
 3108POPC   C1B40423   5.973  28.747   8.665
 3108POPC   C2B40424   6.032  28.575   8.245
 3108POPC   C3B40425   5.906  28.857   7.884
 3108POPC   C4B40426   5.508  29.025   7.750
 3109POPC   NC340427  43.552  19.859   9.430
 3109POPC   PO440428  44.258  19.547   9.507
 3109POPC   GL140429  44.096  19.613   9.054
 3109POPC   GL240430  43.764  19.603   9.046
 3109POPC   C1A40431  44.082  19.964   8.728
 3109POPC   D2A40432  44.224  19.895   8.304
 3109POPC   C3A40433  44.085  19.969   7.909
 3109POPC   C4A40434  43.762  20.179   7.737
 3109POPC   C1B40435  43.723  19.633   8.636
 3109POPC   C2B40436  43.437  19.768   8.377
 3109POPC   C3B40437  43.544  19.754   7.940
 3109POPC   C4B40438  43.843  19.616   7.635
 3110POPC   NC340439  20.638  20.068   9.430
 3110POPC   PO440440  20.949  19.542   9.635
 3110POPC   GL140441  20.873  19.508   9.204
 3110POPC   GL240442  20.532  19.627   9.192
 3110POPC   C1A40443  20.884  19.707   8.786
 3110POPC   D2A40444  21.027  19.815   8.342
 3110POPC   C3A40445  20.717  19.877   8.044
 3110POPC   C4A40446  20.715  20.183   7.730
 3110POPC   C1B40447  20.365  19.756   8.789
 3110POPC   C2B40448  20.252  19.713   8.356
 3110POPC   C3B40449  20.225  19.730   7.909
 3110POPC   C4B40450  20.528  19.724   7.553
 3111POPC   NC340451   3.743  17.107   9.408
 3111POPC   PO440452   3.139  17.479   9.498
 3111POPC   GL140453   3.389  17.454   9.153
 3111POPC   GL240454   3.267  17.131   9.099
 3111POPC   C1A40455   3.603  17.564   8.750
 3111POPC   D2A40456   3.475  17.610   8.303
 3111POPC   C3A40457   3.727  17.650   7.914
 3111POPC   C4A40458   4.093  17.471   7.768
 3111POPC   C1B40459   3.208  17.232   8.665
 3111POPC   C2B40460   3.360  17.081   8.275
 3111POPC   C3B40461   3.679  17.132   7.948
 3111POPC   C4B40462   3.605  17.316   7.551
 3112POPC   NC340463  35.511  23.976   9.265
 3112POPC   PO440464  34.975  23.735   9.656
 3112POPC   GL140465  35.234  23.566   9.221
 3112POPC   GL240466  35.159  23.292   9.118
 3112POPC   C1A40467  35.480  23.536   8.778
 3112POPC   D2A40468  35.282  23.748   8.418
 3112POPC   C3A40469  35.478  24.000   8.079
 3112POPC   C4A40470  35.381  23.782   7.738
 3112POPC   C1B40471  34.995  23.381   8.761
 3112POPC   C2B40472  35.055  23.207   8.397
 3112POPC   C3B40473  35.127  23.421   8.030
 3112POPC   C4B40474  34.921  23.539   7.685
 3113POPC   NC340475  29.259  38.818   9.377
 3113POPC   PO440476  29.334  39.541   9.468
 3113POPC   GL140477  29.162  39.499   9.095
 3113POPC   GL240478  29.030  39.156   9.064
 3113POPC   C1A40479  29.223  39.467   8.703
 3113POPC   D2A40480  29.365  39.231   8.442
 3113POPC   C3A40481  29.210  39.319   8.071
 3113POPC   C4A40482  29.439  39.309   7.721
 3113POPC   C1B40483  28.874  39.079   8.638
 3113POPC   C2B40484  29.027  38.873   8.286
 3113POPC   C3B40485  28.927  38.784   7.908
 3113POPC   C4B40486  29.005  39.086   7.634
 3114POPC   NC340487  41.610  23.149   9.774
 3114POPC   PO440488  41.270  23.677   9.536
 3114POPC   GL140489  41.481  23.716   9.142
 3114POPC   GL240490  41.708  23.458   9.101
 3114POPC   C1A40491  41.653  23.873   8.737
 3114POPC   D2A40492  41.954  23.811   8.395
 3114POPC   C3A40493  41.809  24.051   8.062
 3114POPC   C4A40494  41.587  23.852   7.761
 3114POPC   C1B40495  41.532  23.374   8.721
 3114POPC   C2B40496  41.220  23.301   8.440
 3114POPC   C3B40497  41.329  23.418   8.041
 3114POPC   C4B40498  41.629  23.333   7.769
 3115POPC   NC340499   5.966  11.754   9.487
 3115POPC   PO440500   5.596  12.283   9.422
 3115POPC   GL140501   5.806  12.078   9.111
 3115POPC   GL240502   6.127  12.092   9.152
 3115POPC   C1A40503   5.915  11.962   8.701
 3115POPC   D2A40504   6.185  12.043   8.380
 3115POPC   C3A40505   5.945  11.845   8.112
 3115POPC   C4A40506   5.905  11.801   7.679
 3115POPC   C1B40507   6.163  12.388   8.826
 3115POPC   C2B40508   6.436  12.479   8.496
 3115POPC   C3B40509   6.336  12.531   8.077
 3115POPC   C4B40510   6.042  12.267   7.864
 3116POPC   NC340511  19.041   5.392   9.513
 3116POPC   PO440512  18.947   4.741   9.559
 3116POPC   GL140513  18.950   5.024   9.169
 3116POPC   GL240514  19.265   5.223   9.084
 3116POPC   C1A40515  19.051   4.891   8.732
 3116POPC   D2A40516  19.248   4.816   8.352
 3116POPC   C3A40517  19.100   5.153   8.153
 3116POPC   C4A40518  19.021   5.217   7.786
 3116POPC   C1B40519  18.948   5.376   8.765
 3116POPC   C2B40520  18.773   5.506   8.393
 3116POPC   C3B40521  18.608   5.411   8.018
 3116POPC   C4B40522  18.669   5.620   7.637
 3117POPC   NC340523  13.480  21.351   9.598
 3117POPC   PO440524  12.824  21.443   9.545
 3117POPC   GL140525  12.730  21.377   9.100
 3117POPC   GL240526  13.065  21.278   9.045
 3117POPC   C1A40527  12.692  21.030   8.752
 3117POPC   D2A40528  12.862  20.928   8.345
 3117POPC   C3A40529  12.771  21.289   8.083
 3117POPC   C4A40530  12.785  21.382   7.679
 3117POPC   C1B40531  12.991  21.439   8.642
 3117POPC   C2B40532  13.202  21.343   8.292
 3117POPC   C3B40533  13.274  21.435   7.900
 3117POPC   C4B40534  13.159  21.762   7.639
 3118POPC   NC340535  44.847  20.588   9.468
 3118POPC   PO440536  44.133  20.417   9.301
 3118POPC   GL140537  44.459  20.647   9.136
 3118POPC   GL240538  44.619  20.321   9.080
 3118POPC   C1A40539  44.675  20.774   8.758
 3118POPC   D2A40540  44.808  20.588   8.355
 3118POPC   C3A40541  44.604  20.819   8.032
 3118POPC   C4A40542  44.815  20.999   7.695
 3118POPC   C1B40543  44.979  20.349   8.834
 3118POPC   C2B40544   0.123  20.195   8.472
 3118POPC   C3B40545   0.030  20.198   8.034
 3118POPC   C4B40546  44.811  20.473   7.750
 3119POPC   NC340547  34.210  31.084   9.488
 3119POPC   PO440548  34.711  31.532   9.671
 3119POPC   GL140549  34.436  31.433   9.199
 3119POPC   GL240550  34.491  31.658   8.918
 3119POPC   C1A40551  34.499  31.190   8.771
 3119POPC   D2A40552  34.755  31.316   8.393
 3119POPC   C3A40553  34.596  31.297   7.970
 3119POPC   C4A40554  34.226  31.332   7.724
 3119POPC   C1B40555  34.887  31.752   8.746
 3119POPC   C2B40556  35.091  31.715   8.382
 3119POPC   C3B40557  34.954  31.707   7.988
 3119POPC   C4B40558  35.110  31.589   7.609
 3120POPC   NC340559  22.118  44.378   9.585
 3120POPC   PO440560  21.759  44.956   9.488
 3120POPC   GL140561  22.049  44.753   9.186
 3120POPC   GL240562  22.145  44.396   9.075
 3120POPC   C1A40563  22.195  44.859   8.776
 3120POPC   D2A40564  21.988  44.734   8.394
 3120POPC   C3A40565  22.086  44.815   8.011
 3120POPC   C4A40566  21.970  44.712   7.596
 3120POPC   C1B40567  22.444  44.413   8.739
 3120POPC   C2B40568  22.489  44.635   8.365
 3120POPC   C3B40569  22.515  44.334   8.048
 3120POPC   C4B40570  22.247  44.304   7.724
 3121POPC   NC340571  11.270   6.989   9.487
 3121POPC   PO440572  11.358   6.337   9.637
 3121POPC   GL140573  11.251   6.465   9.174
 3121POPC   GL240574  11.376   6.763   9.042
 3121POPC   C1A40575  11.301   6.410   8.691
 3121POPC   D2A40576  11.209   6.670   8.340
 3121POPC   C3A40577  11.402   6.621   7.944
 3121POPC   C4A40578  11.569   6.447   7.564
 3121POPC   C1B40579  11.115   6.970   8.747
 3121POPC   C2B40580  10.771   6.928   8.416
 3121POPC   C3B40581  10.764   7.003   7.971
 3121POPC   C4B40582  11.109   6.938   7.660
 3122POPC   NC340583  20.935  17.551   9.428
 3122POPC   PO440584  20.276  17.382   9.575
 3122POPC   GL140585  20.343  17.503   9.097
 3122POPC   GL240586  20.683  17.525   8.980
 3122POPC   C1A40587  20.319  17.345   8.649
 3122POPC   D2A40588  20.600  17.469   8.310
 3122POPC   C3A40589  20.427  17.424   7.869
 3122POPC   C4A40590  20.747  17.140   7.694
 3122POPC   C1B40591  20.868  17.816   8.700
 3122POPC   C2B40592  20.744  17.968   8.303
 3122POPC   C3B40593  20.837  17.726   7.930
 3122POPC   C4B40594  20.846  17.922   7.567
 3123POPC   NC340595  24.180  23.322   9.440
 3123POPC   PO440596  24.398  22.741   9.312
 3123POPC   GL140597  24.425  22.779   8.949
 3123POPC   GL240598  24.346  23.124   8.978
 3123POPC   C1A40599  24.411  22.714   8.531
 3123POPC   D2A40600  24.144  22.800   8.205
 3123POPC   C3A40601  24.347  22.678   7.808
 3123POPC   C4A40602  24.294  22.996   7.529
 3123POPC   C1B40603  24.611  23.185   8.676
 3123POPC   C2B40604  24.479  23.326   8.318
 3123POPC   C3B40605  24.501  23.126   7.979
 3123POPC   C4B40606  24.817  22.957   7.746
 3124POPC   NC340607   2.494   1.556   9.247
 3124POPC   PO440608   2.860   2.134   9.503
 3124POPC   GL140609   2.867   1.899   9.152
 3124POPC   GL240610   2.583   2.091   9.077
 3124POPC   C1A40611   2.788   1.839   8.686
 3124POPC   D2A40612   2.610   2.073   8.338
 3124POPC   C3A40613   2.681   1.955   7.911
 3124POPC   C4A40614   2.932   1.904   7.546
 3124POPC   C1B40615   2.573   2.407   8.748
 3124POPC   C2B40616   2.333   2.509   8.378
 3124POPC   C3B40617   2.308   2.308   7.972
 3124POPC   C4B40618   2.547   2.335   7.577
 3125POPC   NC340619   5.965  10.796   9.773
 3125POPC   PO440620   5.806  11.305   9.438
 3125POPC   GL140621   5.765  11.535   9.058
 3125POPC   GL240622   5.899  11.218   8.934
 3125POPC   C1A40623   5.671  11.517   8.611
 3125POPC   D2A40624   5.771  11.190   8.339
 3125POPC   C3A40625   5.862  11.365   7.990
 3125POPC   C4A40626   5.786  11.296   7.591
 3125POPC   C1B40627   6.184  11.061   8.641
 3125POPC   C2B40628   6.290  11.104   8.204
 3125POPC   C3B40629   6.152  10.970   7.818
 3125POPC   C4B40630   6.229  11.103   7.381
 3126POPC   NC340631  41.035  19.306   5.601
 3126POPC   PO440632  41.603  19.027   5.402
 3126POPC   GL140633  41.440  19.046   5.806
 3126POPC   GL240634  41.122  18.971   5.980
 3126POPC   C1A40635  41.598  18.901   6.185
 3126POPC   D2A40636  41.859  19.086   6.501
 3126POPC   C3A40637  41.683  19.016   6.893
 3126POPC   C4A40638  41.640  18.952   7.326
 3126POPC   C1B40639  41.234  19.257   6.320
 3126POPC   C2B40640  41.232  19.289   6.777
 3126POPC   C3B40641  41.169  19.082   7.199
 3126POPC   C4B40642  41.257  18.948   7.665
 3127POPC   NC340643  39.625  20.803   5.332
 3127POPC   PO440644  39.298  20.232   5.096
 3127POPC   GL140645  39.294  20.524   5.570
 3127POPC   GL240646  39.599  20.566   5.805
 3127POPC   C1A40647  39.123  20.613   6.017
 3127POPC   D2A40648  39.101  20.597   6.478
 3127POPC   C3A40649  39.356  20.852   6.733
 3127POPC   C4A40650  39.207  20.730   7.109
 3127POPC   C1B40651  39.587  20.508   6.291
 3127POPC   C2B40652  39.607  20.412   6.756
 3127POPC   C3B40653  39.383  20.185   7.141
 3127POPC   C4B40654  39.486  20.214   7.630
 3128POPC   NC340655  44.806  24.838   5.364
 3128POPC   PO440656  44.568  24.280   5.330
 3128POPC   GL140657  44.545  24.532   5.715
 3128POPC   GL240658  44.548  24.223   5.883
 3128POPC   C1A40659  44.411  24.607   6.161
 3128POPC   D2A40660  44.568  24.397   6.523
 3128POPC   C3A40661  44.514  24.613   6.933
 3128POPC   C4A40662  44.272  24.486   7.290
 3128POPC   C1B40663  44.896  24.450   6.091
 3128POPC   C2B40664   0.071  24.562   6.505
 3128POPC   C3B40665   0.029  24.608   6.973
 3128POPC   C4B40666  44.783  24.446   7.363
 3129POPC   NC340667  43.648  22.850   5.547
 3129POPC   PO440668  42.964  22.720   5.417
 3129POPC   GL140669  43.164  22.855   5.780
 3129POPC   GL240670  42.927  23.105   5.835
 3129POPC   C1A40671  43.283  22.851   6.233
 3129POPC   D2A40672  43.181  23.138   6.596
 3129POPC   C3A40673  42.936  22.950   6.906
 3129POPC   C4A40674  43.099  22.619   7.141
 3129POPC   C1B40675  42.848  23.338   6.209
 3129POPC   C2B40676  42.730  23.393   6.626
 3129POPC   C3B40677  42.940  23.428   7.045
 3129POPC   C4B40678  43.185  23.115   7.314
 3130POPC   NC340679  26.323  44.829   5.167
 3130POPC   PO440680  27.026  44.667   5.273
 3130POPC   GL140681  27.041  44.714   5.727
 3130POPC   GL240682  26.667  44.637   5.784
 3130POPC   C1A40683  26.931  44.826   6.163
 3130POPC   D2A40684  26.988  44.585   6.539
 3130POPC   C3A40685  26.848  44.815   6.883
 3130POPC   C4A40686  26.989  44.797   7.281
 3130POPC   C1B40687  26.515  44.466   6.230
 3130POPC   C2B40688  26.461  44.488   6.707
 3130POPC   C3B40689  26.474  44.538   7.177
 3130POPC   C4B40690  26.207  44.529   7.570
 3131POPC   NC340691  34.882  33.855   5.387
 3131POPC   PO440692  35.502  33.987   5.400
 3131POPC   GL140693  35.283  33.923   5.771
 3131POPC   GL240694  35.073  33.620   5.789
 3131POPC   C1A40695  35.524  33.885   6.162
 3131POPC   D2A40696  35.371  33.931   6.568
 3131POPC   C3A40697  35.558  34.050   6.918
 3131POPC   C4A40698  35.475  33.863   7.300
 3131POPC   C1B40699  35.023  33.787   6.197
 3131POPC   C2B40700  35.011  33.596   6.588
 3131POPC   C3B40701  35.057  33.774   6.975
 3131POPC   C4B40702  34.911  33.812   7.366
 3132POPC   NC340703   6.281  21.804   5.498
 3132POPC   PO440704   6.803  22.185   5.506
 3132POPC   GL140705   6.572  22.091   5.812
 3132POPC   GL240706   6.671  21.769   5.882
 3132POPC   C1A40707   6.447  22.185   6.207
 3132POPC   D2A40708   6.380  22.465   6.527
 3132POPC   C3A40709   6.534  22.218   6.849
 3132POPC   C4A40710   6.592  22.419   7.208
 3132POPC   C1B40711   6.990  22.020   6.110
 3132POPC   C2B40712   6.923  22.249   6.467
 3132POPC   C3B40713   7.040  22.224   6.871
 3132POPC   C4B40714   6.880  21.989   7.209
 3133POPC   NC340715   9.252  33.090   5.419
 3133POPC   PO440716   8.641  33.331   5.337
 3133POPC   GL140717   8.864  33.266   5.722
 3133POPC   GL240718   8.939  32.908   5.792
 3133POPC   C1A40719   8.996  33.270   6.151
 3133POPC   D2A40720   8.875  33.018   6.507
 3133POPC   C3A40721   9.044  33.139   6.921
 3133POPC   C4A40722   8.827  33.093   7.301
 3133POPC   C1B40723   9.230  32.816   6.176
 3133POPC   C2B40724   9.373  32.850   6.630
 3133POPC   C3B40725   9.468  32.825   7.087
 3133POPC   C4B40726   9.236  32.836   7.483
 3134POPC   NC340727  11.762  12.544   5.585
 3134POPC   PO440728  11.224  12.952   5.560
 3134POPC   GL140729  11.358  12.722   5.862
 3134POPC   GL240730  11.668  12.934   5.888
 3134POPC   C1A40731  11.189  12.789   6.258
 3134POPC   D2A40732  11.129  13.011   6.630
 3134POPC   C3A40733  11.088  12.632   6.872
 3134POPC   C4A40734  11.054  12.714   7.276
 3134POPC   C1B40735  11.682  12.691   6.255
 3134POPC   C2B40736  11.553  12.750   6.689
 3134POPC   C3B40737  11.561  12.630   7.097
 3134POPC   C4B40738  11.839  12.790   7.401
 3135POPC   NC340739   1.699  37.324   5.630
 3135POPC   PO440740   1.314  37.684   5.304
 3135POPC   GL140741   1.226  37.610   5.742
 3135POPC   GL240742   1.134  37.954   5.802
 3135POPC   C1A40743   1.163  37.583   6.240
 3135POPC   D2A40744   1.138  37.629   6.736
 3135POPC   C3A40745   0.756  37.543   7.031
 3135POPC   C4A40746   0.694  37.477   7.481
 3135POPC   C1B40747   1.333  38.063   6.202
 3135POPC   C2B40748   1.328  38.102   6.658
 3135POPC   C3B40749   1.137  38.051   7.050
 3135POPC   C4B40750   1.161  37.663   7.314
 3136POPC   NC340751   1.995  27.759   5.036
 3136POPC   PO440752   2.154  27.194   5.250
 3136POPC   GL140753   2.076  27.418   5.637
 3136POPC   GL240754   1.717  27.413   5.778
 3136POPC   C1A40755   2.213  27.541   6.062
 3136POPC   D2A40756   2.176  27.823   6.424
 3136POPC   C3A40757   2.262  27.588   6.792
 3136POPC   C4A40758   2.185  27.611   7.197
 3136POPC   C1B40759   1.713  27.642   6.177
 3136POPC   C2B40760   1.803  27.495   6.592
 3136POPC   C3B40761   1.706  27.549   7.021
 3136POPC   C4B40762   1.557  27.227   7.279
 3137POPC   NC340763  36.308   4.806   5.393
 3137POPC   PO440764  35.818   5.217   5.580
 3137POPC   GL140765  36.061   5.317   5.925
 3137POPC   GL240766  36.346   5.071   5.860
 3137POPC   C1A40767  35.924   5.385   6.347
 3137POPC   D2A40768  35.794   5.208   6.725
 3137POPC   C3A40769  35.884   5.373   7.117
 3137POPC   C4A40770  36.022   5.362   7.547
 3137POPC   C1B40771  36.158   4.899   6.250
 3137POPC   C2B40772  36.223   4.904   6.695
 3137POPC   C3B40773  36.227   4.901   7.157
 3137POPC   C4B40774  36.406   4.596   7.501
 3138POPC   NC340775  42.548  19.252   5.292
 3138POPC   PO440776  43.264  19.102   5.457
 3138POPC   GL140777  42.963  19.070   5.821
 3138POPC   GL240778  42.896  19.392   6.018
 3138POPC   C1A40779  42.900  18.973   6.278
 3138POPC   D2A40780  43.037  19.102   6.732
 3138POPC   C3A40781  42.843  18.896   7.056
 3138POPC   C4A40782  42.625  18.863   7.448
 3138POPC   C1B40783  43.234  19.381   6.346
 3138POPC   C2B40784  43.439  19.438   6.742
 3138POPC   C3B40785  43.310  19.396   7.144
 3138POPC   C4B40786  43.562  19.243   7.435
 3139POPC   NC340787  24.293  43.608   5.130
 3139POPC   PO440788  24.574  44.195   5.458
 3139POPC   GL140789  24.629  44.129   5.888
 3139POPC   GL240790  24.280  44.121   5.943
 3139POPC   C1A40791  24.598  43.998   6.340
 3139POPC   D2A40792  24.636  44.210   6.749
 3139POPC   C3A40793  24.804  44.056   7.146
 3139POPC   C4A40794  24.667  43.668   7.301
 3139POPC   C1B40795  23.974  44.008   6.296
 3139POPC   C2B40796  23.846  43.735   6.664
 3139POPC   C3B40797  24.195  43.712   6.935
 3139POPC   C4B40798  24.299  44.076   7.132
 3140POPC   NC340799  39.545  19.852   5.032
 3140POPC   PO440800  39.364  20.015   5.622
 3140POPC   GL140801  39.277  19.734   5.887
 3140POPC   GL240802  38.930  19.655   5.770
 3140POPC   C1A40803  39.344  19.732   6.323
 3140POPC   D2A40804  39.365  19.987   6.643
 3140POPC   C3A40805  39.437  19.682   6.915
 3140POPC   C4A40806  39.493  19.718   7.340
 3140POPC   C1B40807  38.844  19.800   6.208
 3140POPC   C2B40808  38.934  19.721   6.657
 3140POPC   C3B40809  38.984  19.840   7.088
 3140POPC   C4B40810  38.846  19.638   7.456
 3141POPC   NC340811   0.820  38.935   5.611
 3141POPC   PO440812   1.472  38.857   5.580
 3141POPC   GL140813   1.242  39.049   5.889
 3141POPC   GL240814   1.134  39.359   5.720
 3141POPC   C1A40815   1.288  39.070   6.337
 3141POPC   D2A40816   1.012  39.001   6.688
 3141POPC   C3A40817   1.193  38.979   7.118
 3141POPC   C4A40818   1.292  39.011   7.570
 3141POPC   C1B40819   1.256  39.553   6.104
 3141POPC   C2B40820   1.501  39.535   6.484
 3141POPC   C3B40821   1.318  39.408   6.865
 3141POPC   C4B40822   1.396  39.432   7.301
 3142POPC   NC340823   3.790  37.247   5.443
 3142POPC   PO440824   3.344  36.748   5.543
 3142POPC   GL140825   3.657  36.878   5.837
 3142POPC   GL240826   3.603  37.244   5.912
 3142POPC   C1A40827   3.563  36.873   6.269
 3142POPC   D2A40828   3.539  37.153   6.608
 3142POPC   C3A40829   3.586  36.889   6.941
 3142POPC   C4A40830   3.385  36.668   7.273
 3142POPC   C1B40831   3.219  37.273   6.152
 3142POPC   C2B40832   3.125  37.466   6.539
 3142POPC   C3B40833   3.105  37.294   6.949
 3142POPC   C4B40834   3.364  37.198   7.260
 3143POPC   NC340835  16.205  31.784   5.404
 3143POPC   PO440836  15.802  31.240   5.383
 3143POPC   GL140837  15.891  31.504   5.742
 3143POPC   GL240838  16.177  31.330   5.900
 3143POPC   C1A40839  15.804  31.546   6.196
 3143POPC   D2A40840  15.762  31.184   6.471
 3143POPC   C3A40841  15.773  31.232   6.922
 3143POPC   C4A40842  15.679  31.474   7.280
 3143POPC   C1B40843  16.284  31.415   6.316
 3143POPC   C2B40844  16.093  31.562   6.694
 3143POPC   C3B40845  16.164  31.571   7.143
 3143POPC   C4B40846  16.274  31.496   7.589
 3144POPC   NC340847  11.784  17.336   5.427
 3144POPC   PO440848  12.310  17.687   5.471
 3144POPC   GL140849  12.025  17.635   5.802
 3144POPC   GL240850  12.258  17.363   5.885
 3144POPC   C1A40851  11.779  17.558   6.188
 3144POPC   D2A40852  11.873  17.400   6.620
 3144POPC   C3A40853  11.823  17.658   6.977
 3144POPC   C4A40854  12.088  17.957   7.177
 3144POPC   C1B40855  12.274  17.549   6.304
 3144POPC   C2B40856  12.226  17.756   6.705
 3144POPC   C3B40857  12.297  17.501   7.093
 3144POPC   C4B40858  12.463  17.250   7.460
 3145POPC   NC340859   5.240  34.829   5.590
 3145POPC   PO440860   4.658  34.577   5.388
 3145POPC   GL140861   4.897  34.474   5.768
 3145POPC   GL240862   4.636  34.662   5.918
 3145POPC   C1A40863   5.091  34.560   6.183
 3145POPC   D2A40864   5.185  34.924   6.481
 3145POPC   C3A40865   5.253  34.843   6.938
 3145POPC   C4A40866   5.385  34.435   7.128
 3145POPC   C1B40867   4.677  34.848   6.320
 3145POPC   C2B40868   4.820  34.583   6.640
 3145POPC   C3B40869   4.858  34.389   7.008
 3145POPC   C4B40870   4.891  34.717   7.293
 3146POPC   NC340871  29.036   0.908   5.529
 3146POPC   PO440872  29.214   0.261   5.566
 3146POPC   GL140873  29.136   0.523   5.927
 3146POPC   GL240874  28.792   0.473   5.821
 3146POPC   C1A40875  29.406   0.616   6.323
 3146POPC   D2A40876  29.339   0.656   6.781
 3146POPC   C3A40877  29.175   0.286   7.038
 3146POPC   C4A40878  29.267   0.179   7.480
 3146POPC   C1B40879  28.788   0.353   6.263
 3146POPC   C2B40880  28.830   0.476   6.696
 3146POPC   C3B40881  28.872   0.695   7.078
 3146POPC   C4B40882  28.888   0.542   7.489
 3147POPC   NC340883  28.083  28.307   5.215
 3147POPC   PO440884  27.495  28.381   5.417
 3147POPC   GL140885  27.587  28.425   5.832
 3147POPC   GL240886  27.689  28.086   5.824
 3147POPC   C1A40887  27.492  28.591   6.220
 3147POPC   D2A40888  27.250  28.665   6.618
 3147POPC   C3A40889  27.363  28.458   6.980
 3147POPC   C4A40890  27.730  28.460   7.249
 3147POPC   C1B40891  27.776  27.990   6.226
 3147POPC   C2B40892  27.578  28.227   6.559
 3147POPC   C3B40893  27.672  28.040   6.942
 3147POPC   C4B40894  28.025  28.023   7.228
 3148POPC   NC340895  41.562   6.323   5.298
 3148POPC   PO440896  41.857   5.757   5.414
 3148POPC   GL140897  41.630   5.891   5.754
 3148POPC   GL240898  41.742   6.214   5.780
 3148POPC   C1A40899  41.469   6.023   6.165
 3148POPC   D2A40900  41.228   5.796   6.444
 3148POPC   C3A40901  41.285   5.985   6.816
 3148POPC   C4A40902  41.297   6.034   7.222
 3148POPC   C1B40903  41.973   6.221   6.172
 3148POPC   C2B40904  41.899   6.040   6.584
 3148POPC   C3B40905  41.765   6.043   7.004
 3148POPC   C4B40906  41.734   5.940   7.448
 3149POPC   NC340907   2.513  35.850   5.468
 3149POPC   PO440908   2.946  36.235   5.178
 3149POPC   GL140909   2.886  36.246   5.707
 3149POPC   GL240910   2.555  36.192   5.836
 3149POPC   C1A40911   2.880  36.031   6.189
 3149POPC   D2A40912   2.686  35.925   6.588
 3149POPC   C3A40913   2.843  36.035   6.929
 3149POPC   C4A40914   2.975  35.873   7.286
 3149POPC   C1B40915   2.593  36.441   6.193
 3149POPC   C2B40916   2.855  36.440   6.546
 3149POPC   C3B40917   3.171  36.471   6.856
 3149POPC   C4B40918   2.938  36.417   7.231
 3150POPC   NC340919  26.385  35.311   5.442
 3150POPC   PO440920  25.797  35.630   5.301
 3150POPC   GL140921  25.949  35.453   5.728
 3150POPC   GL240922  26.093  35.091   5.796
 3150POPC   C1A40923  25.802  35.328   6.150
 3150POPC   D2A40924  25.621  35.225   6.548
 3150POPC   C3A40925  25.800  35.364   6.939
 3150POPC   C4A40926  25.599  35.309   7.298
 3150POPC   C1B40927  26.340  35.314   6.129
 3150POPC   C2B40928  26.518  35.409   6.533
 3150POPC   C3B40929  26.374  35.259   6.940
 3150POPC   C4B40930  26.243  35.494   7.306
 3151POPC   NC340931  27.673  31.479   5.394
 3151POPC   PO440932  27.280  32.060   5.550
 3151POPC   GL140933  27.531  31.762   5.788
 3151POPC   GL240934  27.356  31.444   5.809
 3151POPC   C1A40935  27.714  31.528   6.174
 3151POPC   D2A40936  27.734  31.298   6.595
 3151POPC   C3A40937  27.788  31.521   7.012
 3151POPC   C4A40938  27.824  31.287   7.428
 3151POPC   C1B40939  27.181  31.650   6.156
 3151POPC   C2B40940  27.365  31.661   6.543
 3151POPC   C3B40941  27.247  31.692   6.950
 3151POPC   C4B40942  27.340  31.473   7.293
 3152POPC   NC340943  15.115  13.963   5.257
 3152POPC   PO440944  15.129  14.649   5.371
 3152POPC   GL140945  15.074  14.426   5.755
 3152POPC   GL240946  14.749  14.560   5.880
 3152POPC   C1A40947  15.256  14.255   6.155
 3152POPC   D2A40948  15.112  14.112   6.571
 3152POPC   C3A40949  15.330  14.177   6.969
 3152POPC   C4A40950  15.037  14.167   7.297
 3152POPC   C1B40951  14.963  14.676   6.277
 3152POPC   C2B40952  15.155  14.616   6.700
 3152POPC   C3B40953  15.117  14.689   7.145
 3152POPC   C4B40954  15.229  15.014   7.467
 3153POPC   NC340955   0.714  31.568   5.108
 3153POPC   PO440956   0.254  31.690   5.623
 3153POPC   GL140957   0.222  31.367   5.889
 3153POPC   GL240958   0.613  31.352   5.987
 3153POPC   C1A40959   0.260  31.119   6.247
 3153POPC   D2A40960   0.629  31.080   6.523
 3153POPC   C3A40961   0.588  31.455   6.728
 3153POPC   C4A40962   0.334  31.549   7.085
 3153POPC   C1B40963   0.901  31.650   6.228
 3153POPC   C2B40964   0.978  31.871   6.615
 3153POPC   C3B40965   0.971  31.657   6.965
 3153POPC   C4B40966   0.765  31.751   7.310
 3154POPC   NC340967  31.784  17.735   5.588
 3154POPC   PO440968  32.404  17.703   5.340
 3154POPC   GL140969  32.414  17.437   5.712
 3154POPC   GL240970  32.655  17.184   5.723
 3154POPC   C1A40971  32.199  17.422   6.105
 3154POPC   D2A40972  32.050  17.575   6.516
 3154POPC   C3A40973  32.062  17.301   6.865
 3154POPC   C4A40974  32.032  17.596   7.207
 3154POPC   C1B40975  32.657  17.182   6.186
 3154POPC   C2B40976  32.559  17.463   6.533
 3154POPC   C3B40977  32.500  17.578   6.968
 3154POPC   C4B40978  32.581  17.268   7.285
 3155POPC   NC340979   8.108  30.040   5.484
 3155POPC   PO440980   7.869  29.448   5.669
 3155POPC   GL140981   8.014  29.784   5.933
 3155POPC   GL240982   8.335  29.969   5.928
 3155POPC   C1A40983   7.879  30.025   6.272
 3155POPC   D2A40984   8.004  30.145   6.684
 3155POPC   C3A40985   8.096  29.803   6.923
 3155POPC   C4A40986   7.965  29.749   7.313
 3155POPC   C1B40987   8.411  30.146   6.324
 3155POPC   C2B40988   8.456  30.458   6.644
 3155POPC   C3B40989   8.363  30.269   7.038
 3155POPC   C4B40990   8.489  29.889   7.249
 3156POPC   NC340991  32.203  13.442   5.485
 3156POPC   PO440992  31.948  14.003   5.284
 3156POPC   GL140993  32.086  13.785   5.825
 3156POPC   GL240994  32.055  13.399   5.961
 3156POPC   C1A40995  32.131  13.772   6.282
 3156POPC   D2A40996  32.218  13.444   6.570
 3156POPC   C3A40997  32.046  13.503   6.952
 3156POPC   C4A40998  32.141  13.531   7.390
 3156POPC   C1B40999  32.518  13.492   6.134
 3156POPC   C2B41000  32.609  13.842   6.453
 3156POPC   C3B41001  32.506  13.816   6.881
 3156POPC   C4B41002  32.552  13.423   7.091
 3157POPC   NC341003   8.087  44.162   5.559
 3157POPC   PO441004   8.386  44.626   5.078
 3157POPC   GL141005   8.213  44.664   5.599
 3157POPC   GL241006   8.517  44.638   5.881
 3157POPC   C1A41007   8.078  44.644   6.097
 3157POPC   D2A41008   8.295  44.636   6.488
 3157POPC   C3A41009   8.052  44.745   6.848
 3157POPC   C4A41010   8.294  44.951   7.169
 3157POPC   C1B41011   8.430  44.263   6.159
 3157POPC   C2B41012   8.491  44.136   6.564
 3157POPC   C3B41013   8.431  44.403   6.942
 3157POPC   C4B41014   8.485  44.521   7.362
 3158POPC   NC341015  14.120   8.045   5.429
 3158POPC   PO441016  13.511   7.729   5.312
 3158POPC   GL141017  13.642   7.987   5.658
 3158POPC   GL241018  13.876   7.811   5.814
 3158POPC   C1A41019  13.734   8.254   6.046
 3158POPC   D2A41020  13.935   8.289   6.461
 3158POPC   C3A41021  13.595   8.360   6.768
 3158POPC   C4A41022  13.670   8.342   7.190
 3158POPC   C1B41023  14.009   7.838   6.219
 3158POPC   C2B41024  13.993   7.712   6.639
 3158POPC   C3B41025  14.020   7.951   6.995
 3158POPC   C4B41026  13.818   7.825   7.359
 3159POPC   NC341027  11.063  38.899   5.169
 3159POPC   PO441028  11.582  39.278   5.452
 3159POPC   GL141029  11.305  39.148   5.764
 3159POPC   GL241030  10.983  38.943   5.733
 3159POPC   C1A41031  11.357  39.284   6.176
 3159POPC   D2A41032  11.250  39.132   6.551
 3159POPC   C3A41033  11.420  39.361   6.870
 3159POPC   C4A41034  11.569  39.126   7.219
 3159POPC   C1B41035  10.867  39.121   6.168
 3159POPC   C2B41036  10.761  39.003   6.633
 3159POPC   C3B41037  11.034  39.058   7.024
 3159POPC   C4B41038  11.062  39.088   7.486
 3160POPC   NC341039  36.362  40.398   5.376
 3160POPC   PO441040  35.848  39.981   5.515
 3160POPC   GL141041  36.055  39.929   5.860
 3160POPC   GL241042  36.254  40.228   5.844
 3160POPC   C1A41043  35.921  39.975   6.269
 3160POPC   D2A41044  35.813  40.190   6.649
 3160POPC   C3A41045  35.876  39.929   7.022
 3160POPC   C4A41046  35.774  39.935   7.442
 3160POPC   C1B41047  36.188  40.420   6.250
 3160POPC   C2B41048  36.287  40.380   6.670
 3160POPC   C3B41049  36.083  40.407   7.063
 3160POPC   C4B41050  36.220  40.231   7.425
 3161POPC   NC341051  37.174  23.968   5.424
 3161POPC   PO441052  36.547  23.654   5.297
 3161POPC   GL141053  36.769  23.814   5.733
 3161POPC   GL241054  37.128  23.656   5.812
 3161POPC   C1A41055  36.839  23.663   6.207
 3161POPC   D2A41056  36.869  23.786   6.609
 3161POPC   C3A41057  36.841  23.518   6.955
 3161POPC   C4A41058  36.668  23.651   7.315
 3161POPC   C1B41059  37.301  23.353   6.143
 3161POPC   C2B41060  37.161  23.397   6.564
 3161POPC   C3B41061  37.336  23.351   6.956
 3161POPC   C4B41062  37.406  23.450   7.377
 3162POPC   NC341063  37.126  42.398   5.482
 3162POPC   PO441064  36.433  42.613   5.414
 3162POPC   GL141065  36.678  42.465   5.733
 3162POPC   GL241066  36.898  42.745   5.793
 3162POPC   C1A41067  36.732  42.265   6.135
 3162POPC   D2A41068  37.028  42.177   6.505
 3162POPC   C3A41069  36.901  42.039   6.936
 3162POPC   C4A41070  36.666  42.270   7.272
 3162POPC   C1B41071  37.027  42.696   6.197
 3162POPC   C2B41072  36.710  42.633   6.499
 3162POPC   C3B41073  36.829  42.539   6.870
 3162POPC   C4B41074  36.852  42.770   7.203
 3163POPC   NC341075  22.522   3.612   5.351
 3163POPC   PO441076  21.836   3.448   5.469
 3163POPC   GL141077  22.183   3.597   5.739
 3163POPC   GL241078  22.259   3.283   5.917
 3163POPC   C1A41079  22.353   3.706   6.169
 3163POPC   D2A41080  22.362   3.359   6.450
 3163POPC   C3A41081  22.470   3.533   6.844
 3163POPC   C4A41082  22.350   3.618   7.270
 3163POPC   C1B41083  21.907   3.469   6.158
 3163POPC   C2B41084  21.970   3.672   6.534
 3163POPC   C3B41085  21.953   3.568   6.939
 3163POPC   C4B41086  21.895   3.269   7.243
 3164POPC   NC341087  31.736  25.009   5.394
 3164POPC   PO441088  31.442  25.519   5.255
 3164POPC   GL141089  31.688  25.378   5.751
 3164POPC   GL241090  31.492  25.137   5.850
 3164POPC   C1A41091  31.688  25.343   6.261
 3164POPC   D2A41092  31.660  25.005   6.601
 3164POPC   C3A41093  31.618  25.141   7.045
 3164POPC   C4A41094  31.633  25.585   7.181
 3164POPC   C1B41095  31.263  25.090   6.245
 3164POPC   C2B41096  31.259  25.354   6.625
 3164POPC   C3B41097  31.171  25.407   7.064
 3164POPC   C4B41098  30.905  25.547   7.379
 3165POPC   NC341099  23.980   2.860   5.470
 3165POPC   PO441100  24.597   2.717   5.300
 3165POPC   GL141101  24.645   2.604   5.742
 3165POPC   GL241102  24.275   2.542   5.814
 3165POPC   C1A41103  24.837   2.778   6.152
 3165POPC   D2A41104  24.694   2.950   6.573
 3165POPC   C3A41105  24.832   2.819   7.011
 3165POPC   C4A41106  24.663   2.567   7.341
 3165POPC   C1B41107  24.411   2.481   6.241
 3165POPC   C2B41108  24.268   2.647   6.644
 3165POPC   C3B41109  24.299   2.800   7.083
 3165POPC   C4B41110  24.147   2.614   7.505
 3166POPC   NC341111  11.854  40.471   5.502
 3166POPC   PO441112  12.509  40.498   5.548
 3166POPC   GL141113  12.490  40.785   5.935
 3166POPC   GL241114  12.164  40.923   5.938
 3166POPC   C1A41115  12.391  40.760   6.367
 3166POPC   D2A41116  12.327  40.545   6.760
 3166POPC   C3A41117  12.350  40.863   7.052
 3166POPC   C4A41118  12.018  41.164   7.138
 3166POPC   C1B41119  11.909  40.633   6.232
 3166POPC   C2B41120  11.583  40.425   6.513
 3166POPC   C3B41121  11.653  40.368   6.942
 3166POPC   C4B41122  11.927  40.605   7.199
 3167POPC   NC341123  36.668  37.405   5.468
 3167POPC   PO441124  36.560  38.038   5.636
 3167POPC   GL141125  36.704  37.709   5.874
 3167POPC   GL241126  37.053  37.764   5.926
 3167POPC   C1A41127  36.714  37.538   6.265
 3167POPC   D2A41128  37.013  37.607   6.556
 3167POPC   C3A41129  36.879  37.781   6.953
 3167POPC   C4A41130  36.925  37.478   7.252
 3167POPC   C1B41131  37.290  37.947   6.259
 3167POPC   C2B41132  37.257  38.025   6.708
 3167POPC   C3B41133  37.360  37.854   7.123
 3167POPC   C4B41134  37.366  38.050   7.543
 3168POPC   NC341135   0.350  18.385   5.527
 3168POPC   PO441136   0.675  17.880   5.258
 3168POPC   GL141137   0.539  17.874   5.723
 3168POPC   GL241138   0.236  18.018   5.852
 3168POPC   C1A41139   0.554  18.005   6.230
 3168POPC   D2A41140   0.367  18.299   6.569
 3168POPC   C3A41141   0.446  18.219   6.984
 3168POPC   C4A41142   0.798  18.006   7.176
 3168POPC   C1B41143   0.132  18.376   6.131
 3168POPC   C2B41144   0.017  18.683   6.472
 3168POPC   C3B41145   0.001  18.524   6.900
 3168POPC   C4B41146   0.079  18.541   7.339
 3169POPC   NC341147  16.173   5.369   5.416
 3169POPC   PO441148  16.476   4.826   5.442
 3169POPC   GL141149  16.864   4.906   5.719
 3169POPC   GL241150  16.955   5.268   5.694
 3169POPC   C1A41151  17.032   4.995   6.144
 3169POPC   D2A41152  17.158   4.928   6.586
 3169POPC   C3A41153  16.850   4.913   6.926
 3169POPC   C4A41154  16.835   4.839   7.391
 3169POPC   C1B41155  16.682   5.356   6.046
 3169POPC   C2B41156  16.707   5.266   6.510
 3169POPC   C3B41157  16.675   5.462   6.942
 3169POPC   C4B41158  16.732   5.468   7.427
 3170POPC   NC341159   7.571   3.834   5.185
 3170POPC   PO441160   7.324   3.296   5.452
 3170POPC   GL141161   7.210   3.572   5.808
 3170POPC   GL241162   7.525   3.478   5.899
 3170POPC   C1A41163   7.201   3.651   6.274
 3170POPC   D2A41164   7.469   3.703   6.663
 3170POPC   C3A41165   7.270   3.662   7.038
 3170POPC   C4A41166   6.993   3.376   7.181
 3170POPC   C1B41167   7.709   3.568   6.255
 3170POPC   C2B41168   7.947   3.839   6.459
 3170POPC   C3B41169   7.972   3.682   6.822
 3170POPC   C4B41170   7.741   3.518   7.136
 3171POPC   NC341171  17.403  35.328   5.282
 3171POPC   PO441172  16.730  35.358   5.288
 3171POPC   GL141173  16.584  35.229   5.694
 3171POPC   GL241174  16.449  35.534   5.812
 3171POPC   C1A41175  16.428  35.114   6.115
 3171POPC   D2A41176  16.567  35.324   6.489
 3171POPC   C3A41177  16.453  35.171   6.903
 3171POPC   C4A41178  16.722  35.271   7.201
 3171POPC   C1B41179  16.857  35.493   6.058
 3171POPC   C2B41180  16.977  35.687   6.453
 3171POPC   C3B41181  16.786  35.655   6.859
 3171POPC   C4B41182  17.009  35.690   7.254
 3172POPC   NC341183  33.789  23.860   5.373
 3172POPC   PO441184  33.347  24.164   5.791
 3172POPC   GL141185  33.648  23.769   5.842
 3172POPC   GL241186  34.049  23.708   5.795
 3172POPC   C1A41187  33.832  23.830   6.238
 3172POPC   D2A41188  33.642  24.156   6.527
 3172POPC   C3A41189  33.491  24.026   6.951
 3172POPC   C4A41190  33.698  23.926   7.351
 3172POPC   C1B41191  34.175  23.406   6.158
 3172POPC   C2B41192  34.042  23.492   6.589
 3172POPC   C3B41193  33.960  23.664   6.973
 3172POPC   C4B41194  34.009  23.546   7.397
 3173POPC   NC341195  17.484  26.875   5.387
 3173POPC   PO441196  18.072  27.240   5.236
 3173POPC   GL141197  17.843  27.056   5.740
 3173POPC   GL241198  17.667  26.730   5.841
 3173POPC   C1A41199  17.633  27.034   6.241
 3173POPC   D2A41200  17.678  26.857   6.695
 3173POPC   C3A41201  17.421  26.906   7.077
 3173POPC   C4A41202  17.524  26.745   7.502
 3173POPC   C1B41203  17.292  26.662   6.142
 3173POPC   C2B41204  17.272  26.581   6.605
 3173POPC   C3B41205  17.321  26.404   7.024
 3173POPC   C4B41206  17.138  26.429   7.451
 3174POPC   NC341207  14.455  39.016   5.390
 3174POPC   PO441208  13.990  39.439   5.244
 3174POPC   GL141209  14.247  39.410   5.698
 3174POPC   GL241210  14.609  39.384   5.736
 3174POPC   C1A41211  14.279  39.241   6.151
 3174POPC   D2A41212  14.330  39.459   6.568
 3174POPC   C3A41213  14.489  39.228   6.942
 3174POPC   C4A41214  14.228  38.957   7.252
 3174POPC   C1B41215  14.624  39.614   6.109
 3174POPC   C2B41216  14.801  39.659   6.508
 3174POPC   C3B41217  14.947  39.479   6.850
 3174POPC   C4B41218  14.830  39.436   7.243
 3175POPC   NC341219   0.014   3.701   5.653
 3175POPC   PO441220  44.585   3.347   5.242
 3175POPC   GL141221  44.526   3.486   5.719
 3175POPC   GL241222  44.526   3.823   5.862
 3175POPC   C1A41223  44.642   3.386   6.161
 3175POPC   D2A41224  44.827   3.566   6.548
 3175POPC   C3A41225  44.802   3.354   6.958
 3175POPC   C4A41226  44.467   3.401   7.238
 3175POPC   C1B41227  44.311   3.750   6.269
 3175POPC   C2B41228  44.360   3.699   6.739
 3175POPC   C3B41229  44.656   3.856   7.006
 3175POPC   C4B41230  44.803   3.920   7.436
 3176POPC   NC341231  20.848  38.123   5.406
 3176POPC   PO441232  20.796  37.390   5.369
 3176POPC   GL141233  20.853  37.674   5.698
 3176POPC   GL241234  20.509  37.692   5.798
 3176POPC   C1A41235  20.888  37.603   6.144
 3176POPC   D2A41236  20.751  37.581   6.549
 3176POPC   C3A41237  20.518  37.781   6.850
 3176POPC   C4A41238  20.585  37.634   7.242
 3176POPC   C1B41239  20.347  37.479   6.150
 3176POPC   C2B41240  20.326  37.328   6.564
 3176POPC   C3B41241  20.280  37.297   6.999
 3176POPC   C4B41242  20.131  37.448   7.422
 3177POPC   NC341243  41.502  27.865   5.372
 3177POPC   PO441244  41.533  27.214   5.670
 3177POPC   GL141245  41.526  27.647   5.826
 3177POPC   GL241246  41.847  27.788   5.971
 3177POPC   C1A41247  41.299  27.854   6.148
 3177POPC   D2A41248  41.197  27.667   6.550
 3177POPC   C3A41249  41.411  27.736   6.938
 3177POPC   C4A41250  41.808  27.806   7.147
 3177POPC   C1B41251  41.644  27.495   6.302
 3177POPC   C2B41252  41.446  27.175   6.548
 3177POPC   C3B41253  41.284  27.224   6.944
 3177POPC   C4B41254  41.641  27.327   7.171
 3178POPC   NC341255  21.604  40.689   5.328
 3178POPC   PO441256  21.040  41.070   5.310
 3178POPC   GL141257  21.148  40.973   5.758
 3178POPC   GL241258  21.382  40.665   5.790
 3178POPC   C1A41259  21.255  41.156   6.183
 3178POPC   D2A41260  21.543  41.006   6.516
 3178POPC   C3A41261  21.324  40.827   6.881
 3178POPC   C4A41262  21.047  41.076   7.131
 3178POPC   C1B41263  21.302  40.637   6.242
 3178POPC   C2B41264  21.029  40.513   6.578
 3178POPC   C3B41265  21.094  40.306   6.956
 3178POPC   C4B41266  21.355  40.449   7.260
 3179POPC   NC341267  37.836  30.544   5.527
 3179POPC   PO441268  37.299  30.968   5.584
 3179POPC   GL141269  37.616  30.840   5.918
 3179POPC   GL241270  37.818  30.516   6.030
 3179POPC   C1A41271  37.624  30.855   6.365
 3179POPC   D2A41272  37.663  30.628   6.728
 3179POPC   C3A41273  37.644  30.924   7.059
 3179POPC   C4A41274  37.392  31.086   7.372
 3179POPC   C1B41275  37.430  30.364   6.232
 3179POPC   C2B41276  37.199  30.389   6.629
 3179POPC   C3B41277  37.369  30.388   7.078
 3179POPC   C4B41278  37.820  30.450   7.206
 3180POPC   NC341279  22.425  30.230   5.340
 3180POPC   PO441280  21.966  29.751   5.318
 3180POPC   GL141281  22.090  29.880   5.711
 3180POPC   GL241282  22.028  30.238   5.708
 3180POPC   C1A41283  21.968  29.759   6.135
 3180POPC   D2A41284  22.037  29.990   6.508
 3180POPC   C3A41285  21.896  29.780   6.875
 3180POPC   C4A41286  22.185  29.995   7.151
 3180POPC   C1B41287  21.719  30.205   6.070
 3180POPC   C2B41288  21.698  30.373   6.504
 3180POPC   C3B41289  21.861  30.298   6.919
 3180POPC   C4B41290  21.687  30.031   7.297
 3181POPC   NC341291  24.130  18.269   5.541
 3181POPC   PO441292  24.806  18.165   5.236
 3181POPC   GL141293  24.721  18.426   5.676
 3181POPC   GL241294  24.414  18.364   5.933
 3181POPC   C1A41295  24.856  18.426   6.136
 3181POPC   D2A41296  24.541  18.546   6.430
 3181POPC   C3A41297  24.621  18.461   6.837
 3181POPC   C4A41298  24.622  18.177   7.170
 3181POPC   C1B41299  24.181  18.117   6.260
 3181POPC   C2B41300  24.265  17.988   6.696
 3181POPC   C3B41301  24.062  17.835   7.050
 3181POPC   C4B41302  24.178  18.013   7.461
 3182POPC   NC341303   0.511  30.598   5.335
 3182POPC   PO441304   0.350  31.280   5.223
 3182POPC   GL141305   0.454  31.012   5.620
 3182POPC   GL241306   0.203  30.827   5.756
 3182POPC   C1A41307   0.618  30.814   6.077
 3182POPC   D2A41308   0.554  30.564   6.488
 3182POPC   C3A41309   0.638  30.688   6.925
 3182POPC   C4A41310   0.469  30.486   7.311
 3182POPC   C1B41311   0.212  30.511   6.095
 3182POPC   C2B41312   0.021  30.436   6.497
 3182POPC   C3B41313   0.095  30.480   6.931
 3182POPC   C4B41314  44.921  30.453   7.326
 3183POPC   NC341315  37.435   2.006   5.025
 3183POPC   PO441316  36.836   1.987   5.366
 3183POPC   GL141317  36.877   1.912   5.773
 3183POPC   GL241318  37.120   2.185   5.851
 3183POPC   C1A41319  36.784   1.937   6.204
 3183POPC   D2A41320  37.040   2.042   6.546
 3183POPC   C3A41321  36.938   1.884   6.951
 3183POPC   C4A41322  37.279   1.853   7.226
 3183POPC   C1B41323  37.343   2.385   6.183
 3183POPC   C2B41324  37.180   2.537   6.570
 3183POPC   C3B41325  36.862   2.404   6.897
 3183POPC   C4B41326  36.963   2.308   7.300
 3184POPC   NC341327  14.717  41.345   5.128
 3184POPC   PO441328  14.349  41.285   5.696
 3184POPC   GL141329  14.322  41.572   5.923
 3184POPC   GL241330  14.523  41.827   5.726
 3184POPC   C1A41331  14.207  41.490   6.352
 3184POPC   D2A41332  14.421  41.669   6.674
 3184POPC   C3A41333  14.243  41.500   7.009
 3184POPC   C4A41334  14.564  41.251   7.138
 3184POPC   C1B41335  14.705  41.872   6.127
 3184POPC   C2B41336  14.760  42.094   6.493
 3184POPC   C3B41337  14.822  41.939   6.880
 3184POPC   C4B41338  14.654  41.749   7.202
 3185POPC   NC341339  25.915  44.035   5.389
 3185POPC   PO441340  26.225  43.466   5.321
 3185POPC   GL141341  26.171  43.759   5.730
 3185POPC   GL241342  25.823  43.825   5.828
 3185POPC   C1A41343  26.212  43.995   6.158
 3185POPC   D2A41344  26.105  44.103   6.601
 3185POPC   C3A41345  26.327  44.036   6.980
 3185POPC   C4A41346  26.298  43.655   7.195
 3185POPC   C1B41347  25.711  43.872   6.221
 3185POPC   C2B41348  25.867  43.625   6.520
 3185POPC   C3B41349  25.729  43.673   6.897
 3185POPC   C4B41350  25.698  43.975   7.171
 3186POPC   NC341351  31.318   4.695   4.996
 3186POPC   PO441352  31.706   5.057   5.437
 3186POPC   GL141353  31.685   4.896   5.829
 3186POPC   GL241354  31.353   4.765   5.775
 3186POPC   C1A41355  31.505   5.098   6.174
 3186POPC   D2A41356  31.188   5.093   6.491
 3186POPC   C3A41357  31.266   5.372   6.825
 3186POPC   C4A41358  31.304   5.366   7.239
 3186POPC   C1B41359  31.444   4.595   6.190
 3186POPC   C2B41360  31.617   4.742   6.573
 3186POPC   C3B41361  31.395   4.861   6.927
 3186POPC   C4B41362  31.596   4.967   7.273
 3187POPC   NC341363  22.002  14.127   5.416
 3187POPC   PO441364  22.618  14.534   5.244
 3187POPC   GL141365  22.353  14.521   5.670
 3187POPC   GL241366  21.995  14.418   5.807
 3187POPC   C1A41367  22.320  14.561   6.150
 3187POPC   D2A41368  22.485  14.417   6.541
 3187POPC   C3A41369  22.294  14.533   6.941
 3187POPC   C4A41370  22.356  14.375   7.372
 3187POPC   C1B41371  21.912  14.241   6.246
 3187POPC   C2B41372  22.065  14.138   6.678
 3187POPC   C3B41373  22.012  14.116   7.106
 3187POPC   C4B41374  21.602  14.192   7.269
 3188POPC   NC341375   4.122   1.749   5.375
 3188POPC   PO441376   4.694   2.002   5.522
 3188POPC   GL141377   4.393   2.053   5.798
 3188POPC   GL241378   4.259   2.372   5.720
 3188POPC   C1A41379   4.409   1.974   6.232
 3188POPC   D2A41380   4.301   2.145   6.617
 3188POPC   C3A41381   4.337   1.955   7.020
 3188POPC   C4A41382   4.184   1.841   7.424
 3188POPC   C1B41383   4.114   2.388   6.167
 3188POPC   C2B41384   3.978   2.535   6.567
 3188POPC   C3B41385   4.096   2.427   6.998
 3188POPC   C4B41386   4.047   2.429   7.425
 3189POPC   NC341387  33.425  36.359   5.399
 3189POPC   PO441388  33.615  35.758   5.665
 3189POPC   GL141389  33.698  36.196   5.842
 3189POPC   GL241390  33.970  36.457   5.831
 3189POPC   C1A41391  33.651  36.370   6.271
 3189POPC   D2A41392  33.476  36.231   6.688
 3189POPC   C3A41393  33.723  36.200   7.067
 3189POPC   C4A41394  33.783  35.794   7.262
 3189POPC   C1B41395  34.118  36.601   6.235
 3189POPC   C2B41396  34.056  36.442   6.684
 3189POPC   C3B41397  34.037  36.618   7.109
 3189POPC   C4B41398  33.723  36.627   7.434
 3190POPC   NC341399  26.303  28.345   5.542
 3190POPC   PO441400  25.674  28.358   5.525
 3190POPC   GL141401  25.895  28.636   5.818
 3190POPC   GL241402  25.970  28.304   5.980
 3190POPC   C1A41403  26.155  28.715   6.199
 3190POPC   D2A41404  26.175  28.371   6.520
 3190POPC   C3A41405  26.298  28.448   6.969
 3190POPC   C4A41406  25.968  28.442   7.298
 3190POPC   C1B41407  26.294  28.010   6.145
 3190POPC   C2B41408  26.559  28.023   6.534
 3190POPC   C3B41409  26.451  27.926   6.951
 3190POPC   C4B41410  26.452  28.059   7.381
 3191POPC   NC341411  20.603  42.198   5.495
 3191POPC   PO441412  20.273  42.778   5.437
 3191POPC   GL141413  20.486  42.615   5.797
 3191POPC   GL241414  20.824  42.519   5.849
 3191POPC   C1A41415  20.421  42.369   6.185
 3191POPC   D2A41416  20.197  42.219   6.570
 3191POPC   C3A41417  20.344  42.341   6.982
 3191POPC   C4A41418  20.507  42.596   7.318
 3191POPC   C1B41419  20.927  42.384   6.273
 3191POPC   C2B41420  20.736  42.231   6.655
 3191POPC   C3B41421  20.849  42.305   7.091
 3191POPC   C4B41422  20.942  42.064   7.488
 3192POPC   NC341423  23.765  21.827   5.396
 3192POPC   PO441424  23.937  21.190   5.578
 3192POPC   GL141425  23.712  21.462   5.791
 3192POPC   GL241426  23.545  21.194   6.005
 3192POPC   C1A41427  23.804  21.600   6.171
 3192POPC   D2A41428  23.644  21.484   6.544
 3192POPC   C3A41429  23.627  21.804   6.848
 3192POPC   C4A41430  23.671  21.639   7.271
 3192POPC   C1B41431  23.926  21.117   6.308
 3192POPC   C2B41432  23.964  21.147   6.790
 3192POPC   C3B41433  23.981  21.230   7.259
 3192POPC   C4B41434  24.138  21.060   7.698
 3193POPC   NC341435  42.830  15.314   5.452
 3193POPC   PO441436  43.443  14.976   5.298
 3193POPC   GL141437  43.222  15.096   5.704
 3193POPC   GL241438  42.979  14.872   5.816
 3193POPC   C1A41439  43.152  15.247   6.141
 3193POPC   D2A41440  43.308  15.215   6.572
 3193POPC   C3A41441  43.105  15.303   6.967
 3193POPC   C4A41442  43.252  15.368   7.391
 3193POPC   C1B41443  42.774  14.870   6.173
 3193POPC   C2B41444  42.872  14.981   6.589
 3193POPC   C3B41445  42.927  14.805   6.973
 3193POPC   C4B41446  43.100  14.905   7.319
 3194POPC   NC341447  12.320  13.901   5.523
 3194POPC   PO441448  11.934  14.469   5.413
 3194POPC   GL141449  11.917  14.466   5.836
 3194POPC   GL241450  11.899  14.114   5.823
 3194POPC   C1A41451  12.146  14.663   6.186
 3194POPC   D2A41452  12.331  14.539   6.589
 3194POPC   C3A41453  12.046  14.641   6.947
 3194POPC   C4A41454  12.198  14.621   7.382
 3194POPC   C1B41455  12.069  14.154   6.249
 3194POPC   C2B41456  11.952  14.193   6.674
 3194POPC   C3B41457  12.131  14.170   7.074
 3194POPC   C4B41458  11.947  14.206   7.517
 3195POPC   NC341459   9.880   0.289   5.188
 3195POPC   PO441460   9.488   0.793   5.357
 3195POPC   GL141461   9.622   0.490   5.675
 3195POPC   GL241462   9.900   0.285   5.714
 3195POPC   C1A41463   9.530   0.409   6.112
 3195POPC   D2A41464   9.340   0.480   6.499
 3195POPC   C3A41465   9.572   0.564   6.855
 3195POPC   C4A41466   9.748   0.472   7.249
 3195POPC   C1B41467   9.961   0.147   6.143
 3195POPC   C2B41468   9.779   0.208   6.536
 3195POPC   C3B41469   9.864   0.090   6.945
 3195POPC   C4B41470  10.059   0.085   7.397
 3196POPC   NC341471  34.103  18.890   5.405
 3196POPC   PO441472  33.332  19.096   5.333
 3196POPC   GL141473  33.553  19.029   5.765
 3196POPC   GL241474  33.901  19.110   5.813
 3196POPC   C1A41475  33.696  18.912   6.216
 3196POPC   D2A41476  33.513  18.944   6.611
 3196POPC   C3A41477  33.757  18.984   6.958
 3196POPC   C4A41478  33.875  18.826   7.366
 3196POPC   C1B41479  34.165  19.069   6.205
 3196POPC   C2B41480  34.133  18.833   6.609
 3196POPC   C3B41481  34.261  19.000   7.016
 3196POPC   C4B41482  34.076  19.275   7.281
 3197POPC   NC341483  37.737  15.852   5.290
 3197POPC   PO441484  37.108  16.055   5.124
 3197POPC   GL141485  37.407  16.106   5.605
 3197POPC   GL241486  37.679  15.791   5.784
 3197POPC   C1A41487  37.418  16.042   6.116
 3197POPC   D2A41488  37.686  16.069   6.530
 3197POPC   C3A41489  37.591  16.079   6.984
 3197POPC   C4A41490  37.406  16.376   7.290
 3197POPC   C1B41491  37.940  15.587   6.144
 3197POPC   C2B41492  38.029  15.709   6.589
 3197POPC   C3B41493  38.133  15.646   7.033
 3197POPC   C4B41494  38.049  15.727   7.473
 3198POPC   NC341495   7.115  19.442   5.324
 3198POPC   PO441496   7.171  18.820   5.384
 3198POPC   GL141497   7.220  19.066   5.758
 3198POPC   GL241498   7.554  19.181   5.832
 3198POPC   C1A41499   7.149  19.083   6.212
 3198POPC   D2A41500   7.355  18.987   6.586
 3198POPC   C3A41501   7.283  19.193   6.969
 3198POPC   C4A41502   7.232  18.942   7.328
 3198POPC   C1B41503   7.722  19.210   6.254
 3198POPC   C2B41504   7.639  19.430   6.624
 3198POPC   C3B41505   7.786  19.468   7.042
 3198POPC   C4B41506   7.630  19.309   7.398
 3199POPC   NC341507   7.175  42.641   5.456
 3199POPC   PO441508   7.537  43.172   5.460
 3199POPC   GL141509   7.196  43.191   5.746
 3199POPC   GL241510   7.113  43.550   5.829
 3199POPC   C1A41511   7.110  42.900   6.082
 3199POPC   D2A41512   7.152  42.928   6.522
 3199POPC   C3A41513   7.508  42.863   6.774
 3199POPC   C4A41514   7.306  42.871   7.167
 3199POPC   C1B41515   7.209  43.381   6.242
 3199POPC   C2B41516   7.461  43.364   6.602
 3199POPC   C3B41517   7.580  43.311   7.017
 3199POPC   C4B41518   7.305  43.606   7.188
 3200POPC   NC341519  36.036  21.806   4.968
 3200POPC   PO441520  36.239  21.353   5.414
 3200POPC   GL141521  36.139  21.218   5.791
 3200POPC   GL241522  36.278  21.541   5.931
 3200POPC   C1A41523  35.967  21.227   6.194
 3200POPC   D2A41524  36.289  21.137   6.522
 3200POPC   C3A41525  36.256  21.319   6.912
 3200POPC   C4A41526  36.142  21.200   7.306
 3200POPC   C1B41527  36.167  21.645   6.379
 3200POPC   C2B41528  35.837  21.466   6.650
 3200POPC   C3B41529  35.798  21.575   7.068
 3200POPC   C4B41530  36.181  21.706   7.260
 3201POPC   NC341531  12.374  16.358   5.590
 3201POPC   PO441532  12.076  16.905   5.407
 3201POPC   GL141533  11.837  16.779   5.802
 3201POPC   GL241534  11.793  17.112   5.872
 3201POPC   C1A41535  11.768  16.638   6.258
 3201POPC   D2A41536  11.945  16.354   6.590
 3201POPC   C3A41537  12.043  16.509   7.000
 3201POPC   C4A41538  11.846  16.438   7.408
 3201POPC   C1B41539  12.018  17.083   6.241
 3201POPC   C2B41540  12.017  16.896   6.631
 3201POPC   C3B41541  12.057  17.052   7.010
 3201POPC   C4B41542  12.134  16.860   7.384
 3202POPC   NC341543  17.165  37.205   5.341
 3202POPC   PO441544  17.720  36.793   5.401
 3202POPC   GL141545  17.473  36.859   5.804
 3202POPC   GL241546  17.250  37.174   5.854
 3202POPC   C1A41547  17.596  37.003   6.232
 3202POPC   D2A41548  17.807  37.217   6.590
 3202POPC   C3A41549  17.799  37.032   7.009
 3202POPC   C4A41550  17.597  36.776   7.300
 3202POPC   C1B41551  16.939  37.308   6.193
 3202POPC   C2B41552  17.045  37.486   6.626
 3202POPC   C3B41553  17.396  37.367   6.934
 3202POPC   C4B41554  17.406  37.262   7.397
 3203POPC   NC341555  18.062  17.075   5.253
 3203POPC   PO441556  18.324  16.559   5.627
 3203POPC   GL141557  18.417  16.805   5.940
 3203POPC   GL241558  18.177  17.042   5.851
 3203POPC   C1A41559  18.425  16.751   6.349
 3203POPC   D2A41560  18.547  16.433   6.641
 3203POPC   C3A41561  18.325  16.507   7.015
 3203POPC   C4A41562  18.342  16.755   7.346
 3203POPC   C1B41563  17.950  16.762   6.180
 3203POPC   C2B41564  18.022  16.738   6.653
 3203POPC   C3B41565  17.963  16.954   7.072
 3203POPC   C4B41566  17.890  16.974   7.533
 3204POPC   NC341567   7.720  25.184   5.513
 3204POPC   PO441568   7.437  25.798   5.459
 3204POPC   GL141569   7.369  25.454   5.799
 3204POPC   GL241570   7.180  25.102   5.836
 3204POPC   C1A41571   7.587  25.233   6.157
 3204POPC   D2A41572   7.412  25.134   6.547
 3204POPC   C3A41573   7.609  25.197   6.911
 3204POPC   C4A41574   7.388  25.293   7.283
 3204POPC   C1B41575   7.305  24.780   6.178
 3204POPC   C2B41576   7.396  24.633   6.611
 3204POPC   C3B41577   7.336  24.795   7.041
 3204POPC   C4B41578   7.528  24.852   7.483
 3205POPC   NC341579  22.149  43.530   5.553
 3205POPC   PO441580  21.955  44.248   5.419
 3205POPC   GL141581  21.979  43.977   5.805
 3205POPC   GL241582  21.796  43.642   5.891
 3205POPC   C1A41583  22.044  43.972   6.254
 3205POPC   D2A41584  22.319  44.116   6.568
 3205POPC   C3A41585  22.154  44.002   6.963
 3205POPC   C4A41586  22.306  43.960   7.354
 3205POPC   C1B41587  22.075  43.460   6.235
 3205POPC   C2B41588  22.109  43.574   6.680
 3205POPC   C3B41589  22.380  43.479   7.045
 3205POPC   C4B41590  22.613  43.568   7.427
 3206POPC   NC341591  36.623  26.280   5.462
 3206POPC   PO441592  37.219  25.957   5.358
 3206POPC   GL141593  37.271  25.935   5.784
 3206POPC   GL241594  36.901  25.975   5.815
 3206POPC   C1A41595  37.204  25.855   6.237
 3206POPC   D2A41596  37.055  25.678   6.611
 3206POPC   C3A41597  36.922  25.949   6.936
 3206POPC   C4A41598  37.201  25.997   7.251
 3206POPC   C1B41599  36.656  26.198   6.093
 3206POPC   C2B41600  36.562  26.154   6.491
 3206POPC   C3B41601  36.633  26.368   6.825
 3206POPC   C4B41602  36.548  26.244   7.241
 3207POPC   NC341603   6.077  33.405   5.594
 3207POPC   PO441604   5.813  32.923   5.151
 3207POPC   GL141605   5.968  32.883   5.628
 3207POPC   GL241606   6.320  32.980   5.771
 3207POPC   C1A41607   6.026  32.666   6.037
 3207POPC   D2A41608   5.945  32.672   6.480
 3207POPC   C3A41609   6.063  32.808   6.868
 3207POPC   C4A41610   5.920  33.046   7.215
 3207POPC   C1B41611   6.156  33.143   6.213
 3207POPC   C2B41612   6.180  33.271   6.675
 3207POPC   C3B41613   6.299  33.383   7.116
 3207POPC   C4B41614   6.229  33.294   7.618
 3208POPC   NC341615  27.925   9.798   5.452
 3208POPC   PO441616  27.267   9.561   5.549
 3208POPC   GL141617  27.588   9.675   5.832
 3208POPC   GL241618  27.887   9.433   5.815
 3208POPC   C1A41619  27.538   9.973   6.164
 3208POPC   D2A41620  27.318   9.878   6.536
 3208POPC   C3A41621  27.456   9.927   6.936
 3208POPC   C4A41622  27.371   9.602   7.234
 3208POPC   C1B41623  27.991   9.748   6.134
 3208POPC   C2B41624  27.833   9.746   6.525
 3208POPC   C3B41625  27.941   9.832   6.910
 3208POPC   C4B41626  27.905   9.673   7.304
 3209POPC   NC341627   0.679  17.449   5.402
 3209POPC   PO441628   0.133  17.556   5.718
 3209POPC   GL141629   0.405  17.492   6.043
 3209POPC   GL241630   0.727  17.420   5.910
 3209POPC   C1A41631   0.342  17.411   6.477
 3209POPC   D2A41632   0.020  17.181   6.746
 3209POPC   C3A41633   0.201  17.273   7.127
 3209POPC   C4A41634   0.370  17.707   7.099
 3209POPC   C1B41635   0.868  17.595   6.301
 3209POPC   C2B41636   0.759  17.672   6.723
 3209POPC   C3B41637   0.766  17.388   7.068
 3209POPC   C4B41638   1.049  17.351   7.403
 3210POPC   NC341639  41.258  43.690   5.135
 3210POPC   PO441640  40.535  43.700   5.226
 3210POPC   GL141641  40.835  43.666   5.566
 3210POPC   GL241642  40.844  44.002   5.740
 3210POPC   C1A41643  40.865  43.580   6.028
 3210POPC   D2A41644  40.904  43.830   6.411
 3210POPC   C3A41645  40.711  43.720   6.793
 3210POPC   C4A41646  40.859  43.813   7.210
 3210POPC   C1B41647  41.199  44.109   6.108
 3210POPC   C2B41648  41.370  44.193   6.528
 3210POPC   C3B41649  41.166  44.109   6.910
 3210POPC   C4B41650  40.966  44.297   7.293
 3211POPC   NC341651  37.758  24.832   5.169
 3211POPC   PO441652  37.530  24.297   5.466
 3211POPC   GL141653  37.737  24.592   5.788
 3211POPC   GL241654  38.008  24.443   5.998
 3211POPC   C1A41655  37.553  24.795   6.171
 3211POPC   D2A41656  37.335  24.677   6.548
 3211POPC   C3A41657  37.559  24.547   6.903
 3211POPC   C4A41658  37.376  24.637   7.304
 3211POPC   C1B41659  37.726  24.339   6.342
 3211POPC   C2B41660  37.537  24.092   6.647
 3211POPC   C3B41661  37.246  23.919   6.926
 3211POPC   C4B41662  37.488  24.140   7.248
 3212POPC   NC341663  24.303  30.801   5.472
 3212POPC   PO441664  24.867  31.075   5.456
 3212POPC   GL141665  24.737  30.845   5.809
 3212POPC   GL241666  24.561  30.510   5.805
 3212POPC   C1A41667  24.593  30.787   6.225
 3212POPC   D2A41668  24.554  30.573   6.615
 3212POPC   C3A41669  24.519  30.908   6.886
 3212POPC   C4A41670  24.653  31.019   7.290
 3212POPC   C1B41671  24.171  30.515   6.119
 3212POPC   C2B41672  24.081  30.351   6.565
 3212POPC   C3B41673  24.179  30.516   6.989
 3212POPC   C4B41674  24.230  30.488   7.454
 3213POPC   NC341675  42.021  19.138   5.595
 3213POPC   PO441676  42.546  18.714   5.386
 3213POPC   GL141677  42.469  18.897   5.807
 3213POPC   GL241678  42.453  19.259   5.812
 3213POPC   C1A41679  42.387  18.957   6.260
 3213POPC   D2A41680  42.531  18.837   6.659
 3213POPC   C3A41681  42.259  18.980   6.987
 3213POPC   C4A41682  42.006  19.288   7.182
 3213POPC   C1B41683  42.441  19.456   6.200
 3213POPC   C2B41684  42.656  19.362   6.534
 3213POPC   C3B41685  42.580  19.379   6.959
 3213POPC   C4B41686  42.805  19.338   7.329
 3214POPC   NC341687   9.871  33.359   5.539
 3214POPC   PO441688   9.617  32.799   5.406
 3214POPC   GL141689   9.573  32.958   5.823
 3214POPC   GL241690   9.419  33.270   5.871
 3214POPC   C1A41691   9.704  33.072   6.254
 3214POPC   D2A41692  10.068  32.986   6.510
 3214POPC   C3A41693   9.953  32.965   6.909
 3214POPC   C4A41694   9.854  33.043   7.358
 3214POPC   C1B41695   9.464  33.566   6.188
 3214POPC   C2B41696   9.347  33.392   6.561
 3214POPC   C3B41697   9.566  33.302   6.918
 3214POPC   C4B41698   9.409  33.286   7.311
 3215POPC   NC341699   9.785  42.514   5.588
 3215POPC   PO441700   9.767  42.006   5.186
 3215POPC   GL141701   9.608  42.083   5.786
 3215POPC   GL241702   9.445  42.405   5.949
 3215POPC   C1A41703   9.608  42.087   6.299
 3215POPC   D2A41704   9.860  42.259   6.684
 3215POPC   C3A41705   9.818  42.053   7.077
 3215POPC   C4A41706   9.433  41.928   7.194
 3215POPC   C1B41707   9.762  42.570   6.266
 3215POPC   C2B41708   9.634  42.720   6.659
 3215POPC   C3B41709   9.612  42.550   7.065
 3215POPC   C4B41710  10.015  42.531   7.204
 3216POPC   NC341711  11.836  23.583   5.391
 3216POPC   PO441712  12.439  23.983   5.367
 3216POPC   GL141713  12.147  23.804   5.751
 3216POPC   GL241714  11.739  23.857   5.809
 3216POPC   C1A41715  12.017  23.790   6.224
 3216POPC   D2A41716  12.056  23.899   6.662
 3216POPC   C3A41717  12.046  23.768   7.067
 3216POPC   C4A41718  11.901  24.139   7.258
 3216POPC   C1B41719  11.672  23.443   6.070
 3216POPC   C2B41720  11.769  23.278   6.501
 3216POPC   C3B41721  11.677  23.471   6.908
 3216POPC   C4B41722  11.787  23.378   7.347
 3217POPC   NC341723  14.403  37.334   5.591
 3217POPC   PO441724  14.224  36.612   5.489
 3217POPC   GL141725  14.417  36.854   5.802
 3217POPC   GL241726  14.672  36.625   5.907
 3217POPC   C1A41727  14.530  37.051   6.211
 3217POPC   D2A41728  14.289  37.006   6.597
 3217POPC   C3A41729  14.323  37.240   6.971
 3217POPC   C4A41730  14.233  37.043   7.345
 3217POPC   C1B41731  14.373  36.560   6.236
 3217POPC   C2B41732  14.585  36.593   6.639
 3217POPC   C3B41733  14.366  36.677   7.018
 3217POPC   C4B41734  14.390  36.530   7.452
 3218POPC   NC341735  31.176  36.223   5.119
 3218POPC   PO441736  31.656  36.472   5.588
 3218POPC   GL141737  31.468  36.202   5.896
 3218POPC   GL241738  31.099  36.019   5.843
 3218POPC   C1A41739  31.633  36.011   6.225
 3218POPC   D2A41740  31.536  35.732   6.532
 3218POPC   C3A41741  31.541  35.932   6.923
 3218POPC   C4A41742  31.596  36.192   7.260
 3218POPC   C1B41743  31.137  36.132   6.278
 3218POPC   C2B41744  31.096  36.037   6.704
 3218POPC   C3B41745  31.086  36.081   7.146
 3218POPC   C4B41746  31.142  36.126   7.574
 3219POPC   NC341747   3.326  17.187   5.520
 3219POPC   PO441748   3.690  17.708   5.619
 3219POPC   GL141749   3.333  17.570   5.901
 3219POPC   GL241750   3.232  17.210   6.011
 3219POPC   C1A41751   3.334  17.654   6.338
 3219POPC   D2A41752   3.253  17.561   6.748
 3219POPC   C3A41753   3.566  17.695   7.007
 3219POPC   C4A41754   3.509  17.790   7.433
 3219POPC   C1B41755   3.649  17.273   6.220
 3219POPC   C2B41756   3.671  17.298   6.658
 3219POPC   C3B41757   3.753  17.228   7.052
 3219POPC   C4B41758   4.029  17.155   7.362
 3220POPC   NC341759   3.739   8.863   5.372
 3220POPC   PO441760   3.177   9.220   5.353
 3220POPC   GL141761   3.324   8.957   5.715
 3220POPC   GL241762   3.313   8.578   5.725
 3220POPC   C1A41763   3.426   9.062   6.142
 3220POPC   D2A41764   3.373   9.333   6.492
 3220POPC   C3A41765   3.566   9.181   6.844
 3220POPC   C4A41766   3.750   9.049   7.205
 3220POPC   C1B41767   3.560   8.564   6.143
 3220POPC   C2B41768   3.629   8.741   6.565
 3220POPC   C3B41769   3.490   8.682   6.982
 3220POPC   C4B41770   3.212   8.930   7.215
 3221POPC   NC341771  12.389  33.231   5.140
 3221POPC   PO441772  11.892  32.857   5.414
 3221POPC   GL141773  11.902  33.019   5.820
 3221POPC   GL241774  12.260  32.961   5.871
 3221POPC   C1A41775  11.936  33.172   6.244
 3221POPC   D2A41776  12.090  33.021   6.666
 3221POPC   C3A41777  11.839  33.007   7.051
 3221POPC   C4A41778  11.872  33.070   7.486
 3221POPC   C1B41779  12.458  33.159   6.270
 3221POPC   C2B41780  12.509  33.369   6.708
 3221POPC   C3B41781  12.283  33.267   7.123
 3221POPC   C4B41782  12.283  32.828   7.296
 3222POPC   NC341783  22.450  22.301   5.472
 3222POPC   PO441784  21.828  22.148   5.238
 3222POPC   GL141785  21.979  22.161   5.722
 3222POPC   GL241786  22.258  21.950   5.833
 3222POPC   C1A41787  22.080  22.192   6.239
 3222POPC   D2A41788  22.012  21.995   6.700
 3222POPC   C3A41789  21.985  22.235   7.126
 3222POPC   C4A41790  21.927  22.145   7.569
 3222POPC   C1B41791  22.487  21.863   6.201
 3222POPC   C2B41792  22.535  22.090   6.576
 3222POPC   C3B41793  22.445  22.078   7.006
 3222POPC   C4B41794  22.414  22.018   7.439
 3223POPC   NC341795  39.725   0.687   5.355
 3223POPC   PO441796  39.818  44.990   5.351
 3223POPC   GL141797  40.076   0.211   5.703
 3223POPC   GL241798  40.225   0.548   5.667
 3223POPC   C1A41799  40.172   0.212   6.118
 3223POPC   D2A41800  40.009   0.365   6.497
 3223POPC   C3A41801  40.207   0.259   6.879
 3223POPC   C4A41802  40.026   0.391   7.272
 3223POPC   C1B41803  40.367   0.729   6.071
 3223POPC   C2B41804  40.355   0.745   6.524
 3223POPC   C3B41805  40.187   0.772   6.960
 3223POPC   C4B41806  40.228   1.085   7.251
 3224POPC   NC341807  30.249  26.303   5.513
 3224POPC   PO441808  29.890  25.710   5.550
 3224POPC   GL141809  30.007  25.993   5.858
 3224POPC   GL241810  29.802  26.277   5.781
 3224POPC   C1A41811  30.098  26.060   6.298
 3224POPC   D2A41812  30.133  25.815   6.682
 3224POPC   C3A41813  30.143  25.890   7.106
 3224POPC   C4A41814  30.082  25.758   7.519
 3224POPC   C1B41815  29.593  26.098   6.136
 3224POPC   C2B41816  29.667  26.205   6.552
 3224POPC   C3B41817  29.730  26.117   6.960
 3224POPC   C4B41818  29.885  26.240   7.405
 3225POPC   NC341819  40.823  12.475   5.559
 3225POPC   PO441820  40.762  13.138   5.394
 3225POPC   GL141821  40.879  13.010   5.828
 3225POPC   GL241822  40.584  13.244   5.871
 3225POPC   C1A41823  41.117  12.826   6.259
 3225POPC   D2A41824  41.232  12.551   6.633
 3225POPC   C3A41825  41.119  12.749   7.005
 3225POPC   C4A41826  40.891  12.767   7.368
 3225POPC   C1B41827  40.714  13.157   6.295
 3225POPC   C2B41828  40.770  12.870   6.637
 3225POPC   C3B41829  40.549  12.736   6.998
 3225POPC   C4B41830  40.521  13.098   7.240
 3226POPC   NC341831  26.741  29.345   5.245
 3226POPC   PO441832  26.577  28.746   5.575
 3226POPC   GL141833  26.832  28.943   5.862
 3226POPC   GL241834  27.084  28.685   5.927
 3226POPC   C1A41835  26.757  29.265   6.220
 3226POPC   D2A41836  26.511  29.224   6.605
 3226POPC   C3A41837  26.731  29.143   6.958
 3226POPC   C4A41838  26.797  28.793   7.191
 3226POPC   C1B41839  27.177  28.988   6.238
 3226POPC   C2B41840  27.120  29.208   6.614
 3226POPC   C3B41841  27.231  29.031   7.017
 3226POPC   C4B41842  27.301  28.776   7.365
 3227POPC   NC341843   2.893  27.941   5.436
 3227POPC   PO441844   2.784  28.586   5.430
 3227POPC   GL141845   2.804  28.366   5.810
 3227POPC   GL241846   3.135  28.398   5.921
 3227POPC   C1A41847   2.716  28.417   6.266
 3227POPC   D2A41848   2.947  28.368   6.669
 3227POPC   C3A41849   2.745  28.408   7.086
 3227POPC   C4A41850   2.550  28.407   7.461
 3227POPC   C1B41851   3.091  28.031   6.189
 3227POPC   C2B41852   3.174  27.916   6.613
 3227POPC   C3B41853   3.058  27.995   7.038
 3227POPC   C4B41854   2.976  28.135   7.453
 3228POPC   NC341855   9.836   3.963   5.209
 3228POPC   PO441856  10.079   4.568   5.481
 3228POPC   GL141857   9.941   4.220   5.743
 3228POPC   GL241858   9.570   4.231   5.781
 3228POPC   C1A41859   9.984   4.036   6.181
 3228POPC   D2A41860  10.011   4.295   6.568
 3228POPC   C3A41861   9.863   4.188   6.979
 3228POPC   C4A41862   9.861   4.012   7.380
 3228POPC   C1B41863   9.676   4.459   6.174
 3228POPC   C2B41864   9.531   4.500   6.582
 3228POPC   C3B41865   9.687   4.665   6.964
 3228POPC   C4B41866   9.671   4.666   7.423
 3229POPC   NC341867  13.776  28.768   5.229
 3229POPC   PO441868  13.976  29.467   5.362
 3229POPC   GL141869  13.941  29.231   5.800
 3229POPC   GL241870  13.587  28.999   5.741
 3229POPC   C1A41871  13.807  29.018   6.215
 3229POPC   D2A41872  13.824  29.198   6.627
 3229POPC   C3A41873  13.792  29.077   7.047
 3229POPC   C4A41874  13.551  29.393   7.272
 3229POPC   C1B41875  13.263  28.976   6.080
 3229POPC   C2B41876  13.309  28.985   6.538
 3229POPC   C3B41877  13.273  28.987   6.990
 3229POPC   C4B41878  13.156  28.671   7.266
 3230POPC   NC341879   5.138  36.387   5.514
 3230POPC   PO441880   5.465  35.857   5.324
 3230POPC   GL141881   5.373  36.018   5.736
 3230POPC   GL241882   5.020  35.956   5.847
 3230POPC   C1A41883   5.459  36.247   6.115
 3230POPC   D2A41884   5.259  36.097   6.485
 3230POPC   C3A41885   5.303  36.324   6.860
 3230POPC   C4A41886   5.302  35.989   7.131
 3230POPC   C1B41887   4.938  36.307   6.143
 3230POPC   C2B41888   4.816  36.372   6.599
 3230POPC   C3B41889   4.804  36.198   7.012
 3230POPC   C4B41890   5.046  36.376   7.327
 3231POPC   NC341891  19.962  26.176   5.269
 3231POPC   PO441892  19.427  26.431   5.557
 3231POPC   GL141893  19.799  26.325   5.766
 3231POPC   GL241894  19.995  26.012   5.750
 3231POPC   C1A41895  19.720  26.210   6.172
 3231POPC   D2A41896  19.848  25.995   6.530
 3231POPC   C3A41897  19.677  26.146   6.892
 3231POPC   C4A41898  19.489  25.917   7.191
 3231POPC   C1B41899  20.217  26.073   6.146
 3231POPC   C2B41900  20.374  26.235   6.534
 3231POPC   C3B41901  20.193  26.072   6.891
 3231POPC   C4B41902  19.993  26.008   7.286
 3232POPC   NC341903  19.998  30.045   5.231
 3232POPC   PO441904  20.395  29.593   5.172
 3232POPC   GL141905  20.065  29.733   5.616
 3232POPC   GL241906  19.851  30.090   5.705
 3232POPC   C1A41907  20.101  29.911   6.083
 3232POPC   D2A41908  19.905  29.810   6.444
 3232POPC   C3A41909  20.037  29.971   6.806
 3232POPC   C4A41910  19.795  30.016   7.125
 3232POPC   C1B41911  19.677  30.180   6.162
 3232POPC   C2B41912  19.678  30.273   6.601
 3232POPC   C3B41913  19.474  30.400   6.978
 3232POPC   C4B41914  19.714  30.447   7.363
 3233POPC   NC341915  21.185  27.899   5.505
 3233POPC   PO441916  21.579  27.276   5.539
 3233POPC   GL141917  21.401  27.562   5.844
 3233POPC   GL241918  21.616  27.894   5.784
 3233POPC   C1A41919  21.079  27.496   6.199
 3233POPC   D2A41920  20.950  27.566   6.633
 3233POPC   C3A41921  21.222  27.352   6.902
 3233POPC   C4A41922  21.523  27.415   7.234
 3233POPC   C1B41923  21.353  27.973   6.149
 3233POPC   C2B41924  21.444  27.723   6.498
 3233POPC   C3B41925  21.521  27.804   6.897
 3233POPC   C4B41926  21.561  28.089   7.218
 3234POPC   NC341927   5.988  40.832   5.268
 3234POPC   PO441928   6.628  40.534   5.272
 3234POPC   GL141929   6.683  40.669   5.737
 3234POPC   GL241930   6.624  41.025   5.831
 3234POPC   C1A41931   6.790  40.629   6.184
 3234POPC   D2A41932   7.011  40.681   6.572
 3234POPC   C3A41933   6.691  40.785   6.861
 3234POPC   C4A41934   6.629  40.791   7.290
 3234POPC   C1B41935   6.689  41.118   6.277
 3234POPC   C2B41936   6.964  41.191   6.621
 3234POPC   C3B41937   6.940  41.193   7.056
 3234POPC   C4B41938   6.609  41.304   7.326
 3235POPC   NC341939  34.339  43.274   5.635
 3235POPC   PO441940  34.937  43.010   5.319
 3235POPC   GL141941  34.805  43.042   5.820
 3235POPC   GL241942  34.460  42.933   5.991
 3235POPC   C1A41943  34.884  42.832   6.255
 3235POPC   D2A41944  34.642  42.752   6.643
 3235POPC   C3A41945  34.744  42.917   7.047
 3235POPC   C4A41946  34.616  42.986   7.480
 3235POPC   C1B41947  34.267  43.247   6.286
 3235POPC   C2B41948  34.419  43.361   6.660
 3235POPC   C3B41949  34.341  43.233   7.065
 3235POPC   C4B41950  34.607  43.471   7.295
 3236POPC   NC341951  34.176  29.013   5.474
 3236POPC   PO441952  33.520  29.053   5.341
 3236POPC   GL141953  33.706  29.305   5.674
 3236POPC   GL241954  33.800  28.997   5.821
 3236POPC   C1A41955  33.643  29.413   6.126
 3236POPC   D2A41956  33.638  29.209   6.543
 3236POPC   C3A41957  33.631  29.438   6.957
 3236POPC   C4A41958  33.586  29.241   7.360
 3236POPC   C1B41959  34.016  29.045   6.196
 3236POPC   C2B41960  34.076  28.907   6.599
 3236POPC   C3B41961  33.918  29.029   6.980
 3236POPC   C4B41962  34.081  29.327   7.248
 3237POPC   NC341963  24.963  20.578   5.296
 3237POPC   PO441964  25.617  20.610   5.532
 3237POPC   GL141965  25.276  20.455   5.745
 3237POPC   GL241966  25.028  20.749   5.774
 3237POPC   C1A41967  25.299  20.314   6.181
 3237POPC   D2A41968  25.228  20.420   6.639
 3237POPC   C3A41969  25.557  20.642   6.916
 3237POPC   C4A41970  25.505  20.959   7.236
 3237POPC   C1B41971  25.123  20.806   6.209
 3237POPC   C2B41972  24.941  20.893   6.623
 3237POPC   C3B41973  25.072  20.760   7.028
 3237POPC   C4B41974  25.222  20.496   7.358
 3238POPC   NC341975  13.635  27.352   5.385
 3238POPC   PO441976  13.509  27.950   5.412
 3238POPC   GL141977  13.609  27.691   5.778
 3238POPC   GL241978  13.901  27.443   5.811
 3238POPC   C1A41979  13.670  27.832   6.182
 3238POPC   D2A41980  13.519  27.786   6.574
 3238POPC   C3A41981  13.739  27.804   6.962
 3238POPC   C4A41982  13.597  27.899   7.343
 3238POPC   C1B41983  13.742  27.336   6.227
 3238POPC   C2B41984  13.843  27.404   6.672
 3238POPC   C3B41985  13.631  27.306   7.076
 3238POPC   C4B41986  13.658  27.155   7.549
 3239POPC   NC341987  25.819   1.560   5.360
 3239POPC   PO441988  26.231   1.003   5.446
 3239POPC   GL141989  25.975   1.230   5.729
 3239POPC   GL241990  26.154   1.539   5.761
 3239POPC   C1A41991  25.820   1.360   6.131
 3239POPC   D2A41992  25.962   1.185   6.522
 3239POPC   C3A41993  25.766   1.306   6.932
 3239POPC   C4A41994  25.871   1.406   7.353
 3239POPC   C1B41995  26.330   1.361   6.134
 3239POPC   C2B41996  26.375   1.510   6.535
 3239POPC   C3B41997  26.304   1.249   6.890
 3239POPC   C4B41998  26.378   1.383   7.274
 3240POPC   NC341999   1.278  39.135   5.276
 3240POPC   PO442000   2.017  39.217   5.303
 3240POPC   GL142001   2.046  39.213   5.759
 3240POPC   GL242002   1.711  39.282   5.874
 3240POPC   C1A42003   2.264  39.234   6.151
 3240POPC   D2A42004   2.015  39.247   6.513
 3240POPC   C3A42005   2.133  39.227   6.912
 3240POPC   C4A42006   1.901  39.509   7.216
 3240POPC   C1B42007   1.785  38.952   6.183
 3240POPC   C2B42008   1.661  38.892   6.637
 3240POPC   C3B42009   1.682  39.056   7.041
 3240POPC   C4B42010   1.699  38.803   7.362
 3241POPC   NC342011  11.722  16.571   5.344
 3241POPC   PO442012  11.392  17.100   5.368
 3241POPC   GL142013  11.345  16.829   5.700
 3241POPC   GL242014  11.051  16.984   5.799
 3241POPC   C1A42015  11.295  16.588   6.084
 3241POPC   D2A42016  11.186  16.603   6.533
 3241POPC   C3A42017  11.535  16.581   6.803
 3241POPC   C4A42018  11.629  16.814   7.166
 3241POPC   C1B42019  10.941  16.935   6.215
 3241POPC   C2B42020  11.042  17.110   6.583
 3241POPC   C3B42021  11.110  16.956   6.980
 3241POPC   C4B42022  10.901  17.106   7.353
 3242POPC   NC342023  28.034  11.418   5.605
 3242POPC   PO442024  28.266  10.877   5.352
 3242POPC   GL142025  28.379  11.025   5.772
 3242POPC   GL242026  28.583  11.342   5.794
 3242POPC   C1A42027  28.203  11.184   6.164
 3242POPC   D2A42028  28.343  11.055   6.530
 3242POPC   C3A42029  28.329  11.288   6.865
 3242POPC   C4A42030  28.550  11.187   7.240
 3242POPC   C1B42031  28.599  11.475   6.246
 3242POPC   C2B42032  28.627  11.663   6.670
 3242POPC   C3B42033  28.830  11.611   7.065
 3242POPC   C4B42034  28.828  11.644   7.509
 3243POPC   NC342035  26.541  30.931   5.423
 3243POPC   PO442036  26.993  30.390   5.328
 3243POPC   GL142037  26.867  30.668   5.747
 3243POPC   GL242038  26.564  30.924   5.933
 3243POPC   C1A42039  26.769  30.550   6.190
 3243POPC   D2A42040  26.917  30.717   6.557
 3243POPC   C3A42041  26.781  30.555   6.933
 3243POPC   C4A42042  27.033  30.414   7.228
 3243POPC   C1B42043  26.480  30.944   6.386
 3243POPC   C2B42044  26.603  31.029   6.805
 3243POPC   C3B42045  26.593  30.918   7.255
 3243POPC   C4B42046  26.522  30.968   7.716
 3244POPC   NC342047  34.851  21.502   5.613
 3244POPC   PO442048  34.419  21.080   5.354
 3244POPC   GL142049  34.443  21.217   5.774
 3244POPC   GL242050  34.306  21.511   5.906
 3244POPC   C1A42051  34.662  21.221   6.180
 3244POPC   D2A42052  34.522  21.135   6.579
 3244POPC   C3A42053  34.714  21.328   6.945
 3244POPC   C4A42054  34.677  21.093   7.296
 3244POPC   C1B42055  34.149  21.254   6.225
 3244POPC   C2B42056  34.021  21.292   6.639
 3244POPC   C3B42057  34.207  21.218   7.033
 3244POPC   C4B42058  34.208  21.552   7.346
 3245POPC   NC342059   3.220  30.297   5.441
 3245POPC   PO442060   3.647  30.822   5.325
 3245POPC   GL142061   3.497  30.905   5.716
 3245POPC   GL242062   3.758  31.117   5.846
 3245POPC   C1A42063   3.418  30.651   6.058
 3245POPC   D2A42064   3.528  30.524   6.464
 3245POPC   C3A42065   3.299  30.661   6.789
 3245POPC   C4A42066   3.512  30.591   7.157
 3245POPC   C1B42067   3.834  30.911   6.287
 3245POPC   C2B42068   3.733  30.919   6.774
 3245POPC   C3B42069   3.910  31.028   7.206
 3245POPC   C4B42070   4.045  30.979   7.678
 3246POPC   NC342071  13.215  26.808   5.392
 3246POPC   PO442072  13.873  26.947   5.408
 3246POPC   GL142073  13.605  26.987   5.798
 3246POPC   GL242074  13.927  26.938   5.941
 3246POPC   C1A42075  13.509  26.714   6.212
 3246POPC   D2A42076  13.738  26.449   6.548
 3246POPC   C3A42077  13.630  26.513   6.986
 3246POPC   C4A42078  13.446  26.859   7.191
 3246POPC   C1B42079  13.947  26.896   6.372
 3246POPC   C2B42080  13.623  26.943   6.666
 3246POPC   C3B42081  13.923  26.929   6.924
 3246POPC   C4B42082  14.044  26.996   7.279
 3247POPC   NC342083  29.525  21.792   5.450
 3247POPC   PO442084  30.229  22.045   5.429
 3247POPC   GL142085  29.894  22.054   5.721
 3247POPC   GL242086  29.895  21.719   5.845
 3247POPC   C1A42087  29.759  22.178   6.125
 3247POPC   D2A42088  29.997  22.364   6.505
 3247POPC   C3A42089  29.906  22.279   6.968
 3247POPC   C4A42090  29.587  22.101   7.231
 3247POPC   C1B42091  29.989  21.780   6.300
 3247POPC   C2B42092  29.933  21.831   6.735
 3247POPC   C3B42093  29.984  21.771   7.149
 3247POPC   C4B42094  29.738  21.689   7.482
 3248POPC   NC342095  21.661  38.254   5.599
 3248POPC   PO442096  21.067  38.564   5.377
 3248POPC   GL142097  21.206  38.532   5.811
 3248POPC   GL242098  21.319  38.206   5.957
 3248POPC   C1A42099  21.129  38.542   6.273
 3248POPC   D2A42100  21.357  38.516   6.678
 3248POPC   C3A42101  21.158  38.562   7.033
 3248POPC   C4A42102  21.242  38.789   7.384
 3248POPC   C1B42103  21.555  38.207   6.337
 3248POPC   C2B42104  21.411  38.026   6.724
 3248POPC   C3B42105  21.409  38.077   7.142
 3248POPC   C4B42106  21.302  38.306   7.476
 3249POPC   NC342107  36.487   1.695   5.099
 3249POPC   PO442108  36.070   1.331   5.527
 3249POPC   GL142109  36.168   1.313   5.906
 3249POPC   GL242110  36.449   1.187   5.878
 3249POPC   C1A42111  36.090   1.151   6.272
 3249POPC   D2A42112  36.016   0.984   6.637
 3249POPC   C3A42113  36.252   1.183   6.940
 3249POPC   C4A42114  36.143   1.319   7.353
 3249POPC   C1B42115  36.511   1.499   6.240
 3249POPC   C2B42116  36.455   1.620   6.680
 3249POPC   C3B42117  36.586   1.517   7.106
 3249POPC   C4B42118  36.544   1.545   7.593
 3250POPC   NC342119  26.413  39.442   5.526
 3250POPC   PO442120  25.873  38.960   5.607
 3250POPC   GL142121  26.029  39.077   5.993
 3250POPC   GL242122  26.172  39.393   5.963
 3250POPC   C1A42123  25.982  39.040   6.427
 3250POPC   D2A42124  25.738  38.889   6.764
 3250POPC   C3A42125  25.922  39.184   7.020
 3250POPC   C4A42126  26.319  39.237   7.230
 3250POPC   C1B42127  25.823  39.499   6.220
 3250POPC   C2B42128  25.928  39.569   6.640
 3250POPC   C3B42129  26.131  39.662   7.026
 3250POPC   C4B42130  26.220  39.690   7.477
 3251POPC   NC342131  20.027   1.756   5.419
 3251POPC   PO442132  19.477   2.159   5.294
 3251POPC   GL142133  19.610   1.980   5.699
 3251POPC   GL242134  19.955   2.029   5.837
 3251POPC   C1A42135  19.541   1.966   6.150
 3251POPC   D2A42136  19.679   2.291   6.442
 3251POPC   C3A42137  19.668   2.174   6.874
 3251POPC   C4A42138  19.533   2.054   7.296
 3251POPC   C1B42139  20.031   1.768   6.203
 3251POPC   C2B42140  20.261   1.754   6.590
 3251POPC   C3B42141  20.063   1.865   6.982
 3251POPC   C4B42142  20.073   1.768   7.424
 3252POPC   NC342143  35.532  20.773   5.543
 3252POPC   PO442144  34.980  20.411   5.262
 3252POPC   GL142145  35.133  20.496   5.717
 3252POPC   GL242146  35.456  20.309   5.794
 3252POPC   C1A42147  35.268  20.722   6.142
 3252POPC   D2A42148  35.384  20.697   6.605
 3252POPC   C3A42149  35.095  20.794   6.973
 3252POPC   C4A42150  35.144  20.942   7.414
 3252POPC   C1B42151  35.653  20.384   6.210
 3252POPC   C2B42152  35.851  20.412   6.638
 3252POPC   C3B42153  35.678  20.374   7.068
 3252POPC   C4B42154  35.310  20.443   7.299
 3253POPC   NC342155  28.186  35.094   5.422
 3253POPC   PO442156  28.670  35.550   5.498
 3253POPC   GL142157  28.680  35.237   5.780
 3253POPC   GL242158  28.365  35.153   5.899
 3253POPC   C1A42159  28.720  35.391   6.200
 3253POPC   D2A42160  28.491  35.253   6.540
 3253POPC   C3A42161  28.353  35.478   6.893
 3253POPC   C4A42162  28.527  35.506   7.326
 3253POPC   C1B42163  28.231  34.915   6.252
 3253POPC   C2B42164  28.178  34.895   6.715
 3253POPC   C3B42165  28.326  35.030   7.123
 3253POPC   C4B42166  28.111  35.059   7.538
 3254POPC   NC342167  20.328  37.272   5.381
 3254POPC   PO442168  20.511  36.591   5.402
 3254POPC   GL142169  20.407  36.851   5.754
 3254POPC   GL242170  20.610  37.168   5.827
 3254POPC   C1A42171  20.310  36.939   6.196
 3254POPC   D2A42172  20.384  36.718   6.576
 3254POPC   C3A42173  20.390  36.792   6.987
 3254POPC   C4A42174  20.618  37.036   7.260
 3254POPC   C1B42175  20.780  37.108   6.279
 3254POPC   C2B42176  20.750  37.095   6.734
 3254POPC   C3B42177  21.003  37.270   7.031
 3254POPC   C4B42178  20.973  37.349   7.476
 3255POPC   NC342179   2.949   2.589   5.109
 3255POPC   PO442180   2.372   2.929   5.267
 3255POPC   GL142181   2.609   2.887   5.684
 3255POPC   GL242182   2.931   2.668   5.668
 3255POPC   C1A42183   2.608   2.859   6.172
 3255POPC   D2A42184   2.390   2.759   6.589
 3255POPC   C3A42185   2.604   2.685   7.000
 3255POPC   C4A42186   2.767   2.855   7.414
 3255POPC   C1B42187   3.048   2.545   6.115
 3255POPC   C2B42188   2.945   2.632   6.553
 3255POPC   C3B42189   3.117   2.629   6.945
 3255POPC   C4B42190   3.285   2.935   7.221
 3256POPC   NC342191  10.084  20.531   5.341
 3256POPC   PO442192   9.484  20.624   5.468
 3256POPC   GL142193   9.795  20.452   5.751
 3256POPC   GL242194   9.953  20.771   5.790
 3256POPC   C1A42195  10.036  20.389   6.156
 3256POPC   D2A42196   9.756  20.445   6.578
 3256POPC   C3A42197   9.884  20.486   7.015
 3256POPC   C4A42198   9.558  20.352   7.277
 3256POPC   C1B42199   9.654  20.714   6.161
 3256POPC   C2B42200   9.528  20.911   6.562
 3256POPC   C3B42201   9.536  20.852   6.989
 3256POPC   C4B42202   9.765  20.870   7.379
 3257POPC   NC342203  21.164  17.137   5.704
 3257POPC   PO442204  21.490  16.618   5.402
 3257POPC   GL142205  21.485  16.743   5.814
 3257POPC   GL242206  21.120  16.637   5.784
 3257POPC   C1A42207  21.472  16.937   6.245
 3257POPC   D2A42208  21.435  17.192   6.647
 3257POPC   C3A42209  21.440  16.980   7.047
 3257POPC   C4A42210  21.725  16.872   7.366
 3257POPC   C1B42211  21.226  16.461   6.156
 3257POPC   C2B42212  21.341  16.551   6.566
 3257POPC   C3B42213  21.140  16.336   6.882
 3257POPC   C4B42214  21.184  16.566   7.231
 3258POPC   NC342215  37.609   8.434   5.330
 3258POPC   PO442216  37.888   7.760   5.429
 3258POPC   GL142217  37.789   8.001   5.803
 3258POPC   GL242218  38.064   7.923   6.013
 3258POPC   C1A42219  37.568   8.297   6.117
 3258POPC   D2A42220  37.293   8.480   6.467
 3258POPC   C3A42221  37.421   8.325   6.877
 3258POPC   C4A42222  37.567   8.363   7.303
 3258POPC   C1B42223  37.725   7.830   6.293
 3258POPC   C2B42224  37.697   7.890   6.732
 3258POPC   C3B42225  37.638   7.903   7.136
 3258POPC   C4B42226  37.929   8.035   7.485
 3259POPC   NC342227  35.060  32.161   5.306
 3259POPC   PO442228  35.652  32.314   5.520
 3259POPC   GL142229  35.412  32.342   5.895
 3259POPC   GL242230  35.107  32.144   5.830
 3259POPC   C1A42231  35.436  32.337   6.362
 3259POPC   D2A42232  35.561  32.136   6.747
 3259POPC   C3A42233  35.590  32.384   7.094
 3259POPC   C4A42234  35.616  32.234   7.481
 3259POPC   C1B42235  34.943  32.365   6.199
 3259POPC   C2B42236  35.036  32.570   6.600
 3259POPC   C3B42237  35.078  32.406   7.013
 3259POPC   C4B42238  35.110  32.454   7.465
 3260POPC   NC342239  16.400  36.638   5.594
 3260POPC   PO442240  16.730  37.243   5.481
 3260POPC   GL142241  16.779  36.963   5.795
 3260POPC   GL242242  16.930  36.630   5.774
 3260POPC   C1A42243  16.583  36.906   6.173
 3260POPC   D2A42244  16.615  36.909   6.594
 3260POPC   C3A42245  16.730  37.160   6.892
 3260POPC   C4A42246  16.495  36.990   7.249
 3260POPC   C1B42247  17.092  36.802   6.172
 3260POPC   C2B42248  17.176  37.002   6.549
 3260POPC   C3B42249  17.238  36.878   6.945
 3260POPC   C4B42250  17.006  37.006   7.281
 3261POPC   NC342251  25.269  18.282   5.219
 3261POPC   PO442252  25.293  19.016   5.111
 3261POPC   GL142253  25.393  19.032   5.615
 3261POPC   GL242254  25.226  19.303   5.836
 3261POPC   C1A42255  25.519  18.960   6.069
 3261POPC   D2A42256  25.350  19.153   6.441
 3261POPC   C3A42257  25.384  18.882   6.753
 3261POPC   C4A42258  25.518  18.855   7.153
 3261POPC   C1B42259  24.966  19.423   6.200
 3261POPC   C2B42260  24.897  19.395   6.635
 3261POPC   C3B42261  25.118  19.229   7.005
 3261POPC   C4B42262  25.061  19.469   7.332
 3262POPC   NC342263  27.506  35.690   5.185
 3262POPC   PO442264  27.291  35.299   5.664
 3262POPC   GL142265  26.960  35.453   5.865
 3262POPC   GL242266  26.716  35.186   5.805
 3262POPC   C1A42267  27.055  35.537   6.282
 3262POPC   D2A42268  27.010  35.302   6.630
 3262POPC   C3A42269  27.008  35.494   6.985
 3262POPC   C4A42270  26.749  35.352   7.281
 3262POPC   C1B42271  26.851  35.051   6.207
 3262POPC   C2B42272  26.683  34.921   6.607
 3262POPC   C3B42273  26.843  34.948   7.000
 3262POPC   C4B42274  26.766  34.861   7.426
 3263POPC   NC342275  17.159   7.982   5.547
 3263POPC   PO442276  17.703   8.363   5.305
 3263POPC   GL142277  17.601   8.153   5.764
 3263POPC   GL242278  17.264   8.282   5.941
 3263POPC   C1A42279  17.698   7.991   6.209
 3263POPC   D2A42280  17.978   8.006   6.608
 3263POPC   C3A42281  17.696   8.024   6.955
 3263POPC   C4A42282  17.529   8.392   7.157
 3263POPC   C1B42283  17.156   7.953   6.244
 3263POPC   C2B42284  17.188   7.933   6.694
 3263POPC   C3B42285  17.193   8.010   7.130
 3263POPC   C4B42286  17.396   8.085   7.541
 3264POPC   NC342287  14.673  36.418   5.439
 3264POPC   PO442288  14.280  35.867   5.486
 3264POPC   GL142289  14.320  36.143   5.849
 3264POPC   GL242290  14.660  36.102   5.845
 3264POPC   C1A42291  14.123  36.043   6.262
 3264POPC   D2A42292  14.047  35.719   6.603
 3264POPC   C3A42293  14.177  35.815   7.028
 3264POPC   C4A42294  14.331  36.017   7.438
 3264POPC   C1B42295  14.720  36.196   6.269
 3264POPC   C2B42296  14.471  36.087   6.626
 3264POPC   C3B42297  14.527  36.191   7.014
 3264POPC   C4B42298  14.848  36.069   7.288
 3265POPC   NC342299  23.957   6.908   5.541
 3265POPC   PO442300  23.422   6.662   5.314
 3265POPC   GL142301  23.564   6.603   5.738
 3265POPC   GL242302  23.479   6.961   5.765
 3265POPC   C1A42303  23.836   6.430   6.101
 3265POPC   D2A42304  23.752   6.347   6.527
 3265POPC   C3A42305  23.940   6.492   6.897
 3265POPC   C4A42306  23.844   6.524   7.278
 3265POPC   C1B42307  23.634   6.893   6.191
 3265POPC   C2B42308  23.689   6.868   6.627
 3265POPC   C3B42309  23.462   6.682   6.941
 3265POPC   C4B42310  23.346   6.787   7.337
 3266POPC   NC342311   3.347   5.511   5.534
 3266POPC   PO442312   3.709   6.129   5.386
 3266POPC   GL142313   3.725   5.808   5.731
 3266POPC   GL242314   3.622   6.054   5.928
 3266POPC   C1A42315   3.557   5.608   6.155
 3266POPC   D2A42316   3.248   5.762   6.470
 3266POPC   C3A42317   3.362   5.633   6.872
 3266POPC   C4A42318   3.649   5.807   7.186
 3266POPC   C1B42319   3.317   6.246   6.198
 3266POPC   C2B42320   3.258   6.368   6.599
 3266POPC   C3B42321   3.339   6.147   6.950
 3266POPC   C4B42322   3.237   6.064   7.388
 3267POPC   NC342323   1.571  31.679   5.269
 3267POPC   PO442324   2.190  31.244   5.275
 3267POPC   GL142325   1.926  31.346   5.621
 3267POPC   GL242326   1.996  31.706   5.668
 3267POPC   C1A42327   1.817  31.199   6.043
 3267POPC   D2A42328   1.669  31.266   6.466
 3267POPC   C3A42329   1.945  31.227   6.822
 3267POPC   C4A42330   1.816  31.336   7.234
 3267POPC   C1B42331   1.910  31.855   6.120
 3267POPC   C2B42332   1.956  31.748   6.566
 3267POPC   C3B42333   1.906  31.926   6.978
 3267POPC   C4B42334   1.969  31.809   7.401
 3268POPC   NC342335  11.247  20.750   5.440
 3268POPC   PO442336  11.874  20.807   5.211
 3268POPC   GL142337  11.625  20.947   5.795
 3268POPC   GL242338  11.287  20.834   5.926
 3268POPC   C1A42339  11.605  20.972   6.289
 3268POPC   D2A42340  11.621  20.626   6.585
 3268POPC   C3A42341  11.431  20.582   6.989
 3268POPC   C4A42342  11.535  20.699   7.395
 3268POPC   C1B42343  11.164  20.592   6.303
 3268POPC   C2B42344  11.000  20.417   6.700
 3268POPC   C3B42345  11.097  20.207   7.080
 3268POPC   C4B42346  11.158  20.374   7.483
 3269POPC   NC342347   7.908   2.025   5.464
 3269POPC   PO442348   7.248   1.802   5.452
 3269POPC   GL142349   7.285   1.886   5.872
 3269POPC   GL242350   7.493   2.158   5.798
 3269POPC   C1A42351   7.211   2.092   6.274
 3269POPC   D2A42352   7.155   2.282   6.686
 3269POPC   C3A42353   7.282   2.034   7.055
 3269POPC   C4A42354   7.287   1.819   7.460
 3269POPC   C1B42355   7.734   2.130   6.182
 3269POPC   C2B42356   7.655   2.231   6.606
 3269POPC   C3B42357   7.811   2.128   7.008
 3269POPC   C4B42358   7.652   2.168   7.420
 3270POPC   NC342359  25.570  35.240   5.412
 3270POPC   PO442360  24.975  35.420   5.468
 3270POPC   GL142361  25.203  35.153   5.761
 3270POPC   GL242362  25.022  35.350   5.977
 3270POPC   C1A42363  25.339  34.987   6.162
 3270POPC   D2A42364  25.108  35.169   6.524
 3270POPC   C3A42365  25.292  35.100   6.935
 3270POPC   C4A42366  25.116  35.157   7.356
 3270POPC   C1B42367  24.889  35.762   6.089
 3270POPC   C2B42368  24.841  35.821   6.533
 3270POPC   C3B42369  25.061  35.601   6.888
 3270POPC   C4B42370  25.016  35.641   7.337
 3271POPC   NC342371   7.165   1.331   5.419
 3271POPC   PO442372   7.710   0.956   5.415
 3271POPC   GL142373   7.458   1.030   5.786
 3271POPC   GL242374   7.464   1.387   5.838
 3271POPC   C1A42375   7.333   1.027   6.241
 3271POPC   D2A42376   7.514   1.095   6.672
 3271POPC   C3A42377   7.348   0.949   7.059
 3271POPC   C4A42378   7.112   1.208   7.314
 3271POPC   C1B42379   7.750   1.594   6.121
 3271POPC   C2B42380   7.807   1.483   6.555
 3271POPC   C3B42381   7.597   1.607   6.932
 3271POPC   C4B42382   7.697   1.545   7.343
 3272POPC   NC342383   8.442  18.873   5.561
 3272POPC   PO442384   9.113  18.855   5.340
 3272POPC   GL142385   8.924  19.014   5.716
 3272POPC   GL242386   8.820  18.717   5.859
 3272POPC   C1A42387   8.973  19.211   6.149
 3272POPC   D2A42388   9.279  19.302   6.504
 3272POPC   C3A42389   9.116  19.221   6.936
 3272POPC   C4A42390   8.931  18.847   7.097
 3272POPC   C1B42391   8.671  18.792   6.248
 3272POPC   C2B42392   8.784  19.004   6.605
 3272POPC   C3B42393   8.595  19.263   6.882
 3272POPC   C4B42394   8.694  19.282   7.274
 3273POPC   NC342395  27.743  26.861   5.089
 3273POPC   PO442396  27.310  26.990   5.610
 3273POPC   GL142397  27.265  26.622   5.867
 3273POPC   GL242398  27.442  26.806   6.093
 3273POPC   C1A42399  27.109  26.482   6.229
 3273POPC   D2A42400  27.246  26.755   6.581
 3273POPC   C3A42401  27.540  26.596   6.868
 3273POPC   C4A42402  27.512  26.700   7.282
 3273POPC   C1B42403  27.732  26.738   6.367
 3273POPC   C2B42404  27.809  27.076   6.562
 3273POPC   C3B42405  27.699  27.101   6.943
 3273POPC   C4B42406  27.870  27.040   7.319
 3274POPC   NC342407  43.436   3.645   5.505
 3274POPC   PO442408  42.939   3.207   5.690
 3274POPC   GL142409  42.858   3.471   5.957
 3274POPC   GL242410  43.071   3.736   5.869
 3274POPC   C1A42411  43.012   3.477   6.368
 3274POPC   D2A42412  43.361   3.522   6.622
 3274POPC   C3A42413  43.128   3.435   6.964
 3274POPC   C4A42414  42.863   3.729   7.163
 3274POPC   C1B42415  43.262   3.918   6.230
 3274POPC   C2B42416  43.257   4.113   6.630
 3274POPC   C3B42417  43.332   3.894   7.029
 3274POPC   C4B42418  43.548   3.650   7.381
 3275POPC   NC342419   9.502  25.676   5.443
 3275POPC   PO442420   9.870  26.299   5.414
 3275POPC   GL142421   9.702  26.090   5.765
 3275POPC   GL242422   9.887  25.784   5.815
 3275POPC   C1A42423   9.596  26.324   6.134
 3275POPC   D2A42424   9.805  26.551   6.450
 3275POPC   C3A42425   9.797  26.300   6.794
 3275POPC   C4A42426   9.666  26.112   7.155
 3275POPC   C1B42427   9.630  25.783   6.189
 3275POPC   C2B42428   9.542  25.769   6.638
 3275POPC   C3B42429   9.778  25.649   6.990
 3275POPC   C4B42430   9.773  25.693   7.432
 3276POPC   NC342431  18.592  16.979   5.505
 3276POPC   PO442432  19.087  17.468   5.346
 3276POPC   GL142433  19.144  17.485   5.745
 3276POPC   GL242434  18.808  17.377   5.767
 3276POPC   C1A42435  19.427  17.553   6.095
 3276POPC   D2A42436  19.580  17.629   6.520
 3276POPC   C3A42437  19.274  17.735   6.832
 3276POPC   C4A42438  19.234  17.562   7.242
 3276POPC   C1B42439  18.913  17.625   6.169
 3276POPC   C2B42440  18.737  17.528   6.565
 3276POPC   C3B42441  18.808  17.520   6.966
 3276POPC   C4B42442  18.802  17.864   7.198
 3277POPC   NC342443   3.879  26.122   5.360
 3277POPC   PO442444   3.320  25.765   5.453
 3277POPC   GL142445   3.400  26.015   5.806
 3277POPC   GL242446   3.770  26.100   5.837
 3277POPC   C1A42447   3.478  26.084   6.242
 3277POPC   D2A42448   3.548  25.929   6.617
 3277POPC   C3A42449   3.269  25.738   6.885
 3277POPC   C4A42450   3.423  25.744   7.314
 3277POPC   C1B42451   3.886  26.377   6.160
 3277POPC   C2B42452   3.978  26.373   6.582
 3277POPC   C3B42453   3.881  26.160   6.933
 3277POPC   C4B42454   3.769  26.387   7.287
 3278POPC   NC342455  22.740   2.734   5.453
 3278POPC   PO442456  23.331   2.435   5.381
 3278POPC   GL142457  23.097   2.527   5.760
 3278POPC   GL242458  23.015   2.910   5.847
 3278POPC   C1A42459  22.794   2.526   6.116
 3278POPC   D2A42460  22.696   2.491   6.567
 3278POPC   C3A42461  22.956   2.501   6.923
 3278POPC   C4A42462  22.891   2.611   7.372
 3278POPC   C1B42463  22.718   3.029   6.206
 3278POPC   C2B42464  22.660   3.000   6.669
 3278POPC   C3B42465  22.881   3.007   7.051
 3278POPC   C4B42466  22.871   3.104   7.493
 3279POPC   NC342467  19.287   4.724   5.637
 3279POPC   PO442468  19.033   5.383   5.582
 3279POPC   GL142469  19.074   5.123   5.905
 3279POPC   GL242470  19.430   5.092   5.985
 3279POPC   C1A42471  19.047   5.190   6.328
 3279POPC   D2A42472  19.231   5.112   6.698
 3279POPC   C3A42473  18.919   5.103   7.014
 3279POPC   C4A42474  18.972   5.397   7.313
 3279POPC   C1B42475  19.290   4.725   6.274
 3279POPC   C2B42476  19.122   4.608   6.665
 3279POPC   C3B42477  19.290   4.742   7.040
 3279POPC   C4B42478  19.211   4.937   7.422
 3280POPC   NC342479   6.518  23.909   5.357
 3280POPC   PO442480   6.418  24.605   5.452
 3280POPC   GL142481   6.490  24.303   5.808
 3280POPC   GL242482   6.678  24.563   5.966
 3280POPC   C1A42483   6.510  24.240   6.312
 3280POPC   D2A42484   6.558  24.563   6.664
 3280POPC   C3A42485   6.587  24.407   7.126
 3280POPC   C4A42486   6.777  24.069   7.408
 3280POPC   C1B42487   6.795  24.931   6.205
 3280POPC   C2B42488   6.945  24.942   6.620
 3280POPC   C3B42489   6.811  24.870   7.026
 3280POPC   C4B42490   7.008  24.926   7.416
 3281POPC   NC342491   9.300  34.761   5.591
 3281POPC   PO442492   8.795  34.319   5.349
 3281POPC   GL142493   8.933  34.493   5.773
 3281POPC   GL242494   8.866  34.834   5.858
 3281POPC   C1A42495   8.951  34.470   6.236
 3281POPC   D2A42496   9.143  34.489   6.608
 3281POPC   C3A42497   8.863  34.448   6.946
 3281POPC   C4A42498   8.752  34.455   7.344
 3281POPC   C1B42499   9.147  34.926   6.202
 3281POPC   C2B42500   9.336  34.960   6.585
 3281POPC   C3B42501   9.176  34.844   7.017
 3281POPC   C4B42502   9.244  34.590   7.358
 3282POPC   NC342503  44.962  33.684   5.395
 3282POPC   PO442504   0.706  33.727   5.364
 3282POPC   GL142505   0.401  33.623   5.679
 3282POPC   GL242506   0.320  33.973   5.629
 3282POPC   C1A42507   0.454  33.492   6.120
 3282POPC   D2A42508   0.563  33.573   6.551
 3282POPC   C3A42509   0.219  33.634   6.862
 3282POPC   C4A42510   0.294  33.782   7.278
 3282POPC   C1B42511   0.336  33.986   6.075
 3282POPC   C2B42512   0.299  34.018   6.524
 3282POPC   C3B42513   0.384  34.123   6.929
 3282POPC   C4B42514   0.239  34.433   7.192
 3283POPC   NC342515  17.431   1.645   5.435
 3283POPC   PO442516  17.800   2.226   5.525
 3283POPC   GL142517  17.548   2.002   5.871
 3283POPC   GL242518  17.287   1.757   5.901
 3283POPC   C1A42519  17.588   1.947   6.337
 3283POPC   D2A42520  17.780   2.244   6.630
 3283POPC   C3A42521  17.658   2.261   7.070
 3283POPC   C4A42522  17.543   2.223   7.526
 3283POPC   C1B42523  17.084   1.662   6.279
 3283POPC   C2B42524  17.163   1.743   6.671
 3283POPC   C3B42525  17.547   1.794   6.879
 3283POPC   C4B42526  17.530   1.727   7.330
 3284POPC   NC342527   3.986  29.744   5.414
 3284POPC   PO442528   4.352  30.237   5.121
 3284POPC   GL142529   4.391  29.961   5.606
 3284POPC   GL242530   4.429  29.583   5.703
 3284POPC   C1A42531   4.310  30.035   6.098
 3284POPC   D2A42532   4.556  30.218   6.460
 3284POPC   C3A42533   4.414  30.141   6.885
 3284POPC   C4A42534   4.240  30.108   7.317
 3284POPC   C1B42535   4.187  29.544   6.119
 3284POPC   C2B42536   4.284  29.741   6.542
 3284POPC   C3B42537   4.092  29.756   6.950
 3284POPC   C4B42538   3.908  29.701   7.346
 3285POPC   NC342539  30.297  13.448   5.287
 3285POPC   PO442540  30.583  14.098   5.309
 3285POPC   GL142541  30.557  13.820   5.693
 3285POPC   GL242542  30.748  13.501   5.722
 3285POPC   C1A42543  30.762  13.857   6.101
 3285POPC   D2A42544  30.736  13.947   6.558
 3285POPC   C3A42545  30.463  13.729   6.877
 3285POPC   C4A42546  30.458  13.832   7.325
 3285POPC   C1B42547  30.849  13.346   6.172
 3285POPC   C2B42548  30.775  13.439   6.566
 3285POPC   C3B42549  30.970  13.583   6.916
 3285POPC   C4B42550  30.782  13.434   7.260
 3286POPC   NC342551   1.835  34.134   5.450
 3286POPC   PO442552   2.057  33.537   5.306
 3286POPC   GL142553   2.038  33.733   5.754
 3286POPC   GL242554   1.687  33.824   5.838
 3286POPC   C1A42555   1.990  33.678   6.236
 3286POPC   D2A42556   2.317  33.780   6.601
 3286POPC   C3A42557   2.155  33.708   7.036
 3286POPC   C4A42558   2.188  33.296   7.303
 3286POPC   C1B42559   1.733  34.141   6.178
 3286POPC   C2B42560   1.872  34.025   6.596
 3286POPC   C3B42561   1.773  34.054   7.006
 3286POPC   C4B42562   1.563  34.166   7.352
 3287POPC   NC342563  15.284  43.723   5.450
 3287POPC   PO442564  14.898  44.247   5.774
 3287POPC   GL142565  15.045  43.828   5.892
 3287POPC   GL242566  15.412  43.914   5.899
 3287POPC   C1A42567  15.270  43.579   6.239
 3287POPC   D2A42568  15.265  43.418   6.647
 3287POPC   C3A42569  15.086  43.665   6.960
 3287POPC   C4A42570  15.123  44.069   7.157
 3287POPC   C1B42571  15.557  44.032   6.330
 3287POPC   C2B42572  15.479  43.954   6.777
 3287POPC   C3B42573  15.624  43.956   7.205
 3287POPC   C4B42574  15.486  43.892   7.654
 3288POPC   NC342575  20.409  30.436   5.436
 3288POPC   PO442576  20.873  30.904   5.411
 3288POPC   GL142577  20.799  30.609   5.771
 3288POPC   GL242578  20.822  30.227   5.803
 3288POPC   C1A42579  20.574  30.670   6.151
 3288POPC   D2A42580  20.688  30.872   6.511
 3288POPC   C3A42581  20.464  30.745   6.880
 3288POPC   C4A42582  20.604  30.927   7.275
 3288POPC   C1B42583  20.566  30.155   6.186
 3288POPC   C2B42584  20.385  30.273   6.562
 3288POPC   C3B42585  20.480  30.194   6.976
 3288POPC   C4B42586  20.739  30.436   7.222
 3289POPC   NC342587  34.304  25.662   5.667
 3289POPC   PO442588  34.783  26.122   5.426
 3289POPC   GL142589  34.705  26.156   5.815
 3289POPC   GL242590  34.788  25.820   5.945
 3289POPC   C1A42591  34.623  26.221   6.225
 3289POPC   D2A42592  34.809  25.989   6.579
 3289POPC   C3A42593  34.827  26.227   6.939
 3289POPC   C4A42594  34.475  26.503   7.058
 3289POPC   C1B42595  34.452  25.751   6.299
 3289POPC   C2B42596  34.450  25.631   6.755
 3289POPC   C3B42597  34.592  25.753   7.190
 3289POPC   C4B42598  34.520  25.595   7.626
 3290POPC   NC342599  28.897  38.700   5.195
 3290POPC   PO442600  29.279  38.252   5.460
 3290POPC   GL142601  29.089  38.298   5.815
 3290POPC   GL242602  29.150  38.648   5.845
 3290POPC   C1A42603  29.179  38.228   6.222
 3290POPC   D2A42604  29.113  38.503   6.558
 3290POPC   C3A42605  29.158  38.250   6.935
 3290POPC   C4A42606  29.250  38.313   7.368
 3290POPC   C1B42607  29.424  38.864   6.162
 3290POPC   C2B42608  29.435  38.952   6.612
 3290POPC   C3B42609  29.259  38.773   7.009
 3290POPC   C4B42610  29.374  38.811   7.437
 3291POPC   NC342611   6.931  33.692   5.459
 3291POPC   PO442612   6.242  33.798   5.376
 3291POPC   GL142613   6.516  33.788   5.759
 3291POPC   GL242614   6.733  34.063   5.756
 3291POPC   C1A42615   6.735  33.778   6.189
 3291POPC   D2A42616   6.602  33.558   6.573
 3291POPC   C3A42617   6.612  33.774   6.985
 3291POPC   C4A42618   6.855  33.891   7.377
 3291POPC   C1B42619   6.433  34.182   6.087
 3291POPC   C2B42620   6.554  34.112   6.525
 3291POPC   C3B42621   6.442  34.275   6.917
 3291POPC   C4B42622   6.526  34.287   7.349
 3292POPC   NC342623  31.717  43.087   5.426
 3292POPC   PO442624  31.134  43.161   5.612
 3292POPC   GL142625  31.383  42.890   5.818
 3292POPC   GL242626  31.126  42.613   5.861
 3292POPC   C1A42627  31.618  43.057   6.175
 3292POPC   D2A42628  31.447  43.349   6.498
 3292POPC   C3A42629  31.584  43.301   6.928
 3292POPC   C4A42630  31.494  43.471   7.338
 3292POPC   C1B42631  31.136  42.881   6.272
 3292POPC   C2B42632  31.241  42.945   6.735
 3292POPC   C3B42633  31.289  42.954   7.202
 3292POPC   C4B42634  31.078  42.756   7.590
 3293POPC   NC342635  29.660  33.082   5.459
 3293POPC   PO442636  30.233  33.115   5.844
 3293POPC   GL142637  29.801  33.145   5.956
 3293POPC   GL242638  29.741  32.770   5.904
 3293POPC   C1A42639  29.719  33.291   6.370
 3293POPC   D2A42640  29.795  33.078   6.755
 3293POPC   C3A42641  30.033  33.233   7.079
 3293POPC   C4A42642  30.114  33.061   7.470
 3293POPC   C1B42643  29.720  32.760   6.357
 3293POPC   C2B42644  29.676  32.563   6.748
 3293POPC   C3B42645  29.855  32.718   7.125
 3293POPC   C4B42646  29.855  32.652   7.551
 3294POPC   NC342647  42.086   1.387   5.619
 3294POPC   PO442648  42.513   0.965   5.309
 3294POPC   GL142649  42.410   1.014   5.757
 3294POPC   GL242650  42.568   1.314   5.782
 3294POPC   C1A42651  42.233   1.116   6.203
 3294POPC   D2A42652  42.104   1.395   6.560
 3294POPC   C3A42653  42.181   1.260   6.985
 3294POPC   C4A42654  42.023   0.908   7.224
 3294POPC   C1B42655  42.749   1.181   6.182
 3294POPC   C2B42656  42.627   1.321   6.624
 3294POPC   C3B42657  42.665   1.330   7.100
 3294POPC   C4B42658  42.599   1.434   7.550
 3295POPC   NC342659  34.365  25.138   5.142
 3295POPC   PO442660  34.744  25.437   5.577
 3295POPC   GL142661  34.592  25.329   5.947
 3295POPC   GL242662  34.377  25.097   5.848
 3295POPC   C1A42663  34.561  25.253   6.356
 3295POPC   D2A42664  34.806  25.154   6.649
 3295POPC   C3A42665  34.805  25.323   7.016
 3295POPC   C4A42666  34.649  25.181   7.367
 3295POPC   C1B42667  34.184  24.902   6.239
 3295POPC   C2B42668  34.313  24.940   6.693
 3295POPC   C3B42669  34.167  25.210   7.007
 3295POPC   C4B42670  34.154  25.295   7.436
 3296POPC   NC342671  43.996   6.104   5.138
 3296POPC   PO442672  43.646   5.580   5.329
 3296POPC   GL142673  43.768   5.707   5.801
 3296POPC   GL242674  43.837   6.012   6.043
 3296POPC   C1A42675  43.712   5.585   6.260
 3296POPC   D2A42676  43.702   5.880   6.632
 3296POPC   C3A42677  43.747   5.694   7.044
 3296POPC   C4A42678  43.485   5.479   7.297
 3296POPC   C1B42679  44.153   6.188   6.345
 3296POPC   C2B42680  44.048   6.399   6.731
 3296POPC   C3B42681  43.841   6.189   7.091
 3296POPC   C4B42682  44.161   6.073   7.397
 3297POPC   NC342683   5.040   1.613   5.002
 3297POPC   PO442684   5.081   1.081   5.473
 3297POPC   GL142685   5.040   1.265   5.893
 3297POPC   GL242686   5.386   1.285   5.950
 3297POPC   C1A42687   5.091   1.224   6.371
 3297POPC   D2A42688   5.223   0.950   6.729
 3297POPC   C3A42689   5.334   1.082   7.153
 3297POPC   C4A42690   5.293   1.018   7.602
 3297POPC   C1B42691   5.297   1.665   6.174
 3297POPC   C2B42692   5.276   1.631   6.614
 3297POPC   C3B42693   5.071   1.514   6.959
 3297POPC   C4B42694   5.185   1.533   7.377
 3298POPC   NC342695   3.258  35.970   5.386
 3298POPC   PO442696   3.857  35.893   5.460
 3298POPC   GL142697   3.597  35.954   5.799
 3298POPC   GL242698   3.426  36.281   5.787
 3298POPC   C1A42699   3.387  35.933   6.192
 3298POPC   D2A42700   3.215  36.045   6.587
 3298POPC   C3A42701   3.393  36.038   7.030
 3298POPC   C4A42702   3.460  35.789   7.445
 3298POPC   C1B42703   3.752  36.311   6.137
 3298POPC   C2B42704   3.726  36.284   6.587
 3298POPC   C3B42705   3.786  36.400   7.015
 3298POPC   C4B42706   3.855  36.051   7.262
 3299POPC   NC342707   9.162   6.785   5.432
 3299POPC   PO442708   8.699   6.295   5.239
 3299POPC   GL142709   8.836   6.363   5.688
 3299POPC   GL242710   9.191   6.408   5.764
 3299POPC   C1A42711   8.745   6.459   6.162
 3299POPC   D2A42712   8.836   6.824   6.490
 3299POPC   C3A42713   8.696   6.738   6.947
 3299POPC   C4A42714   8.767   6.478   7.309
 3299POPC   C1B42715   9.229   6.614   6.169
 3299POPC   C2B42716   9.210   6.470   6.571
 3299POPC   C3B42717   9.231   6.808   6.854
 3299POPC   C4B42718   9.150   6.801   7.252
 3300POPC   NC342719  12.891  42.420   5.133
 3300POPC   PO442720  12.471  42.711   5.597
 3300POPC   GL142721  12.904  42.620   5.771
 3300POPC   GL242722  13.044  42.271   5.866
 3300POPC   C1A42723  12.987  42.646   6.199
 3300POPC   D2A42724  12.815  42.719   6.588
 3300POPC   C3A42725  12.892  42.600   6.972
 3300POPC   C4A42726  12.620  42.342   7.178
 3300POPC   C1B42727  12.985  42.088   6.261
 3300POPC   C2B42728  12.800  42.177   6.645
 3300POPC   C3B42729  13.029  42.100   6.989
 3300POPC   C4B42730  13.026  41.952   7.400
 3301POPC   NC342731  21.934  16.903   5.518
 3301POPC   PO442732  22.470  16.485   5.553
 3301POPC   GL142733  22.311  16.746   5.872
 3301POPC   GL242734  22.012  16.534   5.860
 3301POPC   C1A42735  22.035  16.882   6.228
 3301POPC   D2A42736  21.806  16.803   6.602
 3301POPC   C3A42737  22.078  16.747   6.926
 3301POPC   C4A42738  22.254  16.902   7.297
 3301POPC   C1B42739  21.747  16.432   6.195
 3301POPC   C2B42740  21.767  16.282   6.603
 3301POPC   C3B42741  21.654  16.487   6.984
 3301POPC   C4B42742  21.874  16.392   7.366
 3302POPC   NC342743  20.506   8.929   5.174
 3302POPC   PO442744  21.093   9.148   5.333
 3302POPC   GL142745  20.732   9.113   5.632
 3302POPC   GL242746  20.953   9.253   5.876
 3302POPC   C1A42747  20.515   9.139   6.057
 3302POPC   D2A42748  20.568   9.140   6.513
 3302POPC   C3A42749  20.526   8.816   6.829
 3302POPC   C4A42750  20.466   8.782   7.257
 3302POPC   C1B42751  20.979   9.414   6.306
 3302POPC   C2B42752  21.044   9.216   6.717
 3302POPC   C3B42753  20.796   9.157   7.085
 3302POPC   C4B42754  20.930   8.913   7.429
 3303POPC   NC342755  13.199  24.130   5.684
 3303POPC   PO442756  12.812  24.570   5.351
 3303POPC   GL142757  12.857  24.536   5.792
 3303POPC   GL242758  12.524  24.446   5.886
 3303POPC   C1A42759  12.997  24.755   6.202
 3303POPC   D2A42760  13.266  24.691   6.573
 3303POPC   C3A42761  13.173  24.473   6.963
 3303POPC   C4A42762  13.067  24.718   7.349
 3303POPC   C1B42763  12.784  24.276   6.229
 3303POPC   C2B42764  12.805  24.472   6.615
 3303POPC   C3B42765  12.684  24.554   7.035
 3303POPC   C4B42766  12.844  24.188   7.235
 3304POPC   NC342767  44.156  13.141   5.327
 3304POPC   PO442768  43.943  12.428   5.354
 3304POPC   GL142769  44.046  12.661   5.751
 3304POPC   GL242770  43.977  13.047   5.808
 3304POPC   C1A42771  43.838  12.712   6.162
 3304POPC   D2A42772  43.678  12.918   6.520
 3304POPC   C3A42773  43.568  12.630   6.823
 3304POPC   C4A42774  43.728  12.814   7.165
 3304POPC   C1B42775  44.114  13.154   6.267
 3304POPC   C2B42776  44.029  13.227   6.744
 3304POPC   C3B42777  44.171  13.059   7.179
 3304POPC   C4B42778  44.330  13.042   7.632
 3305POPC   NC342779  34.892   4.355   5.557
 3305POPC   PO442780  34.426   3.943   5.435
 3305POPC   GL142781  34.500   4.121   5.832
 3305POPC   GL242782  34.525   4.507   5.897
 3305POPC   C1A42783  34.646   4.156   6.243
 3305POPC   D2A42784  34.361   4.303   6.553
 3305POPC   C3A42785  34.367   4.091   6.932
 3305POPC   C4A42786  34.710   4.061   7.223
 3305POPC   C1B42787  34.700   4.646   6.312
 3305POPC   C2B42788  34.831   4.389   6.683
 3305POPC   C3B42789  34.697   4.547   7.086
 3305POPC   C4B42790  34.678   4.514   7.532
 3306POPC   NC342791  34.685   7.731   5.010
 3306POPC   PO442792  34.898   7.154   5.357
 3306POPC   GL142793  34.742   7.222   5.789
 3306POPC   GL242794  34.379   7.218   5.815
 3306POPC   C1A42795  34.660   7.485   6.172
 3306POPC   D2A42796  34.326   7.649   6.483
 3306POPC   C3A42797  34.429   7.475   6.901
 3306POPC   C4A42798  34.873   7.579   6.980
 3306POPC   C1B42799  34.174   7.225   6.244
 3306POPC   C2B42800  33.980   7.291   6.678
 3306POPC   C3B42801  34.104   7.089   7.092
 3306POPC   C4B42802  34.370   6.934   7.481
 3307POPC   NC342803  17.808  14.562   5.820
 3307POPC   PO442804  17.200  14.375   5.482
 3307POPC   GL142805  17.308  14.248   5.896
 3307POPC   GL242806  17.525  13.967   5.801
 3307POPC   C1A42807  17.272  14.416   6.336
 3307POPC   D2A42808  17.567  14.630   6.600
 3307POPC   C3A42809  17.450  14.734   6.971
 3307POPC   C4A42810  17.314  14.402   7.190
 3307POPC   C1B42811  17.651  14.006   6.237
 3307POPC   C2B42812  17.541  14.129   6.654
 3307POPC   C3B42813  17.731  14.159   7.033
 3307POPC   C4B42814  17.834  14.017   7.424
 3308POPC   NC342815  10.648  38.463   5.424
 3308POPC   PO442816  10.153  37.995   5.510
 3308POPC   GL142817  10.466  38.225   5.826
 3308POPC   GL242818  10.555  38.605   5.892
 3308POPC   C1A42819  10.507  38.268   6.266
 3308POPC   D2A42820  10.255  38.458   6.572
 3308POPC   C3A42821  10.470  38.383   6.957
 3308POPC   C4A42822  10.492  38.666   7.289
 3308POPC   C1B42823  10.860  38.624   6.233
 3308POPC   C2B42824  10.888  38.464   6.628
 3308POPC   C3B42825  10.962  38.555   7.035
 3308POPC   C4B42826  10.871  38.331   7.361
 3309POPC   NC342827   5.581  10.265   5.531
 3309POPC   PO442828   6.020  10.764   5.424
 3309POPC   GL142829   6.000  10.571   5.804
 3309POPC   GL242830   5.674  10.566   5.982
 3309POPC   C1A42831   6.158  10.552   6.202
 3309POPC   D2A42832   6.013  10.573   6.594
 3309POPC   C3A42833   5.607  10.630   6.781
 3309POPC   C4A42834   5.688  10.494   7.205
 3309POPC   C1B42835   5.714  10.250   6.339
 3309POPC   C2B42836   5.659  10.125   6.814
 3309POPC   C3B42837   5.701   9.983   7.269
 3309POPC   C4B42838   5.648  10.188   7.689
 3310POPC   NC342839   8.733  17.626   5.381
 3310POPC   PO442840   9.316  17.876   5.385
 3310POPC   GL142841   9.115  17.666   5.755
 3310POPC   GL242842   8.897  17.383   5.829
 3310POPC   C1A42843   8.946  17.730   6.184
 3310POPC   D2A42844   9.106  17.664   6.602
 3310POPC   C3A42845   8.930  17.598   7.004
 3310POPC   C4A42846   9.023  17.533   7.477
 3310POPC   C1B42847   9.070  17.214   6.257
 3310POPC   C2B42848   9.153  17.167   6.726
 3310POPC   C3B42849   8.989  17.114   7.138
 3310POPC   C4B42850   8.712  17.121   7.503
 3311POPC   NC342851  41.076   4.592   5.322
 3311POPC   PO442852  40.724   4.044   5.182
 3311POPC   GL142853  40.816   4.267   5.590
 3311POPC   GL242854  40.605   4.558   5.660
 3311POPC   C1A42855  41.010   4.170   5.998
 3311POPC   D2A42856  41.065   4.232   6.433
 3311POPC   C3A42857  40.861   4.123   6.827
 3311POPC   C4A42858  40.926   4.233   7.264
 3311POPC   C1B42859  40.738   4.611   6.107
 3311POPC   C2B42860  40.623   4.517   6.539
 3311POPC   C3B42861  40.664   4.618   6.962
 3311POPC   C4B42862  40.519   4.533   7.379
 3312POPC   NC342863  34.232  14.542   5.631
 3312POPC   PO442864  34.881  14.675   5.435
 3312POPC   GL142865  34.672  14.639   5.890
 3312POPC   GL242866  34.531  14.281   5.951
 3312POPC   C1A42867  34.374  14.647   6.283
 3312POPC   D2A42868  34.293  14.361   6.633
 3312POPC   C3A42869  34.667  14.248   6.842
 3312POPC   C4A42870  34.864  14.252   7.218
 3312POPC   C1B42871  34.640  14.074   6.343
 3312POPC   C2B42872  34.415  13.830   6.648
 3312POPC   C3B42873  34.214  14.002   7.002
 3312POPC   C4B42874  34.260  14.423   7.178
 3313POPC   NC342875   6.647  39.223   5.379
 3313POPC   PO442876   7.119  39.670   5.159
 3313POPC   GL142877   6.938  39.479   5.690
 3313POPC   GL242878   6.777  39.118   5.850
 3313POPC   C1A42879   7.031  39.367   6.188
 3313POPC   D2A42880   7.188  39.165   6.569
 3313POPC   C3A42881   6.909  39.204   6.848
 3313POPC   C4A42882   6.926  39.466   7.132
 3313POPC   C1B42883   6.510  39.315   6.177
 3313POPC   C2B42884   6.393  39.226   6.622
 3313POPC   C3B42885   6.443  39.393   7.017
 3313POPC   C4B42886   6.244  39.515   7.365
 3314POPC   NC342887   5.927  35.800   5.333
 3314POPC   PO442888   6.334  36.344   5.401
 3314POPC   GL142889   6.134  36.272   5.798
 3314POPC   GL242890   5.869  36.044   5.796
 3314POPC   C1A42891   5.953  36.379   6.205
 3314POPC   D2A42892   5.750  36.204   6.569
 3314POPC   C3A42893   5.827  36.407   6.969
 3314POPC   C4A42894   5.535  36.490   7.312
 3314POPC   C1B42895   5.958  35.871   6.212
 3314POPC   C2B42896   6.114  35.860   6.638
 3314POPC   C3B42897   5.824  35.870   6.963
 3314POPC   C4B42898   5.779  36.058   7.348
 3315POPC   NC342899  20.978  20.042   5.320
 3315POPC   PO442900  20.431  19.743   5.466
 3315POPC   GL142901  20.468  19.561   5.885
 3315POPC   GL242902  20.698  19.833   5.898
 3315POPC   C1A42903  20.556  19.692   6.353
 3315POPC   D2A42904  20.486  20.125   6.558
 3315POPC   C3A42905  20.161  20.174   6.912
 3315POPC   C4A42906  20.352  20.133   7.293
 3315POPC   C1B42907  20.951  20.027   6.223
 3315POPC   C2B42908  20.970  19.958   6.615
 3315POPC   C3B42909  20.728  19.828   6.924
 3315POPC   C4B42910  20.851  20.016   7.279
 3316POPC   NC342911   2.689  29.921   5.330
 3316POPC   PO442912   3.145  29.518   5.406
 3316POPC   GL142913   3.054  29.612   5.820
 3316POPC   GL242914   2.959  29.976   5.777
 3316POPC   C1A42915   3.097  29.749   6.248
 3316POPC   D2A42916   2.781  29.794   6.538
 3316POPC   C3A42917   2.864  29.890   6.955
 3316POPC   C4A42918   2.576  29.825   7.268
 3316POPC   C1B42919   2.893  30.219   6.152
 3316POPC   C2B42920   3.026  30.284   6.563
 3316POPC   C3B42921   2.942  30.391   7.009
 3316POPC   C4B42922   2.799  30.265   7.399
 3317POPC   NC342923  24.729   6.658   5.437
 3317POPC   PO442924  24.097   6.403   5.519
 3317POPC   GL142925  24.380   6.580   5.831
 3317POPC   GL242926  24.651   6.851   5.911
 3317POPC   C1A42927  24.189   6.792   6.144
 3317POPC   D2A42928  24.172   6.749   6.543
 3317POPC   C3A42929  24.446   6.529   6.818
 3317POPC   C4A42930  24.307   6.747   7.184
 3317POPC   C1B42931  24.656   6.742   6.342
 3317POPC   C2B42932  24.603   7.016   6.701
 3317POPC   C3B42933  24.796   6.864   7.069
 3317POPC   C4B42934  24.803   6.428   7.260
 3318POPC   NC342935  41.433  30.308   5.383
 3318POPC   PO442936  41.711  29.687   5.378
 3318POPC   GL142937  41.585  29.685   5.786
 3318POPC   GL242938  41.921  29.622   5.870
 3318POPC   C1A42939  41.367  29.782   6.161
 3318POPC   D2A42940  41.498  29.766   6.575
 3318POPC   C3A42941  41.490  30.076   6.894
 3318POPC   C4A42942  41.313  29.876   7.250
 3318POPC   C1B42943  41.924  29.742   6.281
 3318POPC   C2B42944  41.930  29.499   6.643
 3318POPC   C3B42945  41.770  29.657   7.003
 3318POPC   C4B42946  41.806  29.978   7.294
 3319POPC   NC342947  43.164  16.041   5.427
 3319POPC   PO442948  42.724  15.658   5.740
 3319POPC   GL142949  43.197  15.770   5.874
 3319POPC   GL242950  43.483  15.534   5.814
 3319POPC   C1A42951  43.391  16.130   6.161
 3319POPC   D2A42952  43.399  16.395   6.591
 3319POPC   C3A42953  43.347  16.133   6.962
 3319POPC   C4A42954  42.974  16.155   7.234
 3319POPC   C1B42955  43.533  15.621   6.268
 3319POPC   C2B42956  43.412  15.676   6.727
 3319POPC   C3B42957  43.567  15.675   7.145
 3319POPC   C4B42958  43.350  15.855   7.511
 3320POPC   NC342959  12.313  44.666   5.611
 3320POPC   PO442960  11.682  44.248   5.666
 3320POPC   GL142961  11.877  44.548   5.886
 3320POPC   GL242962  11.768  44.891   5.863
 3320POPC   C1A42963  12.046  44.612   6.285
 3320POPC   D2A42964  11.813  44.642   6.645
 3320POPC   C3A42965  12.023  44.520   6.985
 3320POPC   C4A42966  12.022  44.425   7.379
 3320POPC   C1B42967  11.791   0.076   6.286
 3320POPC   C2B42968  11.923   0.146   6.743
 3320POPC   C3B42969  11.838  44.955   7.169
 3320POPC   C4B42970  11.720   0.014   7.613
 3321POPC   NC342971   4.062  18.620   5.058
 3321POPC   PO442972   4.660  18.998   5.278
 3321POPC   GL142973   4.518  19.184   5.697
 3321POPC   GL242974   4.207  19.055   5.749
 3321POPC   C1A42975   4.346  19.323   6.160
 3321POPC   D2A42976   4.282  19.136   6.615
 3321POPC   C3A42977   4.435  19.230   7.077
 3321POPC   C4A42978   4.244  19.326   7.513
 3321POPC   C1B42979   4.336  18.815   6.139
 3321POPC   C2B42980   4.155  18.614   6.485
 3321POPC   C3B42981   4.176  18.694   6.902
 3321POPC   C4B42982   4.507  18.634   7.165
 3322POPC   NC342983  38.803  37.195   5.402
 3322POPC   PO442984  38.460  36.599   5.254
 3322POPC   GL142985  38.384  36.824   5.730
 3322POPC   GL242986  38.583  37.120   5.873
 3322POPC   C1A42987  38.424  36.725   6.210
 3322POPC   D2A42988  38.361  36.577   6.653
 3322POPC   C3A42989  38.293  36.790   7.024
 3322POPC   C4A42990  38.386  37.173   7.225
 3322POPC   C1B42991  38.359  37.237   6.263
 3322POPC   C2B42992  38.437  37.138   6.690
 3322POPC   C3B42993  38.813  37.227   6.953
 3322POPC   C4B42994  38.839  37.320   7.401
 3323POPC   NC342995  16.417  19.816   5.652
 3323POPC   PO442996  16.946  20.165   5.617
 3323POPC   GL142997  16.824  19.943   5.960
 3323POPC   GL242998  16.829  19.588   5.850
 3323POPC   C1A42999  16.537  19.989   6.328
 3323POPC   D2A43000  16.557  19.756   6.724
 3323POPC   C3A43001  16.724  19.910   7.084
 3323POPC   C4A43002  17.044  19.871   7.360
 3323POPC   C1B43003  16.614  19.499   6.247
 3323POPC   C2B43004  16.627  19.254   6.621
 3323POPC   C3B43005  16.769  19.354   7.021
 3323POPC   C4B43006  16.477  19.496   7.265
 3324POPC   NC343007   1.706  27.045   5.393
 3324POPC   PO443008   2.111  26.630   5.698
 3324POPC   GL143009   2.017  26.977   5.907
 3324POPC   GL243010   2.404  27.076   5.894
 3324POPC   C1A43011   1.751  26.802   6.271
 3324POPC   D2A43012   1.833  26.510   6.644
 3324POPC   C3A43013   1.808  26.676   7.068
 3324POPC   C4A43014   1.987  26.804   7.469
 3324POPC   C1B43015   2.284  26.861   6.317
 3324POPC   C2B43016   2.003  26.999   6.667
 3324POPC   C3B43017   2.026  27.145   7.058
 3324POPC   C4B43018   2.349  27.145   7.324
 3325POPC   NC343019  20.098  38.196   5.444
 3325POPC   PO443020  19.590  38.524   5.646
 3325POPC   GL143021  20.013  38.503   5.848
 3325POPC   GL243022  20.006  38.156   5.954
 3325POPC   C1A43023  20.058  38.583   6.285
 3325POPC   D2A43024  19.765  38.782   6.581
 3325POPC   C3A43025  19.763  38.503   6.895
 3325POPC   C4A43026  19.552  38.411   7.257
 3325POPC   C1B43027  20.339  38.011   6.235
 3325POPC   C2B43028  20.382  38.223   6.615
 3325POPC   C3B43029  20.174  38.163   7.001
 3325POPC   C4B43030  20.064  38.451   7.300
 3326POPC   NC343031  26.606  30.186   5.492
 3326POPC   PO443032  26.921  29.603   5.581
 3326POPC   GL143033  26.737  29.858   5.850
 3326POPC   GL243034  26.992  30.156   5.825
 3326POPC   C1A43035  26.534  29.766   6.239
 3326POPC   D2A43036  26.802  29.646   6.578
 3326POPC   C3A43037  26.605  29.636   6.955
 3326POPC   C4A43038  26.615  29.452   7.368
 3326POPC   C1B43039  26.939  30.081   6.256
 3326POPC   C2B43040  26.756  30.162   6.602
 3326POPC   C3B43041  26.944  30.012   6.947
 3326POPC   C4B43042  26.797  29.942   7.332
 3327POPC   NC343043  31.233   9.512   5.626
 3327POPC   PO443044  31.477  10.112   5.340
 3327POPC   GL143045  31.648  10.076   5.802
 3327POPC   GL243046  31.751   9.736   5.757
 3327POPC   C1A43047  31.551  10.127   6.260
 3327POPC   D2A43048  31.500   9.857   6.625
 3327POPC   C3A43049  31.354   9.984   7.057
 3327POPC   C4A43050  31.173   9.833   7.462
 3327POPC   C1B43051  31.862   9.681   6.194
 3327POPC   C2B43052  31.957   9.465   6.592
 3327POPC   C3B43053  31.641   9.464   6.920
 3327POPC   C4B43054  31.605   9.625   7.333
 3328POPC   NC343055   4.766  30.214   5.346
 3328POPC   PO443056   5.061  29.625   5.471
 3328POPC   GL143057   4.874  29.879   5.805
 3328POPC   GL243058   5.036  30.234   5.781
 3328POPC   C1A43059   4.736  29.763   6.243
 3328POPC   D2A43060   4.730  29.485   6.627
 3328POPC   C3A43061   4.615  29.687   7.045
 3328POPC   C4A43062   4.735  30.020   7.387
 3328POPC   C1B43063   5.231  30.038   6.139
 3328POPC   C2B43064   5.063  30.076   6.523
 3328POPC   C3B43065   4.967  30.109   6.932
 3328POPC   C4B43066   5.161  29.811   7.181
 3329POPC   NC343067  20.060  36.484   5.527
 3329POPC   PO443068  19.454  36.035   5.599
 3329POPC   GL143069  19.780  36.163   5.781
 3329POPC   GL243070  19.624  36.488   5.814
 3329POPC   C1A43071  20.077  36.094   6.119
 3329POPC   D2A43072  20.084  36.312   6.498
 3329POPC   C3A43073  20.152  36.092   6.884
 3329POPC   C4A43074  19.854  35.968   7.219
 3329POPC   C1B43075  19.612  36.256   6.241
 3329POPC   C2B43076  19.651  36.084   6.664
 3329POPC   C3B43077  19.512  36.295   7.013
 3329POPC   C4B43078  19.545  36.540   7.412
 3330POPC   NC343079  13.104  32.282   5.350
 3330POPC   PO443080  12.499  32.105   5.553
 3330POPC   GL143081  12.818  32.301   5.770
 3330POPC   GL243082  12.946  31.979   5.821
 3330POPC   C1A43083  13.064  32.541   6.061
 3330POPC   D2A43084  12.900  32.300   6.431
 3330POPC   C3A43085  12.896  32.435   6.871
 3330POPC   C4A43086  12.524  32.395   7.119
 3330POPC   C1B43087  12.652  31.905   6.167
 3330POPC   C2B43088  12.805  31.780   6.570
 3330POPC   C3B43089  12.728  31.934   6.952
 3330POPC   C4B43090  12.399  31.894   7.223
 3331POPC   NC343091  13.028  43.971   5.540
 3331POPC   PO443092  12.428  43.590   5.564
 3331POPC   GL143093  12.716  43.740   5.900
 3331POPC   GL243094  13.095  43.652   5.929
 3331POPC   C1A43095  12.834  43.718   6.341
 3331POPC   D2A43096  12.818  43.475   6.633
 3331POPC   C3A43097  12.912  43.665   7.017
 3331POPC   C4A43098  12.649  43.806   7.310
 3331POPC   C1B43099  13.082  44.111   6.160
 3331POPC   C2B43100  12.998  44.213   6.595
 3331POPC   C3B43101  12.868  44.183   7.025
 3331POPC   C4B43102  13.030  44.088   7.454
 3332POPC   NC343103  30.500  39.796   5.371
 3332POPC   PO443104  30.122  40.307   5.368
 3332POPC   GL143105  30.520  40.208   5.693
 3332POPC   GL243106  30.627  39.858   5.852
 3332POPC   C1A43107  30.656  40.261   6.160
 3332POPC   D2A43108  30.496  40.117   6.595
 3332POPC   C3A43109  30.687  40.125   7.009
 3332POPC   C4A43110  30.568  40.049   7.461
 3332POPC   C1B43111  30.714  39.737   6.285
 3332POPC   C2B43112  30.788  39.695   6.743
 3332POPC   C3B43113  30.783  39.639   7.201
 3332POPC   C4B43114  30.983  39.768   7.638
 3333POPC   NC343115   9.455  40.020   5.408
 3333POPC   PO443116  10.068  39.634   5.330
 3333POPC   GL143117   9.933  39.907   5.764
 3333POPC   GL243118   9.564  39.934   5.935
 3333POPC   C1A43119   9.970  40.017   6.209
 3333POPC   D2A43120   9.659  39.818   6.452
 3333POPC   C3A43121   9.698  39.879   6.841
 3333POPC   C4A43122   9.727  39.736   7.262
 3333POPC   C1B43123   9.484  40.239   6.213
 3333POPC   C2B43124   9.739  40.348   6.561
 3333POPC   C3B43125   9.662  40.502   6.984
 3333POPC   C4B43126   9.801  40.563   7.407
 3334POPC   NC343127  13.248  13.536   5.451
 3334POPC   PO443128  13.969  13.866   5.438
 3334POPC   GL143129  13.901  13.682   5.822
 3334POPC   GL243130  13.675  13.467   5.714
 3334POPC   C1A43131  13.819  13.757   6.246
 3334POPC   D2A43132  13.634  13.956   6.604
 3334POPC   C3A43133  13.908  13.768   6.913
 3334POPC   C4A43134  13.820  13.564   7.319
 3334POPC   C1B43135  13.399  13.518   6.093
 3334POPC   C2B43136  13.498  13.440   6.516
 3334POPC   C3B43137  13.420  13.583   6.906
 3334POPC   C4B43138  13.313  13.495   7.288
 3335POPC   NC343139  29.439   4.603   5.600
 3335POPC   PO443140  29.453   4.070   5.141
 3335POPC   GL143141  29.135   4.175   5.604
 3335POPC   GL243142  28.914   4.437   5.737
 3335POPC   C1A43143  29.153   4.062   6.112
 3335POPC   D2A43144  29.166   4.214   6.558
 3335POPC   C3A43145  29.365   4.114   6.994
 3335POPC   C4A43146  29.136   4.095   7.379
 3335POPC   C1B43147  28.924   4.508   6.183
 3335POPC   C2B43148  28.789   4.581   6.614
 3335POPC   C3B43149  28.982   4.449   6.971
 3335POPC   C4B43150  29.265   4.600   7.216
 3336POPC   NC343151   3.992  14.608   5.164
 3336POPC   PO443152   4.274  15.157   5.425
 3336POPC   GL143153   4.304  15.308   5.802
 3336POPC   GL243154   3.967  15.434   5.788
 3336POPC   C1A43155   4.399  15.205   6.228
 3336POPC   D2A43156   4.187  15.119   6.640
 3336POPC   C3A43157   4.461  15.241   6.969
 3336POPC   C4A43158   4.854  15.150   7.170
 3336POPC   C1B43159   3.886  15.318   6.221
 3336POPC   C2B43160   3.873  15.509   6.630
 3336POPC   C3B43161   3.960  15.390   7.055
 3336POPC   C4B43162   4.106  15.062   7.314
 3337POPC   NC343163  30.179   6.220   5.451
 3337POPC   PO443164  29.780   5.646   5.311
 3337POPC   GL143165  29.852   5.943   5.727
 3337POPC   GL243166  29.580   6.137   5.914
 3337POPC   C1A43167  30.038   6.105   6.157
 3337POPC   D2A43168  29.819   6.139   6.597
 3337POPC   C3A43169  30.063   6.103   6.995
 3337POPC   C4A43170  30.174   5.831   7.353
 3337POPC   C1B43171  29.685   5.743   6.168
 3337POPC   C2B43172  29.698   5.579   6.564
 3337POPC   C3B43173  29.698   5.750   6.958
 3337POPC   C4B43174  29.763   5.514   7.304
 3338POPC   NC343175   8.435   9.110   5.327
 3338POPC   PO443176   7.766   9.324   5.463
 3338POPC   GL143177   8.073   9.043   5.750
 3338POPC   GL243178   8.424   8.913   5.802
 3338POPC   C1A43179   8.088   9.073   6.181
 3338POPC   D2A43180   7.903   8.893   6.548
 3338POPC   C3A43181   7.917   9.147   6.909
 3338POPC   C4A43182   8.040   8.847   7.187
 3338POPC   C1B43183   8.568   8.656   6.157
 3338POPC   C2B43184   8.725   8.569   6.594
 3338POPC   C3B43185   8.493   8.629   6.965
 3338POPC   C4B43186   8.487   8.743   7.397
 3339POPC   NC343187  44.603  28.661   5.651
 3339POPC   PO443188  44.672  28.023   5.449
 3339POPC   GL143189  44.706  28.209   5.855
 3339POPC   GL243190  44.349  28.208   5.808
 3339POPC   C1A43191  44.791  28.514   6.234
 3339POPC   D2A43192   0.087  28.605   6.521
 3339POPC   C3A43193  44.869  28.551   6.902
 3339POPC   C4A43194  44.983  28.460   7.330
 3339POPC   C1B43195  44.337  28.313   6.222
 3339POPC   C2B43196  44.606  28.181   6.578
 3339POPC   C3B43197  44.503  28.211   6.995
 3339POPC   C4B43198  44.290  27.964   7.284
 3340POPC   NC343199  24.095  44.504   5.527
 3340POPC   PO443200  24.482   0.061   5.287
 3340POPC   GL143201  24.578  44.941   5.747
 3340POPC   GL243202  24.432  44.628   5.859
 3340POPC   C1A43203  24.714  44.856   6.196
 3340POPC   D2A43204  24.742  44.683   6.592
 3340POPC   C3A43205  24.659  44.953   6.902
 3340POPC   C4A43206  24.697  44.913   7.322
 3340POPC   C1B43207  24.396  44.464   6.273
 3340POPC   C2B43208  24.166  44.366   6.627
 3340POPC   C3B43209  24.355  44.562   6.970
 3340POPC   C4B43210  24.401  44.507   7.369
 3341POPC   NC343211  36.521   0.778   5.485
 3341POPC   PO443212  37.141   0.691   5.426
 3341POPC   GL143213  37.020   0.685   5.895
 3341POPC   GL243214  36.657   0.692   5.950
 3341POPC   C1A43215  36.945   0.504   6.342
 3341POPC   D2A43216  37.074   0.559   6.778
 3341POPC   C3A43217  36.778   0.471   7.094
 3341POPC   C4A43218  36.730   0.161   7.423
 3341POPC   C1B43219  36.552   0.277   6.089
 3341POPC   C2B43220  36.441   0.209   6.503
 3341POPC   C3B43221  36.412   0.168   6.925
 3341POPC   C4B43222  36.284   0.398   7.265
 3342POPC   NC343223  44.938  25.508   5.532
 3342POPC   PO443224  44.389  25.040   5.417
 3342POPC   GL143225  44.656  25.043   5.787
 3342POPC   GL243226  44.565  25.327   5.838
 3342POPC   C1A43227  44.877  24.958   6.152
 3342POPC   D2A43228  44.691  24.897   6.535
 3342POPC   C3A43229  44.785  25.095   6.884
 3342POPC   C4A43230  44.798  24.948   7.275
 3342POPC   C1B43231  44.745  25.443   6.203
 3342POPC   C2B43232  44.820  25.575   6.589
 3342POPC   C3B43233  44.704  25.577   7.000
 3342POPC   C4B43234  44.884  25.425   7.367
 3343POPC   NC343235  41.337  34.850   5.483
 3343POPC   PO443236  41.774  34.396   5.215
 3343POPC   GL143237  41.748  34.536   5.731
 3343POPC   GL243238  41.520  34.779   5.949
 3343POPC   C1A43239  41.620  34.334   6.170
 3343POPC   D2A43240  41.448  34.210   6.569
 3343POPC   C3A43241  41.419  34.371   7.015
 3343POPC   C4A43242  41.487  34.689   7.344
 3343POPC   C1B43243  41.598  34.795   6.418
 3343POPC   C2B43244  41.533  34.868   6.858
 3343POPC   C3B43245  41.789  35.049   7.214
 3343POPC   C4B43246  41.949  34.745   7.552
 3344POPC   NC343247   7.993   4.230   5.609
 3344POPC   PO443248   7.371   4.230   5.319
 3344POPC   GL143249   7.362   4.228   5.738
 3344POPC   GL243250   7.563   3.958   5.728
 3344POPC   C1A43251   7.447   4.506   6.094
 3344POPC   D2A43252   7.200   4.596   6.458
 3344POPC   C3A43253   7.361   4.514   6.856
 3344POPC   C4A43254   7.226   4.560   7.241
 3344POPC   C1B43255   7.584   4.029   6.153
 3344POPC   C2B43256   7.601   4.216   6.533
 3344POPC   C3B43257   7.578   4.070   6.997
 3344POPC   C4B43258   7.552   3.891   7.431
 3345POPC   NC343259  40.588  20.987   5.530
 3345POPC   PO443260  40.827  20.305   5.432
 3345POPC   GL143261  40.978  20.526   5.818
 3345POPC   GL243262  40.901  20.861   5.894
 3345POPC   C1A43263  40.809  20.505   6.215
 3345POPC   D2A43264  40.780  20.736   6.574
 3345POPC   C3A43265  40.646  20.380   6.826
 3345POPC   C4A43266  40.904  20.405   7.175
 3345POPC   C1B43267  40.486  20.883   6.168
 3345POPC   C2B43268  40.272  20.731   6.559
 3345POPC   C3B43269  40.441  20.811   6.973
 3345POPC   C4B43270  40.813  21.095   7.049
 3346POPC   NC343271  27.424  24.568   5.318
 3346POPC   PO443272  26.858  24.397   5.210
 3346POPC   GL143273  26.772  24.442   5.660
 3346POPC   GL243274  26.925  24.754   5.733
 3346POPC   C1A43275  26.612  24.523   6.107
 3346POPC   D2A43276  26.490  24.299   6.488
 3346POPC   C3A43277  26.658  24.501   6.858
 3346POPC   C4A43278  26.563  24.693   7.234
 3346POPC   C1B43279  27.218  24.528   6.021
 3346POPC   C2B43280  27.316  24.406   6.479
 3346POPC   C3B43281  27.266  24.213   6.926
 3346POPC   C4B43282  27.021  24.408   7.266
 3347POPC   NC343283  38.528  25.971   5.327
 3347POPC   PO443284  38.865  26.615   5.425
 3347POPC   GL143285  38.722  26.285   5.694
 3347POPC   GL243286  38.347  26.222   5.734
 3347POPC   C1A43287  38.717  26.028   6.068
 3347POPC   D2A43288  38.570  26.099   6.488
 3347POPC   C3A43289  38.561  25.787   6.830
 3347POPC   C4A43290  38.568  25.991   7.222
 3347POPC   C1B43291  38.184  26.057   6.122
 3347POPC   C2B43292  38.079  25.872   6.539
 3347POPC   C3B43293  38.107  25.988   6.973
 3347POPC   C4B43294  38.168  25.767   7.394
 3348POPC   NC343295  32.945  15.694   5.548
 3348POPC   PO443296  33.057  16.331   5.556
 3348POPC   GL143297  32.997  16.123   5.904
 3348POPC   GL243298  33.394  16.132   5.895
 3348POPC   C1A43299  32.686  15.871   6.180
 3348POPC   D2A43300  32.546  15.799   6.633
 3348POPC   C3A43301  32.755  16.083   6.953
 3348POPC   C4A43302  32.872  15.967   7.383
 3348POPC   C1B43303  33.249  15.792   6.173
 3348POPC   C2B43304  33.049  15.877   6.550
 3348POPC   C3B43305  33.135  15.764   6.943
 3348POPC   C4B43306  33.374  15.823   7.244
 3349POPC   NC343307  37.968  20.030   5.430
 3349POPC   PO443308  37.344  19.962   5.183
 3349POPC   GL143309  37.490  20.020   5.629
 3349POPC   GL243310  37.227  19.818   5.726
 3349POPC   C1A43311  37.768  20.007   6.053
 3349POPC   D2A43312  37.901  19.733   6.390
 3349POPC   C3A43313  37.839  19.773   6.840
 3349POPC   C4A43314  38.123  19.658   7.185
 3349POPC   C1B43315  37.269  20.071   6.093
 3349POPC   C2B43316  37.384  19.871   6.478
 3349POPC   C3B43317  37.320  20.006   6.896
 3349POPC   C4B43318  37.515  19.898   7.282
 3350POPC   NC343319   5.793  18.682   5.505
 3350POPC   PO443320   5.849  17.957   5.426
 3350POPC   GL143321   5.967  18.212   5.757
 3350POPC   GL243322   5.636  18.325   5.863
 3350POPC   C1A43323   6.052  18.500   6.104
 3350POPC   D2A43324   6.021  18.503   6.538
 3350POPC   C3A43325   6.053  18.244   6.923
 3350POPC   C4A43326   6.017  18.469   7.302
 3350POPC   C1B43327   5.755  18.092   6.238
 3350POPC   C2B43328   5.624  18.188   6.647
 3350POPC   C3B43329   5.535  18.367   7.061
 3350POPC   C4B43330   5.642  18.155   7.459
 3351POPC   NC343331   2.129   4.676   5.420
 3351POPC   PO443332   1.576   4.337   5.506
 3351POPC   GL143333   1.870   4.299   5.862
 3351POPC   GL243334   2.235   4.382   5.823
 3351POPC   C1A43335   2.023   4.218   6.289
 3351POPC   D2A43336   2.019   4.264   6.763
 3351POPC   C3A43337   1.813   3.960   7.059
 3351POPC   C4A43338   1.779   3.943   7.522
 3351POPC   C1B43339   2.162   4.698   6.127
 3351POPC   C2B43340   2.248   4.812   6.555
 3351POPC   C3B43341   2.338   4.621   6.952
 3351POPC   C4B43342   2.045   4.377   7.269
 3352POPC   NC343343  12.531  43.167   5.410
 3352POPC   PO443344  11.993  43.484   5.207
 3352POPC   GL143345  11.901  43.338   5.683
 3352POPC   GL243346  12.217  43.215   5.819
 3352POPC   C1A43347  11.881  43.207   6.174
 3352POPC   D2A43348  12.053  42.914   6.487
 3352POPC   C3A43349  12.031  43.142   6.892
 3352POPC   C4A43350  11.908  43.095   7.290
 3352POPC   C1B43351  12.390  43.405   6.202
 3352POPC   C2B43352  12.253  43.527   6.600
 3352POPC   C3B43353  12.405  43.471   7.022
 3352POPC   C4B43354  12.315  43.457   7.485
 3353POPC   NC343355  18.831  23.668   5.509
 3353POPC   PO443356  19.456  24.038   5.341
 3353POPC   GL143357  19.218  23.912   5.755
 3353POPC   GL243358  19.146  23.518   5.868
 3353POPC   C1A43359  19.100  23.901   6.198
 3353POPC   D2A43360  19.169  23.525   6.457
 3353POPC   C3A43361  19.074  23.554   6.891
 3353POPC   C4A43362  19.227  23.906   7.124
 3353POPC   C1B43363  18.715  23.584   6.140
 3353POPC   C2B43364  18.684  23.839   6.516
 3353POPC   C3B43365  18.682  23.919   6.953
 3353POPC   C4B43366  18.741  23.652   7.288
 3354POPC   NC343367  21.709   7.765   5.273
 3354POPC   PO443368  21.683   7.189   5.587
 3354POPC   GL143369  21.926   7.438   5.873
 3354POPC   GL243370  22.201   7.558   5.647
 3354POPC   C1A43371  22.032   7.394   6.325
 3354POPC   D2A43372  21.878   7.613   6.712
 3354POPC   C3A43373  21.913   7.416   7.080
 3354POPC   C4A43374  22.062   7.057   7.200
 3354POPC   C1B43375  22.401   7.272   5.980
 3354POPC   C2B43376  22.552   7.308   6.423
 3354POPC   C3B43377  22.378   7.369   6.840
 3354POPC   C4B43378  22.374   7.578   7.236
 3355POPC   NC343379  14.200  25.559   5.358
 3355POPC   PO443380  14.568  24.963   5.409
 3355POPC   GL143381  14.721  25.107   5.824
 3355POPC   GL243382  14.758  25.478   5.792
 3355POPC   C1A43383  14.874  25.135   6.244
 3355POPC   D2A43384  14.651  25.231   6.629
 3355POPC   C3A43385  14.312  25.065   6.838
 3355POPC   C4A43386  14.309  25.105   7.267
 3355POPC   C1B43387  14.565  25.547   6.205
 3355POPC   C2B43388  14.494  25.717   6.629
 3355POPC   C3B43389  14.576  25.533   7.081
 3355POPC   C4B43390  14.530  25.473   7.557
 3356POPC   NC343391  19.891   3.478   5.421
 3356POPC   PO443392  19.547   2.847   5.486
 3356POPC   GL143393  19.664   3.236   5.832
 3356POPC   GL243394  20.023   3.328   5.869
 3356POPC   C1A43395  19.666   3.593   6.163
 3356POPC   D2A43396  19.669   3.889   6.542
 3356POPC   C3A43397  19.577   3.741   6.975
 3356POPC   C4A43398  19.612   3.373   7.258
 3356POPC   C1B43399  20.185   3.552   6.181
 3356POPC   C2B43400  19.990   3.483   6.567
 3356POPC   C3B43401  20.033   3.396   6.982
 3356POPC   C4B43402  20.053   3.733   7.231
 3357POPC   NC343403  38.996   5.786   5.410
 3357POPC   PO443404  39.539   5.417   5.310
 3357POPC   GL143405  39.315   5.567   5.709
 3357POPC   GL243406  39.319   5.953   5.782
 3357POPC   C1A43407  39.264   5.634   6.154
 3357POPC   D2A43408  39.385   5.863   6.525
 3357POPC   C3A43409  39.446   5.663   6.924
 3357POPC   C4A43410  39.256   5.709   7.320
 3357POPC   C1B43411  39.088   6.129   6.169
 3357POPC   C2B43412  38.914   6.014   6.597
 3357POPC   C3B43413  39.132   6.084   6.977
 3357POPC   C4B43414  39.267   6.229   7.369
 3358POPC   NC343415  35.000  42.638   5.589
 3358POPC   PO443416  34.359  42.551   5.401
 3358POPC   GL143417  34.318  42.450   5.835
 3358POPC   GL243418  34.217  42.112   5.912
 3358POPC   C1A43419  34.497  42.429   6.256
 3358POPC   D2A43420  34.291  42.369   6.652
 3358POPC   C3A43421  34.541  42.380   7.040
 3358POPC   C4A43422  34.789  42.505   7.440
 3358POPC   C1B43423  34.398  41.909   6.266
 3358POPC   C2B43424  34.593  41.977   6.625
 3358POPC   C3B43425  34.659  41.808   6.992
 3358POPC   C4B43426  34.786  42.014   7.333
 3359POPC   NC343427  38.927  21.201   5.457
 3359POPC   PO443428  38.273  21.531   5.533
 3359POPC   GL143429  38.415  21.476   5.912
 3359POPC   GL243430  38.597  21.156   5.863
 3359POPC   C1A43431  38.287  21.546   6.331
 3359POPC   D2A43432  38.165  21.578   6.770
 3359POPC   C3A43433  38.401  21.447   7.133
 3359POPC   C4A43434  38.221  21.555   7.547
 3359POPC   C1B43435  38.259  21.057   6.152
 3359POPC   C2B43436  38.352  21.116   6.588
 3359POPC   C3B43437  38.133  21.035   6.944
 3359POPC   C4B43438  38.255  21.027   7.376
 3360POPC   NC343439  44.554   8.548   5.449
 3360POPC   PO443440  44.520   7.866   5.387
 3360POPC   GL143441  44.517   8.141   5.753
 3360POPC   GL243442  44.202   8.354   5.783
 3360POPC   C1A43443  44.719   8.364   6.114
 3360POPC   D2A43444  44.929   8.245   6.510
 3360POPC   C3A43445  44.728   8.240   6.930
 3360POPC   C4A43446  44.506   8.077   7.295
 3360POPC   C1B43447  44.266   8.130   6.190
 3360POPC   C2B43448  44.397   8.325   6.539
 3360POPC   C3B43449  44.506   8.673   6.742
 3360POPC   C4B43450  44.522   8.624   7.199
 3361POPC   NC343451   2.026  26.272   5.421
 3361POPC   PO443452   1.722  25.692   5.552
 3361POPC   GL143453   1.952  25.983   5.850
 3361POPC   GL243454   2.273  26.164   5.867
 3361POPC   C1A43455   1.771  26.220   6.217
 3361POPC   D2A43456   1.495  26.128   6.595
 3361POPC   C3A43457   1.684  26.174   7.037
 3361POPC   C4A43458   2.100  26.271   7.265
 3361POPC   C1B43459   2.222  25.954   6.302
 3361POPC   C2B43460   1.962  25.872   6.706
 3361POPC   C3B43461   1.992  25.774   7.176
 3361POPC   C4B43462   2.190  25.483   7.499
 3362POPC   NC343463   8.331   6.218   5.530
 3362POPC   PO443464   7.996   5.718   5.122
 3362POPC   GL143465   8.002   5.604   5.691
 3362POPC   GL243466   7.984   5.973   5.843
 3362POPC   C1A43467   8.053   5.626   6.189
 3362POPC   D2A43468   7.949   5.737   6.615
 3362POPC   C3A43469   8.239   5.794   6.940
 3362POPC   C4A43470   8.054   5.699   7.311
 3362POPC   C1B43471   8.335   6.060   6.192
 3362POPC   C2B43472   8.554   6.074   6.589
 3362POPC   C3B43473   8.457   6.258   6.973
 3362POPC   C4B43474   8.409   6.131   7.412
 3363POPC   NC343475  37.245  34.969   5.494
 3363POPC   PO443476  37.014  34.322   5.227
 3363POPC   GL143477  37.080  34.307   5.667
 3363POPC   GL243478  36.989  34.629   5.823
 3363POPC   C1A43479  37.076  34.178   6.107
 3363POPC   D2A43480  37.248  34.318   6.510
 3363POPC   C3A43481  37.026  34.287   6.910
 3363POPC   C4A43482  37.185  34.412   7.322
 3363POPC   C1B43483  36.836  34.616   6.256
 3363POPC   C2B43484  37.015  34.768   6.628
 3363POPC   C3B43485  36.970  34.787   7.043
 3363POPC   C4B43486  36.624  34.890   7.245
 3364POPC   NC343487  20.267   8.120   5.031
 3364POPC   PO443488  19.719   8.154   5.459
 3364POPC   GL143489  19.824   8.202   5.874
 3364POPC   GL243490  20.042   8.481   5.853
 3364POPC   C1A43491  19.778   7.932   6.232
 3364POPC   D2A43492  19.581   7.845   6.630
 3364POPC   C3A43493  19.823   7.783   7.020
 3364POPC   C4A43494  19.779   7.966   7.457
 3364POPC   C1B43495  20.032   8.397   6.298
 3364POPC   C2B43496  19.810   8.373   6.681
 3364POPC   C3B43497  19.883   8.279   7.092
 3364POPC   C4B43498  20.185   8.349   7.418
 3365POPC   NC343499  41.128   3.824   5.375
 3365POPC   PO443500  40.535   3.863   5.658
 3365POPC   GL143501  40.801   3.516   5.712
 3365POPC   GL243502  40.574   3.287   5.857
 3365POPC   C1A43503  41.061   3.476   6.081
 3365POPC   D2A43504  41.009   3.711   6.459
 3365POPC   C3A43505  41.052   3.573   6.874
 3365POPC   C4A43506  40.776   3.745   7.183
 3365POPC   C1B43507  40.586   3.410   6.313
 3365POPC   C2B43508  40.562   3.450   6.793
 3365POPC   C3B43509  40.622   3.281   7.255
 3365POPC   C4B43510  40.605   3.434   7.699
 3366POPC   NC343511   9.842  15.021   5.172
 3366POPC   PO443512   9.420  14.468   5.386
 3366POPC   GL143513   9.519  14.317   5.798
 3366POPC   GL243514   9.828  14.460   5.858
 3366POPC   C1A43515   9.636  14.104   6.187
 3366POPC   D2A43516   9.800  13.931   6.587
 3366POPC   C3A43517   9.545  14.168   6.876
 3366POPC   C4A43518   9.491  14.326   7.299
 3366POPC   C1B43519  10.082  14.351   6.190
 3366POPC   C2B43520   9.862  14.437   6.542
 3366POPC   C3B43521   9.936  14.502   6.963
 3366POPC   C4B43522  10.002  14.697   7.331
 3367POPC   NC343523  28.681   9.914   5.423
 3367POPC   PO443524  28.259   9.476   5.460
 3367POPC   GL143525  28.396   9.605   5.848
 3367POPC   GL243526  28.336   9.961   5.836
 3367POPC   C1A43527  28.311   9.383   6.252
 3367POPC   D2A43528  28.335   9.669   6.605
 3367POPC   C3A43529  28.335   9.534   7.037
 3367POPC   C4A43530  28.271   9.311   7.443
 3367POPC   C1B43531  28.446  10.078   6.278
 3367POPC   C2B43532  28.303  10.173   6.727
 3367POPC   C3B43533  28.294  10.046   7.194
 3367POPC   C4B43534  28.445   9.974   7.611
 3368POPC   NC343535  31.300  19.864   5.279
 3368POPC   PO443536  31.816  19.429   5.397
 3368POPC   GL143537  31.668  19.574   5.772
 3368POPC   GL243538  31.331  19.711   5.782
 3368POPC   C1A43539  31.768  19.563   6.180
 3368POPC   D2A43540  31.502  19.478   6.496
 3368POPC   C3A43541  31.626  19.603   6.866
 3368POPC   C4A43542  31.469  19.530   7.210
 3368POPC   C1B43543  31.401  19.946   6.184
 3368POPC   C2B43544  31.279  19.910   6.630
 3368POPC   C3B43545  31.399  20.030   7.072
 3368POPC   C4B43546  31.353  20.303   7.416
 3369POPC   NC343547  22.865  23.880   5.352
 3369POPC   PO443548  23.121  23.209   5.462
 3369POPC   GL143549  22.897  23.514   5.750
 3369POPC   GL243550  22.960  23.901   5.857
 3369POPC   C1A43551  22.947  23.456   6.190
 3369POPC   D2A43552  23.191  23.521   6.565
 3369POPC   C3A43553  23.102  23.310   6.931
 3369POPC   C4A43554  22.824  23.470   7.212
 3369POPC   C1B43555  22.843  23.947   6.301
 3369POPC   C2B43556  22.940  23.952   6.749
 3369POPC   C3B43557  22.924  24.050   7.175
 3369POPC   C4B43558  23.021  24.194   7.590
 3370POPC   NC343559  35.421  42.394   5.289
 3370POPC   PO443560  34.945  42.170   5.567
 3370POPC   GL143561  35.314  42.299   5.806
 3370POPC   GL243562  35.652  42.401   5.900
 3370POPC   C1A43563  35.268  42.455   6.228
 3370POPC   D2A43564  34.955  42.343   6.524
 3370POPC   C3A43565  35.027  42.497   6.917
 3370POPC   C4A43566  35.260  42.399   7.242
 3370POPC   C1B43567  35.759  42.633   6.242
 3370POPC   C2B43568  35.588  42.596   6.665
 3370POPC   C3B43569  35.772  42.392   7.009
 3370POPC   C4B43570  35.690  42.229   7.430
 3371POPC   NC343571  26.604  42.565   5.556
 3371POPC   PO443572  27.306  42.287   5.387
 3371POPC   GL143573  26.974  42.246   5.728
 3371POPC   GL243574  26.774  41.955   5.735
 3371POPC   C1A43575  26.818  42.371   6.171
 3371POPC   D2A43576  26.968  42.317   6.620
 3371POPC   C3A43577  26.855  42.488   7.047
 3371POPC   C4A43578  26.936  42.168   7.361
 3371POPC   C1B43579  26.541  41.928   6.148
 3371POPC   C2B43580  26.478  42.093   6.552
 3371POPC   C3B43581  26.617  42.033   6.973
 3371POPC   C4B43582  26.414  42.122   7.360
 3372POPC   NC343583  11.053  26.660   5.533
 3372POPC   PO443584  11.458  27.278   5.539
 3372POPC   GL143585  11.261  26.982   5.910
 3372POPC   GL243586  11.240  26.600   6.005
 3372POPC   C1A43587  11.212  26.917   6.388
 3372POPC   D2A43588  11.152  26.694   6.803
 3372POPC   C3A43589  11.215  27.087   7.033
 3372POPC   C4A43590  11.487  27.307   7.344
 3372POPC   C1B43591  11.527  26.463   6.351
 3372POPC   C2B43592  11.561  26.330   6.792
 3372POPC   C3B43593  11.411  26.404   7.221
 3372POPC   C4B43594  11.645  26.538   7.595
 3373POPC   NC343595  35.955  25.536   5.460
 3373POPC   PO443596  36.159  24.965   5.451
 3373POPC   GL143597  35.936  25.147   5.823
 3373POPC   GL243598  35.712  25.449   5.901
 3373POPC   C1A43599  36.228  25.028   6.164
 3373POPC   D2A43600  36.429  24.881   6.560
 3373POPC   C3A43601  36.564  25.160   6.856
 3373POPC   C4A43602  36.287  25.182   7.214
 3373POPC   C1B43603  36.100  25.551   6.122
 3373POPC   C2B43604  36.199  25.371   6.523
 3373POPC   C3B43605  36.108  25.527   6.905
 3373POPC   C4B43606  35.801  25.536   7.205
 3374POPC   NC343607  23.108   5.315   5.413
 3374POPC   PO443608  22.491   5.374   5.385
 3374POPC   GL143609  22.751   5.150   5.762
 3374POPC   GL243610  23.107   5.242   5.898
 3374POPC   C1A43611  22.817   4.869   6.164
 3374POPC   D2A43612  22.650   4.766   6.597
 3374POPC   C3A43613  22.813   4.900   7.013
 3374POPC   C4A43614  22.559   4.822   7.371
 3374POPC   C1B43615  22.920   5.364   6.255
 3374POPC   C2B43616  23.014   5.221   6.666
 3374POPC   C3B43617  23.078   5.413   7.066
 3374POPC   C4B43618  22.977   5.414   7.476
 3375POPC   NC343619   4.262  35.967   5.277
 3375POPC   PO443620   4.696  36.432   5.388
 3375POPC   GL143621   4.506  36.311   5.807
 3375POPC   GL243622   4.136  36.263   5.754
 3375POPC   C1A43623   4.445  36.254   6.270
 3375POPC   D2A43624   4.239  36.366   6.674
 3375POPC   C3A43625   4.306  36.303   7.112
 3375POPC   C4A43626   4.538  36.288   7.492
 3375POPC   C1B43627   4.143  35.919   6.039
 3375POPC   C2B43628   4.128  35.905   6.480
 3375POPC   C3B43629   4.168  35.837   6.925
 3375POPC   C4B43630   4.316  35.843   7.370
 3376POPC   NC343631  44.224  12.244   5.020
 3376POPC   PO443632  44.543  11.875   5.531
 3376POPC   GL143633  44.700  12.082   5.851
 3376POPC   GL243634  44.915  12.336   5.685
 3376POPC   C1A43635  44.537  12.141   6.249
 3376POPC   D2A43636  44.660  11.921   6.604
 3376POPC   C3A43637  44.524  12.105   7.006
 3376POPC   C4A43638  44.628  11.877   7.375
 3376POPC   C1B43639   0.027  12.315   6.154
 3376POPC   C2B43640  44.905  12.381   6.575
 3376POPC   C3B43641   0.013  12.535   6.973
 3376POPC   C4B43642  44.907  12.304   7.323
 3377POPC   NC343643  18.738  34.569   5.534
 3377POPC   PO443644  19.494  34.323   5.440
 3377POPC   GL143645  19.279  34.551   5.811
 3377POPC   GL243646  18.950  34.385   5.953
 3377POPC   C1A43647  19.195  34.648   6.278
 3377POPC   D2A43648  19.058  34.329   6.562
 3377POPC   C3A43649  19.179  34.418   6.997
 3377POPC   C4A43650  19.305  34.394   7.445
 3377POPC   C1B43651  18.699  34.628   6.261
 3377POPC   C2B43652  18.812  34.785   6.644
 3377POPC   C3B43653  18.730  34.662   7.057
 3377POPC   C4B43654  18.823  34.542   7.469
 3378POPC   NC343655  27.364   1.345   5.539
 3378POPC   PO443656  27.929   0.967   5.522
 3378POPC   GL143657  27.696   1.148   5.881
 3378POPC   GL243658  27.414   0.917   5.931
 3378POPC   C1A43659  27.381   1.380   6.191
 3378POPC   D2A43660  27.202   1.330   6.636
 3378POPC   C3A43661  27.308   1.528   7.063
 3378POPC   C4A43662  27.376   1.405   7.537
 3378POPC   C1B43663  27.567   0.951   6.353
 3378POPC   C2B43664  27.722   1.283   6.600
 3378POPC   C3B43665  27.574   1.099   6.945
 3378POPC   C4B43666  27.283   1.042   7.210
 3379POPC   NC343667  21.698   1.535   5.337
 3379POPC   PO443668  21.216   1.008   5.332
 3379POPC   GL143669  21.247   1.206   5.743
 3379POPC   GL243670  21.622   1.202   5.791
 3379POPC   C1A43671  21.341   1.283   6.203
 3379POPC   D2A43672  21.182   1.428   6.614
 3379POPC   C3A43673  21.305   1.231   7.007
 3379POPC   C4A43674  21.158   0.804   7.143
 3379POPC   C1B43675  21.737   0.951   6.216
 3379POPC   C2B43676  21.571   0.868   6.672
 3379POPC   C3B43677  21.668   0.899   7.133
 3379POPC   C4B43678  21.734   1.220   7.459
 3380POPC   NC343679  10.470  39.557   5.532
 3380POPC   PO443680  10.618  38.919   5.331
 3380POPC   GL143681  10.479  39.087   5.735
 3380POPC   GL243682  10.199  38.922   5.664
 3380POPC   C1A43683  10.410  39.339   6.141
 3380POPC   D2A43684  10.640  39.495   6.505
 3380POPC   C3A43685  10.501  39.484   6.894
 3380POPC   C4A43686  10.642  39.266   7.263
 3380POPC   C1B43687  10.194  38.859   6.137
 3380POPC   C2B43688  10.223  39.072   6.537
 3380POPC   C3B43689  10.291  39.012   6.955
 3380POPC   C4B43690  10.022  38.888   7.273
 3381POPC   NC343691  14.179  39.826   5.407
 3381POPC   PO443692  14.772  40.059   5.492
 3381POPC   GL143693  14.524  40.062   5.863
 3381POPC   GL243694  14.177  40.176   5.785
 3381POPC   C1A43695  14.582  40.099   6.316
 3381POPC   D2A43696  14.364  40.026   6.678
 3381POPC   C3A43697  14.525  39.763   6.956
 3381POPC   C4A43698  14.655  39.913   7.334
 3381POPC   C1B43699  14.080  39.987   6.197
 3381POPC   C2B43700  13.912  40.222   6.550
 3381POPC   C3B43701  14.062  40.356   6.950
 3381POPC   C4B43702  14.166  40.045   7.242
 3382POPC   NC343703  11.456  39.707   5.608
 3382POPC   PO443704  11.519  40.349   5.793
 3382POPC   GL143705  11.320  40.030   5.991
 3382POPC   GL243706  10.949  40.025   5.965
 3382POPC   C1A43707  11.505  39.767   6.306
 3382POPC   D2A43708  11.618  39.876   6.711
 3382POPC   C3A43709  11.387  39.945   7.074
 3382POPC   C4A43710  11.487  40.260   7.426
 3382POPC   C1B43711  11.001  39.678   6.208
 3382POPC   C2B43712  11.097  39.709   6.643
 3382POPC   C3B43713  10.986  39.588   7.041
 3382POPC   C4B43714  11.268  39.520   7.330
 3383POPC   NC343715  27.664  38.261   5.466
 3383POPC   PO443716  27.731  38.894   5.494
 3383POPC   GL143717  27.697  38.805   5.913
 3383POPC   GL243718  27.757  38.467   5.915
 3383POPC   C1A43719  27.464  38.635   6.280
 3383POPC   D2A43720  27.588  38.411   6.641
 3383POPC   C3A43721  27.463  38.682   6.958
 3383POPC   C4A43722  27.226  38.721   7.302
 3383POPC   C1B43723  27.990  38.561   6.289
 3383POPC   C2B43724  28.092  38.522   6.718
 3383POPC   C3B43725  27.877  38.404   7.078
 3383POPC   C4B43726  27.703  38.602   7.423
 3384POPC   NC343727  13.985  40.798   5.272
 3384POPC   PO443728  13.430  40.988   5.562
 3384POPC   GL143729  13.768  40.791   5.795
 3384POPC   GL243730  13.737  40.455   5.767
 3384POPC   C1A43731  13.843  40.632   6.242
 3384POPC   D2A43732  13.899  40.862   6.644
 3384POPC   C3A43733  13.720  40.721   7.033
 3384POPC   C4A43734  13.676  40.870   7.420
 3384POPC   C1B43735  13.370  40.580   6.069
 3384POPC   C2B43736  13.341  40.511   6.475
 3384POPC   C3B43737  13.251  40.714   6.851
 3384POPC   C4B43738  13.255  40.588   7.249
 3385POPC   NC343739  27.948  20.011   5.577
 3385POPC   PO443740  28.505  20.140   5.225
 3385POPC   GL143741  28.618  20.069   5.693
 3385POPC   GL243742  28.329  19.968   5.926
 3385POPC   C1A43743  28.795  19.886   6.096
 3385POPC   D2A43744  28.889  19.815   6.526
 3385POPC   C3A43745  28.753  20.006   6.884
 3385POPC   C4A43746  28.787  19.784   7.228
 3385POPC   C1B43747  28.340  19.713   6.283
 3385POPC   C2B43748  28.348  19.640   6.714
 3385POPC   C3B43749  28.254  19.897   7.047
 3385POPC   C4B43750  27.912  20.184   7.209
 3386POPC   NC343751  32.194  23.855   5.416
 3386POPC   PO443752  32.700  23.392   5.492
 3386POPC   GL143753  32.406  23.546   5.851
 3386POPC   GL243754  32.326  23.944   5.901
 3386POPC   C1A43755  32.326  23.562   6.313
 3386POPC   D2A43756  32.546  23.774   6.686
 3386POPC   C3A43757  32.314  23.780   7.048
 3386POPC   C4A43758  32.105  23.551   7.354
 3386POPC   C1B43759  32.049  23.999   6.262
 3386POPC   C2B43760  31.994  23.803   6.642
 3386POPC   C3B43761  31.785  23.597   6.950
 3386POPC   C4B43762  31.676  23.795   7.317
 3387POPC   NC343763  36.453   3.421   5.502
 3387POPC   PO443764  35.837   3.678   5.305
 3387POPC   GL143765  35.945   3.613   5.799
 3387POPC   GL243766  36.268   3.527   5.980
 3387POPC   C1A43767  35.834   3.409   6.191
 3387POPC   D2A43768  36.118   3.540   6.505
 3387POPC   C3A43769  36.027   3.473   6.921
 3387POPC   C4A43770  35.711   3.229   7.099
 3387POPC   C1B43771  36.278   3.139   6.251
 3387POPC   C2B43772  36.383   3.091   6.682
 3387POPC   C3B43773  36.397   3.195   7.138
 3387POPC   C4B43774  36.360   3.629   7.270
 3388POPC   NC343775  12.577  37.325   5.522
 3388POPC   PO443776  12.893  37.954   5.449
 3388POPC   GL143777  13.087  37.752   5.839
 3388POPC   GL243778  13.134  37.407   5.874
 3388POPC   C1A43779  13.077  37.654   6.304
 3388POPC   D2A43780  12.796  37.762   6.579
 3388POPC   C3A43781  12.936  37.814   6.960
 3388POPC   C4A43782  12.715  37.792   7.324
 3388POPC   C1B43783  12.889  37.176   6.173
 3388POPC   C2B43784  12.684  37.229   6.575
 3388POPC   C3B43785  12.812  37.286   6.995
 3388POPC   C4B43786  13.114  37.431   7.259
 3389POPC   NC343787   9.441   2.258   5.424
 3389POPC   PO443788   9.555   2.936   5.332
 3389POPC   GL143789   9.606   2.925   5.766
 3389POPC   GL243790   9.611   2.570   5.804
 3389POPC   C1A43791   9.988   2.828   6.035
 3389POPC   D2A43792  10.091   2.710   6.463
 3389POPC   C3A43793   9.883   2.925   6.801
 3389POPC   C4A43794  10.038   3.074   7.183
 3389POPC   C1B43795   9.670   2.460   6.248
 3389POPC   C2B43796   9.704   2.415   6.693
 3389POPC   C3B43797   9.688   2.480   7.141
 3389POPC   C4B43798   9.616   2.859   7.451
 3390POPC   NC343799   7.045  41.023   5.417
 3390POPC   PO443800   7.585  40.539   5.322
 3390POPC   GL143801   7.519  40.860   5.673
 3390POPC   GL243802   7.194  40.826   5.890
 3390POPC   C1A43803   7.680  40.839   6.111
 3390POPC   D2A43804   7.556  40.626   6.499
 3390POPC   C3A43805   7.417  40.959   6.770
 3390POPC   C4A43806   7.590  41.228   7.081
 3390POPC   C1B43807   7.244  40.397   6.148
 3390POPC   C2B43808   7.079  40.173   6.548
 3390POPC   C3B43809   6.956  40.344   6.974
 3390POPC   C4B43810   7.133  40.732   7.117
 3391POPC   NC343811   5.085  43.395   5.226
 3391POPC   PO443812   5.223  42.784   5.464
 3391POPC   GL143813   5.159  43.017   5.860
 3391POPC   GL243814   5.191  43.405   5.825
 3391POPC   C1A43815   5.273  42.934   6.275
 3391POPC   D2A43816   5.176  43.192   6.620
 3391POPC   C3A43817   5.096  42.993   6.972
 3391POPC   C4A43818   4.814  43.152   7.249
 3391POPC   C1B43819   5.430  43.414   6.225
 3391POPC   C2B43820   5.665  43.145   6.564
 3391POPC   C3B43821   5.546  43.360   6.957
 3391POPC   C4B43822   5.307  43.326   7.321
 3392POPC   NC343823  22.025   3.027   5.550
 3392POPC   PO443824  22.337   2.486   5.481
 3392POPC   GL143825  22.049   2.589   5.811
 3392POPC   GL243826  22.325   2.768   5.965
 3392POPC   C1A43827  22.012   2.427   6.226
 3392POPC   D2A43828  22.203   2.584   6.584
 3392POPC   C3A43829  22.060   2.432   6.948
 3392POPC   C4A43830  21.928   2.771   7.170
 3392POPC   C1B43831  21.987   2.953   6.219
 3392POPC   C2B43832  21.841   2.977   6.649
 3392POPC   C3B43833  22.194   3.089   6.873
 3392POPC   C4B43834  22.413   3.129   7.252
 3393POPC   NC343835   8.559  30.530   5.281
 3393POPC   PO443836   9.221  30.625   5.230
 3393POPC   GL143837   9.100  30.567   5.724
 3393POPC   GL243838   8.768  30.646   5.793
 3393POPC   C1A43839   9.280  30.607   6.155
 3393POPC   D2A43840   9.038  30.662   6.526
 3393POPC   C3A43841   9.255  30.745   6.897
 3393POPC   C4A43842   9.038  30.778   7.280
 3393POPC   C1B43843   8.830  30.362   6.134
 3393POPC   C2B43844   8.906  30.175   6.544
 3393POPC   C3B43845   8.878  30.389   6.947
 3393POPC   C4B43846   8.725  30.372   7.374
 3394POPC   NC343847  18.233  26.811   5.073
 3394POPC   PO443848  18.139  26.613   5.668
 3394POPC   GL143849  18.195  26.728   6.003
 3394POPC   GL243850  18.525  26.792   5.979
 3394POPC   C1A43851  18.054  26.712   6.383
 3394POPC   D2A43852  18.206  26.789   6.793
 3394POPC   C3A43853  17.905  26.652   7.117
 3394POPC   C4A43854  18.013  26.649   7.545
 3394POPC   C1B43855  18.487  26.979   6.368
 3394POPC   C2B43856  18.687  27.028   6.705
 3394POPC   C3B43857  18.573  27.255   7.026
 3394POPC   C4B43858  18.299  27.005   7.256
 3395POPC   NC343859  13.194  35.994   5.471
 3395POPC   PO443860  12.555  36.190   5.363
 3395POPC   GL143861  12.747  36.108   5.735
 3395POPC   GL243862  12.960  36.361   5.785
 3395POPC   C1A43863  12.607  36.001   6.151
 3395POPC   D2A43864  12.603  35.782   6.557
 3395POPC   C3A43865  12.579  35.948   6.949
 3395POPC   C4A43866  12.876  35.871   7.252
 3395POPC   C1B43867  13.082  36.149   6.164
 3395POPC   C2B43868  12.965  36.179   6.583
 3395POPC   C3B43869  13.199  36.122   6.933
 3395POPC   C4B43870  13.126  36.440   7.201
 3396POPC   NC343871  40.851  23.124   5.372
 3396POPC   PO443872  40.291  22.700   5.522
 3396POPC   GL143873  40.580  22.825   5.817
 3396POPC   GL243874  40.888  22.659   5.661
 3396POPC   C1A43875  40.570  22.845   6.294
 3396POPC   D2A43876  40.540  22.658   6.720
 3396POPC   C3A43877  40.641  22.913   7.095
 3396POPC   C4A43878  40.942  23.277   7.212
 3396POPC   C1B43879  41.022  22.701   6.084
 3396POPC   C2B43880  41.065  22.631   6.532
 3396POPC   C3B43881  41.129  22.855   6.922
 3396POPC   C4B43882  41.059  22.772   7.356
 3397POPC   NC343883  28.177   3.799   5.462
 3397POPC   PO443884  28.742   3.482   5.359
 3397POPC   GL143885  28.465   3.519   5.810
 3397POPC   GL243886  28.231   3.781   5.945
 3397POPC   C1A43887  28.441   3.515   6.300
 3397POPC   D2A43888  28.284   3.306   6.660
 3397POPC   C3A43889  28.428   3.438   7.041
 3397POPC   C4A43890  28.181   3.312   7.335
 3397POPC   C1B43891  28.165   3.962   6.311
 3397POPC   C2B43892  28.268   3.817   6.698
 3397POPC   C3B43893  28.357   3.940   7.084
 3397POPC   C4B43894  28.332   3.776   7.494
 3398POPC   NC343895  16.331  32.625   5.130
 3398POPC   PO443896  15.920  32.226   5.504
 3398POPC   GL143897  15.752  32.247   5.880
 3398POPC   GL243898  15.597  31.936   5.828
 3398POPC   C1A43899  15.968  32.042   6.211
 3398POPC   D2A43900  16.145  32.069   6.613
 3398POPC   C3A43901  15.937  32.376   6.871
 3398POPC   C4A43902  16.002  32.602   7.236
 3398POPC   C1B43903  15.453  31.936   6.226
 3398POPC   C2B43904  15.604  32.053   6.594
 3398POPC   C3B43905  15.731  31.878   6.948
 3398POPC   C4B43906  15.547  32.005   7.319
 3399POPC   NC343907   6.176   1.463   5.478
 3399POPC   PO443908   6.716   1.058   5.386
 3399POPC   GL143909   6.577   1.193   5.794
 3399POPC   GL243910   6.262   1.002   5.778
 3399POPC   C1A43911   6.826   1.201   6.188
 3399POPC   D2A43912   7.025   1.244   6.619
 3399POPC   C3A43913   6.853   1.463   6.972
 3399POPC   C4A43914   6.603   1.320   7.303
 3399POPC   C1B43915   6.429   0.820   6.159
 3399POPC   C2B43916   6.602   0.936   6.553
 3399POPC   C3B43917   6.442   1.086   6.899
 3399POPC   C4B43918   6.388   0.875   7.299
 3400POPC   NC343919   5.910   8.724   5.449
 3400POPC   PO443920   6.060   9.423   5.336
 3400POPC   GL143921   5.928   9.282   5.728
 3400POPC   GL243922   6.194   9.085   5.720
 3400POPC   C1A43923   5.830   9.208   6.158
 3400POPC   D2A43924   5.925   9.241   6.595
 3400POPC   C3A43925   5.715   8.941   6.881
 3400POPC   C4A43926   5.728   8.855   7.307
 3400POPC   C1B43927   6.221   8.839   6.097
 3400POPC   C2B43928   6.082   8.748   6.526
 3400POPC   C3B43929   6.232   8.940   6.909
 3400POPC   C4B43930   6.261   8.953   7.347
 3401POPC   NC343931  32.879  41.271   5.324
 3401POPC   PO443932  33.350  41.727   5.348
 3401POPC   GL143933  33.180  41.476   5.689
 3401POPC   GL243934  32.805  41.556   5.750
 3401POPC   C1A43935  33.075  41.299   6.109
 3401POPC   D2A43936  33.098  41.539   6.501
 3401POPC   C3A43937  33.296  41.432   6.896
 3401POPC   C4A43938  33.368  41.694   7.232
 3401POPC   C1B43939  32.645  41.603   6.182
 3401POPC   C2B43940  32.610  41.368   6.562
 3401POPC   C3B43941  32.802  41.367   6.946
 3401POPC   C4B43942  32.626  41.333   7.355
 3402POPC   NC343943  42.096  30.952   5.241
 3402POPC   PO443944  41.394  30.785   5.388
 3402POPC   GL143945  41.537  30.689   5.812
 3402POPC   GL243946  41.883  30.748   5.674
 3402POPC   C1A43947  41.495  30.582   6.305
 3402POPC   D2A43948  41.399  30.756   6.746
 3402POPC   C3A43949  41.491  30.532   7.135
 3402POPC   C4A43950  41.790  30.469   7.468
 3402POPC   C1B43951  41.936  30.817   6.135
 3402POPC   C2B43952  41.991  30.707   6.597
 3402POPC   C3B43953  41.875  30.861   7.037
 3402POPC   C4B43954  41.821  30.978   7.513
 3403POPC   NC343955  14.811  30.176   5.421
 3403POPC   PO443956  15.116  30.854   5.364
 3403POPC   GL143957  15.292  30.775   5.758
 3403POPC   GL243958  15.086  30.467   5.766
 3403POPC   C1A43959  15.418  30.936   6.172
 3403POPC   D2A43960  15.182  31.091   6.545
 3403POPC   C3A43961  15.248  30.945   6.934
 3403POPC   C4A43962  15.563  30.902   7.250
 3403POPC   C1B43963  15.306  30.408   6.147
 3403POPC   C2B43964  15.298  30.589   6.547
 3403POPC   C3B43965  15.465  30.486   6.924
 3403POPC   C4B43966  15.245  30.498   7.273
 3404POPC   NC343967  34.066   7.388   5.436
 3404POPC   PO443968  33.466   7.609   5.354
 3404POPC   GL143969  33.651   7.505   5.803
 3404POPC   GL243970  33.853   7.188   5.847
 3404POPC   C1A43971  33.784   7.618   6.279
 3404POPC   D2A43972  33.596   7.697   6.721
 3404POPC   C3A43973  33.845   7.588   7.120
 3404POPC   C4A43974  33.784   7.708   7.577
 3404POPC   C1B43975  33.632   7.132   6.208
 3404POPC   C2B43976  33.440   7.223   6.597
 3404POPC   C3B43977  33.581   7.088   7.002
 3404POPC   C4B43978  33.721   7.099   7.420
 3405POPC   NC343979  27.975  39.769   5.703
 3405POPC   PO443980  28.452  40.102   5.347
 3405POPC   GL143981  28.409  40.036   5.787
 3405POPC   GL243982  28.420  39.674   5.925
 3405POPC   C1A43983  28.519  40.133   6.216
 3405POPC   D2A43984  28.831  40.044   6.535
 3405POPC   C3A43985  28.661  40.192   6.892
 3405POPC   C4A43986  28.556  40.072   7.288
 3405POPC   C1B43987  28.105  39.580   6.288
 3405POPC   C2B43988  28.163  39.508   6.704
 3405POPC   C3B43989  28.243  39.874   6.924
 3405POPC   C4B43990  28.158  39.770   7.318
 3406POPC   NC343991  17.657  27.783   5.373
 3406POPC   PO443992  17.380  27.238   5.669
 3406POPC   GL143993  17.679  27.519   5.916
 3406POPC   GL243994  17.801  27.875   5.869
 3406POPC   C1A43995  17.654  27.548   6.363
 3406POPC   D2A43996  17.423  27.304   6.687
 3406POPC   C3A43997  17.481  27.418   7.113
 3406POPC   C4A43998  17.413  27.692   7.439
 3406POPC   C1B43999  17.471  27.993   6.182
 3406POPC   C2B44000  17.242  27.901   6.588
 3406POPC   C3B44001  17.427  27.948   6.999
 3406POPC   C4B44002  17.826  27.818   7.171
 3407POPC   NC344003  41.135  26.189   5.251
 3407POPC   PO444004  40.565  25.775   5.322
 3407POPC   GL144005  40.707  26.063   5.618
 3407POPC   GL244006  41.022  25.960   5.705
 3407POPC   C1A44007  40.655  26.247   6.044
 3407POPC   D2A44008  40.531  26.065   6.433
 3407POPC   C3A44009  40.691  26.206   6.827
 3407POPC   C4A44010  40.662  26.009   7.243
 3407POPC   C1B44011  40.891  25.801   6.118
 3407POPC   C2B44012  41.017  25.899   6.526
 3407POPC   C3B44013  41.000  25.781   6.922
 3407POPC   C4B44014  41.175  25.872   7.338
 3408POPC   NC344015  36.975  20.132   5.397
 3408POPC   PO444016  36.844  20.792   5.429
 3408POPC   GL144017  36.905  20.697   5.858
 3408POPC   GL244018  36.846  20.319   5.868
 3408POPC   C1A44019  37.157  20.803   6.245
 3408POPC   D2A44020  37.265  20.563   6.647
 3408POPC   C3A44021  37.126  20.740   7.068
 3408POPC   C4A44022  37.293  20.784   7.540
 3408POPC   C1B44023  36.893  20.362   6.305
 3408POPC   C2B44024  36.800  20.384   6.727
 3408POPC   C3B44025  36.919  20.255   7.109
 3408POPC   C4B44026  36.652  20.151   7.445
 3409POPC   NC344027   6.119  38.381   5.490
 3409POPC   PO444028   5.414  38.619   5.521
 3409POPC   GL144029   5.703  38.501   5.805
 3409POPC   GL244030   5.713  38.209   5.900
 3409POPC   C1A44031   5.692  38.663   6.231
 3409POPC   D2A44032   5.606  38.450   6.622
 3409POPC   C3A44033   5.785  38.542   6.982
 3409POPC   C4A44034   5.806  38.696   7.389
 3409POPC   C1B44035   6.045  38.329   6.181
 3409POPC   C2B44036   6.120  38.242   6.620
 3409POPC   C3B44037   6.023  38.078   7.024
 3409POPC   C4B44038   6.188  38.376   7.319
 3410POPC   NC344039  24.512  14.472   5.081
 3410POPC   PO444040  24.136  14.054   5.596
 3410POPC   GL144041  24.324  14.320   5.860
 3410POPC   GL244042  24.582  14.534   5.727
 3410POPC   C1A44043  24.397  14.308   6.269
 3410POPC   D2A44044  24.543  14.536   6.578
 3410POPC   C3A44045  24.513  14.245   6.883
 3410POPC   C4A44046  24.472  14.239   7.288
 3410POPC   C1B44047  24.860  14.510   6.148
 3410POPC   C2B44048  25.045  14.535   6.627
 3410POPC   C3B44049  24.891  14.526   7.089
 3410POPC   C4B44050  24.871  14.427   7.572
 3411POPC   NC344051   2.288   2.368   5.432
 3411POPC   PO444052   1.886   1.836   5.413
 3411POPC   GL144053   1.816   2.155   5.757
 3411POPC   GL244054   2.132   2.102   5.838
 3411POPC   C1A44055   1.772   2.072   6.222
 3411POPC   D2A44056   1.926   1.697   6.482
 3411POPC   C3A44057   1.968   1.742   6.921
 3411POPC   C4A44058   1.753   2.043   7.160
 3411POPC   C1B44059   2.308   1.945   6.221
 3411POPC   C2B44060   2.437   1.783   6.627
 3411POPC   C3B44061   2.453   1.688   7.076
 3411POPC   C4B44062   2.402   1.867   7.482
 3412POPC   NC344063  35.742   4.096   5.096
 3412POPC   PO444064  35.274   4.464   5.339
 3412POPC   GL144065  35.361   4.488   5.804
 3412POPC   GL244066  35.081   4.443   6.046
 3412POPC   C1A44067  35.571   4.400   6.218
 3412POPC   D2A44068  35.383   4.261   6.606
 3412POPC   C3A44069  35.638   4.278   6.951
 3412POPC   C4A44070  35.603   4.085   7.325
 3412POPC   C1B44071  35.192   4.715   6.424
 3412POPC   C2B44072  35.159   4.708   6.872
 3412POPC   C3B44073  35.160   4.319   7.110
 3412POPC   C4B44074  35.094   4.209   7.541
 3413POPC   NC344075  18.511  20.198   5.457
 3413POPC   PO444076  18.046  19.646   5.489
 3413POPC   GL144077  18.171  19.962   5.755
 3413POPC   GL244078  18.504  19.790   5.759
 3413POPC   C1A44079  18.329  20.099   6.150
 3413POPC   D2A44080  18.140  19.952   6.510
 3413POPC   C3A44081  18.362  20.095   6.850
 3413POPC   C4A44082  18.288  20.187   7.255
 3413POPC   C1B44083  18.585  19.578   6.147
 3413POPC   C2B44084  18.433  19.542   6.571
 3413POPC   C3B44085  18.177  19.605   6.919
 3413POPC   C4B44086  18.393  19.680   7.251
 3414POPC   NC344087  29.516   6.882   5.467
 3414POPC   PO444088  29.100   6.373   5.413
 3414POPC   GL144089  29.079   6.586   5.783
 3414POPC   GL244090  29.410   6.618   5.892
 3414POPC   C1A44091  28.938   6.605   6.215
 3414POPC   D2A44092  28.910   6.940   6.508
 3414POPC   C3A44093  29.183   6.920   6.865
 3414POPC   C4A44094  29.128   6.752   7.285
 3414POPC   C1B44095  29.397   6.794   6.308
 3414POPC   C2B44096  29.477   6.532   6.670
 3414POPC   C3B44097  29.494   6.277   7.040
 3414POPC   C4B44098  29.466   6.428   7.471
 3415POPC   NC344099  34.633  31.511   5.428
 3415POPC   PO444100  34.959  30.871   5.410
 3415POPC   GL144101  34.936  31.166   5.799
 3415POPC   GL244102  34.838  31.529   5.878
 3415POPC   C1A44103  34.882  31.221   6.277
 3415POPC   D2A44104  34.892  31.528   6.631
 3415POPC   C3A44105  34.611  31.501   7.003
 3415POPC   C4A44106  34.656  31.430   7.464
 3415POPC   C1B44107  34.480  31.520   6.171
 3415POPC   C2B44108  34.402  31.731   6.567
 3415POPC   C3B44109  34.301  31.957   6.952
 3415POPC   C4B44110  34.289  31.753   7.333
 3416POPC   NC344111  31.018  17.127   5.419
 3416POPC   PO444112  30.674  17.754   5.271
 3416POPC   GL144113  30.738  17.542   5.714
 3416POPC   GL244114  31.081  17.446   5.849
 3416POPC   C1A44115  30.691  17.216   6.073
 3416POPC   D2A44116  30.920  17.195   6.498
 3416POPC   C3A44117  30.712  17.205   6.906
 3416POPC   C4A44118  30.870  17.155   7.318
 3416POPC   C1B44119  30.886  17.655   6.241
 3416POPC   C2B44120  30.597  17.640   6.639
 3416POPC   C3B44121  30.700  17.676   7.122
 3416POPC   C4B44122  30.910  17.635   7.559
 3417POPC   NC344123   2.816  18.529   5.223
 3417POPC   PO444124   2.362  18.082   5.362
 3417POPC   GL144125   2.586  18.375   5.665
 3417POPC   GL244126   2.969  18.289   5.682
 3417POPC   C1A44127   2.740  18.440   6.106
 3417POPC   D2A44128   2.569  18.238   6.470
 3417POPC   C3A44129   2.764  18.299   6.866
 3417POPC   C4A44130   2.663  18.180   7.248
 3417POPC   C1B44131   3.042  18.015   6.081
 3417POPC   C2B44132   2.999  17.968   6.560
 3417POPC   C3B44133   3.129  17.970   7.027
 3417POPC   C4B44134   3.010  17.877   7.482
 3418POPC   NC344135  33.606  14.140   5.641
 3418POPC   PO444136  33.616  13.502   5.462
 3418POPC   GL144137  33.741  13.671   5.830
 3418POPC   GL244138  33.399  13.729   5.881
 3418POPC   C1A44139  33.774  13.494   6.234
 3418POPC   D2A44140  33.959  13.596   6.599
 3418POPC   C3A44141  33.842  13.409   6.934
 3418POPC   C4A44142  33.781  13.626   7.296
 3418POPC   C1B44143  33.532  13.929   6.247
 3418POPC   C2B44144  33.452  13.740   6.612
 3418POPC   C3B44145  33.508  13.916   6.970
 3418POPC   C4B44146  33.332  13.870   7.344
 3419POPC   NC344147  22.494  37.725   5.435
 3419POPC   PO444148  23.172  37.538   5.366
 3419POPC   GL144149  22.970  37.761   5.743
 3419POPC   GL244150  22.700  37.559   5.867
 3419POPC   C1A44151  22.856  37.877   6.209
 3419POPC   D2A44152  23.036  37.699   6.596
 3419POPC   C3A44153  22.983  37.915   6.995
 3419POPC   C4A44154  22.689  38.016   7.329
 3419POPC   C1B44155  22.769  37.359   6.268
 3419POPC   C2B44156  22.590  37.432   6.668
 3419POPC   C3B44157  22.596  37.559   7.115
 3419POPC   C4B44158  22.742  37.587   7.613
 3420POPC   NC344159  22.776  28.014   5.437
 3420POPC   PO444160  23.077  27.392   5.339
 3420POPC   GL144161  22.727  27.455   5.688
 3420POPC   GL244162  22.666  27.802   5.881
 3420POPC   C1A44163  22.685  27.370   6.152
 3420POPC   D2A44164  23.028  27.385   6.467
 3420POPC   C3A44165  22.975  27.409   6.904
 3420POPC   C4A44166  22.694  27.537   7.236
 3420POPC   C1B44167  23.048  27.816   6.157
 3420POPC   C2B44168  23.155  27.925   6.595
 3420POPC   C3B44169  22.888  27.928   6.970
 3420POPC   C4B44170  22.698  28.028   7.363
 3421POPC   NC344171   6.309  41.698   5.366
 3421POPC   PO444172   6.904  41.422   5.641
 3421POPC   GL144173   6.748  41.564   5.956
 3421POPC   GL244174   6.406  41.544   5.846
 3421POPC   C1A44175   6.823  41.629   6.384
 3421POPC   D2A44176   6.537  41.762   6.668
 3421POPC   C3A44177   6.758  41.672   6.994
 3421POPC   C4A44178   6.821  41.811   7.371
 3421POPC   C1B44179   6.342  41.480   6.271
 3421POPC   C2B44180   6.302  41.320   6.711
 3421POPC   C3B44181   6.266  41.593   7.085
 3421POPC   C4B44182   6.227  41.539   7.556
 3422POPC   NC344183  18.524  40.271   5.479
 3422POPC   PO444184  18.024  39.758   5.473
 3422POPC   GL144185  18.367  39.820   5.753
 3422POPC   GL244186  18.223  40.131   5.882
 3422POPC   C1A44187  18.579  39.848   6.175
 3422POPC   D2A44188  18.400  39.694   6.591
 3422POPC   C3A44189  18.457  39.978   6.970
 3422POPC   C4A44190  18.347  40.331   7.256
 3422POPC   C1B44191  18.056  39.813   6.173
 3422POPC   C2B44192  17.887  39.892   6.576
 3422POPC   C3B44193  18.012  39.713   6.950
 3422POPC   C4B44194  17.881  39.530   7.330
 3423POPC   NC344195  12.914  15.502   5.568
 3423POPC   PO444196  12.567  15.984   5.354
 3423POPC   GL144197  12.584  15.929   5.794
 3423POPC   GL244198  12.457  15.607   5.795
 3423POPC   C1A44199  12.616  16.167   6.208
 3423POPC   D2A44200  12.435  16.188   6.634
 3423POPC   C3A44201  12.708  16.153   6.988
 3423POPC   C4A44202  12.825  15.984   7.408
 3423POPC   C1B44203  12.473  15.656   6.219
 3423POPC   C2B44204  12.710  15.748   6.579
 3423POPC   C3B44205  12.603  15.666   6.980
 3423POPC   C4B44206  12.310  15.433   7.134
 3424POPC   NC344207   5.576   9.403   5.380
 3424POPC   PO444208   4.996   9.807   5.498
 3424POPC   GL144209   5.038   9.731   5.886
 3424POPC   GL244210   5.388   9.773   5.825
 3424POPC   C1A44211   4.884   9.612   6.274
 3424POPC   D2A44212   4.925   9.342   6.598
 3424POPC   C3A44213   4.896   9.511   7.001
 3424POPC   C4A44214   4.796   9.343   7.398
 3424POPC   C1B44215   5.315   9.954   6.233
 3424POPC   C2B44216   5.186   9.850   6.639
 3424POPC   C3B44217   5.343   9.756   7.015
 3424POPC   C4B44218   5.242   9.584   7.388
 3425POPC   NC344219  40.561  44.168   5.189
 3425POPC   PO444220  40.776  44.802   5.383
 3425POPC   GL144221  40.901  44.789   5.822
 3425POPC   GL244222  41.033  44.467   5.765
 3425POPC   C1A44223  40.748  44.836   6.274
 3425POPC   D2A44224  40.585  44.958   6.701
 3425POPC   C3A44225  40.708  44.701   7.058
 3425POPC   C4A44226  40.605  44.699   7.503
 3425POPC   C1B44227  40.778  44.351   6.128
 3425POPC   C2B44228  40.860  44.339   6.555
 3425POPC   C3B44229  40.655  44.206   6.916
 3425POPC   C4B44230  40.464  44.221   7.337
 3426POPC   NC344231  16.396  12.326   5.285
 3426POPC   PO444232  15.762  12.011   5.361
 3426POPC   GL144233  15.819  12.091   5.766
 3426POPC   GL244234  16.160  12.121   5.738
 3426POPC   C1A44235  15.864  12.007   6.193
 3426POPC   D2A44236  15.937  12.241   6.555
 3426POPC   C3A44237  15.946  11.976   6.909
 3426POPC   C4A44238  15.869  11.996   7.349
 3426POPC   C1B44239  16.261  11.756   6.021
 3426POPC   C2B44240  16.264  11.709   6.457
 3426POPC   C3B44241  16.271  11.585   6.885
 3426POPC   C4B44242  16.343  11.783   7.276
 3427POPC   NC344243  10.599  33.318   5.219
 3427POPC   PO444244  10.432  32.701   5.366
 3427POPC   GL144245  10.359  33.040   5.685
 3427POPC   GL244246  10.680  33.198   5.726
 3427POPC   C1A44247  10.418  33.045   6.147
 3427POPC   D2A44248  10.618  32.741   6.448
 3427POPC   C3A44249  10.491  32.796   6.894
 3427POPC   C4A44250  10.352  33.028   7.221
 3427POPC   C1B44251  10.877  33.263   6.175
 3427POPC   C2B44252  10.747  33.211   6.613
 3427POPC   C3B44253  10.889  33.090   7.020
 3427POPC   C4B44254  10.884  33.308   7.398
 3428POPC   NC344255   8.620   5.371   5.471
 3428POPC   PO444256   8.144   4.865   5.333
 3428POPC   GL144257   8.239   5.119   5.703
 3428POPC   GL244258   8.571   4.966   5.776
 3428POPC   C1A44259   8.289   5.166   6.150
 3428POPC   D2A44260   8.161   4.987   6.533
 3428POPC   C3A44261   8.271   5.284   6.870
 3428POPC   C4A44262   8.400   5.243   7.301
 3428POPC   C1B44263   8.528   4.721   6.195
 3428POPC   C2B44264   8.508   4.573   6.609
 3428POPC   C3B44265   8.406   4.810   6.966
 3428POPC   C4B44266   8.256   4.704   7.360
 3429POPC   NC344267   2.764  32.574   5.443
 3429POPC   PO444268   2.940  33.133   5.239
 3429POPC   GL144269   2.932  33.016   5.677
 3429POPC   GL244270   2.925  32.689   5.903
 3429POPC   C1A44271   2.959  33.148   6.102
 3429POPC   D2A44272   2.965  32.890   6.459
 3429POPC   C3A44273   2.916  33.111   6.835
 3429POPC   C4A44274   2.920  33.049   7.277
 3429POPC   C1B44275   2.555  32.833   6.144
 3429POPC   C2B44276   2.446  32.931   6.598
 3429POPC   C3B44277   2.529  32.807   7.037
 3429POPC   C4B44278   2.524  32.764   7.510
 3430POPC   NC344279  15.356  34.069   5.321
 3430POPC   PO444280  15.063  33.498   5.512
 3430POPC   GL144281  15.311  33.752   5.825
 3430POPC   GL244282  15.350  34.113   5.824
 3430POPC   C1A44283  15.415  33.873   6.261
 3430POPC   D2A44284  15.513  33.663   6.609
 3430POPC   C3A44285  15.256  33.806   6.954
 3430POPC   C4A44286  14.837  33.752   7.144
 3430POPC   C1B44287  15.071  34.236   6.192
 3430POPC   C2B44288  15.189  34.224   6.618
 3430POPC   C3B44289  14.977  34.241   7.008
 3430POPC   C4B44290  15.290  34.171   7.315
 3431POPC   NC344291  32.904  14.695   5.563
 3431POPC   PO444292  33.238  14.083   5.367
 3431POPC   GL144293  33.140  14.180   5.843
 3431POPC   GL244294  32.802  14.295   5.895
 3431POPC   C1A44295  33.133  14.229   6.311
 3431POPC   D2A44296  33.421  14.380   6.631
 3431POPC   C3A44297  33.332  14.412   7.090
 3431POPC   C4A44298  32.978  14.474   7.394
 3431POPC   C1B44299  32.875  14.660   6.207
 3431POPC   C2B44300  32.951  14.619   6.611
 3431POPC   C3B44301  32.842  14.353   6.905
 3431POPC   C4B44302  32.470  14.332   7.149
 3432POPC   NC344303  20.274  33.338   5.554
 3432POPC   PO444304  20.600  32.731   5.400
 3432POPC   GL144305  20.626  33.018   5.748
 3432POPC   GL244306  20.306  32.932   5.869
 3432POPC   C1A44307  20.832  33.112   6.149
 3432POPC   D2A44308  20.833  32.901   6.576
 3432POPC   C3A44309  20.748  33.140   6.929
 3432POPC   C4A44310  20.570  33.211   7.317
 3432POPC   C1B44311  20.349  33.221   6.229
 3432POPC   C2B44312  20.291  33.147   6.673
 3432POPC   C3B44313  20.117  33.095   7.088
 3432POPC   C4B44314  20.146  33.354   7.523
 3433POPC   NC344315   5.331  38.160   5.545
 3433POPC   PO444316   5.018  37.489   5.505
 3433POPC   GL144317   5.137  37.491   5.887
 3433POPC   GL244318   5.082  37.866   5.915
 3433POPC   C1A44319   4.946  37.472   6.286
 3433POPC   D2A44320   4.786  37.821   6.544
 3433POPC   C3A44321   4.570  37.745   6.935
 3433POPC   C4A44322   4.657  37.892   7.367
 3433POPC   C1B44323   5.351  37.762   6.273
 3433POPC   C2B44324   5.282  37.604   6.668
 3433POPC   C3B44325   5.080  37.748   7.020
 3433POPC   C4B44326   5.198  37.578   7.371
 3434POPC   NC344327   2.714  10.517   5.335
 3434POPC   PO444328   3.305  10.840   5.373
 3434POPC   GL144329   2.996  10.796   5.796
 3434POPC   GL244330   2.628  10.659   5.819
 3434POPC   C1A44331   2.954  10.526   6.202
 3434POPC   D2A44332   3.112  10.309   6.604
 3434POPC   C3A44333   2.968  10.228   7.042
 3434POPC   C4A44334   2.959  10.411   7.471
 3434POPC   C1B44335   2.501  10.798   6.228
 3434POPC   C2B44336   2.653  10.641   6.613
 3434POPC   C3B44337   2.742  10.684   7.024
 3434POPC   C4B44338   2.462  10.629   7.338
 3435POPC   NC344339   5.531  26.545   5.200
 3435POPC   PO444340   5.074  26.171   5.485
 3435POPC   GL144341   5.120  25.921   5.784
 3435POPC   GL244342   4.856  25.688   5.854
 3435POPC   C1A44343   5.193  26.010   6.194
 3435POPC   D2A44344   5.226  26.425   6.402
 3435POPC   C3A44345   4.999  26.405   6.787
 3435POPC   C4A44346   5.132  26.130   7.162
 3435POPC   C1B44347   4.919  25.580   6.277
 3435POPC   C2B44348   5.203  25.539   6.591
 3435POPC   C3B44349   5.164  25.614   7.037
 3435POPC   C4B44350   5.163  25.519   7.494
 3436POPC   NC344351  23.997  30.185   5.520
 3436POPC   PO444352  23.752  29.584   5.235
 3436POPC   GL144353  23.702  29.658   5.698
 3436POPC   GL244354  24.037  29.711   5.805
 3436POPC   C1A44355  23.683  29.909   6.112
 3436POPC   D2A44356  23.467  29.971   6.515
 3436POPC   C3A44357  23.559  29.801   6.928
 3436POPC   C4A44358  23.588  30.017   7.301
 3436POPC   C1B44359  24.113  29.665   6.242
 3436POPC   C2B44360  23.962  29.842   6.636
 3436POPC   C3B44361  24.059  30.017   7.059
 3436POPC   C4B44362  24.111  29.966   7.518
 3437POPC   NC344363  13.322  20.286   5.715
 3437POPC   PO444364  13.347  20.911   5.376
 3437POPC   GL144365  13.550  20.804   5.818
 3437POPC   GL244366  13.848  20.576   5.798
 3437POPC   C1A44367  13.718  20.846   6.290
 3437POPC   D2A44368  13.762  20.846   6.782
 3437POPC   C3A44369  13.462  20.605   7.021
 3437POPC   C4A44370  13.273  20.826   7.328
 3437POPC   C1B44371  13.820  20.361   6.189
 3437POPC   C2B44372  13.660  20.349   6.623
 3437POPC   C3B44373  13.929  20.363   7.017
 3437POPC   C4B44374  13.829  20.211   7.454
 3438POPC   NC344375  39.483   3.304   5.278
 3438POPC   PO444376  39.033   3.844   5.514
 3438POPC   GL144377  38.976   3.773   5.907
 3438POPC   GL244378  38.858   3.436   5.853
 3438POPC   C1A44379  39.112   3.900   6.320
 3438POPC   D2A44380  39.468   3.784   6.583
 3438POPC   C3A44381  39.315   3.544   6.924
 3438POPC   C4A44382  39.238   3.586   7.337
 3438POPC   C1B44383  38.928   3.412   6.305
 3438POPC   C2B44384  38.846   3.393   6.740
 3438POPC   C3B44385  38.942   3.204   7.147
 3438POPC   C4B44386  38.853   3.362   7.575
 3439POPC   NC344387  21.131  35.626   5.512
 3439POPC   PO444388  21.822  35.632   5.344
 3439POPC   GL144389  21.704  35.356   5.714
 3439POPC   GL244390  21.348  35.206   5.760
 3439POPC   C1A44391  21.658  35.286   6.152
 3439POPC   D2A44392  21.402  35.386   6.469
 3439POPC   C3A44393  21.554  35.242   6.849
 3439POPC   C4A44394  21.619  35.303   7.265
 3439POPC   C1B44395  21.239  34.977   6.167
 3439POPC   C2B44396  21.106  35.013   6.632
 3439POPC   C3B44397  21.079  35.442   6.874
 3439POPC   C4B44398  21.168  35.524   7.350
 3440POPC   NC344399  41.401   7.339   5.045
 3440POPC   PO444400  41.896   7.719   5.399
 3440POPC   GL144401  41.741   7.497   5.764
 3440POPC   GL244402  41.458   7.359   5.570
 3440POPC   C1A44403  41.652   7.594   6.228
 3440POPC   D2A44404  41.770   7.419   6.621
 3440POPC   C3A44405  41.544   7.536   6.956
 3440POPC   C4A44406  41.561   7.669   7.368
 3440POPC   C1B44407  41.287   7.357   5.989
 3440POPC   C2B44408  41.259   7.283   6.460
 3440POPC   C3B44409  41.127   7.250   6.899
 3440POPC   C4B44410  41.277   7.264   7.337
 3441POPC   NC344411   1.679  15.473   5.041
 3441POPC   PO444412   1.351  15.017   5.479
 3441POPC   GL144413   1.243  15.059   5.913
 3441POPC   GL244414   0.935  14.885   5.897
 3441POPC   C1A44415   1.119  15.392   6.228
 3441POPC   D2A44416   1.020  15.693   6.585
 3441POPC   C3A44417   0.946  15.492   6.994
 3441POPC   C4A44418   1.217  15.243   7.235
 3441POPC   C1B44419   0.960  14.927   6.384
 3441POPC   C2B44420   1.187  15.051   6.768
 3441POPC   C3B44421   1.514  14.860   7.100
 3441POPC   C4B44422   1.444  14.954   7.566
 3442POPC   NC344423  30.593  20.590   5.315
 3442POPC   PO444424  31.169  20.322   5.407
 3442POPC   GL144425  30.852  20.458   5.747
 3442POPC   GL244426  30.527  20.286   5.745
 3442POPC   C1A44427  30.904  20.594   6.199
 3442POPC   D2A44428  30.988  20.330   6.557
 3442POPC   C3A44429  31.035  20.466   6.979
 3442POPC   C4A44430  30.741  20.761   7.137
 3442POPC   C1B44431  30.407  20.469   6.128
 3442POPC   C2B44432  30.422  20.340   6.552
 3442POPC   C3B44433  30.536  20.312   6.963
 3442POPC   C4B44434  30.346  20.489   7.313
 3443POPC   NC344435  12.055  38.780   5.200
 3443POPC   PO444436  11.893  38.160   5.446
 3443POPC   GL144437  11.925  38.428   5.783
 3443POPC   GL244438  12.236  38.481   5.945
 3443POPC   C1A44439  11.780  38.493   6.202
 3443POPC   D2A44440  12.040  38.465   6.556
 3443POPC   C3A44441  12.017  38.746   6.893
 3443POPC   C4A44442  12.223  38.612   7.270
 3443POPC   C1B44443  12.418  38.230   6.243
 3443POPC   C2B44444  12.365  38.053   6.640
 3443POPC   C3B44445  12.353  38.109   7.069
 3443POPC   C4B44446  12.423  38.193   7.491
 3444POPC   NC344447   7.153  20.758   5.550
 3444POPC   PO444448   6.534  20.529   5.259
 3444POPC   GL144449   6.748  20.431   5.676
 3444POPC   GL244450   6.483  20.330   5.878
 3444POPC   C1A44451   6.878  20.560   6.125
 3444POPC   D2A44452   6.764  20.868   6.433
 3444POPC   C3A44453   6.855  20.864   6.881
 3444POPC   C4A44454   6.597  21.090   7.177
 3444POPC   C1B44455   6.463  20.302   6.305
 3444POPC   C2B44456   6.632  20.426   6.693
 3444POPC   C3B44457   6.417  20.627   7.023
 3444POPC   C4B44458   6.535  20.610   7.445
 3445POPC   NC344459  42.828  43.145   5.301
 3445POPC   PO444460  43.438  42.828   5.480
 3445POPC   GL144461  43.165  43.084   5.690
 3445POPC   GL244462  42.880  42.912   5.799
 3445POPC   C1A44463  43.213  43.310   6.057
 3445POPC   D2A44464  43.327  43.258   6.470
 3445POPC   C3A44465  43.067  43.302   6.809
 3445POPC   C4A44466  43.143  43.336   7.225
 3445POPC   C1B44467  43.113  42.825   6.189
 3445POPC   C2B44468  43.196  42.644   6.600
 3445POPC   C3B44469  43.135  42.784   7.018
 3445POPC   C4B44470  43.472  42.715   7.288
 3446POPC   NC344471  36.006   6.586   5.704
 3446POPC   PO444472  36.202   5.964   5.436
 3446POPC   GL144473  36.266   5.808   5.868
 3446POPC   GL244474  36.534   5.551   5.885
 3446POPC   C1A44475  36.076   5.876   6.294
 3446POPC   D2A44476  35.873   5.780   6.703
 3446POPC   C3A44477  36.126   5.851   7.075
 3446POPC   C4A44478  36.083   6.199   7.343
 3446POPC   C1B44479  36.437   5.340   6.314
 3446POPC   C2B44480  36.260   5.421   6.742
 3446POPC   C3B44481  36.400   5.409   7.174
 3446POPC   C4B44482  36.469   5.626   7.591
 3447POPC   NC344483  31.014   6.323   5.471
 3447POPC   PO444484  30.504   6.687   5.264
 3447POPC   GL144485  30.629   6.660   5.689
 3447POPC   GL244486  30.960   6.819   5.705
 3447POPC   C1A44487  30.676   6.526   6.125
 3447POPC   D2A44488  30.784   6.713   6.513
 3447POPC   C3A44489  30.556   6.707   6.898
 3447POPC   C4A44490  30.483   6.412   7.212
 3447POPC   C1B44491  31.135   6.775   6.124
 3447POPC   C2B44492  31.282   6.884   6.517
 3447POPC   C3B44493  31.058   6.895   6.899
 3447POPC   C4B44494  30.941   6.720   7.286
 3448POPC   NC344495  37.336   1.860   5.523
 3448POPC   PO444496  37.978   1.668   5.509
 3448POPC   GL144497  37.748   1.829   5.832
 3448POPC   GL244498  37.877   2.132   5.895
 3448POPC   C1A44499  37.546   1.857   6.237
 3448POPC   D2A44500  37.805   1.678   6.577
 3448POPC   C3A44501  38.044   1.975   6.832
 3448POPC   C4A44502  37.798   1.954   7.199
 3448POPC   C1B44503  38.007   2.097   6.313
 3448POPC   C2B44504  37.675   2.249   6.584
 3448POPC   C3B44505  37.398   2.243   6.923
 3448POPC   C4B44506  37.548   2.389   7.294
 3449POPC   NC344507  41.689  43.572   5.606
 3449POPC   PO444508  41.459  44.080   5.272
 3449POPC   GL144509  41.516  44.051   5.726
 3449POPC   GL244510  41.282  43.749   5.791
 3449POPC   C1A44511  41.673  43.934   6.180
 3449POPC   D2A44512  41.906  43.742   6.554
 3449POPC   C3A44513  41.742  43.880   6.967
 3449POPC   C4A44514  41.459  44.013   7.304
 3449POPC   C1B44515  41.351  43.528   6.178
 3449POPC   C2B44516  41.384  43.670   6.587
 3449POPC   C3B44517  41.456  43.451   6.941
 3449POPC   C4B44518  41.329  43.542   7.311
 3450POPC   NC344519  35.826  14.151   5.371
 3450POPC   PO444520  36.269  14.565   4.993
 3450POPC   GL144521  36.208  14.548   5.492
 3450POPC   GL244522  36.171  14.285   5.706
 3450POPC   C1A44523  36.370  14.697   5.910
 3450POPC   D2A44524  36.317  14.725   6.392
 3450POPC   C3A44525  36.357  14.564   6.817
 3450POPC   C4A44526  36.195  14.556   7.255
 3450POPC   C1B44527  36.060  14.333   6.145
 3450POPC   C2B44528  36.072  14.232   6.570
 3450POPC   C3B44529  35.838  14.355   6.939
 3450POPC   C4B44530  35.769  14.298   7.379
 3451POPC   NC344531   5.592   3.039   5.133
 3451POPC   PO444532   5.917   2.488   5.273
 3451POPC   GL144533   5.875   2.838   5.589
 3451POPC   GL244534   6.007   2.648   5.850
 3451POPC   C1A44535   5.851   3.084   6.032
 3451POPC   D2A44536   5.875   2.808   6.430
 3451POPC   C3A44537   5.874   2.909   6.900
 3451POPC   C4A44538   5.800   2.760   7.330
 3451POPC   C1B44539   6.265   2.452   6.155
 3451POPC   C2B44540   6.141   2.375   6.554
 3451POPC   C3B44541   6.055   2.442   6.954
 3451POPC   C4B44542   6.332   2.170   7.058
 3452POPC   NC344543   6.737   0.588   5.340
 3452POPC   PO444544   6.336   0.071   5.333
 3452POPC   GL144545   6.669   0.196   5.700
 3452POPC   GL244546   6.710   0.552   5.836
 3452POPC   C1A44547   6.814   0.189   6.172
 3452POPC   D2A44548   6.683   0.439   6.567
 3452POPC   C3A44549   6.808   0.274   6.981
 3452POPC   C4A44550   6.631   0.365   7.415
 3452POPC   C1B44551   6.937   0.701   6.200
 3452POPC   C2B44552   7.096   0.741   6.632
 3452POPC   C3B44553   6.850   0.802   7.038
 3452POPC   C4B44554   6.832   0.850   7.520
 3453POPC   NC344555  20.056  41.436   5.446
 3453POPC   PO444556  19.425  41.446   5.361
 3453POPC   GL144557  19.668  41.369   5.787
 3453POPC   GL244558  20.023  41.514   5.938
 3453POPC   C1A44559  19.604  41.425   6.234
 3453POPC   D2A44560  19.790  41.232   6.571
 3453POPC   C3A44561  20.097  41.395   6.829
 3453POPC   C4A44562  19.819  41.486   7.181
 3453POPC   C1B44563  20.047  41.651   6.389
 3453POPC   C2B44564  19.886  41.850   6.784
 3453POPC   C3B44565  20.022  41.992   7.199
 3453POPC   C4B44566  19.938  42.188   7.605
 3454POPC   NC344567  44.756  20.814   5.544
 3454POPC   PO444568  44.066  20.678   5.336
 3454POPC   GL144569  44.319  20.608   5.712
 3454POPC   GL244570  44.589  20.355   5.761
 3454POPC   C1A44571  44.434  20.678   6.172
 3454POPC   D2A44572  44.409  20.448   6.573
 3454POPC   C3A44573  44.572  20.671   6.972
 3454POPC   C4A44574  44.491  20.701   7.422
 3454POPC   C1B44575  44.899  20.479   6.120
 3454POPC   C2B44576  44.917  20.611   6.543
 3454POPC   C3B44577   0.070  20.551   6.944
 3454POPC   C4B44578  44.978  20.724   7.311
 3455POPC   NC344579  24.290  37.175   5.346
 3455POPC   PO444580  24.685  36.610   5.427
 3455POPC   GL144581  24.556  36.860   5.752
 3455POPC   GL244582  24.206  36.750   5.787
 3455POPC   C1A44583  24.549  37.069   6.159
 3455POPC   D2A44584  24.159  37.102   6.400
 3455POPC   C3A44585  24.140  37.046   6.866
 3455POPC   C4A44586  24.480  36.958   7.126
 3455POPC   C1B44587  24.336  36.616   6.217
 3455POPC   C2B44588  24.453  36.719   6.631
 3455POPC   C3B44589  24.184  36.505   6.925
 3455POPC   C4B44590  24.157  36.436   7.354
 3456POPC   NC344591   9.184  34.079   5.442
 3456POPC   PO444592   8.652  34.098   5.819
 3456POPC   GL144593   8.832  33.742   5.966
 3456POPC   GL244594   9.113  33.713   5.832
 3456POPC   C1A44595   8.981  33.716   6.388
 3456POPC   D2A44596   8.866  34.035   6.635
 3456POPC   C3A44597   8.916  33.897   7.005
 3456POPC   C4A44598   8.993  33.584   7.275
 3456POPC   C1B44599   9.250  34.053   6.134
 3456POPC   C2B44600   9.389  33.982   6.582
 3456POPC   C3B44601   9.315  34.196   6.979
 3456POPC   C4B44602   9.168  34.082   7.399
 3457POPC   NC344603   6.151   7.832   5.370
 3457POPC   PO444604   5.691   8.321   5.364
 3457POPC   GL144605   5.642   8.204   5.779
 3457POPC   GL244606   5.785   7.874   5.735
 3457POPC   C1A44607   5.574   7.992   6.180
 3457POPC   D2A44608   5.673   7.842   6.570
 3457POPC   C3A44609   5.659   8.254   6.792
 3457POPC   C4A44610   5.810   8.371   7.196
 3457POPC   C1B44611   6.109   8.027   6.040
 3457POPC   C2B44612   6.094   8.139   6.488
 3457POPC   C3B44613   6.034   7.940   6.923
 3457POPC   C4B44614   6.184   7.971   7.315
 3458POPC   NC344615   2.153  20.781   5.248
 3458POPC   PO444616   1.748  20.326   5.441
 3458POPC   GL144617   1.959  20.257   5.869
 3458POPC   GL244618   2.093  20.571   5.859
 3458POPC   C1A44619   2.105  20.240   6.319
 3458POPC   D2A44620   2.195  20.480   6.688
 3458POPC   C3A44621   1.833  20.660   6.888
 3458POPC   C4A44622   1.971  20.471   7.218
 3458POPC   C1B44623   2.268  20.756   6.258
 3458POPC   C2B44624   2.143  20.989   6.654
 3458POPC   C3B44625   2.202  20.951   7.110
 3458POPC   C4B44626   2.126  21.193   7.494
 3459POPC   NC344627  34.045   3.318   5.446
 3459POPC   PO444628  33.585   3.789   5.244
 3459POPC   GL144629  33.703   3.699   5.627
 3459POPC   GL244630  33.539   3.448   5.709
 3459POPC   C1A44631  33.698   3.790   6.077
 3459POPC   D2A44632  33.898   3.646   6.468
 3459POPC   C3A44633  33.689   3.768   6.860
 3459POPC   C4A44634  33.776   3.717   7.282
 3459POPC   C1B44635  33.752   3.292   6.103
 3459POPC   C2B44636  33.865   3.142   6.535
 3459POPC   C3B44637  33.704   3.271   6.941
 3459POPC   C4B44638  33.516   3.250   7.373
 3460POPC   NC344639  10.025  22.662   5.580
 3460POPC   PO444640   9.531  23.016   5.519
 3460POPC   GL144641   9.687  23.173   5.883
 3460POPC   GL244642  10.003  23.115   5.809
 3460POPC   C1A44643   9.558  23.257   6.299
 3460POPC   D2A44644   9.459  23.064   6.672
 3460POPC   C3A44645   9.462  23.277   7.065
 3460POPC   C4A44646   9.623  23.307   7.489
 3460POPC   C1B44647   9.891  22.833   6.200
 3460POPC   C2B44648   9.830  22.703   6.621
 3460POPC   C3B44649   9.764  22.865   7.047
 3460POPC   C4B44650  10.077  23.097   7.212
 3461POPC   NC344651  32.211   4.255   4.903
 3461POPC   PO444652  31.961   4.042   5.493
 3461POPC   GL144653  32.274   4.220   5.815
 3461POPC   GL244654  32.598   4.078   5.837
 3461POPC   C1A44655  32.507   4.453   6.176
 3461POPC   D2A44656  32.467   4.594   6.620
 3461POPC   C3A44657  32.423   4.404   7.071
 3461POPC   C4A44658  32.370   4.636   7.506
 3461POPC   C1B44659  32.420   3.924   6.248
 3461POPC   C2B44660  32.410   4.004   6.709
 3461POPC   C3B44661  32.421   3.825   7.133
 3461POPC   C4B44662  32.431   3.812   7.601
 3462POPC   NC344663  35.770  17.399   5.433
 3462POPC   PO444664  36.411  17.581   5.591
 3462POPC   GL144665  36.165  17.349   5.828
 3462POPC   GL244666  35.928  17.596   5.889
 3462POPC   C1A44667  36.125  17.323   6.266
 3462POPC   D2A44668  36.063  17.522   6.659
 3462POPC   C3A44669  36.432  17.443   6.878
 3462POPC   C4A44670  36.494  17.410   7.288
 3462POPC   C1B44671  35.696  17.644   6.291
 3462POPC   C2B44672  35.669  17.956   6.620
 3462POPC   C3B44673  35.763  17.854   7.020
 3462POPC   C4B44674  35.998  17.512   7.195
 3463POPC   NC344675  13.454  43.184   5.093
 3463POPC   PO444676  13.777  42.705   5.371
 3463POPC   GL144677  13.830  42.923   5.794
 3463POPC   GL244678  13.843  43.304   5.768
 3463POPC   C1A44679  13.875  43.035   6.240
 3463POPC   D2A44680  13.705  43.209   6.616
 3463POPC   C3A44681  13.628  42.878   6.868
 3463POPC   C4A44682  13.912  42.810   7.189
 3463POPC   C1B44683  13.555  43.433   6.130
 3463POPC   C2B44684  13.344  43.595   6.515
 3463POPC   C3B44685  13.338  43.415   6.927
 3463POPC   C4B44686  13.651  43.271   7.169
 3464POPC   NC344687   3.331  41.451   5.031
 3464POPC   PO444688   3.715  41.632   5.570
 3464POPC   GL144689   3.709  41.356   5.852
 3464POPC   GL244690   3.427  41.498   6.002
 3464POPC   C1A44691   3.756  41.237   6.265
 3464POPC   D2A44692   3.525  41.320   6.603
 3464POPC   C3A44693   3.672  41.544   6.941
 3464POPC   C4A44694   3.645  41.268   7.228
 3464POPC   C1B44695   3.631  41.770   6.210
 3464POPC   C2B44696   3.446  41.809   6.576
 3464POPC   C3B44697   3.181  41.665   6.898
 3464POPC   C4B44698   3.341  41.798   7.312
 3465POPC   NC344699   1.151  26.685   5.167
 3465POPC   PO444700   1.346  27.357   5.412
 3465POPC   GL144701   1.295  27.021   5.765
 3465POPC   GL244702   1.017  26.751   5.732
 3465POPC   C1A44703   1.226  26.831   6.210
 3465POPC   D2A44704   1.308  26.607   6.617
 3465POPC   C3A44705   1.308  26.853   7.009
 3465POPC   C4A44706   1.449  26.772   7.420
 3465POPC   C1B44707   0.746  26.670   6.129
 3465POPC   C2B44708   0.813  26.774   6.569
 3465POPC   C3B44709   0.892  26.572   6.967
 3465POPC   C4B44710   0.953  26.683   7.443
 3466POPC   NC344711  10.895  22.491   5.430
 3466POPC   PO444712  10.759  23.196   5.481
 3466POPC   GL144713  10.500  22.968   5.772
 3466POPC   GL244714  10.622  22.680   5.936
 3466POPC   C1A44715  10.352  23.048   6.197
 3466POPC   D2A44716  10.413  22.844   6.582
 3466POPC   C3A44717  10.541  22.975   6.977
 3466POPC   C4A44718  10.736  22.773   7.309
 3466POPC   C1B44719  10.328  22.501   6.207
 3466POPC   C2B44720  10.260  22.341   6.638
 3466POPC   C3B44721  10.192  22.610   6.982
 3466POPC   C4B44722  10.202  22.641   7.418
 3467POPC   NC344723  18.952   3.822   5.415
 3467POPC   PO444724  18.876   4.509   5.547
 3467POPC   GL144725  19.143   4.219   5.792
 3467POPC   GL244726  18.916   3.982   5.900
 3467POPC   C1A44727  19.378   4.182   6.218
 3467POPC   D2A44728  19.228   4.114   6.646
 3467POPC   C3A44729  19.406   4.239   7.054
 3467POPC   C4A44730  19.177   4.428   7.411
 3467POPC   C1B44731  18.888   4.307   6.235
 3467POPC   C2B44732  18.711   4.288   6.625
 3467POPC   C3B44733  18.868   4.296   7.027
 3467POPC   C4B44734  18.643   4.180   7.388
 3468POPC   NC344735  19.525  30.512   5.071
 3468POPC   PO444736  19.108  30.991   5.285
 3468POPC   GL144737  19.064  30.744   5.693
 3468POPC   GL244738  19.251  30.425   5.562
 3468POPC   C1A44739  18.945  30.759   6.158
 3468POPC   D2A44740  18.899  30.926   6.597
 3468POPC   C3A44741  19.122  30.794   6.981
 3468POPC   C4A44742  19.283  30.698   7.389
 3468POPC   C1B44743  19.210  30.314   6.004
 3468POPC   C2B44744  19.223  30.417   6.440
 3468POPC   C3B44745  18.951  30.351   6.762
 3468POPC   C4B44746  18.924  30.333   7.182
 3469POPC   NC344747  43.485   4.567   5.491
 3469POPC   PO444748  43.120   4.003   5.430
 3469POPC   GL144749  43.099   4.285   5.793
 3469POPC   GL244750  43.434   4.308   5.939
 3469POPC   C1A44751  42.920   4.313   6.217
 3469POPC   D2A44752  42.769   4.406   6.634
 3469POPC   C3A44753  42.934   4.273   7.006
 3469POPC   C4A44754  43.098   4.170   7.378
 3469POPC   C1B44755  43.307   4.643   6.244
 3469POPC   C2B44756  43.241   4.647   6.718
 3469POPC   C3B44757  43.270   4.616   7.204
 3469POPC   C4B44758  43.179   4.695   7.680
 3470POPC   NC344759  38.601   3.765   5.369
 3470POPC   PO444760  38.187   3.300   5.414
 3470POPC   GL144761  38.310   3.513   5.761
 3470POPC   GL244762  37.973   3.427   5.859
 3470POPC   C1A44763  38.520   3.696   6.123
 3470POPC   D2A44764  38.618   3.890   6.515
 3470POPC   C3A44765  38.929   3.881   6.822
 3470POPC   C4A44766  38.736   3.678   7.193
 3470POPC   C1B44767  38.019   3.640   6.187
 3470POPC   C2B44768  38.252   3.514   6.535
 3470POPC   C3B44769  38.313   3.691   6.911
 3470POPC   C4B44770  38.240   3.531   7.341
 3471POPC   NC344771  39.479  37.927   5.482
 3471POPC   PO444772  39.272  37.314   5.316
 3471POPC   GL144773  39.278  37.533   5.767
 3471POPC   GL244774  39.100  37.866   5.853
 3471POPC   C1A44775  39.442  37.648   6.227
 3471POPC   D2A44776  39.257  37.735   6.682
 3471POPC   C3A44777  39.258  37.458   7.106
 3471POPC   C4A44778  39.319  37.252   7.564
 3471POPC   C1B44779  39.198  38.127   6.227
 3471POPC   C2B44780  39.173  38.261   6.663
 3471POPC   C3B44781  39.289  38.075   7.084
 3471POPC   C4B44782  39.020  37.979   7.431
 3472POPC   NC344783  14.892  38.206   5.597
 3472POPC   PO444784  15.422  38.370   5.206
 3472POPC   GL144785  15.226  38.596   5.658
 3472POPC   GL244786  15.433  38.819   5.833
 3472POPC   C1A44787  15.206  38.516   6.176
 3472POPC   D2A44788  15.275  38.316   6.624
 3472POPC   C3A44789  15.045  38.452   7.012
 3472POPC   C4A44790  14.935  38.336   7.449
 3472POPC   C1B44791  15.660  38.788   6.214
 3472POPC   C2B44792  15.491  38.791   6.644
 3472POPC   C3B44793  15.453  38.772   7.088
 3472POPC   C4B44794  15.402  38.869   7.533
 3473POPC   NC344795   1.649   2.946   5.425
 3473POPC   PO444796   0.996   2.676   5.437
 3473POPC   GL144797   1.354   2.595   5.661
 3473POPC   GL244798   1.296   2.962   5.791
 3473POPC   C1A44799   1.408   2.472   6.090
 3473POPC   D2A44800   1.102   2.632   6.384
 3473POPC   C3A44801   1.037   2.568   6.829
 3473POPC   C4A44802   0.967   2.848   7.180
 3473POPC   C1B44803   1.520   2.982   6.160
 3473POPC   C2B44804   1.436   3.029   6.584
 3473POPC   C3B44805   1.505   2.842   6.955
 3473POPC   C4B44806   1.426   3.040   7.305
 3474POPC   NC344807  22.944   7.467   4.727
 3474POPC   PO444808  22.932   7.428   5.398
 3474POPC   GL144809  23.021   7.486   5.835
 3474POPC   GL244810  22.694   7.663   5.847
 3474POPC   C1A44811  23.274   7.272   6.185
 3474POPC   D2A44812  23.362   7.256   6.633
 3474POPC   C3A44813  22.957   7.362   6.810
 3474POPC   C4A44814  22.771   7.263   7.193
 3474POPC   C1B44815  22.799   7.781   6.289
 3474POPC   C2B44816  22.765   7.844   6.776
 3474POPC   C3B44817  22.905   7.758   7.207
 3474POPC   C4B44818  23.193   7.660   7.562
 3475POPC   NC344819   9.326  21.063   5.411
 3475POPC   PO444820   9.813  21.579   5.555
 3475POPC   GL144821   9.807  21.263   5.872
 3475POPC   GL244822   9.513  21.077   5.869
 3475POPC   C1A44823   9.910  21.132   6.289
 3475POPC   D2A44824   9.846  21.330   6.678
 3475POPC   C3A44825   9.921  21.301   7.119
 3475POPC   C4A44826   9.647  21.470   7.437
 3475POPC   C1B44827   9.421  21.350   6.212
 3475POPC   C2B44828   9.316  21.556   6.586
 3475POPC   C3B44829   9.433  21.366   6.970
 3475POPC   C4B44830   9.246  21.147   7.281
 3476POPC   NC344831   4.062  39.104   5.448
 3476POPC   PO444832   4.728  39.346   5.495
 3476POPC   GL144833   4.363  39.343   5.827
 3476POPC   GL244834   3.978  39.223   5.925
 3476POPC   C1A44835   4.399  39.262   6.258
 3476POPC   D2A44836   4.367  39.035   6.605
 3476POPC   C3A44837   4.586  39.088   6.934
 3476POPC   C4A44838   4.461  39.123   7.296
 3476POPC   C1B44839   4.066  38.869   6.205
 3476POPC   C2B44840   3.961  38.739   6.646
 3476POPC   C3B44841   4.231  38.706   7.043
 3476POPC   C4B44842   4.311  38.696   7.521
 3477POPC   NC344843  32.103   5.190   5.241
 3477POPC   PO444844  32.705   5.066   5.398
 3477POPC   GL144845  32.359   5.056   5.746
 3477POPC   GL244846  32.059   5.240   5.754
 3477POPC   C1A44847  32.184   4.975   6.186
 3477POPC   D2A44848  32.355   5.096   6.627
 3477POPC   C3A44849  32.142   4.867   6.964
 3477POPC   C4A44850  32.082   5.021   7.387
 3477POPC   C1B44851  31.915   5.426   6.117
 3477POPC   C2B44852  31.869   5.208   6.512
 3477POPC   C3B44853  31.771   5.221   6.886
 3477POPC   C4B44854  31.816   5.438   7.245
 3478POPC   NC344855   5.441   0.788   5.400
 3478POPC   PO444856   5.742   1.333   5.564
 3478POPC   GL144857   5.890   1.315   5.952
 3478POPC   GL244858   6.175   1.494   5.990
 3478POPC   C1A44859   5.706   1.403   6.353
 3478POPC   D2A44860   5.650   1.243   6.750
 3478POPC   C3A44861   5.622   1.525   7.086
 3478POPC   C4A44862   5.658   1.334   7.485
 3478POPC   C1B44863   6.189   1.215   6.352
 3478POPC   C2B44864   6.082   0.871   6.609
 3478POPC   C3B44865   5.951   0.916   7.029
 3478POPC   C4B44866   6.083   1.302   7.203
 3479POPC   NC344867  13.345  37.606   5.404
 3479POPC   PO444868  13.992  37.555   5.727
 3479POPC   GL144869  13.623  37.606   5.821
 3479POPC   GL244870  13.571  37.946   5.707
 3479POPC   C1A44871  13.523  37.429   6.187
 3479POPC   D2A44872  13.725  37.343   6.540
 3479POPC   C3A44873  13.395  37.385   6.810
 3479POPC   C4A44874  13.439  37.739   7.043
 3479POPC   C1B44875  13.434  37.976   6.126
 3479POPC   C2B44876  13.529  37.847   6.538
 3479POPC   C3B44877  13.801  38.043   6.834
 3479POPC   C4B44878  13.736  38.087   7.269
 3480POPC   NC344879  41.995  32.679   5.685
 3480POPC   PO444880  42.567  33.092   5.476
 3480POPC   GL144881  42.478  32.926   5.881
 3480POPC   GL244882  42.781  32.738   5.904
 3480POPC   C1A44883  42.295  33.089   6.292
 3480POPC   D2A44884  42.257  33.407   6.661
 3480POPC   C3A44885  42.292  33.115   7.009
 3480POPC   C4A44886  41.994  32.804   7.104
 3480POPC   C1B44887  42.613  32.640   6.314
 3480POPC   C2B44888  42.325  32.697   6.660
 3480POPC   C3B44889  42.479  32.624   7.051
 3480POPC   C4B44890  42.815  32.628   7.348
 3481POPC   NC344891  17.585  38.371   5.460
 3481POPC   PO444892  17.012  38.463   5.378
 3481POPC   GL144893  17.272  38.512   5.806
 3481POPC   GL244894  17.304  38.172   5.856
 3481POPC   C1A44895  17.508  38.697   6.184
 3481POPC   D2A44896  17.293  38.613   6.550
 3481POPC   C3A44897  17.337  38.661   6.963
 3481POPC   C4A44898  17.659  38.705   7.207
 3481POPC   C1B44899  17.434  38.192   6.273
 3481POPC   C2B44900  17.543  38.204   6.720
 3481POPC   C3B44901  17.567  38.221   7.185
 3481POPC   C4B44902  17.554  38.110   7.658
 3482POPC   NC344903  20.480  12.572   5.354
 3482POPC   PO444904  20.950  13.119   5.395
 3482POPC   GL144905  20.811  12.898   5.775
 3482POPC   GL244906  20.466  12.839   5.836
 3482POPC   C1A44907  20.777  13.118   6.192
 3482POPC   D2A44908  20.716  13.145   6.641
 3482POPC   C3A44909  20.996  13.062   6.946
 3482POPC   C4A44910  20.905  13.237   7.306
 3482POPC   C1B44911  20.492  12.691   6.262
 3482POPC   C2B44912  20.507  12.593   6.704
 3482POPC   C3B44913  20.537  12.859   7.081
 3482POPC   C4B44914  20.435  12.713   7.517
 3483POPC   NC344915  23.494   3.869   5.092
 3483POPC   PO444916  23.752   3.272   5.390
 3483POPC   GL144917  23.830   3.355   5.829
 3483POPC   GL244918  23.677   3.686   5.781
 3483POPC   C1A44919  23.950   3.265   6.292
 3483POPC   D2A44920  24.052   3.158   6.746
 3483POPC   C3A44921  23.759   3.251   7.058
 3483POPC   C4A44922  23.331   3.221   7.236
 3483POPC   C1B44923  23.512   3.562   6.196
 3483POPC   C2B44924  23.565   3.439   6.619
 3483POPC   C3B44925  23.494   3.680   6.985
 3483POPC   C4B44926  23.313   3.704   7.361
 3484POPC   NC344927  21.195  13.539   5.360
 3484POPC   PO444928  21.725  13.883   5.699
 3484POPC   GL144929  21.475  13.575   5.805
 3484POPC   GL244930  21.199  13.797   5.817
 3484POPC   C1A44931  21.388  13.324   6.156
 3484POPC   D2A44932  21.225  13.167   6.502
 3484POPC   C3A44933  21.365  13.407   6.838
 3484POPC   C4A44934  21.489  13.315   7.249
 3484POPC   C1B44935  21.348  13.828   6.245
 3484POPC   C2B44936  21.674  13.748   6.500
 3484POPC   C3B44937  21.621  13.863   6.889
 3484POPC   C4B44938  21.284  13.808   7.188
 3485POPC   NC344939   5.312  31.687   5.550
 3485POPC   PO444940   5.317  32.376   5.453
 3485POPC   GL144941   5.168  32.286   5.864
 3485POPC   GL244942   4.989  31.961   5.854
 3485POPC   C1A44943   5.302  32.418   6.332
 3485POPC   D2A44944   5.047  32.510   6.730
 3485POPC   C3A44945   5.083  32.387   7.182
 3485POPC   C4A44946   4.786  32.172   7.503
 3485POPC   C1B44947   5.006  32.022   6.282
 3485POPC   C2B44948   4.793  32.024   6.678
 3485POPC   C3B44949   4.915  31.924   7.066
 3485POPC   C4B44950   5.283  31.887   7.282
 3486POPC   NC344951  14.667  12.533   5.336
 3486POPC   PO444952  14.277  12.995   5.421
 3486POPC   GL144953  14.355  12.822   5.836
 3486POPC   GL244954  14.605  12.560   5.856
 3486POPC   C1A44955  14.321  12.970   6.279
 3486POPC   D2A44956  14.601  12.839   6.609
 3486POPC   C3A44957  14.561  13.000   7.029
 3486POPC   C4A44958  14.140  12.958   7.233
 3486POPC   C1B44959  14.344  12.456   6.206
 3486POPC   C2B44960  14.148  12.566   6.589
 3486POPC   C3B44961  14.320  12.539   6.990
 3486POPC   C4B44962  14.750  12.423   7.107
 3487POPC   NC344963   6.168  20.584   5.549
 3487POPC   PO444964   5.536  20.501   5.311
 3487POPC   GL144965   5.689  20.748   5.697
 3487POPC   GL244966   5.753  20.441   5.805
 3487POPC   C1A44967   5.736  20.821   6.185
 3487POPC   D2A44968   6.075  20.818   6.552
 3487POPC   C3A44969   5.920  20.795   6.991
 3487POPC   C4A44970   5.561  20.547   7.123
 3487POPC   C1B44971   5.960  20.329   6.155
 3487POPC   C2B44972   5.960  20.129   6.536
 3487POPC   C3B44973   6.021  20.278   6.933
 3487POPC   C4B44974   6.100  20.345   7.339
 3488POPC   NC344975  13.948  33.797   5.342
 3488POPC   PO444976  13.376  33.490   5.426
 3488POPC   GL144977  13.627  33.735   5.778
 3488POPC   GL244978  13.980  33.656   5.856
 3488POPC   C1A44979  13.759  33.956   6.188
 3488POPC   D2A44980  13.750  34.169   6.581
 3488POPC   C3A44981  13.657  34.007   7.024
 3488POPC   C4A44982  13.930  34.015   7.388
 3488POPC   C1B44983  13.835  33.438   6.259
 3488POPC   C2B44984  13.934  33.367   6.724
 3488POPC   C3B44985  13.870  33.546   7.160
 3488POPC   C4B44986  13.569  33.462   7.492
 3489POPC   NC344987  36.392  12.095   5.360
 3489POPC   PO444988  35.792  12.070   5.367
 3489POPC   GL144989  35.998  11.914   5.779
 3489POPC   GL244990  36.357  11.770   5.816
 3489POPC   C1A44991  36.086  11.984   6.261
 3489POPC   D2A44992  36.364  11.997   6.661
 3489POPC   C3A44993  36.151  12.272   6.954
 3489POPC   C4A44994  36.033  12.495   7.324
 3489POPC   C1B44995  36.384  11.585   6.274
 3489POPC   C2B44996  36.080  11.582   6.663
 3489POPC   C3B44997  36.108  11.765   7.099
 3489POPC   C4B44998  36.256  11.576   7.526
 3490POPC   NC344999  25.727   2.412   5.489
 3490POPC   PO445000  26.411   2.691   5.446
 3490POPC   GL145001  26.160   2.893   5.788
 3490POPC   GL245002  25.806   2.779   5.874
 3490POPC   C1A45003  26.200   2.763   6.225
 3490POPC   D2A45004  26.201   2.535   6.636
 3490POPC   C3A45005  26.266   2.788   7.016
 3490POPC   C4A45006  26.321   3.247   6.988
 3490POPC   C1B45007  25.706   2.859   6.312
 3490POPC   C2B45008  25.949   3.023   6.640
 3490POPC   C3B45009  25.818   3.130   7.021
 3490POPC   C4B45010  25.740   2.710   7.106
 3491POPC   NC345011  35.769  43.950   5.626
 3491POPC   PO445012  35.118  44.211   5.445
 3491POPC   GL145013  35.322  44.135   5.837
 3491POPC   GL245014  35.324  43.762   5.803
 3491POPC   C1A45015  35.568  44.209   6.237
 3491POPC   D2A45016  35.518  44.013   6.665
 3491POPC   C3A45017  35.434  44.255   7.047
 3491POPC   C4A45018  35.424  44.137   7.535
 3491POPC   C1B45019  35.263  43.782   6.243
 3491POPC   C2B45020  34.991  43.723   6.606
 3491POPC   C3B45021  35.054  43.886   7.023
 3491POPC   C4B45022  35.045  43.809   7.460
 3492POPC   NC345023   9.077  13.706   5.440
 3492POPC   PO445024   8.560  13.446   5.698
 3492POPC   GL145025   8.903  13.654   5.932
 3492POPC   GL245026   9.288  13.735   5.916
 3492POPC   C1A45027   8.847  13.750   6.350
 3492POPC   D2A45028   8.614  13.544   6.653
 3492POPC   C3A45029   8.805  13.521   7.051
 3492POPC   C4A45030   8.992  13.613   7.441
 3492POPC   C1B45031   9.340  13.763   6.387
 3492POPC   C2B45032   9.237  13.764   6.827
 3492POPC   C3B45033   9.428  13.785   7.231
 3492POPC   C4B45034   9.353  13.954   7.650
 3493POPC   NC345035   5.300  20.896   5.394
 3493POPC   PO445036   5.206  21.535   5.337
 3493POPC   GL145037   5.087  21.325   5.732
 3493POPC   GL245038   5.375  21.142   5.847
 3493POPC   C1A45039   5.013  21.334   6.210
 3493POPC   D2A45040   5.190  21.271   6.645
 3493POPC   C3A45041   5.021  21.369   7.089
 3493POPC   C4A45042   4.877  21.335   7.557
 3493POPC   C1B45043   5.521  21.302   6.239
 3493POPC   C2B45044   5.710  21.186   6.638
 3493POPC   C3B45045   5.506  21.098   7.043
 3493POPC   C4B45046   5.305  21.122   7.437
 3494POPC   NC345047  37.074   3.187   5.404
 3494POPC   PO445048  36.801   3.787   5.547
 3494POPC   GL145049  36.764   3.503   5.895
 3494POPC   GL245050  37.015   3.303   5.920
 3494POPC   C1A45051  36.665   3.458   6.349
 3494POPC   D2A45052  36.534   3.559   6.777
 3494POPC   C3A45053  36.826   3.470   7.022
 3494POPC   C4A45054  36.996   3.845   6.985
 3494POPC   C1B45055  37.132   3.665   6.196
 3494POPC   C2B45056  37.205   3.544   6.622
 3494POPC   C3B45057  37.337   3.402   7.018
 3494POPC   C4B45058  37.132   3.171   7.315
 3495POPC   NC345059   8.930  43.785   5.452
 3495POPC   PO445060   8.536  44.277   5.529
 3495POPC   GL145061   8.818  44.054   5.883
 3495POPC   GL245062   9.181  44.010   5.845
 3495POPC   C1A45063   8.910  43.698   6.188
 3495POPC   D2A45064   8.699  43.560   6.580
 3495POPC   C3A45065   8.863  43.583   6.960
 3495POPC   C4A45066   8.791  43.814   7.338
 3495POPC   C1B45067   9.365  43.933   6.255
 3495POPC   C2B45068   9.110  43.913   6.628
 3495POPC   C3B45069   8.858  44.125   6.926
 3495POPC   C4B45070   8.942  44.343   7.299
 3496POPC   NC345071  42.284  16.146   5.353
 3496POPC   PO445072  42.564  15.593   5.182
 3496POPC   GL145073  42.251  15.722   5.611
 3496POPC   GL245074  41.901  15.744   5.648
 3496POPC   C1A45075  42.198  16.014   6.000
 3496POPC   D2A45076  42.131  15.996   6.442
 3496POPC   C3A45077  42.350  16.219   6.796
 3496POPC   C4A45078  42.492  15.983   7.161
 3496POPC   C1B45079  41.913  15.596   6.070
 3496POPC   C2B45080  42.046  15.494   6.466
 3496POPC   C3B45081  42.163  15.677   6.845
 3496POPC   C4B45082  42.035  15.770   7.221
 3497POPC   NC345083  28.193  38.917   5.451
 3497POPC   PO445084  28.535  38.338   5.288
 3497POPC   GL145085  28.568  38.327   5.741
 3497POPC   GL245086  28.253  38.520   5.806
 3497POPC   C1A45087  28.740  38.474   6.149
 3497POPC   D2A45088  28.584  38.476   6.557
 3497POPC   C3A45089  28.755  38.544   6.935
 3497POPC   C4A45090  28.754  38.205   7.267
 3497POPC   C1B45091  28.168  38.145   6.039
 3497POPC   C2B45092  28.271  38.072   6.475
 3497POPC   C3B45093  28.401  38.153   6.903
 3497POPC   C4B45094  28.252  38.186   7.314
 3498POPC   NC345095  19.197  26.133   5.305
 3498POPC   PO445096  18.694  25.789   5.548
 3498POPC   GL145097  19.059  26.052   5.785
 3498POPC   GL245098  19.443  25.942   5.755
 3498POPC   C1A45099  19.057  26.297   6.173
 3498POPC   D2A45100  18.930  26.061   6.536
 3498POPC   C3A45101  19.125  26.184   6.902
 3498POPC   C4A45102  18.886  26.335   7.226
 3498POPC   C1B45103  19.331  25.881   6.205
 3498POPC   C2B45104  19.370  25.788   6.636
 3498POPC   C3B45105  19.019  25.682   6.892
 3498POPC   C4B45106  19.075  25.661   7.288
 3499POPC   NC345107  36.077  37.976   5.548
 3499POPC   PO445108  36.218  37.273   5.362
 3499POPC   GL145109  36.049  37.382   5.807
 3499POPC   GL245110  35.958  37.743   5.968
 3499POPC   C1A45111  36.194  37.381   6.263
 3499POPC   D2A45112  36.015  37.441   6.679
 3499POPC   C3A45113  35.996  37.819   6.939
 3499POPC   C4A45114  36.021  37.908   7.386
 3499POPC   C1B45115  36.308  37.890   6.246
 3499POPC   C2B45116  36.442  37.802   6.666
 3499POPC   C3B45117  36.440  37.509   7.001
 3499POPC   C4B45118  36.452  37.572   7.427
 3500POPC   NC345119  40.646  43.227   5.346
 3500POPC   PO445120  41.303  43.348   5.440
 3500POPC   GL145121  40.974  43.142   5.775
 3500POPC   GL245122  40.601  43.006   5.794
 3500POPC   C1A45123  40.804  43.097   6.248
 3500POPC   D2A45124  40.700  43.156   6.704
 3500POPC   C3A45125  40.970  43.353   7.018
 3500POPC   C4A45126  40.892  43.408   7.520
 3500POPC   C1B45127  40.430  42.730   6.114
 3500POPC   C2B45128  40.519  42.556   6.518
 3500POPC   C3B45129  40.537  42.712   6.947
 3500POPC   C4B45130  40.756  42.983   7.237
 3501POPC   NC345131  43.558  16.876   5.329
 3501POPC   PO445132  42.916  16.570   5.379
 3501POPC   GL145133  43.232  16.702   5.717
 3501POPC   GL245134  43.239  17.077   5.683
 3501POPC   C1A45135  43.189  16.625   6.181
 3501POPC   D2A45136  42.917  16.584   6.589
 3501POPC   C3A45137  43.109  16.608   7.024
 3501POPC   C4A45138  42.967  16.624   7.481
 3501POPC   C1B45139  43.144  17.136   6.148
 3501POPC   C2B45140  43.291  16.980   6.546
 3501POPC   C3B45141  43.292  17.078   6.959
 3501POPC   C4B45142  42.931  17.064   7.236
 3502POPC   NC345143  26.984   9.927   5.499
 3502POPC   PO445144  26.468   9.533   5.303
 3502POPC   GL145145  26.616   9.655   5.754
 3502POPC   GL245146  26.977   9.697   5.954
 3502POPC   C1A45147  26.548   9.751   6.190
 3502POPC   D2A45148  26.798   9.892   6.546
 3502POPC   C3A45149  26.964   9.624   6.856
 3502POPC   C4A45150  26.842   9.704   7.253
 3502POPC   C1B45151  27.058  10.134   6.158
 3502POPC   C2B45152  27.138  10.344   6.565
 3502POPC   C3B45153  27.005  10.158   6.967
 3502POPC   C4B45154  27.210  10.101   7.347
 3503POPC   NC345155  32.550  22.307   5.306
 3503POPC   PO445156  31.918  21.865   5.380
 3503POPC   GL145157  32.102  22.015   5.780
 3503POPC   GL245158  32.129  22.373   5.827
 3503POPC   C1A45159  32.096  22.066   6.241
 3503POPC   D2A45160  32.105  22.380   6.551
 3503POPC   C3A45161  32.187  22.197   6.959
 3503POPC   C4A45162  31.898  21.932   7.229
 3503POPC   C1B45163  32.354  22.622   6.137
 3503POPC   C2B45164  32.417  22.802   6.516
 3503POPC   C3B45165  32.194  22.756   6.886
 3503POPC   C4B45166  32.448  22.606   7.194
 3504POPC   NC345167  39.566  39.354   5.521
 3504POPC   PO445168  39.048  39.823   5.357
 3504POPC   GL145169  39.024  40.026   5.768
 3504POPC   GL245170  39.317  39.889   5.913
 3504POPC   C1A45171  39.049  40.230   6.198
 3504POPC   D2A45172  39.212  40.017   6.574
 3504POPC   C3A45173  39.066  39.948   7.002
 3504POPC   C4A45174  39.138  40.071   7.428
 3504POPC   C1B45175  39.577  39.766   6.284
 3504POPC   C2B45176  39.513  39.635   6.721
 3504POPC   C3B45177  39.496  39.672   7.155
 3504POPC   C4B45178  39.739  39.644   7.525
 3505POPC   NC345179  41.822   9.547   5.611
 3505POPC   PO445180  41.376  10.031   5.558
 3505POPC   GL145181  41.509   9.897   5.945
 3505POPC   GL245182  41.833  10.004   5.889
 3505POPC   C1A45183  41.645   9.592   6.265
 3505POPC   D2A45184  41.663   9.637   6.713
 3505POPC   C3A45185  41.312   9.614   7.020
 3505POPC   C4A45186  41.228   9.659   7.484
 3505POPC   C1B45187  41.827  10.096   6.332
 3505POPC   C2B45188  41.944  10.075   6.754
 3505POPC   C3B45189  41.669   9.975   7.080
 3505POPC   C4B45190  41.769   9.593   7.293
 3506POPC   NC345191  40.117  24.780   5.608
 3506POPC   PO445192  39.944  24.266   5.195
 3506POPC   GL145193  39.890  24.255   5.653
 3506POPC   GL245194  39.682  24.548   5.790
 3506POPC   C1A45195  40.020  24.243   6.102
 3506POPC   D2A45196  39.857  24.298   6.527
 3506POPC   C3A45197  40.137  24.449   6.847
 3506POPC   C4A45198  40.097  24.480   7.268
 3506POPC   C1B45199  39.792  24.723   6.231
 3506POPC   C2B45200  39.791  24.781   6.701
 3506POPC   C3B45201  39.640  24.523   7.065
 3506POPC   C4B45202  39.684  24.581   7.546
 3507POPC   NC345203  11.598  22.472   5.126
 3507POPC   PO445204  12.160  22.369   5.441
 3507POPC   GL145205  12.278  22.420   5.849
 3507POPC   GL245206  12.114  22.103   5.925
 3507POPC   C1A45207  12.386  22.410   6.292
 3507POPC   D2A45208  12.448  22.207   6.704
 3507POPC   C3A45209  12.164  22.400   7.052
 3507POPC   C4A45210  11.918  22.368   7.440
 3507POPC   C1B45211  11.961  21.845   6.277
 3507POPC   C2B45212  12.052  21.848   6.721
 3507POPC   C3B45213  11.879  21.962   7.121
 3507POPC   C4B45214  12.081  21.885   7.523
 3508POPC   NC345215   7.528  16.396   5.260
 3508POPC   PO445216   7.769  16.981   5.415
 3508POPC   GL145217   7.538  16.770   5.766
 3508POPC   GL245218   7.168  16.645   5.754
 3508POPC   C1A45219   7.665  16.882   6.185
 3508POPC   D2A45220   7.528  16.966   6.600
 3508POPC   C3A45221   7.596  16.757   6.999
 3508POPC   C4A45222   7.533  16.929   7.418
 3508POPC   C1B45223   7.135  16.866   6.185
 3508POPC   C2B45224   7.073  16.727   6.627
 3508POPC   C3B45225   7.158  16.477   7.027
 3508POPC   C4B45226   7.182  16.571   7.496
 3509POPC   NC345227  28.596  35.997   5.552
 3509POPC   PO445228  28.244  36.565   5.472
 3509POPC   GL145229  28.227  36.267   5.819
 3509POPC   GL245230  28.519  36.371   5.966
 3509POPC   C1A45231  28.085  36.093   6.237
 3509POPC   D2A45232  27.775  35.983   6.585
 3509POPC   C3A45233  28.023  35.910   6.964
 3509POPC   C4A45234  28.474  35.937   7.052
 3509POPC   C1B45235  28.155  36.620   6.178
 3509POPC   C2B45236  28.053  36.488   6.575
 3509POPC   C3B45237  28.284  36.381   6.897
 3509POPC   C4B45238  28.101  36.326   7.278
 3510POPC   NC345239  36.693   5.978   5.397
 3510POPC   PO445240  37.319   6.161   5.476
 3510POPC   GL145241  37.058   5.842   5.762
 3510POPC   GL245242  36.783   6.001   5.924
 3510POPC   C1A45243  37.042   5.629   6.193
 3510POPC   D2A45244  37.104   5.905   6.586
 3510POPC   C3A45245  37.203   5.694   6.978
 3510POPC   C4A45246  37.398   5.850   7.338
 3510POPC   C1B45247  36.594   5.820   6.309
 3510POPC   C2B45248  36.722   5.606   6.717
 3510POPC   C3B45249  36.737   5.790   7.140
 3510POPC   C4B45250  36.990   6.165   7.218
 3511POPC   NC345251  40.623  29.553   5.254
 3511POPC   PO445252  40.996  30.146   5.332
 3511POPC   GL145253  40.794  30.079   5.732
 3511POPC   GL245254  40.559  29.795   5.719
 3511POPC   C1A45255  40.908  30.210   6.151
 3511POPC   D2A45256  41.168  30.154   6.502
 3511POPC   C3A45257  41.011  29.899   6.847
 3511POPC   C4A45258  40.810  29.932   7.263
 3511POPC   C1B45259  40.444  29.987   6.114
 3511POPC   C2B45260  40.629  29.936   6.521
 3511POPC   C3B45261  40.520  30.120   6.904
 3511POPC   C4B45262  40.311  30.059   7.294
 3512POPC   NC345263  42.619  34.267   5.559
 3512POPC   PO445264  42.724  34.884   5.595
 3512POPC   GL145265  42.331  34.636   5.806
 3512POPC   GL245266  42.350  34.302   6.001
 3512POPC   C1A45267  42.029  34.642   6.180
 3512POPC   D2A45268  41.917  34.406   6.583
 3512POPC   C3A45269  41.920  34.573   7.008
 3512POPC   C4A45270  42.259  34.870   7.161
 3512POPC   C1B45271  42.715  34.113   6.245
 3512POPC   C2B45272  42.855  34.140   6.704
 3512POPC   C3B45273  42.706  34.384   7.075
 3512POPC   C4B45274  42.638  34.671   7.437
 3513POPC   NC345275   3.824  32.313   5.383
 3513POPC   PO445276   3.168  32.359   5.564
 3513POPC   GL145277   3.551  32.245   5.822
 3513POPC   GL245278   3.843  32.531   5.829
 3513POPC   C1A45279   3.615  31.956   6.204
 3513POPC   D2A45280   3.847  31.826   6.603
 3513POPC   C3A45281   3.653  32.000   6.985
 3513POPC   C4A45282   3.217  32.176   7.068
 3513POPC   C1B45283   3.962  32.325   6.174
 3513POPC   C2B45284   3.719  32.334   6.551
 3513POPC   C3B45285   3.610  32.518   6.930
 3513POPC   C4B45286   3.674  32.350   7.346
 3514POPC   NC345287  42.629  11.501   5.353
 3514POPC   PO445288  42.420  10.857   5.396
 3514POPC   GL145289  42.397  11.223   5.697
 3514POPC   GL245290  42.738  11.289   5.825
 3514POPC   C1A45291  42.188  11.501   6.022
 3514POPC   D2A45292  41.979  11.506   6.430
 3514POPC   C3A45293  42.121  11.392   6.878
 3514POPC   C4A45294  42.146  11.143   7.288
 3514POPC   C1B45295  42.628  11.420   6.258
 3514POPC   C2B45296  42.612  11.523   6.701
 3514POPC   C3B45297  42.568  11.440   7.165
 3514POPC   C4B45298  42.791  11.599   7.533
 3515POPC   NC345299  10.001   9.852   5.379
 3515POPC   PO445300   9.814   9.228   5.534
 3515POPC   GL145301   9.725   9.589   5.792
 3515POPC   GL245302   9.594   9.923   5.692
 3515POPC   C1A45303   9.627   9.658   6.207
 3515POPC   D2A45304   9.826   9.516   6.565
 3515POPC   C3A45305   9.931   9.786   6.858
 3515POPC   C4A45306  10.010   9.688   7.249
 3515POPC   C1B45307   9.287  10.005   6.008
 3515POPC   C2B45308   9.280   9.976   6.450
 3515POPC   C3B45309   9.335   9.671   6.775
 3515POPC   C4B45310   9.512   9.775   7.168
 3516POPC   NC345311  31.275  39.589   5.353
 3516POPC   PO445312  31.830  39.739   5.373
 3516POPC   GL145313  31.658  39.701   5.827
 3516POPC   GL245314  31.311  39.844   5.823
 3516POPC   C1A45315  31.503  39.778   6.299
 3516POPC   D2A45316  31.581  40.135   6.633
 3516POPC   C3A45317  31.698  40.123   7.109
 3516POPC   C4A45318  31.865  40.084   7.593
 3516POPC   C1B45319  31.162  40.150   6.156
 3516POPC   C2B45320  30.997  40.185   6.571
 3516POPC   C3B45321  31.193  40.243   6.952
 3516POPC   C4B45322  31.189  39.911   7.173
 3517POPC   NC345323  42.401   1.547   5.228
 3517POPC   PO445324  41.941   1.886   5.599
 3517POPC   GL145325  42.354   1.793   5.752
 3517POPC   GL245326  42.360   2.125   5.871
 3517POPC   C1A45327  42.576   1.685   6.142
 3517POPC   D2A45328  42.451   1.965   6.490
 3517POPC   C3A45329  42.409   1.737   6.844
 3517POPC   C4A45330  42.300   1.709   7.244
 3517POPC   C1B45331  42.109   2.259   6.223
 3517POPC   C2B45332  42.160   2.393   6.659
 3517POPC   C3B45333  42.121   2.151   7.020
 3517POPC   C4B45334  41.937   2.283   7.462
 3518POPC   NC345335  38.643  24.363   5.206
 3518POPC   PO445336  38.150  24.680   5.376
 3518POPC   GL145337  38.428  24.477   5.700
 3518POPC   GL245338  38.692  24.227   5.787
 3518POPC   C1A45339  38.488  24.601   6.140
 3518POPC   D2A45340  38.468  24.793   6.537
 3518POPC   C3A45341  38.302  24.474   6.811
 3518POPC   C4A45342  38.277  24.436   7.256
 3518POPC   C1B45343  38.879  24.227   6.208
 3518POPC   C2B45344  38.817  24.428   6.611
 3518POPC   C3B45345  38.747  24.562   7.063
 3518POPC   C4B45346  38.698  24.532   7.533
 3519POPC   NC345347   2.867  25.720   5.397
 3519POPC   PO445348   2.501  26.265   5.377
 3519POPC   GL145349   2.763  26.097   5.722
 3519POPC   GL245350   2.629  25.782   5.865
 3519POPC   C1A45351   2.983  26.054   6.126
 3519POPC   D2A45352   3.083  26.177   6.553
 3519POPC   C3A45353   2.782  26.103   6.840
 3519POPC   C4A45354   2.948  25.983   7.202
 3519POPC   C1B45355   2.691  25.678   6.322
 3519POPC   C2B45356   2.512  25.667   6.745
 3519POPC   C3B45357   2.506  25.752   7.194
 3519POPC   C4B45358   2.420  25.947   7.587
 3520POPC   NC345359  11.984  19.408   5.356
 3520POPC   PO445360  11.885  18.627   5.399
 3520POPC   GL145361  11.869  18.903   5.802
 3520POPC   GL245362  11.984  19.258   5.837
 3520POPC   C1A45363  11.909  18.993   6.270
 3520POPC   D2A45364  11.928  18.868   6.696
 3520POPC   C3A45365  11.916  19.092   7.057
 3520POPC   C4A45366  12.271  18.926   7.285
 3520POPC   C1B45367  12.271  19.337   6.201
 3520POPC   C2B45368  12.373  19.163   6.604
 3520POPC   C3B45369  12.436  19.324   6.985
 3520POPC   C4B45370  12.192  19.455   7.290
 3521POPC   NC345371   7.720  41.706   5.416
 3521POPC   PO445372   7.110  41.402   5.151
 3521POPC   GL145373   7.387  41.371   5.588
 3521POPC   GL245374   7.331  41.709   5.746
 3521POPC   C1A45375   7.409  41.315   6.076
 3521POPC   D2A45376   7.484  41.428   6.535
 3521POPC   C3A45377   7.244  41.551   6.859
 3521POPC   C4A45378   7.303  41.706   7.250
 3521POPC   C1B45379   7.599  41.852   6.094
 3521POPC   C2B45380   7.784  41.930   6.501
 3521POPC   C3B45381   7.640  41.908   6.911
 3521POPC   C4B45382   7.809  41.654   7.222
 3522POPC   NC345383  22.025  21.709   5.410
 3522POPC   PO445384  22.323  21.162   5.366
 3522POPC   GL145385  22.164  21.384   5.793
 3522POPC   GL245386  21.859  21.636   5.882
 3522POPC   C1A45387  22.192  21.394   6.251
 3522POPC   D2A45388  22.351  21.582   6.643
 3522POPC   C3A45389  22.239  21.393   7.050
 3522POPC   C4A45390  22.054  21.689   7.323
 3522POPC   C1B45391  21.634  21.426   6.186
 3522POPC   C2B45392  21.758  21.332   6.583
 3522POPC   C3B45393  21.727  21.446   6.987
 3522POPC   C4B45394  21.791  21.136   7.259
 3523POPC   NC345395  40.168  39.875   5.012
 3523POPC   PO445396  40.817  39.983   5.279
 3523POPC   GL145397  40.863  40.054   5.741
 3523POPC   GL245398  41.102  40.347   5.785
 3523POPC   C1A45399  40.724  39.852   6.163
 3523POPC   D2A45400  40.927  39.846   6.597
 3523POPC   C3A45401  40.737  39.895   6.970
 3523POPC   C4A45402  40.546  40.045   7.317
 3523POPC   C1B45403  40.963  40.292   6.192
 3523POPC   C2B45404  41.097  40.326   6.567
 3523POPC   C3B45405  41.156  40.231   6.931
 3523POPC   C4B45406  41.070  40.129   7.316
 3524POPC   NC345407  19.707  13.116   5.544
 3524POPC   PO445408  19.841  13.818   5.428
 3524POPC   GL145409  19.859  13.607   5.770
 3524POPC   GL245410  19.535  13.513   5.806
 3524POPC   C1A45411  19.963  13.604   6.182
 3524POPC   D2A45412  19.854  13.349   6.522
 3524POPC   C3A45413  20.017  13.558   6.856
 3524POPC   C4A45414  19.924  13.733   7.259
 3524POPC   C1B45415  19.461  13.804   6.122
 3524POPC   C2B45416  19.630  13.817   6.533
 3524POPC   C3B45417  19.519  13.687   6.909
 3524POPC   C4B45418  19.441  13.926   7.257
 3525POPC   NC345419  10.495  11.667   5.445
 3525POPC   PO445420  10.853  12.262   5.364
 3525POPC   GL145421  10.730  12.236   5.795
 3525POPC   GL245422  10.879  11.882   5.793
 3525POPC   C1A45423  10.489  12.418   6.196
 3525POPC   D2A45424  10.326  12.533   6.648
 3525POPC   C3A45425  10.246  12.222   6.969
 3525POPC   C4A45426  10.425  12.130   7.356
 3525POPC   C1B45427  10.718  11.970   6.232
 3525POPC   C2B45428  10.820  12.271   6.570
 3525POPC   C3B45429  10.808  12.119   6.974
 3525POPC   C4B45430  10.849  11.850   7.303
 3526POPC   NC345431  21.974  28.337   5.398
 3526POPC   PO445432  22.651  28.454   5.331
 3526POPC   GL145433  22.336  28.407   5.775
 3526POPC   GL245434  21.966  28.297   5.891
 3526POPC   C1A45435  22.313  28.305   6.263
 3526POPC   D2A45436  22.527  28.148   6.639
 3526POPC   C3A45437  22.506  28.365   7.017
 3526POPC   C4A45438  22.191  28.721   7.173
 3526POPC   C1B45439  21.857  28.019   6.224
 3526POPC   C2B45440  21.966  27.991   6.620
 3526POPC   C3B45441  22.046  28.342   6.821
 3526POPC   C4B45442  22.044  28.252   7.227
 3527POPC   NC345443   5.149  27.284   5.533
 3527POPC   PO445444   4.786  27.862   5.354
 3527POPC   GL145445   4.950  27.729   5.742
 3527POPC   GL245446   4.738  27.473   5.817
 3527POPC   C1A45447   4.981  27.754   6.201
 3527POPC   D2A45448   5.150  27.942   6.571
 3527POPC   C3A45449   5.064  27.751   6.992
 3527POPC   C4A45450   5.173  27.876   7.441
 3527POPC   C1B45451   4.863  27.252   6.202
 3527POPC   C2B45452   4.963  27.408   6.622
 3527POPC   C3B45453   4.798  27.288   7.047
 3527POPC   C4B45454   4.716  27.212   7.512
 3528POPC   NC345455  29.601  42.005   5.360
 3528POPC   PO445456  29.329  41.398   5.342
 3528POPC   GL145457  29.146  41.562   5.743
 3528POPC   GL245458  28.957  41.879   5.749
 3528POPC   C1A45459  29.230  41.502   6.187
 3528POPC   D2A45460  29.328  41.335   6.584
 3528POPC   C3A45461  29.306  41.594   6.921
 3528POPC   C4A45462  29.100  41.504   7.279
 3528POPC   C1B45463  29.030  41.970   6.210
 3528POPC   C2B45464  28.945  41.888   6.674
 3528POPC   C3B45465  28.811  41.891   7.122
 3528POPC   C4B45466  28.835  41.778   7.608
 3529POPC   NC345467  12.231  15.558   5.342
 3529POPC   PO445468  11.937  16.160   5.449
 3529POPC   GL145469  12.060  15.974   5.808
 3529POPC   GL245470  11.936  15.658   5.756
 3529POPC   C1A45471  12.125  16.031   6.247
 3529POPC   D2A45472  12.172  15.739   6.632
 3529POPC   C3A45473  12.173  15.960   7.031
 3529POPC   C4A45474  12.355  15.854   7.426
 3529POPC   C1B45475  11.885  15.596   6.188
 3529POPC   C2B45476  11.679  15.848   6.516
 3529POPC   C3B45477  11.560  15.796   6.924
 3529POPC   C4B45478  11.719  15.936   7.282
 3530POPC   NC345479  19.347   6.907   4.968
 3530POPC   PO445480  18.955   6.351   5.327
 3530POPC   GL145481  19.123   6.364   5.719
 3530POPC   GL245482  19.470   6.293   5.706
 3530POPC   C1A45483  19.039   6.603   6.113
 3530POPC   D2A45484  19.046   6.946   6.416
 3530POPC   C3A45485  18.910   6.772   6.803
 3530POPC   C4A45486  18.918   6.852   7.222
 3530POPC   C1B45487  19.416   6.271   6.161
 3530POPC   C2B45488  19.345   6.518   6.549
 3530POPC   C3B45489  19.257   6.431   6.976
 3530POPC   C4B45490  19.261   6.489   7.414
 3531POPC   NC345491  25.933  41.135   5.335
 3531POPC   PO445492  26.220  40.543   5.239
 3531POPC   GL145493  26.068  40.698   5.706
 3531POPC   GL245494  25.809  40.916   5.783
 3531POPC   C1A45495  26.159  40.827   6.171
 3531POPC   D2A45496  26.334  40.786   6.602
 3531POPC   C3A45497  26.072  40.602   6.936
 3531POPC   C4A45498  25.892  40.518   7.329
 3531POPC   C1B45499  25.695  41.042   6.205
 3531POPC   C2B45500  25.765  40.873   6.611
 3531POPC   C3B45501  25.695  40.952   7.032
 3531POPC   C4B45502  25.418  41.228   7.185
 3532POPC   NC345503  17.558  15.669   5.381
 3532POPC   PO445504  17.510  16.361   5.470
 3532POPC   GL145505  17.410  16.021   5.722
 3532POPC   GL245506  17.726  15.877   5.826
 3532POPC   C1A45507  17.324  15.885   6.149
 3532POPC   D2A45508  17.594  15.812   6.519
 3532POPC   C3A45509  17.397  16.018   6.849
 3532POPC   C4A45510  17.509  16.054   7.275
 3532POPC   C1B45511  17.715  16.209   6.174
 3532POPC   C2B45512  17.622  16.403   6.593
 3532POPC   C3B45513  17.805  16.458   7.028
 3532POPC   C4B45514  17.620  16.518   7.454
 3533POPC   NC345515   6.911  40.034   5.365
 3533POPC   PO445516   6.286  39.606   5.419
 3533POPC   GL145517   6.539  39.834   5.715
 3533POPC   GL245518   6.469  40.184   5.658
 3533POPC   C1A45519   6.758  39.818   6.133
 3533POPC   D2A45520   6.565  39.711   6.533
 3533POPC   C3A45521   6.683  39.892   6.912
 3533POPC   C4A45522   6.635  39.832   7.347
 3533POPC   C1B45523   6.438  40.252   6.131
 3533POPC   C2B45524   6.578  40.337   6.586
 3533POPC   C3B45525   6.456  40.339   7.040
 3533POPC   C4B45526   6.597  40.324   7.467
 3534POPC   NC345527  31.189  36.465   5.580
 3534POPC   PO445528  30.745  35.981   5.342
 3534POPC   GL145529  30.562  36.041   5.727
 3534POPC   GL245530  30.696  36.344   5.780
 3534POPC   C1A45531  30.664  35.955   6.153
 3534POPC   D2A45532  30.632  36.191   6.529
 3534POPC   C3A45533  30.600  36.023   6.921
 3534POPC   C4A45534  30.620  36.138   7.346
 3534POPC   C1B45535  30.823  36.521   6.159
 3534POPC   C2B45536  31.016  36.537   6.559
 3534POPC   C3B45537  30.820  36.485   6.936
 3534POPC   C4B45538  30.917  36.546   7.347
 3535POPC   NC345539  34.105  11.347   5.381
 3535POPC   PO445540  33.565  11.024   5.315
 3535POPC   GL145541  33.721  11.195   5.712
 3535POPC   GL245542  34.047  11.006   5.780
 3535POPC   C1A45543  33.798  11.337   6.143
 3535POPC   D2A45544  33.975  11.478   6.534
 3535POPC   C3A45545  33.798  11.329   6.899
 3535POPC   C4A45546  33.956  11.385   7.301
 3535POPC   C1B45547  34.097  10.907   6.215
 3535POPC   C2B45548  34.166  11.015   6.637
 3535POPC   C3B45549  34.088  10.931   7.067
 3535POPC   C4B45550  34.181  10.961   7.491
 3536POPC   NC345551  44.997  10.089   5.393
 3536POPC   PO445552   0.205  10.785   5.355
 3536POPC   GL145553   0.361  10.575   5.743
 3536POPC   GL245554   0.392  10.212   5.696
 3536POPC   C1A45555   0.539  10.418   6.186
 3536POPC   D2A45556   0.710  10.615   6.585
 3536POPC   C3A45557   0.612  10.412   6.993
 3536POPC   C4A45558   0.508  10.603   7.389
 3536POPC   C1B45559   0.064  10.294   6.032
 3536POPC   C2B45560   0.133  10.234   6.450
 3536POPC   C3B45561   0.028  10.322   6.848
 3536POPC   C4B45562   0.140  10.301   7.235
 3537POPC   NC345563   7.012  33.071   5.618
 3537POPC   PO445564   7.639  32.821   5.650
 3537POPC   GL145565   7.442  33.093   5.912
 3537POPC   GL245566   7.189  32.794   5.987
 3537POPC   C1A45567   7.608  33.301   6.289
 3537POPC   D2A45568   7.610  33.509   6.717
 3537POPC   C3A45569   7.504  33.286   7.114
 3537POPC   C4A45570   7.389  33.070   7.486
 3537POPC   C1B45571   7.427  32.811   6.323
 3537POPC   C2B45572   7.386  32.980   6.722
 3537POPC   C3B45573   7.392  32.762   7.089
 3537POPC   C4B45574   7.654  32.641   7.402
 3538POPC   NC345575   2.497  33.317   5.286
 3538POPC   PO445576   2.939  33.898   5.376
 3538POPC   GL145577   2.709  33.884   5.777
 3538POPC   GL245578   2.792  34.215   5.892
 3538POPC   C1A45579   2.495  33.634   6.103
 3538POPC   D2A45580   2.647  33.376   6.457
 3538POPC   C3A45581   2.532  33.408   6.910
 3538POPC   C4A45582   2.782  33.552   7.277
 3538POPC   C1B45583   2.750  34.036   6.283
 3538POPC   C2B45584   2.623  34.191   6.650
 3538POPC   C3B45585   2.628  33.961   7.006
 3538POPC   C4B45586   2.692  34.068   7.409
 3539POPC   NC345587   9.290  32.091   5.426
 3539POPC   PO445588   8.819  32.595   5.350
 3539POPC   GL145589   8.870  32.337   5.698
 3539POPC   GL245590   9.183  32.467   5.785
 3539POPC   C1A45591   8.877  32.278   6.154
 3539POPC   D2A45592   8.975  32.452   6.558
 3539POPC   C3A45593   8.926  32.093   6.864
 3539POPC   C4A45594   8.886  32.119   7.318
 3539POPC   C1B45595   9.388  32.324   6.172
 3539POPC   C2B45596   9.408  32.186   6.620
 3539POPC   C3B45597   9.299  32.351   7.063
 3539POPC   C4B45598   9.318  32.304   7.539
 3540POPC   NC345599   7.945  42.451   5.474
 3540POPC   PO445600   8.235  41.848   5.445
 3540POPC   GL145601   7.998  42.025   5.753
 3540POPC   GL245602   8.311  42.245   5.797
 3540POPC   C1A45603   7.896  42.283   6.129
 3540POPC   D2A45604   7.755  42.456   6.535
 3540POPC   C3A45605   8.010  42.317   6.848
 3540POPC   C4A45606   7.970  42.202   7.258
 3540POPC   C1B45607   8.556  42.235   6.187
 3540POPC   C2B45608   8.593  42.410   6.623
 3540POPC   C3B45609   8.494  42.226   7.027
 3540POPC   C4B45610   8.443  42.290   7.467
 3541POPC   NC345611  16.006  13.810   5.375
 3541POPC   PO445612  15.573  13.252   5.388
 3541POPC   GL145613  15.781  13.473   5.744
 3541POPC   GL245614  15.764  13.852   5.840
 3541POPC   C1A45615  15.829  13.490   6.211
 3541POPC   D2A45616  16.037  13.306   6.561
 3541POPC   C3A45617  16.023  13.423   6.992
 3541POPC   C4A45618  16.081  13.363   7.440
 3541POPC   C1B45619  16.003  13.975   6.214
 3541POPC   C2B45620  16.015  13.837   6.649
 3541POPC   C3B45621  15.862  13.931   7.073
 3541POPC   C4B45622  16.041  13.860   7.482
 3542POPC   NC345623  22.762  42.807   5.442
 3542POPC   PO445624  22.751  42.186   5.200
 3542POPC   GL145625  22.807  42.203   5.684
 3542POPC   GL245626  22.622  42.465   5.783
 3542POPC   C1A45627  23.051  42.201   6.097
 3542POPC   D2A45628  22.960  42.335   6.522
 3542POPC   C3A45629  23.249  42.375   6.845
 3542POPC   C4A45630  23.088  42.290   7.260
 3542POPC   C1B45631  22.759  42.655   6.155
 3542POPC   C2B45632  22.620  42.741   6.568
 3542POPC   C3B45633  22.731  42.628   6.989
 3542POPC   C4B45634  22.612  42.386   7.341
 3543POPC   NC345635  29.687  11.489   5.300
 3543POPC   PO445636  30.263  11.166   5.466
 3543POPC   GL145637  30.034  11.510   5.708
 3543POPC   GL245638  29.645  11.569   5.797
 3543POPC   C1A45639  30.052  11.522   6.142
 3543POPC   D2A45640  29.872  11.342   6.515
 3543POPC   C3A45641  30.124  11.220   6.831
 3543POPC   C4A45642  30.225  11.431   7.210
 3543POPC   C1B45643  29.563  11.264   6.124
 3543POPC   C2B45644  29.368  11.234   6.538
 3543POPC   C3B45645  29.595  11.213   6.943
 3543POPC   C4B45646  29.521  11.085   7.376
 3544POPC   NC345647  19.561  33.241   5.402
 3544POPC   PO445648  19.793  32.650   5.465
 3544POPC   GL145649  19.681  32.806   5.824
 3544POPC   GL245650  19.833  33.133   5.826
 3544POPC   C1A45651  19.552  32.917   6.215
 3544POPC   D2A45652  19.788  33.004   6.607
 3544POPC   C3A45653  19.578  33.028   6.985
 3544POPC   C4A45654  19.727  33.099   7.409
 3544POPC   C1B45655  19.860  33.338   6.231
 3544POPC   C2B45656  19.821  33.568   6.650
 3544POPC   C3B45657  19.799  33.510   7.106
 3544POPC   C4B45658  19.709  33.587   7.576
 3545POPC   NC345659  42.654  26.818   5.115
 3545POPC   PO445660  42.223  26.511   5.512
 3545POPC   GL145661  42.259  26.753   5.858
 3545POPC   GL245662  42.562  26.900   5.807
 3545POPC   C1A45663  42.186  26.612   6.274
 3545POPC   D2A45664  42.414  26.705   6.672
 3545POPC   C3A45665  42.382  26.479   7.055
 3545POPC   C4A45666  42.657  26.602   7.389
 3545POPC   C1B45667  42.469  27.039   6.274
 3545POPC   C2B45668  42.457  27.200   6.726
 3545POPC   C3B45669  42.404  26.984   7.151
 3545POPC   C4B45670  42.564  27.110   7.546
 3546POPC   NC345671  39.489  36.927   5.455
 3546POPC   PO445672  38.874  36.787   5.600
 3546POPC   GL145673  39.223  36.686   5.836
 3546POPC   GL245674  39.359  37.033   5.929
 3546POPC   C1A45675  39.131  36.671   6.261
 3546POPC   D2A45676  38.832  36.918   6.478
 3546POPC   C3A45677  38.788  36.722   6.871
 3546POPC   C4A45678  38.815  36.822   7.283
 3546POPC   C1B45679  39.291  37.158   6.367
 3546POPC   C2B45680  39.257  36.926   6.767
 3546POPC   C3B45681  39.388  36.907   7.186
 3546POPC   C4B45682  39.702  36.848   7.530
 3547POPC   NC345683  20.437  21.726   5.242
 3547POPC   PO445684  20.886  21.258   5.365
 3547POPC   GL145685  20.547  21.344   5.677
 3547POPC   GL245686  20.306  21.042   5.742
 3547POPC   C1A45687  20.515  21.491   6.117
 3547POPC   D2A45688  20.652  21.323   6.518
 3547POPC   C3A45689  20.468  21.421   6.920
 3547POPC   C4A45690  20.828  21.395   7.216
 3547POPC   C1B45691  20.430  20.995   6.161
 3547POPC   C2B45692  20.214  21.076   6.556
 3547POPC   C3B45693  20.261  20.944   6.960
 3547POPC   C4B45694  20.409  21.085   7.336
 3548POPC   NC345695  37.299   6.611   5.369
 3548POPC   PO445696  36.632   6.448   5.290
 3548POPC   GL145697  36.866   6.479   5.746
 3548POPC   GL245698  36.757   6.776   6.053
 3548POPC   C1A45699  37.119   6.462   6.131
 3548POPC   D2A45700  36.960   6.622   6.532
 3548POPC   C3A45701  37.161   6.849   6.862
 3548POPC   C4A45702  37.165   6.637   7.272
 3548POPC   C1B45703  36.598   6.380   6.228
 3548POPC   C2B45704  36.660   6.182   6.638
 3548POPC   C3B45705  36.502   6.217   7.015
 3548POPC   C4B45706  36.614   6.556   7.259
 3549POPC   NC345707  24.355   2.336   5.357
 3549POPC   PO445708  24.570   1.732   5.129
 3549POPC   GL145709  24.568   1.879   5.589
 3549POPC   GL245710  24.816   2.120   5.691
 3549POPC   C1A45711  24.481   1.953   6.067
 3549POPC   D2A45712  24.253   2.048   6.482
 3549POPC   C3A45713  24.164   1.922   6.920
 3549POPC   C4A45714  24.328   2.202   7.251
 3549POPC   C1B45715  24.891   2.262   6.120
 3549POPC   C2B45716  24.748   2.188   6.563
 3549POPC   C3B45717  24.826   2.182   7.031
 3549POPC   C4B45718  24.768   2.087   7.509
 3550POPC   NC345719  12.572  42.253   5.635
 3550POPC   PO445720  12.667  41.603   5.366
 3550POPC   GL145721  12.946  41.578   5.738
 3550POPC   GL245722  12.781  41.834   5.837
 3550POPC   C1A45723  12.973  41.547   6.212
 3550POPC   D2A45724  13.127  41.715   6.622
 3550POPC   C3A45725  12.919  41.611   7.014
 3550POPC   C4A45726  12.891  41.476   7.446
 3550POPC   C1B45727  12.540  41.803   6.185
 3550POPC   C2B45728  12.592  41.678   6.601
 3550POPC   C3B45729  12.489  41.894   6.970
 3550POPC   C4B45730  12.543  41.856   7.412
 3551POPC   NC345731  39.053  43.309   5.105
 3551POPC   PO445732  39.282  42.722   5.469
 3551POPC   GL145733  39.237  42.946   5.877
 3551POPC   GL245734  38.927  42.913   5.873
 3551POPC   C1A45735  39.467  43.087   6.280
 3551POPC   D2A45736  39.477  42.974   6.741
 3551POPC   C3A45737  39.213  43.119   7.068
 3551POPC   C4A45738  39.314  43.276   7.492
 3551POPC   C1B45739  38.896  42.804   6.271
 3551POPC   C2B45740  38.999  42.840   6.678
 3551POPC   C3B45741  38.772  42.836   7.055
 3551POPC   C4B45742  38.850  43.076   7.428
 3552POPC   NC345743  12.909  24.078   5.226
 3552POPC   PO445744  12.945  23.486   5.375
 3552POPC   GL145745  12.939  23.701   5.787
 3552POPC   GL245746  12.731  23.989   5.769
 3552POPC   C1A45747  13.049  23.813   6.252
 3552POPC   D2A45748  13.020  23.952   6.717
 3552POPC   C3A45749  13.075  23.576   6.996
 3552POPC   C4A45750  12.789  23.231   7.093
 3552POPC   C1B45751  12.515  23.851   6.109
 3552POPC   C2B45752  12.539  23.929   6.532
 3552POPC   C3B45753  12.554  23.665   6.881
 3552POPC   C4B45754  12.551  23.732   7.294
 3553POPC   NC345755  23.547  36.576   5.051
 3553POPC   PO445756  23.482  36.008   5.340
 3553POPC   GL145757  23.664  36.054   5.734
 3553POPC   GL245758  23.366  35.939   5.855
 3553POPC   C1A45759  23.822  35.941   6.154
 3553POPC   D2A45760  24.005  36.179   6.467
 3553POPC   C3A45761  23.719  36.259   6.791
 3553POPC   C4A45762  23.716  36.141   7.217
 3553POPC   C1B45763  23.376  36.248   6.188
 3553POPC   C2B45764  23.191  36.353   6.588
 3553POPC   C3B45765  23.255  36.340   7.030
 3553POPC   C4B45766  23.288  36.493   7.438
 3554POPC   NC345767   5.274   3.328   5.614
 3554POPC   PO445768   4.720   3.779   5.472
 3554POPC   GL145769   4.891   3.602   5.868
 3554POPC   GL245770   5.207   3.772   5.936
 3554POPC   C1A45771   5.015   3.334   6.257
 3554POPC   D2A45772   5.221   3.323   6.687
 3554POPC   C3A45773   4.929   3.201   7.044
 3554POPC   C4A45774   4.746   3.511   7.352
 3554POPC   C1B45775   5.182   3.794   6.408
 3554POPC   C2B45776   5.489   3.804   6.762
 3554POPC   C3B45777   5.469   3.764   7.195
 3554POPC   C4B45778   5.250   3.429   7.348
 3555POPC   NC345779  44.914   7.615   5.436
 3555POPC   PO445780  44.345   7.274   5.392
 3555POPC   GL145781  44.635   7.269   5.743
 3555POPC   GL245782  44.567   7.596   5.810
 3555POPC   C1A45783  44.816   7.309   6.179
 3555POPC   D2A45784  44.986   7.359   6.612
 3555POPC   C3A45785  44.718   7.201   6.995
 3555POPC   C4A45786  44.418   7.219   7.378
 3555POPC   C1B45787  44.703   7.833   6.141
 3555POPC   C2B45788  44.606   7.855   6.549
 3555POPC   C3B45789  44.780   7.737   6.900
 3555POPC   C4B45790  44.722   7.619   7.302
 3556POPC   NC345791   7.238  13.970   5.444
 3556POPC   PO445792   7.751  14.420   5.373
 3556POPC   GL145793   7.644  14.616   5.772
 3556POPC   GL245794   7.424  14.341   5.815
 3556POPC   C1A45795   7.513  14.803   6.206
 3556POPC   D2A45796   7.714  14.704   6.616
 3556POPC   C3A45797   7.479  14.590   6.995
 3556POPC   C4A45798   7.104  14.406   7.198
 3556POPC   C1B45799   7.653  14.328   6.213
 3556POPC   C2B45800   7.506  14.221   6.617
 3556POPC   C3B45801   7.405  14.072   7.002
 3556POPC   C4B45802   7.556  14.238   7.409
 3557POPC   NC345803  21.664   5.803   5.312
 3557POPC   PO445804  21.102   5.961   5.599
 3557POPC   GL145805  21.417   5.887   5.918
 3557POPC   GL245806  21.672   5.617   5.809
 3557POPC   C1A45807  21.345   5.972   6.385
 3557POPC   D2A45808  21.488   6.164   6.787
 3557POPC   C3A45809  21.264   6.035   7.163
 3557POPC   C4A45810  21.400   6.074   7.605
 3557POPC   C1B45811  21.642   5.575   6.277
 3557POPC   C2B45812  21.641   5.628   6.740
 3557POPC   C3B45813  21.684   5.761   7.184
 3557POPC   C4B45814  21.607   5.507   7.595
 3558POPC   NC345815   3.399  38.899   5.403
 3558POPC   PO445816   3.732  39.426   5.493
 3558POPC   GL145817   3.400  39.326   5.776
 3558POPC   GL245818   3.480  39.007   5.913
 3558POPC   C1A45819   3.246  39.445   6.187
 3558POPC   D2A45820   3.444  39.568   6.587
 3558POPC   C3A45821   3.522  39.257   6.908
 3558POPC   C4A45822   3.416  39.211   7.325
 3558POPC   C1B45823   3.591  39.045   6.336
 3558POPC   C2B45824   3.905  39.267   6.559
 3558POPC   C3B45825   4.034  39.175   6.963
 3558POPC   C4B45826   3.893  39.000   7.336
 3559POPC   NC345827  41.081  37.099   5.367
 3559POPC   PO445828  40.669  36.574   5.534
 3559POPC   GL145829  40.622  36.750   5.918
 3559POPC   GL245830  40.704  37.073   5.796
 3559POPC   C1A45831  40.602  36.861   6.353
 3559POPC   D2A45832  40.759  36.609   6.700
 3559POPC   C3A45833  40.869  36.754   7.079
 3559POPC   C4A45834  40.663  37.106   7.234
 3559POPC   C1B45835  40.994  37.125   6.138
 3559POPC   C2B45836  41.012  37.073   6.594
 3559POPC   C3B45837  41.248  37.144   6.959
 3559POPC   C4B45838  41.160  37.109   7.315
 3560POPC   NC345839  41.390  33.055   5.345
 3560POPC   PO445840  41.178  32.582   5.749
 3560POPC   GL145841  41.540  32.841   5.906
 3560POPC   GL245842  41.680  33.155   5.764
 3560POPC   C1A45843  41.839  32.834   6.279
 3560POPC   D2A45844  41.913  33.039   6.644
 3560POPC   C3A45845  41.544  33.031   6.844
 3560POPC   C4A45846  41.481  32.883   7.220
 3560POPC   C1B45847  41.807  33.340   6.169
 3560POPC   C2B45848  41.627  33.476   6.534
 3560POPC   C3B45849  41.762  33.483   6.936
 3560POPC   C4B45850  41.389  33.405   7.178
 3561POPC   NC345851  20.742   1.802   5.215
 3561POPC   PO445852  20.215   2.201   5.389
 3561POPC   GL145853  20.445   1.880   5.690
 3561POPC   GL245854  20.830   1.814   5.720
 3561POPC   C1A45855  20.492   1.979   6.139
 3561POPC   D2A45856  20.713   2.209   6.449
 3561POPC   C3A45857  20.606   2.134   6.870
 3561POPC   C4A45858  20.510   1.946   7.241
 3561POPC   C1B45859  20.946   1.689   6.172
 3561POPC   C2B45860  20.777   1.721   6.613
 3561POPC   C3B45861  20.927   1.689   7.062
 3561POPC   C4B45862  20.881   1.731   7.537
 3562POPC   NC345863   6.958  41.785   5.356
 3562POPC   PO445864   7.560  42.173   5.434
 3562POPC   GL145865   7.397  42.240   5.797
 3562POPC   GL245866   7.081  42.179   5.669
 3562POPC   C1A45867   7.366  42.351   6.224
 3562POPC   D2A45868   7.214  42.440   6.644
 3562POPC   C3A45869   7.502  42.392   7.000
 3562POPC   C4A45870   7.559  42.484   7.427
 3562POPC   C1B45871   7.042  41.978   6.078
 3562POPC   C2B45872   7.243  41.923   6.502
 3562POPC   C3B45873   7.106  42.042   6.928
 3562POPC   C4B45874   7.157  42.194   7.351
 3563POPC   NC345875  25.294  21.250   5.423
 3563POPC   PO445876  25.108  21.935   5.466
 3563POPC   GL145877  25.159  21.646   5.841
 3563POPC   GL245878  25.141  21.278   5.906
 3563POPC   C1A45879  25.299  21.669   6.286
 3563POPC   D2A45880  25.545  21.746   6.686
 3563POPC   C3A45881  25.368  21.624   7.096
 3563POPC   C4A45882  25.360  21.384   7.516
 3563POPC   C1B45883  24.933  21.299   6.279
 3563POPC   C2B45884  25.100  21.397   6.699
 3563POPC   C3B45885  24.945  21.280   7.105
 3563POPC   C4B45886  24.880  20.994   7.449
 3564POPC   NC345887  29.472   6.081   5.404
 3564POPC   PO445888  28.974   5.658   5.365
 3564POPC   GL145889  29.104   5.867   5.708
 3564POPC   GL245890  29.392   5.691   5.769
 3564POPC   C1A45891  29.012   6.144   6.036
 3564POPC   D2A45892  28.824   6.119   6.446
 3564POPC   C3A45893  29.011   6.307   6.804
 3564POPC   C4A45894  28.936   6.265   7.239
 3564POPC   C1B45895  29.187   5.721   6.217
 3564POPC   C2B45896  29.279   5.881   6.641
 3564POPC   C3B45897  29.202   5.847   7.085
 3564POPC   C4B45898  29.284   5.551   7.422
 3565POPC   NC345899  38.727   4.538   5.413
 3565POPC   PO445900  38.210   4.081   5.285
 3565POPC   GL145901  38.428   4.164   5.688
 3565POPC   GL245902  38.332   4.502   5.815
 3565POPC   C1A45903  38.563   4.206   6.130
 3565POPC   D2A45904  38.395   4.413   6.499
 3565POPC   C3A45905  38.454   4.188   6.888
 3565POPC   C4A45906  38.780   4.202   7.176
 3565POPC   C1B45907  38.191   4.772   6.166
 3565POPC   C2B45908  38.017   4.770   6.578
 3565POPC   C3B45909  38.093   4.562   6.909
 3565POPC   C4B45910  38.290   4.478   7.282
 3566POPC   NC345911   1.176   7.741   5.620
 3566POPC   PO445912   1.159   8.381   5.521
 3566POPC   GL145913   1.329   8.158   5.887
 3566POPC   GL245914   1.637   7.993   5.756
 3566POPC   C1A45915   1.201   8.088   6.346
 3566POPC   D2A45916   0.827   8.044   6.653
 3566POPC   C3A45917   0.957   8.108   7.069
 3566POPC   C4A45918   1.388   8.141   6.996
 3566POPC   C1B45919   1.638   7.772   6.124
 3566POPC   C2B45920   1.422   7.625   6.481
 3566POPC   C3B45921   1.456   7.630   6.916
 3566POPC   C4B45922   1.662   7.820   7.262
 3567POPC   NC345923  42.661  23.195   5.338
 3567POPC   PO445924  42.001  22.883   5.380
 3567POPC   GL145925  42.313  22.987   5.682
 3567POPC   GL245926  42.572  22.749   5.717
 3567POPC   C1A45927  42.404  23.090   6.115
 3567POPC   D2A45928  42.215  23.181   6.513
 3567POPC   C3A45929  42.429  23.008   6.830
 3567POPC   C4A45930  42.537  23.129   7.202
 3567POPC   C1B45931  42.361  22.596   6.052
 3567POPC   C2B45932  42.393  22.637   6.461
 3567POPC   C3B45933  42.374  22.490   6.852
 3567POPC   C4B45934  42.596  22.620   7.159
 3568POPC   NC345935   7.748  33.256   5.498
 3568POPC   PO445936   8.114  32.715   5.253
 3568POPC   GL145937   8.285  33.040   5.598
 3568POPC   GL245938   8.043  33.084   5.866
 3568POPC   C1A45939   8.509  33.014   6.049
 3568POPC   D2A45940   8.345  33.059   6.484
 3568POPC   C3A45941   8.475  32.963   6.897
 3568POPC   C4A45942   8.325  33.204   7.244
 3568POPC   C1B45943   8.017  32.797   6.187
 3568POPC   C2B45944   7.857  32.941   6.567
 3568POPC   C3B45945   7.885  32.942   7.004
 3568POPC   C4B45946   8.152  32.723   7.287
 3569POPC   NC345947  40.136  26.110   5.367
 3569POPC   PO445948  39.589  25.769   5.108
 3569POPC   GL145949  39.838  25.731   5.569
 3569POPC   GL245950  40.199  25.691   5.667
 3569POPC   C1A45951  39.928  25.943   6.036
 3569POPC   D2A45952  40.025  26.220   6.440
 3569POPC   C3A45953  39.890  26.086   6.876
 3569POPC   C4A45954  40.144  26.139   7.253
 3569POPC   C1B45955  40.365  25.679   6.089
 3569POPC   C2B45956  40.151  25.724   6.495
 3569POPC   C3B45957  40.330  25.841   6.879
 3569POPC   C4B45958  40.303  25.634   7.279
 3570POPC   NC345959  11.266   1.895   5.326
 3570POPC   PO445960  10.820   2.339   5.672
 3570POPC   GL145961  11.167   2.061   5.828
 3570POPC   GL245962  11.421   1.737   5.787
 3570POPC   C1A45963  11.182   2.078   6.255
 3570POPC   D2A45964  11.175   1.999   6.651
 3570POPC   C3A45965  10.927   2.192   6.892
 3570POPC   C4A45966  11.171   2.164   7.209
 3570POPC   C1B45967  11.646   2.064   6.043
 3570POPC   C2B45968  11.634   2.151   6.500
 3570POPC   C3B45969  11.627   2.025   6.934
 3570POPC   C4B45970  11.746   2.255   7.257
 3571POPC   NC345971  11.181  40.219   5.501
 3571POPC   PO445972  11.066  40.898   5.397
 3571POPC   GL145973  11.222  40.786   5.803
 3571POPC   GL245974  11.032  40.515   5.905
 3571POPC   C1A45975  11.390  40.827   6.232
 3571POPC   D2A45976  11.221  40.804   6.654
 3571POPC   C3A45977  11.494  40.975   6.984
 3571POPC   C4A45978  11.596  40.993   7.413
 3571POPC   C1B45979  11.099  40.370   6.338
 3571POPC   C2B45980  11.137  40.282   6.790
 3571POPC   C3B45981  11.198  40.571   7.129
 3571POPC   C4B45982  10.899  40.889   7.053
 3572POPC   NC345983  32.040  40.150   5.498
 3572POPC   PO445984  32.651  39.868   5.205
 3572POPC   GL145985  32.460  39.870   5.677
 3572POPC   GL245986  32.358  40.175   5.897
 3572POPC   C1A45987  32.175  39.731   6.042
 3572POPC   D2A45988  31.995  39.827   6.453
 3572POPC   C3A45989  32.148  40.066   6.826
 3572POPC   C4A45990  32.159  39.859   7.244
 3572POPC   C1B45991  32.334  40.244   6.356
 3572POPC   C2B45992  32.571  40.367   6.745
 3572POPC   C3B45993  32.573  40.185   7.156
 3572POPC   C4B45994  32.317  40.349   7.502
 3573POPC   NC345995  29.808  25.236   5.466
 3573POPC   PO445996  30.515  25.212   5.346
 3573POPC   GL145997  30.205  25.103   5.728
 3573POPC   GL245998  30.099  25.447   5.923
 3573POPC   C1A45999  29.998  25.022   6.149
 3573POPC   D2A46000  30.036  25.368   6.448
 3573POPC   C3A46001  29.759  25.476   6.803
 3573POPC   C4A46002  29.837  25.434   7.214
 3573POPC   C1B46003  29.638  25.402   6.139
 3573POPC   C2B46004  29.521  25.114   6.508
 3573POPC   C3B46005  29.549  25.044   6.990
 3573POPC   C4B46006  29.607  25.021   7.468
 3574POPC   NC346007  42.091  21.758   5.406
 3574POPC   PO446008  42.456  21.174   5.447
 3574POPC   GL146009  42.328  21.377   5.799
 3574POPC   GL246010  41.989  21.226   5.834
 3574POPC   C1A46011  42.535  21.571   6.177
 3574POPC   D2A46012  42.355  21.632   6.574
 3574POPC   C3A46013  42.527  21.496   6.978
 3574POPC   C4A46014  42.566  21.450   7.458
 3574POPC   C1B46015  42.168  21.212   6.271
 3574POPC   C2B46016  42.316  21.125   6.690
 3574POPC   C3B46017  42.097  21.204   7.063
 3574POPC   C4B46018  42.091  21.274   7.480
 3575POPC   NC346019  23.367   7.983   5.321
 3575POPC   PO446020  23.887   8.361   5.320
 3575POPC   GL146021  23.828   8.334   5.730
 3575POPC   GL246022  23.501   8.268   5.777
 3575POPC   C1A46023  24.105   8.435   6.088
 3575POPC   D2A46024  24.364   8.466   6.463
 3575POPC   C3A46025  24.177   8.461   6.852
 3575POPC   C4A46026  24.033   8.252   7.239
 3575POPC   C1B46027  23.702   8.136   6.175
 3575POPC   C2B46028  23.912   8.103   6.547
 3575POPC   C3B46029  23.737   7.965   6.936
 3575POPC   C4B46030  23.557   8.050   7.315
 3576POPC   NC346031  36.538  17.140   5.484
 3576POPC   PO446032  37.083  17.519   5.405
 3576POPC   GL146033  36.951  17.265   5.807
 3576POPC   GL246034  36.681  17.441   5.992
 3576POPC   C1A46035  37.063  17.233   6.269
 3576POPC   D2A46036  36.922  17.428   6.671
 3576POPC   C3A46037  36.943  17.247   7.091
 3576POPC   C4A46038  36.870  17.288   7.586
 3576POPC   C1B46039  36.527  17.645   6.384
 3576POPC   C2B46040  36.674  17.877   6.739
 3576POPC   C3B46041  36.838  17.785   7.166
 3576POPC   C4B46042  36.689  17.747   7.614
 3577POPC   NC346043  28.797  30.747   5.241
 3577POPC   PO446044  28.981  31.049   5.732
 3577POPC   GL146045  29.238  30.739   5.901
 3577POPC   GL246046  29.464  30.991   5.962
 3577POPC   C1A46047  29.127  30.484   6.274
 3577POPC   D2A46048  28.997  30.620   6.710
 3577POPC   C3A46049  29.192  30.419   7.096
 3577POPC   C4A46050  29.209  30.142   7.480
 3577POPC   C1B46051  29.171  30.992   6.344
 3577POPC   C2B46052  29.146  31.113   6.747
 3577POPC   C3B46053  29.118  30.930   7.159
 3577POPC   C4B46054  29.088  31.159   7.556
 3578POPC   NC346055  26.513  20.704   5.446
 3578POPC   PO446056  27.160  20.530   5.429
 3578POPC   GL146057  26.989  20.518   5.817
 3578POPC   GL246058  26.717  20.275   5.786
 3578POPC   C1A46059  26.833  20.697   6.189
 3578POPC   D2A46060  26.941  20.811   6.609
 3578POPC   C3A46061  26.606  20.725   6.918
 3578POPC   C4A46062  26.840  20.633   7.258
 3578POPC   C1B46063  26.893  20.199   6.212
 3578POPC   C2B46064  26.696  20.321   6.599
 3578POPC   C3B46065  26.717  20.218   7.027
 3578POPC   C4B46066  27.000  19.944   7.201
 3579POPC   NC346067  26.087  27.721   5.306
 3579POPC   PO446068  25.731  27.133   5.441
 3579POPC   GL146069  25.957  27.435   5.744
 3579POPC   GL246070  25.935  27.818   5.768
 3579POPC   C1A46071  26.063  27.454   6.181
 3579POPC   D2A46072  25.920  27.318   6.584
 3579POPC   C3A46073  26.057  27.531   6.957
 3579POPC   C4A46074  25.882  27.396   7.334
 3579POPC   C1B46075  25.760  27.864   6.158
 3579POPC   C2B46076  25.995  27.850   6.538
 3579POPC   C3B46077  25.965  28.066   6.896
 3579POPC   C4B46078  25.979  27.903   7.287
 3580POPC   NC346079  22.555  11.186   5.469
 3580POPC   PO446080  21.931  11.457   5.531
 3580POPC   GL146081  22.049  11.184   5.877
 3580POPC   GL246082  22.374  11.034   5.922
 3580POPC   C1A46083  21.981  11.043   6.296
 3580POPC   D2A46084  22.152  11.195   6.679
 3580POPC   C3A46085  22.008  11.067   7.088
 3580POPC   C4A46086  21.992  11.326   7.451
 3580POPC   C1B46087  22.473  11.324   6.251
 3580POPC   C2B46088  22.586  11.501   6.656
 3580POPC   C3B46089  22.508  11.272   7.049
 3580POPC   C4B46090  22.480  11.508   7.398
 3581POPC   NC346091  14.187   1.851   5.204
 3581POPC   PO446092  14.594   2.369   5.454
 3581POPC   GL146093  14.467   2.045   5.856
 3581POPC   GL246094  14.303   1.762   5.688
 3581POPC   C1A46095  14.413   2.077   6.354
 3581POPC   D2A46096  14.479   2.417   6.687
 3581POPC   C3A46097  14.456   2.511   7.144
 3581POPC   C4A46098  14.388   2.506   7.623
 3581POPC   C1B46099  14.143   1.669   6.098
 3581POPC   C2B46100  14.052   1.746   6.538
 3581POPC   C3B46101  14.167   2.015   6.892
 3581POPC   C4B46102  14.099   1.810   7.283
 3582POPC   NC346103  33.943  28.041   5.441
 3582POPC   PO446104  33.978  27.347   5.405
 3582POPC   GL146105  33.824  27.622   5.707
 3582POPC   GL246106  34.113  27.617   5.894
 3582POPC   C1A46107  33.661  27.601   6.110
 3582POPC   D2A46108  33.532  27.485   6.540
 3582POPC   C3A46109  33.599  27.628   6.955
 3582POPC   C4A46110  33.428  27.410   7.298
 3582POPC   C1B46111  34.114  27.481   6.340
 3582POPC   C2B46112  34.065  27.521   6.794
 3582POPC   C3B46113  33.997  27.506   7.242
 3582POPC   C4B46114  33.829  27.344   7.605
 3583POPC   NC346115  20.286   2.643   5.505
 3583POPC   PO446116  20.911   2.926   5.368
 3583POPC   GL146117  20.707   2.856   5.755
 3583POPC   GL246118  20.454   3.062   5.813
 3583POPC   C1A46119  20.561   2.578   6.088
 3583POPC   D2A46120  20.445   2.650   6.486
 3583POPC   C3A46121  20.700   2.638   6.801
 3583POPC   C4A46122  20.552   2.555   7.199
 3583POPC   C1B46123  20.262   3.036   6.219
 3583POPC   C2B46124  20.278   3.079   6.674
 3583POPC   C3B46125  20.192   2.897   7.075
 3583POPC   C4B46126  20.179   2.769   7.515
 3584POPC   NC346127  44.454   9.117   5.480
 3584POPC   PO446128   0.001   8.733   5.518
 3584POPC   GL146129  44.795   8.971   5.853
 3584POPC   GL246130  44.456   8.802   5.881
 3584POPC   C1A46131  44.748   8.844   6.305
 3584POPC   D2A46132   0.006   8.724   6.641
 3584POPC   C3A46133  44.888   8.931   6.974
 3584POPC   C4A46134  44.785   9.084   7.327
 3584POPC   C1B46135  44.341   9.118   6.170
 3584POPC   C2B46136  44.373   9.203   6.595
 3584POPC   C3B46137  44.360   9.077   7.022
 3584POPC   C4B46138  44.155   8.913   7.402
 3585POPC   NC346139  40.305  15.964   5.379
 3585POPC   PO446140  39.751  15.792   5.647
 3585POPC   GL146141  40.047  15.981   5.870
 3585POPC   GL246142  40.305  15.733   5.828
 3585POPC   C1A46143  40.042  15.880   6.304
 3585POPC   D2A46144  39.769  15.623   6.576
 3585POPC   C3A46145  39.841  15.644   7.008
 3585POPC   C4A46146  39.973  16.001   7.250
 3585POPC   C1B46147  40.459  15.545   6.187
 3585POPC   C2B46148  40.289  15.544   6.612
 3585POPC   C3B46149  40.359  15.685   7.032
 3585POPC   C4B46150  40.231  15.580   7.444
 3586POPC   NC346151  16.811  10.638   5.197
 3586POPC   PO446152  16.409  10.230   5.608
 3586POPC   GL146153  16.692  10.576   5.711
 3586POPC   GL246154  16.419  10.698   5.882
 3586POPC   C1A46155  16.871  10.843   6.081
 3586POPC   D2A46156  16.998  10.853   6.535
 3586POPC   C3A46157  16.817  10.552   6.833
 3586POPC   C4A46158  16.701  10.616   7.262
 3586POPC   C1B46159  16.394  10.353   6.233
 3586POPC   C2B46160  16.478  10.167   6.667
 3586POPC   C3B46161  16.590  10.131   7.109
 3586POPC   C4B46162  16.350  10.333   7.493
 3587POPC   NC346163  17.301   9.508   5.205
 3587POPC   PO446164  17.320  10.117   5.507
 3587POPC   GL146165  17.562   9.846   5.807
 3587POPC   GL246166  17.340   9.558   5.793
 3587POPC   C1A46167  17.580   9.629   6.240
 3587POPC   D2A46168  17.451   9.473   6.632
 3587POPC   C3A46169  17.638   9.687   6.967
 3587POPC   C4A46170  17.705   9.720   7.410
 3587POPC   C1B46171  17.163   9.887   6.132
 3587POPC   C2B46172  17.078   9.854   6.583
 3587POPC   C3B46173  17.182   9.920   7.022
 3587POPC   C4B46174  17.106  10.317   7.184
 3588POPC   NC346175  34.357  22.448   5.480
 3588POPC   PO446176  34.471  21.776   5.505
 3588POPC   GL146177  34.632  21.910   5.886
 3588POPC   GL246178  34.578  22.241   5.895
 3588POPC   C1A46179  34.410  21.927   6.278
 3588POPC   D2A46180  34.415  21.633   6.622
 3588POPC   C3A46181  34.497  21.814   7.029
 3588POPC   C4A46182  34.898  21.828   7.266
 3588POPC   C1B46183  34.830  22.248   6.269
 3588POPC   C2B46184  34.662  22.159   6.679
 3588POPC   C3B46185  34.717  22.279   7.108
 3588POPC   C4B46186  34.497  22.211   7.510
 3589POPC   NC346187  19.999  34.300   5.569
 3589POPC   PO446188  19.906  33.600   5.376
 3589POPC   GL146189  19.703  33.638   5.778
 3589POPC   GL246190  19.593  33.976   5.786
 3589POPC   C1A46191  19.825  33.836   6.197
 3589POPC   D2A46192  19.931  34.144   6.497
 3589POPC   C3A46193  20.056  34.009   6.906
 3589POPC   C4A46194  20.011  33.910   7.316
 3589POPC   C1B46195  19.419  34.171   6.138
 3589POPC   C2B46196  19.430  33.969   6.514
 3589POPC   C3B46197  19.547  34.053   6.877
 3589POPC   C4B46198  19.465  33.901   7.249
 3590POPC   NC346199  10.813  12.696   5.517
 3590POPC   PO446200  10.443  13.214   5.403
 3590POPC   GL146201  10.564  13.125   5.788
 3590POPC   GL246202  10.430  12.792   5.836
 3590POPC   C1A46203  10.787  13.097   6.158
 3590POPC   D2A46204  10.709  12.801   6.463
 3590POPC   C3A46205  10.677  12.903   6.883
 3590POPC   C4A46206  10.601  12.556   7.115
 3590POPC   C1B46207  10.243  12.872   6.223
 3590POPC   C2B46208  10.232  13.045   6.630
 3590POPC   C3B46209  10.208  12.889   7.030
 3590POPC   C4B46210  10.205  13.103   7.407
 3591POPC   NC346211  26.940  27.271   5.522
 3591POPC   PO446212  26.629  26.692   5.449
 3591POPC   GL146213  26.793  26.884   5.812
 3591POPC   GL246214  26.550  27.136   5.857
 3591POPC   C1A46215  26.964  26.994   6.198
 3591POPC   D2A46216  26.834  27.224   6.527
 3591POPC   C3A46217  26.975  27.082   6.912
 3591POPC   C4A46218  27.008  26.771   7.222
 3591POPC   C1B46219  26.409  27.046   6.286
 3591POPC   C2B46220  26.533  26.873   6.710
 3591POPC   C3B46221  26.492  26.802   7.139
 3591POPC   C4B46222  26.295  27.039   7.521
 3592POPC   NC346223   7.716  20.026   5.513
 3592POPC   PO446224   7.234  19.828   5.126
 3592POPC   GL146225   7.277  19.784   5.650
 3592POPC   GL246226   7.492  19.890   5.938
 3592POPC   C1A46227   7.116  19.578   6.069
 3592POPC   D2A46228   7.115  19.519   6.553
 3592POPC   C3A46229   7.349  19.735   6.920
 3592POPC   C4A46230   7.477  19.844   7.353
 3592POPC   C1B46231   7.674  20.037   6.330
 3592POPC   C2B46232   7.822  19.910   6.752
 3592POPC   C3B46233   7.937  20.017   7.168
 3592POPC   C4B46234   7.767  20.274   7.510
 3593POPC   NC346235  42.108  29.440   5.429
 3593POPC   PO446236  42.375  28.764   5.354
 3593POPC   GL146237  42.304  29.084   5.724
 3593POPC   GL246238  42.042  28.944   5.937
 3593POPC   C1A46239  42.255  29.338   6.158
 3593POPC   D2A46240  42.374  29.190   6.592
 3593POPC   C3A46241  42.213  29.271   7.018
 3593POPC   C4A46242  42.310  29.245   7.476
 3593POPC   C1B46243  42.458  28.852   6.138
 3593POPC   C2B46244  42.498  28.699   6.529
 3593POPC   C3B46245  42.258  28.750   6.916
 3593POPC   C4B46246  42.485  28.765   7.310
 3594POPC   NC346247  32.695  33.609   5.473
 3594POPC   PO446248  32.088  33.697   5.441
 3594POPC   GL146249  32.220  33.736   5.838
 3594POPC   GL246250  32.536  33.794   5.931
 3594POPC   C1A46251  32.141  33.870   6.251
 3594POPC   D2A46252  32.360  33.778   6.621
 3594POPC   C3A46253  32.052  33.743   6.945
 3594POPC   C4A46254  32.190  33.900   7.284
 3594POPC   C1B46255  32.765  33.561   6.263
 3594POPC   C2B46256  32.669  33.343   6.639
 3594POPC   C3B46257  32.450  33.431   7.037
 3594POPC   C4B46258  32.477  33.547   7.511
 3595POPC   NC346259   0.132  34.306   5.096
 3595POPC   PO446260   0.513  34.704   5.458
 3595POPC   GL146261   0.468  34.425   5.820
 3595POPC   GL246262   0.751  34.260   5.830
 3595POPC   C1A46263   0.394  34.452   6.275
 3595POPC   D2A46264   0.278  34.555   6.688
 3595POPC   C3A46265   0.517  34.880   6.897
 3595POPC   C4A46266   0.536  34.822   7.330
 3595POPC   C1B46267   0.851  34.610   6.123
 3595POPC   C2B46268   0.844  34.595   6.593
 3595POPC   C3B46269   0.754  34.459   7.025
 3595POPC   C4B46270   0.673  34.291   7.427
 3596POPC   NC346271   9.231  36.783   5.415
 3596POPC   PO446272   8.789  37.234   5.440
 3596POPC   GL146273   8.928  37.008   5.784
 3596POPC   GL246274   8.774  36.671   5.756
 3596POPC   C1A46275   9.031  36.887   6.187
 3596POPC   D2A46276   9.202  37.004   6.578
 3596POPC   C3A46277   9.015  36.766   6.928
 3596POPC   C4A46278   9.104  36.910   7.351
 3596POPC   C1B46279   8.550  36.643   6.172
 3596POPC   C2B46280   8.689  36.444   6.570
 3596POPC   C3B46281   8.636  36.362   6.989
 3596POPC   C4B46282   8.684  36.633   7.320
 3597POPC   NC346283   4.412  35.036   5.610
 3597POPC   PO446284   4.234  35.526   5.163
 3597POPC   GL146285   4.224  35.539   5.672
 3597POPC   GL246286   4.581  35.582   5.783
 3597POPC   C1A46287   4.251  35.424   6.171
 3597POPC   D2A46288   4.060  35.425   6.625
 3597POPC   C3A46289   4.305  35.333   6.998
 3597POPC   C4A46290   4.072  35.061   7.239
 3597POPC   C1B46291   4.651  35.765   6.200
 3597POPC   C2B46292   4.562  35.643   6.631
 3597POPC   C3B46293   4.685  35.679   7.066
 3597POPC   C4B46294   4.643  35.472   7.499
 3598POPC   NC346295  20.276   4.831   5.550
 3598POPC   PO446296  20.510   5.405   5.471
 3598POPC   GL146297  20.547   5.170   5.831
 3598POPC   GL246298  20.899   5.119   5.813
 3598POPC   C1A46299  20.627   4.905   6.197
 3598POPC   D2A46300  20.499   4.841   6.633
 3598POPC   C3A46301  20.649   5.096   6.970
 3598POPC   C4A46302  20.563   4.890   7.359
 3598POPC   C1B46303  20.835   5.398   6.205
 3598POPC   C2B46304  21.064   5.493   6.603
 3598POPC   C3B46305  20.966   5.515   7.064
 3598POPC   C4B46306  20.910   5.233   7.448
 3599POPC   NC346307  40.338  18.847   5.566
 3599POPC   PO446308  40.705  19.324   5.282
 3599POPC   GL146309  40.567  19.271   5.748
 3599POPC   GL246310  40.316  19.190   5.935
 3599POPC   C1A46311  40.725  19.307   6.196
 3599POPC   D2A46312  40.776  19.541   6.572
 3599POPC   C3A46313  40.559  19.428   6.931
 3599POPC   C4A46314  40.623  19.148   7.245
 3599POPC   C1B46315  40.496  18.860   6.185
 3599POPC   C2B46316  40.512  19.015   6.585
 3599POPC   C3B46317  40.548  18.775   6.915
 3599POPC   C4B46318  40.378  18.688   7.315
 3600POPC   NC346319  39.390  15.570   5.463
 3600POPC   PO446320  39.447  14.931   5.387
 3600POPC   GL146321  39.253  15.076   5.773
 3600POPC   GL246322  39.158  15.428   5.882
 3600POPC   C1A46323  39.270  15.017   6.219
 3600POPC   D2A46324  39.035  14.871   6.566
 3600POPC   C3A46325  39.229  14.931   6.956
 3600POPC   C4A46326  39.086  15.042   7.355
 3600POPC   C1B46327  39.406  15.513   6.229
 3600POPC   C2B46328  39.335  15.323   6.636
 3600POPC   C3B46329  39.081  15.419   6.984
 3600POPC   C4B46330  39.305  15.495   7.282
 3601POPC   NC346331  43.989  20.174   5.565
 3601POPC   PO446332  43.527  19.763   5.450
 3601POPC   GL146333  43.678  19.735   5.879
 3601POPC   GL246334  43.971  19.537   5.899
 3601POPC   C1A46335  43.686  19.669   6.341
 3601POPC   D2A46336  43.979  19.561   6.689
 3601POPC   C3A46337  43.840  19.595   7.108
 3601POPC   C4A46338  43.894  19.997   7.289
 3601POPC   C1B46339  44.173  19.804   6.194
 3601POPC   C2B46340  44.357  19.910   6.584
 3601POPC   C3B46341  44.334  19.814   7.021
 3601POPC   C4B46342  44.295  19.699   7.441
 3602POPC   NC346343  28.699   6.125   5.422
 3602POPC   PO446344  28.112   6.230   5.751
 3602POPC   GL146345  28.315   5.839   5.895
 3602POPC   GL246346  28.592   5.648   5.722
 3602POPC   C1A46347  28.397   5.839   6.339
 3602POPC   D2A46348  28.324   6.147   6.653
 3602POPC   C3A46349  28.078   6.065   6.977
 3602POPC   C4A46350  28.203   5.756   7.234
 3602POPC   C1B46351  28.732   5.482   6.133
 3602POPC   C2B46352  28.831   5.599   6.572
 3602POPC   C3B46353  28.691   5.868   6.897
 3602POPC   C4B46354  28.739   5.760   7.302
 3603POPC   NC346355  28.325  23.144   5.261
 3603POPC   PO446356  28.681  22.607   5.444
 3603POPC   GL146357  28.533  22.792   5.834
 3603POPC   GL246358  28.363  23.118   5.790
 3603POPC   C1A46359  28.445  22.763   6.264
 3603POPC   D2A46360  28.212  22.973   6.590
 3603POPC   C3A46361  28.403  22.867   6.975
 3603POPC   C4A46362  28.553  22.820   7.364
 3603POPC   C1B46363  28.606  23.231   6.180
 3603POPC   C2B46364  28.734  23.066   6.601
 3603POPC   C3B46365  28.826  23.164   7.034
 3603POPC   C4B46366  28.503  23.346   7.272
 3604POPC   NC346367  34.978   7.590   5.495
 3604POPC   PO446368  35.683   7.770   5.425
 3604POPC   GL146369  35.532   7.465   5.765
 3604POPC   GL246370  35.175   7.499   5.952
 3604POPC   C1A46371  35.612   7.527   6.210
 3604POPC   D2A46372  35.460   7.824   6.531
 3604POPC   C3A46373  35.384   7.633   6.918
 3604POPC   C4A46374  35.639   7.384   7.190
 3604POPC   C1B46375  35.161   7.411   6.407
 3604POPC   C2B46376  35.489   7.201   6.649
 3604POPC   C3B46377  35.391   6.985   6.996
 3604POPC   C4B46378  34.976   7.058   7.110
 3605POPC   NC346379  28.533  31.100   5.620
 3605POPC   PO446380  28.408  30.523   5.333
 3605POPC   GL146381  28.438  30.613   5.754
 3605POPC   GL246382  28.766  30.559   5.804
 3605POPC   C1A46383  28.194  30.628   6.152
 3605POPC   D2A46384  27.934  30.784   6.499
 3605POPC   C3A46385  28.100  30.697   6.904
 3605POPC   C4A46386  28.180  30.981   7.230
 3605POPC   C1B46387  28.690  30.764   6.220
 3605POPC   C2B46388  28.442  30.938   6.538
 3605POPC   C3B46389  28.606  30.912   6.947
 3605POPC   C4B46390  28.694  30.530   7.146
 3606POPC   NC346391  20.107  23.089   5.523
 3606POPC   PO446392  20.715  23.141   5.296
 3606POPC   GL146393  20.638  22.992   5.723
 3606POPC   GL246394  20.358  22.732   5.790
 3606POPC   C1A46395  20.659  23.179   6.147
 3606POPC   D2A46396  20.619  23.081   6.588
 3606POPC   C3A46397  20.332  23.074   6.951
 3606POPC   C4A46398  20.546  23.009   7.351
 3606POPC   C1B46399  20.285  22.851   6.245
 3606POPC   C2B46400  20.316  22.656   6.673
 3606POPC   C3B46401  20.717  22.701   6.952
 3606POPC   C4B46402  20.893  22.639   7.385
 3607POPC   NC346403  12.185  14.870   5.385
 3607POPC   PO446404  11.759  15.395   5.338
 3607POPC   GL146405  11.830  15.141   5.711
 3607POPC   GL246406  12.164  15.190   5.798
 3607POPC   C1A46407  11.784  15.090   6.186
 3607POPC   D2A46408  11.610  15.332   6.559
 3607POPC   C3A46409  11.860  15.388   6.905
 3607POPC   C4A46410  11.972  15.077   7.204
 3607POPC   C1B46411  12.291  15.178   6.241
 3607POPC   C2B46412  12.180  15.049   6.676
 3607POPC   C3B46413  12.459  14.944   7.064
 3607POPC   C4B46414  12.383  15.076   7.513
 3608POPC   NC346415  27.410  11.847   5.456
 3608POPC   PO446416  27.644  12.427   5.484
 3608POPC   GL146417  27.681  12.124   5.905
 3608POPC   GL246418  27.551  11.780   5.930
 3608POPC   C1A46419  27.602  11.957   6.381
 3608POPC   D2A46420  27.350  11.826   6.753
 3608POPC   C3A46421  27.433  12.156   7.057
 3608POPC   C4A46422  27.362  12.484   7.372
 3608POPC   C1B46423  27.776  11.504   6.223
 3608POPC   C2B46424  27.899  11.536   6.650
 3608POPC   C3B46425  27.732  11.593   7.037
 3608POPC   C4B46426  27.902  11.936   7.190
 3609POPC   NC346427  20.572   3.246   5.340
 3609POPC   PO446428  20.275   3.815   5.431
 3609POPC   GL146429  20.583   3.632   5.784
 3609POPC   GL246430  20.903   3.377   5.723
 3609POPC   C1A46431  20.644   3.783   6.245
 3609POPC   D2A46432  20.505   3.527   6.590
 3609POPC   C3A46433  20.514   3.595   7.021
 3609POPC   C4A46434  20.824   3.516   7.313
 3609POPC   C1B46435  20.755   3.282   6.157
 3609POPC   C2B46436  20.786   3.084   6.551
 3609POPC   C3B46437  20.679   3.108   6.996
 3609POPC   C4B46438  20.528   3.119   7.419
 3610POPC   NC346439  31.534  10.539   5.192
 3610POPC   PO446440  31.984  10.467   5.658
 3610POPC   GL146441  31.650  10.590   5.950
 3610POPC   GL246442  31.316  10.787   6.014
 3610POPC   C1A46443  31.673  10.626   6.384
 3610POPC   D2A46444  31.588  10.636   6.807
 3610POPC   C3A46445  31.730  10.341   7.080
 3610POPC   C4A46446  31.978  10.440   7.412
 3610POPC   C1B46447  31.169  10.494   6.316
 3610POPC   C2B46448  31.221  10.302   6.673
 3610POPC   C3B46449  31.099  10.500   7.030
 3610POPC   C4B46450  31.402  10.682   7.283
 3611POPC   NC346451  34.388  34.122   5.462
 3611POPC   PO446452  34.638  33.501   5.527
 3611POPC   GL146453  34.563  33.703   5.886
 3611POPC   GL246454  34.711  34.002   5.849
 3611POPC   C1A46455  34.543  33.707   6.347
 3611POPC   D2A46456  34.287  33.585   6.670
 3611POPC   C3A46457  34.544  33.619   7.014
 3611POPC   C4A46458  34.271  33.428   7.273
 3611POPC   C1B46459  34.678  34.203   6.225
 3611POPC   C2B46460  34.829  34.124   6.639
 3611POPC   C3B46461  34.630  34.199   7.033
 3611POPC   C4B46462  34.478  34.072   7.429
 3612POPC   NC346463   6.584  35.968   5.434
 3612POPC   PO446464   6.919  36.497   5.486
 3612POPC   GL146465   6.651  36.270   5.821
 3612POPC   GL246466   6.801  35.943   5.895
 3612POPC   C1A46467   6.456  36.140   6.212
 3612POPC   D2A46468   6.698  36.113   6.584
 3612POPC   C3A46469   6.443  36.285   6.917
 3612POPC   C4A46470   6.272  36.097   7.291
 3612POPC   C1B46471   6.914  35.700   6.249
 3612POPC   C2B46472   7.108  35.639   6.652
 3612POPC   C3B46473   6.986  35.911   6.973
 3612POPC   C4B46474   6.781  36.137   7.285
 3613POPC   NC346475  28.599  28.207   5.565
 3613POPC   PO446476  28.215  28.720   5.390
 3613POPC   GL146477  28.090  28.470   5.774
 3613POPC   GL246478  28.200  28.145   5.888
 3613POPC   C1A46479  27.979  28.438   6.245
 3613POPC   D2A46480  28.069  28.220   6.661
 3613POPC   C3A46481  28.225  28.441   7.037
 3613POPC   C4A46482  28.608  28.447   7.331
 3613POPC   C1B46483  28.442  28.238   6.294
 3613POPC   C2B46484  28.587  28.234   6.748
 3613POPC   C3B46485  28.520  27.992   7.134
 3613POPC   C4B46486  28.787  27.830   7.499
 3614POPC   NC346487  24.316   1.472   5.392
 3614POPC   PO446488  24.849   1.449   5.718
 3614POPC   GL146489  24.455   1.418   5.884
 3614POPC   GL246490  24.528   1.083   5.982
 3614POPC   C1A46491  24.325   1.525   6.306
 3614POPC   D2A46492  24.581   1.691   6.658
 3614POPC   C3A46493  24.660   1.362   6.950
 3614POPC   C4A46494  24.255   1.253   7.076
 3614POPC   C1B46495  24.379   0.983   6.391
 3614POPC   C2B46496  24.351   0.734   6.761
 3614POPC   C3B46497  24.562   0.858   7.132
 3614POPC   C4B46498  24.703   0.763   7.540
 3615POPC   NC346499  43.438  40.725   5.450
 3615POPC   PO446500  42.832  40.838   5.456
 3615POPC   GL146501  42.903  40.651   5.835
 3615POPC   GL246502  43.260  40.590   5.904
 3615POPC   C1A46503  42.866  40.809   6.242
 3615POPC   D2A46504  43.000  40.639   6.634
 3615POPC   C3A46505  43.012  40.848   6.997
 3615POPC   C4A46506  43.106  40.486   7.252
 3615POPC   C1B46507  43.373  40.750   6.276
 3615POPC   C2B46508  43.281  41.074   6.538
 3615POPC   C3B46509  43.457  41.107   6.918
 3615POPC   C4B46510  43.415  40.890   7.307
 3616POPC   NC346511  33.521  17.203   5.593
 3616POPC   PO446512  33.945  16.720   5.408
 3616POPC   GL146513  33.793  16.773   5.798
 3616POPC   GL246514  33.947  17.102   5.865
 3616POPC   C1A46515  33.670  16.522   6.146
 3616POPC   D2A46516  33.548  16.615   6.554
 3616POPC   C3A46517  33.797  16.538   6.901
 3616POPC   C4A46518  33.621  16.610   7.243
 3616POPC   C1B46519  33.817  17.016   6.283
 3616POPC   C2B46520  34.027  16.923   6.672
 3616POPC   C3B46521  33.937  16.998   7.118
 3616POPC   C4B46522  34.043  17.256   7.483
 3617POPC   NC346523  29.412  43.888   5.481
 3617POPC   PO446524  30.027  44.033   5.246
 3617POPC   GL146525  30.024  43.827   5.676
 3617POPC   GL246526  29.704  43.788   5.878
 3617POPC   C1A46527  30.132  43.694   6.126
 3617POPC   D2A46528  29.976  43.735   6.542
 3617POPC   C3A46529  30.156  43.884   6.925
 3617POPC   C4A46530  30.150  43.659   7.302
 3617POPC   C1B46531  29.503  44.071   6.193
 3617POPC   C2B46532  29.546  43.997   6.632
 3617POPC   C3B46533  29.665  43.722   6.991
 3617POPC   C4B46534  29.806  44.034   7.282
 3618POPC   NC346535  36.797  43.327   5.311
 3618POPC   PO446536  37.327  42.871   5.450
 3618POPC   GL146537  37.242  43.180   5.822
 3618POPC   GL246538  36.893  43.259   5.806
 3618POPC   C1A46539  37.132  43.318   6.265
 3618POPC   D2A46540  36.926  43.126   6.617
 3618POPC   C3A46541  36.968  43.313   7.019
 3618POPC   C4A46542  37.240  43.085   7.277
 3618POPC   C1B46543  36.678  43.059   6.158
 3618POPC   C2B46544  36.433  43.183   6.503
 3618POPC   C3B46545  36.497  42.965   6.867
 3618POPC   C4B46546  36.503  43.193   7.215
 3619POPC   NC346547  30.427  38.998   5.394
 3619POPC   PO446548  30.840  39.505   5.469
 3619POPC   GL146549  30.611  39.340   5.767
 3619POPC   GL246550  30.280  39.402   5.688
 3619POPC   C1A46551  30.681  39.175   6.165
 3619POPC   D2A46552  30.409  39.066   6.495
 3619POPC   C3A46553  30.629  39.194   6.848
 3619POPC   C4A46554  30.601  39.166   7.266
 3619POPC   C1B46555  30.245  39.447   6.135
 3619POPC   C2B46556  30.283  39.605   6.564
 3619POPC   C3B46557  30.320  39.572   7.000
 3619POPC   C4B46558  30.108  39.321   7.292
 3620POPC   NC346559   8.510  19.766   5.509
 3620POPC   PO446560   7.877  19.505   5.564
 3620POPC   GL146561   8.001  19.755   5.917
 3620POPC   GL246562   7.982  20.148   5.932
 3620POPC   C1A46563   8.054  19.660   6.348
 3620POPC   D2A46564   8.362  19.712   6.669
 3620POPC   C3A46565   8.277  19.621   7.104
 3620POPC   C4A46566   8.474  19.656   7.504
 3620POPC   C1B46567   8.375  20.059   6.166
 3620POPC   C2B46568   8.613  20.146   6.550
 3620POPC   C3B46569   8.433  20.137   6.982
 3620POPC   C4B46570   8.649  20.111   7.358
 3621POPC   NC346571  31.175  17.974   5.335
 3621POPC   PO446572  31.492  17.352   5.548
 3621POPC   GL146573  31.735  17.312   5.877
 3621POPC   GL246574  31.543  17.629   6.022
 3621POPC   C1A46575  31.737  17.252   6.287
 3621POPC   D2A46576  31.427  17.331   6.578
 3621POPC   C3A46577  31.614  17.579   6.879
 3621POPC   C4A46578  31.640  17.246   7.179
 3621POPC   C1B46579  31.354  17.818   6.385
 3621POPC   C2B46580  31.089  17.700   6.728
 3621POPC   C3B46581  31.171  17.481   7.092
 3621POPC   C4B46582  31.427  17.682   7.377
 3622POPC   NC346583   2.479   9.559   5.182
 3622POPC   PO446584   2.993   9.970   5.213
 3622POPC   GL146585   2.718   9.724   5.603
 3622POPC   GL246586   2.852   9.352   5.730
 3622POPC   C1A46587   2.719   9.694   6.084
 3622POPC   D2A46588   2.542   9.687   6.500
 3622POPC   C3A46589   2.765   9.752   6.894
 3622POPC   C4A46590   2.614   9.822   7.310
 3622POPC   C1B46591   2.920   9.224   6.177
 3622POPC   C2B46592   2.867   9.311   6.613
 3622POPC   C3B46593   3.106   9.377   6.994
 3622POPC   C4B46594   3.095   9.647   7.385
 3623POPC   NC346595   7.377   2.855   5.442
 3623POPC   PO446596   7.880   2.480   5.613
 3623POPC   GL146597   7.539   2.663   5.898
 3623POPC   GL246598   7.309   2.994   5.920
 3623POPC   C1A46599   7.373   2.589   6.297
 3623POPC   D2A46600   7.457   2.780   6.687
 3623POPC   C3A46601   7.467   2.513   7.034
 3623POPC   C4A46602   7.216   2.456   7.391
 3623POPC   C1B46603   7.651   3.055   6.229
 3623POPC   C2B46604   7.761   3.218   6.641
 3623POPC   C3B46605   7.778   3.032   7.041
 3623POPC   C4B46606   7.433   2.938   7.306
 3624POPC   NC346607  27.412  34.084   5.525
 3624POPC   PO446608  27.796  33.667   5.261
 3624POPC   GL146609  27.763  33.669   5.721
 3624POPC   GL246610  27.809  33.989   5.859
 3624POPC   C1A46611  27.627  33.454   6.124
 3624POPC   D2A46612  27.433  33.398   6.551
 3624POPC   C3A46613  27.537  33.721   6.859
 3624POPC   C4A46614  27.622  33.733   7.294
 3624POPC   C1B46615  27.730  33.989   6.305
 3624POPC   C2B46616  27.943  34.017   6.706
 3624POPC   C3B46617  27.804  34.168   7.119
 3624POPC   C4B46618  27.900  34.141   7.549
 3625POPC   NC346619  30.358  41.884   5.476
 3625POPC   PO446620  30.434  41.221   5.469
 3625POPC   GL146621  30.541  41.260   5.885
 3625POPC   GL246622  30.556  41.623   5.877
 3625POPC   C1A46623  30.685  41.357   6.308
 3625POPC   D2A46624  30.938  41.644   6.544
 3625POPC   C3A46625  30.940  41.517   6.962
 3625POPC   C4A46626  30.670  41.469   7.301
 3625POPC   C1B46627  30.560  41.885   6.243
 3625POPC   C2B46628  30.615  42.092   6.649
 3625POPC   C3B46629  30.600  41.961   7.090
 3625POPC   C4B46630  30.278  41.929   7.398
 3626POPC   NC346631  19.977   4.165   5.461
 3626POPC   PO446632  19.470   3.713   5.432
 3626POPC   GL146633  19.618   3.959   5.806
 3626POPC   GL246634  19.642   4.330   5.818
 3626POPC   C1A46635  19.951   4.041   6.132
 3626POPC   D2A46636  20.195   3.965   6.518
 3626POPC   C3A46637  19.994   4.148   6.891
 3626POPC   C4A46638  19.866   4.192   7.327
 3626POPC   C1B46639  19.778   4.539   6.208
 3626POPC   C2B46640  19.634   4.460   6.634
 3626POPC   C3B46641  19.784   4.615   7.042
 3626POPC   C4B46642  19.631   4.643   7.449
 3627POPC   NC346643   1.168  30.217   5.428
 3627POPC   PO446644   1.455  29.562   5.462
 3627POPC   GL146645   1.306  29.889   5.811
 3627POPC   GL246646   1.500  30.228   5.857
 3627POPC   C1A46647   1.200  30.038   6.241
 3627POPC   D2A46648   1.199  30.194   6.676
 3627POPC   C3A46649   1.209  29.815   6.907
 3627POPC   C4A46650   1.111  29.815   7.307
 3627POPC   C1B46651   1.672  30.225   6.301
 3627POPC   C2B46652   1.690  30.064   6.744
 3627POPC   C3B46653   1.477  30.179   7.153
 3627POPC   C4B46654   1.525  29.955   7.548
 3628POPC   NC346655  23.258   7.111   5.263
 3628POPC   PO446656  23.851   7.367   5.418
 3628POPC   GL146657  23.651   7.448   5.783
 3628POPC   GL246658  23.706   7.793   5.776
 3628POPC   C1A46659  23.785   7.406   6.207
 3628POPC   D2A46660  23.740   7.622   6.571
 3628POPC   C3A46661  23.789   7.412   6.965
 3628POPC   C4A46662  23.815   7.011   7.154
 3628POPC   C1B46663  23.377   7.761   6.114
 3628POPC   C2B46664  23.236   7.745   6.554
 3628POPC   C3B46665  23.346   7.642   6.988
 3628POPC   C4B46666  23.323   7.267   7.191
 3629POPC   NC346667  13.878  44.495   5.485
 3629POPC   PO446668  13.562   0.092   5.472
 3629POPC   GL146669  13.532  44.800   5.838
 3629POPC   GL246670  13.499  44.422   5.899
 3629POPC   C1A46671  13.638  44.766   6.278
 3629POPC   D2A46672  13.443  44.537   6.618
 3629POPC   C3A46673  13.417  44.803   6.966
 3629POPC   C4A46674  13.734  44.954   7.179
 3629POPC   C1B46675  13.902  44.347   6.150
 3629POPC   C2B46676  14.011  44.524   6.566
 3629POPC   C3B46677  13.812  44.476   6.980
 3629POPC   C4B46678  13.896  44.500   7.422
 3630POPC   NC346679   2.837  38.457   5.088
 3630POPC   PO446680   2.468  38.793   5.639
 3630POPC   GL146681   2.667  38.661   6.031
 3630POPC   GL246682   2.809  38.304   6.055
 3630POPC   C1A46683   2.641  38.647   6.434
 3630POPC   D2A46684   2.478  38.403   6.715
 3630POPC   C3A46685   2.545  38.593   7.063
 3630POPC   C4A46686   2.978  38.693   7.186
 3630POPC   C1B46687   2.885  38.218   6.418
 3630POPC   C2B46688   3.027  38.407   6.735
 3630POPC   C3B46689   2.867  38.198   7.004
 3630POPC   C4B46690   3.005  38.038   7.305
 3631POPC   NC346691  38.919  23.843   5.484
 3631POPC   PO446692  39.033  23.215   5.418
 3631POPC   GL146693  39.250  23.506   5.728
 3631POPC   GL246694  39.426  23.850   5.636
 3631POPC   C1A46695  39.129  23.747   6.129
 3631POPC   D2A46696  38.936  23.765   6.553
 3631POPC   C3A46697  39.138  23.788   6.966
 3631POPC   C4A46698  39.018  23.900   7.394
 3631POPC   C1B46699  39.563  24.016   6.056
 3631POPC   C2B46700  39.409  24.041   6.508
 3631POPC   C3B46701  39.629  24.014   6.932
 3631POPC   C4B46702  39.530  23.826   7.318
 3632POPC   NC346703  40.491  10.690   5.215
 3632POPC   PO446704  40.860  10.180   5.233
 3632POPC   GL146705  40.767  10.448   5.663
 3632POPC   GL246706  41.060  10.624   5.835
 3632POPC   C1A46707  40.710  10.488   6.166
 3632POPC   D2A46708  40.715  10.680   6.597
 3632POPC   C3A46709  40.808  10.500   6.999
 3632POPC   C4A46710  40.742  10.399   7.428
 3632POPC   C1B46711  41.113  10.838   6.248
 3632POPC   C2B46712  41.206  10.867   6.697
 3632POPC   C3B46713  40.962  11.030   7.019
 3632POPC   C4B46714  40.756  10.907   7.370
 3633POPC   NC346715  27.313  39.022   5.648
 3633POPC   PO446716  27.530  39.733   5.481
 3633POPC   GL146717  27.625  39.404   5.814
 3633POPC   GL246718  27.970  39.266   5.761
 3633POPC   C1A46719  27.546  39.250   6.243
 3633POPC   D2A46720  27.635  39.430   6.640
 3633POPC   C3A46721  27.520  39.231   7.016
 3633POPC   C4A46722  27.771  39.430   7.305
 3633POPC   C1B46723  28.024  39.102   6.153
 3633POPC   C2B46724  27.928  39.010   6.583
 3633POPC   C3B46725  27.925  38.923   7.031
 3633POPC   C4B46726  28.004  38.990   7.469
 3634POPC   NC346727  43.032  13.647   5.335
 3634POPC   PO446728  43.630  13.376   5.420
 3634POPC   GL146729  43.300  13.466   5.767
 3634POPC   GL246730  42.938  13.375   5.745
 3634POPC   C1A46731  43.087  13.756   6.078
 3634POPC   D2A46732  43.034  13.954   6.489
 3634POPC   C3A46733  43.140  13.695   6.824
 3634POPC   C4A46734  43.345  13.675   7.189
 3634POPC   C1B46735  42.634  13.431   6.054
 3634POPC   C2B46736  42.718  13.559   6.469
 3634POPC   C3B46737  42.698  13.410   6.860
 3634POPC   C4B46738  42.960  13.322   7.177
 3635POPC   NC346739   9.498  19.909   5.547
 3635POPC   PO446740  10.148  20.081   5.421
 3635POPC   GL146741   9.951  19.964   5.790
 3635POPC   GL246742   9.961  19.641   5.821
 3635POPC   C1A46743   9.725  20.012   6.187
 3635POPC   D2A46744  10.001  20.011   6.540
 3635POPC   C3A46745   9.772  20.010   6.909
 3635POPC   C4A46746   9.989  20.060   7.295
 3635POPC   C1B46747   9.653  19.518   6.142
 3635POPC   C2B46748   9.652  19.643   6.556
 3635POPC   C3B46749   9.786  19.502   6.940
 3635POPC   C4B46750   9.513  19.351   7.239
 3636POPC   NC346751  24.994   1.667   5.331
 3636POPC   PO446752  25.283   2.286   5.383
 3636POPC   GL146753  25.347   2.147   5.817
 3636POPC   GL246754  25.185   1.815   5.870
 3636POPC   C1A46755  25.479   2.018   6.253
 3636POPC   D2A46756  25.262   2.147   6.632
 3636POPC   C3A46757  25.318   2.015   7.060
 3636POPC   C4A46758  25.674   1.832   7.129
 3636POPC   C1B46759  24.994   1.793   6.305
 3636POPC   C2B46760  25.075   1.683   6.752
 3636POPC   C3B46761  24.935   1.699   7.213
 3636POPC   C4B46762  24.928   1.628   7.684
 3637POPC   NC346763  34.798  34.970   5.543
 3637POPC   PO446764  34.827  34.309   5.446
 3637POPC   GL146765  34.586  34.502   5.766
 3637POPC   GL246766  34.340  34.761   5.746
 3637POPC   C1A46767  34.722  34.720   6.122
 3637POPC   D2A46768  35.009  34.786   6.425
 3637POPC   C3A46769  34.865  34.674   6.819
 3637POPC   C4A46770  34.760  34.707   7.234
 3637POPC   C1B46771  34.242  34.508   6.135
 3637POPC   C2B46772  34.443  34.573   6.514
 3637POPC   C3B46773  34.360  34.721   6.874
 3637POPC   C4B46774  34.256  34.507   7.233
 3638POPC   NC346775  31.550  35.093   5.679
 3638POPC   PO446776  31.483  35.805   5.601
 3638POPC   GL146777  31.451  35.595   5.944
 3638POPC   GL246778  31.161  35.458   5.857
 3638POPC   C1A46779  31.441  35.282   6.282
 3638POPC   D2A46780  31.559  35.225   6.680
 3638POPC   C3A46781  31.291  35.109   6.986
 3638POPC   C4A46782  31.536  34.902   7.262
 3638POPC   C1B46783  31.062  35.634   6.274
 3638POPC   C2B46784  31.106  35.508   6.702
 3638POPC   C3B46785  31.202  35.587   7.140
 3638POPC   C4B46786  31.109  35.630   7.581
 3639POPC   NC346787   4.888  29.222   5.310
 3639POPC   PO446788   5.524  29.346   5.147
 3639POPC   GL146789   5.339  29.200   5.632
 3639POPC   GL246790   5.008  29.282   5.832
 3639POPC   C1A46791   5.320  28.986   6.095
 3639POPC   D2A46792   5.154  29.095   6.529
 3639POPC   C3A46793   5.037  28.801   6.873
 3639POPC   C4A46794   5.240  28.911   7.260
 3639POPC   C1B46795   5.200  29.518   6.205
 3639POPC   C2B46796   5.239  29.596   6.675
 3639POPC   C3B46797   5.050  29.336   7.001
 3639POPC   C4B46798   4.686  29.115   7.124
 3640POPC   NC346799  40.898  25.476   5.502
 3640POPC   PO446800  40.473  25.025   5.441
 3640POPC   GL146801  40.770  25.104   5.817
 3640POPC   GL246802  41.070  25.351   5.948
 3640POPC   C1A46803  40.664  25.268   6.231
 3640POPC   D2A46804  40.625  25.559   6.538
 3640POPC   C3A46805  40.477  25.367   6.887
 3640POPC   C4A46806  40.781  25.467   7.242
 3640POPC   C1B46807  41.075  24.968   6.189
 3640POPC   C2B46808  40.857  24.834   6.502
 3640POPC   C3B46809  40.816  25.007   6.883
 3640POPC   C4B46810  40.927  24.979   7.285
 3641POPC   NC346811  40.483  13.508   5.380
 3641POPC   PO446812  41.020  13.917   5.555
 3641POPC   GL146813  40.789  13.722   5.871
 3641POPC   GL246814  41.003  13.481   6.040
 3641POPC   C1A46815  40.473  13.637   6.175
 3641POPC   D2A46816  40.210  13.839   6.509
 3641POPC   C3A46817  40.438  13.899   6.867
 3641POPC   C4A46818  40.632  13.633   7.203
 3641POPC   C1B46819  41.067  13.788   6.352
 3641POPC   C2B46820  41.085  13.710   6.793
 3641POPC   C3B46821  41.127  13.628   7.229
 3641POPC   C4B46822  40.965  13.875   7.602
 3642POPC   NC346823   9.062  41.190   5.370
 3642POPC   PO446824   9.190  40.529   5.505
 3642POPC   GL146825   9.030  40.697   5.843
 3642POPC   GL246826   9.179  41.023   5.824
 3642POPC   C1A46827   9.039  40.573   6.262
 3642POPC   D2A46828   8.886  40.709   6.654
 3642POPC   C3A46829   9.152  40.641   6.996
 3642POPC   C4A46830   9.233  40.488   7.436
 3642POPC   C1B46831   8.894  41.089   6.156
 3642POPC   C2B46832   9.096  41.167   6.542
 3642POPC   C3B46833   8.918  41.153   6.971
 3642POPC   C4B46834   8.946  40.983   7.390
 3643POPC   NC346835  36.505  42.181   5.302
 3643POPC   PO446836  35.859  42.516   5.352
 3643POPC   GL146837  36.154  42.417   5.773
 3643POPC   GL246838  36.323  42.060   5.754
 3643POPC   C1A46839  36.168  42.259   6.190
 3643POPC   D2A46840  36.055  42.378   6.575
 3643POPC   C3A46841  36.325  42.383   6.899
 3643POPC   C4A46842  36.172  42.323   7.308
 3643POPC   C1B46843  36.461  41.836   6.137
 3643POPC   C2B46844  36.493  42.028   6.561
 3643POPC   C3B46845  36.428  41.855   6.997
 3643POPC   C4B46846  36.355  41.898   7.470
 3644POPC   NC346847  24.709  31.522   5.445
 3644POPC   PO446848  24.118  31.219   5.420
 3644POPC   GL146849  24.410  31.264   5.773
 3644POPC   GL246850  24.396  31.643   5.848
 3644POPC   C1A46851  24.489  31.324   6.221
 3644POPC   D2A46852  24.309  31.324   6.610
 3644POPC   C3A46853  24.604  31.411   6.906
 3644POPC   C4A46854  24.422  31.530   7.272
 3644POPC   C1B46855  24.340  31.932   6.205
 3644POPC   C2B46856  24.345  31.836   6.622
 3644POPC   C3B46857  24.177  31.947   6.995
 3644POPC   C4B46858  24.383  32.059   7.352
 3645POPC   NC346859   7.331  44.793   5.463
 3645POPC   PO446860   7.914   0.042   5.429
 3645POPC   GL146861   7.721  44.792   5.788
 3645POPC   GL246862   7.721  44.407   5.837
 3645POPC   C1A46863   7.436  44.863   6.163
 3645POPC   D2A46864   7.184  44.723   6.528
 3645POPC   C3A46865   7.259  44.882   6.958
 3645POPC   C4A46866   7.080  44.992   7.374
 3645POPC   C1B46867   7.564  44.383   6.301
 3645POPC   C2B46868   7.576  44.504   6.763
 3645POPC   C3B46869   7.512  44.459   7.209
 3645POPC   C4B46870   7.657  44.273   7.632
 3646POPC   NC346871  40.064  27.130   5.395
 3646POPC   PO446872  39.854  26.477   5.372
 3646POPC   GL146873  39.859  26.607   5.809
 3646POPC   GL246874  39.946  26.968   5.888
 3646POPC   C1A46875  40.227  26.535   6.078
 3646POPC   D2A46876  40.469  26.574   6.465
 3646POPC   C3A46877  40.269  26.519   6.858
 3646POPC   C4A46878  40.514  26.498   7.227
 3646POPC   C1B46879  40.014  26.908   6.354
 3646POPC   C2B46880  39.745  26.957   6.710
 3646POPC   C3B46881  39.863  26.807   7.114
 3646POPC   C4B46882  40.267  26.924   7.209
 3647POPC   NC346883  12.030  11.455   5.088
 3647POPC   PO446884  11.672  11.105   5.544
 3647POPC   GL146885  11.892  11.240   5.876
 3647POPC   GL246886  12.210  11.150   5.864
 3647POPC   C1A46887  11.995  11.317   6.287
 3647POPC   D2A46888  12.042  11.564   6.588
 3647POPC   C3A46889  11.872  11.384   6.912
 3647POPC   C4A46890  12.018  11.318   7.294
 3647POPC   C1B46891  12.487  11.229   6.156
 3647POPC   C2B46892  12.435  11.266   6.542
 3647POPC   C3B46893  12.379  11.289   6.948
 3647POPC   C4B46894  12.492  11.532   7.325
 3648POPC   NC346895   5.247  38.659   5.088
 3648POPC   PO446896   4.862  38.357   5.555
 3648POPC   GL146897   4.985  38.377   5.917
 3648POPC   GL246898   5.241  38.632   6.013
 3648POPC   C1A46899   4.857  38.331   6.317
 3648POPC   D2A46900   5.113  38.668   6.506
 3648POPC   C3A46901   5.148  38.589   6.905
 3648POPC   C4A46902   5.325  38.587   7.262
 3648POPC   C1B46903   5.353  38.261   6.235
 3648POPC   C2B46904   5.207  38.122   6.634
 3648POPC   C3B46905   5.399  38.153   7.018
 3648POPC   C4B46906   5.657  38.199   7.352
 3649POPC   NC346907  17.791   0.196   4.926
 3649POPC   PO446908  17.297   0.331   5.306
 3649POPC   GL146909  17.250   0.413   5.747
 3649POPC   GL246910  17.567   0.405   5.892
 3649POPC   C1A46911  17.094   0.508   6.157
 3649POPC   D2A46912  17.235   0.277   6.540
 3649POPC   C3A46913  17.143   0.383   6.986
 3649POPC   C4A46914  17.329   0.274   7.409
 3649POPC   C1B46915  17.787   0.706   6.184
 3649POPC   C2B46916  17.810   0.968   6.578
 3649POPC   C3B46917  17.860   0.893   7.049
 3649POPC   C4B46918  17.829   0.486   7.264
 3650POPC   NC346919  27.919  25.117   5.501
 3650POPC   PO446920  27.476  25.555   5.394
 3650POPC   GL146921  27.575  25.465   5.824
 3650POPC   GL246922  27.826  25.251   5.975
 3650POPC   C1A46923  27.298  25.350   6.160
 3650POPC   D2A46924  27.257  25.128   6.552
 3650POPC   C3A46925  27.550  25.245   6.862
 3650POPC   C4A46926  27.468  25.256   7.280
 3650POPC   C1B46927  27.826  25.302   6.412
 3650POPC   C2B46928  27.856  25.655   6.714
 3650POPC   C3B46929  27.802  25.661   7.160
 3650POPC   C4B46930  27.934  25.484   7.549
 3651POPC   NC346931  34.525  14.913   5.216
 3651POPC   PO446932  34.675  15.552   5.416
 3651POPC   GL146933  34.497  15.280   5.725
 3651POPC   GL246934  34.824  15.135   5.812
 3651POPC   C1A46935  34.290  15.393   6.130
 3651POPC   D2A46936  34.296  15.216   6.582
 3651POPC   C3A46937  34.548  15.306   6.977
 3651POPC   C4A46938  34.616  15.128   7.418
 3651POPC   C1B46939  34.681  15.083   6.245
 3651POPC   C2B46940  34.673  14.863   6.663
 3651POPC   C3B46941  34.699  14.729   7.096
 3651POPC   C4B46942  34.875  14.698   7.528
 3652POPC   NC346943  18.994  37.857   4.933
 3652POPC   PO446944  19.187  37.549   5.481
 3652POPC   GL146945  19.004  37.767   5.772
 3652POPC   GL246946  18.669  37.685   5.814
 3652POPC   C1A46947  19.067  37.727   6.213
 3652POPC   D2A46948  19.271  37.885   6.570
 3652POPC   C3A46949  19.320  37.582   6.883
 3652POPC   C4A46950  19.096  37.533   7.237
 3652POPC   C1B46951  18.569  37.613   6.244
 3652POPC   C2B46952  18.760  37.537   6.648
 3652POPC   C3B46953  18.668  37.371   7.053
 3652POPC   C4B46954  18.647  37.430   7.522
 3653POPC   NC346955  24.033  20.264   5.487
 3653POPC   PO446956  23.459  20.575   5.483
 3653POPC   GL146957  23.682  20.706   5.825
 3653POPC   GL246958  24.029  20.699   5.751
 3653POPC   C1A46959  23.600  20.710   6.241
 3653POPC   D2A46960  23.405  20.680   6.636
 3653POPC   C3A46961  23.676  20.606   6.986
 3653POPC   C4A46962  23.805  20.773   7.400
 3653POPC   C1B46963  24.128  20.649   6.172
 3653POPC   C2B46964  23.981  20.666   6.579
 3653POPC   C3B46965  24.186  20.574   6.951
 3653POPC   C4B46966  24.106  20.379   7.313
 3654POPC   NC346967  14.218  23.125   5.309
 3654POPC   PO446968  14.779  23.308   5.480
 3654POPC   GL146969  14.508  22.987   5.708
 3654POPC   GL246970  14.125  23.064   5.805
 3654POPC   C1A46971  14.541  22.704   6.068
 3654POPC   D2A46972  14.662  22.802   6.493
 3654POPC   C3A46973  14.400  22.709   6.853
 3654POPC   C4A46974  14.523  22.838   7.255
 3654POPC   C1B46975  14.351  23.185   6.170
 3654POPC   C2B46976  14.257  23.118   6.593
 3654POPC   C3B46977  14.367  23.251   7.016
 3654POPC   C4B46978  14.153  23.391   7.387
 3655POPC   NC346979  36.528  26.994   5.119
 3655POPC   PO446980  37.096  26.955   5.431
 3655POPC   GL146981  36.868  26.688   5.698
 3655POPC   GL246982  37.096  26.411   5.636
 3655POPC   C1A46983  36.810  26.701   6.153
 3655POPC   D2A46984  37.059  26.778   6.536
 3655POPC   C3A46985  36.862  26.920   6.903
 3655POPC   C4A46986  36.709  26.712   7.231
 3655POPC   C1B46987  37.164  26.339   6.094
 3655POPC   C2B46988  37.102  26.263   6.564
 3655POPC   C3B46989  37.079  26.443   7.018
 3655POPC   C4B46990  37.092  26.431   7.506
 3656POPC   NC346991   5.196  20.197   5.411
 3656POPC   PO446992   4.853  20.769   5.437
 3656POPC   GL146993   4.986  20.819   5.832
 3656POPC   GL246994   5.229  20.551   5.798
 3656POPC   C1A46995   5.203  20.865   6.244
 3656POPC   D2A46996   5.374  20.772   6.652
 3656POPC   C3A46997   5.062  20.885   6.969
 3656POPC   C4A46998   4.862  20.870   7.336
 3656POPC   C1B46999   5.406  20.399   6.183
 3656POPC   C2B47000   5.250  20.270   6.576
 3656POPC   C3B47001   5.081  20.390   6.978
 3656POPC   C4B47002   4.923  20.263   7.352
 3657POPC   NC347003  26.436  24.706   5.284
 3657POPC   PO447004  25.876  24.277   5.353
 3657POPC   GL147005  26.126  24.497   5.709
 3657POPC   GL247006  26.367  24.801   5.763
 3657POPC   C1A47007  26.087  24.355   6.135
 3657POPC   D2A47008  25.904  24.517   6.496
 3657POPC   C3A47009  26.132  24.382   6.861
 3657POPC   C4A47010  26.046  24.375   7.277
 3657POPC   C1B47011  26.194  24.851   6.161
 3657POPC   C2B47012  26.322  24.802   6.573
 3657POPC   C3B47013  26.180  24.898   6.981
 3657POPC   C4B47014  25.911  24.882   7.323
 3658POPC   NC347015  22.015  35.203   5.315
 3658POPC   PO447016  22.722  35.209   5.454
 3658POPC   GL147017  22.351  35.190   5.698
 3658POPC   GL247018  22.206  35.512   5.696
 3658POPC   C1A47019  22.156  35.152   6.105
 3658POPC   D2A47020  21.991  35.165   6.525
 3658POPC   C3A47021  22.197  35.046   6.879
 3658POPC   C4A47022  22.121  35.183   7.269
 3658POPC   C1B47023  22.007  35.659   6.084
 3658POPC   C2B47024  21.841  35.652   6.525
 3658POPC   C3B47025  21.964  35.548   6.947
 3658POPC   C4B47026  22.246  35.715   7.287
 3659POPC   NC347027  29.720   7.829   5.222
 3659POPC   PO447028  29.816   7.225   5.526
 3659POPC   GL147029  30.039   7.362   5.879
 3659POPC   GL247030  30.245   7.653   5.781
 3659POPC   C1A47031  29.969   7.245   6.310
 3659POPC   D2A47032  29.764   6.976   6.608
 3659POPC   C3A47033  29.601   7.235   6.909
 3659POPC   C4A47034  29.808   7.203   7.324
 3659POPC   C1B47035  30.127   7.749   6.220
 3659POPC   C2B47036  29.884   7.680   6.620
 3659POPC   C3B47037  29.906   7.613   7.057
 3659POPC   C4B47038  30.243   7.433   7.334
 3660POPC   NC347039  22.889   9.778   5.321
 3660POPC   PO447040  22.930   9.230   5.630
 3660POPC   GL147041  22.865   9.550   5.951
 3660POPC   GL247042  22.860   9.889   5.837
 3660POPC   C1A47043  22.864   9.704   6.379
 3660POPC   D2A47044  22.697   9.512   6.740
 3660POPC   C3A47045  23.014   9.425   7.049
 3660POPC   C4A47046  23.075   9.392   7.497
 3660POPC   C1B47047  22.553  10.050   6.152
 3660POPC   C2B47048  22.637  10.160   6.595
 3660POPC   C3B47049  22.867   9.938   6.935
 3660POPC   C4B47050  22.871  10.021   7.362
 3661POPC   NC347051  31.491  23.304   5.146
 3661POPC   PO447052  31.340  22.680   5.404
 3661POPC   GL147053  31.477  22.842   5.785
 3661POPC   GL247054  31.790  22.756   5.697
 3661POPC   C1A47055  31.405  23.014   6.220
 3661POPC   D2A47056  31.179  22.858   6.593
 3661POPC   C3A47057  31.351  22.969   6.973
 3661POPC   C4A47058  31.717  22.971   7.213
 3661POPC   C1B47059  31.843  22.701   6.152
 3661POPC   C2B47060  31.676  22.707   6.573
 3661POPC   C3B47061  31.714  22.465   6.931
 3661POPC   C4B47062  31.949  22.521   7.292
 3662POPC   NC347063  19.671  23.812   4.988
 3662POPC   PO447064  19.882  23.461   5.369
 3662POPC   GL147065  19.658  23.656   5.690
 3662POPC   GL247066  19.965  23.700   5.873
 3662POPC   C1A47067  19.551  23.663   6.122
 3662POPC   D2A47068  19.722  23.483   6.470
 3662POPC   C3A47069  19.594  23.571   6.897
 3662POPC   C4A47070  19.802  23.702   7.274
 3662POPC   C1B47071  20.074  23.855   6.298
 3662POPC   C2B47072  19.971  23.909   6.755
 3662POPC   C3B47073  20.145  24.047   7.159
 3662POPC   C4B47074  20.256  23.810   7.567
 3663POPC   NC347075  34.489  12.158   5.143
 3663POPC   PO447076  35.094  11.995   5.407
 3663POPC   GL147077  34.810  11.969   5.835
 3663POPC   GL247078  34.506  12.089   5.721
 3663POPC   C1A47079  34.577  11.835   6.216
 3663POPC   D2A47080  34.333  11.903   6.612
 3663POPC   C3A47081  34.650  11.821   6.937
 3663POPC   C4A47082  34.523  11.711   7.361
 3663POPC   C1B47083  34.398  12.290   6.125
 3663POPC   C2B47084  34.605  12.323   6.527
 3663POPC   C3B47085  34.425  12.343   6.908
 3663POPC   C4B47086  34.237  12.045   7.125
 3664POPC   NC347087   3.895  40.698   5.370
 3664POPC   PO447088   3.318  41.066   5.309
 3664POPC   GL147089   3.335  41.008   5.745
 3664POPC   GL247090   3.383  40.682   5.830
 3664POPC   C1A47091   3.278  41.057   6.179
 3664POPC   D2A47092   3.467  40.821   6.478
 3664POPC   C3A47093   3.640  40.884   6.880
 3664POPC   C4A47094   3.597  40.683   7.288
 3664POPC   C1B47095   3.755  40.617   6.113
 3664POPC   C2B47096   3.783  40.438   6.559
 3664POPC   C3B47097   3.999  40.491   6.928
 3664POPC   C4B47098   4.023  40.411   7.363
 3665POPC   NC347099  11.730   2.943   5.292
 3665POPC   PO447100  12.288   2.559   5.444
 3665POPC   GL147101  12.196   2.699   5.820
 3665POPC   GL247102  11.833   2.679   5.825
 3665POPC   C1A47103  12.190   2.585   6.240
 3665POPC   D2A47104  11.834   2.618   6.447
 3665POPC   C3A47105  11.878   2.657   6.873
 3665POPC   C4A47106  12.091   2.749   7.243
 3665POPC   C1B47107  11.919   3.017   6.117
 3665POPC   C2B47108  12.174   3.076   6.462
 3665POPC   C3B47109  12.265   3.057   6.885
 3665POPC   C4B47110  12.295   3.215   7.322
 3666POPC   NC347111  29.340   9.165   5.353
 3666POPC   PO447112  29.227   8.532   5.211
 3666POPC   GL147113  29.240   8.704   5.667
 3666POPC   GL247114  29.000   8.957   5.744
 3666POPC   C1A47115  29.237   8.704   6.153
 3666POPC   D2A47116  29.342   8.819   6.608
 3666POPC   C3A47117  28.977   8.842   6.898
 3666POPC   C4A47118  28.977   8.811   7.363
 3666POPC   C1B47119  29.121   9.226   6.112
 3666POPC   C2B47120  29.058   9.250   6.554
 3666POPC   C3B47121  29.157   9.334   6.992
 3666POPC   C4B47122  29.095   9.302   7.454
 3667POPC   NC347123   8.828  25.497   5.659
 3667POPC   PO447124   8.175  25.313   5.452
 3667POPC   GL147125   8.229  25.128   5.787
 3667POPC   GL247126   8.292  24.781   5.682
 3667POPC   C1A47127   8.260  25.346   6.177
 3667POPC   D2A47128   8.459  25.470   6.568
 3667POPC   C3A47129   8.165  25.650   6.845
 3667POPC   C4A47130   8.296  25.492   7.202
 3667POPC   C1B47131   8.436  24.834   6.134
 3667POPC   C2B47132   8.329  24.974   6.526
 3667POPC   C3B47133   8.108  25.139   6.866
 3667POPC   C4B47134   7.923  25.144   7.309
 3668POPC   NC347135  29.799  40.300   5.029
 3668POPC   PO447136  29.857  40.858   5.291
 3668POPC   GL147137  29.921  40.735   5.700
 3668POPC   GL247138  30.075  41.031   5.830
 3668POPC   C1A47139  29.782  40.735   6.133
 3668POPC   D2A47140  29.904  40.869   6.547
 3668POPC   C3A47141  29.711  40.693   6.915
 3668POPC   C4A47142  29.977  40.485   7.227
 3668POPC   C1B47143  30.302  40.992   6.242
 3668POPC   C2B47144  30.393  41.087   6.669
 3668POPC   C3B47145  30.132  40.978   7.000
 3668POPC   C4B47146  29.860  40.945   7.353
 3669POPC   NC347147   1.384   6.864   5.186
 3669POPC   PO447148   0.843   6.471   5.361
 3669POPC   GL147149   1.083   6.515   5.757
 3669POPC   GL247150   1.450   6.643   5.702
 3669POPC   C1A47151   0.970   6.795   6.112
 3669POPC   D2A47152   0.845   6.986   6.518
 3669POPC   C3A47153   0.974   6.724   6.847
 3669POPC   C4A47154   1.075   6.752   7.261
 3669POPC   C1B47155   1.501   6.807   6.123
 3669POPC   C2B47156   1.546   6.631   6.527
 3669POPC   C3B47157   1.477   6.596   6.944
 3669POPC   C4B47158   1.576   6.880   7.241
 3670POPC   NC347159   5.610  29.688   5.453
 3670POPC   PO447160   6.059  30.222   5.426
 3670POPC   GL147161   5.900  30.021   5.794
 3670POPC   GL247162   5.578  30.215   5.790
 3670POPC   C1A47163   5.935  29.802   6.203
 3670POPC   D2A47164   6.230  29.623   6.518
 3670POPC   C3A47165   6.145  29.747   6.928
 3670POPC   C4A47166   6.107  29.668   7.370
 3670POPC   C1B47167   5.686  30.265   6.234
 3670POPC   C2B47168   5.593  29.971   6.582
 3670POPC   C3B47169   5.642  29.799   7.013
 3670POPC   C4B47170   5.614  30.093   7.360
 3671POPC   NC347171  24.272  13.628   5.478
 3671POPC   PO447172  24.879  13.461   5.282
 3671POPC   GL147173  24.672  13.460   5.747
 3671POPC   GL247174  24.599  13.837   5.826
 3671POPC   C1A47175  24.336  13.295   6.098
 3671POPC   D2A47176  24.136  13.289   6.555
 3671POPC   C3A47177  24.338  13.340   6.969
 3671POPC   C4A47178  24.648  13.648   7.038
 3671POPC   C1B47179  24.397  13.794   6.245
 3671POPC   C2B47180  24.148  13.822   6.650
 3671POPC   C3B47181  24.142  13.896   7.102
 3671POPC   C4B47182  24.040  14.043   7.540
 3672POPC   NC347183  22.238  30.921   5.369
 3672POPC   PO447184  22.593  30.428   5.705
 3672POPC   GL147185  22.402  30.812   5.846
 3672POPC   GL247186  22.058  30.752   5.867
 3672POPC   C1A47187  22.359  30.912   6.268
 3672POPC   D2A47188  21.989  30.807   6.535
 3672POPC   C3A47189  21.994  30.801   6.978
 3672POPC   C4A47190  21.901  30.986   7.361
 3672POPC   C1B47191  22.145  30.444   6.203
 3672POPC   C2B47192  22.357  30.430   6.608
 3672POPC   C3B47193  22.376  30.467   7.051
 3672POPC   C4B47194  22.091  30.438   7.379
 3673POPC   NC347195  21.665  30.114   5.226
 3673POPC   PO447196  21.212  29.709   5.261
 3673POPC   GL147197  21.273  29.935   5.654
 3673POPC   GL247198  21.582  29.767   5.779
 3673POPC   C1A47199  21.251  29.978   6.113
 3673POPC   D2A47200  21.542  29.885   6.455
 3673POPC   C3A47201  21.413  30.050   6.832
 3673POPC   C4A47202  21.184  30.199   7.185
 3673POPC   C1B47203  21.412  29.491   6.157
 3673POPC   C2B47204  21.259  29.502   6.632
 3673POPC   C3B47205  21.320  29.626   7.087
 3673POPC   C4B47206  21.017  29.494   7.396
 3674POPC   NC347207  21.521  31.249   5.172
 3674POPC   PO447208  21.172  31.916   5.304
 3674POPC   GL147209  21.319  31.794   5.795
 3674POPC   GL247210  21.519  31.479   5.976
 3674POPC   C1A47211  21.139  31.700   6.237
 3674POPC   D2A47212  21.151  31.919   6.623
 3674POPC   C3A47213  21.483  31.845   6.931
 3674POPC   C4A47214  21.385  31.718   7.365
 3674POPC   C1B47215  21.226  31.195   6.236
 3674POPC   C2B47216  21.168  31.199   6.685
 3674POPC   C3B47217  21.419  31.056   7.043
 3674POPC   C4B47218  21.314  31.222   7.433
 3675POPC   NC347219  43.588   0.252   5.444
 3675POPC   PO447220  44.217   0.541   5.495
 3675POPC   GL147221  44.132   0.362   5.868
 3675POPC   GL247222  43.786   0.398   5.887
 3675POPC   C1A47223  44.109   0.378   6.292
 3675POPC   D2A47224  44.196   0.635   6.628
 3675POPC   C3A47225  44.095   0.463   7.010
 3675POPC   C4A47226  43.972   0.338   7.433
 3675POPC   C1B47227  43.636   0.557   6.287
 3675POPC   C2B47228  43.733   0.274   6.627
 3675POPC   C3B47229  43.621   0.222   7.022
 3675POPC   C4B47230  43.643   0.619   7.201
 3676POPC   NC347231  10.615  41.029   5.351
 3676POPC   PO447232  10.103  40.615   5.522
 3676POPC   GL147233  10.339  40.879   5.827
 3676POPC   GL247234  10.713  40.925   5.831
 3676POPC   C1A47235  10.417  40.997   6.262
 3676POPC   D2A47236  10.632  41.159   6.614
 3676POPC   C3A47237  10.416  40.997   6.969
 3676POPC   C4A47238  10.294  40.717   7.283
 3676POPC   C1B47239  10.890  40.858   6.242
 3676POPC   C2B47240  10.722  40.648   6.582
 3676POPC   C3B47241  10.504  40.463   6.881
 3676POPC   C4B47242  10.735  40.398   7.243
 3677POPC   NC347243  29.997  43.449   5.306
 3677POPC   PO447244  30.213  42.820   5.426
 3677POPC   GL147245  29.915  42.969   5.766
 3677POPC   GL247246  29.948  43.326   5.815
 3677POPC   C1A47247  29.594  43.051   6.101
 3677POPC   D2A47248  29.700  43.289   6.494
 3677POPC   C3A47249  29.692  43.063   6.883
 3677POPC   C4A47250  29.766  43.218   7.301
 3677POPC   C1B47251  30.090  43.115   6.204
 3677POPC   C2B47252  30.221  43.075   6.594
 3677POPC   C3B47253  30.159  43.259   6.974
 3677POPC   C4B47254  30.257  43.093   7.381
 3678POPC   NC347255  30.675   9.827   5.389
 3678POPC   PO447256  31.142   9.942   5.787
 3678POPC   GL147257  30.792   9.676   5.889
 3678POPC   GL247258  30.469   9.537   5.795
 3678POPC   C1A47259  30.800   9.618   6.311
 3678POPC   D2A47260  30.946   9.874   6.648
 3678POPC   C3A47261  30.884   9.737   7.057
 3678POPC   C4A47262  30.711   9.997   7.404
 3678POPC   C1B47263  30.303   9.682   6.206
 3678POPC   C2B47264  30.428   9.825   6.642
 3678POPC   C3B47265  30.390   9.664   7.083
 3678POPC   C4B47266  30.544   9.530   7.540
 3679POPC   NC347267  18.897   9.210   5.367
 3679POPC   PO447268  19.268   8.677   5.445
 3679POPC   GL147269  19.136   8.960   5.780
 3679POPC   GL247270  19.245   8.761   6.033
 3679POPC   C1A47271  18.962   9.118   6.220
 3679POPC   D2A47272  19.033   9.193   6.705
 3679POPC   C3A47273  18.827   8.877   6.981
 3679POPC   C4A47274  18.881   8.668   7.406
 3679POPC   C1B47275  19.226   8.753   6.485
 3679POPC   C2B47276  19.312   8.692   6.916
 3679POPC   C3B47277  19.287   8.996   7.250
 3679POPC   C4B47278  19.438   9.430   7.241
 3680POPC   NC347279  31.108   8.740   5.520
 3680POPC   PO447280  30.808   9.368   5.439
 3680POPC   GL147281  30.840   9.143   5.820
 3680POPC   GL247282  30.491   9.015   5.846
 3680POPC   C1A47283  30.858   8.777   6.115
 3680POPC   D2A47284  30.818   8.542   6.480
 3680POPC   C3A47285  30.882   8.816   6.839
 3680POPC   C4A47286  31.027   8.874   7.260
 3680POPC   C1B47287  30.529   9.192   6.288
 3680POPC   C2B47288  30.670   9.358   6.732
 3680POPC   C3B47289  30.641   9.186   7.148
 3680POPC   C4B47290  30.508   8.737   7.203
 3681POPC   NC347291  21.514  36.272   5.057
 3681POPC   PO447292  21.036  36.108   5.506
 3681POPC   GL147293  21.396  36.188   5.801
 3681POPC   GL247294  21.661  35.919   5.731
 3681POPC   C1A47295  21.416  36.349   6.255
 3681POPC   D2A47296  21.366  36.432   6.719
 3681POPC   C3A47297  21.126  36.151   6.993
 3681POPC   C4A47298  21.265  36.013   7.416
 3681POPC   C1B47299  21.497  35.802   6.149
 3681POPC   C2B47300  21.351  35.890   6.581
 3681POPC   C3B47301  21.485  35.755   6.989
 3681POPC   C4B47302  21.738  35.826   7.356
 3682POPC   NC347303  28.929  44.920   5.418
 3682POPC   PO447304  29.346  44.352   5.408
 3682POPC   GL147305  29.262  44.677   5.795
 3682POPC   GL247306  29.007  44.972   5.921
 3682POPC   C1A47307  29.136  44.584   6.249
 3682POPC   D2A47308  28.843  44.572   6.620
 3682POPC   C3A47309  29.067  44.377   6.961
 3682POPC   C4A47310  29.506  44.334   7.027
 3682POPC   C1B47311  29.253   0.100   6.270
 3682POPC   C2B47312  29.464  44.892   6.615
 3682POPC   C3B47313  29.375  44.820   7.046
 3682POPC   C4B47314  28.982  44.811   7.257
 3683POPC   NC347315  29.682  40.148   5.522
 3683POPC   PO447316  30.051  39.640   5.293
 3683POPC   GL147317  30.110  39.895   5.734
 3683POPC   GL247318  30.033  40.259   5.865
 3683POPC   C1A47319  30.237  39.958   6.191
 3683POPC   D2A47320  29.984  40.053   6.587
 3683POPC   C3A47321  30.169  40.061   7.015
 3683POPC   C4A47322  30.115  39.823   7.400
 3683POPC   C1B47323  29.698  40.223   6.177
 3683POPC   C2B47324  29.543  40.341   6.574
 3683POPC   C3B47325  29.645  40.181   7.002
 3683POPC   C4B47326  29.701  40.104   7.480
 3684POPC   NC347327  21.148  23.113   5.448
 3684POPC   PO447328  21.764  23.126   5.439
 3684POPC   GL147329  21.491  22.925   5.796
 3684POPC   GL247330  21.126  22.950   5.919
 3684POPC   C1A47331  21.498  22.691   6.189
 3684POPC   D2A47332  21.639  22.758   6.634
 3684POPC   C3A47333  21.914  23.007   6.882
 3684POPC   C4A47334  21.600  23.135   7.198
 3684POPC   C1B47335  20.978  22.798   6.314
 3684POPC   C2B47336  21.154  22.595   6.659
 3684POPC   C3B47337  21.287  22.723   7.043
 3684POPC   C4B47338  21.095  23.074   7.218
 3685POPC   NC347339  15.229  42.905   5.438
 3685POPC   PO447340  14.839  43.506   5.423
 3685POPC   GL147341  14.893  43.185   5.746
 3685POPC   GL247342  15.227  43.259   5.841
 3685POPC   C1A47343  14.955  42.975   6.184
 3685POPC   D2A47344  15.160  42.913   6.638
 3685POPC   C3A47345  15.083  43.143   7.035
 3685POPC   C4A47346  14.882  43.087   7.417
 3685POPC   C1B47347  15.451  43.091   6.219
 3685POPC   C2B47348  15.647  43.086   6.628
 3685POPC   C3B47349  15.578  43.186   7.062
 3685POPC   C4B47350  15.708  43.011   7.465
 3686POPC   NC347351  34.360  27.168   5.188
 3686POPC   PO447352  34.747  27.642   5.476
 3686POPC   GL147353  34.628  27.806   5.870
 3686POPC   GL247354  34.381  28.026   5.750
 3686POPC   C1A47355  34.777  27.857   6.308
 3686POPC   D2A47356  34.874  27.751   6.735
 3686POPC   C3A47357  34.581  27.463   6.892
 3686POPC   C4A47358  34.566  27.312   7.281
 3686POPC   C1B47359  34.277  28.002   6.212
 3686POPC   C2B47360  34.384  27.900   6.664
 3686POPC   C3B47361  34.334  27.874   7.143
 3686POPC   C4B47362  34.490  27.995   7.562
 3687POPC   NC347363  27.085  26.630   5.406
 3687POPC   PO447364  26.883  25.944   5.490
 3687POPC   GL147365  26.907  26.084   5.923
 3687POPC   GL247366  26.757  26.385   5.856
 3687POPC   C1A47367  26.849  26.045   6.384
 3687POPC   D2A47368  26.475  25.851   6.577
 3687POPC   C3A47369  26.564  25.701   6.975
 3687POPC   C4A47370  26.811  25.815   7.303
 3687POPC   C1B47371  26.630  26.586   6.251
 3687POPC   C2B47372  26.828  26.482   6.646
 3687POPC   C3B47373  27.055  26.340   6.972
 3687POPC   C4B47374  26.864  26.303   7.357
 3688POPC   NC347375  17.423  24.292   5.476
 3688POPC   PO447376  17.726  24.846   5.222
 3688POPC   GL147377  17.768  24.715   5.728
 3688POPC   GL247378  17.555  24.445   5.925
 3688POPC   C1A47379  17.790  24.748   6.231
 3688POPC   D2A47380  17.686  24.404   6.499
 3688POPC   C3A47381  17.798  24.478   6.918
 3688POPC   C4A47382  17.637  24.342   7.293
 3688POPC   C1B47383  17.207  24.373   6.209
 3688POPC   C2B47384  17.115  24.446   6.651
 3688POPC   C3B47385  17.013  24.126   6.946
 3688POPC   C4B47386  17.190  24.095   7.321
 3689POPC   NC347387  38.689  40.144   5.396
 3689POPC   PO447388  38.239  39.692   5.289
 3689POPC   GL147389  38.453  39.782   5.683
 3689POPC   GL247390  38.498  39.490   5.840
 3689POPC   C1A47391  38.570  40.040   6.058
 3689POPC   D2A47392  38.404  40.227   6.458
 3689POPC   C3A47393  38.584  40.098   6.859
 3689POPC   C4A47394  38.656  40.185   7.296
 3689POPC   C1B47395  38.240  39.657   6.169
 3689POPC   C2B47396  38.107  39.641   6.579
 3689POPC   C3B47397  38.168  39.835   6.985
 3689POPC   C4B47398  38.328  39.822   7.419
 3690POPC   NC347399  22.165  41.281   5.610
 3690POPC   PO447400  22.109  40.639   5.295
 3690POPC   GL147401  21.956  40.566   5.699
 3690POPC   GL247402  22.292  40.447   5.739
 3690POPC   C1A47403  21.814  40.761   6.101
 3690POPC   D2A47404  21.935  40.651   6.530
 3690POPC   C3A47405  21.846  40.893   6.915
 3690POPC   C4A47406  21.903  41.156   7.272
 3690POPC   C1B47407  22.341  40.727   6.107
 3690POPC   C2B47408  22.406  40.883   6.525
 3690POPC   C3B47409  22.302  40.668   6.896
 3690POPC   C4B47410  22.288  40.782   7.259
 3691POPC   NC347411  24.040  33.281   5.443
 3691POPC   PO447412  23.446  32.941   5.471
 3691POPC   GL147413  23.647  33.083   5.854
 3691POPC   GL247414  23.948  32.875   5.779
 3691POPC   C1A47415  23.546  33.216   6.322
 3691POPC   D2A47416  23.431  33.188   6.802
 3691POPC   C3A47417  23.752  33.377   7.105
 3691POPC   C4A47418  24.154  33.193   7.257
 3691POPC   C1B47419  23.920  32.850   6.233
 3691POPC   C2B47420  24.022  32.678   6.643
 3691POPC   C3B47421  23.847  32.853   7.038
 3691POPC   C4B47422  23.929  32.765   7.494
 3692POPC   NC347423   7.968  43.335   5.462
 3692POPC   PO447424   8.353  42.723   5.506
 3692POPC   GL147425   8.272  43.020   5.843
 3692POPC   GL247426   8.332  43.363   5.853
 3692POPC   C1A47427   8.338  43.046   6.292
 3692POPC   D2A47428   8.184  42.746   6.610
 3692POPC   C3A47429   8.095  42.799   7.053
 3692POPC   C4A47430   8.443  42.821   7.348
 3692POPC   C1B47431   7.986  43.397   6.183
 3692POPC   C2B47432   7.946  43.216   6.602
 3692POPC   C3B47433   8.151  43.313   6.964
 3692POPC   C4B47434   8.081  43.610   7.270
 3693POPC   NC347435  33.087   6.261   5.594
 3693POPC   PO447436  33.061   6.930   5.367
 3693POPC   GL147437  32.998   6.720   5.800
 3693POPC   GL247438  32.779   6.901   5.992
 3693POPC   C1A47439  33.079   6.422   6.209
 3693POPC   D2A47440  32.980   6.175   6.566
 3693POPC   C3A47441  32.875   6.384   6.943
 3693POPC   C4A47442  33.086   6.483   7.372
 3693POPC   C1B47443  33.182   6.910   6.232
 3693POPC   C2B47444  33.267   6.743   6.627
 3693POPC   C3B47445  33.110   6.851   7.013
 3693POPC   C4B47446  33.221   6.992   7.414
 3694POPC   NC347447  18.415  19.361   5.463
 3694POPC   PO447448  18.006  18.861   5.312
 3694POPC   GL147449  18.185  18.994   5.725
 3694POPC   GL247450  18.539  18.933   5.760
 3694POPC   C1A47451  18.258  19.190   6.124
 3694POPC   D2A47452  18.370  19.044   6.547
 3694POPC   C3A47453  18.156  18.817   6.857
 3694POPC   C4A47454  18.213  19.140   7.188
 3694POPC   C1B47455  18.479  18.716   6.160
 3694POPC   C2B47456  18.663  18.633   6.567
 3694POPC   C3B47457  18.646  18.813   6.971
 3694POPC   C4B47458  18.456  18.621   7.320
 3695POPC   NC347459  37.365  28.091   5.606
 3695POPC   PO447460  37.698  27.701   5.139
 3695POPC   GL147461  37.683  27.639   5.618
 3695POPC   GL247462  37.816  27.307   5.666
 3695POPC   C1A47463  37.651  27.576   6.104
 3695POPC   D2A47464  37.612  27.358   6.527
 3695POPC   C3A47465  37.613  27.569   6.957
 3695POPC   C4A47466  37.791  27.762   7.357
 3695POPC   C1B47467  38.116  27.405   5.952
 3695POPC   C2B47468  38.095  27.453   6.379
 3695POPC   C3B47469  38.040  27.330   6.797
 3695POPC   C4B47470  38.049  27.290   7.229
 3696POPC   NC347471   5.241  15.983   5.290
 3696POPC   PO447472   4.715  15.666   5.535
 3696POPC   GL147473   4.927  16.069   5.689
 3696POPC   GL247474   5.281  16.014   5.792
 3696POPC   C1A47475   4.969  16.276   6.100
 3696POPC   D2A47476   4.905  15.984   6.451
 3696POPC   C3A47477   5.089  16.075   6.853
 3696POPC   C4A47478   4.803  16.161   7.186
 3696POPC   C1B47479   5.426  16.005   6.195
 3696POPC   C2B47480   5.331  15.700   6.485
 3696POPC   C3B47481   5.337  15.630   6.899
 3696POPC   C4B47482   5.297  15.628   7.324
 3697POPC   NC347483   1.286  16.298   5.448
 3697POPC   PO447484   1.338  15.623   5.343
 3697POPC   GL147485   1.099  15.835   5.733
 3697POPC   GL247486   0.879  16.167   5.741
 3697POPC   C1A47487   1.264  16.080   6.110
 3697POPC   D2A47488   1.499  16.213   6.499
 3697POPC   C3A47489   1.515  15.832   6.782
 3697POPC   C4A47490   1.387  15.721   7.211
 3697POPC   C1B47491   0.773  16.027   6.180
 3697POPC   C2B47492   0.989  16.202   6.549
 3697POPC   C3B47493   1.192  16.187   6.957
 3697POPC   C4B47494   0.911  15.956   7.219
 3698POPC   NC347495  12.244  31.733   5.440
 3698POPC   PO447496  11.752  31.216   5.403
 3698POPC   GL147497  12.066  31.344   5.746
 3698POPC   GL247498  12.375  31.156   5.816
 3698POPC   C1A47499  12.017  31.625   6.099
 3698POPC   D2A47500  11.815  31.531   6.491
 3698POPC   C3A47501  11.941  31.309   6.860
 3698POPC   C4A47502  12.037  31.536   7.228
 3698POPC   C1B47503  12.432  31.367   6.197
 3698POPC   C2B47504  12.353  31.537   6.618
 3698POPC   C3B47505  12.499  31.435   7.031
 3698POPC   C4B47506  12.473  31.435   7.528
 3699POPC   NC347507  40.591   0.927   5.466
 3699POPC   PO447508  40.901   1.554   5.526
 3699POPC   GL147509  40.854   1.375   5.948
 3699POPC   GL247510  40.827   1.017   5.927
 3699POPC   C1A47511  40.668   1.242   6.359
 3699POPC   D2A47512  40.724   1.416   6.764
 3699POPC   C3A47513  40.694   1.108   7.077
 3699POPC   C4A47514  40.744   1.046   7.545
 3699POPC   C1B47515  41.142   1.066   6.280
 3699POPC   C2B47516  41.238   1.201   6.694
 3699POPC   C3B47517  41.199   1.035   7.102
 3699POPC   C4B47518  41.057   1.375   7.335
 3700POPC   NC347519   7.926  25.879   5.459
 3700POPC   PO447520   8.471  26.253   5.285
 3700POPC   GL147521   8.322  26.046   5.724
 3700POPC   GL247522   8.362  25.688   5.770
 3700POPC   C1A47523   8.140  26.090   6.151
 3700POPC   D2A47524   7.852  26.060   6.480
 3700POPC   C3A47525   7.930  26.101   6.920
 3700POPC   C4A47526   8.146  25.972   7.297
 3700POPC   C1B47527   8.571  25.805   6.188
 3700POPC   C2B47528   8.502  25.986   6.627
 3700POPC   C3B47529   8.622  25.880   7.074
 3700POPC   C4B47530   8.545  25.818   7.555
 3701POPC   NC347531  15.427  36.723   5.425
 3701POPC   PO447532  14.890  37.158   5.537
 3701POPC   GL147533  15.299  37.118   5.726
 3701POPC   GL247534  15.164  36.790   5.856
 3701POPC   C1A47535  15.433  37.127   6.156
 3701POPC   D2A47536  15.024  36.943   6.386
 3701POPC   C3A47537  14.980  36.927   6.832
 3701POPC   C4A47538  14.728  36.992   7.196
 3701POPC   C1B47539  15.380  36.633   6.199
 3701POPC   C2B47540  15.485  36.828   6.608
 3701POPC   C3B47541  15.439  36.622   7.018
 3701POPC   C4B47542  15.452  36.587   7.492
 3702POPC   NC347543   8.065  23.964   5.517
 3702POPC   PO447544   8.041  23.303   5.493
 3702POPC   GL147545   7.987  23.598   5.856
 3702POPC   GL247546   8.352  23.707   5.837
 3702POPC   C1A47547   8.064  23.920   6.203
 3702POPC   D2A47548   8.374  24.047   6.519
 3702POPC   C3A47549   8.350  23.809   6.871
 3702POPC   C4A47550   8.023  23.707   7.187
 3702POPC   C1B47551   8.595  23.697   6.194
 3702POPC   C2B47552   8.617  23.427   6.548
 3702POPC   C3B47553   8.476  23.316   6.953
 3702POPC   C4B47554   8.544  23.564   7.269
 3703POPC   NC347555   1.097  29.221   5.469
 3703POPC   PO447556   1.701  29.081   5.259
 3703POPC   GL147557   1.510  29.058   5.691
 3703POPC   GL247558   1.315  28.751   5.690
 3703POPC   C1A47559   1.392  29.268   6.094
 3703POPC   D2A47560   1.324  29.530   6.482
 3703POPC   C3A47561   1.363  29.309   6.870
 3703POPC   C4A47562   1.130  29.292   7.247
 3703POPC   C1B47563   1.100  28.804   6.082
 3703POPC   C2B47564   1.189  28.984   6.489
 3703POPC   C3B47565   0.987  28.934   6.894
 3703POPC   C4B47566   1.077  28.757   7.296
 3704POPC   NC347567  30.718  16.579   5.142
 3704POPC   PO447568  30.768  16.021   5.487
 3704POPC   GL147569  30.800  15.905   5.917
 3704POPC   GL247570  30.966  15.610   5.871
 3704POPC   C1A47571  30.669  15.701   6.311
 3704POPC   D2A47572  30.456  15.730   6.699
 3704POPC   C3A47573  30.666  15.976   6.963
 3704POPC   C4A47574  30.767  16.140   7.367
 3704POPC   C1B47575  31.179  15.612   6.291
 3704POPC   C2B47576  31.036  15.745   6.683
 3704POPC   C3B47577  31.130  15.841   7.114
 3704POPC   C4B47578  31.095  15.802   7.568
 3705POPC   NC347579  24.196  30.144   4.945
 3705POPC   PO447580  24.563  30.114   5.480
 3705POPC   GL147581  24.528  29.860   5.838
 3705POPC   GL247582  24.348  30.070   6.015
 3705POPC   C1A47583  24.709  29.755   6.218
 3705POPC   D2A47584  24.437  29.934   6.515
 3705POPC   C3A47585  24.411  29.690   6.860
 3705POPC   C4A47586  24.760  29.704   7.116
 3705POPC   C1B47587  24.723  30.269   6.228
 3705POPC   C2B47588  24.873  30.136   6.630
 3705POPC   C3B47589  24.590  30.171   6.945
 3705POPC   C4B47590  24.669  30.519   7.150
 3706POPC   NC347591   7.778  24.537   5.362
 3706POPC   PO447592   8.386  24.290   5.460
 3706POPC   GL147593   8.285  24.270   5.887
 3706POPC   GL247594   7.964  24.373   5.820
 3706POPC   C1A47595   8.164  24.444   6.296
 3706POPC   D2A47596   8.236  24.520   6.738
 3706POPC   C3A47597   8.102  24.224   7.049
 3706POPC   C4A47598   8.376  24.035   7.361
 3706POPC   C1B47599   7.883  24.783   6.036
 3706POPC   C2B47600   7.841  24.830   6.495
 3706POPC   C3B47601   7.822  24.718   6.947
 3706POPC   C4B47602   8.031  24.643   7.326
 3707POPC   NC347603  37.237  14.327   5.515
 3707POPC   PO447604  37.832  14.525   5.456
 3707POPC   GL147605  37.581  14.561   5.809
 3707POPC   GL247606  37.305  14.802   5.898
 3707POPC   C1A47607  37.711  14.579   6.188
 3707POPC   D2A47608  37.674  14.745   6.569
 3707POPC   C3A47609  37.884  14.487   6.860
 3707POPC   C4A47610  37.678  14.270   7.220
 3707POPC   C1B47611  37.225  14.463   6.224
 3707POPC   C2B47612  37.282  14.362   6.677
 3707POPC   C3B47613  37.168  14.245   7.128
 3707POPC   C4B47614  37.361  13.972   7.477
 3708POPC   NC347615  18.048  21.085   5.444
 3708POPC   PO447616  18.512  21.586   5.507
 3708POPC   GL147617  18.355  21.376   5.863
 3708POPC   GL247618  18.414  21.014   5.810
 3708POPC   C1A47619  18.427  21.457   6.307
 3708POPC   D2A47620  18.503  21.710   6.689
 3708POPC   C3A47621  18.388  21.475   7.046
 3708POPC   C4A47622  18.384  21.708   7.405
 3708POPC   C1B47623  18.101  21.014   6.161
 3708POPC   C2B47624  18.055  21.201   6.574
 3708POPC   C3B47625  18.149  21.025   6.967
 3708POPC   C4B47626  18.094  21.144   7.368
 3709POPC   NC347627  32.778  37.783   5.638
 3709POPC   PO447628  33.297  37.571   5.394
 3709POPC   GL147629  33.415  37.740   5.783
 3709POPC   GL247630  33.427  37.432   5.905
 3709POPC   C1A47631  33.358  37.852   6.231
 3709POPC   D2A47632  33.519  37.834   6.662
 3709POPC   C3A47633  33.188  37.747   6.962
 3709POPC   C4A47634  32.837  37.827   7.197
 3709POPC   C1B47635  33.050  37.272   6.096
 3709POPC   C2B47636  33.005  37.147   6.523
 3709POPC   C3B47637  33.200  37.226   6.918
 3709POPC   C4B47638  33.008  37.350   7.282
 3710POPC   NC347639   6.910   4.233   5.446
 3710POPC   PO447640   6.265   4.241   5.187
 3710POPC   GL147641   6.434   4.264   5.691
 3710POPC   GL247642   6.714   4.126   5.907
 3710POPC   C1A47643   6.471   4.519   6.109
 3710POPC   D2A47644   6.726   4.378   6.475
 3710POPC   C3A47645   6.577   4.417   6.905
 3710POPC   C4A47646   6.223   4.347   7.203
 3710POPC   C1B47647   7.077   4.140   6.182
 3710POPC   C2B47648   7.130   4.086   6.631
 3710POPC   C3B47649   7.030   4.120   7.059
 3710POPC   C4B47650   6.664   4.083   7.294
 3711POPC   NC347651  37.313  20.857   5.382
 3711POPC   PO447652  37.804  20.449   5.550
 3711POPC   GL147653  37.619  20.736   5.771
 3711POPC   GL247654  37.355  20.501   5.812
 3711POPC   C1A47655  37.763  20.922   6.126
 3711POPC   D2A47656  37.984  20.760   6.498
 3711POPC   C3A47657  37.706  20.752   6.799
 3711POPC   C4A47658  37.569  20.996   7.127
 3711POPC   C1B47659  37.563  20.469   6.216
 3711POPC   C2B47660  37.712  20.247   6.537
 3711POPC   C3B47661  37.764  20.263   6.950
 3711POPC   C4B47662  37.487  20.415   7.242
 3712POPC   NC347663  35.246  10.724   5.409
 3712POPC   PO447664  35.717  10.189   5.519
 3712POPC   GL147665  35.443  10.426   5.831
 3712POPC   GL247666  35.514  10.796   5.843
 3712POPC   C1A47667  35.237  10.580   6.245
 3712POPC   D2A47668  35.135  10.738   6.689
 3712POPC   C3A47669  35.187  10.388   6.980
 3712POPC   C4A47670  35.484  10.321   7.319
 3712POPC   C1B47671  35.727  10.739   6.249
 3712POPC   C2B47672  35.609  10.552   6.633
 3712POPC   C3B47673  35.588  10.722   7.032
 3712POPC   C4B47674  35.885  10.671   7.369
 3713POPC   NC347675  44.395   9.773   5.303
 3713POPC   PO447676  44.865   9.318   5.344
 3713POPC   GL147677  44.785   9.624   5.667
 3713POPC   GL247678  44.547   9.467   5.882
 3713POPC   C1A47679  44.871   9.824   6.099
 3713POPC   D2A47680  44.735   9.883   6.555
 3713POPC   C3A47681  44.923   9.846   6.990
 3713POPC   C4A47682  44.653  10.093   7.236
 3713POPC   C1B47683  44.787   9.363   6.303
 3713POPC   C2B47684  44.797   9.405   6.778
 3713POPC   C3B47685  44.525   9.535   7.161
 3713POPC   C4B47686  44.420   9.313   7.575
 3714POPC   NC347687  11.740  11.590   5.546
 3714POPC   PO447688  12.266  11.869   5.136
 3714POPC   GL147689  12.149  11.891   5.714
 3714POPC   GL247690  12.156  12.260   5.838
 3714POPC   C1A47691  12.081  11.870   6.179
 3714POPC   D2A47692  12.265  12.022   6.620
 3714POPC   C3A47693  12.151  11.802   7.027
 3714POPC   C4A47694  12.077  11.788   7.483
 3714POPC   C1B47695  12.091  12.379   6.266
 3714POPC   C2B47696  11.827  12.316   6.626
 3714POPC   C3B47697  11.841  12.216   7.050
 3714POPC   C4B47698  12.107  12.345   7.381
 3715POPC   NC347699   5.455  25.596   5.508
 3715POPC   PO447700   4.887  25.331   5.440
 3715POPC   GL147701   5.163  25.284   5.825
 3715POPC   GL247702   5.355  25.538   5.995
 3715POPC   C1A47703   5.202  25.118   6.230
 3715POPC   D2A47704   5.055  24.906   6.572
 3715POPC   C3A47705   4.894  25.216   6.847
 3715POPC   C4A47706   4.928  25.136   7.285
 3715POPC   C1B47707   5.608  25.420   6.291
 3715POPC   C2B47708   5.541  25.156   6.616
 3715POPC   C3B47709   5.353  25.049   6.971
 3715POPC   C4B47710   5.426  25.081   7.363
 3716POPC   NC347711  10.770  13.556   5.427
 3716POPC   PO447712  10.297  13.993   5.459
 3716POPC   GL147713  10.318  13.594   5.747
 3716POPC   GL247714  10.616  13.653   5.898
 3716POPC   C1A47715  10.353  13.369   6.208
 3716POPC   D2A47716  10.654  13.327   6.609
 3716POPC   C3A47717  10.417  13.380   7.005
 3716POPC   C4A47718  10.265  13.619   7.379
 3716POPC   C1B47719  10.865  13.619   6.255
 3716POPC   C2B47720  10.871  13.813   6.658
 3716POPC   C3B47721  10.918  13.614   7.039
 3716POPC   C4B47722  10.853  13.228   7.241
 3717POPC   NC347723  27.391  19.209   5.216
 3717POPC   PO447724  27.964  18.975   5.216
 3717POPC   GL147725  27.681  19.082   5.603
 3717POPC   GL247726  27.592  18.806   5.829
 3717POPC   C1A47727  27.587  19.249   6.036
 3717POPC   D2A47728  27.468  19.001   6.383
 3717POPC   C3A47729  27.449  19.126   6.785
 3717POPC   C4A47730  27.258  18.970   7.132
 3717POPC   C1B47731  27.900  18.809   6.178
 3717POPC   C2B47732  27.878  18.768   6.640
 3717POPC   C3B47733  27.777  18.862   7.083
 3717POPC   C4B47734  27.918  18.685   7.456
 3718POPC   NC347735  19.790  21.064   5.513
 3718POPC   PO447736  19.979  21.664   5.254
 3718POPC   GL147737  20.060  21.486   5.656
 3718POPC   GL247738  19.765  21.549   5.774
 3718POPC   C1A47739  20.007  21.274   6.114
 3718POPC   D2A47740  19.736  21.252   6.497
 3718POPC   C3A47741  19.790  21.125   6.933
 3718POPC   C4A47742  19.788  21.011   7.381
 3718POPC   C1B47743  20.087  21.778   6.067
 3718POPC   C2B47744  20.134  21.627   6.488
 3718POPC   C3B47745  19.927  21.625   6.870
 3718POPC   C4B47746  20.047  21.443   7.261
 3719POPC   NC347747  30.230  33.500   5.601
 3719POPC   PO447748  29.658  33.777   5.363
 3719POPC   GL147749  29.825  33.721   5.805
 3719POPC   GL247750  29.986  34.036   5.948
 3719POPC   C1A47751  29.663  33.782   6.235
 3719POPC   D2A47752  29.406  33.667   6.577
 3719POPC   C3A47753  29.609  33.513   6.943
 3719POPC   C4A47754  29.968  33.754   7.095
 3719POPC   C1B47755  30.172  33.695   6.221
 3719POPC   C2B47756  30.171  33.488   6.627
 3719POPC   C3B47757  30.433  33.578   6.979
 3719POPC   C4B47758  30.326  33.505   7.391
 3720POPC   NC347759  20.837  29.645   5.534
 3720POPC   PO447760  20.532  28.996   5.313
 3720POPC   GL147761  20.632  28.979   5.744
 3720POPC   GL247762  20.712  28.697   5.866
 3720POPC   C1A47763  20.675  29.158   6.181
 3720POPC   D2A47764  20.765  29.371   6.605
 3720POPC   C3A47765  20.669  29.205   7.014
 3720POPC   C4A47766  20.495  29.373   7.394
 3720POPC   C1B47767  20.833  28.669   6.249
 3720POPC   C2B47768  20.814  28.852   6.642
 3720POPC   C3B47769  20.901  28.721   7.055
 3720POPC   C4B47770  20.871  28.979   7.426
 3721POPC   NC347771  24.663  11.100   5.433
 3721POPC   PO447772  24.353  11.666   5.525
 3721POPC   GL147773  24.576  11.460   5.823
 3721POPC   GL247774  24.358  11.187   5.823
 3721POPC   C1A47775  24.727  11.329   6.214
 3721POPC   D2A47776  24.558  11.160   6.582
 3721POPC   C3A47777  24.567  11.327   7.011
 3721POPC   C4A47778  24.953  11.460   7.266
 3721POPC   C1B47779  24.209  11.393   6.177
 3721POPC   C2B47780  24.079  11.330   6.566
 3721POPC   C3B47781  24.061  11.538   6.944
 3721POPC   C4B47782  24.110  11.278   7.284
 3722POPC   NC347783  14.757  44.650   5.606
 3722POPC   PO447784  15.255  44.188   5.336
 3722POPC   GL147785  15.376  44.413   5.793
 3722POPC   GL247786  15.217  44.740   5.845
 3722POPC   C1A47787  15.334  44.478   6.254
 3722POPC   D2A47788  15.525  44.613   6.624
 3722POPC   C3A47789  15.467  44.448   7.020
 3722POPC   C4A47790  15.509  44.795   7.256
 3722POPC   C1B47791  15.076  44.939   6.273
 3722POPC   C2B47792  14.918   0.158   6.673
 3722POPC   C3B47793  15.045  44.873   7.018
 3722POPC   C4B47794  14.826  44.484   7.074
 3723POPC   NC347795  20.812  31.619   5.385
 3723POPC   PO447796  21.304  31.357   5.550
 3723POPC   GL147797  20.967  31.402   5.819
 3723POPC   GL247798  20.798  31.756   5.873
 3723POPC   C1A47799  20.711  31.211   6.106
 3723POPC   D2A47800  20.732  31.409   6.484
 3723POPC   C3A47801  20.682  31.235   6.877
 3723POPC   C4A47802  20.773  31.423   7.272
 3723POPC   C1B47803  20.405  31.651   6.103
 3723POPC   C2B47804  20.230  31.550   6.505
 3723POPC   C3B47805  20.401  31.660   6.897
 3723POPC   C4B47806  20.285  31.622   7.308
 3724POPC   NC347807  41.442  44.526   5.436
 3724POPC   PO447808  42.002  44.274   5.631
 3724POPC   GL147809  41.743  44.588   5.880
 3724POPC   GL247810  41.419  44.770   5.872
 3724POPC   C1A47811  41.724  44.865   6.248
 3724POPC   D2A47812  41.594  44.697   6.635
 3724POPC   C3A47813  41.856  44.742   6.969
 3724POPC   C4A47814  41.733  44.386   7.158
 3724POPC   C1B47815  41.223  44.613   6.250
 3724POPC   C2B47816  41.095  44.784   6.660
 3724POPC   C3B47817  41.235  44.648   7.055
 3724POPC   C4B47818  41.085  44.841   7.445
 3725POPC   NC347819  42.870  28.290   5.281
 3725POPC   PO447820  43.243  28.822   5.392
 3725POPC   GL147821  43.198  28.455   5.716
 3725POPC   GL247822  42.933  28.605   5.875
 3725POPC   C1A47823  43.087  28.138   6.118
 3725POPC   D2A47824  42.853  28.006   6.522
 3725POPC   C3A47825  43.021  28.036   6.973
 3725POPC   C4A47826  43.181  28.228   7.354
 3725POPC   C1B47827  43.269  28.593   6.240
 3725POPC   C2B47828  43.125  28.427   6.656
 3725POPC   C3B47829  43.005  28.599   7.069
 3725POPC   C4B47830  42.906  28.619   7.552
 3726POPC   NC347831  32.807  18.889   5.465
 3726POPC   PO447832  33.030  18.286   5.488
 3726POPC   GL147833  33.117  18.326   5.888
 3726POPC   GL247834  33.124  18.704   5.822
 3726POPC   C1A47835  33.372  18.072   6.220
 3726POPC   D2A47836  33.276  17.980   6.653
 3726POPC   C3A47837  33.028  18.298   6.899
 3726POPC   C4A47838  33.101  18.303   7.334
 3726POPC   C1B47839  32.896  18.782   6.203
 3726POPC   C2B47840  33.002  18.750   6.643
 3726POPC   C3B47841  32.817  18.785   7.081
 3726POPC   C4B47842  32.757  18.601   7.519
 3727POPC   NC347843  34.481  39.227   5.214
 3727POPC   PO447844  34.653  38.607   5.191
 3727POPC   GL147845  34.706  38.936   5.587
 3727POPC   GL247846  34.415  39.177   5.743
 3727POPC   C1A47847  34.755  38.980   6.073
 3727POPC   D2A47848  34.890  38.995   6.536
 3727POPC   C3A47849  34.705  39.118   6.921
 3727POPC   C4A47850  34.588  38.973   7.317
 3727POPC   C1B47851  34.466  39.388   6.191
 3727POPC   C2B47852  34.550  39.550   6.624
 3727POPC   C3B47853  34.386  39.515   7.062
 3727POPC   C4B47854  34.097  39.166   7.159
 3728POPC   NC347855  24.213   0.463   5.268
 3728POPC   PO447856  24.446   1.041   5.477
 3728POPC   GL147857  24.485   0.634   5.700
 3728POPC   GL247858  24.235   0.339   5.770
 3728POPC   C1A47859  24.558   0.545   6.136
 3728POPC   D2A47860  24.587   0.282   6.493
 3728POPC   C3A47861  24.780   0.453   6.855
 3728POPC   C4A47862  24.513   0.364   7.177
 3728POPC   C1B47863  24.214   0.040   6.132
 3728POPC   C2B47864  24.269  44.882   6.560
 3728POPC   C3B47865  24.152   0.026   6.997
 3728POPC   C4B47866  24.201  44.975   7.455
 3729POPC   NC347867   9.675  27.677   5.276
 3729POPC   PO447868  10.247  27.763   5.485
 3729POPC   GL147869   9.891  27.563   5.754
 3729POPC   GL247870   9.545  27.716   5.759
 3729POPC   C1A47871   9.728  27.386   6.167
 3729POPC   D2A47872   9.941  27.313   6.577
 3729POPC   C3A47873   9.916  27.561   6.927
 3729POPC   C4A47874   9.588  27.476   7.213
 3729POPC   C1B47875   9.677  27.888   6.143
 3729POPC   C2B47876   9.700  27.941   6.575
 3729POPC   C3B47877   9.633  27.978   7.024
 3729POPC   C4B47878   9.837  27.869   7.403
 3730POPC   NC347879  34.441  38.251   4.999
 3730POPC   PO447880  34.965  38.192   5.481
 3730POPC   GL147881  34.816  38.472   5.845
 3730POPC   GL247882  34.448  38.607   5.877
 3730POPC   C1A47883  34.778  38.515   6.277
 3730POPC   D2A47884  34.983  38.484   6.634
 3730POPC   C3A47885  34.722  38.565   6.926
 3730POPC   C4A47886  34.574  38.423   7.313
 3730POPC   C1B47887  34.328  38.279   6.158
 3730POPC   C2B47888  34.501  38.168   6.554
 3730POPC   C3B47889  34.310  38.222   6.915
 3730POPC   C4B47890  34.276  38.016   7.297
 3731POPC   NC347891  26.546  40.678   5.539
 3731POPC   PO447892  26.845  40.092   5.459
 3731POPC   GL147893  26.654  40.138   5.835
 3731POPC   GL247894  26.371  39.883   5.821
 3731POPC   C1A47895  26.741  39.928   6.200
 3731POPC   D2A47896  27.004  39.874   6.525
 3731POPC   C3A47897  26.975  40.098   6.909
 3731POPC   C4A47898  27.048  39.954   7.338
 3731POPC   C1B47899  26.255  39.801   6.271
 3731POPC   C2B47900  26.496  39.810   6.673
 3731POPC   C3B47901  26.603  39.832   7.124
 3731POPC   C4B47902  26.592  40.022   7.540
 3732POPC   NC347903  12.625   9.303   5.393
 3732POPC   PO447904  12.738   9.988   5.456
 3732POPC   GL147905  12.781   9.807   5.871
 3732POPC   GL247906  12.890   9.461   5.813
 3732POPC   C1A47907  12.837   9.831   6.322
 3732POPC   D2A47908  12.939   9.742   6.745
 3732POPC   C3A47909  12.965  10.046   7.066
 3732POPC   C4A47910  12.814   9.903   7.449
 3732POPC   C1B47911  12.695   9.311   6.204
 3732POPC   C2B47912  12.567   9.405   6.658
 3732POPC   C3B47913  12.702   9.398   7.121
 3732POPC   C4B47914  12.536   9.494   7.549
 3733POPC   NC347915  17.896  37.728   5.265
 3733POPC   PO447916  17.240  37.666   5.328
 3733POPC   GL147917  17.415  37.674   5.744
 3733POPC   GL247918  17.709  37.900   5.723
 3733POPC   C1A47919  17.227  37.735   6.169
 3733POPC   D2A47920  17.027  37.990   6.512
 3733POPC   C3A47921  17.223  37.882   6.925
 3733POPC   C4A47922  17.459  37.746   7.280
 3733POPC   C1B47923  17.761  37.802   6.162
 3733POPC   C2B47924  17.603  37.708   6.586
 3733POPC   C3B47925  17.850  37.823   6.968
 3733POPC   C4B47926  17.948  37.932   7.422
 3734POPC   NC347927  26.704   7.695   5.571
 3734POPC   PO447928  27.056   7.252   5.382
 3734POPC   GL147929  26.911   7.277   5.785
 3734POPC   GL247930  26.547   7.237   5.743
 3734POPC   C1A47931  26.831   7.391   6.207
 3734POPC   D2A47932  27.027   7.398   6.603
 3734POPC   C3A47933  26.803   7.646   6.870
 3734POPC   C4A47934  26.694   7.646   7.265
 3734POPC   C1B47935  26.647   6.917   6.055
 3734POPC   C2B47936  26.776   6.944   6.480
 3734POPC   C3B47937  26.686   7.120   6.884
 3734POPC   C4B47938  26.989   7.227   7.160
 3735POPC   NC347939  23.799  35.645   5.390
 3735POPC   PO447940  24.099  35.057   5.293
 3735POPC   GL147941  23.821  35.162   5.699
 3735POPC   GL247942  23.752  35.521   5.859
 3735POPC   C1A47943  23.692  35.114   6.139
 3735POPC   D2A47944  23.543  35.236   6.548
 3735POPC   C3A47945  23.468  34.975   6.894
 3735POPC   C4A47946  23.674  35.264   7.180
 3735POPC   C1B47947  23.428  35.580   6.187
 3735POPC   C2B47948  23.432  35.845   6.534
 3735POPC   C3B47949  23.644  35.730   6.893
 3735POPC   C4B47950  23.394  35.718   7.239
 3736POPC   NC347951  34.696  33.090   5.307
 3736POPC   PO447952  34.180  32.768   5.725
 3736POPC   GL147953  34.590  32.819   5.807
 3736POPC   GL247954  34.542  33.151   5.861
 3736POPC   C1A47955  34.743  32.832   6.226
 3736POPC   D2A47956  34.550  32.732   6.598
 3736POPC   C3A47957  34.502  32.927   6.980
 3736POPC   C4A47958  34.806  32.795   7.243
 3736POPC   C1B47959  34.811  33.321   6.160
 3736POPC   C2B47960  34.671  33.235   6.584
 3736POPC   C3B47961  34.911  33.231   6.957
 3736POPC   C4B47962  34.761  33.283   7.385
 3737POPC   NC347963   6.016  44.971   5.658
 3737POPC   PO447964   5.658   0.372   5.302
 3737POPC   GL147965   5.839   0.465   5.731
 3737POPC   GL247966   6.209   0.458   5.749
 3737POPC   C1A47967   5.885   0.611   6.196
 3737POPC   D2A47968   5.644   0.619   6.623
 3737POPC   C3A47969   5.752   0.438   7.042
 3737POPC   C4A47970   5.644   0.715   7.394
 3737POPC   C1B47971   6.312   0.328   6.184
 3737POPC   C2B47972   6.136   0.361   6.609
 3737POPC   C3B47973   6.280   0.493   7.001
 3737POPC   C4B47974   6.103   0.467   7.440
 3738POPC   NC347975   1.566   5.211   5.501
 3738POPC   PO447976   2.228   5.134   5.435
 3738POPC   GL147977   1.995   5.070   5.772
 3738POPC   GL247978   1.738   4.788   5.729
 3738POPC   C1A47979   2.000   5.342   6.132
 3738POPC   D2A47980   1.917   5.230   6.534
 3738POPC   C3A47981   2.181   5.267   6.836
 3738POPC   C4A47982   2.043   5.220   7.233
 3738POPC   C1B47983   1.710   4.910   6.152
 3738POPC   C2B47984   1.714   4.756   6.549
 3738POPC   C3B47985   1.887   4.803   6.954
 3738POPC   C4B47986   1.729   4.814   7.361
 3739POPC   NC347987   6.354  43.211   5.433
 3739POPC   PO447988   6.730  42.661   5.551
 3739POPC   GL147989   6.520  42.860   5.872
 3739POPC   GL247990   6.687  43.189   5.838
 3739POPC   C1A47991   6.656  42.918   6.307
 3739POPC   D2A47992   6.793  43.274   6.541
 3739POPC   C3A47993   7.019  43.251   6.923
 3739POPC   C4A47994   6.815  43.067   7.272
 3739POPC   C1B47995   6.430  43.355   6.138
 3739POPC   C2B47996   6.386  43.559   6.541
 3739POPC   C3B47997   6.486  43.399   6.953
 3739POPC   C4B47998   6.465  43.634   7.304
 3740POPC   NC347999  28.147   9.024   5.448
 3740POPC   PO448000  28.434   8.550   5.239
 3740POPC   GL148001  28.482   8.727   5.692
 3740POPC   GL248002  28.509   9.097   5.820
 3740POPC   C1A48003  28.266   8.750   6.098
 3740POPC   D2A48004  28.222   8.630   6.543
 3740POPC   C3A48005  28.252   8.853   6.932
 3740POPC   C4A48006  28.479   8.766   7.305
 3740POPC   C1B48007  28.673   9.012   6.270
 3740POPC   C2B48008  28.571   9.190   6.702
 3740POPC   C3B48009  28.691   9.203   7.162
 3740POPC   C4B48010  28.680   9.095   7.653
 3741POPC   NC348011  43.548   9.445   5.720
 3741POPC   PO448012  43.332   8.906   5.390
 3741POPC   GL148013  43.184   9.055   5.806
 3741POPC   GL248014  43.006   9.358   5.970
 3741POPC   C1A48015  43.027   8.886   6.194
 3741POPC   D2A48016  42.844   9.157   6.500
 3741POPC   C3A48017  42.974   9.014   6.891
 3741POPC   C4A48018  42.916   9.046   7.315
 3741POPC   C1B48019  43.336   9.258   6.322
 3741POPC   C2B48020  43.455   9.121   6.749
 3741POPC   C3B48021  43.371   9.264   7.202
 3741POPC   C4B48022  43.278   9.193   7.679
 3742POPC   NC348023   9.429   1.220   5.164
 3742POPC   PO448024   8.772   1.121   5.442
 3742POPC   GL148025   8.922   1.153   5.824
 3742POPC   GL248026   9.232   1.244   5.693
 3742POPC   C1A48027   8.824   1.314   6.246
 3742POPC   D2A48028   8.872   1.361   6.691
 3742POPC   C3A48029   8.859   1.344   7.134
 3742POPC   C4A48030   8.541   1.540   7.322
 3742POPC   C1B48031   9.310   1.173   6.153
 3742POPC   C2B48032   9.116   0.948   6.493
 3742POPC   C3B48033   9.217   1.039   6.899
 3742POPC   C4B48034   9.461   0.927   7.196
 3743POPC   NC348035  26.177  25.442   5.438
 3743POPC   PO448036  26.015  24.870   5.369
 3743POPC   GL148037  25.954  25.126   5.773
 3743POPC   GL248038  26.285  25.298   5.908
 3743POPC   C1A48039  25.881  25.259   6.229
 3743POPC   D2A48040  25.837  25.027   6.623
 3743POPC   C3A48041  25.691  25.205   7.016
 3743POPC   C4A48042  25.764  25.367   7.447
 3743POPC   C1B48043  26.374  25.297   6.369
 3743POPC   C2B48044  26.109  25.470   6.682
 3743POPC   C3B48045  26.154  25.415   7.100
 3743POPC   C4B48046  26.554  25.216   7.184
 3744POPC   NC348047  33.641   8.219   5.025
 3744POPC   PO448048  34.232   8.496   5.141
 3744POPC   GL148049  34.212   8.377   5.675
 3744POPC   GL248050  33.896   8.218   5.829
 3744POPC   C1A48051  34.271   8.375   6.142
 3744POPC   D2A48052  34.087   8.132   6.503
 3744POPC   C3A48053  34.178   8.309   6.928
 3744POPC   C4A48054  34.065   8.099   7.305
 3744POPC   C1B48055  33.755   8.443   6.209
 3744POPC   C2B48056  33.776   8.509   6.660
 3744POPC   C3B48057  33.666   8.169   6.945
 3744POPC   C4B48058  33.572   8.122   7.384
 3745POPC   NC348059  12.187  30.972   5.408
 3745POPC   PO448060  11.776  30.438   5.421
 3745POPC   GL148061  11.901  30.698   5.754
 3745POPC   GL248062  12.220  30.640   5.827
 3745POPC   C1A48063  11.911  30.500   6.198
 3745POPC   D2A48064  12.088  30.453   6.600
 3745POPC   C3A48065  11.888  30.436   7.028
 3745POPC   C4A48066  12.115  30.553   7.413
 3745POPC   C1B48067  12.075  30.974   6.151
 3745POPC   C2B48068  12.247  31.022   6.542
 3745POPC   C3B48069  12.156  30.845   6.916
 3745POPC   C4B48070  12.230  31.060   7.237
 3746POPC   NC348071  18.143  36.999   5.359
 3746POPC   PO448072  18.713  36.673   5.390
 3746POPC   GL148073  18.390  36.713   5.753
 3746POPC   GL248074  18.023  36.845   5.833
 3746POPC   C1A48075  18.414  36.887   6.181
 3746POPC   D2A48076  18.407  37.168   6.525
 3746POPC   C3A48077  18.454  36.935   6.907
 3746POPC   C4A48078  18.602  36.559   7.105
 3746POPC   C1B48079  17.959  36.620   6.218
 3746POPC   C2B48080  18.030  36.747   6.641
 3746POPC   C3B48081  18.076  36.596   7.065
 3746POPC   C4B48082  18.024  36.653   7.528
 3747POPC   NC348083  28.465  36.977   5.404
 3747POPC   PO448084  27.829  36.920   5.383
 3747POPC   GL148085  28.095  37.002   5.788
 3747POPC   GL248086  28.367  37.283   5.797
 3747POPC   C1A48087  28.193  37.182   6.237
 3747POPC   D2A48088  28.135  37.259   6.667
 3747POPC   C3A48089  28.203  36.892   6.849
 3747POPC   C4A48090  28.361  36.763   7.226
 3747POPC   C1B48091  28.705  37.344   6.140
 3747POPC   C2B48092  28.639  37.117   6.527
 3747POPC   C3B48093  28.579  37.225   6.952
 3747POPC   C4B48094  28.255  37.272   7.257
 3748POPC   NC348095   8.831  24.196   5.525
 3748POPC   PO448096   9.000  24.897   5.370
 3748POPC   GL148097   9.082  24.614   5.716
 3748POPC   GL248098   8.727  24.543   5.843
 3748POPC   C1A48099   9.246  24.403   6.094
 3748POPC   D2A48100   9.434  24.515   6.517
 3748POPC   C3A48101   9.239  24.717   6.853
 3748POPC   C4A48102   9.014  24.484   7.159
 3748POPC   C1B48103   8.714  24.331   6.221
 3748POPC   C2B48104   8.907  24.373   6.609
 3748POPC   C3B48105   8.634  24.246   6.927
 3748POPC   C4B48106   8.511  24.491   7.253
 3749POPC   NC348107  38.711  28.997   5.385
 3749POPC   PO448108  39.334  29.019   5.195
 3749POPC   GL148109  39.194  29.287   5.620
 3749POPC   GL248110  39.069  29.059   5.854
 3749POPC   C1A48111  39.069  29.519   6.065
 3749POPC   D2A48112  38.896  29.576   6.514
 3749POPC   C3A48113  39.145  29.363   6.836
 3749POPC   C4A48114  39.445  29.143   7.137
 3749POPC   C1B48115  39.078  29.046   6.326
 3749POPC   C2B48116  39.378  28.938   6.662
 3749POPC   C3B48117  39.332  28.663   7.028
 3749POPC   C4B48118  38.911  28.698   7.090
 3750POPC   NC348119   9.435  41.811   5.416
 3750POPC   PO448120   8.850  41.630   5.319
 3750POPC   GL148121   8.898  41.549   5.739
 3750POPC   GL248122   8.626  41.821   5.813
 3750POPC   C1A48123   9.187  41.508   6.112
 3750POPC   D2A48124   9.325  41.701   6.530
 3750POPC   C3A48125   9.146  41.603   6.898
 3750POPC   C4A48126   9.242  41.422   7.287
 3750POPC   C1B48127   8.632  41.578   6.166
 3750POPC   C2B48128   8.750  41.520   6.542
 3750POPC   C3B48129   8.614  41.606   6.918
 3750POPC   C4B48130   8.788  41.661   7.273
 3751POPC   NC348131  13.494  36.947   5.433
 3751POPC   PO448132  13.765  37.491   5.248
 3751POPC   GL148133  13.938  37.081   5.635
 3751POPC   GL248134  13.797  36.750   5.781
 3751POPC   C1A48135  14.006  37.017   6.146
 3751POPC   D2A48136  13.813  36.847   6.559
 3751POPC   C3A48137  13.849  37.055   6.948
 3751POPC   C4A48138  13.594  37.233   7.252
 3751POPC   C1B48139  13.496  36.905   6.154
 3751POPC   C2B48140  13.380  36.585   6.524
 3751POPC   C3B48141  13.563  36.595   6.960
 3751POPC   C4B48142  13.856  36.700   7.314
 3752POPC   NC348143  31.062  12.158   5.418
 3752POPC   PO448144  31.723  11.930   5.364
 3752POPC   GL148145  31.424  11.921   5.717
 3752POPC   GL248146  31.449  12.242   5.785
 3752POPC   C1A48147  31.532  11.844   6.173
 3752POPC   D2A48148  31.753  11.787   6.576
 3752POPC   C3A48149  31.486  11.700   6.943
 3752POPC   C4A48150  31.423  11.899   7.374
 3752POPC   C1B48151  31.244  12.279   6.148
 3752POPC   C2B48152  31.445  12.271   6.530
 3752POPC   C3B48153  31.403  12.195   6.945
 3752POPC   C4B48154  31.194  12.380   7.273
 3753POPC   NC348155  18.431  38.635   5.207
 3753POPC   PO448156  18.040  38.147   5.408
 3753POPC   GL148157  18.191  38.428   5.717
 3753POPC   GL248158  17.859  38.389   5.903
 3753POPC   C1A48159  18.270  38.632   6.129
 3753POPC   D2A48160  18.367  38.455   6.551
 3753POPC   C3A48161  18.377  38.765   6.897
 3753POPC   C4A48162  18.546  38.669   7.283
 3753POPC   C1B48163  17.896  38.364   6.361
 3753POPC   C2B48164  17.913  38.542   6.794
 3753POPC   C3B48165  18.080  38.410   7.209
 3753POPC   C4B48166  18.234  38.305   7.623
 3754POPC   NC348167  40.197  23.879   5.332
 3754POPC   PO448168  39.735  23.435   5.505
 3754POPC   GL148169  39.935  23.722   5.752
 3754POPC   GL248170  40.291  23.652   5.799
 3754POPC   C1A48171  39.948  23.641   6.171
 3754POPC   D2A48172  39.866  23.783   6.544
 3754POPC   C3A48173  39.990  23.527   6.856
 3754POPC   C4A48174  39.999  23.586   7.288
 3754POPC   C1B48175  40.401  23.892   6.182
 3754POPC   C2B48176  40.313  24.023   6.597
 3754POPC   C3B48177  40.172  23.979   7.010
 3754POPC   C4B48178  40.427  23.853   7.338
 3755POPC   NC348179  19.650  35.841   5.231
 3755POPC   PO448180  19.765  35.192   5.426
 3755POPC   GL148181  19.693  35.348   5.809
 3755POPC   GL248182  19.827  35.663   5.709
 3755POPC   C1A48183  19.749  35.249   6.237
 3755POPC   D2A48184  19.653  34.998   6.576
 3755POPC   C3A48185  19.574  35.243   6.914
 3755POPC   C4A48186  19.737  35.333   7.289
 3755POPC   C1B48187  19.683  35.752   6.139
 3755POPC   C2B48188  19.917  35.685   6.487
 3755POPC   C3B48189  19.981  35.586   6.893
 3755POPC   C4B48190  20.289  35.703   7.183
 3756POPC   NC348191  31.344  14.927   5.310
 3756POPC   PO448192  31.622  15.500   5.514
 3756POPC   GL148193  31.323  15.256   5.779
 3756POPC   GL248194  31.222  14.890   5.806
 3756POPC   C1A48195  31.466  15.203   6.196
 3756POPC   D2A48196  31.589  15.389   6.595
 3756POPC   C3A48197  31.337  15.402   6.953
 3756POPC   C4A48198  31.455  15.510   7.354
 3756POPC   C1B48199  31.143  14.819   6.244
 3756POPC   C2B48200  31.152  15.088   6.599
 3756POPC   C3B48201  31.137  14.939   7.013
 3756POPC   C4B48202  31.434  15.014   7.335
 3757POPC   NC348203  11.941  26.555   5.529
 3757POPC   PO448204  12.204  27.227   5.470
 3757POPC   GL148205  12.302  26.924   5.785
 3757POPC   GL248206  11.943  26.942   5.876
 3757POPC   C1A48207  12.287  26.689   6.184
 3757POPC   D2A48208  12.032  26.590   6.551
 3757POPC   C3A48209  12.251  26.687   6.921
 3757POPC   C4A48210  12.436  26.993   7.159
 3757POPC   C1B48211  11.728  26.948   6.280
 3757POPC   C2B48212  11.622  26.856   6.718
 3757POPC   C3B48213  11.694  26.859   7.153
 3757POPC   C4B48214  11.969  27.195   7.231
 3758POPC   NC348215  13.759  33.281   5.586
 3758POPC   PO448216  13.389  32.682   5.450
 3758POPC   GL148217  13.440  32.949   5.816
 3758POPC   GL248218  13.327  33.275   5.898
 3758POPC   C1A48219  13.735  32.896   6.191
 3758POPC   D2A48220  13.817  32.685   6.616
 3758POPC   C3A48221  13.531  32.798   6.975
 3758POPC   C4A48222  13.750  33.018   7.260
 3758POPC   C1B48223  13.231  33.016   6.260
 3758POPC   C2B48224  13.492  33.124   6.586
 3758POPC   C3B48225  13.461  33.306   6.968
 3758POPC   C4B48226  13.233  33.128   7.316
 3759POPC   NC348227  37.613  28.151   5.146
 3759POPC   PO448228  38.096  27.932   5.512
 3759POPC   GL148229  37.883  28.222   5.828
 3759POPC   GL248230  37.585  28.439   5.869
 3759POPC   C1A48231  37.909  28.466   6.236
 3759POPC   D2A48232  37.750  28.361   6.654
 3759POPC   C3A48233  38.033  28.286   7.011
 3759POPC   C4A48234  38.019  28.403   7.436
 3759POPC   C1B48235  37.548  28.096   6.234
 3759POPC   C2B48236  37.397  27.987   6.661
 3759POPC   C3B48237  37.540  28.098   7.070
 3759POPC   C4B48238  37.575  28.197   7.527
 3760POPC   NC348239  14.464  29.223   5.372
 3760POPC   PO448240  14.025  28.783   5.611
 3760POPC   GL148241  14.440  28.935   5.805
 3760POPC   GL248242  14.497  29.307   5.869
 3760POPC   C1A48243  14.606  28.957   6.236
 3760POPC   D2A48244  14.257  28.919   6.566
 3760POPC   C3A48245  14.286  29.218   6.907
 3760POPC   C4A48246  14.517  29.236   7.306
 3760POPC   C1B48247  14.225  29.312   6.234
 3760POPC   C2B48248  14.123  29.620   6.554
 3760POPC   C3B48249  13.932  29.617   6.947
 3760POPC   C4B48250  14.047  29.439   7.309
 3761POPC   NC348251  42.720   9.821   5.305
 3761POPC   PO448252  42.286   9.379   5.492
 3761POPC   GL148253  42.557   9.591   5.803
 3761POPC   GL248254  42.486   9.951   5.732
 3761POPC   C1A48255  42.530   9.556   6.263
 3761POPC   D2A48256  42.126   9.639   6.489
 3761POPC   C3A48257  42.131   9.492   6.913
 3761POPC   C4A48258  42.500   9.521   7.231
 3761POPC   C1B48259  42.289   9.979   6.106
 3761POPC   C2B48260  42.447  10.051   6.490
 3761POPC   C3B48261  42.458   9.881   6.870
 3761POPC   C4B48262  42.156   9.910   7.212
 3762POPC   NC348263  31.493  21.650   5.521
 3762POPC   PO448264  31.329  21.050   5.331
 3762POPC   GL148265  31.498  21.161   5.748
 3762POPC   GL248266  31.200  21.335   5.845
 3762POPC   C1A48267  31.683  21.356   6.152
 3762POPC   D2A48268  31.888  21.619   6.511
 3762POPC   C3A48269  31.727  21.519   6.928
 3762POPC   C4A48270  31.716  21.080   7.095
 3762POPC   C1B48271  31.196  21.502   6.268
 3762POPC   C2B48272  31.247  21.380   6.709
 3762POPC   C3B48273  31.239  21.516   7.143
 3762POPC   C4B48274  31.140  21.323   7.565
 3763POPC   NC348275   1.662  15.378   5.581
 3763POPC   PO448276   2.152  14.878   5.504
 3763POPC   GL148277   1.966  15.045   5.865
 3763POPC   GL248278   2.082  15.409   5.881
 3763POPC   C1A48279   1.718  14.923   6.241
 3763POPC   D2A48280   1.804  15.027   6.677
 3763POPC   C3A48281   1.639  15.342   6.914
 3763POPC   C4A48282   1.749  15.291   7.315
 3763POPC   C1B48283   2.047  15.358   6.323
 3763POPC   C2B48284   2.090  15.551   6.724
 3763POPC   C3B48285   2.236  15.345   7.078
 3763POPC   C4B48286   2.307  15.209   7.515
 3764POPC   NC348287  22.316  12.763   5.407
 3764POPC   PO448288  22.322  13.426   5.333
 3764POPC   GL148289  22.241  13.143   5.721
 3764POPC   GL248290  22.563  13.013   5.790
 3764POPC   C1A48291  22.165  12.836   6.096
 3764POPC   D2A48292  21.987  12.626   6.506
 3764POPC   C3A48293  22.114  12.763   6.955
 3764POPC   C4A48294  22.223  12.811   7.410
 3764POPC   C1B48295  22.481  13.243   6.160
 3764POPC   C2B48296  22.275  13.115   6.518
 3764POPC   C3B48297  22.391  13.206   6.882
 3764POPC   C4B48298  22.556  13.161   7.255
 3765POPC   NC348299  14.124  24.839   5.350
 3765POPC   PO448300  14.298  24.182   5.414
 3765POPC   GL148301  14.183  24.416   5.775
 3765POPC   GL248302  14.315  24.756   5.824
 3765POPC   C1A48303  14.415  24.366   6.163
 3765POPC   D2A48304  14.438  24.047   6.477
 3765POPC   C3A48305  14.582  24.205   6.845
 3765POPC   C4A48306  14.499  24.192   7.269
 3765POPC   C1B48307  14.427  24.877   6.253
 3765POPC   C2B48308  14.598  24.675   6.615
 3765POPC   C3B48309  14.563  24.669   7.070
 3765POPC   C4B48310  14.385  24.654   7.489
 3766POPC   NC348311  38.563  21.890   5.462
 3766POPC   PO448312  38.387  22.521   5.448
 3766POPC   GL148313  38.376  22.271   5.810
 3766POPC   GL248314  38.745  22.236   5.847
 3766POPC   C1A48315  38.392  22.395   6.253
 3766POPC   D2A48316  38.557  22.327   6.660
 3766POPC   C3A48317  38.318  22.412   7.005
 3766POPC   C4A48318  38.283  22.173   7.417
 3766POPC   C1B48319  38.594  21.932   6.159
 3766POPC   C2B48320  38.596  21.827   6.604
 3766POPC   C3B48321  38.496  21.936   7.016
 3766POPC   C4B48322  38.640  21.816   7.429
 3767POPC   NC348323   8.351  13.056   5.593
 3767POPC   PO448324   7.752  12.767   5.502
 3767POPC   GL148325   7.998  12.753   5.841
 3767POPC   GL248326   7.929  13.105   5.871
 3767POPC   C1A48327   8.311  12.820   6.200
 3767POPC   D2A48328   8.448  13.056   6.551
 3767POPC   C3A48329   8.399  12.764   6.890
 3767POPC   C4A48330   8.254  12.479   7.203
 3767POPC   C1B48331   7.815  12.907   6.278
 3767POPC   C2B48332   7.957  12.974   6.700
 3767POPC   C3B48333   7.988  12.957   7.141
 3767POPC   C4B48334   8.032  13.135   7.555
 3768POPC   NC348335  29.631  39.363   5.335
 3768POPC   PO448336  30.030  38.874   5.586
 3768POPC   GL148337  29.847  39.157   5.889
 3768POPC   GL248338  29.781  39.505   5.787
 3768POPC   C1A48339  29.847  39.182   6.345
 3768POPC   D2A48340  29.980  39.228   6.787
 3768POPC   C3A48341  29.761  38.980   7.114
 3768POPC   C4A48342  29.818  39.012   7.591
 3768POPC   C1B48343  29.801  39.712   6.172
 3768POPC   C2B48344  29.706  39.617   6.575
 3768POPC   C3B48345  29.802  39.687   6.990
 3768POPC   C4B48346  29.659  39.592   7.386
 3769POPC   NC348347  25.240  19.429   5.350
 3769POPC   PO448348  25.048  20.111   5.324
 3769POPC   GL148349  25.236  19.904   5.659
 3769POPC   GL248350  24.956  19.741   5.725
 3769POPC   C1A48351  25.313  19.805   6.096
 3769POPC   D2A48352  25.148  19.916   6.512
 3769POPC   C3A48353  25.266  19.701   6.883
 3769POPC   C4A48354  25.517  19.697   7.216
 3769POPC   C1B48355  24.794  19.886   6.127
 3769POPC   C2B48356  24.628  19.900   6.552
 3769POPC   C3B48357  24.803  19.877   6.974
 3769POPC   C4B48358  25.044  19.996   7.351
 3770POPC   NC348359   4.366  41.378   5.229
 3770POPC   PO448360   3.898  41.809   5.086
 3770POPC   GL148361   4.202  41.656   5.596
 3770POPC   GL248362   4.210  41.281   5.722
 3770POPC   C1A48363   4.132  41.648   6.094
 3770POPC   D2A48364   3.986  41.623   6.549
 3770POPC   C3A48365   4.160  41.835   6.929
 3770POPC   C4A48366   4.548  42.025   7.081
 3770POPC   C1B48367   4.246  41.149   6.211
 3770POPC   C2B48368   4.050  41.124   6.665
 3770POPC   C3B48369   4.131  41.351   7.015
 3770POPC   C4B48370   4.527  41.462   7.155
 3771POPC   NC348371  43.234  20.422   5.527
 3771POPC   PO448372  43.431  21.110   5.410
 3771POPC   GL148373  43.254  20.952   5.802
 3771POPC   GL248374  42.925  20.743   5.817
 3771POPC   C1A48375  43.154  20.923   6.249
 3771POPC   D2A48376  43.089  20.661   6.607
 3771POPC   C3A48377  43.155  20.770   7.034
 3771POPC   C4A48378  43.373  20.843   7.420
 3771POPC   C1B48379  42.777  20.499   6.204
 3771POPC   C2B48380  42.858  20.214   6.570
 3771POPC   C3B48381  43.020  20.240   6.992
 3771POPC   C4B48382  43.348  20.339   7.287
 3772POPC   NC348383  28.955  34.949   5.386
 3772POPC   PO448384  29.401  34.408   5.434
 3772POPC   GL148385  29.114  34.587   5.745
 3772POPC   GL248386  29.095  34.959   5.862
 3772POPC   C1A48387  29.212  34.596   6.161
 3772POPC   D2A48388  28.966  34.436   6.459
 3772POPC   C3A48389  29.102  34.438   6.876
 3772POPC   C4A48390  29.101  34.162   7.231
 3772POPC   C1B48391  28.800  34.898   6.214
 3772POPC   C2B48392  28.816  34.886   6.667
 3772POPC   C3B48393  28.889  34.865   7.102
 3772POPC   C4B48394  29.241  34.679   7.298
 3773POPC   NC348395   0.341  43.831   5.257
 3773POPC   PO448396   0.649  43.325   5.412
 3773POPC   GL148397   0.460  43.642   5.745
 3773POPC   GL248398   0.172  43.906   5.766
 3773POPC   C1A48399   0.503  43.633   6.219
 3773POPC   D2A48400   0.520  43.863   6.620
 3773POPC   C3A48401   0.485  43.626   7.009
 3773POPC   C4A48402   0.623  43.574   7.438
 3773POPC   C1B48403   0.217  44.111   6.196
 3773POPC   C2B48404   0.036  44.054   6.624
 3773POPC   C3B48405   0.272  44.093   7.015
 3773POPC   C4B48406   0.690  44.054   7.234
 3774POPC   NC348407  32.548  40.750   5.452
 3774POPC   PO448408  31.914  40.568   5.314
 3774POPC   GL148409  32.129  40.619   5.753
 3774POPC   GL248410  32.231  40.959   5.816
 3774POPC   C1A48411  32.148  40.709   6.236
 3774POPC   D2A48412  31.939  40.573   6.632
 3774POPC   C3A48413  32.179  40.605   7.022
 3774POPC   C4A48414  32.087  40.794   7.425
 3774POPC   C1B48415  32.589  41.080   6.102
 3774POPC   C2B48416  32.627  40.821   6.466
 3774POPC   C3B48417  32.635  40.888   6.904
 3774POPC   C4B48418  32.581  40.802   7.342
 3775POPC   NC348419  15.586  21.722   5.659
 3775POPC   PO448420  15.963  21.383   5.184
 3775POPC   GL148421  16.056  21.293   5.710
 3775POPC   GL248422  15.813  21.418   5.970
 3775POPC   C1A48423  16.115  21.124   6.209
 3775POPC   D2A48424  15.813  21.406   6.519
 3775POPC   C3A48425  15.656  21.291   6.980
 3775POPC   C4A48426  15.634  21.394   7.465
 3775POPC   C1B48427  16.194  21.622   6.163
 3775POPC   C2B48428  16.237  21.752   6.571
 3775POPC   C3B48429  15.995  21.749   6.925
 3775POPC   C4B48430  16.061  21.462   7.226
 3776POPC   NC348431  31.697   4.559   5.416
 3776POPC   PO448432  31.062   4.438   5.298
 3776POPC   GL148433  31.411   4.261   5.726
 3776POPC   GL248434  31.782   4.383   5.861
 3776POPC   C1A48435  31.568   4.111   6.191
 3776POPC   D2A48436  31.359   4.064   6.582
 3776POPC   C3A48437  31.462   4.149   6.987
 3776POPC   C4A48438  31.615   4.095   7.415
 3776POPC   C1B48439  31.983   4.447   6.276
 3776POPC   C2B48440  32.003   4.405   6.734
 3776POPC   C3B48441  31.798   4.506   7.111
 3776POPC   C4B48442  31.367   4.529   7.321
 3777POPC   NC348443  15.040   1.343   5.322
 3777POPC   PO448444  14.338   1.394   5.262
 3777POPC   GL148445  14.276   1.239   5.738
 3777POPC   GL248446  14.557   1.377   5.947
 3777POPC   C1A48447  14.156   1.174   6.210
 3777POPC   D2A48448  14.348   1.300   6.601
 3777POPC   C3A48449  14.745   1.141   6.796
 3777POPC   C4A48450  14.890   1.041   7.216
 3777POPC   C1B48451  14.683   1.631   6.325
 3777POPC   C2B48452  14.595   1.711   6.786
 3777POPC   C3B48453  14.615   1.537   7.208
 3777POPC   C4B48454  14.614   1.656   7.662
 3778POPC   NC348455  30.946  18.934   5.177
 3778POPC   PO448456  30.474  19.443   5.326
 3778POPC   GL148457  30.721  19.131   5.607
 3778POPC   GL248458  30.473  18.931   5.782
 3778POPC   C1A48459  30.939  18.967   6.008
 3778POPC   D2A48460  31.023  19.132   6.446
 3778POPC   C3A48461  30.938  18.905   6.814
 3778POPC   C4A48462  30.779  19.007   7.194
 3778POPC   C1B48463  30.487  19.181   6.136
 3778POPC   C2B48464  30.478  19.078   6.554
 3778POPC   C3B48465  30.585  19.331   6.852
 3778POPC   C4B48466  30.452  19.421   7.256
 3779POPC   NC348467  30.114  12.492   5.514
 3779POPC   PO448468  29.832  11.926   5.411
 3779POPC   GL148469  29.926  12.016   5.841
 3779POPC   GL248470  30.274  12.009   5.827
 3779POPC   C1A48471  29.985  12.001   6.295
 3779POPC   D2A48472  30.158  11.730   6.607
 3779POPC   C3A48473  29.863  11.668   6.924
 3779POPC   C4A48474  29.656  11.942   7.153
 3779POPC   C1B48475  30.503  11.928   6.224
 3779POPC   C2B48476  30.537  12.053   6.648
 3779POPC   C3B48477  30.144  12.160   6.875
 3779POPC   C4B48478  30.222  12.377   7.207
 3780POPC   NC348479  41.121  27.118   5.488
 3780POPC   PO448480  40.507  27.216   5.535
 3780POPC   GL148481  40.739  26.853   5.747
 3780POPC   GL248482  40.941  26.520   5.702
 3780POPC   C1A48483  40.844  26.737   6.162
 3780POPC   D2A48484  40.988  26.909   6.545
 3780POPC   C3A48485  40.831  26.715   6.880
 3780POPC   C4A48486  40.757  27.022   7.167
 3780POPC   C1B48487  41.168  26.322   6.052
 3780POPC   C2B48488  41.101  26.405   6.497
 3780POPC   C3B48489  41.194  26.244   6.909
 3780POPC   C4B48490  41.008  26.395   7.258
 3781POPC   NC348491  11.689  29.272   5.101
 3781POPC   PO448492  11.226  28.952   5.547
 3781POPC   GL148493  11.233  29.014   5.920
 3781POPC   GL248494  11.332  28.677   5.956
 3781POPC   C1A48495  11.102  29.236   6.272
 3781POPC   D2A48496  10.982  29.507   6.606
 3781POPC   C3A48497  11.016  29.273   7.007
 3781POPC   C4A48498  11.215  29.000   7.265
 3781POPC   C1B48499  11.325  28.773   6.359
 3781POPC   C2B48500  11.110  28.899   6.691
 3781POPC   C3B48501  11.469  28.751   6.894
 3781POPC   C4B48502  11.833  28.889   7.114
 3782POPC   NC348503  11.770  32.451   5.233
 3782POPC   PO448504  11.160  32.700   5.438
 3782POPC   GL148505  11.172  32.440   5.817
 3782POPC   GL248506  11.072  32.085   5.780
 3782POPC   C1A48507  11.322  32.252   6.210
 3782POPC   D2A48508  11.167  32.277   6.615
 3782POPC   C3A48509  11.440  32.185   6.962
 3782POPC   C4A48510  11.512  32.334   7.358
 3782POPC   C1B48511  10.998  31.837   6.156
 3782POPC   C2B48512  10.858  31.753   6.561
 3782POPC   C3B48513  10.999  31.910   6.939
 3782POPC   C4B48514  11.242  31.786   7.277
 3783POPC   NC348515  24.194  43.686   5.691
 3783POPC   PO448516  23.603  43.954   5.438
 3783POPC   GL148517  23.716  43.863   5.862
 3783POPC   GL248518  23.792  44.199   5.858
 3783POPC   C1A48519  23.510  43.740   6.268
 3783POPC   D2A48520  23.233  43.843   6.633
 3783POPC   C3A48521  23.395  43.677   7.026
 3783POPC   C4A48522  23.780  43.498   7.168
 3783POPC   C1B48523  23.524  44.282   6.210
 3783POPC   C2B48524  23.618  44.248   6.600
 3783POPC   C3B48525  23.468  44.172   6.965
 3783POPC   C4B48526  23.804  43.991   7.131
 3784POPC   NC348527  19.720   7.336   5.326
 3784POPC   PO448528  20.331   7.725   5.259
 3784POPC   GL148529  20.123   7.556   5.627
 3784POPC   GL248530  19.810   7.708   5.709
 3784POPC   C1A48531  20.083   7.486   6.087
 3784POPC   D2A48532  19.872   7.472   6.478
 3784POPC   C3A48533  20.030   7.262   6.803
 3784POPC   C4A48534  20.204   7.418   7.169
 3784POPC   C1B48535  19.562   7.489   6.052
 3784POPC   C2B48536  19.362   7.374   6.448
 3784POPC   C3B48537  19.454   7.413   6.876
 3784POPC   C4B48538  19.694   7.339   7.219
 3785POPC   NC348539  35.641  32.768   5.368
 3785POPC   PO448540  34.987  32.661   5.212
 3785POPC   GL148541  35.084  32.701   5.682
 3785POPC   GL248542  35.046  33.082   5.753
 3785POPC   C1A48543  35.244  32.785   6.124
 3785POPC   D2A48544  35.150  33.082   6.466
 3785POPC   C3A48545  35.413  33.045   6.803
 3785POPC   C4A48546  35.328  32.843   7.166
 3785POPC   C1B48547  35.364  33.301   6.045
 3785POPC   C2B48548  35.539  33.440   6.443
 3785POPC   C3B48549  35.500  33.540   6.873
 3785POPC   C4B48550  35.299  33.375   7.245
 3786POPC   NC348551  21.270  30.909   5.622
 3786POPC   PO448552  21.802  30.556   5.289
 3786POPC   GL148553  21.616  30.550   5.717
 3786POPC   GL248554  21.295  30.431   5.858
 3786POPC   C1A48555  21.613  30.736   6.157
 3786POPC   D2A48556  21.306  30.743   6.512
 3786POPC   C3A48557  21.415  30.560   6.896
 3786POPC   C4A48558  21.609  30.565   7.277
 3786POPC   C1B48559  21.016  30.410   6.250
 3786POPC   C2B48560  20.895  30.439   6.696
 3786POPC   C3B48561  20.972  30.796   6.946
 3786POPC   C4B48562  21.113  30.766   7.353
 3787POPC   NC348563  24.641  44.635   5.308
 3787POPC   PO448564  25.313  44.633   5.464
 3787POPC   GL148565  25.259  44.591   5.855
 3787POPC   GL248566  24.928  44.553   5.825
 3787POPC   C1A48567  25.241  44.794   6.224
 3787POPC   D2A48568  25.482  44.719   6.601
 3787POPC   C3A48569  25.591  44.912   7.008
 3787POPC   C4A48570  25.310  44.792   7.345
 3787POPC   C1B48571  24.944  44.368   6.236
 3787POPC   C2B48572  25.114  44.343   6.666
 3787POPC   C3B48573  24.947  44.537   7.073
 3787POPC   C4B48574  24.862  44.476   7.566
 3788POPC   NC348575  13.824   7.433   5.485
 3788POPC   PO448576  13.502   6.954   5.364
 3788POPC   GL148577  13.532   7.178   5.806
 3788POPC   GL248578  13.398   7.504   5.775
 3788POPC   C1A48579  13.734   7.392   6.203
 3788POPC   D2A48580  13.530   7.449   6.631
 3788POPC   C3A48581  13.720   7.439   7.048
 3788POPC   C4A48582  13.781   7.299   7.491
 3788POPC   C1B48583  13.445   7.810   6.087
 3788POPC   C2B48584  13.561   7.936   6.475
 3788POPC   C3B48585  13.511   7.883   6.924
 3788POPC   C4B48586  13.317   7.725   7.303
 3789POPC   NC348587  14.144  29.936   5.285
 3789POPC   PO448588  14.727  29.702   5.345
 3789POPC   GL148589  14.453  29.805   5.675
 3789POPC   GL248590  14.526  30.139   5.830
 3789POPC   C1A48591  14.337  29.784   6.110
 3789POPC   D2A48592  14.433  30.077   6.450
 3789POPC   C3A48593  14.270  30.012   6.856
 3789POPC   C4A48594  14.405  29.763   7.177
 3789POPC   C1B48595  14.777  30.335   6.161
 3789POPC   C2B48596  14.947  30.218   6.565
 3789POPC   C3B48597  14.749  30.119   6.959
 3789POPC   C4B48598  14.476  30.375   7.220
 3790POPC   NC348599  34.250  18.021   5.519
 3790POPC   PO448600  34.581  18.634   5.382
 3790POPC   GL148601  34.583  18.326   5.776
 3790POPC   GL248602  34.871  18.070   5.840
 3790POPC   C1A48603  34.409  18.153   6.169
 3790POPC   D2A48604  34.250  18.322   6.560
 3790POPC   C3A48605  34.404  18.273   6.971
 3790POPC   C4A48606  34.315  18.564   7.294
 3790POPC   C1B48607  34.914  18.283   6.203
 3790POPC   C2B48608  34.757  18.162   6.594
 3790POPC   C3B48609  34.929  18.301   7.005
 3790POPC   C4B48610  34.947  18.382   7.438
 3791POPC   NC348611  42.861   0.660   5.260
 3791POPC   PO448612  43.392   0.645   5.661
 3791POPC   GL148613  43.003   0.727   5.804
 3791POPC   GL248614  42.904   0.391   5.712
 3791POPC   C1A48615  43.091   0.747   6.252
 3791POPC   D2A48616  43.211   0.416   6.535
 3791POPC   C3A48617  43.226   0.575   6.911
 3791POPC   C4A48618  43.165   0.417   7.293
 3791POPC   C1B48619  42.979   0.224   6.121
 3791POPC   C2B48620  42.881  45.000   6.511
 3791POPC   C3B48621  43.026   0.092   6.925
 3791POPC   C4B48622  42.812   0.038   7.305
 3792POPC   NC348623  38.652  39.437   5.335
 3792POPC   PO448624  39.236  39.027   5.446
 3792POPC   GL148625  39.214  39.209   5.854
 3792POPC   GL248626  39.005  39.484   5.743
 3792POPC   C1A48627  39.365  39.260   6.271
 3792POPC   D2A48628  39.572  39.141   6.657
 3792POPC   C3A48629  39.286  38.999   6.962
 3792POPC   C4A48630  38.993  39.058   7.306
 3792POPC   C1B48631  38.929  39.666   6.146
 3792POPC   C2B48632  39.042  39.533   6.544
 3792POPC   C3B48633  39.078  39.440   6.953
 3792POPC   C4B48634  39.063  39.563   7.384
 3793POPC   NC348635  15.243  27.133   5.526
 3793POPC   PO448636  15.412  26.504   5.304
 3793POPC   GL148637  15.212  26.564   5.689
 3793POPC   GL248638  14.903  26.737   5.685
 3793POPC   C1A48639  15.290  26.707   6.113
 3793POPC   D2A48640  15.281  26.985   6.457
 3793POPC   C3A48641  15.264  26.759   6.842
 3793POPC   C4A48642  15.251  26.982   7.189
 3793POPC   C1B48643  14.853  26.979   6.097
 3793POPC   C2B48644  14.785  27.128   6.510
 3793POPC   C3B48645  14.807  26.991   6.926
 3793POPC   C4B48646  14.781  26.760   7.309
 3794POPC   NC348647  16.622  15.323   5.316
 3794POPC   PO448648  17.279  15.308   5.261
 3794POPC   GL148649  17.031  15.247   5.691
 3794POPC   GL248650  16.705  15.071   5.751
 3794POPC   C1A48651  17.083  14.992   6.110
 3794POPC   D2A48652  17.146  14.930   6.574
 3794POPC   C3A48653  16.981  15.248   6.887
 3794POPC   C4A48654  16.832  15.323   7.333
 3794POPC   C1B48655  16.557  14.910   6.166
 3794POPC   C2B48656  16.626  14.965   6.632
 3794POPC   C3B48657  16.529  14.981   7.084
 3794POPC   C4B48658  16.348  15.150   7.487
 3795POPC   NC348659  35.433  12.378   5.388
 3795POPC   PO448660  34.710  12.456   5.417
 3795POPC   GL148661  35.044  12.400   5.778
 3795POPC   GL248662  35.327  12.131   5.844
 3795POPC   C1A48663  35.015  12.182   6.241
 3795POPC   D2A48664  35.219  12.020   6.620
 3795POPC   C3A48665  35.107  12.079   7.058
 3795POPC   C4A48666  35.324  11.846   7.353
 3795POPC   C1B48667  35.581  12.111   6.254
 3795POPC   C2B48668  35.762  12.028   6.697
 3795POPC   C3B48669  35.670  12.154   7.139
 3795POPC   C4B48670  35.606  12.312   7.600
 3796POPC   NC348671  28.117  34.025   5.383
 3796POPC   PO448672  28.771  33.827   5.417
 3796POPC   GL148673  28.715  34.010   5.846
 3796POPC   GL248674  28.331  34.036   5.877
 3796POPC   C1A48675  28.620  34.048   6.307
 3796POPC   D2A48676  28.418  33.794   6.602
 3796POPC   C3A48677  28.574  33.804   7.016
 3796POPC   C4A48678  28.283  34.035   7.232
 3796POPC   C1B48679  28.128  33.693   6.146
 3796POPC   C2B48680  27.939  33.529   6.542
 3796POPC   C3B48681  28.068  33.614   6.969
 3796POPC   C4B48682  28.081  33.524   7.382
 3797POPC   NC348683  40.427  20.291   5.207
 3797POPC   PO448684  40.144  20.876   5.320
 3797POPC   GL148685  40.139  20.657   5.709
 3797POPC   GL248686  40.468  20.530   5.758
 3797POPC   C1A48687  39.986  20.787   6.117
 3797POPC   D2A48688  39.795  20.954   6.496
 3797POPC   C3A48689  39.910  20.898   6.909
 3797POPC   C4A48690  40.025  20.893   7.351
 3797POPC   C1B48691  40.305  20.369   6.150
 3797POPC   C2B48692  40.084  20.260   6.549
 3797POPC   C3B48693  40.069  20.432   6.995
 3797POPC   C4B48694  39.671  20.572   7.245
 3798POPC   NC348695  19.180   2.478   5.477
 3798POPC   PO448696  18.888   3.052   5.480
 3798POPC   GL148697  19.063   2.857   5.832
 3798POPC   GL248698  18.922   2.503   5.906
 3798POPC   C1A48699  18.925   2.856   6.264
 3798POPC   D2A48700  18.842   2.604   6.609
 3798POPC   C3A48701  18.969   2.910   6.886
 3798POPC   C4A48702  19.164   2.947   7.276
 3798POPC   C1B48703  19.326   2.553   6.159
 3798POPC   C2B48704  19.382   2.719   6.588
 3798POPC   C3B48705  19.350   2.542   7.022
 3798POPC   C4B48706  19.261   2.486   7.467
 3799POPC   NC348707   9.382  21.856   5.433
 3799POPC   PO448708   9.708  22.392   5.382
 3799POPC   GL148709   9.718  22.141   5.755
 3799POPC   GL248710  10.093  22.210   5.835
 3799POPC   C1A48711   9.528  21.887   6.117
 3799POPC   D2A48712   9.756  21.779   6.498
 3799POPC   C3A48713   9.554  21.864   6.924
 3799POPC   C4A48714   9.614  21.975   7.360
 3799POPC   C1B48715   9.909  22.215   6.250
 3799POPC   C2B48716   9.596  22.246   6.573
 3799POPC   C3B48717   9.706  22.358   6.995
 3799POPC   C4B48718  10.044  22.189   7.210
 3800POPC   NC348719  33.157  13.597   5.416
 3800POPC   PO448720  32.509  13.832   5.555
 3800POPC   GL148721  32.869  13.746   5.836
 3800POPC   GL248722  32.992  13.397   5.880
 3800POPC   C1A48723  33.056  13.714   6.256
 3800POPC   D2A48724  32.987  13.461   6.620
 3800POPC   C3A48725  33.010  13.755   6.939
 3800POPC   C4A48726  32.837  13.985   7.258
 3800POPC   C1B48727  33.313  13.267   6.209
 3800POPC   C2B48728  33.447  13.222   6.663
 3800POPC   C3B48729  33.357  13.423   7.099
 3800POPC   C4B48730  33.399  13.448   7.619
 3801POPC   NC348731  42.764   2.797   5.584
 3801POPC   PO448732  43.256   2.365   5.470
 3801POPC   GL148733  43.107   2.457   5.890
 3801POPC   GL248734  43.096   2.808   5.990
 3801POPC   C1A48735  43.146   2.440   6.355
 3801POPC   D2A48736  43.097   2.518   6.783
 3801POPC   C3A48737  43.248   2.910   6.903
 3801POPC   C4A48738  43.258   2.783   7.289
 3801POPC   C1B48739  42.951   2.942   6.412
 3801POPC   C2B48740  42.760   3.051   6.802
 3801POPC   C3B48741  42.810   3.130   7.228
 3801POPC   C4B48742  43.192   3.261   7.437
 3802POPC   NC348743  17.544   0.699   5.438
 3802POPC   PO448744  17.828   1.375   5.368
 3802POPC   GL148745  17.697   1.399   5.809
 3802POPC   GL248746  17.360   1.259   5.792
 3802POPC   C1A48747  17.568   1.447   6.236
 3802POPC   D2A48748  17.333   1.281   6.580
 3802POPC   C3A48749  17.295   1.367   7.016
 3802POPC   C4A48750  17.497   1.156   7.338
 3802POPC   C1B48751  17.353   0.976   6.149
 3802POPC   C2B48752  17.307   0.782   6.545
 3802POPC   C3B48753  17.106   0.893   6.919
 3802POPC   C4B48754  17.192   0.773   7.330
 3803POPC   NC348755  37.011  38.062   5.513
 3803POPC   PO448756  36.848  38.674   5.213
 3803POPC   GL148757  36.926  38.579   5.670
 3803POPC   GL248758  36.582  38.561   5.721
 3803POPC   C1A48759  36.971  38.355   6.105
 3803POPC   D2A48760  36.773  38.115   6.427
 3803POPC   C3A48761  36.761  38.301   6.831
 3803POPC   C4A48762  37.019  38.259   7.186
 3803POPC   C1B48763  36.574  38.689   6.126
 3803POPC   C2B48764  36.382  38.559   6.494
 3803POPC   C3B48765  36.411  38.735   6.844
 3803POPC   C4B48766  36.537  38.596   7.202
 3804POPC   NC348767  44.039   1.608   5.538
 3804POPC   PO448768  43.642   2.056   5.174
 3804POPC   GL148769  43.680   2.116   5.659
 3804POPC   GL248770  43.981   2.346   5.756
 3804POPC   C1A48771  43.854   1.943   6.063
 3804POPC   D2A48772  43.888   1.972   6.499
 3804POPC   C3A48773  43.719   1.682   6.780
 3804POPC   C4A48774  43.775   1.941   7.119
 3804POPC   C1B48775  44.144   2.349   6.223
 3804POPC   C2B48776  44.365   2.144   6.577
 3804POPC   C3B48777  44.253   2.181   7.012
 3804POPC   C4B48778  44.046   2.252   7.415
 3805POPC   NC348779  13.748  32.329   5.409
 3805POPC   PO448780  13.334  31.892   5.250
 3805POPC   GL148781  13.386  32.229   5.747
 3805POPC   GL248782  13.622  32.487   5.869
 3805POPC   C1A48783  13.418  32.238   6.243
 3805POPC   D2A48784  13.324  32.542   6.579
 3805POPC   C3A48785  13.418  32.294   6.978
 3805POPC   C4A48786  13.582  32.095   7.388
 3805POPC   C1B48787  13.977  32.295   6.070
 3805POPC   C2B48788  14.068  32.072   6.441
 3805POPC   C3B48789  14.077  32.261   6.831
 3805POPC   C4B48790  13.854  32.469   7.184
 3806POPC   NC348791  22.267   9.328   5.440
 3806POPC   PO448792  22.406   8.664   5.419
 3806POPC   GL148793  22.272   8.905   5.776
 3806POPC   GL248794  22.492   9.177   5.880
 3806POPC   C1A48795  22.096   8.983   6.194
 3806POPC   D2A48796  21.890   8.923   6.617
 3806POPC   C3A48797  22.075   8.880   7.012
 3806POPC   C4A48798  21.968   9.165   7.305
 3806POPC   C1B48799  22.680   9.157   6.288
 3806POPC   C2B48800  22.372   9.143   6.605
 3806POPC   C3B48801  22.251   9.367   6.936
 3806POPC   C4B48802  22.493   9.116   7.211
 3807POPC   NC348803  26.197   6.414   5.392
 3807POPC   PO448804  25.826   6.951   5.521
 3807POPC   GL148805  26.014   6.737   5.880
 3807POPC   GL248806  26.322   6.571   5.863
 3807POPC   C1A48807  26.047   6.876   6.314
 3807POPC   D2A48808  26.222   7.053   6.695
 3807POPC   C3A48809  26.121   6.802   7.059
 3807POPC   C4A48810  25.742   6.898   7.304
 3807POPC   C1B48811  26.180   6.287   6.197
 3807POPC   C2B48812  26.249   6.108   6.605
 3807POPC   C3B48813  26.220   6.263   7.027
 3807POPC   C4B48814  26.356   6.431   7.424
 3808POPC   NC348815  26.938  18.372   5.364
 3808POPC   PO448816  26.320  18.220   5.541
 3808POPC   GL148817  26.636  18.359   5.819
 3808POPC   GL248818  26.841  18.679   5.749
 3808POPC   C1A48819  26.728  18.455   6.244
 3808POPC   D2A48820  26.617  18.367   6.656
 3808POPC   C3A48821  26.792  18.139   6.998
 3808POPC   C4A48822  26.622  18.150   7.403
 3808POPC   C1B48823  27.123  18.757   6.084
 3808POPC   C2B48824  27.005  18.816   6.504
 3808POPC   C3B48825  26.932  18.651   6.904
 3808POPC   C4B48826  26.860  18.575   7.296
 3809POPC   NC348827  33.132   7.655   5.675
 3809POPC   PO448828  33.022   8.189   5.392
 3809POPC   GL148829  33.025   8.160   5.832
 3809POPC   GL248830  33.382   8.091   5.851
 3809POPC   C1A48831  32.768   8.291   6.192
 3809POPC   D2A48832  32.769   8.517   6.566
 3809POPC   C3A48833  32.790   8.326   6.947
 3809POPC   C4A48834  32.832   8.536   7.323
 3809POPC   C1B48835  33.390   8.064   6.295
 3809POPC   C2B48836  33.147   8.083   6.650
 3809POPC   C3B48837  33.208   7.927   7.047
 3809POPC   C4B48838  33.071   8.113   7.390
 3810POPC   NC348839  24.759  15.226   5.410
 3810POPC   PO448840  25.361  15.124   5.305
 3810POPC   GL148841  25.145  14.924   5.674
 3810POPC   GL248842  24.813  14.975   5.861
 3810POPC   C1A48843  25.301  15.017   6.106
 3810POPC   D2A48844  25.288  15.253   6.522
 3810POPC   C3A48845  25.407  15.024   6.919
 3810POPC   C4A48846  25.464  15.144   7.388
 3810POPC   C1B48847  24.854  14.982   6.330
 3810POPC   C2B48848  24.903  15.029   6.774
 3810POPC   C3B48849  24.986  15.025   7.209
 3810POPC   C4B48850  24.858  15.022   7.639
 3811POPC   NC348851   9.577  10.714   5.176
 3811POPC   PO448852  10.118  10.302   5.311
 3811POPC   GL148853   9.877  10.636   5.579
 3811POPC   GL248854   9.792  10.382   5.769
 3811POPC   C1A48855   9.774  10.812   6.030
 3811POPC   D2A48856   9.720  10.700   6.469
 3811POPC   C3A48857   9.786  10.827   6.875
 3811POPC   C4A48858   9.674  10.651   7.234
 3811POPC   C1B48859  10.007  10.087   6.030
 3811POPC   C2B48860  10.062  10.113   6.473
 3811POPC   C3B48861   9.781  10.292   6.804
 3811POPC   C4B48862   9.814  10.175   7.222
 3812POPC   NC348863  20.159  14.069   5.657
 3812POPC   PO448864  20.569  14.564   5.426
 3812POPC   GL148865  20.639  14.396   5.822
 3812POPC   GL248866  20.793  14.104   5.721
 3812POPC   C1A48867  20.608  14.496   6.274
 3812POPC   D2A48868  20.692  14.611   6.705
 3812POPC   C3A48869  20.382  14.550   7.026
 3812POPC   C4A48870  20.492  14.559   7.459
 3812POPC   C1B48871  20.929  14.098   6.169
 3812POPC   C2B48872  20.754  14.067   6.617
 3812POPC   C3B48873  20.782  14.192   7.062
 3812POPC   C4B48874  20.893  14.610   7.176
 3813POPC   NC348875  41.356  15.784   5.441
 3813POPC   PO448876  41.856  16.227   5.475
 3813POPC   GL148877  41.581  16.128   5.805
 3813POPC   GL248878  41.465  15.802   5.966
 3813POPC   C1A48879  41.733  16.197   6.192
 3813POPC   D2A48880  41.870  16.412   6.542
 3813POPC   C3A48881  41.854  16.120   6.865
 3813POPC   C4A48882  41.749  16.168   7.253
 3813POPC   C1B48883  41.599  15.783   6.436
 3813POPC   C2B48884  41.362  16.026   6.726
 3813POPC   C3B48885  41.299  15.948   7.124
 3813POPC   C4B48886  41.573  15.746   7.434
 3814POPC   NC348887  34.414   2.834   5.199
 3814POPC   PO448888  34.826   2.350   5.273
 3814POPC   GL148889  34.611   2.625   5.654
 3814POPC   GL248890  34.383   2.958   5.702
 3814POPC   C1A48891  34.616   2.659   6.132
 3814POPC   D2A48892  34.749   2.482   6.561
 3814POPC   C3A48893  34.582   2.645   6.986
 3814POPC   C4A48894  34.804   2.870   7.339
 3814POPC   C1B48895  34.728   3.129   5.978
 3814POPC   C2B48896  34.862   3.025   6.424
 3814POPC   C3B48897  34.774   3.100   6.856
 3814POPC   C4B48898  34.400   3.135   7.105
 3815POPC   NC348899  35.303   0.510   5.198
 3815POPC   PO448900  35.598  44.944   5.308
 3815POPC   GL148901  35.645   0.194   5.739
 3815POPC   GL248902  35.658   0.587   5.749
 3815POPC   C1A48903  35.484   0.291   6.189
 3815POPC   D2A48904  35.486   0.086   6.619
 3815POPC   C3A48905  35.238   0.183   7.020
 3815POPC   C4A48906  35.067   0.603   7.217
 3815POPC   C1B48907  35.742   0.769   6.188
 3815POPC   C2B48908  35.526   0.949   6.545
 3815POPC   C3B48909  35.508   0.794   6.960
 3815POPC   C4B48910  35.592   0.479   7.252
 3816POPC   NC348911  41.821  40.993   5.519
 3816POPC   PO448912  41.323  40.635   5.415
 3816POPC   GL148913  41.570  40.642   5.808
 3816POPC   GL248914  41.433  40.976   5.906
 3816POPC   C1A48915  41.817  40.773   6.178
 3816POPC   D2A48916  41.575  40.873   6.545
 3816POPC   C3A48917  41.784  40.820   6.947
 3816POPC   C4A48918  41.615  40.691   7.340
 3816POPC   C1B48919  41.485  41.290   6.248
 3816POPC   C2B48920  41.480  41.358   6.716
 3816POPC   C3B48921  41.433  41.146   7.156
 3816POPC   C4B48922  41.320  40.996   7.598
 3817POPC   NC348923   0.121  17.782   5.301
 3817POPC   PO448924  44.464  17.406   5.310
 3817POPC   GL148925  44.433  17.410   5.748
 3817POPC   GL248926  44.649  17.642   5.803
 3817POPC   C1A48927  44.517  17.351   6.202
 3817POPC   D2A48928  44.468  17.495   6.646
 3817POPC   C3A48929  44.763  17.505   7.030
 3817POPC   C4A48930  44.744  17.408   7.492
 3817POPC   C1B48931  44.818  17.915   6.157
 3817POPC   C2B48932   0.079  17.880   6.511
 3817POPC   C3B48933  44.965  18.006   6.923
 3817POPC   C4B48934  44.931  17.875   7.331
 3818POPC   NC348935   2.775  40.270   5.558
 3818POPC   PO448936   2.501  39.701   5.387
 3818POPC   GL148937   2.702  39.811   5.775
 3818POPC   GL248938   3.066  39.791   5.737
 3818POPC   C1A48939   2.532  40.030   6.142
 3818POPC   D2A48940   2.377  39.958   6.542
 3818POPC   C3A48941   2.562  40.114   6.912
 3818POPC   C4A48942   2.812  39.839   7.124
 3818POPC   C1B48943   3.048  39.947   6.170
 3818POPC   C2B48944   2.878  40.202   6.529
 3818POPC   C3B48945   3.050  40.259   7.003
 3818POPC   C4B48946   3.122  40.002   7.465
 3819POPC   NC348947  41.993   4.686   5.509
 3819POPC   PO448948  41.432   4.279   5.404
 3819POPC   GL148949  41.603   4.437   5.780
 3819POPC   GL248950  41.467   4.755   5.703
 3819POPC   C1A48951  41.681   4.376   6.270
 3819POPC   D2A48952  41.495   4.233   6.689
 3819POPC   C3A48953  41.607   4.251   7.134
 3819POPC   C4A48954  41.797   3.953   7.418
 3819POPC   C1B48955  41.258   4.626   6.113
 3819POPC   C2B48956  41.113   4.715   6.561
 3819POPC   C3B48957  41.199   4.556   6.978
 3819POPC   C4B48958  41.410   4.637   7.395
 3820POPC   NC348959  13.129  30.558   5.418
 3820POPC   PO448960  12.485  30.670   5.182
 3820POPC   GL148961  12.667  30.755   5.629
 3820POPC   GL248962  12.737  30.436   5.805
 3820POPC   C1A48963  12.604  30.836   6.130
 3820POPC   D2A48964  12.609  30.659   6.572
 3820POPC   C3A48965  12.656  30.948   6.917
 3820POPC   C4A48966  12.752  31.067   7.329
 3820POPC   C1B48967  12.984  30.482   6.196
 3820POPC   C2B48968  13.015  30.343   6.639
 3820POPC   C3B48969  12.896  30.516   7.062
 3820POPC   C4B48970  13.113  30.687   7.455
 3821POPC   NC348971  28.306  17.371   5.539
 3821POPC   PO448972  27.783  17.668   5.848
 3821POPC   GL148973  28.223  17.651   5.975
 3821POPC   GL248974  28.554  17.784   5.879
 3821POPC   C1A48975  28.446  17.613   6.342
 3821POPC   D2A48976  28.705  17.425   6.610
 3821POPC   C3A48977  28.438  17.329   6.953
 3821POPC   C4A48978  28.393  17.524   7.321
 3821POPC   C1B48979  28.894  17.766   6.196
 3821POPC   C2B48980  28.789  17.949   6.594
 3821POPC   C3B48981  28.710  17.784   7.010
 3821POPC   C4B48982  28.887  17.643   7.391
 3822POPC   NC348983  10.933   9.936   5.433
 3822POPC   PO448984  10.390   9.582   5.415
 3822POPC   GL148985  10.586   9.722   5.807
 3822POPC   GL248986  10.954   9.606   5.819
 3822POPC   C1A48987  10.363   9.715   6.212
 3822POPC   D2A48988  10.344   9.466   6.577
 3822POPC   C3A48989  10.437   9.679   6.941
 3822POPC   C4A48990  10.470   9.455   7.314
 3822POPC   C1B48991  10.952   9.900   6.152
 3822POPC   C2B48992  10.759   9.882   6.542
 3822POPC   C3B48993  10.944   9.871   6.938
 3822POPC   C4B48994  10.744   9.893   7.297
 3823POPC   NC348995  20.198   8.063   5.566
 3823POPC   PO448996  20.553   8.476   5.091
 3823POPC   GL148997  20.521   8.571   5.654
 3823POPC   GL248998  20.482   8.244   5.940
 3823POPC   C1A48999  20.496   8.661   6.176
 3823POPC   D2A49000  20.495   8.332   6.489
 3823POPC   C3A49001  20.338   8.360   6.882
 3823POPC   C4A49002  20.645   8.273   7.195
 3823POPC   C1B49003  20.289   7.943   6.211
 3823POPC   C2B49004  20.121   7.946   6.622
 3823POPC   C3B49005  20.351   7.869   6.997
 3823POPC   C4B49006  20.278   7.853   7.430
 3824POPC   NC349007  38.917  35.017   5.194
 3824POPC   PO449008  38.848  34.281   5.320
 3824POPC   GL149009  39.128  34.506   5.684
 3824POPC   GL249010  39.358  34.270   5.872
 3824POPC   C1A49011  39.158  34.722   6.100
 3824POPC   D2A49012  38.829  34.731   6.430
 3824POPC   C3A49013  38.981  34.592   6.823
 3824POPC   C4A49014  39.012  34.832   7.191
 3824POPC   C1B49015  39.550  34.374   6.253
 3824POPC   C2B49016  39.512  34.539   6.647
 3824POPC   C3B49017  39.473  34.678   7.056
 3824POPC   C4B49018  39.486  34.391   7.418
 3825POPC   NC349019  39.218  28.367   5.430
 3825POPC   PO449020  38.705  28.696   5.728
 3825POPC   GL149021  39.149  28.556   5.900
 3825POPC   GL249022  39.291  28.205   5.905
 3825POPC   C1A49023  39.313  28.552   6.310
 3825POPC   D2A49024  39.038  28.496   6.635
 3825POPC   C3A49025  39.064  28.217   6.991
 3825POPC   C4A49026  39.080  28.383   7.429
 3825POPC   C1B49027  39.254  28.060   6.290
 3825POPC   C2B49028  39.511  28.118   6.651
 3825POPC   C3B49029  39.564  28.176   7.095
 3825POPC   C4B49030  39.306  27.951   7.386
 3826POPC   NC349031  42.889  10.803   5.389
 3826POPC   PO449032  43.528  10.493   5.360
 3826POPC   GL149033  43.385  10.301   5.812
 3826POPC   GL249034  43.052  10.370   5.834
 3826POPC   C1A49035  43.294  10.180   6.290
 3826POPC   D2A49036  42.949  10.103   6.611
 3826POPC   C3A49037  42.868  10.348   6.928
 3826POPC   C4A49038  43.111  10.387   7.310
 3826POPC   C1B49039  42.878  10.458   6.226
 3826POPC   C2B49040  43.133  10.616   6.566
 3826POPC   C3B49041  43.122  10.775   6.960
 3826POPC   C4B49042  42.747  10.740   7.239
 3827POPC   NC349043  14.244  26.267   5.211
 3827POPC   PO449044  14.712  25.793   5.364
 3827POPC   GL149045  14.485  25.950   5.720
 3827POPC   GL249046  14.606  26.284   5.746
 3827POPC   C1A49047  14.413  26.049   6.191
 3827POPC   D2A49048  14.441  26.254   6.604
 3827POPC   C3A49049  14.237  26.044   6.945
 3827POPC   C4A49050  14.227  25.843   7.338
 3827POPC   C1B49051  14.786  26.447   6.113
 3827POPC   C2B49052  14.936  26.589   6.494
 3827POPC   C3B49053  14.826  26.469   6.899
 3827POPC   C4B49054  14.561  26.295   7.260
 3828POPC   NC349055  41.918  27.015   5.532
 3828POPC   PO449056  41.321  26.607   5.368
 3828POPC   GL149057  41.412  26.724   5.774
 3828POPC   GL249058  41.749  26.683   5.900
 3828POPC   C1A49059  41.358  26.785   6.201
 3828POPC   D2A49060  41.601  26.674   6.539
 3828POPC   C3A49061  41.353  26.719   6.889
 3828POPC   C4A49062  41.205  26.854   7.291
 3828POPC   C1B49063  41.840  26.992   6.193
 3828POPC   C2B49064  42.010  27.024   6.553
 3828POPC   C3B49065  41.947  26.964   6.944
 3828POPC   C4B49066  41.703  26.821   7.241
 3829POPC   NC349067  32.960  34.569   5.385
 3829POPC   PO449068  33.533  34.309   5.527
 3829POPC   GL149069  33.299  34.680   5.759
 3829POPC   GL249070  32.955  34.502   5.876
 3829POPC   C1A49071  33.084  34.875   6.148
 3829POPC   D2A49072  32.864  34.583   6.428
 3829POPC   C3A49073  32.931  34.641   6.849
 3829POPC   C4A49074  33.028  34.779   7.254
 3829POPC   C1B49075  33.278  34.382   6.193
 3829POPC   C2B49076  33.268  34.282   6.638
 3829POPC   C3B49077  33.105  34.220   7.076
 3829POPC   C4B49078  33.264  34.360   7.462
 3830POPC   NC349079  22.378  32.655   5.344
 3830POPC   PO449080  21.944  32.229   5.643
 3830POPC   GL149081  22.399  32.318   5.757
 3830POPC   GL249082  22.509  32.661   5.855
 3830POPC   C1A49083  22.518  32.191   6.187
 3830POPC   D2A49084  22.264  32.296   6.582
 3830POPC   C3A49085  22.409  32.147   6.976
 3830POPC   C4A49086  22.011  31.990   7.105
 3830POPC   C1B49087  22.298  32.658   6.220
 3830POPC   C2B49088  22.362  32.819   6.627
 3830POPC   C3B49089  22.235  32.628   7.001
 3830POPC   C4B49090  22.359  32.567   7.426
 3831POPC   NC349091   1.041  34.074   5.441
 3831POPC   PO449092   1.336  33.506   5.562
 3831POPC   GL149093   1.177  33.759   5.870
 3831POPC   GL249094   0.843  33.768   5.868
 3831POPC   C1A49095   1.368  33.793   6.275
 3831POPC   D2A49096   1.564  33.653   6.680
 3831POPC   C3A49097   1.352  33.796   7.065
 3831POPC   C4A49098   1.361  33.576   7.459
 3831POPC   C1B49099   0.821  33.948   6.263
 3831POPC   C2B49100   0.844  34.068   6.684
 3831POPC   C3B49101   0.843  33.909   7.110
 3831POPC   C4B49102   1.093  33.998   7.488
 3832POPC   NC349103  24.908  18.890   5.438
 3832POPC   PO449104  24.274  18.840   5.621
 3832POPC   GL149105  24.527  18.862   5.961
 3832POPC   GL249106  24.724  19.114   5.881
 3832POPC   C1A49107  24.533  19.073   6.355
 3832POPC   D2A49108  24.207  18.960   6.603
 3832POPC   C3A49109  24.238  18.809   6.965
 3832POPC   C4A49110  24.227  19.048   7.284
 3832POPC   C1B49111  25.007  18.914   6.137
 3832POPC   C2B49112  24.937  18.834   6.558
 3832POPC   C3B49113  24.693  18.986   6.882
 3832POPC   C4B49114  24.647  18.764   7.258
 3833POPC   NC349115  32.481  32.633   5.458
 3833POPC   PO449116  32.067  32.152   5.257
 3833POPC   GL149117  32.147  32.156   5.732
 3833POPC   GL249118  32.500  32.218   5.793
 3833POPC   C1A49119  32.139  32.325   6.178
 3833POPC   D2A49120  32.014  32.555   6.556
 3833POPC   C3A49121  32.096  32.310   6.914
 3833POPC   C4A49122  32.314  32.442   7.278
 3833POPC   C1B49123  32.599  31.987   6.210
 3833POPC   C2B49124  32.686  31.905   6.686
 3833POPC   C3B49125  32.677  32.082   7.113
 3833POPC   C4B49126  32.608  32.147   7.572
 3834POPC   NC349127  25.972  40.152   5.207
 3834POPC   PO449128  25.986  39.582   5.508
 3834POPC   GL149129  25.862  39.876   5.821
 3834POPC   GL249130  25.895  40.205   5.718
 3834POPC   C1A49131  25.785  40.011   6.212
 3834POPC   D2A49132  25.550  39.907   6.568
 3834POPC   C3A49133  25.770  40.011   6.959
 3834POPC   C4A49134  25.777  40.018   7.416
 3834POPC   C1B49135  26.194  40.308   6.052
 3834POPC   C2B49136  26.278  40.281   6.490
 3834POPC   C3B49137  26.470  40.284   6.900
 3834POPC   C4B49138  26.216  40.143   7.210
 3835POPC   NC349139  44.456  18.541   5.472
 3835POPC   PO449140   0.009  18.264   5.242
 3835POPC   GL149141  44.832  18.290   5.709
 3835POPC   GL249142  44.529  18.126   5.802
 3835POPC   C1A49143  44.631  18.461   6.151
 3835POPC   D2A49144  44.434  18.640   6.533
 3835POPC   C3A49145  44.375  18.397   6.893
 3835POPC   C4A49146  44.619  18.304   7.244
 3835POPC   C1B49147  44.303  17.875   6.123
 3835POPC   C2B49148  44.411  18.000   6.546
 3835POPC   C3B49149  44.445  17.886   6.987
 3835POPC   C4B49150  44.464  17.822   7.456
 3836POPC   NC349151  42.495  27.791   5.279
 3836POPC   PO449152  42.321  27.101   5.309
 3836POPC   GL149153  42.286  27.491   5.671
 3836POPC   GL249154  42.501  27.383   5.916
 3836POPC   C1A49155  42.399  27.829   6.072
 3836POPC   D2A49156  42.468  27.670   6.516
 3836POPC   C3A49157  42.520  27.849   6.925
 3836POPC   C4A49158  42.285  27.916   7.286
 3836POPC   C1B49159  42.136  27.417   6.225
 3836POPC   C2B49160  41.999  27.519   6.690
 3836POPC   C3B49161  42.149  27.424   7.115
 3836POPC   C4B49162  42.023  27.130   7.476
 3837POPC   NC349163   4.892  32.592   5.480
 3837POPC   PO449164   4.294  32.256   5.444
 3837POPC   GL149165   4.468  32.076   5.811
 3837POPC   GL249166   4.650  32.373   5.883
 3837POPC   C1A49167   4.505  32.084   6.260
 3837POPC   D2A49168   4.252  32.243   6.583
 3837POPC   C3A49169   4.130  32.124   6.921
 3837POPC   C4A49170   4.284  32.125   7.286
 3837POPC   C1B49171   4.403  32.586   6.248
 3837POPC   C2B49172   4.560  32.668   6.623
 3837POPC   C3B49173   4.589  32.427   6.989
 3837POPC   C4B49174   4.501  32.567   7.394
 3838POPC   NC349175  13.662  11.721   5.539
 3838POPC   PO449176  13.568  12.369   5.337
 3838POPC   GL149177  13.460  12.327   5.786
 3838POPC   GL249178  13.497  12.032   5.914
 3838POPC   C1A49179  13.476  12.443   6.238
 3838POPC   D2A49180  13.703  12.322   6.618
 3838POPC   C3A49181  13.488  12.287   6.989
 3838POPC   C4A49182  13.324  12.637   7.204
 3838POPC   C1B49183  13.474  11.932   6.363
 3838POPC   C2B49184  13.664  11.817   6.766
 3838POPC   C3B49185  13.638  11.867   7.214
 3838POPC   C4B49186  13.851  12.025   7.549
 3839POPC   NC349187  32.767  16.678   5.568
 3839POPC   PO449188  33.349  16.853   5.334
 3839POPC   GL149189  33.278  16.735   5.787
 3839POPC   GL249190  33.097  16.991   5.884
 3839POPC   C1A49191  33.145  16.523   6.199
 3839POPC   D2A49192  32.992  16.387   6.619
 3839POPC   C3A49193  32.802  16.592   7.015
 3839POPC   C4A49194  32.933  16.508   7.474
 3839POPC   C1B49195  33.296  16.995   6.295
 3839POPC   C2B49196  33.132  16.875   6.714
 3839POPC   C3B49197  33.180  16.882   7.182
 3839POPC   C4B49198  33.014  16.977   7.612
 3840POPC   NC349199   9.775  35.636   5.330
 3840POPC   PO449200   9.396  35.118   5.325
 3840POPC   GL149201   9.649  35.259   5.711
 3840POPC   GL249202  10.026  35.252   5.769
 3840POPC   C1A49203   9.620  35.181   6.162
 3840POPC   D2A49204   9.690  35.368   6.575
 3840POPC   C3A49205   9.611  35.155   6.950
 3840POPC   C4A49206   9.778  35.225   7.313
 3840POPC   C1B49207  10.078  35.476   6.215
 3840POPC   C2B49208  10.041  35.745   6.609
 3840POPC   C3B49209   9.999  35.660   7.061
 3840POPC   C4B49210  10.091  35.590   7.494
 3841POPC   NC349211  10.135  40.135   5.365
 3841POPC   PO449212  10.793  39.891   5.505
 3841POPC   GL149213  10.445  39.995   5.796
 3841POPC   GL249214  10.417  40.350   5.879
 3841POPC   C1A49215  10.463  39.880   6.219
 3841POPC   D2A49216  10.729  40.066   6.530
 3841POPC   C3A49217  10.679  39.981   6.954
 3841POPC   C4A49218  10.550  39.766   7.327
 3841POPC   C1B49219  10.346  40.373   6.339
 3841POPC   C2B49220  10.205  40.083   6.654
 3841POPC   C3B49221  10.169  39.912   7.031
 3841POPC   C4B49222  10.258  40.214   7.292
 3842POPC   NC349223  27.710  34.758   5.303
 3842POPC   PO449224  28.482  34.776   5.295
 3842POPC   GL149225  28.541  34.721   5.703
 3842POPC   GL249226  28.164  34.683   5.774
 3842POPC   C1A49227  28.564  34.481   6.055
 3842POPC   D2A49228  28.457  34.521   6.479
 3842POPC   C3A49229  28.618  34.266   6.795
 3842POPC   C4A49230  28.643  34.414   7.193
 3842POPC   C1B49231  28.049  34.393   6.125
 3842POPC   C2B49232  27.937  34.481   6.528
 3842POPC   C3B49233  28.162  34.436   6.902
 3842POPC   C4B49234  28.109  34.592   7.268
 3843POPC   NC349235  10.587  15.561   5.547
 3843POPC   PO449236  10.539  14.955   5.581
 3843POPC   GL149237  10.315  15.177   5.851
 3843POPC   GL249238  10.045  14.971   5.776
 3843POPC   C1A49239  10.402  15.478   6.176
 3843POPC   D2A49240  10.670  15.491   6.527
 3843POPC   C3A49241  10.500  15.385   6.917
 3843POPC   C4A49242  10.733  15.390   7.299
 3843POPC   C1B49243  10.074  14.863   6.198
 3843POPC   C2B49244  10.217  15.145   6.528
 3843POPC   C3B49245  10.146  15.005   6.933
 3843POPC   C4B49246  10.387  15.029   7.306
 3844POPC   NC349247  35.742  28.401   5.161
 3844POPC   PO449248  35.162  28.550   5.519
 3844POPC   GL149249  35.347  28.413   5.865
 3844POPC   GL249250  35.615  28.190   5.738
 3844POPC   C1A49251  35.198  28.464   6.279
 3844POPC   D2A49252  35.094  28.726   6.619
 3844POPC   C3A49253  35.148  28.452   6.940
 3844POPC   C4A49254  35.331  28.471   7.317
 3844POPC   C1B49255  35.445  28.002   6.149
 3844POPC   C2B49256  35.261  28.037   6.592
 3844POPC   C3B49257  35.421  28.027   7.049
 3844POPC   C4B49258  35.557  28.048   7.502
 3845POPC   NC349259  35.528   8.230   5.392
 3845POPC   PO449260  34.943   8.006   5.262
 3845POPC   GL149261  35.134   8.144   5.696
 3845POPC   GL249262  35.426   8.347   5.851
 3845POPC   C1A49263  35.151   8.006   6.140
 3845POPC   D2A49264  34.948   7.864   6.529
 3845POPC   C3A49265  35.025   8.113   6.872
 3845POPC   C4A49266  35.138   7.970   7.242
 3845POPC   C1B49267  35.414   8.456   6.241
 3845POPC   C2B49268  35.333   8.457   6.651
 3845POPC   C3B49269  35.344   8.518   7.083
 3845POPC   C4B49270  35.482   8.301   7.452
 3846POPC   NC349271  41.352  29.406   5.404
 3846POPC   PO449272  41.868  28.997   5.436
 3846POPC   GL149273  41.618  29.176   5.775
 3846POPC   GL249274  41.249  29.064   5.767
 3846POPC   C1A49275  41.743  29.266   6.198
 3846POPC   D2A49276  41.903  28.995   6.542
 3846POPC   C3A49277  41.721  29.099   6.955
 3846POPC   C4A49278  41.797  29.317   7.351
 3846POPC   C1B49279  41.235  29.273   6.148
 3846POPC   C2B49280  41.388  29.254   6.563
 3846POPC   C3B49281  41.304  29.449   6.930
 3846POPC   C4B49282  41.286  29.210   7.247
 3847POPC   NC349283  15.347  31.272   5.362
 3847POPC   PO449284  14.796  31.530   5.168
 3847POPC   GL149285  14.911  31.407   5.660
 3847POPC   GL249286  15.267  31.526   5.790
 3847POPC   C1A49287  14.846  31.633   6.099
 3847POPC   D2A49288  14.839  31.464   6.517
 3847POPC   C3A49289  14.742  31.611   6.933
 3847POPC   C4A49290  14.824  31.602   7.363
 3847POPC   C1B49291  15.307  31.447   6.218
 3847POPC   C2B49292  15.434  31.566   6.638
 3847POPC   C3B49293  15.254  31.636   7.054
 3847POPC   C4B49294  15.204  31.260   7.321
 3848POPC   NC349295  15.421  28.777   5.464
 3848POPC   PO449296  14.904  29.098   5.407
 3848POPC   GL149297  15.005  29.081   5.830
 3848POPC   GL249298  15.323  29.267   5.838
 3848POPC   C1A49299  15.250  28.864   6.179
 3848POPC   D2A49300  15.375  29.005   6.602
 3848POPC   C3A49301  15.283  28.838   7.026
 3848POPC   C4A49302  15.557  28.937   7.364
 3848POPC   C1B49303  15.150  29.394   6.227
 3848POPC   C2B49304  15.296  29.535   6.612
 3848POPC   C3B49305  15.345  29.348   6.998
 3848POPC   C4B49306  15.295  29.596   7.330
 3849POPC   NC349307  20.821   1.241   5.378
 3849POPC   PO449308  20.938   0.652   5.590
 3849POPC   GL149309  20.770   0.982   5.855
 3849POPC   GL249310  20.691   1.340   5.846
 3849POPC   C1A49311  20.873   1.123   6.280
 3849POPC   D2A49312  20.951   0.964   6.684
 3849POPC   C3A49313  20.792   1.160   7.060
 3849POPC   C4A49314  20.759   0.951   7.465
 3849POPC   C1B49315  20.494   1.464   6.217
 3849POPC   C2B49316  20.499   1.293   6.627
 3849POPC   C3B49317  20.408   1.492   7.024
 3849POPC   C4B49318  20.493   1.411   7.453
 3850POPC   NC349319  37.300  41.582   5.398
 3850POPC   PO449320  37.863  41.225   5.272
 3850POPC   GL149321  37.784  41.389   5.748
 3850POPC   GL249322  37.474  41.607   5.887
 3850POPC   C1A49323  37.826  41.475   6.219
 3850POPC   D2A49324  37.954  41.719   6.599
 3850POPC   C3A49325  37.724  41.562   6.972
 3850POPC   C4A49326  37.547  41.300   7.333
 3850POPC   C1B49327  37.474  41.860   6.306
 3850POPC   C2B49328  37.344  41.836   6.756
 3850POPC   C3B49329  37.339  41.767   7.267
 3850POPC   C4B49330  37.490  41.681   7.714
 3851POPC   NC349331  10.382   7.747   5.516
 3851POPC   PO449332  10.603   7.264   5.252
 3851POPC   GL149333  10.536   7.292   5.743
 3851POPC   GL249334  10.728   7.551   5.924
 3851POPC   C1A49335  10.575   7.174   6.214
 3851POPC   D2A49336  10.304   7.292   6.586
 3851POPC   C3A49337  10.492   7.246   7.003
 3851POPC   C4A49338  10.832   6.982   7.168
 3851POPC   C1B49339  10.417   7.679   6.233
 3851POPC   C2B49340  10.231   7.818   6.613
 3851POPC   C3B49341  10.151   7.664   7.016
 3851POPC   C4B49342  10.383   7.571   7.394
 3852POPC   NC349343  43.997  42.586   5.417
 3852POPC   PO449344  43.611  41.968   5.371
 3852POPC   GL149345  43.929  42.117   5.678
 3852POPC   GL249346  43.839  42.446   5.878
 3852POPC   C1A49347  44.128  42.028   6.072
 3852POPC   D2A49348  43.917  42.215   6.399
 3852POPC   C3A49349  44.104  42.224   6.768
 3852POPC   C4A49350  43.965  42.230   7.156
 3852POPC   C1B49351  44.039  42.687   6.229
 3852POPC   C2B49352  43.846  42.662   6.651
 3852POPC   C3B49353  43.938  42.724   7.062
 3852POPC   C4B49354  44.297  42.638   7.285
 3853POPC   NC349355  22.235  20.711   5.342
 3853POPC   PO449356  21.587  20.584   5.432
 3853POPC   GL149357  21.894  20.842   5.759
 3853POPC   GL249358  22.297  20.881   5.824
 3853POPC   C1A49359  21.864  20.954   6.229
 3853POPC   D2A49360  21.723  20.828   6.682
 3853POPC   C3A49361  22.026  20.703   7.006
 3853POPC   C4A49362  22.132  20.277   7.181
 3853POPC   C1B49363  22.369  20.873   6.273
 3853POPC   C2B49364  22.236  21.052   6.653
 3853POPC   C3B49365  22.525  20.923   6.962
 3853POPC   C4B49366  22.608  20.525   7.202
 3854POPC   NC349367  12.454   7.773   5.417
 3854POPC   PO449368  11.975   7.381   5.156
 3854POPC   GL149369  12.065   7.358   5.634
 3854POPC   GL249370  12.193   7.625   5.815
 3854POPC   C1A49371  12.026   7.260   6.114
 3854POPC   D2A49372  12.279   7.320   6.504
 3854POPC   C3A49373  12.123   7.264   6.917
 3854POPC   C4A49374  11.997   7.559   7.194
 3854POPC   C1B49375  12.418   7.808   6.154
 3854POPC   C2B49376  12.600   7.734   6.563
 3854POPC   C3B49377  12.424   7.690   6.972
 3854POPC   C4B49378  12.458   7.506   7.424
 3855POPC   NC349379   3.770  21.675   5.346
 3855POPC   PO449380   3.367  21.228   5.487
 3855POPC   GL149381   3.617  21.432   5.805
 3855POPC   GL249382   3.594  21.806   5.814
 3855POPC   C1A49383   3.703  21.246   6.204
 3855POPC   D2A49384   3.546  21.049   6.566
 3855POPC   C3A49385   3.540  21.245   6.963
 3855POPC   C4A49386   3.669  21.121   7.366
 3855POPC   C1B49387   3.883  21.716   6.170
 3855POPC   C2B49388   3.857  21.533   6.614
 3855POPC   C3B49389   3.693  21.730   7.024
 3855POPC   C4B49390   3.545  21.902   7.428
 3856POPC   NC349391  13.602  39.026   5.244
 3856POPC   PO449392  13.805  38.364   5.434
 3856POPC   GL149393  13.585  38.433   5.857
 3856POPC   GL249394  13.518  38.792   5.959
 3856POPC   C1A49395  13.661  38.400   6.302
 3856POPC   D2A49396  13.289  38.304   6.509
 3856POPC   C3A49397  13.310  38.213   6.916
 3856POPC   C4A49398  13.417  38.473   7.247
 3856POPC   C1B49399  13.378  38.810   6.411
 3856POPC   C2B49400  13.590  38.634   6.788
 3856POPC   C3B49401  13.741  38.848   7.164
 3856POPC   C4B49402  13.850  38.897   7.632
 3857POPC   NC349403  25.710  18.577   5.583
 3857POPC   PO449404  26.275  18.978   5.297
 3857POPC   GL149405  26.040  18.980   5.701
 3857POPC   GL249406  25.815  19.280   5.751
 3857POPC   C1A49407  26.044  19.027   6.158
 3857POPC   D2A49408  26.029  19.326   6.493
 3857POPC   C3A49409  26.190  19.162   6.876
 3857POPC   C4A49410  26.011  18.931   7.208
 3857POPC   C1B49411  25.662  19.442   6.119
 3857POPC   C2B49412  25.588  19.597   6.510
 3857POPC   C3B49413  25.642  19.319   6.881
 3857POPC   C4B49414  25.913  19.408   7.218
 3858POPC   NC349415   4.969  13.305   5.330
 3858POPC   PO449416   5.235  13.911   5.207
 3858POPC   GL149417   5.098  13.764   5.652
 3858POPC   GL249418   4.795  13.956   5.764
 3858POPC   C1A49419   5.059  13.448   6.055
 3858POPC   D2A49420   5.384  13.276   6.409
 3858POPC   C3A49421   5.354  13.287   6.886
 3858POPC   C4A49422   5.039  13.340   7.201
 3858POPC   C1B49423   5.108  13.936   6.141
 3858POPC   C2B49424   5.062  13.675   6.519
 3858POPC   C3B49425   5.068  13.746   6.930
 3858POPC   C4B49426   5.012  13.844   7.398
 3859POPC   NC349427   6.314  30.592   5.491
 3859POPC   PO449428   6.901  30.362   5.236
 3859POPC   GL149429   6.809  30.537   5.712
 3859POPC   GL249430   6.514  30.613   5.927
 3859POPC   C1A49431   6.873  30.906   6.092
 3859POPC   D2A49432   6.895  31.135   6.511
 3859POPC   C3A49433   6.757  30.914   6.847
 3859POPC   C4A49434   6.551  30.848   7.255
 3859POPC   C1B49435   6.287  30.807   6.194
 3859POPC   C2B49436   6.343  30.878   6.566
 3859POPC   C3B49437   6.305  30.579   6.880
 3859POPC   C4B49438   6.100  30.645   7.250
 3860POPC   NC349439  41.649  21.151   5.446
 3860POPC   PO449440  41.017  21.172   5.505
 3860POPC   GL149441  41.335  21.166   5.838
 3860POPC   GL249442  41.428  21.489   5.871
 3860POPC   C1A49443  41.605  21.150   6.221
 3860POPC   D2A49444  41.785  21.116   6.639
 3860POPC   C3A49445  41.552  21.232   6.996
 3860POPC   C4A49446  41.599  21.157   7.425
 3860POPC   C1B49447  41.259  21.603   6.268
 3860POPC   C2B49448  41.547  21.584   6.602
 3860POPC   C3B49449  41.906  21.657   6.854
 3860POPC   C4B49450  41.801  21.586   7.255
 3861POPC   NC349451  13.374  42.846   5.562
 3861POPC   PO449452  12.819  42.885   5.150
 3861POPC   GL149453  12.962  43.111   5.641
 3861POPC   GL249454  12.702  43.094   5.882
 3861POPC   C1A49455  13.124  43.151   6.130
 3861POPC   D2A49456  13.221  43.034   6.576
 3861POPC   C3A49457  12.921  43.107   6.936
 3861POPC   C4A49458  12.775  43.264   7.330
 3861POPC   C1B49459  12.501  42.909   6.233
 3861POPC   C2B49460  12.487  43.081   6.667
 3861POPC   C3B49461  12.459  42.913   7.088
 3861POPC   C4B49462  12.695  42.780   7.459
 3862POPC   NC349463   5.128   4.065   5.500
 3862POPC   PO449464   4.945   4.753   5.517
 3862POPC   GL149465   4.967   4.438   5.823
 3862POPC   GL249466   4.795   4.118   5.864
 3862POPC   C1A49467   5.191   4.256   6.158
 3862POPC   D2A49468   5.404   4.245   6.532
 3862POPC   C3A49469   5.264   4.260   6.945
 3862POPC   C4A49470   5.386   4.603   7.187
 3862POPC   C1B49471   4.687   3.937   6.241
 3862POPC   C2B49472   4.660   3.729   6.618
 3862POPC   C3B49473   4.972   3.716   6.923
 3862POPC   C4B49474   4.999   3.955   7.264
 3863POPC   NC349475   3.641  39.868   5.448
 3863POPC   PO449476   3.230  40.299   5.511
 3863POPC   GL149477   3.435  40.167   5.864
 3863POPC   GL249478   3.540  39.818   5.946
 3863POPC   C1A49479   3.383  40.314   6.272
 3863POPC   D2A49480   3.357  40.085   6.610
 3863POPC   C3A49481   3.558  40.122   6.979
 3863POPC   C4A49482   3.361  39.722   7.109
 3863POPC   C1B49483   3.835  40.081   6.172
 3863POPC   C2B49484   3.836  39.907   6.588
 3863POPC   C3B49485   3.856  39.677   6.940
 3863POPC   C4B49486   3.912  39.929   7.299
 3864POPC   NC349487  10.929   0.106   5.391
 3864POPC   PO449488  10.281   0.412   5.390
 3864POPC   GL149489  10.627   0.398   5.706
 3864POPC   GL249490  10.720   0.047   5.868
 3864POPC   C1A49491  10.684   0.715   6.042
 3864POPC   D2A49492  10.471   0.762   6.431
 3864POPC   C3A49493  10.676   0.628   6.817
 3864POPC   C4A49494  10.655   0.766   7.240
 3864POPC   C1B49495  10.458   0.273   6.183
 3864POPC   C2B49496  10.290   0.300   6.595
 3864POPC   C3B49497  10.245   0.424   7.012
 3864POPC   C4B49498  10.542   0.261   7.303
 3865POPC   NC349499  11.350  24.253   5.296
 3865POPC   PO449500  10.769  24.482   5.597
 3865POPC   GL149501  11.143  24.378   5.747
 3865POPC   GL249502  11.337  24.679   5.787
 3865POPC   C1A49503  11.236  24.311   6.143
 3865POPC   D2A49504  11.320  24.262   6.545
 3865POPC   C3A49505  11.022  24.113   6.771
 3865POPC   C4A49506  10.779  24.275   7.086
 3865POPC   C1B49507  11.220  24.822   6.228
 3865POPC   C2B49508  11.462  24.740   6.607
 3865POPC   C3B49509  11.455  24.500   6.988
 3865POPC   C4B49510  11.676  24.602   7.386
 3866POPC   NC349511   7.486  15.674   5.591
 3866POPC   PO449512   7.130  16.214   5.363
 3866POPC   GL149513   7.249  16.113   5.770
 3866POPC   GL249514   7.581  16.231   5.776
 3866POPC   C1A49515   7.406  15.915   6.170
 3866POPC   D2A49516   7.554  15.787   6.546
 3866POPC   C3A49517   7.236  15.869   6.813
 3866POPC   C4A49518   7.331  15.865   7.199
 3866POPC   C1B49519   7.409  16.428   6.152
 3866POPC   C2B49520   7.372  16.306   6.559
 3866POPC   C3B49521   7.642  16.194   6.885
 3866POPC   C4B49522   7.582  16.292   7.290
 3867POPC   NC349523  35.593  19.214   5.641
 3867POPC   PO449524  36.271  18.920   5.525
 3867POPC   GL149525  36.202  19.127   5.964
 3867POPC   GL249526  35.891  19.297   6.097
 3867POPC   C1A49527  36.229  19.095   6.424
 3867POPC   D2A49528  35.962  18.950   6.711
 3867POPC   C3A49529  36.194  18.847   7.045
 3867POPC   C4A49530  36.295  19.066   7.372
 3867POPC   C1B49531  36.131  19.577   6.331
 3867POPC   C2B49532  36.110  19.540   6.784
 3867POPC   C3B49533  35.935  19.313   7.115
 3867POPC   C4B49534  35.798  19.095   7.511
 3868POPC   NC349535  26.818  23.294   5.544
 3868POPC   PO449536  26.639  22.702   5.418
 3868POPC   GL149537  26.720  22.836   5.828
 3868POPC   GL249538  27.080  22.928   5.807
 3868POPC   C1A49539  26.800  23.102   6.198
 3868POPC   D2A49540  26.897  22.912   6.557
 3868POPC   C3A49541  26.947  23.147   6.896
 3868POPC   C4A49542  26.584  23.143   7.123
 3868POPC   C1B49543  27.217  22.729   6.181
 3868POPC   C2B49544  27.323  22.682   6.630
 3868POPC   C3B49545  27.076  22.665   7.010
 3868POPC   C4B49546  26.953  22.901   7.345
 3869POPC   NC349547  40.366  38.962   5.367
 3869POPC   PO449548  39.911  39.615   5.325
 3869POPC   GL149549  40.016  39.449   5.752
 3869POPC   GL249550  39.961  39.074   5.732
 3869POPC   C1A49551  39.866  39.338   6.176
 3869POPC   D2A49552  39.985  39.521   6.556
 3869POPC   C3A49553  39.933  39.436   6.968
 3869POPC   C4A49554  39.674  39.205   7.188
 3869POPC   C1B49555  40.173  38.914   6.110
 3869POPC   C2B49556  40.037  38.980   6.534
 3869POPC   C3B49557  39.921  38.830   6.942
 3869POPC   C4B49558  40.196  39.058   7.214
 3870POPC   NC349559   0.132  21.964   4.943
 3870POPC   PO449560   0.235  21.408   5.368
 3870POPC   GL149561   0.418  21.373   5.798
 3870POPC   GL249562   0.529  21.020   5.802
 3870POPC   C1A49563   0.349  21.287   6.206
 3870POPC   D2A49564   0.559  21.265   6.574
 3870POPC   C3A49565   0.345  21.421   6.915
 3870POPC   C4A49566   0.546  21.434   7.303
 3870POPC   C1B49567   0.798  20.993   6.158
 3870POPC   C2B49568   0.930  20.920   6.575
 3870POPC   C3B49569   0.862  21.121   6.981
 3870POPC   C4B49570   0.840  21.011   7.410
 3871POPC   NC349571  13.209  20.485   5.214
 3871POPC   PO449572  12.631  20.762   5.392
 3871POPC   GL149573  12.826  20.771   5.774
 3871POPC   GL249574  12.839  20.428   5.790
 3871POPC   C1A49575  13.000  20.744   6.195
 3871POPC   D2A49576  13.118  20.493   6.574
 3871POPC   C3A49577  12.943  20.611   6.992
 3871POPC   C4A49578  12.893  20.513   7.448
 3871POPC   C1B49579  12.687  20.293   6.197
 3871POPC   C2B49580  12.626  20.189   6.637
 3871POPC   C3B49581  12.579  20.258   7.105
 3871POPC   C4B49582  12.535  20.162   7.573
 3872POPC   NC349583  22.409  38.394   5.489
 3872POPC   PO449584  21.792  38.736   5.497
 3872POPC   GL149585  22.010  38.544   5.831
 3872POPC   GL249586  21.695  38.578   5.998
 3872POPC   C1A49587  22.111  38.347   6.222
 3872POPC   D2A49588  22.387  38.539   6.531
 3872POPC   C3A49589  22.359  38.670   6.954
 3872POPC   C4A49590  22.293  38.363   7.258
 3872POPC   C1B49591  21.774  38.694   6.405
 3872POPC   C2B49592  21.854  38.388   6.735
 3872POPC   C3B49593  21.706  38.513   7.130
 3872POPC   C4B49594  21.992  38.815   7.296
 3873POPC   NC349595  41.304  42.876   5.455
 3873POPC   PO449596  41.902  43.178   5.523
 3873POPC   GL149597  41.550  43.135   5.814
 3873POPC   GL249598  41.691  42.888   5.893
 3873POPC   C1A49599  41.301  43.012   6.170
 3873POPC   D2A49600  41.204  43.175   6.565
 3873POPC   C3A49601  41.280  42.905   6.904
 3873POPC   C4A49602  41.298  42.997   7.299
 3873POPC   C1B49603  41.794  43.151   6.248
 3873POPC   C2B49604  41.716  43.096   6.659
 3873POPC   C3B49605  41.914  43.268   6.989
 3873POPC   C4B49606  41.802  43.350   7.403
 3874POPC   NC349607  18.878  37.116   5.170
 3874POPC   PO449608  19.464  36.894   5.463
 3874POPC   GL149609  19.047  36.990   5.665
 3874POPC   GL249610  18.902  36.690   5.860
 3874POPC   C1A49611  18.868  37.169   6.070
 3874POPC   D2A49612  19.118  37.239   6.455
 3874POPC   C3A49613  19.015  37.046   6.859
 3874POPC   C4A49614  19.295  37.052   7.213
 3874POPC   C1B49615  18.878  36.619   6.302
 3874POPC   C2B49616  19.126  36.528   6.693
 3874POPC   C3B49617  19.107  36.579   7.140
 3874POPC   C4B49618  18.924  36.394   7.486
 3875POPC   NC349619  26.981  38.080   5.618
 3875POPC   PO449620  27.107  37.464   5.531
 3875POPC   GL149621  26.784  37.587   5.773
 3875POPC   GL249622  26.681  37.264   5.877
 3875POPC   C1A49623  26.826  37.754   6.198
 3875POPC   D2A49624  26.798  37.935   6.602
 3875POPC   C3A49625  27.041  37.767   6.920
 3875POPC   C4A49626  26.841  37.794   7.313
 3875POPC   C1B49627  26.520  37.336   6.228
 3875POPC   C2B49628  26.418  37.592   6.537
 3875POPC   C3B49629  26.601  37.517   6.930
 3875POPC   C4B49630  26.498  37.173   7.179
 3876POPC   NC349631   4.898  17.084   5.445
 3876POPC   PO449632   5.222  16.433   5.399
 3876POPC   GL149633   5.215  16.610   5.774
 3876POPC   GL249634   4.918  16.779   5.837
 3876POPC   C1A49635   5.272  16.755   6.197
 3876POPC   D2A49636   5.303  16.522   6.587
 3876POPC   C3A49637   5.209  16.757   6.956
 3876POPC   C4A49638   4.878  16.667   7.204
 3876POPC   C1B49639   4.842  17.059   6.147
 3876POPC   C2B49640   4.971  16.979   6.556
 3876POPC   C3B49641   4.784  17.153   6.902
 3876POPC   C4B49642   4.907  17.178   7.288
 3877POPC   NC349643  24.188  24.017   5.479
 3877POPC   PO449644  24.679  23.632   5.384
 3877POPC   GL149645  24.564  23.809   5.780
 3877POPC   GL249646  24.299  23.539   5.771
 3877POPC   C1A49647  24.336  23.805   6.205
 3877POPC   D2A49648  24.228  23.607   6.590
 3877POPC   C3A49649  24.312  23.872   6.948
 3877POPC   C4A49650  24.221  23.815   7.382
 3877POPC   C1B49651  24.634  23.381   6.077
 3877POPC   C2B49652  24.735  23.494   6.509
 3877POPC   C3B49653  24.695  23.460   6.954
 3877POPC   C4B49654  24.729  23.802   7.235
 3878POPC   NC349655  44.950  19.936   5.428
 3878POPC   PO449656  44.307  19.729   5.538
 3878POPC   GL149657  44.634  19.817   5.822
 3878POPC   GL249658  44.936  19.574   5.834
 3878POPC   C1A49659  44.624  20.060   6.174
 3878POPC   D2A49660  44.860  20.103   6.512
 3878POPC   C3A49661  44.698  20.171   6.897
 3878POPC   C4A49662  44.759  20.246   7.312
 3878POPC   C1B49663  44.771  19.571   6.277
 3878POPC   C2B49664  44.778  19.663   6.744
 3878POPC   C3B49665  44.962  19.800   7.146
 3878POPC   C4B49666   0.087  19.913   7.591
 3879POPC   NC349667  29.437   1.798   5.514
 3879POPC   PO449668  28.972   2.018   5.037
 3879POPC   GL149669  28.943   1.948   5.547
 3879POPC   GL249670  29.019   1.621   5.741
 3879POPC   C1A49671  28.955   2.025   6.027
 3879POPC   D2A49672  29.042   1.901   6.452
 3879POPC   C3A49673  29.159   2.184   6.763
 3879POPC   C4A49674  28.986   2.026   7.113
 3879POPC   C1B49675  29.368   1.690   6.112
 3879POPC   C2B49676  29.486   1.655   6.534
 3879POPC   C3B49677  29.212   1.616   6.864
 3879POPC   C4B49678  29.091   1.572   7.261
 3880POPC   NC349679   6.152   5.624   5.025
 3880POPC   PO449680   5.778   5.891   5.357
 3880POPC   GL149681   6.018   5.968   5.848
 3880POPC   GL249682   6.357   6.130   5.914
 3880POPC   C1A49683   5.846   6.043   6.294
 3880POPC   D2A49684   5.517   5.973   6.635
 3880POPC   C3A49685   5.694   5.871   7.038
 3880POPC   C4A49686   6.064   5.626   7.105
 3880POPC   C1B49687   6.334   6.201   6.367
 3880POPC   C2B49688   6.136   6.062   6.753
 3880POPC   C3B49689   6.235   6.159   7.169
 3880POPC   C4B49690   6.262   6.345   7.608
 3881POPC   NC349691   9.036  29.780   5.217
 3881POPC   PO449692   8.523  30.050   5.212
 3881POPC   GL149693   8.776  30.132   5.602
 3881POPC   GL249694   9.144  30.087   5.611
 3881POPC   C1A49695   8.831  29.867   5.983
 3881POPC   D2A49696   8.856  29.680   6.405
 3881POPC   C3A49697   8.755  29.657   6.864
 3881POPC   C4A49698   8.983  29.572   7.259
 3881POPC   C1B49699   9.273  30.096   6.065
 3881POPC   C2B49700   9.349  29.849   6.447
 3881POPC   C3B49701   9.210  29.891   6.868
 3881POPC   C4B49702   9.124  30.084   7.264
 3882POPC   NC349703  17.163  19.744   5.510
 3882POPC   PO449704  17.354  20.228   5.236
 3882POPC   GL149705  17.625  19.989   5.626
 3882POPC   GL249706  17.581  19.632   5.774
 3882POPC   C1A49707  17.757  19.995   6.101
 3882POPC   D2A49708  17.697  20.229   6.532
 3882POPC   C3A49709  17.832  20.045   6.937
 3882POPC   C4A49710  17.503  20.062   7.238
 3882POPC   C1B49711  17.245  19.569   6.140
 3882POPC   C2B49712  17.090  19.448   6.579
 3882POPC   C3B49713  17.248  19.543   7.012
 3882POPC   C4B49714  17.679  19.558   7.111
 3883POPC   NC349715  19.323  35.591   5.580
 3883POPC   PO449716  18.978  34.984   5.397
 3883POPC   GL149717  18.959  35.238   5.745
 3883POPC   GL249718  18.921  34.912   5.901
 3883POPC   C1A49719  18.993  35.514   6.141
 3883POPC   D2A49720  18.825  35.643   6.545
 3883POPC   C3A49721  19.020  35.485   6.906
 3883POPC   C4A49722  19.110  35.497   7.321
 3883POPC   C1B49723  19.285  35.099   6.103
 3883POPC   C2B49724  19.165  35.162   6.536
 3883POPC   C3B49725  19.165  34.958   6.959
 3883POPC   C4B49726  19.428  34.892   7.323
 3884POPC   NC349727   8.481  23.126   5.426
 3884POPC   PO449728   8.146  22.575   5.522
 3884POPC   GL149729   8.198  22.892   5.838
 3884POPC   GL249730   7.910  23.076   5.960
 3884POPC   C1A49731   8.230  22.819   6.259
 3884POPC   D2A49732   8.419  22.946   6.603
 3884POPC   C3A49733   8.257  22.787   6.951
 3884POPC   C4A49734   8.059  22.753   7.339
 3884POPC   C1B49735   8.217  23.321   6.214
 3884POPC   C2B49736   8.092  23.407   6.634
 3884POPC   C3B49737   7.971  23.211   7.038
 3884POPC   C4B49738   8.179  23.238   7.455
 3885POPC   NC349739  20.488   0.599   5.503
 3885POPC   PO449740  19.888   0.633   5.254
 3885POPC   GL149741  19.966   0.579   5.706
 3885POPC   GL249742  19.658   0.428   5.843
 3885POPC   C1A49743  19.939   0.739   6.147
 3885POPC   D2A49744  19.842   0.522   6.532
 3885POPC   C3A49745  19.938   0.581   6.972
 3885POPC   C4A49746  19.982   0.408   7.394
 3885POPC   C1B49747  19.607   0.176   6.225
 3885POPC   C2B49748  19.529   0.150   6.680
 3885POPC   C3B49749  19.751   0.083   7.065
 3885POPC   C4B49750  19.659   0.040   7.514
 3886POPC   NC349751  39.343  18.770   5.503
 3886POPC   PO449752  39.547  19.347   5.137
 3886POPC   GL149753  39.321  19.292   5.634
 3886POPC   GL249754  39.391  19.032   5.910
 3886POPC   C1A49755  39.096  19.339   6.134
 3886POPC   D2A49756  39.206  19.263   6.590
 3886POPC   C3A49757  39.068  19.331   7.025
 3886POPC   C4A49758  39.223  19.281   7.452
 3886POPC   C1B49759  39.498  18.928   6.319
 3886POPC   C2B49760  39.379  18.747   6.716
 3886POPC   C3B49761  39.267  18.852   7.133
 3886POPC   C4B49762  39.581  18.873   7.452
 3887POPC   NC349763  16.100   4.584   5.535
 3887POPC   PO449764  15.801   5.130   5.477
 3887POPC   GL149765  16.048   5.220   5.873
 3887POPC   GL249766  15.900   5.512   6.008
 3887POPC   C1A49767  16.286   5.047   6.217
 3887POPC   D2A49768  16.125   4.885   6.609
 3887POPC   C3A49769  16.147   5.170   6.943
 3887POPC   C4A49770  16.458   5.104   7.214
 3887POPC   C1B49771  15.803   5.260   6.415
 3887POPC   C2B49772  15.658   5.037   6.819
 3887POPC   C3B49773  15.569   5.018   7.271
 3887POPC   C4B49774  15.595   5.360   7.599
 3888POPC   NC349775  21.842   2.293   5.445
 3888POPC   PO449776  21.182   1.967   5.289
 3888POPC   GL149777  21.366   1.794   5.687
 3888POPC   GL249778  21.470   2.140   5.781
 3888POPC   C1A49779  21.458   1.783   6.174
 3888POPC   D2A49780  21.259   1.944   6.585
 3888POPC   C3A49781  21.451   1.734   6.948
 3888POPC   C4A49782  21.706   1.701   7.323
 3888POPC   C1B49783  21.522   2.287   6.216
 3888POPC   C2B49784  21.660   2.450   6.631
 3888POPC   C3B49785  21.594   2.256   7.049
 3888POPC   C4B49786  21.359   2.444   7.408
 3889POPC   NC349787   0.439  39.659   5.420
 3889POPC   PO449788   0.377  38.973   5.464
 3889POPC   GL149789   0.369  39.266   5.773
 3889POPC   GL249790   0.643  39.381   5.835
 3889POPC   C1A49791   0.322  39.227   6.238
 3889POPC   D2A49792   0.470  39.085   6.630
 3889POPC   C3A49793   0.237  39.163   6.998
 3889POPC   C4A49794   0.398  39.337   7.324
 3889POPC   C1B49795   0.830  39.252   6.227
 3889POPC   C2B49796   0.851  39.478   6.630
 3889POPC   C3B49797   0.783  39.290   7.022
 3889POPC   C4B49798   0.885  39.274   7.458
 3890POPC   NC349799  18.213  26.196   5.471
 3890POPC   PO449800  17.804  25.695   5.401
 3890POPC   GL149801  17.969  25.823   5.849
 3890POPC   GL249802  18.108  26.171   5.966
 3890POPC   C1A49803  18.159  25.749   6.283
 3890POPC   D2A49804  18.429  25.771   6.684
 3890POPC   C3A49805  18.144  25.786   7.054
 3890POPC   C4A49806  18.097  26.147   7.352
 3890POPC   C1B49807  18.527  26.307   6.131
 3890POPC   C2B49808  18.708  26.530   6.483
 3890POPC   C3B49809  18.562  26.342   6.848
 3890POPC   C4B49810  18.401  26.516   7.212
 3891POPC   NC349811   6.289  37.582   5.393
 3891POPC   PO449812   5.780  38.052   5.430
 3891POPC   GL149813   5.986  37.781   5.771
 3891POPC   GL249814   5.651  37.679   5.870
 3891POPC   C1A49815   6.055  37.445   6.149
 3891POPC   D2A49816   5.826  37.456   6.574
 3891POPC   C3A49817   6.017  37.345   6.984
 3891POPC   C4A49818   5.963  37.295   7.468
 3891POPC   C1B49819   5.839  37.884   6.261
 3891POPC   C2B49820   5.695  37.945   6.649
 3891POPC   C3B49821   5.647  37.714   7.017
 3891POPC   C4B49822   5.688  37.708   7.434
 3892POPC   NC349823   2.114  12.189   5.269
 3892POPC   PO449824   1.660  11.839   5.603
 3892POPC   GL149825   2.028  11.975   5.778
 3892POPC   GL249826   2.122  12.322   5.786
 3892POPC   C1A49827   2.036  11.969   6.200
 3892POPC   D2A49828   1.728  11.910   6.526
 3892POPC   C3A49829   1.750  12.085   6.951
 3892POPC   C4A49830   1.936  11.866   7.305
 3892POPC   C1B49831   2.031  12.478   6.203
 3892POPC   C2B49832   2.095  12.285   6.596
 3892POPC   C3B49833   2.307  12.304   6.952
 3892POPC   C4B49834   2.255  12.310   7.379
 3893POPC   NC349835  21.626  31.997   5.387
 3893POPC   PO449836  21.255  32.627   5.257
 3893POPC   GL149837  21.370  32.364   5.639
 3893POPC   GL249838  21.072  32.229   5.762
 3893POPC   C1A49839  21.501  32.440   6.102
 3893POPC   D2A49840  21.553  32.239   6.529
 3893POPC   C3A49841  21.706  32.379   6.939
 3893POPC   C4A49842  21.530  32.194   7.302
 3893POPC   C1B49843  20.951  32.169   6.163
 3893POPC   C2B49844  20.897  32.376   6.553
 3893POPC   C3B49845  21.176  32.344   6.912
 3893POPC   C4B49846  21.022  32.295   7.300
 3894POPC   NC349847  33.551  12.119   5.450
 3894POPC   PO449848  34.244  11.805   5.352
 3894POPC   GL149849  33.997  12.051   5.696
 3894POPC   GL249850  33.812  11.744   5.775
 3894POPC   C1A49851  33.851  12.292   6.112
 3894POPC   D2A49852  34.074  12.392   6.515
 3894POPC   C3A49853  33.890  12.377   6.925
 3894POPC   C4A49854  33.824  12.237   7.328
 3894POPC   C1B49855  34.039  11.833   6.175
 3894POPC   C2B49856  33.812  11.967   6.576
 3894POPC   C3B49857  33.814  11.824   7.001
 3894POPC   C4B49858  33.541  11.746   7.331
 3895POPC   NC349859  39.678  29.254   5.387
 3895POPC   PO449860  40.236  28.890   5.606
 3895POPC   GL149861  39.975  28.997   5.941
 3895POPC   GL249862  39.615  29.066   5.856
 3895POPC   C1A49863  40.140  29.090   6.368
 3895POPC   D2A49864  40.150  28.891   6.772
 3895POPC   C3A49865  40.037  29.078   7.179
 3895POPC   C4A49866  40.075  28.946   7.603
 3895POPC   C1B49867  39.535  29.251   6.231
 3895POPC   C2B49868  39.731  29.342   6.600
 3895POPC   C3B49869  39.583  29.623   6.890
 3895POPC   C4B49870  39.779  29.514   7.237
 3896POPC   NC349871  23.217  36.361   5.516
 3896POPC   PO449872  22.672  35.996   5.414
 3896POPC   GL149873  22.859  35.977   5.806
 3896POPC   GL249874  22.907  36.312   5.928
 3896POPC   C1A49875  22.986  35.885   6.235
 3896POPC   D2A49876  22.735  35.858   6.609
 3896POPC   C3A49877  22.966  35.907   6.988
 3896POPC   C4A49878  22.999  36.067   7.410
 3896POPC   C1B49879  22.726  36.355   6.339
 3896POPC   C2B49880  22.702  36.335   6.803
 3896POPC   C3B49881  22.560  36.189   7.215
 3896POPC   C4B49882  22.554  36.300   7.692
 3897POPC   NC349883  20.204  32.436   5.413
 3897POPC   PO449884  19.634  31.935   5.389
 3897POPC   GL149885  19.841  32.185   5.763
 3897POPC   GL249886  20.085  32.460   5.888
 3897POPC   C1A49887  19.930  32.116   6.231
 3897POPC   D2A49888  20.172  32.060   6.620
 3897POPC   C3A49889  19.930  32.097   6.963
 3897POPC   C4A49890  19.863  31.892   7.318
 3897POPC   C1B49891  19.994  32.651   6.256
 3897POPC   C2B49892  19.839  32.492   6.643
 3897POPC   C3B49893  19.796  32.576   7.081
 3897POPC   C4B49894  19.986  32.369   7.436
 3898POPC   NC349895  42.318   5.612   5.410
 3898POPC   PO449896  42.775   6.062   5.425
 3898POPC   GL149897  42.551   5.906   5.807
 3898POPC   GL249898  42.177   5.913   5.806
 3898POPC   C1A49899  42.493   6.016   6.253
 3898POPC   D2A49900  42.349   6.273   6.577
 3898POPC   C3A49901  42.287   6.086   6.967
 3898POPC   C4A49902  42.558   5.742   7.095
 3898POPC   C1B49903  42.078   5.726   6.201
 3898POPC   C2B49904  42.265   5.691   6.594
 3898POPC   C3B49905  42.061   5.621   6.951
 3898POPC   C4B49906  42.114   5.629   7.349
 3899POPC   NC349907  27.414  43.826   5.493
 3899POPC   PO449908  27.909  44.213   5.388
 3899POPC   GL149909  27.790  44.113   5.823
 3899POPC   GL249910  27.743  43.753   5.928
 3899POPC   C1A49911  27.608  44.202   6.207
 3899POPC   D2A49912  27.632  43.952   6.570
 3899POPC   C3A49913  27.690  44.154   6.961
 3899POPC   C4A49914  27.751  43.820   7.200
 3899POPC   C1B49915  27.327  43.775   6.142
 3899POPC   C2B49916  27.140  43.738   6.523
 3899POPC   C3B49917  27.217  43.912   6.901
 3899POPC   C4B49918  27.268  43.741   7.261
 3900POPC   NC349919  26.539  11.679   5.401
 3900POPC   PO449920  26.705  10.971   5.442
 3900POPC   GL149921  26.627  11.060   5.848
 3900POPC   GL249922  26.543  11.421   5.839
 3900POPC   C1A49923  26.798  11.208   6.233
 3900POPC   D2A49924  26.885  11.433   6.608
 3900POPC   C3A49925  26.756  11.201   6.917
 3900POPC   C4A49926  26.834  11.071   7.302
 3900POPC   C1B49927  26.497  11.630   6.268
 3900POPC   C2B49928  26.386  11.544   6.720
 3900POPC   C3B49929  26.445  11.477   7.179
 3900POPC   C4B49930  26.552  11.435   7.668
 3901POPC   NC349931  35.669  35.286   5.517
 3901POPC   PO449932  35.391  35.891   5.436
 3901POPC   GL149933  35.295  35.536   5.769
 3901POPC   GL249934  34.963  35.417   5.768
 3901POPC   C1A49935  35.398  35.247   6.167
 3901POPC   D2A49936  35.472  35.363   6.615
 3901POPC   C3A49937  35.572  35.195   7.073
 3901POPC   C4A49938  35.507  35.285   7.530
 3901POPC   C1B49939  34.916  35.393   6.212
 3901POPC   C2B49940  34.949  35.242   6.634
 3901POPC   C3B49941  35.116  35.423   6.958
 3901POPC   C4B49942  35.054  35.680   7.253
 3902POPC   NC349943  39.759  34.999   5.533
 3902POPC   PO449944  40.111  35.511   5.251
 3902POPC   GL149945  40.141  35.381   5.697
 3902POPC   GL249946  39.826  35.384   5.864
 3902POPC   C1A49947  40.220  35.185   6.135
 3902POPC   D2A49948  40.344  35.225   6.605
 3902POPC   C3A49949  40.118  35.035   6.974
 3902POPC   C4A49950  39.730  35.116   7.221
 3902POPC   C1B49951  39.825  35.512   6.297
 3902POPC   C2B49952  39.744  35.319   6.694
 3902POPC   C3B49953  39.867  35.576   7.026
 3902POPC   C4B49954  40.243  35.483   7.218
 3903POPC   NC349955  16.827  37.720   5.516
 3903POPC   PO449956  16.261  37.827   5.201
 3903POPC   GL149957  16.376  37.653   5.703
 3903POPC   GL249958  16.483  37.379   5.904
 3903POPC   C1A49959  16.667  37.777   6.129
 3903POPC   D2A49960  16.517  37.826   6.543
 3903POPC   C3A49961  16.719  37.795   6.934
 3903POPC   C4A49962  16.974  37.510   7.180
 3903POPC   C1B49963  16.436  37.358   6.357
 3903POPC   C2B49964  16.285  37.377   6.769
 3903POPC   C3B49965  16.384  37.485   7.203
 3903POPC   C4B49966  16.292  37.565   7.650
 3904POPC   NC349967  38.112   1.232   5.589
 3904POPC   PO449968  37.548   1.571   5.182
 3904POPC   GL149969  37.582   1.360   5.637
 3904POPC   GL249970  37.391   1.052   5.738
 3904POPC   C1A49971  37.733   1.371   6.105
 3904POPC   D2A49972  37.792   1.050   6.451
 3904POPC   C3A49973  37.805   1.120   6.895
 3904POPC   C4A49974  37.568   1.443   7.130
 3904POPC   C1B49975  37.333   1.085   6.212
 3904POPC   C2B49976  37.340   0.983   6.690
 3904POPC   C3B49977  37.469   0.725   7.080
 3904POPC   C4B49978  37.342   0.699   7.575
 3905POPC   NC349979   8.466  41.426   5.469
 3905POPC   PO449980   7.872  41.225   5.490
 3905POPC   GL149981   7.850  41.471   5.850
 3905POPC   GL249982   8.186  41.542   5.874
 3905POPC   C1A49983   7.912  41.449   6.291
 3905POPC   D2A49984   8.244  41.420   6.586
 3905POPC   C3A49985   8.188  41.327   7.047
 3905POPC   C4A49986   8.430  41.353   7.460
 3905POPC   C1B49987   8.203  41.858   6.175
 3905POPC   C2B49988   8.357  41.937   6.562
 3905POPC   C3B49989   8.153  41.834   6.894
 3905POPC   C4B49990   8.292  41.813   7.273
 3906POPC   NC349991  13.897  23.967   5.118
 3906POPC   PO449992  13.400  23.759   5.536
 3906POPC   GL149993  13.495  23.642   5.914
 3906POPC   GL249994  13.862  23.537   5.921
 3906POPC   C1A49995  13.588  23.787   6.287
 3906POPC   D2A49996  13.465  23.664   6.647
 3906POPC   C3A49997  13.466  23.945   6.985
 3906POPC   C4A49998  13.243  23.900   7.361
 3906POPC   C1B49999  14.070  23.598   6.332
 3906POPC   C2B50000  13.953  23.483   6.757
 3906POPC   C3B50001  13.637  23.411   7.044
 3906POPC   C4B50002  13.703  23.666   7.336
 3907POPC   NC350003   1.272  18.944   5.591
 3907POPC   PO450004   1.296  19.637   5.459
 3907POPC   GL150005   1.258  19.396   5.831
 3907POPC   GL250006   0.924  19.216   5.879
 3907POPC   C1A50007   1.521  19.187   6.142
 3907POPC   D2A50008   1.537  19.343   6.542
 3907POPC   C3A50009   1.560  19.091   6.896
 3907POPC   C4A50010   1.665  19.250   7.277
 3907POPC   C1B50011   1.051  19.020   6.296
 3907POPC   C2B50012   1.178  18.817   6.681
 3907POPC   C3B50013   1.105  18.925   7.132
 3907POPC   C4B50014   0.904  18.855   7.558
 3908POPC   NC350015  13.359   8.168   5.259
 3908POPC   PO450016  12.652   8.122   5.181
 3908POPC   GL150017  12.715   8.151   5.656
 3908POPC   GL250018  13.062   8.252   5.769
 3908POPC   C1A50019  12.627   8.275   6.092
 3908POPC   D2A50020  12.690   8.398   6.507
 3908POPC   C3A50021  12.655   8.149   6.871
 3908POPC   C4A50022  12.659   8.268   7.301
 3908POPC   C1B50023  13.199   8.246   6.232
 3908POPC   C2B50024  13.119   8.107   6.656
 3908POPC   C3B50025  13.152   8.212   7.085
 3908POPC   C4B50026  12.984   8.602   7.134
 3909POPC   NC350027  31.551   5.484   5.564
 3909POPC   PO450028  31.242   6.004   5.210
 3909POPC   GL150029  31.368   5.975   5.657
 3909POPC   GL250030  31.697   6.052   5.771
 3909POPC   C1A50031  31.375   5.827   6.101
 3909POPC   D2A50032  31.514   5.552   6.416
 3909POPC   C3A50033  31.692   5.718   6.794
 3909POPC   C4A50034  31.495   5.837   7.172
 3909POPC   C1B50035  31.674   6.233   6.158
 3909POPC   C2B50036  31.849   6.154   6.548
 3909POPC   C3B50037  31.767   6.220   6.989
 3909POPC   C4B50038  31.837   6.444   7.365
 3910POPC   NC350039  28.612   2.366   5.582
 3910POPC   PO450040  28.075   1.952   5.612
 3910POPC   GL150041  28.468   1.883   5.839
 3910POPC   GL250042  28.409   2.185   6.020
 3910POPC   C1A50043  28.581   1.754   6.288
 3910POPC   D2A50044  28.720   1.557   6.705
 3910POPC   C3A50045  28.584   1.685   7.133
 3910POPC   C4A50046  28.163   1.757   7.326
 3910POPC   C1B50047  28.659   2.265   6.372
 3910POPC   C2B50048  28.637   2.091   6.751
 3910POPC   C3B50049  28.238   1.961   6.864
 3910POPC   C4B50050  27.924   2.164   7.108
 3911POPC   NC350051  30.708   7.914   5.354
 3911POPC   PO450052  30.714   8.609   5.151
 3911POPC   GL150053  30.757   8.377   5.622
 3911POPC   GL250054  30.519   8.117   5.796
 3911POPC   C1A50055  30.964   8.248   6.057
 3911POPC   D2A50056  30.926   7.978   6.464
 3911POPC   C3A50057  30.706   8.186   6.818
 3911POPC   C4A50058  30.899   8.400   7.168
 3911POPC   C1B50059  30.485   8.137   6.258
 3911POPC   C2B50060  30.238   8.046   6.619
 3911POPC   C3B50061  30.319   7.891   7.017
 3911POPC   C4B50062  30.475   8.157   7.286
 3912POPC   NC350063  18.559  35.190   5.325
 3912POPC   PO450064  17.853  35.114   5.316
 3912POPC   GL150065  18.123  35.217   5.753
 3912POPC   GL250066  18.466  35.164   5.849
 3912POPC   C1A50067  18.168  35.344   6.222
 3912POPC   D2A50068  17.988  35.175   6.640
 3912POPC   C3A50069  18.182  35.360   7.018
 3912POPC   C4A50070  18.525  35.650   6.996
 3912POPC   C1B50071  18.658  35.146   6.262
 3912POPC   C2B50072  18.520  35.207   6.661
 3912POPC   C3B50073  18.668  35.160   7.064
 3912POPC   C4B50074  18.917  35.031   7.404
 3913POPC   NC350075  24.332   4.345   5.358
 3913POPC   PO450076  24.987   4.681   5.465
 3913POPC   GL150077  24.830   4.618   5.885
 3913POPC   GL250078  24.534   4.394   5.838
 3913POPC   C1A50079  24.660   4.531   6.312
 3913POPC   D2A50080  24.744   4.280   6.675
 3913POPC   C3A50081  24.685   4.547   7.041
 3913POPC   C4A50082  24.334   4.694   7.237
 3913POPC   C1B50083  24.286   4.203   6.201
 3913POPC   C2B50084  24.153   4.207   6.664
 3913POPC   C3B50085  24.328   4.169   7.094
 3913POPC   C4B50086  24.226   4.106   7.522
 3914POPC   NC350087  40.856  41.247   5.445
 3914POPC   PO450088  40.709  41.970   5.444
 3914POPC   GL150089  40.762  41.726   5.836
 3914POPC   GL250090  40.605  41.395   5.849
 3914POPC   C1A50091  40.696  41.702   6.281
 3914POPC   D2A50092  40.576  41.508   6.642
 3914POPC   C3A50093  40.676  41.650   7.048
 3914POPC   C4A50094  40.541  41.483   7.397
 3914POPC   C1B50095  40.974  41.309   6.106
 3914POPC   C2B50096  41.008  41.202   6.531
 3914POPC   C3B50097  40.751  41.108   6.905
 3914POPC   C4B50098  40.933  41.148   7.279
 3915POPC   NC350099  40.795  18.126   5.452
 3915POPC   PO450100  40.815  18.872   5.595
 3915POPC   GL150101  40.857  18.481   5.854
 3915POPC   GL250102  41.070  18.148   5.863
 3915POPC   C1A50103  40.688  18.295   6.247
 3915POPC   D2A50104  40.548  18.087   6.655
 3915POPC   C3A50105  40.673  18.296   7.037
 3915POPC   C4A50106  40.921  18.640   7.225
 3915POPC   C1B50107  41.127  18.026   6.272
 3915POPC   C2B50108  41.060  18.225   6.672
 3915POPC   C3B50109  41.172  18.157   7.094
 3915POPC   C4B50110  41.292  17.835   7.350
 3916POPC   NC350111   8.550  33.799   5.481
 3916POPC   PO450112   7.895  33.684   5.367
 3916POPC   GL150113   8.063  33.594   5.796
 3916POPC   GL250114   8.399  33.479   5.853
 3916POPC   C1A50115   8.059  33.560   6.270
 3916POPC   D2A50116   8.268  33.870   6.585
 3916POPC   C3A50117   8.002  33.886   6.951
 3916POPC   C4A50118   7.943  33.531   7.188
 3916POPC   C1B50119   8.552  33.476   6.293
 3916POPC   C2B50120   8.653  33.447   6.745
 3916POPC   C3B50121   8.470  33.671   7.090
 3916POPC   C4B50122   8.456  34.124   7.049
 3917POPC   NC350123  27.575   4.600   5.598
 3917POPC   PO450124  27.782   4.036   5.415
 3917POPC   GL150125  27.545   4.132   5.816
 3917POPC   GL250126  27.861   4.146   5.938
 3917POPC   C1A50127  27.520   4.392   6.235
 3917POPC   D2A50128  27.361   4.333   6.668
 3917POPC   C3A50129  27.540   4.557   7.024
 3917POPC   C4A50130  27.802   4.693   7.418
 3917POPC   C1B50131  27.664   3.913   6.303
 3917POPC   C2B50132  27.817   4.081   6.685
 3917POPC   C3B50133  27.847   4.181   7.102
 3917POPC   C4B50134  28.126   4.251   7.404
 3918POPC   NC350135  27.523   0.777   5.415
 3918POPC   PO450136  27.658   0.166   5.222
 3918POPC   GL150137  27.710   0.392   5.665
 3918POPC   GL250138  27.361   0.430   5.752
 3918POPC   C1A50139  27.749   0.531   6.101
 3918POPC   D2A50140  27.546   0.468   6.525
 3918POPC   C3A50141  27.766   0.422   6.933
 3918POPC   C4A50142  27.566   0.599   7.218
 3918POPC   C1B50143  27.296   0.211   6.132
 3918POPC   C2B50144  27.213   0.061   6.541
 3918POPC   C3B50145  27.264   0.231   6.930
 3918POPC   C4B50146  27.388   0.111   7.332
 3919POPC   NC350147  38.719  22.862   5.473
 3919POPC   PO450148  38.044  23.084   5.495
 3919POPC   GL150149  38.374  23.117   5.815
 3919POPC   GL250150  38.485  22.769   5.907
 3919POPC   C1A50151  38.462  23.118   6.268
 3919POPC   D2A50152  38.395  22.813   6.612
 3919POPC   C3A50153  38.487  22.968   7.025
 3919POPC   C4A50154  38.259  23.279   7.255
 3919POPC   C1B50155  38.077  22.778   6.124
 3919POPC   C2B50156  37.948  22.574   6.518
 3919POPC   C3B50157  37.933  22.741   6.928
 3919POPC   C4B50158  38.140  22.758   7.331
 3920POPC   NC350159  43.030  44.013   5.373
 3920POPC   PO450160  43.208  43.422   5.153
 3920POPC   GL150161  43.247  43.643   5.670
 3920POPC   GL250162  43.342  43.993   5.765
 3920POPC   C1A50163  43.019  43.769   6.107
 3920POPC   D2A50164  43.187  43.760   6.535
 3920POPC   C3A50165  43.069  43.835   6.956
 3920POPC   C4A50166  42.756  43.624   7.125
 3920POPC   C1B50167  43.299  44.202   6.166
 3920POPC   C2B50168  43.523  44.151   6.562
 3920POPC   C3B50169  43.441  44.200   6.997
 3920POPC   C4B50170  43.252  44.156   7.391
 3921POPC   NC350171  39.526  43.217   5.564
 3921POPC   PO450172  40.202  43.102   5.382
 3921POPC   GL150173  40.094  43.279   5.739
 3921POPC   GL250174  40.388  43.479   5.714
 3921POPC   C1A50175  40.003  43.094   6.157
 3921POPC   D2A50176  40.236  43.003   6.538
 3921POPC   C3A50177  39.960  43.060   6.892
 3921POPC   C4A50178  39.704  43.035   7.274
 3921POPC   C1B50179  40.406  43.396   6.133
 3921POPC   C2B50180  40.197  43.551   6.464
 3921POPC   C3B50181  40.288  43.437   6.857
 3921POPC   C4B50182  40.309  43.210   7.242
 3922POPC   NC350183   3.616  19.082   5.312
 3922POPC   PO450184   3.287  18.454   5.295
 3922POPC   GL150185   3.385  18.778   5.657
 3922POPC   GL250186   3.691  19.008   5.804
 3922POPC   C1A50187   3.305  18.880   6.114
 3922POPC   D2A50188   3.360  19.257   6.381
 3922POPC   C3A50189   3.239  19.177   6.795
 3922POPC   C4A50190   3.456  18.995   7.140
 3922POPC   C1B50191   3.814  18.921   6.246
 3922POPC   C2B50192   3.759  19.065   6.692
 3922POPC   C3B50193   3.940  19.114   7.114
 3922POPC   C4B50194   4.113  18.814   7.403
 3923POPC   NC350195  20.965  16.828   5.285
 3923POPC   PO450196  20.366  17.118   5.411
 3923POPC   GL150197  20.664  16.989   5.722
 3923POPC   GL250198  20.610  16.669   5.719
 3923POPC   C1A50199  20.795  16.844   6.157
 3923POPC   D2A50200  20.842  16.589   6.511
 3923POPC   C3A50201  20.985  16.843   6.847
 3923POPC   C4A50202  20.782  16.912   7.247
 3923POPC   C1B50203  20.422  16.497   6.068
 3923POPC   C2B50204  20.324  16.646   6.441
 3923POPC   C3B50205  20.486  16.710   6.854
 3923POPC   C4B50206  20.356  16.635   7.251
 3924POPC   NC350207  33.432  43.165   5.424
 3924POPC   PO450208  34.060  43.354   5.265
 3924POPC   GL150209  33.893  43.036   5.620
 3924POPC   GL250210  33.781  43.314   5.822
 3924POPC   C1A50211  33.924  42.908   6.098
 3924POPC   D2A50212  34.129  42.842   6.546
 3924POPC   C3A50213  33.936  42.900   6.976
 3924POPC   C4A50214  34.038  43.001   7.429
 3924POPC   C1B50215  33.760  43.372   6.287
 3924POPC   C2B50216  33.923  43.351   6.708
 3924POPC   C3B50217  33.831  43.378   7.129
 3924POPC   C4B50218  33.552  43.059   7.332
 3925POPC   NC350219  43.547  33.915   5.434
 3925POPC   PO450220  42.902  33.906   5.488
 3925POPC   GL150221  43.000  33.789   5.897
 3925POPC   GL250222  43.271  33.610   5.769
 3925POPC   C1A50223  43.138  33.843   6.369
 3925POPC   D2A50224  43.208  33.753   6.834
 3925POPC   C3A50225  43.053  33.983   7.182
 3925POPC   C4A50226  43.405  34.050   7.496
 3925POPC   C1B50227  43.250  33.398   6.159
 3925POPC   C2B50228  43.138  33.335   6.562
 3925POPC   C3B50229  43.252  33.259   6.972
 3925POPC   C4B50230  43.206  33.490   7.331
 3926POPC   NC350231  28.821  23.999   5.415
 3926POPC   PO450232  28.267  23.552   5.452
 3926POPC   GL150233  28.252  23.728   5.871
 3926POPC   GL250234  28.497  24.024   5.866
 3926POPC   C1A50235  28.390  23.677   6.317
 3926POPC   D2A50236  28.442  23.472   6.734
 3926POPC   C3A50237  28.148  23.699   6.977
 3926POPC   C4A50238  28.147  24.084   7.182
 3926POPC   C1B50239  28.830  23.985   6.173
 3926POPC   C2B50240  28.720  23.993   6.598
 3926POPC   C3B50241  28.892  24.083   6.978
 3926POPC   C4B50242  28.603  23.836   7.198
 3927POPC   NC350243  14.192   8.651   5.529
 3927POPC   PO450244  14.503   9.096   5.268
 3927POPC   GL150245  14.478   9.113   5.719
 3927POPC   GL250246  14.823   9.242   5.767
 3927POPC   C1A50247  14.312   9.129   6.155
 3927POPC   D2A50248  14.334   8.864   6.530
 3927POPC   C3A50249  14.460   8.897   6.939
 3927POPC   C4A50250  14.443   8.766   7.353
 3927POPC   C1B50251  14.797   8.937   6.139
 3927POPC   C2B50252  14.867   8.864   6.585
 3927POPC   C3B50253  14.886   8.627   6.973
 3927POPC   C4B50254  14.922   8.864   7.342
 3928POPC   NC350255  26.115  17.816   5.479
 3928POPC   PO450256  25.830  17.195   5.516
 3928POPC   GL150257  25.741  17.600   5.787
 3928POPC   GL250258  26.059  17.540   5.922
 3928POPC   C1A50259  25.744  17.863   6.205
 3928POPC   D2A50260  25.974  17.839   6.615
 3928POPC   C3A50261  25.849  17.656   7.022
 3928POPC   C4A50262  25.924  17.251   7.213
 3928POPC   C1B50263  26.301  17.572   6.299
 3928POPC   C2B50264  26.399  17.383   6.731
 3928POPC   C3B50265  26.447  17.198   7.164
 3928POPC   C4B50266  26.265  16.986   7.550
 3929POPC   NC350267  21.026  43.307   5.427
 3929POPC   PO450268  21.725  43.294   5.484
 3929POPC   GL150269  21.507  42.911   5.716
 3929POPC   GL250270  21.320  43.159   5.809
 3929POPC   C1A50271  21.279  42.790   6.148
 3929POPC   D2A50272  21.299  43.062   6.578
 3929POPC   C3A50273  21.329  42.895   7.013
 3929POPC   C4A50274  21.174  43.075   7.425
 3929POPC   C1B50275  21.147  43.312   6.172
 3929POPC   C2B50276  21.048  43.545   6.549
 3929POPC   C3B50277  21.109  43.357   6.959
 3929POPC   C4B50278  21.180  43.567   7.334
 3930POPC   NC350279   0.952  41.040   5.332
 3930POPC   PO450280   1.380  40.612   5.525
 3930POPC   GL150281   1.158  40.866   5.799
 3930POPC   GL250282   0.899  40.608   5.849
 3930POPC   C1A50283   1.240  41.144   6.164
 3930POPC   D2A50284   1.239  40.921   6.570
 3930POPC   C3A50285   1.210  41.117   6.974
 3930POPC   C4A50286   1.262  41.017   7.430
 3930POPC   C1B50287   1.077  40.451   6.262
 3930POPC   C2B50288   1.312  40.407   6.664
 3930POPC   C3B50289   1.339  40.356   7.112
 3930POPC   C4B50290   0.991  40.307   7.366
 3931POPC   NC350291  13.409   1.979   5.301
 3931POPC   PO450292  12.721   1.843   5.323
 3931POPC   GL150293  12.675   1.897   5.751
 3931POPC   GL250294  13.036   2.011   5.756
 3931POPC   C1A50295  12.848   1.768   6.174
 3931POPC   D2A50296  13.003   1.970   6.528
 3931POPC   C3A50297  12.979   1.727   6.882
 3931POPC   C4A50298  12.813   1.766   7.298
 3931POPC   C1B50299  12.794   2.260   6.076
 3931POPC   C2B50300  12.591   2.284   6.472
 3931POPC   C3B50301  12.679   2.141   6.905
 3931POPC   C4B50302  12.697   2.264   7.326
 3932POPC   NC350303   4.771  12.385   5.458
 3932POPC   PO450304   5.160  12.910   5.194
 3932POPC   GL150305   5.035  12.918   5.694
 3932POPC   GL250306   4.786  12.670   5.879
 3932POPC   C1A50307   5.032  12.960   6.199
 3932POPC   D2A50308   4.891  13.112   6.622
 3932POPC   C3A50309   5.046  12.877   7.003
 3932POPC   C4A50310   5.185  12.922   7.441
 3932POPC   C1B50311   4.998  12.447   6.237
 3932POPC   C2B50312   5.122  12.438   6.706
 3932POPC   C3B50313   5.179  12.416   7.191
 3932POPC   C4B50314   4.913  12.527   7.565
 3933POPC   NC350315  36.182  16.491   5.349
 3933POPC   PO450316  36.103  17.091   5.343
 3933POPC   GL150317  36.037  16.855   5.746
 3933POPC   GL250318  36.147  16.497   5.845
 3933POPC   C1A50319  36.031  16.826   6.204
 3933POPC   D2A50320  36.218  16.852   6.579
 3933POPC   C3A50321  36.092  17.046   6.939
 3933POPC   C4A50322  36.048  16.751   7.253
 3933POPC   C1B50323  36.453  16.470   6.163
 3933POPC   C2B50324  36.496  16.339   6.589
 3933POPC   C3B50325  36.373  16.514   6.967
 3933POPC   C4B50326  36.372  16.412   7.449
 3934POPC   NC350327  14.738   7.655   5.626
 3934POPC   PO450328  14.496   8.302   5.541
 3934POPC   GL150329  14.242   8.257   5.885
 3934POPC   GL250330  14.375   7.924   5.879
 3934POPC   C1A50331  14.431   8.506   6.196
 3934POPC   D2A50332  14.602   8.429   6.592
 3934POPC   C3A50333  14.245   8.429   6.854
 3934POPC   C4A50334  14.190   8.343   7.271
 3934POPC   C1B50335  14.538   8.014   6.261
 3934POPC   C2B50336  14.445   7.952   6.672
 3934POPC   C3B50337  14.606   8.107   7.032
 3934POPC   C4B50338  14.419   7.917   7.384
 3935POPC   NC350339  26.309   0.566   5.333
 3935POPC   PO450340  25.850   0.088   5.318
 3935POPC   GL150341  25.933   0.387   5.674
 3935POPC   GL250342  26.240   0.622   5.826
 3935POPC   C1A50343  25.948   0.325   6.112
 3935POPC   D2A50344  26.114   0.473   6.496
 3935POPC   C3A50345  25.951   0.310   6.893
 3935POPC   C4A50346  26.284   0.457   7.177
 3935POPC   C1B50347  25.945   0.846   6.091
 3935POPC   C2B50348  25.695   0.757   6.450
 3935POPC   C3B50349  25.888   0.809   6.874
 3935POPC   C4B50350  26.113   0.929   7.238
 3936POPC   NC350351   4.503   3.294   5.379
 3936POPC   PO450352   3.889   3.249   5.602
 3936POPC   GL150353   4.260   3.466   5.791
 3936POPC   GL250354   4.396   3.787   5.861
 3936POPC   C1A50355   4.495   3.425   6.185
 3936POPC   D2A50356   4.269   3.356   6.545
 3936POPC   C3A50357   4.460   3.351   6.933
 3936POPC   C4A50358   4.122   3.338   7.182
 3936POPC   C1B50359   4.147   3.950   6.130
 3936POPC   C2B50360   3.998   3.816   6.509
 3936POPC   C3B50361   4.183   3.774   6.880
 3936POPC   C4B50362   4.485   3.884   7.153
 3937POPC   NC350363  41.002   2.619   5.201
 3937POPC   PO450364  40.627   3.059   5.326
 3937POPC   GL150365  40.793   2.833   5.694
 3937POPC   GL250366  40.676   2.462   5.619
 3937POPC   C1A50367  40.926   2.975   6.143
 3937POPC   D2A50368  40.930   3.130   6.579
 3937POPC   C3A50369  40.633   2.941   6.859
 3937POPC   C4A50370  40.740   2.768   7.230
 3937POPC   C1B50371  40.823   2.479   6.063
 3937POPC   C2B50372  40.703   2.611   6.471
 3937POPC   C3B50373  40.689   2.402   6.865
 3937POPC   C4B50374  40.784   2.251   7.270
 3938POPC   NC350375  10.296  44.986   5.550
 3938POPC   PO450376  10.861  44.600   5.457
 3938POPC   GL150377  10.644  44.525   5.825
 3938POPC   GL250378  10.258  44.487   5.831
 3938POPC   C1A50379  10.861  44.588   6.205
 3938POPC   D2A50380  10.663  44.758   6.564
 3938POPC   C3A50381  10.668  44.532   6.914
 3938POPC   C4A50382  10.831  44.851   7.185
 3938POPC   C1B50383  10.339  44.769   6.171
 3938POPC   C2B50384  10.149  44.823   6.573
 3938POPC   C3B50385  10.326  44.899   6.977
 3938POPC   C4B50386  10.198  44.578   7.233
 3939POPC   NC350387   5.303  19.447   5.432
 3939POPC   PO450388   4.800  19.961   5.412
 3939POPC   GL150389   4.999  19.824   5.761
 3939POPC   GL250390   4.946  19.474   5.791
 3939POPC   C1A50391   5.098  19.975   6.168
 3939POPC   D2A50392   5.111  19.768   6.553
 3939POPC   C3A50393   5.031  19.894   6.958
 3939POPC   C4A50394   5.264  19.724   7.294
 3939POPC   C1B50395   4.782  19.567   6.194
 3939POPC   C2B50396   4.764  19.390   6.605
 3939POPC   C3B50397   4.923  19.410   7.034
 3939POPC   C4B50398   4.778  19.383   7.470
 3940POPC   NC350399   9.495  24.944   5.529
 3940POPC   PO450400   9.960  25.535   5.371
 3940POPC   GL150401   9.901  25.239   5.677
 3940POPC   GL250402   9.611  25.345   5.888
 3940POPC   C1A50403  10.031  25.173   6.109
 3940POPC   D2A50404   9.908  25.416   6.469
 3940POPC   C3A50405  10.066  25.253   6.851
 3940POPC   C4A50406   9.861  25.199   7.233
 3940POPC   C1B50407   9.420  25.320   6.329
 3940POPC   C2B50408   9.488  25.252   6.797
 3940POPC   C3B50409   9.385  25.377   7.236
 3940POPC   C4B50410   9.394  25.518   7.705
 3941POPC   NC350411  17.880  35.552   5.443
 3941POPC   PO450412  17.404  35.088   5.669
 3941POPC   GL150413  17.649  35.350   5.868
 3941POPC   GL250414  17.733  35.112   6.125
 3941POPC   C1A50415  17.735  35.636   6.200
 3941POPC   D2A50416  17.513  35.692   6.586
 3941POPC   C3A50417  17.676  35.506   6.954
 3941POPC   C4A50418  17.568  35.614   7.361
 3941POPC   C1B50419  17.320  35.292   6.311
 3941POPC   C2B50420  17.074  35.245   6.716
 3941POPC   C3B50421  17.249  35.246   7.144
 3941POPC   C4B50422  17.453  35.170   7.555
 3942POPC   NC350423  26.726  19.237   5.206
 3942POPC   PO450424  27.252  18.827   5.443
 3942POPC   GL150425  27.053  19.183   5.660
 3942POPC   GL250426  26.670  19.180   5.736
 3942POPC   C1A50427  27.042  19.264   6.115
 3942POPC   D2A50428  27.012  19.317   6.569
 3942POPC   C3A50429  26.702  19.085   6.796
 3942POPC   C4A50430  26.759  19.058   7.203
 3942POPC   C1B50431  26.606  18.946   6.154
 3942POPC   C2B50432  26.363  18.789   6.543
 3942POPC   C3B50433  26.417  18.696   7.031
 3942POPC   C4B50434  26.403  18.927   7.506
 3943POPC   NC350435   5.422  17.919   5.614
 3943POPC   PO450436   4.965  18.418   5.500
 3943POPC   GL150437   5.111  18.298   5.863
 3943POPC   GL250438   5.218  18.619   6.024
 3943POPC   C1A50439   5.210  18.140   6.242
 3943POPC   D2A50440   5.152  18.357   6.594
 3943POPC   C3A50441   5.183  18.027   6.899
 3943POPC   C4A50442   5.145  18.073   7.327
 3943POPC   C1B50443   4.792  18.542   6.224
 3943POPC   C2B50444   4.656  18.486   6.665
 3943POPC   C3B50445   4.970  18.484   7.050
 3943POPC   C4B50446   4.880  18.525   7.519
 3944POPC   NC350447  16.734  22.791   5.373
 3944POPC   PO450448  16.489  23.388   5.277
 3944POPC   GL150449  16.444  23.097   5.713
 3944POPC   GL250450  16.632  22.855   5.863
 3944POPC   C1A50451  16.381  23.147   6.196
 3944POPC   D2A50452  16.622  23.301   6.581
 3944POPC   C3A50453  16.658  23.040   6.949
 3944POPC   C4A50454  16.414  23.027   7.301
 3944POPC   C1B50455  16.884  22.966   6.239
 3944POPC   C2B50456  17.085  23.073   6.645
 3944POPC   C3B50457  17.108  22.803   7.042
 3944POPC   C4B50458  16.809  22.742   7.421
 3945POPC   NC350459  20.894  32.344   5.305
 3945POPC   PO450460  20.451  31.898   5.440
 3945POPC   GL150461  20.515  32.183   5.770
 3945POPC   GL250462  20.635  32.496   5.842
 3945POPC   C1A50463  20.444  32.169   6.202
 3945POPC   D2A50464  20.655  31.906   6.499
 3945POPC   C3A50465  20.724  32.058   6.923
 3945POPC   C4A50466  20.383  32.115   7.189
 3945POPC   C1B50467  20.531  32.671   6.236
 3945POPC   C2B50468  20.352  32.557   6.633
 3945POPC   C3B50469  20.337  32.617   7.073
 3945POPC   C4B50470  20.745  32.718   7.233
 3946POPC   NC350471  14.540  32.676   5.431
 3946POPC   PO450472  14.208  33.318   5.497
 3946POPC   GL150473  14.288  33.253   5.918
 3946POPC   GL250474  14.555  33.034   5.831
 3946POPC   C1A50475  14.243  33.041   6.322
 3946POPC   D2A50476  14.353  32.650   6.562
 3946POPC   C3A50477  14.230  32.759   6.977
 3946POPC   C4A50478  14.210  33.168   7.147
 3946POPC   C1B50479  14.732  33.201   6.202
 3946POPC   C2B50480  14.732  33.031   6.598
 3946POPC   C3B50481  14.696  33.121   7.017
 3946POPC   C4B50482  14.566  32.877   7.369
 3947POPC   NC350483  16.735   3.065   5.348
 3947POPC   PO450484  16.279   2.458   5.378
 3947POPC   GL150485  16.498   2.689   5.747
 3947POPC   GL250486  16.846   2.624   5.809
 3947POPC   C1A50487  16.642   2.879   6.189
 3947POPC   D2A50488  16.920   3.081   6.525
 3947POPC   C3A50489  16.712   2.971   6.948
 3947POPC   C4A50490  16.419   2.614   7.138
 3947POPC   C1B50491  17.102   2.685   6.187
 3947POPC   C2B50492  16.883   2.572   6.564
 3947POPC   C3B50493  16.877   2.478   6.981
 3947POPC   C4B50494  17.097   2.462   7.369
 3948POPC   NC350495   8.331  28.470   5.368
 3948POPC   PO450496   7.910  27.904   5.433
 3948POPC   GL150497   8.097  28.148   5.769
 3948POPC   GL250498   7.876  28.405   5.922
 3948POPC   C1A50499   8.368  28.311   6.121
 3948POPC   D2A50500   8.459  28.548   6.511
 3948POPC   C3A50501   8.412  28.366   6.895
 3948POPC   C4A50502   8.379  28.111   7.252
 3948POPC   C1B50503   7.888  28.358   6.354
 3948POPC   C2B50504   7.807  28.311   6.783
 3948POPC   C3B50505   7.987  28.458   7.137
 3948POPC   C4B50506   8.178  28.472   7.560
 3949POPC   NC350507  15.009  25.188   5.416
 3949POPC   PO450508  15.603  25.338   5.376
 3949POPC   GL150509  15.429  25.098   5.749
 3949POPC   GL250510  15.249  25.339   5.854
 3949POPC   C1A50511  15.378  25.033   6.247
 3949POPC   D2A50512  15.448  25.276   6.662
 3949POPC   C3A50513  15.289  25.161   7.087
 3949POPC   C4A50514  15.283  24.972   7.515
 3949POPC   C1B50515  15.194  25.552   6.219
 3949POPC   C2B50516  15.016  25.582   6.619
 3949POPC   C3B50517  15.173  25.647   7.024
 3949POPC   C4B50518  15.028  25.477   7.420
 3950POPC   NC350519  31.724  22.354   5.354
 3950POPC   PO450520  31.393  21.781   5.081
 3950POPC   GL150521  31.354  22.117   5.606
 3950POPC   GL250522  31.613  22.288   5.841
 3950POPC   C1A50523  31.306  21.999   6.143
 3950POPC   D2A50524  31.435  21.857   6.625
 3950POPC   C3A50525  31.412  22.040   7.086
 3950POPC   C4A50526  31.142  22.145   7.466
 3950POPC   C1B50527  31.353  22.504   6.164
 3950POPC   C2B50528  31.270  22.348   6.580
 3950POPC   C3B50529  31.180  22.486   6.974
 3950POPC   C4B50530  31.410  22.577   7.331
 3951POPC   NC350531   2.138  32.384   5.295
 3951POPC   PO450532   1.554  32.535   5.471
 3951POPC   GL150533   1.962  32.473   5.763
 3951POPC   GL250534   2.215  32.164   5.792
 3951POPC   C1A50535   2.155  32.501   6.179
 3951POPC   D2A50536   2.000  32.283   6.528
 3951POPC   C3A50537   1.775  32.535   6.823
 3951POPC   C4A50538   1.779  32.376   7.216
 3951POPC   C1B50539   2.402  32.051   6.225
 3951POPC   C2B50540   2.400  32.022   6.676
 3951POPC   C3B50541   2.250  32.326   6.985
 3951POPC   C4B50542   2.342  32.297   7.400
 3952POPC   NC350543  10.511  37.683   5.487
 3952POPC   PO450544  10.972  38.100   5.421
 3952POPC   GL150545  10.736  37.826   5.907
 3952POPC   GL250546  10.313  37.721   5.929
 3952POPC   C1A50547  10.510  37.770   6.368
 3952POPC   D2A50548  10.437  37.467   6.717
 3952POPC   C3A50549  10.674  37.564   7.058
 3952POPC   C4A50550  10.544  37.950   7.304
 3952POPC   C1B50551  10.038  37.574   6.251
 3952POPC   C2B50552   9.914  37.671   6.665
 3952POPC   C3B50553  10.157  37.750   7.044
 3952POPC   C4B50554  10.277  37.429   7.369
 3953POPC   NC350555  31.691  14.008   5.662
 3953POPC   PO450556  31.331  14.456   5.309
 3953POPC   GL150557  31.376  14.401   5.787
 3953POPC   GL250558  31.215  14.088   5.903
 3953POPC   C1A50559  31.595  14.607   6.167
 3953POPC   D2A50560  31.602  14.866   6.563
 3953POPC   C3A50561  31.620  14.715   6.979
 3953POPC   C4A50562  31.332  14.532   7.306
 3953POPC   C1B50563  31.489  14.121   6.280
 3953POPC   C2B50564  31.684  14.335   6.625
 3953POPC   C3B50565  31.608  14.206   7.040
 3953POPC   C4B50566  31.652  14.222   7.516
 3954POPC   NC350567  33.421  40.607   5.506
 3954POPC   PO450568  33.991  41.020   5.390
 3954POPC   GL150569  33.802  40.869   5.773
 3954POPC   GL250570  33.505  41.088   5.809
 3954POPC   C1A50571  33.863  40.621   6.199
 3954POPC   D2A50572  34.148  40.560   6.596
 3954POPC   C3A50573  33.900  40.581   6.982
 3954POPC   C4A50574  33.459  40.475   7.086
 3954POPC   C1B50575  33.794  41.135   6.193
 3954POPC   C2B50576  33.928  41.044   6.619
 3954POPC   C3B50577  33.731  41.109   7.016
 3954POPC   C4B50578  33.524  41.197   7.422
 3955POPC   NC350579  44.527   0.868   5.392
 3955POPC   PO450580  44.863   0.322   5.400
 3955POPC   GL150581  44.665   0.528   5.749
 3955POPC   GL250582  44.651   0.255   5.964
 3955POPC   C1A50583  44.473   0.679   6.146
 3955POPC   D2A50584  44.600   0.349   6.471
 3955POPC   C3A50585  44.619   0.438   6.893
 3955POPC   C4A50586  44.510   0.230   7.251
 3955POPC   C1B50587  44.951   0.574   6.186
 3955POPC   C2B50588  44.874   0.805   6.563
 3955POPC   C3B50589   0.001   0.772   7.001
 3955POPC   C4B50590  44.752   0.708   7.365
 3956POPC   NC350591  24.661  24.812   5.296
 3956POPC   PO450592  24.120  24.461   5.394
 3956POPC   GL150593  24.441  24.432   5.679
 3956POPC   GL250594  24.272  24.679   5.891
 3956POPC   C1A50595  24.485  24.276   6.098
 3956POPC   D2A50596  24.290  24.304   6.511
 3956POPC   C3A50597  24.501  24.375   6.912
 3956POPC   C4A50598  24.378  24.314   7.337
 3956POPC   C1B50599  24.461  24.774   6.287
 3956POPC   C2B50600  24.252  24.883   6.666
 3956POPC   C3B50601  24.232  24.764   7.106
 3956POPC   C4B50602  24.665  24.742   7.333
 3957POPC   NC350603  21.737  34.268   5.320
 3957POPC   PO450604  21.124  34.350   5.548
 3957POPC   GL150605  21.403  34.587   5.823
 3957POPC   GL250606  21.655  34.802   5.681
 3957POPC   C1A50607  21.355  34.505   6.264
 3957POPC   D2A50608  20.993  34.501   6.552
 3957POPC   C3A50609  21.177  34.452   6.951
 3957POPC   C4A50610  21.495  34.220   7.185
 3957POPC   C1B50611  21.787  34.777   6.120
 3957POPC   C2B50612  21.615  34.839   6.534
 3957POPC   C3B50613  21.743  34.769   6.959
 3957POPC   C4B50614  21.462  34.724   7.291
 3958POPC   NC350615   7.482  39.479   5.403
 3958POPC   PO450616   7.071  38.990   5.460
 3958POPC   GL150617   7.345  39.213   5.824
 3958POPC   GL250618   7.697  39.164   5.773
 3958POPC   C1A50619   7.562  39.286   6.245
 3958POPC   D2A50620   7.741  39.433   6.630
 3958POPC   C3A50621   7.461  39.469   6.935
 3958POPC   C4A50622   7.357  39.208   7.233
 3958POPC   C1B50623   7.739  38.831   6.130
 3958POPC   C2B50624   7.595  38.853   6.579
 3958POPC   C3B50625   7.768  38.999   6.985
 3958POPC   C4B50626   7.845  38.752   7.395
 3959POPC   NC350627  26.443  29.228   5.661
 3959POPC   PO450628  25.770  29.172   5.591
 3959POPC   GL150629  25.807  29.179   5.989
 3959POPC   GL250630  26.029  29.465   5.903
 3959POPC   C1A50631  25.805  29.024   6.421
 3959POPC   D2A50632  26.070  28.852   6.738
 3959POPC   C3A50633  25.838  28.919   7.121
 3959POPC   C4A50634  25.874  29.308   7.410
 3959POPC   C1B50635  26.156  29.403   6.293
 3959POPC   C2B50636  26.186  29.635   6.652
 3959POPC   C3B50637  26.141  29.330   6.965
 3959POPC   C4B50638  26.319  29.016   7.231
 3960POPC   NC350639   0.067  12.760   5.171
 3960POPC   PO450640   0.460  13.239   5.504
 3960POPC   GL150641   0.474  12.933   5.858
 3960POPC   GL250642   0.623  13.157   6.093
 3960POPC   C1A50643   0.384  12.700   6.242
 3960POPC   D2A50644   0.696  12.807   6.555
 3960POPC   C3A50645   0.548  12.853   6.953
 3960POPC   C4A50646   0.453  12.547   7.239
 3960POPC   C1B50647   0.162  13.163   6.237
 3960POPC   C2B50648  44.946  12.903   6.520
 3960POPC   C3B50649   0.034  13.066   6.891
 3960POPC   C4B50650   0.166  12.989   7.267
 3961POPC   NC350651  21.016   6.364   5.399
 3961POPC   PO450652  20.762   6.978   5.354
 3961POPC   GL150653  20.692   6.636   5.693
 3961POPC   GL250654  20.354   6.509   5.795
 3961POPC   C1A50655  20.757   6.481   6.120
 3961POPC   D2A50656  20.566   6.406   6.521
 3961POPC   C3A50657  20.768   6.592   6.868
 3961POPC   C4A50658  20.737   6.464   7.280
 3961POPC   C1B50659  20.252   6.696   6.226
 3961POPC   C2B50660  20.178   6.725   6.704
 3961POPC   C3B50661  20.263   6.516   7.120
 3961POPC   C4B50662  20.214   6.665   7.578
 3962POPC   NC350663   9.911  37.509   5.310
 3962POPC   PO450664   9.442  37.962   5.300
 3962POPC   GL150665   9.625  37.734   5.696
 3962POPC   GL250666   9.468  37.441   5.862
 3962POPC   C1A50667   9.597  37.832   6.165
 3962POPC   D2A50668   9.344  37.754   6.549
 3962POPC   C3A50669   9.501  37.859   6.956
 3962POPC   C4A50670   9.759  37.935   7.294
 3962POPC   C1B50671   9.581  37.331   6.326
 3962POPC   C2B50672   9.529  37.344   6.781
 3962POPC   C3B50673   9.778  37.430   7.154
 3962POPC   C4B50674   9.805  37.502   7.610
 3963POPC   NC350675  36.926   0.008   5.003
 3963POPC   PO450676  37.325  44.708   5.392
 3963POPC   GL150677  36.961  44.640   5.699
 3963POPC   GL250678  36.906  44.280   5.745
 3963POPC   C1A50679  36.836  44.806   6.104
 3963POPC   D2A50680  36.704  44.754   6.505
 3963POPC   C3A50681  36.888   0.070   6.746
 3963POPC   C4A50682  37.009  44.904   7.096
 3963POPC   C1B50683  37.059  44.352   6.167
 3963POPC   C2B50684  36.983  44.231   6.580
 3963POPC   C3B50685  36.910  44.422   6.955
 3963POPC   C4B50686  37.183  44.488   7.312
 3964POPC   NC350687  42.627  12.953   5.502
 3964POPC   PO450688  42.217  12.496   5.508
 3964POPC   GL150689  42.228  12.811   5.818
 3964POPC   GL250690  42.260  13.192   5.766
 3964POPC   C1A50691  42.422  12.754   6.205
 3964POPC   D2A50692  42.664  13.018   6.507
 3964POPC   C3A50693  42.653  12.920   6.968
 3964POPC   C4A50694  42.407  13.194   7.246
 3964POPC   C1B50695  42.109  13.160   6.217
 3964POPC   C2B50696  42.130  12.868   6.609
 3964POPC   C3B50697  42.142  12.807   7.053
 3964POPC   C4B50698  41.881  13.104   7.223
 3965POPC   NC350699  11.266   5.441   5.591
 3965POPC   PO450700  11.579   5.039   5.161
 3965POPC   GL150701  11.118   4.994   5.681
 3965POPC   GL250702  11.042   4.674   5.849
 3965POPC   C1A50703  11.170   5.082   6.187
 3965POPC   D2A50704  11.313   5.328   6.615
 3965POPC   C3A50705  11.449   5.145   7.065
 3965POPC   C4A50706  11.692   5.248   7.472
 3965POPC   C1B50707  10.798   4.718   6.222
 3965POPC   C2B50708  10.883   4.825   6.656
 3965POPC   C3B50709  11.001   4.764   7.095
 3965POPC   C4B50710  11.367   4.635   7.277
 3966POPC   NC350711  16.269  30.926   5.538
 3966POPC   PO450712  16.776  30.438   5.406
 3966POPC   GL150713  16.635  30.620   5.799
 3966POPC   GL250714  16.590  30.978   5.924
 3966POPC   C1A50715  16.538  30.537   6.224
 3966POPC   D2A50716  16.745  30.556   6.595
 3966POPC   C3A50717  16.464  30.583   6.905
 3966POPC   C4A50718  16.516  30.578   7.324
 3966POPC   C1B50719  16.913  30.900   6.242
 3966POPC   C2B50720  16.957  31.020   6.692
 3966POPC   C3B50721  16.803  30.937   7.119
 3966POPC   C4B50722  16.528  31.026   7.546
 3967POPC   NC350723   6.094   4.553   5.487
 3967POPC   PO450724   5.577   4.090   5.607
 3967POPC   GL150725   5.923   4.193   5.819
 3967POPC   GL250726   5.737   4.537   5.848
 3967POPC   C1A50727   6.221   4.071   6.142
 3967POPC   D2A50728   6.236   4.252   6.549
 3967POPC   C3A50729   5.873   4.183   6.783
 3967POPC   C4A50730   5.725   4.211   7.185
 3967POPC   C1B50731   5.813   4.431   6.279
 3967POPC   C2B50732   5.691   4.646   6.648
 3967POPC   C3B50733   5.870   4.684   7.002
 3967POPC   C4B50734   5.836   4.681   7.401
 3968POPC   NC350735  44.834  31.807   5.476
 3968POPC   PO450736  44.816  32.490   5.255
 3968POPC   GL150737  44.732  32.380   5.657
 3968POPC   GL250738  44.373  32.402   5.699
 3968POPC   C1A50739  44.710  32.215   6.082
 3968POPC   D2A50740  44.446  32.128   6.423
 3968POPC   C3A50741  44.574  32.104   6.841
 3968POPC   C4A50742  44.887  32.137   7.162
 3968POPC   C1B50743  44.207  32.475   6.136
 3968POPC   C2B50744  44.272  32.614   6.582
 3968POPC   C3B50745  44.221  32.594   7.029
 3968POPC   C4B50746  44.404  32.270   7.304
 3969POPC   NC350747  35.712  29.559   5.002
 3969POPC   PO450748  35.221  29.906   5.432
 3969POPC   GL150749  35.354  29.914   5.827
 3969POPC   GL250750  35.024  29.892   5.927
 3969POPC   C1A50751  35.571  29.950   6.233
 3969POPC   D2A50752  35.395  29.756   6.622
 3969POPC   C3A50753  35.644  29.704   6.996
 3969POPC   C4A50754  35.700  30.015   7.275
 3969POPC   C1B50755  35.063  30.024   6.322
 3969POPC   C2B50756  35.030  30.165   6.708
 3969POPC   C3B50757  35.154  29.910   7.079
 3969POPC   C4B50758  35.072  29.860   7.497
 3970POPC   NC350759  40.877  42.174   5.071
 3970POPC   PO450760  40.818  42.756   5.397
 3970POPC   GL150761  40.873  42.519   5.728
 3970POPC   GL250762  40.687  42.248   5.884
 3970POPC   C1A50763  40.964  42.626   6.115
 3970POPC   D2A50764  41.157  42.628   6.495
 3970POPC   C3A50765  40.948  42.439   6.814
 3970POPC   C4A50766  41.004  42.563   7.222
 3970POPC   C1B50767  40.833  42.182   6.331
 3970POPC   C2B50768  40.589  42.054   6.694
 3970POPC   C3B50769  40.611  42.171   7.129
 3970POPC   C4B50770  41.035  42.065   7.179
 3971POPC   NC350771  44.150   6.068   5.660
 3971POPC   PO450772  44.626   5.722   5.432
 3971POPC   GL150773  44.621   5.771   5.857
 3971POPC   GL250774  44.331   5.805   6.026
 3971POPC   C1A50775  44.744   5.662   6.272
 3971POPC   D2A50776  44.601   5.509   6.634
 3971POPC   C3A50777  44.805   5.655   7.001
 3971POPC   C4A50778  44.916   5.845   7.410
 3971POPC   C1B50779  44.215   5.493   6.238
 3971POPC   C2B50780  44.062   5.509   6.649
 3971POPC   C3B50781  44.266   5.730   6.992
 3971POPC   C4B50782  44.456   5.648   7.378
 3972POPC   NC350783  38.067  32.728   5.466
 3972POPC   PO450784  38.476  32.160   5.383
 3972POPC   GL150785  38.373  32.156   5.796
 3972POPC   GL250786  38.407  32.506   5.809
 3972POPC   C1A50787  38.578  32.078   6.186
 3972POPC   D2A50788  38.795  32.135   6.582
 3972POPC   C3A50789  38.503  32.108   6.936
 3972POPC   C4A50790  38.581  32.156   7.378
 3972POPC   C1B50791  38.209  32.476   6.213
 3972POPC   C2B50792  38.313  32.586   6.634
 3972POPC   C3B50793  38.138  32.528   7.038
 3972POPC   C4B50794  38.245  32.532   7.459
 3973POPC   NC350795  30.422  19.886   5.434
 3973POPC   PO450796  30.907  19.820   5.001
 3973POPC   GL150797  30.896  19.908   5.562
 3973POPC   GL250798  30.727  19.637   5.773
 3973POPC   C1A50799  30.892  20.046   6.055
 3973POPC   D2A50800  30.703  19.916   6.490
 3973POPC   C3A50801  30.885  19.921   6.942
 3973POPC   C4A50802  30.964  19.497   7.152
 3973POPC   C1B50803  30.363  19.689   6.088
 3973POPC   C2B50804  30.267  19.646   6.531
 3973POPC   C3B50805  30.383  19.802   6.912
 3973POPC   C4B50806  30.519  19.922   7.316
 3974POPC   NC350807   0.615  16.705   5.121
 3974POPC   PO450808   0.268  17.298   5.235
 3974POPC   GL150809   0.459  17.040   5.622
 3974POPC   GL250810   0.600  16.661   5.649
 3974POPC   C1A50811   0.511  16.983   6.071
 3974POPC   D2A50812   0.294  16.904   6.439
 3974POPC   C3A50813   0.455  16.909   6.872
 3974POPC   C4A50814   0.382  16.726   7.254
 3974POPC   C1B50815   0.795  16.556   6.089
 3974POPC   C2B50816   0.679  16.595   6.535
 3974POPC   C3B50817   0.758  16.461   6.979
 3974POPC   C4B50818   1.004  16.414   7.395
 3975POPC   NC350819  44.833  44.262   5.456
 3975POPC   PO450820  44.432  43.826   5.199
 3975POPC   GL150821  44.533  43.950   5.699
 3975POPC   GL250822  44.712  43.675   5.861
 3975POPC   C1A50823  44.705  44.097   6.128
 3975POPC   D2A50824  44.586  43.841   6.481
 3975POPC   C3A50825  44.437  43.993   6.860
 3975POPC   C4A50826  44.763  44.123   7.137
 3975POPC   C1B50827  44.995  43.644   6.193
 3975POPC   C2B50828   0.134  43.511   6.591
 3975POPC   C3B50829  44.984  43.672   6.983
 3975POPC   C4B50830   0.113  43.501   7.346
 3976POPC   NC350831  17.759   6.292   5.387
 3976POPC   PO450832  17.491   6.917   5.437
 3976POPC   GL150833  17.394   6.546   5.671
 3976POPC   GL250834  17.709   6.492   5.862
 3976POPC   C1A50835  17.256   6.473   6.096
 3976POPC   D2A50836  17.380   6.368   6.534
 3976POPC   C3A50837  17.424   6.614   6.899
 3976POPC   C4A50838  17.225   6.654   7.314
 3976POPC   C1B50839  17.805   6.304   6.271
 3976POPC   C2B50840  17.838   6.227   6.744
 3976POPC   C3B50841  18.010   6.420   7.142
 3976POPC   C4B50842  17.922   6.396   7.620
 3977POPC   NC350843  20.027  31.732   5.513
 3977POPC   PO450844  19.723  31.221   5.330
 3977POPC   GL150845  19.677  31.407   5.741
 3977POPC   GL250846  19.759  31.096   5.905
 3977POPC   C1A50847  19.834  31.593   6.151
 3977POPC   D2A50848  19.733  31.756   6.575
 3977POPC   C3A50849  19.906  31.583   6.925
 3977POPC   C4A50850  19.795  31.370   7.293
 3977POPC   C1B50851  20.019  31.100   6.271
 3977POPC   C2B50852  19.979  31.124   6.715
 3977POPC   C3B50853  20.205  31.171   7.077
 3977POPC   C4B50854  20.202  31.158   7.542
 3978POPC   NC350855  18.890  18.608   5.535
 3978POPC   PO450856  18.875  19.289   5.533
 3978POPC   GL150857  19.150  19.179   5.853
 3978POPC   GL250858  19.011  18.838   5.967
 3978POPC   C1A50859  19.410  19.031   6.198
 3978POPC   D2A50860  19.162  18.779   6.487
 3978POPC   C3A50861  19.147  18.899   6.902
 3978POPC   C4A50862  19.113  19.106   7.278
 3978POPC   C1B50863  18.797  19.099   6.249
 3978POPC   C2B50864  18.842  19.248   6.670
 3978POPC   C3B50865  18.692  19.309   7.090
 3978POPC   C4B50866  18.658  19.063   7.495
 3979POPC   NC350867   0.465   8.448   5.493
 3979POPC   PO450868   0.349   7.796   5.487
 3979POPC   GL150869   0.441   8.068   5.848
 3979POPC   GL250870   0.789   8.171   5.819
 3979POPC   C1A50871   0.292   8.374   6.154
 3979POPC   D2A50872   0.441   8.490   6.551
 3979POPC   C3A50873   0.240   8.314   6.935
 3979POPC   C4A50874   0.099   7.979   7.232
 3979POPC   C1B50875   0.820   8.425   6.180
 3979POPC   C2B50876   0.949   8.546   6.590
 3979POPC   C3B50877   0.717   8.545   6.971
 3979POPC   C4B50878   0.567   8.351   7.338
 3980POPC   NC350879  23.335  38.006   5.341
 3980POPC   PO450880  23.936  37.541   5.416
 3980POPC   GL150881  23.859  37.693   5.804
 3980POPC   GL250882  23.499  37.664   5.744
 3980POPC   C1A50883  23.967  37.548   6.218
 3980POPC   D2A50884  24.085  37.552   6.657
 3980POPC   C3A50885  23.878  37.859   6.883
 3980POPC   C4A50886  23.924  37.642   7.247
 3980POPC   C1B50887  23.349  37.707   6.144
 3980POPC   C2B50888  23.554  37.663   6.511
 3980POPC   C3B50889  23.443  37.573   6.905
 3980POPC   C4B50890  23.451  37.875   7.204
 3981POPC   NC350891  15.935   1.810   5.091
 3981POPC   PO450892  15.591   2.297   5.436
 3981POPC   GL150893  15.922   2.238   5.741
 3981POPC   GL250894  16.158   1.959   5.594
 3981POPC   C1A50895  15.817   2.054   6.152
 3981POPC   D2A50896  15.806   2.121   6.577
 3981POPC   C3A50897  16.168   2.262   6.756
 3981POPC   C4A50898  16.176   2.169   7.174
 3981POPC   C1B50899  16.151   1.693   5.992
 3981POPC   C2B50900  16.163   1.767   6.443
 3981POPC   C3B50901  16.053   1.760   6.878
 3981POPC   C4B50902  16.352   1.667   7.177
 3982POPC   NC350903  44.784  42.001   5.616
 3982POPC   PO450904  44.394  41.400   5.484
 3982POPC   GL150905  44.464  41.643   5.847
 3982POPC   GL250906  44.805  41.528   5.846
 3982POPC   C1A50907  44.602  41.858   6.247
 3982POPC   D2A50908  44.609  42.056   6.660
 3982POPC   C3A50909  44.877  41.922   6.972
 3982POPC   C4A50910  44.870  41.523   7.150
 3982POPC   C1B50911  44.679  41.351   6.234
 3982POPC   C2B50912  44.611  41.445   6.671
 3982POPC   C3B50913  44.513  41.172   7.018
 3982POPC   C4B50914  44.593  41.206   7.478
 3983POPC   NC350915  10.051  21.956   5.392
 3983POPC   PO450916  10.432  22.509   5.483
 3983POPC   GL150917  10.620  22.195   5.790
 3983POPC   GL250918  10.803  21.892   5.847
 3983POPC   C1A50919  10.707  22.159   6.262
 3983POPC   D2A50920  10.802  21.889   6.619
 3983POPC   C3A50921  10.531  21.964   6.972
 3983POPC   C4A50922  10.531  22.315   7.215
 3983POPC   C1B50923  10.386  21.817   6.066
 3983POPC   C2B50924  10.273  21.821   6.520
 3983POPC   C3B50925  10.065  21.753   6.936
 3983POPC   C4B50926  10.095  21.733   7.413
 3984POPC   NC350927  25.600  21.967   5.491
 3984POPC   PO450928  25.385  22.583   5.387
 3984POPC   GL150929  25.503  22.330   5.809
 3984POPC   GL250930  25.224  22.175   5.913
 3984POPC   C1A50931  25.639  22.062   6.215
 3984POPC   D2A50932  25.668  22.240   6.669
 3984POPC   C3A50933  25.350  22.205   7.014
 3984POPC   C4A50934  25.307  22.370   7.452
 3984POPC   C1B50935  25.148  22.160   6.354
 3984POPC   C2B50936  25.041  21.923   6.722
 3984POPC   C3B50937  24.847  22.211   7.014
 3984POPC   C4B50938  24.980  22.594   7.113
 3985POPC   NC350939  30.234  23.130   5.387
 3985POPC   PO450940  30.237  23.768   5.331
 3985POPC   GL150941  30.066  23.765   5.768
 3985POPC   GL250942  30.281  23.503   5.870
 3985POPC   C1A50943  29.941  23.642   6.231
 3985POPC   D2A50944  29.746  23.689   6.641
 3985POPC   C3A50945  30.060  23.589   6.963
 3985POPC   C4A50946  30.026  23.747   7.394
 3985POPC   C1B50947  30.384  23.873   6.173
 3985POPC   C2B50948  30.304  23.989   6.643
 3985POPC   C3B50949  30.400  23.994   7.120
 3985POPC   C4B50950  30.361  24.046   7.621
 3986POPC   NC350951  34.106  30.651   5.420
 3986POPC   PO450952  33.427  30.588   5.342
 3986POPC   GL150953  33.651  30.741   5.721
 3986POPC   GL250954  33.665  31.095   5.624
 3986POPC   C1A50955  33.965  30.784   6.099
 3986POPC   D2A50956  34.143  30.649   6.529
 3986POPC   C3A50957  33.865  30.703   6.894
 3986POPC   C4A50958  33.720  30.408   7.217
 3986POPC   C1B50959  33.620  31.166   6.057
 3986POPC   C2B50960  33.575  30.973   6.437
 3986POPC   C3B50961  33.465  31.061   6.847
 3986POPC   C4B50962  33.499  30.870   7.254
 3987POPC   NC350963  16.863   4.546   5.333
 3987POPC   PO450964  16.308   4.177   5.520
 3987POPC   GL150965  16.630   4.415   5.782
 3987POPC   GL250966  16.973   4.282   5.897
 3987POPC   C1A50967  16.713   4.590   6.214
 3987POPC   D2A50968  16.857   4.476   6.642
 3987POPC   C3A50969  16.674   4.418   7.092
 3987POPC   C4A50970  16.317   4.616   7.321
 3987POPC   C1B50971  17.081   4.065   6.319
 3987POPC   C2B50972  17.037   3.997   6.799
 3987POPC   C3B50973  17.088   3.926   7.247
 3987POPC   C4B50974  16.805   3.990   7.608
 3988POPC   NC350975  27.435  17.568   5.557
 3988POPC   PO450976  27.928  17.150   5.411
 3988POPC   GL150977  27.662  17.161   5.795
 3988POPC   GL250978  27.956  17.198   5.987
 3988POPC   C1A50979  27.491  17.232   6.270
 3988POPC   D2A50980  27.259  17.242   6.714
 3988POPC   C3A50981  27.410  17.495   7.082
 3988POPC   C4A50982  27.602  17.903   7.035
 3988POPC   C1B50983  27.991  17.384   6.406
 3988POPC   C2B50984  27.845  17.497   6.805
 3988POPC   C3B50985  27.918  17.373   7.216
 3988POPC   C4B50986  28.054  17.348   7.651
 3989POPC   NC350987  35.822  41.352   5.405
 3989POPC   PO450988  36.005  40.682   5.454
 3989POPC   GL150989  36.129  40.740   5.829
 3989POPC   GL250990  36.308  41.038   5.748
 3989POPC   C1A50991  35.940  40.874   6.230
 3989POPC   D2A50992  35.887  40.710   6.677
 3989POPC   C3A50993  35.971  40.914   7.114
 3989POPC   C4A50994  36.016  40.722   7.549
 3989POPC   C1B50995  36.459  40.903   6.159
 3989POPC   C2B50996  36.310  40.976   6.564
 3989POPC   C3B50997  36.438  40.804   6.906
 3989POPC   C4B50998  36.452  40.710   7.271
 3990POPC   NC350999  27.021   5.478   5.529
 3990POPC   PO451000  27.197   4.850   5.484
 3990POPC   GL151001  26.969   5.032   5.820
 3990POPC   GL251002  26.626   5.045   5.728
 3990POPC   C1A51003  26.793   5.306   6.171
 3990POPC   D2A51004  26.921   5.393   6.600
 3990POPC   C3A51005  26.912   5.099   6.935
 3990POPC   C4A51006  27.074   5.153   7.353
 3990POPC   C1B51007  26.644   4.799   6.141
 3990POPC   C2B51008  26.476   4.968   6.528
 3990POPC   C3B51009  26.379   5.209   6.897
 3990POPC   C4B51010  26.551   5.107   7.300
 3991POPC   NC351011  29.753  16.747   5.344
 3991POPC   PO451012  30.301  16.896   5.623
 3991POPC   GL151013  29.894  16.945   5.805
 3991POPC   GL251014  29.921  16.601   5.866
 3991POPC   C1A51015  29.699  16.950   6.220
 3991POPC   D2A51016  29.661  16.763   6.657
 3991POPC   C3A51017  30.006  16.820   6.968
 3991POPC   C4A51018  29.962  17.035   7.389
 3991POPC   C1B51019  30.072  16.456   6.230
 3991POPC   C2B51020  29.901  16.255   6.556
 3991POPC   C3B51021  29.780  16.323   6.930
 3991POPC   C4B51022  30.003  16.395   7.267
 3992POPC   NC351023  41.242  37.956   5.348
 3992POPC   PO451024  40.784  37.480   5.478
 3992POPC   GL151025  40.752  37.587   5.889
 3992POPC   GL251026  40.896  37.927   5.819
 3992POPC   C1A51027  40.588  37.429   6.294
 3992POPC   D2A51028  40.540  37.544   6.739
 3992POPC   C3A51029  40.899  37.537   7.074
 3992POPC   C4A51030  40.904  37.483   7.542
 3992POPC   C1B51031  40.649  37.988   6.215
 3992POPC   C2B51032  40.742  38.008   6.669
 3992POPC   C3B51033  40.656  37.994   7.112
 3992POPC   C4B51034  41.004  37.990   7.423
 3993POPC   NC351035   8.919  30.943   5.415
 3993POPC   PO451036   9.033  31.652   5.423
 3993POPC   GL151037   9.045  31.370   5.792
 3993POPC   GL251038   8.716  31.175   5.822
 3993POPC   C1A51039   9.173  31.509   6.238
 3993POPC   D2A51040   9.287  31.648   6.702
 3993POPC   C3A51041   8.977  31.625   7.069
 3993POPC   C4A51042   8.859  31.663   7.534
 3993POPC   C1B51043   8.954  31.024   6.167
 3993POPC   C2B51044   9.086  31.158   6.588
 3993POPC   C3B51045   8.885  31.131   6.950
 3993POPC   C4B51046   8.688  31.206   7.341
 3994POPC   NC351047   6.911  26.904   5.317
 3994POPC   PO451048   6.242  26.818   5.447
 3994POPC   GL151049   6.599  26.914   5.737
 3994POPC   GL251050   6.819  26.622   5.822
 3994POPC   C1A51051   6.576  26.912   6.193
 3994POPC   D2A51052   6.365  26.871   6.596
 3994POPC   C3A51053   6.662  26.879   6.953
 3994POPC   C4A51054   6.927  27.208   7.152
 3994POPC   C1B51055   6.747  26.406   6.242
 3994POPC   C2B51056   6.425  26.339   6.571
 3994POPC   C3B51057   6.193  26.479   6.888
 3994POPC   C4B51058   6.406  26.547   7.268
 3995POPC   NC351059   5.622  33.946   5.514
 3995POPC   PO451060   5.647  33.287   5.700
 3995POPC   GL151061   5.724  33.664   5.920
 3995POPC   GL251062   6.012  33.878   5.845
 3995POPC   C1A51063   5.717  33.808   6.320
 3995POPC   D2A51064   5.663  33.924   6.728
 3995POPC   C3A51065   5.765  33.572   6.967
 3995POPC   C4A51066   5.904  33.549   7.368
 3995POPC   C1B51067   6.218  33.719   6.227
 3995POPC   C2B51068   6.160  33.803   6.679
 3995POPC   C3B51069   6.138  33.909   7.108
 3995POPC   C4B51070   6.384  33.751   7.463
 3996POPC   NC351071  20.720  20.829   5.309
 3996POPC   PO451072  20.807  20.291   5.673
 3996POPC   GL151073  20.602  20.627   5.820
 3996POPC   GL251074  20.822  20.941   5.794
 3996POPC   C1A51075  20.383  20.497   6.202
 3996POPC   D2A51076  20.224  20.568   6.609
 3996POPC   C3A51077  20.545  20.496   6.955
 3996POPC   C4A51078  20.635  20.543   7.384
 3996POPC   C1B51079  20.920  20.793   6.203
 3996POPC   C2B51080  20.684  20.804   6.568
 3996POPC   C3B51081  20.770  20.970   6.945
 3996POPC   C4B51082  21.004  20.845   7.266
 3997POPC   NC351083   2.242  28.697   5.495
 3997POPC   PO451084   1.905  28.162   5.213
 3997POPC   GL151085   2.018  28.208   5.694
 3997POPC   GL251086   2.268  28.421   5.921
 3997POPC   C1A51087   1.888  28.150   6.145
 3997POPC   D2A51088   1.763  28.212   6.585
 3997POPC   C3A51089   2.064  28.377   6.877
 3997POPC   C4A51090   2.173  28.144   7.233
 3997POPC   C1B51091   2.187  28.553   6.363
 3997POPC   C2B51092   2.489  28.656   6.708
 3997POPC   C3B51093   2.466  28.845   7.122
 3997POPC   C4B51094   2.115  28.659   7.360
 3998POPC   NC351095   8.146   1.069   5.291
 3998POPC   PO451096   8.378   1.700   5.428
 3998POPC   GL151097   8.339   1.324   5.709
 3998POPC   GL251098   7.976   1.209   5.776
 3998POPC   C1A51099   8.325   1.249   6.154
 3998POPC   D2A51100   8.346   1.482   6.525
 3998POPC   C3A51101   8.398   1.267   6.889
 3998POPC   C4A51102   8.362   1.062   7.253
 3998POPC   C1B51103   7.837   1.093   6.194
 3998POPC   C2B51104   8.036   1.029   6.591
 3998POPC   C3B51105   7.906   1.165   7.022
 3998POPC   C4B51106   7.781   1.048   7.446
 3999POPC   NC351107   1.675  36.397   5.473
 3999POPC   PO451108   2.324  36.427   5.451
 3999POPC   GL151109   2.060  36.092   5.732
 3999POPC   GL251110   2.232  35.769   5.880
 3999POPC   C1A51111   1.844  35.946   6.130
 3999POPC   D2A51112   1.767  36.104   6.542
 3999POPC   C3A51113   2.007  35.961   6.919
 3999POPC   C4A51114   1.918  36.084   7.340
 3999POPC   C1B51115   2.322  36.007   6.259
 3999POPC   C2B51116   2.339  36.301   6.628
 3999POPC   C3B51117   2.400  36.307   7.080
 3999POPC   C4B51118   2.446  35.923   7.256
 4000POPC   NC351119   2.894   8.851   5.437
 4000POPC   PO451120   2.399   9.262   5.517
 4000POPC   GL151121   2.546   8.946   5.869
 4000POPC   GL251122   2.877   8.782   5.932
 4000POPC   C1A51123   2.552   8.859   6.337
 4000POPC   D2A51124   2.283   8.956   6.702
 4000POPC   C3A51125   2.449   9.314   6.903
 4000POPC   C4A51126   2.674   9.316   7.259
 4000POPC   C1B51127   3.088   8.708   6.302
 4000POPC   C2B51128   3.117   8.888   6.694
 4000POPC   C3B51129   2.755   8.879   6.992
 4000POPC   C4B51130   2.796   8.659   7.400
 4001POPC   NC351131   0.269  19.013   5.340
 4001POPC   PO451132   0.894  18.853   5.337
 4001POPC   GL151133   0.577  18.842   5.708
 4001POPC   GL251134   0.385  19.171   5.807
 4001POPC   C1A51135   0.504  18.752   6.160
 4001POPC   D2A51136   0.684  18.693   6.579
 4001POPC   C3A51137   0.470  18.777   6.967
 4001POPC   C4A51138   0.639  19.158   7.161
 4001POPC   C1B51139   0.139  19.165   6.195
 4001POPC   C2B51140   0.270  19.153   6.634
 4001POPC   C3B51141   0.115  19.170   7.056
 4001POPC   C4B51142  44.879  19.038   7.422
 4002POPC   NC351143  18.445   3.160   5.572
 4002POPC   PO451144  18.093   2.616   5.204
 4002POPC   GL151145  18.130   2.665   5.672
 4002POPC   GL251146  18.472   2.700   5.790
 4002POPC   C1A51147  17.931   2.803   6.088
 4002POPC   D2A51148  17.989   2.951   6.521
 4002POPC   C3A51149  17.897   2.680   6.854
 4002POPC   C4A51150  18.032   2.718   7.236
 4002POPC   C1B51151  18.421   2.916   6.221
 4002POPC   C2B51152  18.479   2.985   6.688
 4002POPC   C3B51153  18.501   2.944   7.155
 4002POPC   C4B51154  18.667   3.213   7.511
 4003POPC   NC351155   1.558  35.584   5.574
 4003POPC   PO451156   2.245  35.439   5.478
 4003POPC   GL151157   2.201  35.213   5.874
 4003POPC   GL251158   1.846  35.048   5.911
 4003POPC   C1A51159   2.081  35.424   6.249
 4003POPC   D2A51160   1.832  35.579   6.596
 4003POPC   C3A51161   2.095  35.440   6.934
 4003POPC   C4A51162   2.105  35.545   7.352
 4003POPC   C1B51163   1.668  35.138   6.360
 4003POPC   C2B51164   1.592  35.164   6.821
 4003POPC   C3B51165   1.846  35.065   7.197
 4003POPC   C4B51166   1.782  35.200   7.624
 4004POPC   NC351167  35.093  41.452   5.367
 4004POPC   PO451168  35.590  41.758   5.444
 4004POPC   GL151169  35.364  41.508   5.801
 4004POPC   GL251170  35.100  41.746   5.793
 4004POPC   C1A51171  35.109  41.561   6.244
 4004POPC   D2A51172  35.080  41.826   6.599
 4004POPC   C3A51173  35.199  41.579   6.936
 4004POPC   C4A51174  35.585  41.397   7.154
 4004POPC   C1B51175  35.443  41.926   6.100
 4004POPC   C2B51176  35.576  42.114   6.489
 4004POPC   C3B51177  35.439  42.034   6.919
 4004POPC   C4B51178  35.337  41.864   7.329
 4005POPC   NC351179  19.658  15.688   5.286
 4005POPC   PO451180  20.076  16.198   5.494
 4005POPC   GL151181  19.902  15.866   5.736
 4005POPC   GL251182  19.530  15.798   5.779
 4005POPC   C1A51183  19.960  15.720   6.154
 4005POPC   D2A51184  19.908  15.946   6.540
 4005POPC   C3A51185  19.815  15.686   6.871
 4005POPC   C4A51186  19.956  15.791   7.260
 4005POPC   C1B51187  19.560  16.060   6.161
 4005POPC   C2B51188  19.397  16.185   6.569
 4005POPC   C3B51189  19.643  16.227   6.940
 4005POPC   C4B51190  19.968  16.306   7.221
 4006POPC   NC351191   8.847  35.758   5.466
 4006POPC   PO451192   9.200  36.323   5.483
 4006POPC   GL151193   8.943  36.154   5.785
 4006POPC   GL251194   9.094  35.838   5.895
 4006POPC   C1A51195   8.976  36.379   6.148
 4006POPC   D2A51196   9.230  36.498   6.494
 4006POPC   C3A51197   9.137  36.275   6.847
 4006POPC   C4A51198   9.085  36.342   7.280
 4006POPC   C1B51199   9.088  35.923   6.295
 4006POPC   C2B51200   8.834  35.920   6.627
 4006POPC   C3B51201   8.998  35.813   7.011
 4006POPC   C4B51202   9.111  35.850   7.424
 4007POPC   NC351203  31.951  10.091   5.400
 4007POPC   PO451204  32.270   9.505   5.410
 4007POPC   GL151205  32.270   9.635   5.842
 4007POPC   GL251206  32.217   9.991   5.832
 4007POPC   C1A51207  32.365   9.747   6.279
 4007POPC   D2A51208  32.435   9.946   6.688
 4007POPC   C3A51209  32.387   9.659   7.021
 4007POPC   C4A51210  32.062   9.428   7.252
 4007POPC   C1B51211  32.062  10.174   6.216
 4007POPC   C2B51212  31.922  10.209   6.611
 4007POPC   C3B51213  31.931   9.896   6.905
 4007POPC   C4B51214  32.011   9.933   7.295
 4008POPC   NC351215  23.582  28.553   5.384
 4008POPC   PO451216  24.169  28.292   5.442
 4008POPC   GL151217  23.908  28.500   5.774
 4008POPC   GL251218  23.524  28.417   5.857
 4008POPC   C1A51219  23.892  28.412   6.201
 4008POPC   D2A51220  23.806  28.274   6.590
 4008POPC   C3A51221  23.985  28.475   6.917
 4008POPC   C4A51222  23.915  28.382   7.292
 4008POPC   C1B51223  23.364  28.383   6.273
 4008POPC   C2B51224  23.421  28.579   6.652
 4008POPC   C3B51225  23.468  28.506   7.086
 4008POPC   C4B51226  23.374  28.241   7.426
 4009POPC   NC351227  39.188  26.013   5.066
 4009POPC   PO451228  39.403  25.983   5.624
 4009POPC   GL151229  39.193  26.187   5.912
 4009POPC   GL251230  39.412  26.431   6.047
 4009POPC   C1A51231  39.202  26.009   6.321
 4009POPC   D2A51232  39.041  25.903   6.701
 4009POPC   C3A51233  39.307  25.785   7.045
 4009POPC   C4A51234  38.986  25.749   7.332
 4009POPC   C1B51235  38.984  26.460   6.278
 4009POPC   C2B51236  38.950  26.416   6.733
 4009POPC   C3B51237  39.009  26.216   7.109
 4009POPC   C4B51238  39.340  26.142   7.438
 4010POPC   NC351239  19.596  37.337   5.538
 4010POPC   PO451240  20.167  37.738   5.420
 4010POPC   GL151241  19.949  37.671   5.790
 4010POPC   GL251242  19.605  37.802   5.765
 4010POPC   C1A51243  19.884  37.746   6.233
 4010POPC   D2A51244  20.060  37.785   6.633
 4010POPC   C3A51245  19.848  37.539   6.950
 4010POPC   C4A51246  19.614  37.451   7.320
 4010POPC   C1B51247  19.492  38.064   6.117
 4010POPC   C2B51248  19.705  38.196   6.483
 4010POPC   C3B51249  19.669  38.009   6.886
 4010POPC   C4B51250  19.785  37.941   7.286
 4011POPC   NC351251  31.231  15.895   5.482
 4011POPC   PO451252  31.783  16.275   5.536
 4011POPC   GL151253  31.710  15.927   5.811
 4011POPC   GL251254  31.344  15.953   5.954
 4011POPC   C1A51255  31.693  15.744   6.225
 4011POPC   D2A51256  31.521  15.908   6.605
 4011POPC   C3A51257  31.659  15.802   7.010
 4011POPC   C4A51258  31.526  16.000   7.406
 4011POPC   C1B51259  31.106  16.128   6.306
 4011POPC   C2B51260  30.989  16.286   6.733
 4011POPC   C3B51261  31.168  16.351   7.169
 4011POPC   C4B51262  31.168  16.293   7.660
 4012POPC   NC351263  18.574   5.357   5.432
 4012POPC   PO451264  18.089   4.839   5.360
 4012POPC   GL151265  18.388   4.839   5.705
 4012POPC   GL251266  18.534   5.161   5.896
 4012POPC   C1A51267  18.256   4.810   6.125
 4012POPC   D2A51268  18.060   5.014   6.473
 4012POPC   C3A51269  18.366   5.079   6.808
 4012POPC   C4A51270  18.294   4.923   7.217
 4012POPC   C1B51271  18.190   5.383   6.155
 4012POPC   C2B51272  18.076   5.506   6.602
 4012POPC   C3B51273  17.984   5.323   7.019
 4012POPC   C4B51274  18.303   5.449   7.302
 4013POPC   NC351275  20.175  16.658   5.460
 4013POPC   PO451276  19.454  16.792   5.416
 4013POPC   GL151277  19.724  16.643   5.701
 4013POPC   GL251278  19.617  16.317   5.730
 4013POPC   C1A51279  19.916  16.674   6.106
 4013POPC   D2A51280  19.800  16.493   6.493
 4013POPC   C3A51281  19.984  16.682   6.838
 4013POPC   C4A51282  19.899  16.840   7.219
 4013POPC   C1B51283  19.383  16.552   6.068
 4013POPC   C2B51284  19.296  16.701   6.475
 4013POPC   C3B51285  19.483  16.734   6.887
 4013POPC   C4B51286  19.409  16.549   7.277
 4014POPC   NC351287  34.091  21.500   5.418
 4014POPC   PO451288  33.476  21.713   5.437
 4014POPC   GL151289  33.654  21.348   5.648
 4014POPC   GL251290  33.794  21.592   5.848
 4014POPC   C1A51291  33.664  21.166   6.093
 4014POPC   D2A51292  33.512  21.288   6.519
 4014POPC   C3A51293  33.626  21.117   6.929
 4014POPC   C4A51294  33.776  21.285   7.304
 4014POPC   C1B51295  33.942  21.712   6.243
 4014POPC   C2B51296  33.993  21.896   6.619
 4014POPC   C3B51297  33.871  21.683   6.986
 4014POPC   C4B51298  33.674  21.778   7.416
 4015POPC   NC351299   8.805  42.807   5.618
 4015POPC   PO451300   9.106  43.378   5.567
 4015POPC   GL151301   9.082  43.140   5.898
 4015POPC   GL251302   9.329  42.899   5.782
 4015POPC   C1A51303   8.854  43.163   6.298
 4015POPC   D2A51304   8.616  43.063   6.722
 4015POPC   C3A51305   8.863  43.037   7.092
 4015POPC   C4A51306   9.147  43.350   7.289
 4015POPC   C1B51307   9.352  42.867   6.219
 4015POPC   C2B51308   9.156  42.902   6.605
 4015POPC   C3B51309   9.348  43.016   6.965
 4015POPC   C4B51310   9.286  42.854   7.380
 4016POPC   NC351311  20.546  11.863   5.688
 4016POPC   PO451312  20.891  12.442   5.499
 4016POPC   GL151313  20.613  12.353   5.868
 4016POPC   GL251314  20.246  12.363   5.766
 4016POPC   C1A51315  20.666  12.197   6.324
 4016POPC   D2A51316  20.675  11.820   6.615
 4016POPC   C3A51317  20.750  11.893   7.067
 4016POPC   C4A51318  21.003  12.181   7.311
 4016POPC   C1B51319  20.185  12.288   6.206
 4016POPC   C2B51320  20.198  12.156   6.625
 4016POPC   C3B51321  20.169  12.340   7.023
 4016POPC   C4B51322  20.560  12.364   7.187
 4017POPC   NC351323  10.794  32.398   5.445
 4017POPC   PO451324  10.253  32.073   5.488
 4017POPC   GL151325  10.346  32.423   5.800
 4017POPC   GL251326  10.670  32.649   5.875
 4017POPC   C1A51327  10.303  32.343   6.231
 4017POPC   D2A51328  10.205  32.494   6.627
 4017POPC   C3A51329  10.246  32.237   6.989
 4017POPC   C4A51330  10.548  32.015   7.206
 4017POPC   C1B51331  10.806  32.326   6.184
 4017POPC   C2B51332  10.652  32.227   6.609
 4017POPC   C3B51333  10.816  32.412   6.971
 4017POPC   C4B51334  11.015  32.256   7.317
 4018POPC   NC351335  18.267   1.273   5.261
 4018POPC   PO451336  18.667   0.915   5.659
 4018POPC   GL151337  18.511   1.192   5.949
 4018POPC   GL251338  18.221   1.339   5.808
 4018POPC   C1A51339  18.655   1.315   6.329
 4018POPC   D2A51340  18.455   1.577   6.619
 4018POPC   C3A51341  18.291   1.336   6.882
 4018POPC   C4A51342  18.388   1.241   7.252
 4018POPC   C1B51343  18.105   1.351   6.270
 4018POPC   C2B51344  17.863   1.470   6.647
 4018POPC   C3B51345  17.849   1.405   7.104
 4018POPC   C4B51346  17.987   1.172   7.521
 4019POPC   NC351347  25.049   2.663   5.260
 4019POPC   PO451348  25.576   2.880   5.422
 4019POPC   GL151349  25.308   2.678   5.738
 4019POPC   GL251350  25.062   2.944   5.698
 4019POPC   C1A51351  25.314   2.547   6.193
 4019POPC   D2A51352  25.063   2.600   6.591
 4019POPC   C3A51353  25.259   2.523   7.004
 4019POPC   C4A51354  25.142   2.417   7.404
 4019POPC   C1B51355  25.343   3.122   6.011
 4019POPC   C2B51356  25.227   3.047   6.408
 4019POPC   C3B51357  25.408   2.953   6.766
 4019POPC   C4B51358  25.323   3.025   7.177
 4020POPC   NC351359  33.649  19.497   5.420
 4020POPC   PO451360  33.978  20.190   5.238
 4020POPC   GL151361  33.816  19.982   5.663
 4020POPC   GL251362  33.939  19.669   5.810
 4020POPC   C1A51363  33.587  19.938   6.083
 4020POPC   D2A51364  33.751  19.821   6.512
 4020POPC   C3A51365  33.681  20.064   6.890
 4020POPC   C4A51366  33.525  20.079   7.312
 4020POPC   C1B51367  33.754  19.428   6.167
 4020POPC   C2B51368  33.913  19.325   6.599
 4020POPC   C3B51369  33.975  19.629   6.951
 4020POPC   C4B51370  33.804  19.675   7.425
 4021POPC   NC351371  24.311   9.448   5.318
 4021POPC   PO451372  24.524   8.789   5.198
 4021POPC   GL151373  24.388   8.854   5.672
 4021POPC   GL251374  24.675   8.747   5.877
 4021POPC   C1A51375  24.298   8.931   6.165
 4021POPC   D2A51376  24.405   9.142   6.585
 4021POPC   C3A51377  24.271   8.980   7.000
 4021POPC   C4A51378  24.410   8.648   7.261
 4021POPC   C1B51379  24.818   9.095   6.198
 4021POPC   C2B51380  24.899   9.300   6.630
 4021POPC   C3B51381  24.726   9.200   7.042
 4021POPC   C4B51382  24.761   8.969   7.457
 4022POPC   NC351383  11.474  33.065   5.509
 4022POPC   PO451384  11.017  33.564   5.291
 4022POPC   GL151385  11.161  33.391   5.745
 4022POPC   GL251386  11.120  32.989   5.848
 4022POPC   C1A51387  11.414  33.279   6.146
 4022POPC   D2A51388  11.522  33.055   6.511
 4022POPC   C3A51389  11.390  33.147   6.893
 4022POPC   C4A51390  11.371  33.157   7.328
 4022POPC   C1B51391  11.116  32.763   6.228
 4022POPC   C2B51392  11.101  32.779   6.662
 4022POPC   C3B51393  11.263  32.679   7.060
 4022POPC   C4B51394  11.011  32.764   7.393
 4023POPC   NC351395  26.613   2.223   5.506
 4023POPC   PO451396  25.989   1.972   5.498
 4023POPC   GL151397  26.224   2.050   5.844
 4023POPC   GL251398  26.154   2.382   5.831
 4023POPC   C1A51399  26.072   1.842   6.219
 4023POPC   D2A51400  25.829   1.683   6.563
 4023POPC   C3A51401  26.094   1.698   6.918
 4023POPC   C4A51402  26.151   1.847   7.304
 4023POPC   C1B51403  25.890   2.346   6.209
 4023POPC   C2B51404  25.808   2.192   6.642
 4023POPC   C3B51405  26.014   2.258   7.037
 4023POPC   C4B51406  26.071   2.513   7.440
 4024POPC   NC351407  37.436   7.480   5.572
 4024POPC   PO451408  37.673   6.942   5.260
 4024POPC   GL151409  37.788   7.098   5.741
 4024POPC   GL251410  37.874   7.449   5.821
 4024POPC   C1A51411  37.577   7.264   6.176
 4024POPC   D2A51412  37.408   7.495   6.539
 4024POPC   C3A51413  37.548   7.429   6.972
 4024POPC   C4A51414  37.444   7.458   7.442
 4024POPC   C1B51415  38.060   7.458   6.224
 4024POPC   C2B51416  37.918   7.432   6.607
 4024POPC   C3B51417  38.065   7.610   6.965
 4024POPC   C4B51418  37.934   7.551   7.327
 4025POPC   NC351419  39.129  14.621   5.285
 4025POPC   PO451420  39.328  13.978   5.414
 4025POPC   GL151421  39.268  14.341   5.705
 4025POPC   GL251422  39.520  14.586   5.753
 4025POPC   C1A51423  39.160  14.520   6.140
 4025POPC   D2A51424  39.235  14.373   6.571
 4025POPC   C3A51425  38.995  14.467   6.979
 4025POPC   C4A51426  39.116  14.206   7.369
 4025POPC   C1B51427  39.664  14.688   6.174
 4025POPC   C2B51428  39.559  14.755   6.607
 4025POPC   C3B51429  39.522  14.511   6.977
 4025POPC   C4B51430  39.362  14.641   7.371
 4026POPC   NC351431  18.689  25.328   5.616
 4026POPC   PO451432  19.330  25.018   5.538
 4026POPC   GL151433  19.107  25.149   5.880
 4026POPC   GL251434  19.159  25.510   5.854
 4026POPC   C1A51435  18.941  25.051   6.303
 4026POPC   D2A51436  19.032  24.815   6.704
 4026POPC   C3A51437  18.996  25.090   7.094
 4026POPC   C4A51438  18.674  25.373   7.264
 4026POPC   C1B51439  19.345  25.373   6.258
 4026POPC   C2B51440  19.261  25.273   6.664
 4026POPC   C3B51441  19.434  25.409   7.020
 4026POPC   C4B51442  19.456  25.193   7.380
 4027POPC   NC351443   2.086  16.277   5.474
 4027POPC   PO451444   2.152  15.603   5.353
 4027POPC   GL151445   1.884  15.845   5.650
 4027POPC   GL251446   2.182  15.925   5.830
 4027POPC   C1A51447   1.771  16.112   6.048
 4027POPC   D2A51448   1.951  15.962   6.442
 4027POPC   C3A51449   1.928  16.108   6.875
 4027POPC   C4A51450   1.902  15.756   7.164
 4027POPC   C1B51451   2.378  15.762   6.196
 4027POPC   C2B51452   2.461  15.941   6.587
 4027POPC   C3B51453   2.370  15.899   7.016
 4027POPC   C4B51454   2.450  15.677   7.393
 4028POPC   NC351455   8.013  35.526   5.557
 4028POPC   PO451456   8.533  35.055   5.553
 4028POPC   GL151457   8.330  35.282   5.903
 4028POPC   GL251458   8.437  35.628   5.891
 4028POPC   C1A51459   8.097  35.185   6.291
 4028POPC   D2A51460   8.292  35.055   6.673
 4028POPC   C3A51461   8.237  35.259   7.068
 4028POPC   C4A51462   7.964  35.202   7.396
 4028POPC   C1B51463   8.179  35.686   6.249
 4028POPC   C2B51464   8.106  35.579   6.680
 4028POPC   C3B51465   7.998  35.718   7.109
 4028POPC   C4B51466   8.293  35.653   7.449
 4029POPC   NC351467  18.834  20.829   5.355
 4029POPC   PO451468  19.448  20.795   5.641
 4029POPC   GL151469  19.116  20.594   5.791
 4029POPC   GL251470  18.904  20.852   5.882
 4029POPC   C1A51471  18.921  20.404   6.145
 4029POPC   D2A51472  18.718  20.403   6.553
 4029POPC   C3A51473  18.958  20.579   6.919
 4029POPC   C4A51474  18.958  20.509   7.362
 4029POPC   C1B51475  19.204  20.878   6.256
 4029POPC   C2B51476  19.290  21.010   6.701
 4029POPC   C3B51477  19.399  20.806   7.092
 4029POPC   C4B51478  19.345  20.784   7.541
 4030POPC   NC351479  30.759  24.907   5.580
 4030POPC   PO451480  30.822  24.260   5.351
 4030POPC   GL151481  30.671  24.452   5.779
 4030POPC   GL251482  30.356  24.619   5.718
 4030POPC   C1A51483  30.670  24.288   6.186
 4030POPC   D2A51484  30.937  24.347   6.538
 4030POPC   C3A51485  30.803  24.529   6.925
 4030POPC   C4A51486  30.901  24.285   7.277
 4030POPC   C1B51487  30.223  24.558   6.137
 4030POPC   C2B51488  30.400  24.510   6.546
 4030POPC   C3B51489  30.276  24.452   6.940
 4030POPC   C4B51490  30.441  24.452   7.344
 4031POPC   NC351491  23.382  34.033   5.482
 4031POPC   PO451492  23.989  33.763   5.491
 4031POPC   GL151493  23.872  33.550   5.857
 4031POPC   GL251494  24.169  33.318   5.933
 4031POPC   C1A51495  23.522  33.692   6.124
 4031POPC   D2A51496  23.443  33.679   6.576
 4031POPC   C3A51497  23.625  33.975   6.867
 4031POPC   C4A51498  23.359  33.942   7.182
 4031POPC   C1B51499  24.164  33.608   6.278
 4031POPC   C2B51500  24.023  33.650   6.720
 4031POPC   C3B51501  24.192  33.680   7.133
 4031POPC   C4B51502  24.066  33.604   7.553
 4032POPC   NC351503  32.087  33.229   5.342
 4032POPC   PO451504  32.023  32.634   5.599
 4032POPC   GL151505  32.317  32.909   5.871
 4032POPC   GL251506  32.454  33.273   5.838
 4032POPC   C1A51507  32.375  32.838   6.316
 4032POPC   D2A51508  32.253  33.028   6.679
 4032POPC   C3A51509  32.238  32.923   7.096
 4032POPC   C4A51510  32.480  33.058   7.403
 4032POPC   C1B51511  32.296  33.362   6.231
 4032POPC   C2B51512  31.992  33.431   6.527
 4032POPC   C3B51513  31.884  33.270   6.941
 4032POPC   C4B51514  32.043  33.354   7.342
 4033POPC   NC351515   3.983  14.652   5.670
 4033POPC   PO451516   4.442  14.339   5.328
 4033POPC   GL151517   4.520  14.429   5.748
 4033POPC   GL251518   4.460  14.792   5.867
 4033POPC   C1A51519   4.364  14.315   6.147
 4033POPC   D2A51520   4.149  14.031   6.405
 4033POPC   C3A51521   4.190  14.099   6.840
 4033POPC   C4A51522   4.315  14.299   7.203
 4033POPC   C1B51523   4.140  14.771   6.255
 4033POPC   C2B51524   3.923  14.654   6.621
 4033POPC   C3B51525   4.158  14.708   6.957
 4033POPC   C4B51526   4.523  14.769   7.185
 4034POPC   NC351527  37.260  33.275   5.397
 4034POPC   PO451528  37.612  32.664   5.372
 4034POPC   GL151529  37.684  32.846   5.823
 4034POPC   GL251530  38.036  33.055   5.856
 4034POPC   C1A51531  37.406  32.966   6.220
 4034POPC   D2A51532  37.484  33.257   6.586
 4034POPC   C3A51533  37.378  33.109   7.001
 4034POPC   C4A51534  37.480  33.138   7.469
 4034POPC   C1B51535  37.903  33.077   6.288
 4034POPC   C2B51536  37.923  32.964   6.717
 4034POPC   C3B51537  37.882  33.115   7.138
 4034POPC   C4B51538  38.019  33.222   7.555
 4035POPC   NC351539  40.121  21.376   5.301
 4035POPC   PO451540  39.557  21.202   5.098
 4035POPC   GL151541  39.733  21.356   5.609
 4035POPC   GL251542  40.055  21.176   5.761
 4035POPC   C1A51543  39.673  21.242   6.097
 4035POPC   D2A51544  39.517  21.391   6.502
 4035POPC   C3A51545  39.774  21.392   6.877
 4035POPC   C4A51546  39.642  21.611   7.261
 4035POPC   C1B51547  40.170  21.300   6.188
 4035POPC   C2B51548  40.222  21.243   6.623
 4035POPC   C3B51549  40.261  21.261   7.051
 4035POPC   C4B51550  40.459  21.106   7.413
 4036POPC   NC351551  12.454   0.572   5.171
 4036POPC   PO451552  12.156   0.127   5.621
 4036POPC   GL151553  12.181   0.362   5.998
 4036POPC   GL251554  11.910   0.570   5.940
 4036POPC   C1A51555  12.428   0.568   6.356
 4036POPC   D2A51556  12.290   0.810   6.725
 4036POPC   C3A51557  12.202   0.516   7.024
 4036POPC   C4A51558  12.337   0.079   7.109
 4036POPC   C1B51559  11.906   0.559   6.409
 4036POPC   C2B51560  11.731   0.741   6.754
 4036POPC   C3B51561  11.898   0.923   7.116
 4036POPC   C4B51562  12.182   0.836   7.459
 4037POPC   NC351563   7.805  21.759   5.461
 4037POPC   PO451564   8.299  21.373   5.371
 4037POPC   GL151565   8.460  21.320   5.794
 4037POPC   GL251566   8.135  21.169   5.854
 4037POPC   C1A51567   8.396  21.486   6.238
 4037POPC   D2A51568   8.122  21.384   6.623
 4037POPC   C3A51569   8.116  21.632   7.000
 4037POPC   C4A51570   7.738  21.786   7.120
 4037POPC   C1B51571   8.164  21.034   6.242
 4037POPC   C2B51572   8.058  20.854   6.625
 4037POPC   C3B51573   7.895  20.988   6.995
 4037POPC   C4B51574   8.263  20.917   7.153
 4038POPC   NC351575  38.261  17.606   5.404
 4038POPC   PO451576  38.888  17.413   5.655
 4038POPC   GL151577  38.494  17.537   5.866
 4038POPC   GL251578  38.325  17.867   5.840
 4038POPC   C1A51579  38.380  17.513   6.301
 4038POPC   D2A51580  38.237  17.205   6.613
 4038POPC   C3A51581  38.365  17.388   6.979
 4038POPC   C4A51582  38.126  17.583   7.251
 4038POPC   C1B51583  38.296  18.042   6.253
 4038POPC   C2B51584  38.232  17.936   6.691
 4038POPC   C3B51585  38.405  18.022   7.089
 4038POPC   C4B51586  38.634  17.705   7.287
 4039POPC   NC351587  13.149  22.011   5.502
 4039POPC   PO451588  13.840  22.086   5.493
 4039POPC   GL151589  13.537  22.163   5.811
 4039POPC   GL251590  13.429  21.847   5.939
 4039POPC   C1A51591  13.399  22.255   6.225
 4039POPC   D2A51592  13.712  22.322   6.542
 4039POPC   C3A51593  13.643  22.117   6.924
 4039POPC   C4A51594  13.324  22.252   7.228
 4039POPC   C1B51595  13.738  21.853   6.275
 4039POPC   C2B51596  13.975  21.734   6.669
 4039POPC   C3B51597  13.812  21.663   7.080
 4039POPC   C4B51598  13.357  21.749   7.158
 4040POPC   NC351599  39.046  16.998   5.269
 4040POPC   PO451600  39.495  16.667   5.710
 4040POPC   GL151601  39.095  16.680   5.936
 4040POPC   GL251602  38.957  16.351   6.005
 4040POPC   C1A51603  39.118  16.891   6.332
 4040POPC   D2A51604  39.450  17.123   6.557
 4040POPC   C3A51605  39.332  17.247   6.923
 4040POPC   C4A51606  39.029  17.043   7.144
 4040POPC   C1B51607  38.824  16.435   6.441
 4040POPC   C2B51608  39.003  16.663   6.806
 4040POPC   C3B51609  39.438  16.760   6.971
 4040POPC   C4B51610  39.644  16.675   7.367
 4041POPC   NC351611  28.781  16.512   5.346
 4041POPC   PO451612  29.308  16.876   5.272
 4041POPC   GL151613  29.353  16.993   5.713
 4041POPC   GL251614  29.431  16.662   5.794
 4041POPC   C1A51615  29.191  16.911   6.169
 4041POPC   D2A51616  28.971  16.958   6.572
 4041POPC   C3A51617  29.218  16.904   6.939
 4041POPC   C4A51618  29.097  16.786   7.371
 4041POPC   C1B51619  29.515  16.479   6.226
 4041POPC   C2B51620  29.297  16.404   6.628
 4041POPC   C3B51621  29.296  16.415   7.067
 4041POPC   C4B51622  29.590  16.692   7.239
 4042POPC   NC351623  11.026   8.502   5.394
 4042POPC   PO451624  11.633   8.316   5.103
 4042POPC   GL151625  11.399   8.151   5.574
 4042POPC   GL251626  11.073   8.255   5.823
 4042POPC   C1A51627  11.460   8.110   6.084
 4042POPC   D2A51628  11.231   8.189   6.463
 4042POPC   C3A51629  11.434   8.115   6.845
 4042POPC   C4A51630  11.374   8.317   7.211
 4042POPC   C1B51631  10.877   8.510   6.189
 4042POPC   C2B51632  10.872   8.499   6.672
 4042POPC   C3B51633  10.918   8.208   7.041
 4042POPC   C4B51634  10.826   8.292   7.483
 4043POPC   NC351635  21.630  15.292   5.421
 4043POPC   PO451636  21.105  14.862   5.260
 4043POPC   GL151637  21.217  15.048   5.678
 4043POPC   GL251638  21.034  15.332   5.823
 4043POPC   C1A51639  21.303  14.890   6.116
 4043POPC   D2A51640  21.582  15.067   6.462
 4043POPC   C3A51641  21.517  15.002   6.891
 4043POPC   C4A51642  21.550  15.186   7.301
 4043POPC   C1B51643  21.412  15.404   6.095
 4043POPC   C2B51644  21.417  15.538   6.544
 4043POPC   C3B51645  21.262  15.485   6.977
 4043POPC   C4B51646  21.384  15.657   7.411
 4044POPC   NC351647  22.038  27.340   5.447
 4044POPC   PO451648  22.284  27.984   5.484
 4044POPC   GL151649  22.151  27.806   5.870
 4044POPC   GL251650  22.233  27.461   5.901
 4044POPC   C1A51651  22.334  27.764   6.302
 4044POPC   D2A51652  22.556  27.633   6.680
 4044POPC   C3A51653  22.338  27.866   7.023
 4044POPC   C4A51654  21.939  27.745   7.190
 4044POPC   C1B51655  21.881  27.505   6.223
 4044POPC   C2B51656  21.928  27.479   6.696
 4044POPC   C3B51657  22.250  27.370   7.025
 4044POPC   C4B51658  22.340  27.318   7.500
 4045POPC   NC351659  28.893  40.309   5.367
 4045POPC   PO451660  29.345  39.738   5.494
 4045POPC   GL151661  29.416  39.882   5.876
 4045POPC   GL251662  29.261  40.197   5.797
 4045POPC   C1A51663  29.295  39.893   6.293
 4045POPC   D2A51664  29.312  39.896   6.720
 4045POPC   C3A51665  29.016  39.849   7.004
 4045POPC   C4A51666  29.286  39.953   7.278
 4045POPC   C1B51667  29.007  40.298   6.123
 4045POPC   C2B51668  29.014  40.515   6.527
 4045POPC   C3B51669  29.156  40.368   6.917
 4045POPC   C4B51670  28.972  40.360   7.287
 4046POPC   NC351671  24.546  23.183   5.362
 4046POPC   PO451672  24.591  22.518   5.211
 4046POPC   GL151673  24.498  22.620   5.722
 4046POPC   GL251674  24.464  22.962   5.798
 4046POPC   C1A51675  24.280  22.719   6.206
 4046POPC   D2A51676  24.237  23.060   6.567
 4046POPC   C3A51677  24.237  22.909   7.015
 4046POPC   C4A51678  24.494  22.604   7.300
 4046POPC   C1B51679  24.759  22.831   6.101
 4046POPC   C2B51680  24.736  22.990   6.458
 4046POPC   C3B51681  24.718  22.938   6.849
 4046POPC   C4B51682  24.728  23.041   7.257
 4047POPC   NC351683  25.850  37.012   5.346
 4047POPC   PO451684  26.416  37.389   5.433
 4047POPC   GL151685  26.185  37.085   5.745
 4047POPC   GL251686  26.071  36.711   5.739
 4047POPC   C1A51687  25.798  37.006   6.053
 4047POPC   D2A51688  25.671  36.832   6.475
 4047POPC   C3A51689  25.686  37.064   6.879
 4047POPC   C4A51690  25.830  36.866   7.276
 4047POPC   C1B51691  26.245  36.789   6.152
 4047POPC   C2B51692  26.281  36.639   6.546
 4047POPC   C3B51693  26.179  36.823   6.920
 4047POPC   C4B51694  26.333  36.720   7.330
 4048POPC   NC351695   7.497  29.248   5.487
 4048POPC   PO451696   7.272  28.597   5.405
 4048POPC   GL151697   7.241  28.926   5.786
 4048POPC   GL251698   7.056  29.288   5.715
 4048POPC   C1A51699   7.230  29.129   6.223
 4048POPC   D2A51700   7.361  29.328   6.639
 4048POPC   C3A51701   7.393  29.085   7.042
 4048POPC   C4A51702   7.434  28.960   7.485
 4048POPC   C1B51703   7.007  29.556   6.045
 4048POPC   C2B51704   6.985  29.664   6.451
 4048POPC   C3B51705   7.066  29.698   6.851
 4048POPC   C4B51706   7.149  29.512   7.215
 4049POPC   NC351707  34.638  23.396   5.628
 4049POPC   PO451708  34.281  24.014   5.402
 4049POPC   GL151709  34.455  24.033   5.780
 4049POPC   GL251710  34.799  23.873   5.780
 4049POPC   C1A51711  34.435  23.822   6.167
 4049POPC   D2A51712  34.562  23.568   6.523
 4049POPC   C3A51713  34.516  23.757   6.905
 4049POPC   C4A51714  34.321  23.949   7.214
 4049POPC   C1B51715  34.931  23.757   6.189
 4049POPC   C2B51716  35.174  23.812   6.542
 4049POPC   C3B51717  35.076  23.984   6.918
 4049POPC   C4B51718  34.913  23.768   7.239
 4050POPC   NC351719  14.630  31.105   5.290
 4050POPC   PO451720  14.309  30.382   5.400
 4050POPC   GL151721  14.482  30.650   5.779
 4050POPC   GL251722  14.761  30.888   5.735
 4050POPC   C1A51723  14.391  30.685   6.247
 4050POPC   D2A51724  14.378  30.526   6.705
 4050POPC   C3A51725  14.269  30.801   7.060
 4050POPC   C4A51726  14.007  30.622   7.428
 4050POPC   C1B51727  14.934  30.813   6.137
 4050POPC   C2B51728  14.809  30.736   6.533
 4050POPC   C3B51729  14.856  30.610   6.932
 4050POPC   C4B51730  14.865  30.848   7.286
 4051POPC   NC351731  23.497  27.244   5.437
 4051POPC   PO451732  24.092  27.446   5.555
 4051POPC   GL151733  23.977  27.657   5.934
 4051POPC   GL251734  23.835  27.980   5.790
 4051POPC   C1A51735  23.674  27.438   6.253
 4051POPC   D2A51736  23.493  27.202   6.635
 4051POPC   C3A51737  23.498  27.485   6.987
 4051POPC   C4A51738  23.898  27.552   7.175
 4051POPC   C1B51739  23.624  27.951   6.200
 4051POPC   C2B51740  23.691  27.793   6.628
 4051POPC   C3B51741  23.663  27.994   7.040
 4051POPC   C4B51742  23.499  27.773   7.419
 4052POPC   NC351743  31.329  26.392   5.475
 4052POPC   PO451744  31.530  26.976   5.293
 4052POPC   GL151745  31.498  26.831   5.720
 4052POPC   GL251746  31.775  26.973   5.883
 4052POPC   C1A51747  31.456  26.582   6.104
 4052POPC   D2A51748  31.405  26.712   6.523
 4052POPC   C3A51749  31.513  26.515   6.889
 4052POPC   C4A51750  31.357  26.617   7.246
 4052POPC   C1B51751  31.778  26.989   6.317
 4052POPC   C2B51752  31.890  26.799   6.700
 4052POPC   C3B51753  31.777  26.944   7.113
 4052POPC   C4B51754  31.676  27.208   7.461
 4053POPC   NC351755  33.567  27.121   5.332
 4053POPC   PO451756  34.171  26.803   5.419
 4053POPC   GL151757  33.842  26.802   5.728
 4053POPC   GL251758  33.750  27.130   5.812
 4053POPC   C1A51759  33.825  26.632   6.155
 4053POPC   D2A51760  33.597  26.545   6.547
 4053POPC   C3A51761  33.748  26.642   6.895
 4053POPC   C4A51762  34.026  26.665   7.199
 4053POPC   C1B51763  33.734  27.120   6.221
 4053POPC   C2B51764  33.861  27.085   6.602
 4053POPC   C3B51765  33.711  27.139   6.980
 4053POPC   C4B51766  33.566  26.900   7.301
 4054POPC   NC351767  18.860   1.341   5.615
 4054POPC   PO451768  19.479   1.178   5.262
 4054POPC   GL151769  19.357   1.207   5.725
 4054POPC   GL251770  19.301   1.563   5.787
 4054POPC   C1A51771  19.141   1.113   6.159
 4054POPC   D2A51772  19.055   0.957   6.565
 4054POPC   C3A51773  18.748   1.119   6.809
 4054POPC   C4A51774  18.831   1.032   7.204
 4054POPC   C1B51775  19.114   1.617   6.227
 4054POPC   C2B51776  18.976   1.565   6.653
 4054POPC   C3B51777  19.141   1.424   7.038
 4054POPC   C4B51778  19.231   1.662   7.391
 4055POPC   NC351779   8.174  14.123   5.328
 4055POPC   PO451780   8.460  14.750   5.410
 4055POPC   GL151781   8.172  14.447   5.719
 4055POPC   GL251782   7.905  14.143   5.771
 4055POPC   C1A51783   8.137  14.492   6.141
 4055POPC   D2A51784   8.373  14.602   6.489
 4055POPC   C3A51785   8.176  14.677   6.847
 4055POPC   C4A51786   8.218  14.561   7.240
 4055POPC   C1B51787   8.036  13.992   6.171
 4055POPC   C2B51788   8.003  14.232   6.581
 4055POPC   C3B51789   7.885  14.281   6.996
 4055POPC   C4B51790   8.062  14.071   7.348
 4056POPC   NC351791  43.616   8.528   5.473
 4056POPC   PO451792  43.711   7.922   5.168
 4056POPC   GL151793  43.826   8.007   5.646
 4056POPC   GL251794  44.098   7.837   5.805
 4056POPC   C1A51795  43.781   8.248   6.072
 4056POPC   D2A51796  43.892   8.288   6.524
 4056POPC   C3A51797  43.607   8.373   6.847
 4056POPC   C4A51798  43.406   8.337   7.219
 4056POPC   C1B51799  43.891   7.759   6.196
 4056POPC   C2B51800  44.103   7.810   6.575
 4056POPC   C3B51801  44.120   8.060   6.937
 4056POPC   C4B51802  43.780   8.002   7.224
 4057POPC   NC351803  40.158  33.684   5.686
 4057POPC   PO451804  39.768  34.211   5.438
 4057POPC   GL151805  39.844  34.094   5.816
 4057POPC   GL251806  39.620  33.806   5.740
 4057POPC   C1A51807  40.017  34.059   6.226
 4057POPC   D2A51808  40.157  33.745   6.507
 4057POPC   C3A51809  40.252  33.927   6.890
 4057POPC   C4A51810  40.059  33.806   7.228
 4057POPC   C1B51811  39.537  33.881   6.170
 4057POPC   C2B51812  39.661  33.997   6.594
 4057POPC   C3B51813  39.636  33.758   6.936
 4057POPC   C4B51814  39.559  33.885   7.323
 4058POPC   NC351815  21.969  17.677   5.639
 4058POPC   PO451816  22.352  17.145   5.501
 4058POPC   GL151817  22.126  17.252   5.868
 4058POPC   GL251818  22.344  17.516   5.975
 4058POPC   C1A51819  21.968  17.398   6.281
 4058POPC   D2A51820  22.140  17.210   6.630
 4058POPC   C3A51821  21.885  17.207   6.938
 4058POPC   C4A51822  21.936  17.323   7.307
 4058POPC   C1B51823  22.331  17.810   6.325
 4058POPC   C2B51824  22.245  17.712   6.689
 4058POPC   C3B51825  22.194  17.685   7.092
 4058POPC   C4B51826  22.452  17.930   7.352
 4059POPC   NC351827  29.230  40.976   5.190
 4059POPC   PO451828  29.389  40.387   5.243
 4059POPC   GL151829  29.265  40.687   5.625
 4059POPC   GL251830  29.099  41.049   5.676
 4059POPC   C1A51831  29.197  40.773   6.088
 4059POPC   D2A51832  29.406  40.847   6.473
 4059POPC   C3A51833  29.207  40.880   6.860
 4059POPC   C4A51834  29.323  40.777   7.276
 4059POPC   C1B51835  28.844  41.182   6.047
 4059POPC   C2B51836  28.872  41.067   6.477
 4059POPC   C3B51837  28.879  41.272   6.863
 4059POPC   C4B51838  28.860  41.030   7.230
 4060POPC   NC351839  43.987  33.441   5.324
 4060POPC   PO451840  43.952  34.109   5.545
 4060POPC   GL151841  43.855  33.688   5.774
 4060POPC   GL251842  43.633  33.866   6.015
 4060POPC   C1A51843  43.753  33.394   6.133
 4060POPC   D2A51844  43.589  33.593   6.498
 4060POPC   C3A51845  43.725  33.481   6.892
 4060POPC   C4A51846  43.739  33.723   7.245
 4060POPC   C1B51847  44.033  33.798   6.295
 4060POPC   C2B51848  44.127  33.825   6.778
 4060POPC   C3B51849  43.934  34.178   7.064
 4060POPC   C4B51850  43.633  34.478   7.325
 4061POPC   NC351851  24.997   4.240   5.599
 4061POPC   PO451852  25.596   4.406   5.432
 4061POPC   GL151853  25.397   4.475   5.825
 4061POPC   GL251854  25.372   4.112   5.942
 4061POPC   C1A51855  25.176   4.476   6.230
 4061POPC   D2A51856  25.346   4.291   6.563
 4061POPC   C3A51857  25.181   4.386   6.931
 4061POPC   C4A51858  24.916   4.130   7.200
 4061POPC   C1B51859  25.051   3.969   6.276
 4061POPC   C2B51860  25.094   3.879   6.755
 4061POPC   C3B51861  25.412   3.940   7.094
 4061POPC   C4B51862  25.535   3.934   7.547
 4062POPC   NC351863  34.936  23.096   5.206
 4062POPC   PO451864  34.334  22.990   5.531
 4062POPC   GL151865  34.586  22.953   5.849
 4062POPC   GL251866  34.760  22.695   5.783
 4062POPC   C1A51867  34.651  23.149   6.246
 4062POPC   D2A51868  34.339  23.082   6.557
 4062POPC   C3A51869  34.350  23.266   6.961
 4062POPC   C4A51870  34.217  23.101   7.342
 4062POPC   C1B51871  34.527  22.649   6.233
 4062POPC   C2B51872  34.608  22.668   6.686
 4062POPC   C3B51873  34.519  22.755   7.117
 4062POPC   C4B51874  34.823  22.654   7.441
 4063POPC   NC351875   0.449  38.579   5.226
 4063POPC   PO451876   0.056  38.218   5.557
 4063POPC   GL151877   0.326  38.562   5.776
 4063POPC   GL251878   0.144  38.822   5.915
 4063POPC   C1A51879   0.564  38.764   6.176
 4063POPC   D2A51880   0.671  38.618   6.587
 4063POPC   C3A51881   0.462  38.690   7.027
 4063POPC   C4A51882   0.470  38.394   7.424
 4063POPC   C1B51883   0.104  38.555   6.295
 4063POPC   C2B51884   0.186  38.399   6.725
 4063POPC   C3B51885   0.105  38.080   7.059
 4063POPC   C4B51886   0.282  37.901   7.447
 4064POPC   NC351887  11.687  35.457   5.354
 4064POPC   PO451888  11.128  35.056   5.366
 4064POPC   GL151889  11.293  35.306   5.747
 4064POPC   GL251890  11.305  35.653   5.698
 4064POPC   C1A51891  11.391  35.223   6.216
 4064POPC   D2A51892  11.510  35.009   6.624
 4064POPC   C3A51893  11.314  35.163   7.021
 4064POPC   C4A51894  11.243  35.099   7.493
 4064POPC   C1B51895  11.486  35.726   6.107
 4064POPC   C2B51896  11.502  35.921   6.514
 4064POPC   C3B51897  11.457  35.697   6.913
 4064POPC   C4B51898  11.280  35.592   7.311
 4065POPC   NC351899  44.751  21.546   5.380
 4065POPC   PO451900  44.398  21.111   5.662
 4065POPC   GL151901  44.620  21.407   5.879
 4065POPC   GL251902  44.926  21.257   5.786
 4065POPC   C1A51903  44.741  21.489   6.318
 4065POPC   D2A51904  44.914  21.637   6.718
 4065POPC   C3A51905  44.671  21.567   7.088
 4065POPC   C4A51906  44.513  21.186   7.277
 4065POPC   C1B51907  44.885  21.013   6.169
 4065POPC   C2B51908   0.049  21.103   6.578
 4065POPC   C3B51909  44.912  21.101   6.971
 4065POPC   C4B51910   0.042  21.310   7.343
 4066POPC   NC351911  15.306  11.907   5.206
 4066POPC   PO451912  14.899  12.231   5.598
 4066POPC   GL151913  15.116  12.265   5.896
 4066POPC   GL251914  15.314  11.967   5.755
 4066POPC   C1A51915  14.868  12.166   6.258
 4066POPC   D2A51916  14.745  11.869   6.550
 4066POPC   C3A51917  14.987  12.025   6.862
 4066POPC   C4A51918  15.025  12.002   7.279
 4066POPC   C1B51919  15.357  11.968   6.211
 4066POPC   C2B51920  15.457  12.095   6.626
 4066POPC   C3B51921  15.462  11.954   7.041
 4066POPC   C4B51922  15.426  11.679   7.391
 4067POPC   NC351923  13.168  29.833   5.271
 4067POPC   PO451924  12.568  29.882   5.378
 4067POPC   GL151925  12.708  29.822   5.777
 4067POPC   GL251926  13.046  30.013   5.775
 4067POPC   C1A51927  12.483  29.671   6.152
 4067POPC   D2A51928  12.444  29.549   6.597
 4067POPC   C3A51929  12.516  29.812   6.977
 4067POPC   C4A51930  12.748  29.722   7.332
 4067POPC   C1B51931  12.882  29.988   6.228
 4067POPC   C2B51932  12.910  29.822   6.654
 4067POPC   C3B51933  13.025  30.037   7.052
 4067POPC   C4B51934  12.921  30.183   7.515
 4068POPC   NC351935  41.208  18.723   5.420
 4068POPC   PO451936  41.266  18.086   5.362
 4068POPC   GL151937  41.535  18.304   5.637
 4068POPC   GL251938  41.389  18.539   5.860
 4068POPC   C1A51939  41.734  18.217   6.040
 4068POPC   D2A51940  41.615  18.017   6.406
 4068POPC   C3A51941  41.579  18.182   6.778
 4068POPC   C4A51942  41.724  18.062   7.144
 4068POPC   C1B51943  41.202  18.543   6.265
 4068POPC   C2B51944  41.306  18.742   6.655
 4068POPC   C3B51945  41.424  18.591   7.058
 4068POPC   C4B51946  41.316  18.453   7.480
 4069POPC   NC351947  28.820   8.308   5.184
 4069POPC   PO451948  29.390   8.059   5.446
 4069POPC   GL151949  29.139   8.199   5.735
 4069POPC   GL251950  28.838   8.360   5.669
 4069POPC   C1A51951  29.172   8.134   6.147
 4069POPC   D2A51952  29.262   8.316   6.516
 4069POPC   C3A51953  29.054   8.162   6.860
 4069POPC   C4A51954  29.224   8.429   7.137
 4069POPC   C1B51955  28.764   8.498   6.066
 4069POPC   C2B51956  28.751   8.438   6.492
 4069POPC   C3B51957  28.631   8.466   6.907
 4069POPC   C4B51958  28.747   8.321   7.309
 4070POPC   NC351959   2.304  42.103   5.497
 4070POPC   PO451960   1.967  41.467   5.428
 4070POPC   GL151961   2.161  41.564   5.834
 4070POPC   GL251962   2.441  41.341   5.906
 4070POPC   C1A51963   1.989  41.694   6.244
 4070POPC   D2A51964   2.163  41.895   6.629
 4070POPC   C3A51965   1.973  41.720   7.010
 4070POPC   C4A51966   2.204  41.771   7.375
 4070POPC   C1B51967   2.235  41.239   6.251
 4070POPC   C2B51968   2.126  41.371   6.633
 4070POPC   C3B51969   2.306  41.297   7.004
 4070POPC   C4B51970   2.223  41.253   7.433
 4071POPC   NC351971  23.427  19.707   5.299
 4071POPC   PO451972  24.100  19.808   5.437
 4071POPC   GL151973  23.739  19.811   5.731
 4071POPC   GL251974  23.629  20.169   5.772
 4071POPC   C1A51975  23.736  19.643   6.171
 4071POPC   D2A51976  23.926  19.789   6.581
 4071POPC   C3A51977  23.927  19.567   7.007
 4071POPC   C4A51978  23.715  19.712   7.412
 4071POPC   C1B51979  23.816  20.228   6.171
 4071POPC   C2B51980  23.666  20.234   6.579
 4071POPC   C3B51981  23.813  20.111   6.971
 4071POPC   C4B51982  23.616  20.230   7.330
 4072POPC   NC351983   5.512   2.365   5.463
 4072POPC   PO451984   5.165   2.901   5.457
 4072POPC   GL151985   5.134   2.651   5.825
 4072POPC   GL251986   5.485   2.661   5.888
 4072POPC   C1A51987   4.917   2.808   6.205
 4072POPC   D2A51988   4.889   2.886   6.635
 4072POPC   C3A51989   5.055   2.569   6.917
 4072POPC   C4A51990   5.027   2.643   7.347
 4072POPC   C1B51991   5.405   2.928   6.246
 4072POPC   C2B51992   5.410   2.854   6.675
 4072POPC   C3B51993   5.385   2.974   7.093
 4072POPC   C4B51994   5.386   2.950   7.526
 4073POPC   NC351995   1.049  43.117   5.392
 4073POPC   PO451996   1.590  42.896   5.456
 4073POPC   GL151997   1.264  42.864   5.815
 4073POPC   GL251998   1.074  43.178   5.897
 4073POPC   C1A51999   1.293  42.898   6.292
 4073POPC   D2A52000   1.190  43.119   6.698
 4073POPC   C3A52001   1.409  43.073   7.137
 4073POPC   C4A52002   1.576  43.057   7.571
 4073POPC   C1B52003   0.825  43.126   6.276
 4073POPC   C2B52004   0.688  43.301   6.662
 4073POPC   C3B52005   0.905  43.350   7.059
 4073POPC   C4B52006   1.105  43.708   7.305
 4074POPC   NC352007  28.258  24.757   5.083
 4074POPC   PO452008  28.570  24.390   5.500
 4074POPC   GL152009  28.468  24.597   5.843
 4074POPC   GL252010  28.199  24.761   5.747
 4074POPC   C1A52011  28.566  24.454   6.232
 4074POPC   D2A52012  28.609  24.659   6.597
 4074POPC   C3A52013  28.463  24.385   6.897
 4074POPC   C4A52014  28.573  24.332   7.303
 4074POPC   C1B52015  28.074  24.818   6.159
 4074POPC   C2B52016  28.118  24.567   6.526
 4074POPC   C3B52017  28.070  24.717   6.946
 4074POPC   C4B52018  27.917  25.034   7.221
 4075POPC   NC352019  43.264   1.056   5.455
 4075POPC   PO452020  42.833   1.500   5.367
 4075POPC   GL152021  43.067   1.425   5.785
 4075POPC   GL252022  43.280   1.146   5.944
 4075POPC   C1A52023  43.117   1.547   6.225
 4075POPC   D2A52024  43.206   1.480   6.677
 4075POPC   C3A52025  43.044   1.073   6.816
 4075POPC   C4A52026  42.942   0.883   7.203
 4075POPC   C1B52027  43.536   1.091   6.305
 4075POPC   C2B52028  43.560   0.926   6.724
 4075POPC   C3B52029  43.429   1.056   7.154
 4075POPC   C4B52030  43.329   0.810   7.555
 4076POPC   NC352031  44.157  24.593   5.392
 4076POPC   PO452032  43.673  24.083   5.472
 4076POPC   GL152033  43.902  24.381   5.793
 4076POPC   GL252034  43.674  24.254   6.039
 4076POPC   C1A52035  43.885  24.671   6.188
 4076POPC   D2A52036  43.761  24.528   6.595
 4076POPC   C3A52037  44.009  24.739   6.894
 4076POPC   C4A52038  43.876  24.876   7.262
 4076POPC   C1B52039  44.050  24.188   6.319
 4076POPC   C2B52040  44.139  24.243   6.783
 4076POPC   C3B52041  43.844  24.287   7.136
 4076POPC   C4B52042  43.937  24.142   7.581
 4077POPC   NC352043  26.539   8.372   5.523
 4077POPC   PO452044  27.090   7.959   5.517
 4077POPC   GL152045  26.929   8.204   5.830
 4077POPC   GL252046  26.581   8.058   5.925
 4077POPC   C1A52047  26.940   8.186   6.269
 4077POPC   D2A52048  26.597   8.042   6.581
 4077POPC   C3A52049  26.717   8.150   7.013
 4077POPC   C4A52050  27.024   8.037   7.322
 4077POPC   C1B52051  26.513   8.429   6.200
 4077POPC   C2B52052  26.715   8.536   6.607
 4077POPC   C3B52053  26.462   8.620   6.930
 4077POPC   C4B52054  26.424   8.489   7.317
 4078POPC   NC352055  22.760  44.894   5.655
 4078POPC   PO452056  22.960  44.275   5.437
 4078POPC   GL152057  23.097  44.547   5.829
 4078POPC   GL252058  23.186  44.966   5.891
 4078POPC   C1A52059  23.078  44.561   6.284
 4078POPC   D2A52060  23.278  44.627   6.680
 4078POPC   C3A52061  23.130  44.515   7.111
 4078POPC   C4A52062  22.857  44.493   7.484
 4078POPC   C1B52063  22.871   0.034   6.280
 4078POPC   C2B52064  22.865   0.058   6.738
 4078POPC   C3B52065  22.751  44.850   7.118
 4078POPC   C4B52066  22.851   0.021   7.550
 4079POPC   NC352067  30.382  31.147   5.518
 4079POPC   PO452068  29.830  31.446   5.382
 4079POPC   GL152069  30.006  31.411   5.802
 4079POPC   GL252070  30.337  31.579   5.826
 4079POPC   C1A52071  29.924  31.598   6.211
 4079POPC   D2A52072  29.873  31.896   6.534
 4079POPC   C3A52073  29.971  31.751   6.936
 4079POPC   C4A52074  29.783  31.604   7.262
 4079POPC   C1B52075  30.380  31.382   6.244
 4079POPC   C2B52076  30.145  31.374   6.645
 4079POPC   C3B52077  30.283  31.337   7.097
 4079POPC   C4B52078  30.393  30.991   7.414
 4080POPC   NC352079  32.054  19.799   5.514
 4080POPC   PO452080  32.500  20.202   5.455
 4080POPC   GL152081  32.341  20.055   5.837
 4080POPC   GL252082  32.420  19.713   5.847
 4080POPC   C1A52083  31.981  20.054   6.138
 4080POPC   D2A52084  31.793  19.953   6.533
 4080POPC   C3A52085  32.085  19.824   6.865
 4080POPC   C4A52086  31.880  19.834   7.257
 4080POPC   C1B52087  32.451  19.721   6.276
 4080POPC   C2B52088  32.417  19.486   6.684
 4080POPC   C3B52089  32.579  19.396   7.097
 4080POPC   C4B52090  32.720  19.603   7.500
 4081POPC   NC352091  15.304  38.807   5.187
 4081POPC   PO452092  14.821  39.302   5.284
 4081POPC   GL152093  14.974  39.037   5.580
 4081POPC   GL252094  15.226  39.256   5.675
 4081POPC   C1A52095  14.874  38.959   6.019
 4081POPC   D2A52096  14.751  39.139   6.445
 4081POPC   C3A52097  15.025  38.982   6.800
 4081POPC   C4A52098  14.968  38.921   7.235
 4081POPC   C1B52099  15.148  39.391   6.108
 4081POPC   C2B52100  15.464  39.252   6.409
 4081POPC   C3B52101  15.573  39.261   6.846
 4081POPC   C4B52102  15.322  39.317   7.191
 4082POPC   NC352103  28.087  32.464   5.414
 4082POPC   PO452104  28.342  33.117   5.385
 4082POPC   GL152105  28.156  32.914   5.770
 4082POPC   GL252106  28.424  32.672   5.837
 4082POPC   C1A52107  28.203  32.997   6.259
 4082POPC   D2A52108  28.382  33.277   6.624
 4082POPC   C3A52109  28.302  33.168   7.061
 4082POPC   C4A52110  27.975  32.885   7.234
 4082POPC   C1B52111  28.430  32.513   6.273
 4082POPC   C2B52112  28.442  32.734   6.690
 4082POPC   C3B52113  28.467  32.704   7.161
 4082POPC   C4B52114  28.561  32.987   7.511
 4083POPC   NC352115  11.454   0.590   5.155
 4083POPC   PO452116  11.306   1.227   5.439
 4083POPC   GL152117  11.318   1.196   5.879
 4083POPC   GL252118  11.487   0.862   5.791
 4083POPC   C1A52119  11.253   1.525   6.223
 4083POPC   D2A52120  11.041   1.521   6.636
 4083POPC   C3A52121  11.240   1.641   7.039
 4083POPC   C4A52122  11.404   1.408   7.386
 4083POPC   C1B52123  11.647   0.998   6.206
 4083POPC   C2B52124  11.406   1.131   6.544
 4083POPC   C3B52125  11.461   1.135   6.964
 4083POPC   C4B52126  11.389   0.859   7.334
 4084POPC   NC352127  30.392  18.570   5.442
 4084POPC   PO452128  29.746  18.568   5.243
 4084POPC   GL152129  29.701  18.303   5.734
 4084POPC   GL252130  30.088  18.192   5.810
 4084POPC   C1A52131  29.685  18.378   6.216
 4084POPC   D2A52132  29.629  18.136   6.620
 4084POPC   C3A52133  29.614  18.288   7.060
 4084POPC   C4A52134  29.689  18.499   7.473
 4084POPC   C1B52135  30.197  18.358   6.254
 4084POPC   C2B52136  30.095  18.313   6.682
 4084POPC   C3B52137  30.091  18.468   7.102
 4084POPC   C4B52138  30.153  18.258   7.476
 4085POPC   NC352139  36.167   6.387   5.232
 4085POPC   PO452140  36.415   6.816   5.699
 4085POPC   GL152141  36.216   6.946   6.051
 4085POPC   GL252142  35.936   7.120   5.874
 4085POPC   C1A52143  36.092   6.615   6.355
 4085POPC   D2A52144  36.107   6.287   6.667
 4085POPC   C3A52145  36.137   6.568   7.013
 4085POPC   C4A52146  36.169   6.704   7.457
 4085POPC   C1B52147  35.745   7.018   6.245
 4085POPC   C2B52148  35.986   7.055   6.613
 4085POPC   C3B52149  35.930   7.014   7.043
 4085POPC   C4B52150  35.691   6.715   7.304
 4086POPC   NC352151  21.346  17.741   5.252
 4086POPC   PO452152  21.614  17.254   5.658
 4086POPC   GL152153  21.493  17.588   5.899
 4086POPC   GL252154  21.165  17.666   5.764
 4086POPC   C1A52155  21.519  17.627   6.353
 4086POPC   D2A52156  21.740  17.656   6.726
 4086POPC   C3A52157  21.505  17.513   7.086
 4086POPC   C4A52158  21.524  17.749   7.439
 4086POPC   C1B52159  21.044  17.538   6.209
 4086POPC   C2B52160  21.075  17.570   6.676
 4086POPC   C3B52161  21.025  17.329   7.075
 4086POPC   C4B52162  21.100  17.472   7.506
 4087POPC   NC352163  25.945  10.703   5.098
 4087POPC   PO452164  25.749  10.859   5.712
 4087POPC   GL152165  25.922  10.594   6.002
 4087POPC   GL252166  26.193  10.381   5.907
 4087POPC   C1A52167  25.982  10.374   6.379
 4087POPC   D2A52168  26.193  10.523   6.700
 4087POPC   C3A52169  26.024  10.630   7.046
 4087POPC   C4A52170  26.055  10.346   7.318
 4087POPC   C1B52171  26.383  10.710   6.209
 4087POPC   C2B52172  26.573  10.865   6.589
 4087POPC   C3B52173  26.531  10.732   7.050
 4087POPC   C4B52174  26.463  10.581   7.495
 4088POPC   NC352175   6.611  15.218   5.430
 4088POPC   PO452176   6.844  14.623   5.456
 4088POPC   GL152177   6.628  14.828   5.818
 4088POPC   GL252178   6.793  15.164   5.894
 4088POPC   C1A52179   6.481  14.975   6.251
 4088POPC   D2A52180   6.673  15.076   6.635
 4088POPC   C3A52181   6.416  15.386   6.890
 4088POPC   C4A52182   6.193  15.237   7.260
 4088POPC   C1B52183   6.960  15.338   6.272
 4088POPC   C2B52184   6.876  15.544   6.658
 4088POPC   C3B52185   6.959  15.461   7.096
 4088POPC   C4B52186   6.671  15.442   7.459
 4089POPC   NC352187  21.190   4.781   5.446
 4089POPC   PO452188  21.492   5.370   5.359
 4089POPC   GL152189  21.405   5.180   5.760
 4089POPC   GL252190  21.496   4.838   5.859
 4089POPC   C1A52191  21.309   5.202   6.194
 4089POPC   D2A52192  21.490   4.990   6.537
 4089POPC   C3A52193  21.297   5.113   6.938
 4089POPC   C4A52194  21.533   5.031   7.306
 4089POPC   C1B52195  21.128   4.734   6.142
 4089POPC   C2B52196  20.992   4.906   6.556
 4089POPC   C3B52197  20.951   4.684   6.955
 4089POPC   C4B52198  21.112   4.760   7.364
 4090POPC   NC352199  33.887  39.729   5.397
 4090POPC   PO452200  33.464  40.171   5.368
 4090POPC   GL152201  33.566  39.976   5.758
 4090POPC   GL252202  33.445  39.661   5.673
 4090POPC   C1A52203  33.794  40.038   6.174
 4090POPC   D2A52204  33.686  40.282   6.558
 4090POPC   C3A52205  33.722  40.074   6.916
 4090POPC   C4A52206  33.837  40.136   7.283
 4090POPC   C1B52207  33.446  39.650   6.140
 4090POPC   C2B52208  33.604  39.732   6.564
 4090POPC   C3B52209  33.397  39.690   7.013
 4090POPC   C4B52210  33.500  39.772   7.477
 4091POPC   NC352211  38.909  32.335   5.367
 4091POPC   PO452212  39.474  32.107   5.376
 4091POPC   GL152213  39.237  32.162   5.769
 4091POPC   GL252214  38.895  32.279   5.855
 4091POPC   C1A52215  39.140  32.016   6.187
 4091POPC   D2A52216  39.213  31.787   6.509
 4091POPC   C3A52217  39.226  31.977   6.876
 4091POPC   C4A52218  39.195  32.121   7.269
 4091POPC   C1B52219  39.209  32.522   6.141
 4091POPC   C2B52220  39.264  32.380   6.556
 4091POPC   C3B52221  39.369  32.514   6.972
 4091POPC   C4B52222  39.123  32.715   7.259
 4092POPC   NC352223  29.712  38.135   5.330
 4092POPC   PO452224  30.252  37.729   5.279
 4092POPC   GL152225  30.137  37.673   5.714
 4092POPC   GL252226  29.805  37.804   5.748
 4092POPC   C1A52227  30.043  37.451   6.126
 4092POPC   D2A52228  29.959  37.327   6.597
 4092POPC   C3A52229  30.172  37.507   6.949
 4092POPC   C4A52230  30.222  37.961   7.045
 4092POPC   C1B52231  29.603  37.900   6.167
 4092POPC   C2B52232  29.458  37.975   6.600
 4092POPC   C3B52233  29.744  37.774   6.883
 4092POPC   C4B52234  29.728  37.485   7.229
 4093POPC   NC352235   3.827  35.420   5.359
 4093POPC   PO452236   3.151  35.280   5.299
 4093POPC   GL152237   3.362  35.481   5.693
 4093POPC   GL252238   3.706  35.452   5.839
 4093POPC   C1A52239   3.309  35.422   6.154
 4093POPC   D2A52240   3.412  35.283   6.583
 4093POPC   C3A52241   3.694  35.067   6.857
 4093POPC   C4A52242   3.551  35.150   7.282
 4093POPC   C1B52243   3.778  35.614   6.233
 4093POPC   C2B52244   3.645  35.764   6.620
 4093POPC   C3B52245   3.610  35.574   6.987
 4093POPC   C4B52246   3.905  35.543   7.275
 4094POPC   NC352247  40.426  39.864   5.512
 4094POPC   PO452248  40.763  39.264   5.265
 4094POPC   GL152249  40.782  39.273   5.711
 4094POPC   GL252250  40.470  39.211   5.798
 4094POPC   C1A52251  40.891  39.367   6.155
 4094POPC   D2A52252  41.102  39.376   6.531
 4094POPC   C3A52253  40.944  39.433   6.931
 4094POPC   C4A52254  40.988  39.637   7.355
 4094POPC   C1B52255  40.380  39.386   6.179
 4094POPC   C2B52256  40.475  39.255   6.577
 4094POPC   C3B52257  40.447  39.431   6.973
 4094POPC   C4B52258  40.636  39.291   7.346
 4095POPC   NC352259  24.631  17.513   5.181
 4095POPC   PO452260  24.419  17.910   5.663
 4095POPC   GL152261  24.485  17.548   5.962
 4095POPC   GL252262  24.269  17.194   6.031
 4095POPC   C1A52263  24.579  17.755   6.353
 4095POPC   D2A52264  24.795  17.965   6.708
 4095POPC   C3A52265  24.837  17.697   7.073
 4095POPC   C4A52266  24.502  17.664   7.289
 4095POPC   C1B52267  24.472  17.253   6.416
 4095POPC   C2B52268  24.364  17.482   6.783
 4095POPC   C3B52269  24.233  17.266   7.150
 4095POPC   C4B52270  24.474  17.204   7.512
 4096POPC   NC352271   4.055  26.992   5.531
 4096POPC   PO452272   4.711  27.063   5.532
 4096POPC   GL152273   4.483  26.824   5.823
 4096POPC   GL252274   4.197  26.557   5.779
 4096POPC   C1A52275   4.279  26.997   6.178
 4096POPC   D2A52276   4.102  26.870   6.551
 4096POPC   C3A52277   4.290  27.028   6.914
 4096POPC   C4A52278   4.283  26.971   7.344
 4096POPC   C1B52279   4.371  26.499   6.203
 4096POPC   C2B52280   4.484  26.548   6.637
 4096POPC   C3B52281   4.242  26.533   7.018
 4096POPC   C4B52282   4.247  26.218   7.298
 4097POPC   NC352283  20.603  10.157   5.075
 4097POPC   PO452284  20.753  10.654   5.453
 4097POPC   GL152285  20.678  10.542   5.869
 4097POPC   GL252286  21.001  10.453   6.031
 4097POPC   C1A52287  20.356  10.493   6.194
 4097POPC   D2A52288  20.528  10.435   6.587
 4097POPC   C3A52289  20.241  10.512   6.883
 4097POPC   C4A52290  20.332  10.648   7.249
 4097POPC   C1B52291  20.949  10.722   6.346
 4097POPC   C2B52292  20.794  10.866   6.727
 4097POPC   C3B52293  20.793  10.608   7.057
 4097POPC   C4B52294  21.100  10.581   7.359
 4098POPC   NC352295  39.715  32.332   5.689
 4098POPC   PO452296  40.369  32.316   5.512
 4098POPC   GL152297  40.122  32.029   5.801
 4098POPC   GL252298  39.729  31.857   5.835
 4098POPC   C1A52299  40.157  32.182   6.225
 4098POPC   D2A52300  40.158  32.008   6.615
 4098POPC   C3A52301  40.188  32.213   6.991
 4098POPC   C4A52302  39.980  32.462   7.305
 4098POPC   C1B52303  39.640  32.099   6.273
 4098POPC   C2B52304  39.763  32.318   6.670
 4098POPC   C3B52305  39.689  32.115   7.065
 4098POPC   C4B52306  39.535  31.717   7.195
 4099POPC   NC352307   9.798  24.069   5.350
 4099POPC   PO452308   9.838  23.380   5.306
 4099POPC   GL152309   9.871  23.643   5.739
 4099POPC   GL252310   9.920  24.005   5.824
 4099POPC   C1A52311   9.603  23.758   6.150
 4099POPC   D2A52312   9.477  23.995   6.539
 4099POPC   C3A52313   9.572  23.793   6.945
 4099POPC   C4A52314   9.882  23.554   7.127
 4099POPC   C1B52315  10.078  23.949   6.232
 4099POPC   C2B52316   9.965  23.779   6.602
 4099POPC   C3B52317  10.140  23.944   6.944
 4099POPC   C4B52318  10.246  23.862   7.344
 4100POPC   NC352319  43.177   1.927   5.315
 4100POPC   PO452320  42.454   2.009   5.297
 4100POPC   GL152321  42.815   2.039   5.662
 4100POPC   GL252322  43.165   1.936   5.813
 4100POPC   C1A52323  42.815   2.123   6.130
 4100POPC   D2A52324  42.943   1.936   6.515
 4100POPC   C3A52325  42.789   2.092   6.896
 4100POPC   C4A52326  42.783   1.836   7.246
 4100POPC   C1B52327  43.365   1.997   6.213
 4100POPC   C2B52328  43.400   2.069   6.657
 4100POPC   C3B52329  43.260   1.889   7.023
 4100POPC   C4B52330  43.376   2.187   7.292
 4101POPC   NC352331  29.027  43.202   5.287
 4101POPC   PO452332  29.614  43.208   5.423
 4101POPC   GL152333  29.336  43.408   5.738
 4101POPC   GL252334  29.112  43.122   5.810
 4101POPC   C1A52335  29.253  43.434   6.214
 4101POPC   D2A52336  29.217  43.166   6.624
 4101POPC   C3A52337  29.291  43.297   7.078
 4101POPC   C4A52338  29.384  42.883   7.331
 4101POPC   C1B52339  28.944  42.965   6.210
 4101POPC   C2B52340  28.766  42.870   6.621
 4101POPC   C3B52341  28.963  42.908   7.009
 4101POPC   C4B52342  28.896  43.107   7.376
 4102POPC   NC352343  15.601  21.679   5.130
 4102POPC   PO452344  15.028  21.515   5.491
 4102POPC   GL152345  15.204  21.430   5.852
 4102POPC   GL252346  15.408  21.145   5.764
 4102POPC   C1A52347  15.339  21.520   6.261
 4102POPC   D2A52348  15.294  21.494   6.682
 4102POPC   C3A52349  14.949  21.594   6.949
 4102POPC   C4A52350  15.135  21.480   7.319
 4102POPC   C1B52351  15.146  21.019   6.138
 4102POPC   C2B52352  15.153  20.948   6.574
 4102POPC   C3B52353  15.144  21.099   6.978
 4102POPC   C4B52354  15.323  20.999   7.352
 4103POPC   NC352355   2.578   5.626   5.435
 4103POPC   PO452356   3.189   5.940   5.632
 4103POPC   GL152357   2.792   5.990   5.822
 4103POPC   GL252358   2.756   5.647   5.928
 4103POPC   C1A52359   2.667   6.036   6.268
 4103POPC   D2A52360   2.861   6.081   6.671
 4103POPC   C3A52361   2.915   5.837   7.027
 4103POPC   C4A52362   2.695   6.022   7.318
 4103POPC   C1B52363   2.471   5.553   6.285
 4103POPC   C2B52364   2.539   5.643   6.714
 4103POPC   C3B52365   2.475   5.562   7.142
 4103POPC   C4B52366   2.754   5.469   7.428
 4104POPC   NC352367  41.133   0.094   5.352
 4104POPC   PO452368  41.043   0.760   5.479
 4104POPC   GL152369  40.819   0.521   5.810
 4104POPC   GL252370  40.603   0.214   5.818
 4104POPC   C1A52371  41.030   0.591   6.207
 4104POPC   D2A52372  40.860   0.808   6.603
 4104POPC   C3A52373  40.650   0.574   6.912
 4104POPC   C4A52374  40.845   0.643   7.255
 4104POPC   C1B52375  40.624   0.328   6.299
 4104POPC   C2B52376  40.958   0.293   6.622
 4104POPC   C3B52377  40.942   0.160   7.049
 4104POPC   C4B52378  40.542   0.173   7.279
 4105POPC   NC352379   2.945  37.500   5.359
 4105POPC   PO452380   2.603  38.121   5.307
 4105POPC   GL152381   2.754  37.902   5.713
 4105POPC   GL252382   2.572  37.601   5.814
 4105POPC   C1A52383   2.932  37.780   6.152
 4105POPC   D2A52384   2.694  37.773   6.578
 4105POPC   C3A52385   2.761  37.681   7.027
 4105POPC   C4A52386   2.565  37.766   7.469
 4105POPC   C1B52387   2.587  37.374   6.235
 4105POPC   C2B52388   2.680  37.244   6.669
 4105POPC   C3B52389   2.526  37.241   7.134
 4105POPC   C4B52390   2.390  37.266   7.594
 4106POPC   NC352391  36.606  41.366   5.313
 4106POPC   PO452392  36.922  41.991   5.271
 4106POPC   GL152393  36.833  41.930   5.703
 4106POPC   GL252394  36.861  41.573   5.700
 4106POPC   C1A52395  36.984  41.802   6.142
 4106POPC   D2A52396  36.844  41.664   6.561
 4106POPC   C3A52397  37.024  41.503   6.958
 4106POPC   C4A52398  36.808  41.677   7.308
 4106POPC   C1B52399  36.713  41.355   6.073
 4106POPC   C2B52400  36.762  41.171   6.490
 4106POPC   C3B52401  36.589  41.282   6.900
 4106POPC   C4B52402  36.734  41.173   7.300
 4107POPC   NC352403  27.315  25.898   5.662
 4107POPC   PO452404  27.606  26.475   5.348
 4107POPC   GL152405  27.662  26.291   5.763
 4107POPC   GL252406  27.830  25.962   5.837
 4107POPC   C1A52407  27.564  26.279   6.189
 4107POPC   D2A52408  27.351  26.198   6.565
 4107POPC   C3A52409  27.567  26.061   6.908
 4107POPC   C4A52410  27.451  26.210   7.281
 4107POPC   C1B52411  27.669  25.771   6.239
 4107POPC   C2B52412  27.345  25.673   6.552
 4107POPC   C3B52413  27.094  25.853   6.862
 4107POPC   C4B52414  27.306  25.734   7.241
 4108POPC   NC352415   8.702  11.859   5.496
 4108POPC   PO452416   9.182  12.268   5.496
 4108POPC   GL152417   9.134  12.224   5.925
 4108POPC   GL252418   8.868  12.003   5.969
 4108POPC   C1A52419   9.122  12.309   6.372
 4108POPC   D2A52420   8.966  12.368   6.803
 4108POPC   C3A52421   9.221  12.132   7.117
 4108POPC   C4A52422   9.106  11.807   7.412
 4108POPC   C1B52423   8.655  12.389   6.117
 4108POPC   C2B52424   8.463  12.422   6.512
 4108POPC   C3B52425   8.470  12.129   6.833
 4108POPC   C4B52426   8.705  12.103   7.201
 4109POPC   NC352427  11.786  21.200   5.419
 4109POPC   PO452428  12.217  21.633   5.659
 4109POPC   GL152429  12.389  21.454   6.007
 4109POPC   GL252430  12.433  21.130   5.801
 4109POPC   C1A52431  12.270  21.456   6.431
 4109POPC   D2A52432  11.853  21.383   6.525
 4109POPC   C3A52433  11.742  21.484   6.937
 4109POPC   C4A52434  12.142  21.535   7.141
 4109POPC   C1B52435  12.079  21.068   6.098
 4109POPC   C2B52436  12.151  20.947   6.524
 4109POPC   C3B52437  12.092  21.097   6.901
 4109POPC   C4B52438  11.908  21.033   7.280
 4110POPC   NC352439  15.689  12.885   5.138
 4110POPC   PO452440  15.139  12.554   5.246
 4110POPC   GL152441  15.057  12.745   5.658
 4110POPC   GL252442  15.371  12.915   5.703
 4110POPC   C1A52443  14.894  12.938   6.065
 4110POPC   D2A52444  15.046  13.081   6.486
 4110POPC   C3A52445  15.064  12.759   6.822
 4110POPC   C4A52446  15.031  12.867   7.250
 4110POPC   C1B52447  15.425  12.946   6.128
 4110POPC   C2B52448  15.572  13.124   6.490
 4110POPC   C3B52449  15.431  13.107   6.891
 4110POPC   C4B52450  15.567  12.879   7.221
 4111POPC   NC352451  44.364  43.516   5.542
 4111POPC   PO452452  43.762  43.771   5.545
 4111POPC   GL152453  44.025  43.916   5.853
 4111POPC   GL252454  43.768  44.129   6.005
 4111POPC   C1A52455  44.205  44.079   6.236
 4111POPC   D2A52456  44.035  44.274   6.590
 4111POPC   C3A52457  43.894  43.978   6.891
 4111POPC   C4A52458  43.994  43.668   7.158
 4111POPC   C1B52459  43.574  43.753   6.175
 4111POPC   C2B52460  43.682  43.636   6.557
 4111POPC   C3B52461  43.521  43.560   6.911
 4111POPC   C4B52462  43.474  43.716   7.282
 4112POPC   NC352463  42.665  25.060   5.328
 4112POPC   PO452464  42.083  25.400   5.305
 4112POPC   GL152465  42.261  25.167   5.698
 4112POPC   GL252466  42.531  25.286   5.767
 4112POPC   C1A52467  42.343  25.011   6.144
 4112POPC   D2A52468  42.454  25.236   6.530
 4112POPC   C3A52469  42.301  25.157   6.940
 4112POPC   C4A52470  42.441  24.987   7.308
 4112POPC   C1B52471  42.530  25.579   6.106
 4112POPC   C2B52472  42.398  25.731   6.479
 4112POPC   C3B52473  42.519  25.623   6.886
 4112POPC   C4B52474  42.548  25.484   7.302
 4113POPC   NC352475  41.659  12.863   5.268
 4113POPC   PO452476  41.239  12.618   5.676
 4113POPC   GL152477  41.701  12.670   5.759
 4113POPC   GL252478  41.763  13.043   5.763
 4113POPC   C1A52479  41.851  12.713   6.185
 4113POPC   D2A52480  41.607  12.900   6.543
 4113POPC   C3A52481  41.632  12.734   6.980
 4113POPC   C4A52482  41.762  12.646   7.427
 4113POPC   C1B52483  41.465  13.179   6.088
 4113POPC   C2B52484  41.421  13.398   6.507
 4113POPC   C3B52485  41.420  13.223   6.939
 4113POPC   C4B52486  41.255  13.130   7.349
 4114POPC   NC352487  23.097  34.942   5.508
 4114POPC   PO452488  22.895  34.276   5.456
 4114POPC   GL152489  22.724  34.448   5.828
 4114POPC   GL252490  22.669  34.782   5.748
 4114POPC   C1A52491  22.805  34.634   6.247
 4114POPC   D2A52492  23.059  34.719   6.608
 4114POPC   C3A52493  22.864  34.623   7.018
 4114POPC   C4A52494  23.045  34.735   7.433
 4114POPC   C1B52495  22.661  35.086   6.094
 4114POPC   C2B52496  22.569  35.030   6.514
 4114POPC   C3B52497  22.788  35.097   6.890
 4114POPC   C4B52498  22.591  34.988   7.262
 4115POPC   NC352499  37.217  32.287   5.180
 4115POPC   PO452500  36.634  32.456   5.393
 4115POPC   GL152501  36.564  32.176   5.745
 4115POPC   GL252502  36.924  32.155   5.809
 4115POPC   C1A52503  36.638  32.270   6.216
 4115POPC   D2A52504  36.879  32.335   6.615
 4115POPC   C3A52505  36.625  32.171   6.947
 4115POPC   C4A52506  36.464  32.137   7.369
 4115POPC   C1B52507  37.186  32.192   6.206
 4115POPC   C2B52508  37.398  32.162   6.598
 4115POPC   C3B52509  37.208  32.108   6.994
 4115POPC   C4B52510  37.247  32.122   7.419
 4116POPC   NC352511  24.510  28.600   5.474
 4116POPC   PO452512  24.858  28.074   5.689
 4116POPC   GL152513  24.552  28.315   5.872
 4116POPC   GL252514  24.266  28.177   5.961
 4116POPC   C1A52515  24.395  28.634   6.149
 4116POPC   D2A52516  24.299  28.420   6.516
 4116POPC   C3A52517  24.548  28.314   6.859
 4116POPC   C4A52518  24.420  28.467   7.247
 4116POPC   C1B52519  24.131  27.953   6.334
 4116POPC   C2B52520  24.170  27.951   6.797
 4116POPC   C3B52521  24.170  27.971   7.235
 4116POPC   C4B52522  24.252  28.190   7.643
 4117POPC   NC352523  23.117  26.010   5.342
 4117POPC   PO452524  23.742  25.900   5.254
 4117POPC   GL152525  23.630  25.936   5.711
 4117POPC   GL252526  23.926  26.090   5.867
 4117POPC   C1A52527  23.533  25.973   6.184
 4117POPC   D2A52528  23.762  26.109   6.560
 4117POPC   C3A52529  23.469  26.197   6.884
 4117POPC   C4A52530  23.334  26.068   7.257
 4117POPC   C1B52531  24.171  25.937   6.208
 4117POPC   C2B52532  24.311  26.005   6.622
 4117POPC   C3B52533  24.092  26.186   6.960
 4117POPC   C4B52534  23.796  25.897   7.114
 4118POPC   NC352535  20.718  22.684   5.285
 4118POPC   PO452536  20.351  22.176   5.308
 4118POPC   GL152537  20.624  22.228   5.702
 4118POPC   GL252538  20.847  22.534   5.769
 4118POPC   C1A52539  20.751  21.976   6.103
 4118POPC   D2A52540  20.596  21.842   6.511
 4118POPC   C3A52541  20.831  21.778   6.883
 4118POPC   C4A52542  20.743  21.910   7.305
 4118POPC   C1B52543  20.615  22.474   6.149
 4118POPC   C2B52544  20.698  22.355   6.534
 4118POPC   C3B52545  20.541  22.202   6.893
 4118POPC   C4B52546  20.488  22.363   7.269
 4119POPC   NC352547  28.952   6.931   5.394
 4119POPC   PO452548  28.386   6.466   5.328
 4119POPC   GL152549  28.534   6.553   5.779
 4119POPC   GL252550  28.490   6.307   6.088
 4119POPC   C1A52551  28.477   6.807   6.182
 4119POPC   D2A52552  28.562   6.575   6.578
 4119POPC   C3A52553  28.724   6.709   6.963
 4119POPC   C4A52554  28.641   6.667   7.403
 4119POPC   C1B52555  28.099   6.491   6.344
 4119POPC   C2B52556  28.074   6.676   6.761
 4119POPC   C3B52557  28.255   6.522   7.110
 4119POPC   C4B52558  28.438   6.190   7.333
 4120POPC   NC352559   6.453  30.157   5.190
 4120POPC   PO452560   6.961  29.744   5.372
 4120POPC   GL152561   6.784  29.913   5.755
 4120POPC   GL252562   6.477  30.119   5.743
 4120POPC   C1A52563   6.556  29.804   6.173
 4120POPC   D2A52564   6.581  30.010   6.595
 4120POPC   C3A52565   6.626  29.883   7.031
 4120POPC   C4A52566   6.939  29.946   7.338
 4120POPC   C1B52567   6.754  30.249   6.130
 4120POPC   C2B52568   6.674  30.507   6.470
 4120POPC   C3B52569   6.796  30.415   6.895
 4120POPC   C4B52570   6.603  30.342   7.274
 4121POPC   NC352571   4.158   9.906   5.363
 4121POPC   PO452572   4.641   9.510   5.189
 4121POPC   GL152573   4.501   9.673   5.655
 4121POPC   GL252574   4.146   9.579   5.774
 4121POPC   C1A52575   4.471   9.838   6.086
 4121POPC   D2A52576   4.373   9.595   6.475
 4121POPC   C3A52577   4.408   9.835   6.844
 4121POPC   C4A52578   4.436   9.670   7.226
 4121POPC   C1B52579   3.965   9.865   6.093
 4121POPC   C2B52580   4.076  10.030   6.488
 4121POPC   C3B52581   3.900   9.958   6.914
 4121POPC   C4B52582   3.966   9.850   7.333
 4122POPC   NC352583  13.078  33.130   5.470
 4122POPC   PO452584  12.518  32.809   5.235
 4122POPC   GL152585  12.712  32.792   5.672
 4122POPC   GL252586  12.835  33.046   5.906
 4122POPC   C1A52587  12.586  32.660   6.120
 4122POPC   D2A52588  12.804  32.824   6.483
 4122POPC   C3A52589  12.569  32.862   6.863
 4122POPC   C4A52590  12.809  32.824   7.241
 4122POPC   C1B52591  12.890  33.417   6.150
 4122POPC   C2B52592  13.055  33.395   6.550
 4122POPC   C3B52593  12.987  33.153   6.868
 4122POPC   C4B52594  12.776  33.353   7.198
 4123POPC   NC352595  28.754  11.641   5.308
 4123POPC   PO452596  29.274  11.226   5.332
 4123POPC   GL152597  29.216  11.202   5.762
 4123POPC   GL252598  29.069  11.523   5.751
 4123POPC   C1A52599  28.994  11.177   6.169
 4123POPC   D2A52600  28.825  11.183   6.607
 4123POPC   C3A52601  29.077  11.182   6.954
 4123POPC   C4A52602  29.034  11.167   7.366
 4123POPC   C1B52603  29.233  11.639   6.153
 4123POPC   C2B52604  29.525  11.710   6.484
 4123POPC   C3B52605  29.320  11.694   6.852
 4123POPC   C4B52606  29.334  11.549   7.236
 4124POPC   NC352607   1.376  42.474   5.467
 4124POPC   PO452608   1.027  41.887   5.393
 4124POPC   GL152609   1.179  42.078   5.771
 4124POPC   GL252610   1.040  42.386   5.853
 4124POPC   C1A52611   1.310  42.186   6.218
 4124POPC   D2A52612   1.160  42.343   6.632
 4124POPC   C3A52613   1.186  42.042   6.979
 4124POPC   C4A52614   1.525  41.954   7.205
 4124POPC   C1B52615   0.906  42.575   6.239
 4124POPC   C2B52616   0.807  42.765   6.648
 4124POPC   C3B52617   0.977  42.820   7.058
 4124POPC   C4B52618   1.351  42.529   7.101
 4125POPC   NC352619  40.334  37.414   5.557
 4125POPC   PO452620  39.900  37.884   5.242
 4125POPC   GL152621  39.891  37.716   5.715
 4125POPC   GL252622  39.758  37.396   5.863
 4125POPC   C1A52623  39.961  37.893   6.163
 4125POPC   D2A52624  40.245  38.011   6.541
 4125POPC   C3A52625  40.150  37.874   6.958
 4125POPC   C4A52626  39.710  37.713   7.004
 4125POPC   C1B52627  40.059  37.391   6.181
 4125POPC   C2B52628  40.007  37.547   6.581
 4125POPC   C3B52629  40.111  37.357   6.963
 4125POPC   C4B52630  40.406  37.529   7.224
 4126POPC   NC352631  29.613  38.679   5.548
 4126POPC   PO452632  30.151  38.317   5.299
 4126POPC   GL152633  29.983  38.344   5.755
 4126POPC   GL252634  29.617  38.279   5.848
 4126POPC   C1A52635  30.114  38.578   6.179
 4126POPC   D2A52636  30.001  38.754   6.592
 4126POPC   C3A52637  30.065  38.537   6.993
 4126POPC   C4A52638  29.841  38.537   7.411
 4126POPC   C1B52639  29.641  38.421   6.290
 4126POPC   C2B52640  29.595  38.475   6.728
 4126POPC   C3B52641  29.650  38.236   7.063
 4126POPC   C4B52642  29.819  37.972   7.360
 4127POPC   NC352643  23.268  12.573   5.261
 4127POPC   PO452644  22.829  12.964   5.345
 4127POPC   GL152645  22.937  12.677   5.683
 4127POPC   GL252646  23.219  12.860   5.767
 4127POPC   C1A52647  22.923  12.680   6.154
 4127POPC   D2A52648  22.804  12.978   6.477
 4127POPC   C3A52649  22.771  12.865   6.915
 4127POPC   C4A52650  22.958  12.802   7.305
 4127POPC   C1B52651  23.257  13.122   6.138
 4127POPC   C2B52652  23.236  13.244   6.571
 4127POPC   C3B52653  23.255  12.871   6.798
 4127POPC   C4B52654  23.453  12.842   7.148
 4128POPC   NC352655  10.804  44.124   5.537
 4128POPC   PO452656  10.164  43.896   5.451
 4128POPC   GL152657  10.349  43.939   5.858
 4128POPC   GL252658  10.267  43.576   5.886
 4128POPC   C1A52659  10.677  44.080   6.202
 4128POPC   D2A52660  10.949  43.965   6.576
 4128POPC   C3A52661  10.817  44.036   7.013
 4128POPC   C4A52662  10.394  44.106   7.137
 4128POPC   C1B52663  10.540  43.582   6.260
 4128POPC   C2B52664  10.510  43.739   6.690
 4128POPC   C3B52665  10.471  43.599   7.094
 4128POPC   C4B52666  10.114  43.382   7.250
 4129POPC   NC352667  29.353  10.100   5.735
 4129POPC   PO452668  29.256   9.627   5.342
 4129POPC   GL152669  29.104   9.653   5.810
 4129POPC   GL252670  28.854   9.911   5.909
 4129POPC   C1A52671  29.239   9.749   6.266
 4129POPC   D2A52672  29.352  10.044   6.575
 4129POPC   C3A52673  29.408   9.776   6.870
 4129POPC   C4A52674  29.284   9.756   7.265
 4129POPC   C1B52675  28.751   9.637   6.278
 4129POPC   C2B52676  28.832   9.660   6.739
 4129POPC   C3B52677  28.775   9.833   7.146
 4129POPC   C4B52678  28.901   9.762   7.577
 4130POPC   NC352679  23.514   6.145   5.288
 4130POPC   PO452680  24.117   5.744   5.344
 4130POPC   GL152681  23.862   5.915   5.725
 4130POPC   GL252682  23.528   6.086   5.818
 4130POPC   C1A52683  23.842   5.919   6.223
 4130POPC   D2A52684  23.515   5.862   6.568
 4130POPC   C3A52685  23.569   5.659   6.987
 4130POPC   C4A52686  23.693   5.570   7.430
 4130POPC   C1B52687  23.342   6.341   6.174
 4130POPC   C2B52688  23.260   6.300   6.624
 4130POPC   C3B52689  23.536   6.180   6.990
 4130POPC   C4B52690  23.683   6.083   7.420
 4131POPC   NC352691  43.287   5.445   5.590
 4131POPC   PO452692  43.035   4.692   5.464
 4131POPC   GL152693  43.006   4.906   5.894
 4131POPC   GL252694  42.858   5.229   5.904
 4131POPC   C1A52695  43.249   5.205   6.244
 4131POPC   D2A52696  43.447   5.369   6.667
 4131POPC   C3A52697  43.268   5.097   7.003
 4131POPC   C4A52698  42.845   4.869   6.960
 4131POPC   C1B52699  42.772   5.603   6.164
 4131POPC   C2B52700  42.777   5.728   6.590
 4131POPC   C3B52701  42.921   5.447   6.886
 4131POPC   C4B52702  42.965   5.478   7.313
 4132POPC   NC352703   7.393  36.579   5.537
 4132POPC   PO452704   7.733  35.919   5.425
 4132POPC   GL152705   7.591  36.007   5.834
 4132POPC   GL252706   7.252  36.166   5.799
 4132POPC   C1A52707   7.384  35.929   6.241
 4132POPC   D2A52708   7.320  36.123   6.640
 4132POPC   C3A52709   7.507  35.875   6.985
 4132POPC   C4A52710   7.688  36.070   7.372
 4132POPC   C1B52711   7.027  36.308   6.169
 4132POPC   C2B52712   7.059  36.547   6.515
 4132POPC   C3B52713   6.991  36.436   6.912
 4132POPC   C4B52714   7.268  36.276   7.187
 4133POPC   NC352715  31.523  14.072   5.108
 4133POPC   PO452716  31.711  13.559   5.534
 4133POPC   GL152717  31.557  13.598   5.927
 4133POPC   GL252718  31.223  13.571   5.913
 4133POPC   C1A52719  31.665  13.585   6.319
 4133POPC   D2A52720  31.760  13.832   6.635
 4133POPC   C3A52721  31.562  13.686   6.949
 4133POPC   C4A52722  31.697  13.778   7.319
 4133POPC   C1B52723  31.176  13.733   6.354
 4133POPC   C2B52724  31.227  14.005   6.731
 4133POPC   C3B52725  31.198  13.938   7.202
 4133POPC   C4B52726  31.265  13.507   7.379
 4134POPC   NC352727  23.244  15.593   5.709
 4134POPC   PO452728  22.903  15.986   5.282
 4134POPC   GL152729  22.895  15.992   5.728
 4134POPC   GL252730  22.730  15.698   5.822
 4134POPC   C1A52731  22.888  16.094   6.172
 4134POPC   D2A52732  22.668  16.018   6.574
 4134POPC   C3A52733  22.895  16.184   6.946
 4134POPC   C4A52734  23.032  16.240   7.384
 4134POPC   C1B52735  22.848  15.570   6.258
 4134POPC   C2B52736  22.628  15.420   6.607
 4134POPC   C3B52737  22.725  15.651   6.949
 4134POPC   C4B52738  22.706  15.869   7.303
 4135POPC   NC352739  41.959  28.663   5.106
 4135POPC   PO452740  41.960  28.102   5.499
 4135POPC   GL152741  42.370  28.210   5.705
 4135POPC   GL252742  42.121  28.244   5.974
 4135POPC   C1A52743  42.583  28.316   6.133
 4135POPC   D2A52744  42.365  28.199   6.522
 4135POPC   C3A52745  42.585  28.352   6.888
 4135POPC   C4A52746  42.663  28.257   7.292
 4135POPC   C1B52747  42.042  28.552   6.263
 4135POPC   C2B52748  41.907  28.477   6.633
 4135POPC   C3B52749  42.046  28.229   6.945
 4135POPC   C4B52750  42.131  28.390   7.325
 4136POPC   NC352751  36.623  36.485   5.557
 4136POPC   PO452752  36.984  35.942   5.432
 4136POPC   GL152753  36.807  36.051   5.808
 4136POPC   GL252754  37.008  36.340   5.864
 4136POPC   C1A52755  36.788  35.873   6.215
 4136POPC   D2A52756  36.729  35.889   6.643
 4136POPC   C3A52757  36.943  36.135   6.931
 4136POPC   C4A52758  36.882  35.967   7.333
 4136POPC   C1B52759  36.757  36.374   6.239
 4136POPC   C2B52760  36.560  36.410   6.656
 4136POPC   C3B52761  36.636  36.552   7.086
 4136POPC   C4B52762  36.984  36.482   7.375
 4137POPC   NC352763   1.570   3.847   5.512
 4137POPC   PO452764   2.069   3.495   5.266
 4137POPC   GL152765   2.006   3.541   5.720
 4137POPC   GL252766   1.916   3.210   5.803
 4137POPC   C1A52767   2.188   3.740   6.124
 4137POPC   D2A52768   1.986   3.758   6.551
 4137POPC   C3A52769   2.197   3.620   6.920
 4137POPC   C4A52770   2.344   3.951   7.158
 4137POPC   C1B52771   1.834   3.381   6.214
 4137POPC   C2B52772   1.916   3.242   6.644
 4137POPC   C3B52773   1.845   3.263   7.072
 4137POPC   C4B52774   1.963   3.102   7.469
 4138POPC   NC352775  34.993  19.955   5.342
 4138POPC   PO452776  35.555  19.582   5.307
 4138POPC   GL152777  35.387  19.762   5.731
 4138POPC   GL252778  35.669  19.751   5.955
 4138POPC   C1A52779  35.257  20.002   6.164
 4138POPC   D2A52780  35.377  20.178   6.591
 4138POPC   C3A52781  35.210  20.048   6.984
 4138POPC   C4A52782  35.431  19.956   7.392
 4138POPC   C1B52783  35.365  19.498   6.204
 4138POPC   C2B52784  35.278  19.661   6.618
 4138POPC   C3B52785  35.565  19.695   6.966
 4138POPC   C4B52786  35.527  19.473   7.374
 4139POPC   NC352787  41.352  22.398   5.368
 4139POPC   PO452788  41.603  21.676   5.428
 4139POPC   GL152789  41.473  21.998   5.791
 4139POPC   GL252790  41.309  22.333   5.865
 4139POPC   C1A52791  41.512  22.040   6.274
 4139POPC   D2A52792  41.275  22.003   6.684
 4139POPC   C3A52793  41.494  21.930   7.077
 4139POPC   C4A52794  41.793  22.059   7.414
 4139POPC   C1B52795  41.486  22.535   6.221
 4139POPC   C2B52796  41.543  22.446   6.661
 4139POPC   C3B52797  41.588  22.687   7.047
 4139POPC   C4B52798  41.533  22.595   7.478
 4140POPC   NC352799  18.553  32.018   5.416
 4140POPC   PO452800  18.188  32.623   5.437
 4140POPC   GL152801  18.283  32.280   5.738
 4140POPC   GL252802  18.075  32.034   5.838
 4140POPC   C1A52803  18.478  32.159   6.124
 4140POPC   D2A52804  18.556  32.456   6.438
 4140POPC   C3A52805  18.374  32.386   6.848
 4140POPC   C4A52806  18.367  32.114   7.204
 4140POPC   C1B52807  17.966  32.274   6.187
 4140POPC   C2B52808  18.031  32.111   6.592
 4140POPC   C3B52809  17.908  32.241   7.015
 4140POPC   C4B52810  17.921  32.339   7.467
 4141POPC   NC352811  21.470  38.669   5.179
 4141POPC   PO452812  21.225  39.318   5.329
 4141POPC   GL152813  21.462  39.172   5.705
 4141POPC   GL252814  21.307  39.451   5.873
 4141POPC   C1A52815  21.396  38.977   6.138
 4141POPC   D2A52816  21.206  38.968   6.573
 4141POPC   C3A52817  21.471  38.962   6.968
 4141POPC   C4A52818  21.609  39.125   7.419
 4141POPC   C1B52819  21.105  39.388   6.279
 4141POPC   C2B52820  21.217  39.472   6.709
 4141POPC   C3B52821  21.323  39.449   7.132
 4141POPC   C4B52822  21.681  39.629   7.363
 4142POPC   NC352823  37.311   1.089   5.239
 4142POPC   PO452824  36.605   1.304   5.345
 4142POPC   GL152825  36.891   1.132   5.650
 4142POPC   GL252826  37.062   1.435   5.631
 4142POPC   C1A52827  36.845   1.109   6.152
 4142POPC   D2A52828  36.554   1.083   6.521
 4142POPC   C3A52829  36.736   0.966   6.899
 4142POPC   C4A52830  37.031   0.904   7.222
 4142POPC   C1B52831  37.114   1.549   6.080
 4142POPC   C2B52832  36.953   1.503   6.515
 4142POPC   C3B52833  37.071   1.369   6.924
 4142POPC   C4B52834  37.017   1.407   7.340
 4143POPC   NC352835  32.173  42.418   5.395
 4143POPC   PO452836  31.818  41.923   5.631
 4143POPC   GL152837  32.016  42.199   5.933
 4143POPC   GL252838  32.335  42.346   5.881
 4143POPC   C1A52839  32.182  42.319   6.372
 4143POPC   D2A52840  32.493  42.300   6.708
 4143POPC   C3A52841  32.274  42.166   7.058
 4143POPC   C4A52842  31.952  42.230   7.316
 4143POPC   C1B52843  32.010  42.679   6.043
 4143POPC   C2B52844  31.888  42.751   6.488
 4143POPC   C3B52845  32.057  42.556   6.842
 4143POPC   C4B52846  32.259  42.642   7.229
 4144POPC   NC352847  43.895  29.416   5.274
 4144POPC   PO452848  44.224  28.936   5.548
 4144POPC   GL152849  43.978  29.240   5.770
 4144POPC   GL252850  43.666  29.193   5.862
 4144POPC   C1A52851  44.003  29.193   6.253
 4144POPC   D2A52852  43.867  29.103   6.688
 4144POPC   C3A52853  44.030  29.177   7.105
 4144POPC   C4A52854  43.853  28.842   7.295
 4144POPC   C1B52855  43.475  29.147   6.252
 4144POPC   C2B52856  43.383  29.315   6.651
 4144POPC   C3B52857  43.414  29.113   7.054
 4144POPC   C4B52858  43.549  29.197   7.478
 4145POPC   NC352859  28.751  42.362   5.339
 4145POPC   PO452860  29.394  42.422   5.311
 4145POPC   GL152861  29.337  42.290   5.764
 4145POPC   GL252862  29.468  41.965   5.857
 4145POPC   C1A52863  29.194  42.459   6.200
 4145POPC   D2A52864  29.224  42.612   6.648
 4145POPC   C3A52865  28.964  42.386   6.983
 4145POPC   C4A52866  29.051  42.201   7.429
 4145POPC   C1B52867  29.616  41.900   6.267
 4145POPC   C2B52868  29.424  42.110   6.606
 4145POPC   C3B52869  29.349  42.074   7.033
 4145POPC   C4B52870  29.451  41.890   7.419
 4146POPC   NC352871  23.536  40.532   5.193
 4146POPC   PO452872  23.947  41.035   5.304
 4146POPC   GL152873  23.894  40.670   5.618
 4146POPC   GL252874  23.542  40.621   5.729
 4146POPC   C1A52875  23.889  40.598   6.097
 4146POPC   D2A52876  23.854  40.421   6.515
 4146POPC   C3A52877  23.854  40.671   6.861
 4146POPC   C4A52878  23.740  40.684   7.281
 4146POPC   C1B52879  23.456  40.967   6.105
 4146POPC   C2B52880  23.510  41.198   6.566
 4146POPC   C3B52881  23.686  41.136   7.031
 4146POPC   C4B52882  23.772  41.120   7.543
 4147POPC   NC352883  14.653  11.151   5.242
 4147POPC   PO452884  14.134  11.619   5.399
 4147POPC   GL152885  14.281  11.315   5.717
 4147POPC   GL252886  13.917  11.312   5.791
 4147POPC   C1A52887  14.586  11.261   6.111
 4147POPC   D2A52888  14.765  11.353   6.561
 4147POPC   C3A52889  14.681  11.229   7.012
 4147POPC   C4A52890  14.770  11.521   7.390
 4147POPC   C1B52891  14.095  11.133   6.181
 4147POPC   C2B52892  14.337  11.065   6.567
 4147POPC   C3B52893  14.180  11.078   6.977
 4147POPC   C4B52894  14.296  11.283   7.385
 4148POPC   NC352895  43.872  14.787   5.244
 4148POPC   PO452896  44.044  14.203   5.520
 4148POPC   GL152897  43.786  14.232   5.910
 4148POPC   GL252898  43.518  13.965   5.854
 4148POPC   C1A52899  43.748  14.549   6.290
 4148POPC   D2A52900  43.882  14.839   6.632
 4148POPC   C3A52901  43.864  14.532   6.946
 4148POPC   C4A52902  43.868  14.376   7.373
 4148POPC   C1B52903  43.488  14.061   6.284
 4148POPC   C2B52904  43.507  14.246   6.664
 4148POPC   C3B52905  43.577  14.098   7.054
 4148POPC   C4B52906  43.398  14.146   7.449
 4149POPC   NC352907  17.810  39.341   5.546
 4149POPC   PO452908  18.473  39.048   5.417
 4149POPC   GL152909  18.264  39.182   5.773
 4149POPC   GL252910  17.986  38.914   5.792
 4149POPC   C1A52911  18.380  39.368   6.165
 4149POPC   D2A52912  18.440  39.153   6.553
 4149POPC   C3A52913  18.583  39.338   6.934
 4149POPC   C4A52914  18.612  39.165   7.355
 4149POPC   C1B52915  17.948  39.066   6.216
 4149POPC   C2B52916  17.971  39.368   6.557
 4149POPC   C3B52917  18.089  39.206   6.975
 4149POPC   C4B52918  18.088  38.923   7.323
 4150POPC   NC352919   1.084  17.997   5.462
 4150POPC   PO452920   1.099  17.343   5.544
 4150POPC   GL152921   1.197  17.636   5.863
 4150POPC   GL252922   0.988  17.936   5.946
 4150POPC   C1A52923   1.386  17.509   6.249
 4150POPC   D2A52924   1.211  17.346   6.614
 4150POPC   C3A52925   1.313  17.487   6.986
 4150POPC   C4A52926   1.475  17.165   7.216
 4150POPC   C1B52927   1.305  18.012   6.221
 4150POPC   C2B52928   1.252  17.867   6.634
 4150POPC   C3B52929   1.301  18.011   7.058
 4150POPC   C4B52930   1.211  17.867   7.494
 4151POPC   NC352931  21.868  10.936   5.474
 4151POPC   PO452932  21.359  11.303   5.232
 4151POPC   GL152933  21.339  11.173   5.713
 4151POPC   GL252934  21.045  10.943   5.831
 4151POPC   C1A52935  21.542  11.313   6.128
 4151POPC   D2A52936  21.660  11.429   6.574
 4151POPC   C3A52937  21.494  11.289   6.994
 4151POPC   C4A52938  21.475  11.237   7.479
 4151POPC   C1B52939  21.010  11.219   6.195
 4151POPC   C2B52940  21.112  11.509   6.535
 4151POPC   C3B52941  20.953  11.393   6.928
 4151POPC   C4B52942  21.084  11.053   7.198
 4152POPC   NC352943  15.844  19.560   5.432
 4152POPC   PO452944  16.220  20.203   5.482
 4152POPC   GL152945  15.826  20.171   5.720
 4152POPC   GL252946  15.917  19.842   5.851
 4152POPC   C1A52947  15.641  20.159   6.149
 4152POPC   D2A52948  15.743  19.850   6.501
 4152POPC   C3A52949  15.808  19.964   6.953
 4152POPC   C4A52950  16.200  19.932   7.190
 4152POPC   C1B52951  16.105  19.584   6.199
 4152POPC   C2B52952  16.136  19.492   6.650
 4152POPC   C3B52953  16.008  19.424   7.089
 4152POPC   C4B52954  15.851  19.162   7.464
 4153POPC   NC352955   7.667  10.572   5.367
 4153POPC   PO452956   7.010  10.632   5.364
 4153POPC   GL152957   7.298  10.475   5.720
 4153POPC   GL252958   7.438  10.777   5.785
 4153POPC   C1A52959   7.599  10.437   6.119
 4153POPC   D2A52960   7.836  10.419   6.530
 4153POPC   C3A52961   7.549  10.329   6.880
 4153POPC   C4A52962   7.316  10.395   7.315
 4153POPC   C1B52963   7.115  10.780   6.117
 4153POPC   C2B52964   7.008  10.886   6.548
 4153POPC   C3B52965   7.206  10.726   6.916
 4153POPC   C4B52966   7.130  10.882   7.318
 4154POPC   NC352967   6.006   5.544   5.582
 4154POPC   PO452968   5.891   4.906   5.231
 4154POPC   GL152969   5.934   5.009   5.679
 4154POPC   GL252970   5.599   5.079   5.803
 4154POPC   C1A52971   6.064   4.844   6.093
 4154POPC   D2A52972   6.182   4.779   6.536
 4154POPC   C3A52973   6.019   5.124   6.795
 4154POPC   C4A52974   5.990   5.150   7.259
 4154POPC   C1B52975   5.555   4.897   6.216
 4154POPC   C2B52976   5.477   5.115   6.610
 4154POPC   C3B52977   5.579   5.330   6.990
 4154POPC   C4B52978   5.489   5.084   7.330
 4155POPC   NC352979  35.796  37.027   5.405
 4155POPC   PO452980  35.313  36.633   5.712
 4155POPC   GL152981  35.508  36.705   6.025
 4155POPC   GL252982  35.567  37.042   5.867
 4155POPC   C1A52983  35.533  36.713   6.459
 4155POPC   D2A52984  35.618  36.668   6.913
 4155POPC   C3A52985  35.375  36.652   7.283
 4155POPC   C4A52986  35.261  36.542   7.725
 4155POPC   C1B52987  35.259  37.102   6.202
 4155POPC   C2B52988  35.416  37.191   6.603
 4155POPC   C3B52989  35.252  37.079   6.973
 4155POPC   C4B52990  35.332  37.198   7.326
 4156POPC   NC352991  17.883  32.918   5.635
 4156POPC   PO452992  17.394  33.397   5.516
 4156POPC   GL152993  17.425  33.149   5.844
 4156POPC   GL252994  17.219  32.850   5.808
 4156POPC   C1A52995  17.571  33.123   6.256
 4156POPC   D2A52996  17.428  32.904   6.612
 4156POPC   C3A52997  17.574  33.085   6.962
 4156POPC   C4A52998  17.477  33.269   7.349
 4156POPC   C1B52999  17.069  33.004   6.216
 4156POPC   C2B53000  16.912  33.007   6.644
 4156POPC   C3B53001  17.097  32.855   7.048
 4156POPC   C4B53002  17.196  32.826   7.491
 4157POPC   NC353003  37.524  43.275   5.401
 4157POPC   PO453004  37.985  42.790   5.562
 4157POPC   GL153005  37.747  43.012   5.844
 4157POPC   GL253006  37.807  43.347   5.822
 4157POPC   C1A53007  37.626  43.162   6.271
 4157POPC   D2A53008  37.542  43.353   6.678
 4157POPC   C3A53009  37.687  43.098   7.015
 4157POPC   C4A53010  37.694  43.001   7.463
 4157POPC   C1B53011  38.040  43.445   6.162
 4157POPC   C2B53012  38.078  43.253   6.544
 4157POPC   C3B53013  38.049  43.459   6.907
 4157POPC   C4B53014  38.057  43.552   7.318
 4158POPC   NC353015  14.986  22.490   5.397
 4158POPC   PO453016  15.462  22.067   5.377
 4158POPC   GL153017  15.169  21.978   5.746
 4158POPC   GL253018  14.897  22.163   5.763
 4158POPC   C1A53019  15.219  22.028   6.207
 4158POPC   D2A53020  15.058  21.969   6.619
 4158POPC   C3A53021  15.247  22.228   6.957
 4158POPC   C4A53022  15.400  22.280   7.402
 4158POPC   C1B53023  15.013  22.478   6.072
 4158POPC   C2B53024  15.092  22.498   6.503
 4158POPC   C3B53025  14.899  22.602   6.896
 4158POPC   C4B53026  14.922  22.475   7.316
 4159POPC   NC353027  22.440  44.242   5.518
 4159POPC   PO453028  22.392  44.994   5.407
 4159POPC   GL153029  22.313  44.696   5.788
 4159POPC   GL253030  22.005  44.514   5.864
 4159POPC   C1A53031  22.541  44.574   6.189
 4159POPC   D2A53032  22.467  44.757   6.590
 4159POPC   C3A53033  22.259  44.520   6.885
 4159POPC   C4A53034  22.374  44.530   7.292
 4159POPC   C1B53035  22.047  44.511   6.304
 4159POPC   C2B53036  21.844  44.319   6.627
 4159POPC   C3B53037  21.672  44.238   7.001
 4159POPC   C4B53038  21.920  44.297   7.322
 4160POPC   NC353039  10.547  36.773   5.075
 4160POPC   PO453040  10.309  37.282   5.400
 4160POPC   GL153041  10.508  37.227   5.818
 4160POPC   GL253042  10.427  36.874   5.983
 4160POPC   C1A53043  10.472  37.267   6.265
 4160POPC   D2A53044  10.458  36.923   6.596
 4160POPC   C3A53045  10.466  37.049   7.038
 4160POPC   C4A53046  10.461  36.812   7.432
 4160POPC   C1B53047  10.778  36.700   6.235
 4160POPC   C2B53048  10.972  36.697   6.644
 4160POPC   C3B53049  10.784  36.639   7.035
 4160POPC   C4B53050  10.906  36.523   7.425
 4161POPC   NC353051  18.059  30.311   5.418
 4161POPC   PO453052  18.028  29.578   5.492
 4161POPC   GL153053  18.166  29.886   5.790
 4161POPC   GL253054  17.959  30.176   5.895
 4161POPC   C1A53055  18.161  29.814   6.233
 4161POPC   D2A53056  17.842  29.695   6.524
 4161POPC   C3A53057  18.024  29.692   6.932
 4161POPC   C4A53058  18.331  29.689   7.235
 4161POPC   C1B53059  17.947  30.299   6.320
 4161POPC   C2B53060  18.176  30.107   6.659
 4161POPC   C3B53061  18.187  30.166   7.084
 4161POPC   C4B53062  18.490  30.154   7.412
 4162POPC   NC353063  33.192  23.848   5.487
 4162POPC   PO453064  32.591  24.074   5.441
 4162POPC   GL153065  32.823  23.832   5.824
 4162POPC   GL253066  33.060  23.495   5.843
 4162POPC   C1A53067  32.823  23.695   6.263
 4162POPC   D2A53068  33.098  23.902   6.591
 4162POPC   C3A53069  32.974  24.048   6.982
 4162POPC   C4A53070  32.766  23.824   7.297
 4162POPC   C1B53071  33.323  23.662   6.201
 4162POPC   C2B53072  33.547  23.650   6.624
 4162POPC   C3B53073  33.451  23.530   7.060
 4162POPC   C4B53074  33.227  23.711   7.441
 4163POPC   NC353075  40.416  22.285   5.700
 4163POPC   PO453076  41.007  22.116   5.484
 4163POPC   GL153077  40.961  21.947   5.895
 4163POPC   GL253078  40.636  21.836   5.843
 4163POPC   C1A53079  40.983  22.155   6.293
 4163POPC   D2A53080  40.799  22.204   6.724
 4163POPC   C3A53081  40.974  22.008   7.099
 4163POPC   C4A53082  41.226  22.352   7.129
 4163POPC   C1B53083  40.398  21.781   6.219
 4163POPC   C2B53084  40.360  21.975   6.635
 4163POPC   C3B53085  40.477  22.046   7.094
 4163POPC   C4B53086  40.422  21.995   7.562
 4164POPC   NC353087  19.030  28.797   5.408
 4164POPC   PO453088  18.817  29.383   5.416
 4164POPC   GL153089  18.963  29.156   5.789
 4164POPC   GL253090  19.226  28.875   5.880
 4164POPC   C1A53091  19.212  29.301   6.130
 4164POPC   D2A53092  19.377  29.021   6.440
 4164POPC   C3A53093  19.178  29.113   6.829
 4164POPC   C4A53094  19.176  29.381   7.185
 4164POPC   C1B53095  18.861  28.923   6.242
 4164POPC   C2B53096  18.672  28.971   6.691
 4164POPC   C3B53097  18.796  28.843   7.125
 4164POPC   C4B53098  19.240  28.868   7.276
 4165POPC   NC353099  12.981  13.942   5.024
 4165POPC   PO453100  12.833  13.355   5.279
 4165POPC   GL153101  12.803  13.512   5.743
 4165POPC   GL253102  13.047  13.802   5.827
 4165POPC   C1A53103  12.887  13.517   6.210
 4165POPC   D2A53104  12.675  13.536   6.599
 4165POPC   C3A53105  12.905  13.535   6.941
 4165POPC   C4A53106  12.797  13.369   7.290
 4165POPC   C1B53107  13.130  14.003   6.187
 4165POPC   C2B53108  13.114  13.850   6.581
 4165POPC   C3B53109  13.069  14.026   6.980
 4165POPC   C4B53110  13.018  13.885   7.386
 4166POPC   NC353111  40.208  36.576   5.506
 4166POPC   PO453112  39.897  37.187   5.431
 4166POPC   GL153113  39.880  36.896   5.781
 4166POPC   GL253114  40.188  37.006   5.864
 4166POPC   C1A53115  39.772  36.957   6.229
 4166POPC   D2A53116  39.727  37.121   6.671
 4166POPC   C3A53117  39.892  36.869   7.023
 4166POPC   C4A53118  40.162  37.015   7.367
 4166POPC   C1B53119  40.177  36.645   6.149
 4166POPC   C2B53120  40.218  36.574   6.590
 4166POPC   C3B53121  40.341  36.561   7.008
 4166POPC   C4B53122  40.085  36.501   7.337
 4167POPC   NC353123  32.821  27.056   5.600
 4167POPC   PO453124  33.259  26.598   5.383
 4167POPC   GL153125  33.044  26.649   5.799
 4167POPC   GL253126  33.285  26.919   5.787
 4167POPC   C1A53127  32.829  26.820   6.240
 4167POPC   D2A53128  32.740  26.977   6.701
 4167POPC   C3A53129  32.770  26.765   7.135
 4167POPC   C4A53130  32.685  26.805   7.639
 4167POPC   C1B53131  33.336  26.794   6.200
 4167POPC   C2B53132  33.352  27.010   6.594
 4167POPC   C3B53133  33.181  27.044   6.998
 4167POPC   C4B53134  33.098  27.014   7.452
 4168POPC   NC353135  33.621   6.516   5.234
 4168POPC   PO453136  34.064   6.924   5.426
 4168POPC   GL153137  33.878   6.676   5.771
 4168POPC   GL253138  33.509   6.576   5.729
 4168POPC   C1A53139  34.002   6.749   6.213
 4168POPC   D2A53140  33.790   6.829   6.590
 4168POPC   C3A53141  33.852   6.623   6.960
 4168POPC   C4A53142  33.575   6.631   7.288
 4168POPC   C1B53143  33.555   6.549   6.168
 4168POPC   C2B53144  33.587   6.360   6.552
 4168POPC   C3B53145  33.381   6.331   6.926
 4168POPC   C4B53146  33.477   6.115   7.300
 4169POPC   NC353147  20.215  44.831   5.335
 4169POPC   PO453148  19.668  44.675   5.435
 4169POPC   GL153149  20.011  44.700   5.782
 4169POPC   GL253150  20.078   0.068   5.785
 4169POPC   C1A53151  20.175  44.745   6.235
 4169POPC   D2A53152  19.907  44.798   6.636
 4169POPC   C3A53153  19.893  44.593   7.062
 4169POPC   C4A53154  19.613  44.514   7.438
 4169POPC   C1B53155  20.118   0.256   6.188
 4169POPC   C2B53156  20.213   0.190   6.643
 4169POPC   C3B53157  20.252  44.973   7.044
 4169POPC   C4B53158  20.359   0.103   7.457
 4170POPC   NC353159  15.484   9.622   5.609
 4170POPC   PO453160  14.833   9.814   5.412
 4170POPC   GL153161  14.959   9.764   5.837
 4170POPC   GL253162  15.184  10.041   5.823
 4170POPC   C1A53163  15.112   9.768   6.275
 4170POPC   D2A53164  15.361   9.732   6.654
 4170POPC   C3A53165  15.070   9.760   7.018
 4170POPC   C4A53166  15.064   9.516   7.394
 4170POPC   C1B53167  15.502  10.061   6.140
 4170POPC   C2B53168  15.554  10.189   6.561
 4170POPC   C3B53169  15.519  10.095   6.981
 4170POPC   C4B53170  15.187  10.252   7.205
 4171POPC   NC353171  20.230  35.185   5.463
 4171POPC   PO453172  20.913  35.201   5.459
 4171POPC   GL153173  20.843  35.110   5.856
 4171POPC   GL253174  20.534  34.936   5.826
 4171POPC   C1A53175  20.909  35.364   6.229
 4171POPC   D2A53176  20.678  35.281   6.570
 4171POPC   C3A53177  20.486  35.368   6.879
 4171POPC   C4A53178  20.701  35.419   7.206
 4171POPC   C1B53179  20.395  35.249   6.145
 4171POPC   C2B53180  20.154  35.197   6.532
 4171POPC   C3B53181  20.078  35.080   6.951
 4171POPC   C4B53182  20.261  35.206   7.371
 4172POPC   NC353183  32.039  18.800   5.481
 4172POPC   PO453184  31.418  18.993   5.234
 4172POPC   GL153185  31.360  19.172   5.631
 4172POPC   GL253186  31.680  19.041   5.724
 4172POPC   C1A53187  31.407  19.180   6.101
 4172POPC   D2A53188  31.535  18.955   6.496
 4172POPC   C3A53189  31.413  19.129   6.870
 4172POPC   C4A53190  31.339  19.009   7.265
 4172POPC   C1B53191  31.881  18.884   6.126
 4172POPC   C2B53192  32.039  18.762   6.552
 4172POPC   C3B53193  31.830  18.798   6.935
 4172POPC   C4B53194  31.846  18.940   7.340
 4173POPC   NC353195   9.899  34.011   5.394
 4173POPC   PO453196   9.432  33.558   5.469
 4173POPC   GL153197   9.593  33.882   5.781
 4173POPC   GL253198   9.895  33.727   5.883
 4173POPC   C1A53199   9.749  34.089   6.191
 4173POPC   D2A53200   9.979  33.959   6.559
 4173POPC   C3A53201   9.815  33.981   6.960
 4173POPC   C4A53202   9.493  33.760   7.161
 4173POPC   C1B53203  10.070  33.495   6.239
 4173POPC   C2B53204  10.264  33.466   6.649
 4173POPC   C3B53205  10.062  33.470   7.063
 4173POPC   C4B53206   9.869  33.521   7.459
 4174POPC   NC353207   9.943  39.157   5.274
 4174POPC   PO453208   9.572  39.608   5.575
 4174POPC   GL153209   9.716  39.249   5.730
 4174POPC   GL253210  10.034  39.377   5.764
 4174POPC   C1A53211   9.729  39.064   6.134
 4174POPC   D2A53212   9.739  39.257   6.521
 4174POPC   C3A53213   9.679  39.063   6.891
 4174POPC   C4A53214   9.627  39.237   7.255
 4174POPC   C1B53215   9.936  39.529   6.132
 4174POPC   C2B53216  10.124  39.597   6.526
 4174POPC   C3B53217   9.993  39.453   6.911
 4174POPC   C4B53218  10.162  39.413   7.285
 4175POPC   NC353219  35.219   2.312   5.485
 4175POPC   PO453220  35.709   2.688   5.345
 4175POPC   GL153221  35.389   2.784   5.710
 4175POPC   GL253222  35.110   2.585   5.896
 4175POPC   C1A53223  35.311   2.973   6.155
 4175POPC   D2A53224  35.381   3.020   6.603
 4175POPC   C3A53225  35.208   2.814   6.955
 4175POPC   C4A53226  35.334   2.927   7.345
 4175POPC   C1B53227  35.532   2.514   6.116
 4175POPC   C2B53228  35.800   2.410   6.473
 4175POPC   C3B53229  35.787   2.275   6.903
 4175POPC   C4B53230  35.521   2.455   7.279
 4176POPC   NC353231  28.882  20.395   5.358
 4176POPC   PO453232  29.539  20.652   5.450
 4176POPC   GL153233  29.297  20.619   5.849
 4176POPC   GL253234  29.064  20.346   5.845
 4176POPC   C1A53235  29.014  20.742   6.225
 4176POPC   D2A53236  28.994  21.001   6.620
 4176POPC   C3A53237  29.168  20.849   7.004
 4176POPC   C4A53238  29.070  20.869   7.415
 4176POPC   C1B53239  29.109  20.240   6.283
 4176POPC   C2B53240  29.048  20.428   6.693
 4176POPC   C3B53241  28.896  20.441   7.124
 4176POPC   C4B53242  28.800  20.209   7.503
 4177POPC   NC353243  30.189  14.407   5.024
 4177POPC   PO453244  29.691  14.332   5.498
 4177POPC   GL153245  29.920  14.447   5.866
 4177POPC   GL253246  30.026  14.778   5.861
 4177POPC   C1A53247  29.977  14.238   6.271
 4177POPC   D2A53248  29.951  14.435   6.673
 4177POPC   C3A53249  29.691  14.326   7.039
 4177POPC   C4A53250  29.644  14.200   7.500
 4177POPC   C1B53251  30.142  14.723   6.262
 4177POPC   C2B53252  30.291  14.843   6.634
 4177POPC   C3B53253  30.152  14.746   7.027
 4177POPC   C4B53254  30.008  14.537   7.366
 4178POPC   NC353255  34.338   9.778   5.465
 4178POPC   PO453256  34.996   9.591   5.605
 4178POPC   GL153257  34.733   9.540   5.987
 4178POPC   GL253258  34.437   9.758   5.961
 4178POPC   C1A53259  34.663   9.639   6.436
 4178POPC   D2A53260  34.919   9.887   6.741
 4178POPC   C3A53261  34.716   9.781   7.102
 4178POPC   C4A53262  34.819   9.499   7.429
 4178POPC   C1B53263  34.263   9.994   6.313
 4178POPC   C2B53264  34.364   9.995   6.758
 4178POPC   C3B53265  34.224   9.977   7.182
 4178POPC   C4B53266  34.191  10.074   7.622
 4179POPC   NC353267   3.380  27.262   5.413
 4179POPC   PO453268   3.818  26.630   5.404
 4179POPC   GL153269   3.668  26.756   5.783
 4179POPC   GL253270   3.474  26.517   5.903
 4179POPC   C1A53271   3.738  26.876   6.193
 4179POPC   D2A53272   3.581  26.988   6.600
 4179POPC   C3A53273   3.793  26.801   6.958
 4179POPC   C4A53274   3.784  26.882   7.389
 4179POPC   C1B53275   3.321  26.588   6.312
 4179POPC   C2B53276   3.483  26.466   6.698
 4179POPC   C3B53277   3.380  26.204   7.023
 4179POPC   C4B53278   3.318  26.199   7.461
 4180POPC   NC353279  41.206  39.495   5.469
 4180POPC   PO453280  41.689  38.980   5.450
 4180POPC   GL153281  41.606  39.249   5.801
 4180POPC   GL253282  41.271  39.192   5.851
 4180POPC   C1A53283  41.526  39.388   6.237
 4180POPC   D2A53284  41.583  39.431   6.681
 4180POPC   C3A53285  41.778  39.188   6.984
 4180POPC   C4A53286  41.822  39.366   7.404
 4180POPC   C1B53287  41.217  38.953   6.196
 4180POPC   C2B53288  41.380  38.961   6.574
 4180POPC   C3B53289  41.245  39.012   6.945
 4180POPC   C4B53290  41.355  39.320   7.197
 4181POPC   NC353291  42.158   0.673   5.364
 4181POPC   PO453292  42.537   0.099   5.448
 4181POPC   GL153293  42.191   0.242   5.724
 4181POPC   GL253294  42.412   0.509   5.770
 4181POPC   C1A53295  42.082   0.476   6.146
 4181POPC   D2A53296  42.162   0.726   6.548
 4181POPC   C3A53297  42.144   0.488   6.963
 4181POPC   C4A53298  42.188   0.502   7.464
 4181POPC   C1B53299  42.594   0.664   6.128
 4181POPC   C2B53300  42.676   0.815   6.544
 4181POPC   C3B53301  42.509   0.851   6.939
 4181POPC   C4B53302  42.611   0.492   7.189
 4182POPC   NC353303   2.897  20.233   5.523
 4182POPC   PO453304   2.458  19.706   5.468
 4182POPC   GL153305   2.597  19.890   5.786
 4182POPC   GL253306   2.938  19.754   5.779
 4182POPC   C1A53307   2.681  19.925   6.198
 4182POPC   D2A53308   2.798  19.703   6.563
 4182POPC   C3A53309   2.678  19.883   6.949
 4182POPC   C4A53310   2.582  19.632   7.313
 4182POPC   C1B53311   3.178  19.735   6.192
 4182POPC   C2B53312   3.294  19.729   6.647
 4182POPC   C3B53313   3.196  19.933   7.036
 4182POPC   C4B53314   3.120  19.768   7.439
 4183POPC   NC353315  20.728   7.447   5.228
 4183POPC   PO453316  20.688   8.117   5.519
 4183POPC   GL153317  20.638   7.697   5.701
 4183POPC   GL253318  20.863   7.365   5.716
 4183POPC   C1A53319  20.596   7.520   6.125
 4183POPC   D2A53320  20.419   7.522   6.544
 4183POPC   C3A53321  20.758   7.569   6.840
 4183POPC   C4A53322  20.711   7.396   7.228
 4183POPC   C1B53323  20.786   7.031   6.082
 4183POPC   C2B53324  20.611   6.986   6.537
 4183POPC   C3B53325  20.489   7.002   7.002
 4183POPC   C4B53326  20.674   6.928   7.429
 4184POPC   NC353327  17.968   3.642   5.412
 4184POPC   PO453328  18.517   3.943   5.239
 4184POPC   GL153329  18.296   3.897   5.709
 4184POPC   GL253330  18.224   3.514   5.872
 4184POPC   C1A53331  18.013   3.863   6.123
 4184POPC   D2A53332  18.033   3.442   6.367
 4184POPC   C3A53333  18.214   3.425   6.809
 4184POPC   C4A53334  18.210   3.369   7.283
 4184POPC   C1B53335  18.535   3.447   6.266
 4184POPC   C2B53336  18.864   3.297   6.546
 4184POPC   C3B53337  18.721   3.371   6.982
 4184POPC   C4B53338  18.663   3.670   7.320
 4185POPC   NC353339  26.131   9.998   5.185
 4185POPC   PO453340  25.645   9.652   5.544
 4185POPC   GL153341  26.022   9.606   5.810
 4185POPC   GL253342  26.234   9.296   5.744
 4185POPC   C1A53343  26.061   9.874   6.210
 4185POPC   D2A53344  26.285  10.004   6.595
 4185POPC   C3A53345  26.007  10.012   6.923
 4185POPC   C4A53346  25.825   9.912   7.338
 4185POPC   C1B53347  26.198   9.370   6.225
 4185POPC   C2B53348  26.142   9.517   6.633
 4185POPC   C3B53349  26.410   9.661   6.973
 4185POPC   C4B53350  26.414   9.458   7.392
 4186POPC   NC353351  15.162  27.812   5.432
 4186POPC   PO453352  14.805  27.292   5.375
 4186POPC   GL153353  14.900  27.525   5.763
 4186POPC   GL253354  14.771  27.910   5.739
 4186POPC   C1A53355  15.145  27.412   6.144
 4186POPC   D2A53356  15.468  27.487   6.445
 4186POPC   C3A53357  15.350  27.342   6.844
 4186POPC   C4A53358  15.320  27.507   7.271
 4186POPC   C1B53359  15.056  27.927   6.097
 4186POPC   C2B53360  15.276  27.978   6.481
 4186POPC   C3B53361  15.241  27.920   6.923
 4186POPC   C4B53362  15.083  27.965   7.341
 4187POPC   NC353363  19.301  26.843   5.408
 4187POPC   PO453364  18.648  26.950   5.269
 4187POPC   GL153365  18.883  27.003   5.687
 4187POPC   GL253366  19.034  26.666   5.811
 4187POPC   C1A53367  18.948  27.011   6.164
 4187POPC   D2A53368  19.198  26.940   6.531
 4187POPC   C3A53369  19.035  26.699   6.879
 4187POPC   C4A53370  18.791  26.845   7.223
 4187POPC   C1B53371  19.399  26.689   6.138
 4187POPC   C2B53372  19.430  26.472   6.537
 4187POPC   C3B53373  19.537  26.634   6.934
 4187POPC   C4B53374  19.387  26.423   7.273
 4188POPC   NC353375  19.489  17.246   5.397
 4188POPC   PO453376  19.901  17.690   5.382
 4188POPC   GL153377  19.813  17.464   5.767
 4188POPC   GL253378  19.912  17.120   5.714
 4188POPC   C1A53379  19.933  17.399   6.221
 4188POPC   D2A53380  20.080  17.584   6.647
 4188POPC   C3A53381  19.797  17.653   6.995
 4188POPC   C4A53382  20.066  17.551   7.351
 4188POPC   C1B53383  19.582  17.056   6.044
 4188POPC   C2B53384  19.678  17.023   6.475
 4188POPC   C3B53385  19.765  17.177   6.852
 4188POPC   C4B53386  19.630  17.252   7.262
 4189POPC   NC353387  19.506  12.754   5.189
 4189POPC   PO453388  20.124  12.872   5.421
 4189POPC   GL153389  19.959  12.798   5.879
 4189POPC   GL253390  19.790  13.109   6.038
 4189POPC   C1A53391  19.916  12.710   6.345
 4189POPC   D2A53392  19.701  12.890   6.723
 4189POPC   C3A53393  19.760  12.672   7.111
 4189POPC   C4A53394  19.548  12.638   7.513
 4189POPC   C1B53395  20.201  13.116   6.194
 4189POPC   C2B53396  20.238  13.021   6.632
 4189POPC   C3B53397  20.087  13.085   7.043
 4189POPC   C4B53398  19.721  13.273   7.180
 4190POPC   NC353399   2.102  37.805   5.275
 4190POPC   PO453400   2.162  37.301   5.671
 4190POPC   GL153401   2.051  37.700   5.868
 4190POPC   GL253402   1.688  37.832   5.848
 4190POPC   C1A53403   2.109  37.593   6.312
 4190POPC   D2A53404   2.266  37.500   6.714
 4190POPC   C3A53405   2.035  37.596   7.020
 4190POPC   C4A53406   2.085  37.623   7.413
 4190POPC   C1B53407   1.840  38.009   6.254
 4190POPC   C2B53408   1.746  37.827   6.668
 4190POPC   C3B53409   1.602  37.852   7.121
 4190POPC   C4B53410   1.701  37.872   7.590
 4191POPC   NC353411  32.190  16.263   5.340
 4191POPC   PO453412  32.480  15.649   5.419
 4191POPC   GL153413  32.265  15.921   5.777
 4191POPC   GL253414  32.280  16.288   5.828
 4191POPC   C1A53415  32.172  15.980   6.261
 4191POPC   D2A53416  32.045  15.620   6.556
 4191POPC   C3A53417  32.188  15.579   6.939
 4191POPC   C4A53418  32.395  15.845   7.185
 4191POPC   C1B53419  32.072  16.500   6.149
 4191POPC   C2B53420  31.977  16.404   6.560
 4191POPC   C3B53421  32.030  16.058   6.807
 4191POPC   C4B53422  31.990  16.131   7.271
 4192POPC   NC353423  14.961  35.011   5.129
 4192POPC   PO453424  15.374  34.523   5.430
 4192POPC   GL153425  15.024  34.503   5.742
 4192POPC   GL253426  15.313  34.608   5.954
 4192POPC   C1A53427  14.845  34.693   6.126
 4192POPC   D2A53428  15.160  34.741   6.444
 4192POPC   C3A53429  15.222  34.704   6.893
 4192POPC   C4A53430  15.077  34.628   7.318
 4192POPC   C1B53431  15.540  34.424   6.275
 4192POPC   C2B53432  15.689  34.590   6.646
 4192POPC   C3B53433  15.662  34.467   7.075
 4192POPC   C4B53434  15.568  34.766   7.390
 4193POPC   NC353435  39.483  23.060   5.405
 4193POPC   PO453436  39.096  22.515   5.527
 4193POPC   GL153437  39.212  22.857   5.813
 4193POPC   GL253438  38.915  23.095   5.911
 4193POPC   C1A53439  39.476  22.713   6.197
 4193POPC   D2A53440  39.406  22.411   6.567
 4193POPC   C3A53441  39.289  22.593   6.963
 4193POPC   C4A53442  39.431  22.972   7.181
 4193POPC   C1B53443  38.955  23.285   6.345
 4193POPC   C2B53444  39.151  23.304   6.782
 4193POPC   C3B53445  39.526  23.429   7.031
 4193POPC   C4B53446  39.626  23.356   7.507
 4194POPC   NC353447  29.661   9.934   5.276
 4194POPC   PO453448  30.255   9.661   5.329
 4194POPC   GL153449  30.099   9.895   5.691
 4194POPC   GL253450  29.781   9.710   5.723
 4194POPC   C1A53451  29.912  10.005   6.110
 4194POPC   D2A53452  29.785   9.734   6.445
 4194POPC   C3A53453  29.943   9.827   6.844
 4194POPC   C4A53454  29.783   9.838   7.227
 4194POPC   C1B53455  29.587   9.442   6.035
 4194POPC   C2B53456  29.558   9.279   6.482
 4194POPC   C3B53457  29.677   9.338   6.925
 4194POPC   C4B53458  29.582   9.362   7.373
 4195POPC   NC353459  29.674  15.764   5.456
 4195POPC   PO453460  29.971  16.347   5.434
 4195POPC   GL153461  30.120  16.082   5.813
 4195POPC   GL253462  29.978  15.765   5.869
 4195POPC   C1A53463  30.240  15.967   6.240
 4195POPC   D2A53464  29.977  15.721   6.479
 4195POPC   C3A53465  29.981  15.844   6.906
 4195POPC   C4A53466  30.251  15.953   7.253
 4195POPC   C1B53467  29.720  16.016   6.140
 4195POPC   C2B53468  29.507  15.941   6.553
 4195POPC   C3B53469  29.466  15.927   7.007
 4195POPC   C4B53470  29.577  16.146   7.400
 4196POPC   NC353471  43.943  41.588   5.456
 4196POPC   PO453472  43.514  41.102   5.727
 4196POPC   GL153473  43.759  41.389   5.967
 4196POPC   GL253474  44.076  41.259   5.850
 4196POPC   C1A53475  43.740  41.744   6.300
 4196POPC   D2A53476  43.747  41.877   6.752
 4196POPC   C3A53477  43.777  41.527   6.975
 4196POPC   C4A53478  43.676  41.302   7.335
 4196POPC   C1B53479  44.181  41.467   6.243
 4196POPC   C2B53480  44.200  41.762   6.562
 4196POPC   C3B53481  44.269  41.757   7.007
 4196POPC   C4B53482  44.171  41.418   7.289
 4197POPC   NC353483  28.637  41.499   5.475
 4197POPC   PO453484  28.147  41.040   5.511
 4197POPC   GL153485  28.282  41.330   5.853
 4197POPC   GL253486  28.255  41.705   5.799
 4197POPC   C1A53487  28.122  41.527   6.260
 4197POPC   D2A53488  27.967  41.419   6.666
 4197POPC   C3A53489  28.136  41.466   7.069
 4197POPC   C4A53490  28.565  41.454   7.226
 4197POPC   C1B53491  28.610  41.668   6.099
 4197POPC   C2B53492  28.599  41.531   6.507
 4197POPC   C3B53493  28.414  41.791   6.821
 4197POPC   C4B53494  28.189  41.953   7.199
 4198POPC   NC353495  39.813  18.013   5.463
 4198POPC   PO453496  40.429  18.394   5.527
 4198POPC   GL153497  40.058  18.380   5.771
 4198POPC   GL253498  40.226  18.103   5.967
 4198POPC   C1A53499  39.982  18.498   6.193
 4198POPC   D2A53500  40.305  18.524   6.514
 4198POPC   C3A53501  40.179  18.416   6.904
 4198POPC   C4A53502  39.875  18.598   7.157
 4198POPC   C1B53503  39.849  17.992   6.222
 4198POPC   C2B53504  39.737  18.042   6.681
 4198POPC   C3B53505  39.918  18.045   7.130
 4198POPC   C4B53506  40.299  18.168   7.370
 4199POPC   NC353507  16.035  23.997   5.269
 4199POPC   PO453508  15.681  23.564   5.612
 4199POPC   GL153509  15.850  23.795   5.933
 4199POPC   GL253510  16.084  24.074   5.908
 4199POPC   C1A53511  16.060  23.577   6.253
 4199POPC   D2A53512  16.096  23.329   6.628
 4199POPC   C3A53513  15.767  23.481   6.904
 4199POPC   C4A53514  15.772  23.642   7.302
 4199POPC   C1B53515  15.969  24.085   6.355
 4199POPC   C2B53516  15.951  23.975   6.816
 4199POPC   C3B53517  16.211  23.834   7.164
 4199POPC   C4B53518  16.234  23.914   7.601
 4200POPC   NC353519  30.600  34.899   5.431
 4200POPC   PO453520  31.093  34.449   5.314
 4200POPC   GL153521  30.809  34.552   5.745
 4200POPC   GL253522  30.419  34.570   5.786
 4200POPC   C1A53523  30.803  34.327   6.176
 4200POPC   D2A53524  31.072  34.309   6.561
 4200POPC   C3A53525  30.850  34.390   6.970
 4200POPC   C4A53526  30.704  34.413   7.432
 4200POPC   C1B53527  30.565  34.789   6.186
 4200POPC   C2B53528  30.699  34.799   6.648
 4200POPC   C3B53529  30.521  34.767   7.092
 4200POPC   C4B53530  30.383  34.805   7.539
 4201POPC   NC353531   0.620   7.475   5.320
 4201POPC   PO453532   0.082   7.044   5.296
 4201POPC   GL153533   0.384   7.151   5.675
 4201POPC   GL253534   0.189   7.407   5.829
 4201POPC   C1A53535   0.555   7.204   6.135
 4201POPC   D2A53536   0.485   7.433   6.521
 4201POPC   C3A53537   0.608   7.256   6.905
 4201POPC   C4A53538   0.548   7.302   7.355
 4201POPC   C1B53539   0.220   7.715   6.169
 4201POPC   C2B53540   0.343   7.944   6.546
 4201POPC   C3B53541   0.466   7.769   6.940
 4201POPC   C4B53542   0.165   7.468   7.088
 4202POPC   NC353543  44.914   3.840   5.074
 4202POPC   PO453544   0.325   3.418   5.458
 4202POPC   GL153545   0.504   3.513   5.868
 4202POPC   GL253546   0.661   3.833   5.764
 4202POPC   C1A53547   0.579   3.440   6.335
 4202POPC   D2A53548   0.275   3.378   6.689
 4202POPC   C3A53549   0.302   3.256   7.114
 4202POPC   C4A53550   0.560   3.611   7.299
 4202POPC   C1B53551   0.473   3.948   6.153
 4202POPC   C2B53552   0.261   3.911   6.519
 4202POPC   C3B53553   0.411   3.942   6.918
 4202POPC   C4B53554   0.124   3.733   7.101
 4203POPC   NC353555   0.133   4.622   5.587
 4203POPC   PO453556   0.282   5.137   5.179
 4203POPC   GL153557   0.338   5.072   5.697
 4203POPC   GL253558   0.089   4.924   5.974
 4203POPC   C1A53559   0.569   5.117   6.115
 4203POPC   D2A53560   0.550   5.478   6.422
 4203POPC   C3A53561   0.502   5.307   6.855
 4203POPC   C4A53562   0.635   5.234   7.295
 4203POPC   C1B53563   0.199   4.869   6.414
 4203POPC   C2B53564   0.608   4.812   6.566
 4203POPC   C3B53565   0.738   4.852   6.979
 4203POPC   C4B53566   0.315   4.864   7.193
 4204POPC   NC353567   4.768  37.905   5.404
 4204POPC   PO453568   4.146  37.936   5.306
 4204POPC   GL153569   4.200  38.025   5.748
 4204POPC   GL253570   4.554  38.078   5.870
 4204POPC   C1A53571   4.017  37.878   6.149
 4204POPC   D2A53572   4.218  37.753   6.545
 4204POPC   C3A53573   4.014  37.822   6.909
 4204POPC   C4A53574   4.185  37.702   7.265
 4204POPC   C1B53575   4.501  37.679   6.129
 4204POPC   C2B53576   4.508  37.329   6.490
 4204POPC   C3B53577   4.498  37.221   6.950
 4204POPC   C4B53578   4.698  37.383   7.317
 4205POPC   NC353579  27.728  26.809   5.677
 4205POPC   PO453580  28.169  26.970   5.247
 4205POPC   GL153581  28.391  26.803   5.626
 4205POPC   GL253582  28.161  26.841   5.932
 4205POPC   C1A53583  28.563  26.586   6.035
 4205POPC   D2A53584  28.705  26.498   6.472
 4205POPC   C3A53585  28.564  26.782   6.817
 4205POPC   C4A53586  28.468  26.559   7.187
 4205POPC   C1B53587  28.239  26.787   6.408
 4205POPC   C2B53588  28.053  26.710   6.840
 4205POPC   C3B53589  27.983  26.541   7.251
 4205POPC   C4B53590  28.111  26.736   7.666
 4206POPC   NC353591  38.495   9.055   5.430
 4206POPC   PO453592  38.094   8.580   5.442
 4206POPC   GL153593  38.294   8.835   5.831
 4206POPC   GL253594  38.648   8.740   5.827
 4206POPC   C1A53595  38.434   8.767   6.289
 4206POPC   D2A53596  38.269   8.675   6.699
 4206POPC   C3A53597  38.481   8.926   7.000
 4206POPC   C4A53598  38.512   9.358   7.135
 4206POPC   C1B53599  38.940   8.634   6.228
 4206POPC   C2B53600  38.795   8.688   6.668
 4206POPC   C3B53601  38.946   8.698   7.129
 4206POPC   C4B53602  39.207   8.970   7.444
 4207POPC   NC353603   6.311  42.456   5.575
 4207POPC   PO453604   6.601  42.026   5.191
 4207POPC   GL153605   6.606  42.010   5.699
 4207POPC   GL253606   6.667  42.332   5.920
 4207POPC   C1A53607   6.494  41.958   6.175
 4207POPC   D2A53608   6.771  42.171   6.496
 4207POPC   C3A53609   6.615  42.196   6.942
 4207POPC   C4A53610   6.762  42.498   7.236
 4207POPC   C1B53611   6.334  42.451   6.219
 4207POPC   C2B53612   6.439  42.561   6.609
 4207POPC   C3B53613   6.711  42.820   6.823
 4207POPC   C4B53614   6.386  42.797   7.108
 4208POPC   NC353615  13.118  14.933   5.029
 4208POPC   PO453616  12.575  15.202   5.412
 4208POPC   GL153617  12.674  15.130   5.842
 4208POPC   GL253618  12.980  14.999   5.795
 4208POPC   C1A53619  12.815  15.263   6.254
 4208POPC   D2A53620  12.642  15.232   6.664
 4208POPC   C3A53621  12.909  15.250   7.002
 4208POPC   C4A53622  13.103  15.657   7.133
 4208POPC   C1B53623  13.053  14.804   6.188
 4208POPC   C2B53624  13.097  14.942   6.604
 4208POPC   C3B53625  13.355  14.913   6.952
 4208POPC   C4B53626  13.305  14.722   7.325
 4209POPC   NC353627  43.090  41.195   5.600
 4209POPC   PO453628  42.872  41.836   5.504
 4209POPC   GL153629  43.072  41.907   5.910
 4209POPC   GL253630  43.414  41.765   5.828
 4209POPC   C1A53631  42.930  41.834   6.377
 4209POPC   D2A53632  42.886  41.765   6.838
 4209POPC   C3A53633  43.087  41.397   7.125
 4209POPC   C4A53634  42.995  41.395   7.591
 4209POPC   C1B53635  43.300  41.513   6.216
 4209POPC   C2B53636  43.340  41.579   6.672
 4209POPC   C3B53637  43.353  41.825   7.075
 4209POPC   C4B53638  43.411  41.695   7.516
 4210POPC   NC353639  24.960  35.881   5.414
 4210POPC   PO453640  25.461  36.260   5.566
 4210POPC   GL153641  25.315  35.961   5.863
 4210POPC   GL253642  25.437  35.622   5.780
 4210POPC   C1A53643  25.235  36.082   6.308
 4210POPC   D2A53644  25.003  36.332   6.614
 4210POPC   C3A53645  25.156  36.369   7.035
 4210POPC   C4A53646  25.004  36.133   7.325
 4210POPC   C1B53647  25.369  35.585   6.259
 4210POPC   C2B53648  25.519  35.725   6.690
 4210POPC   C3B53649  25.478  35.793   7.166
 4210POPC   C4B53650  25.430  35.645   7.637
 4211POPC   NC353651   1.293  40.158   5.567
 4211POPC   PO453652   0.909  39.636   5.297
 4211POPC   GL153653   0.846  39.834   5.739
 4211POPC   GL253654   1.076  40.024   5.982
 4211POPC   C1A53655   0.738  39.753   6.205
 4211POPC   D2A53656   1.096  39.916   6.482
 4211POPC   C3A53657   1.023  40.007   6.891
 4211POPC   C4A53658   0.961  39.724   7.201
 4211POPC   C1B53659   1.514  40.013   6.189
 4211POPC   C2B53660   1.644  40.027   6.616
 4211POPC   C3B53661   1.513  39.857   7.021
 4211POPC   C4B53662   1.322  39.934   7.468
 4212POPC   NC353663  10.628  20.158   5.468
 4212POPC   PO453664  10.401  20.838   5.431
 4212POPC   GL153665  10.469  20.638   5.771
 4212POPC   GL253666  10.825  20.489   5.810
 4212POPC   C1A53667  10.303  20.828   6.149
 4212POPC   D2A53668  10.203  20.675   6.542
 4212POPC   C3A53669  10.078  20.911   6.835
 4212POPC   C4A53670  10.270  20.909   7.216
 4212POPC   C1B53671  10.547  20.387   6.191
 4212POPC   C2B53672  10.502  20.263   6.606
 4212POPC   C3B53673  10.387  20.387   7.014
 4212POPC   C4B53674  10.388  20.337   7.462
 4213POPC   NC353675   9.686  38.241   5.581
 4213POPC   PO453676   9.626  38.804   5.244
 4213POPC   GL153677   9.726  38.726   5.730
 4213POPC   GL253678  10.043  38.479   5.816
 4213POPC   C1A53679   9.745  38.566   6.193
 4213POPC   D2A53680   9.800  38.708   6.564
 4213POPC   C3A53681   9.449  38.592   6.825
 4213POPC   C4A53682   9.550  38.692   7.235
 4213POPC   C1B53683  10.025  38.136   6.161
 4213POPC   C2B53684   9.784  38.161   6.556
 4213POPC   C3B53685   9.871  38.332   6.970
 4213POPC   C4B53686  10.127  38.298   7.324
 4214POPC   NC353687  31.868  12.365   5.511
 4214POPC   PO453688  32.070  12.987   5.412
 4214POPC   GL153689  32.062  12.760   5.818
 4214POPC   GL253690  32.349  12.522   5.892
 4214POPC   C1A53691  32.002  12.930   6.233
 4214POPC   D2A53692  31.774  13.136   6.541
 4214POPC   C3A53693  31.896  12.969   6.906
 4214POPC   C4A53694  32.188  13.056   7.191
 4214POPC   C1B53695  32.463  12.719   6.267
 4214POPC   C2B53696  32.311  12.761   6.677
 4214POPC   C3B53697  32.387  12.590   7.068
 4214POPC   C4B53698  32.671  12.896   7.228
 4215POPC   NC353699  42.052   8.250   5.473
 4215POPC   PO453700  42.566   7.883   5.442
 4215POPC   GL153701  42.382   8.067   5.839
 4215POPC   GL253702  42.296   8.416   5.923
 4215POPC   C1A53703  42.567   7.916   6.226
 4215POPC   D2A53704  42.716   8.071   6.587
 4215POPC   C3A53705  42.521   7.981   6.964
 4215POPC   C4A53706  42.625   8.225   7.352
 4215POPC   C1B53707  42.339   8.346   6.366
 4215POPC   C2B53708  42.118   8.206   6.700
 4215POPC   C3B53709  42.124   8.256   7.116
 4215POPC   C4B53710  41.897   8.037   7.387
 4216POPC   NC353711   9.832  44.195   5.311
 4216POPC   PO453712   9.780  43.526   5.168
 4216POPC   GL153713   9.772  43.650   5.643
 4216POPC   GL253714   9.663  43.955   5.716
 4216POPC   C1A53715   9.835  43.653   6.128
 4216POPC   D2A53716   9.702  43.703   6.563
 4216POPC   C3A53717   9.972  43.801   6.955
 4216POPC   C4A53718   9.914  44.145   7.280
 4216POPC   C1B53719   9.859  44.158   6.047
 4216POPC   C2B53720   9.767  44.223   6.489
 4216POPC   C3B53721   9.548  44.100   6.871
 4216POPC   C4B53722   9.255  43.891   7.134
 4217POPC   NC353723   6.575  34.116   5.266
 4217POPC   PO453724   6.334  34.793   5.316
 4217POPC   GL153725   6.481  34.649   5.740
 4217POPC   GL253726   6.828  34.551   5.641
 4217POPC   C1A53727   6.514  34.675   6.233
 4217POPC   D2A53728   6.794  34.576   6.610
 4217POPC   C3A53729   6.675  34.721   7.038
 4217POPC   C4A53730   6.801  34.724   7.474
 4217POPC   C1B53731   6.929  34.404   6.082
 4217POPC   C2B53732   7.072  34.162   6.426
 4217POPC   C3B53733   6.970  34.112   6.855
 4217POPC   C4B53734   7.015  34.346   7.207
 4218POPC   NC353735  10.361  30.013   5.411
 4218POPC   PO453736  10.837  30.283   5.727
 4218POPC   GL153737  10.600  30.016   5.921
 4218POPC   GL253738  10.872  29.793   5.967
 4218POPC   C1A53739  10.589  30.047   6.368
 4218POPC   D2A53740  10.559  30.254   6.765
 4218POPC   C3A53741  10.421  29.965   7.063
 4218POPC   C4A53742  10.040  29.894   7.315
 4218POPC   C1B53743  11.100  29.992   6.310
 4218POPC   C2B53744  10.998  30.020   6.737
 4218POPC   C3B53745  10.934  30.248   7.152
 4218POPC   C4B53746  10.876  30.418   7.606
 4219POPC   NC353747  17.587  23.306   5.448
 4219POPC   PO453748  17.359  23.843   5.309
 4219POPC   GL153749  17.547  23.752   5.727
 4219POPC   GL253750  17.423  23.436   5.918
 4219POPC   C1A53751  17.561  23.929   6.145
 4219POPC   D2A53752  17.357  24.002   6.525
 4219POPC   C3A53753  17.513  24.030   6.905
 4219POPC   C4A53754  17.544  23.711   7.221
 4219POPC   C1B53755  17.421  23.479   6.390
 4219POPC   C2B53756  17.747  23.630   6.672
 4219POPC   C3B53757  17.942  23.444   7.038
 4219POPC   C4B53758  17.912  23.504   7.506
 4220POPC   NC353759  32.179  18.176   5.215
 4220POPC   PO453760  31.770  18.457   5.629
 4220POPC   GL153761  32.174  18.426   5.827
 4220POPC   GL253762  32.519  18.338   5.659
 4220POPC   C1A53763  32.153  18.345   6.265
 4220POPC   D2A53764  32.224  18.084   6.626
 4220POPC   C3A53765  31.944  18.263   6.919
 4220POPC   C4A53766  32.059  18.457   7.272
 4220POPC   C1B53767  32.640  18.351   6.096
 4220POPC   C2B53768  32.580  18.477   6.530
 4220POPC   C3B53769  32.451  18.457   6.936
 4220POPC   C4B53770  32.625  18.191   7.222
 4221POPC   NC353771   5.704  16.462   5.499
 4221POPC   PO453772   5.369  17.069   5.518
 4221POPC   GL153773   5.662  16.872   5.839
 4221POPC   GL253774   6.037  16.830   5.862
 4221POPC   C1A53775   5.760  16.993   6.256
 4221POPC   D2A53776   5.492  17.040   6.585
 4221POPC   C3A53777   5.672  16.974   6.989
 4221POPC   C4A53778   5.805  16.768   7.375
 4221POPC   C1B53779   6.183  16.615   6.269
 4221POPC   C2B53780   6.309  16.402   6.675
 4221POPC   C3B53781   6.130  16.380   7.096
 4221POPC   C4B53782   6.258  16.417   7.596
 4222POPC   NC353783  43.550  43.321   5.445
 4222POPC   PO453784  44.227  43.056   5.421
 4222POPC   GL153785  43.868  43.026   5.730
 4222POPC   GL253786  43.831  43.388   5.881
 4222POPC   C1A53787  43.637  42.995   6.132
 4222POPC   D2A53788  43.823  43.149   6.519
 4222POPC   C3A53789  43.569  43.052   6.883
 4222POPC   C4A53790  43.624  43.212   7.286
 4222POPC   C1B53791  44.081  43.561   6.237
 4222POPC   C2B53792  44.164  43.526   6.690
 4222POPC   C3B53793  44.063  43.206   7.020
 4222POPC   C4B53794  44.056  43.056   7.489
 4223POPC   NC353795   1.641   9.984   5.434
 4223POPC   PO453796   2.053   9.596   5.054
 4223POPC   GL153797   2.184   9.746   5.566
 4223POPC   GL253798   1.917   9.730   5.819
 4223POPC   C1A53799   2.288   9.993   6.023
 4223POPC   D2A53800   2.358  10.180   6.482
 4223POPC   C3A53801   2.254   9.913   6.878
 4223POPC   C4A53802   2.163   9.604   7.205
 4223POPC   C1B53803   1.692  10.080   6.083
 4223POPC   C2B53804   1.647  10.299   6.495
 4223POPC   C3B53805   1.767  10.197   6.932
 4223POPC   C4B53806   1.742   9.888   7.278
 4224POPC   NC353807  25.103  40.528   5.422
 4224POPC   PO453808  25.469  41.058   5.400
 4224POPC   GL153809  25.306  40.834   5.765
 4224POPC   GL253810  25.482  40.512   5.766
 4224POPC   C1A53811  25.159  40.913   6.161
 4224POPC   D2A53812  25.286  41.072   6.543
 4224POPC   C3A53813  25.176  40.823   6.848
 4224POPC   C4A53814  25.015  40.936   7.213
 4224POPC   C1B53815  25.723  40.526   6.145
 4224POPC   C2B53816  25.773  40.375   6.563
 4224POPC   C3B53817  25.548  40.460   6.915
 4224POPC   C4B53818  25.391  40.604   7.262
 4225POPC   NC353819  39.504  30.691   5.231
 4225POPC   PO453820  40.190  30.594   5.400
 4225POPC   GL153821  40.088  30.658   5.809
 4225POPC   GL253822  40.124  30.293   5.859
 4225POPC   C1A53823  40.177  30.933   6.174
 4225POPC   D2A53824  40.133  30.818   6.586
 4225POPC   C3A53825  40.221  31.045   6.931
 4225POPC   C4A53826  40.173  30.846   7.287
 4225POPC   C1B53827  39.987  30.448   6.255
 4225POPC   C2B53828  39.825  30.410   6.661
 4225POPC   C3B53829  40.080  30.410   7.011
 4225POPC   C4B53830  39.968  30.423   7.466
 4226POPC   NC353831  34.748  29.829   5.477
 4226POPC   PO453832  34.336  30.347   5.682
 4226POPC   GL153833  34.458  29.991   5.965
 4226POPC   GL253834  34.544  29.659   5.913
 4226POPC   C1A53835  34.461  29.880   6.409
 4226POPC   D2A53836  34.341  30.181   6.698
 4226POPC   C3A53837  34.629  30.139   6.998
 4226POPC   C4A53838  34.647  30.091   7.377
 4226POPC   C1B53839  34.838  29.565   6.257
 4226POPC   C2B53840  34.879  29.676   6.717
 4226POPC   C3B53841  34.718  29.621   7.160
 4226POPC   C4B53842  34.718  29.549   7.647
 4227POPC   NC353843  12.275   2.106   5.347
 4227POPC   PO453844  11.736   1.676   5.347
 4227POPC   GL153845  12.008   1.807   5.754
 4227POPC   GL253846  12.147   2.162   5.847
 4227POPC   C1A53847  12.345   1.703   6.115
 4227POPC   D2A53848  12.494   1.793   6.565
 4227POPC   C3A53849  12.235   1.790   6.952
 4227POPC   C4A53850  12.322   1.882   7.394
 4227POPC   C1B53851  12.099   2.090   6.299
 4227POPC   C2B53852  12.123   2.243   6.696
 4227POPC   C3B53853  12.230   2.291   7.098
 4227POPC   C4B53854  12.259   2.366   7.529
 4228POPC   NC353855  30.840  37.232   5.412
 4228POPC   PO453856  30.826  36.494   5.297
 4228POPC   GL153857  30.625  36.800   5.585
 4228POPC   GL253858  30.895  36.929   5.836
 4228POPC   C1A53859  30.433  36.841   6.014
 4228POPC   D2A53860  30.419  37.146   6.364
 4228POPC   C3A53861  30.362  37.041   6.817
 4228POPC   C4A53862  30.575  36.912   7.205
 4228POPC   C1B53863  31.090  36.946   6.247
 4228POPC   C2B53864  30.862  37.006   6.637
 4228POPC   C3B53865  31.069  36.922   7.011
 4228POPC   C4B53866  31.076  37.039   7.442
 4229POPC   NC353867  41.774  16.693   5.439
 4229POPC   PO453868  41.075  16.764   5.476
 4229POPC   GL153869  41.417  16.865   5.801
 4229POPC   GL253870  41.267  17.089   6.076
 4229POPC   C1A53871  41.597  16.679   6.155
 4229POPC   D2A53872  41.360  16.474   6.470
 4229POPC   C3A53873  41.525  16.529   6.881
 4229POPC   C4A53874  41.426  16.522   7.255
 4229POPC   C1B53875  41.708  17.167   6.245
 4229POPC   C2B53876  41.781  16.945   6.655
 4229POPC   C3B53877  41.710  16.992   7.127
 4229POPC   C4B53878  41.967  16.814   7.456
 4230POPC   NC353879  38.502   6.177   5.426
 4230POPC   PO453880  38.276   6.852   5.449
 4230POPC   GL153881  38.231   6.633   5.842
 4230POPC   GL253882  38.283   6.271   5.874
 4230POPC   C1A53883  38.382   6.648   6.272
 4230POPC   D2A53884  38.618   6.671   6.658
 4230POPC   C3A53885  38.379   6.737   7.013
 4230POPC   C4A53886  38.449   6.784   7.445
 4230POPC   C1B53887  38.555   6.185   6.225
 4230POPC   C2B53888  38.441   6.179   6.642
 4230POPC   C3B53889  38.617   6.289   7.035
 4230POPC   C4B53890  38.356   6.294   7.425
 4231POPC   NC353891  22.926  35.614   5.361
 4231POPC   PO453892  23.448  35.212   5.364
 4231POPC   GL153893  23.311  35.257   5.817
 4231POPC   GL253894  22.998  35.462   5.863
 4231POPC   C1A53895  23.157  35.115   6.222
 4231POPC   D2A53896  22.943  35.402   6.482
 4231POPC   C3A53897  23.174  35.444   6.867
 4231POPC   C4A53898  23.175  35.212   7.262
 4231POPC   C1B53899  22.583  35.589   6.057
 4231POPC   C2B53900  22.364  35.512   6.453
 4231POPC   C3B53901  22.473  35.489   6.889
 4231POPC   C4B53902  22.754  35.503   7.247
 4232POPC   NC353903  20.854  34.713   5.483
 4232POPC   PO453904  20.468  34.103   5.486
 4232POPC   GL153905  20.584  34.411   5.825
 4232POPC   GL253906  20.911  34.577   5.973
 4232POPC   C1A53907  20.550  34.387   6.273
 4232POPC   D2A53908  20.397  34.296   6.658
 4232POPC   C3A53909  20.654  34.408   6.979
 4232POPC   C4A53910  20.539  34.239   7.374
 4232POPC   C1B53911  20.731  34.858   6.286
 4232POPC   C2B53912  20.511  34.815   6.673
 4232POPC   C3B53913  20.639  34.920   7.073
 4232POPC   C4B53914  21.085  35.039   7.175
 4233POPC   NC353915  36.410  38.791   5.278
 4233POPC   PO453916  35.926  38.287   5.220
 4233POPC   GL153917  36.079  38.475   5.612
 4233POPC   GL253918  35.779  38.567   5.748
 4233POPC   C1A53919  36.150  38.368   6.083
 4233POPC   D2A53920  35.983  38.197   6.524
 4233POPC   C3A53921  36.164  38.302   6.961
 4233POPC   C4A53922  36.493  38.054   7.205
 4233POPC   C1B53923  35.694  38.559   6.203
 4233POPC   C2B53924  35.866  38.693   6.603
 4233POPC   C3B53925  35.686  38.618   7.008
 4233POPC   C4B53926  35.737  38.338   7.353
 4234POPC   NC353927   8.611   8.488   5.463
 4234POPC   PO453928   9.070   7.924   5.482
 4234POPC   GL153929   8.863   8.066   5.825
 4234POPC   GL253930   8.532   8.066   5.740
 4234POPC   C1A53931   8.963   8.315   6.187
 4234POPC   D2A53932   9.215   8.373   6.551
 4234POPC   C3A53933   9.015   8.219   6.914
 4234POPC   C4A53934   9.169   8.210   7.361
 4234POPC   C1B53935   8.471   8.139   6.160
 4234POPC   C2B53936   8.645   8.064   6.552
 4234POPC   C3B53937   8.474   8.101   6.943
 4234POPC   C4B53938   8.667   8.265   7.289
 4235POPC   NC353939  28.000   5.953   5.410
 4235POPC   PO453940  27.395   5.666   5.342
 4235POPC   GL153941  27.622   5.760   5.707
 4235POPC   GL253942  27.889   5.570   5.780
 4235POPC   C1A53943  27.616   5.949   6.103
 4235POPC   D2A53944  27.825   6.054   6.496
 4235POPC   C3A53945  27.597   5.951   6.891
 4235POPC   C4A53946  27.700   5.928   7.313
 4235POPC   C1B53947  27.938   5.592   6.246
 4235POPC   C2B53948  27.986   5.619   6.709
 4235POPC   C3B53949  27.807   5.498   7.100
 4235POPC   C4B53950  27.887   5.522   7.593
 4236POPC   NC353951   4.520  30.885   5.573
 4236POPC   PO453952   5.153  30.659   5.354
 4236POPC   GL153953   5.055  30.930   5.747
 4236POPC   GL253954   4.845  30.693   5.954
 4236POPC   C1A53955   5.033  31.068   6.222
 4236POPC   D2A53956   4.908  30.775   6.563
 4236POPC   C3A53957   4.799  30.903   6.984
 4236POPC   C4A53958   4.865  30.684   7.375
 4236POPC   C1B53959   5.244  30.573   6.202
 4236POPC   C2B53960   5.393  30.464   6.642
 4236POPC   C3B53961   5.291  30.527   7.101
 4236POPC   C4B53962   5.237  30.398   7.541
 4237POPC   NC353963  27.799  44.722   5.273
 4237POPC   PO453964  27.383  44.274   5.580
 4237POPC   GL153965  27.578  44.592   5.807
 4237POPC   GL253966  27.527  44.929   5.770
 4237POPC   C1A53967  27.422  44.690   6.218
 4237POPC   D2A53968  27.540  44.531   6.605
 4237POPC   C3A53969  27.373  44.727   6.935
 4237POPC   C4A53970  27.253  44.384   7.127
 4237POPC   C1B53971  27.786   0.036   6.202
 4237POPC   C2B53972  27.738  44.997   6.654
 4237POPC   C3B53973  27.837  44.911   7.101
 4237POPC   C4B53974  27.846   0.043   7.531
 4238POPC   NC353975  39.305   6.743   5.612
 4238POPC   PO453976  38.980   6.227   5.486
 4238POPC   GL153977  38.765   6.469   5.824
 4238POPC   GL253978  38.691   6.838   5.810
 4238POPC   C1A53979  38.902   6.616   6.233
 4238POPC   D2A53980  39.103   6.464   6.613
 4238POPC   C3A53981  39.045   6.595   7.006
 4238POPC   C4A53982  39.296   6.890   7.168
 4238POPC   C1B53983  38.673   7.085   6.233
 4238POPC   C2B53984  38.861   7.131   6.651
 4238POPC   C3B53985  38.791   7.027   7.100
 4238POPC   C4B53986  38.926   7.007   7.530
 4239POPC   NC353987  17.447  28.750   5.558
 4239POPC   PO453988  17.603  28.234   5.231
 4239POPC   GL153989  17.564  28.313   5.757
 4239POPC   GL253990  17.802  28.475   5.941
 4239POPC   C1A53991  17.267  28.459   6.106
 4239POPC   D2A53992  17.182  28.478   6.559
 4239POPC   C3A53993  17.391  28.750   6.878
 4239POPC   C4A53994  17.500  28.603   7.320
 4239POPC   C1B53995  17.851  28.709   6.305
 4239POPC   C2B53996  17.771  28.489   6.674
 4239POPC   C3B53997  17.840  28.325   7.070
 4239POPC   C4B53998  17.991  28.484   7.450
 4240POPC   NC353999  15.836  34.481   5.350
 4240POPC   PO454000  16.309  34.876   5.445
 4240POPC   GL154001  16.150  34.550   5.787
 4240POPC   GL254002  15.802  34.367   5.837
 4240POPC   C1A54003  16.032  34.603   6.232
 4240POPC   D2A54004  16.205  34.878   6.545
 4240POPC   C3A54005  16.085  34.764   6.958
 4240POPC   C4A54006  16.066  34.623   7.378
 4240POPC   C1B54007  15.913  34.078   6.199
 4240POPC   C2B54008  15.920  34.091   6.656
 4240POPC   C3B54009  16.108  34.159   7.065
 4240POPC   C4B54010  16.018  34.137   7.519
 4241POPC   NC354011  37.927  42.360   5.424
 4241POPC   PO454012  37.356  42.017   5.611
 4241POPC   GL154013  37.774  42.070   5.848
 4241POPC   GL254014  37.835  42.441   5.904
 4241POPC   C1A54015  37.912  42.137   6.292
 4241POPC   D2A54016  37.641  42.301   6.635
 4241POPC   C3A54017  37.600  42.149   7.047
 4241POPC   C4A54018  37.685  42.162   7.466
 4241POPC   C1B54019  37.723  42.658   6.253
 4241POPC   C2B54020  37.923  42.751   6.633
 4241POPC   C3B54021  37.853  42.608   7.056
 4241POPC   C4B54022  37.388  42.624   7.093
 4242POPC   NC354023   7.780  40.129   5.387
 4242POPC   PO454024   7.261  39.850   5.635
 4242POPC   GL154025   7.624  39.994   5.866
 4242POPC   GL254026   7.750  39.686   5.979
 4242POPC   C1A54027   7.686  40.140   6.289
 4242POPC   D2A54028   7.548  39.975   6.675
 4242POPC   C3A54029   7.453  40.320   6.909
 4242POPC   C4A54030   7.432  40.394   7.334
 4242POPC   C1B54031   7.350  39.749   6.265
 4242POPC   C2B54032   7.088  39.673   6.632
 4242POPC   C3B54033   7.177  39.877   7.024
 4242POPC   C4B54034   7.262  39.654   7.455
 4243POPC   NC354035  43.408  30.686   5.545
 4243POPC   PO454036  42.827  30.955   5.650
 4243POPC   GL154037  43.080  30.789   5.954
 4243POPC   GL254038  43.237  30.482   5.984
 4243POPC   C1A54039  42.940  30.708   6.337
 4243POPC   D2A54040  42.983  30.436   6.674
 4243POPC   C3A54041  43.106  30.649   7.063
 4243POPC   C4A54042  43.114  30.721   7.518
 4243POPC   C1B54043  43.427  30.615   6.418
 4243POPC   C2B54044  43.377  30.935   6.743
 4243POPC   C3B54045  43.596  31.030   7.131
 4243POPC   C4B54046  43.550  30.973   7.605
 4244POPC   NC354047  34.165   8.827   5.452
 4244POPC   PO454048  34.780   8.739   5.517
 4244POPC   GL154049  34.531   8.867   5.862
 4244POPC   GL254050  34.414   9.207   5.765
 4244POPC   C1A54051  34.655   8.989   6.290
 4244POPC   D2A54052  34.848   9.185   6.679
 4244POPC   C3A54053  34.686   8.971   7.056
 4244POPC   C4A54054  34.760   8.816   7.472
 4244POPC   C1B54055  34.284   9.338   6.194
 4244POPC   C2B54056  34.330   9.219   6.640
 4244POPC   C3B54057  34.411   9.387   7.060
 4244POPC   C4B54058  34.409   9.186   7.469
 4245POPC   NC354059  29.746  42.727   5.371
 4245POPC   PO454060  30.029  42.096   5.192
 4245POPC   GL154061  29.895  42.365   5.654
 4245POPC   GL254062  30.152  42.520   5.850
 4245POPC   C1A54063  29.703  42.500   6.086
 4245POPC   D2A54064  29.829  42.757   6.473
 4245POPC   C3A54065  29.978  42.640   6.912
 4245POPC   C4A54066  29.732  42.365   7.177
 4245POPC   C1B54067  30.098  42.196   6.189
 4245POPC   C2B54068  29.943  42.243   6.579
 4245POPC   C3B54069  30.110  42.110   6.949
 4245POPC   C4B54070  29.827  41.803   7.097
 4246POPC   NC354071  17.740  10.372   5.454
 4246POPC   PO454072  17.261  10.607   5.154
 4246POPC   GL154073  17.235  10.581   5.705
 4246POPC   GL254074  17.515  10.365   5.893
 4246POPC   C1A54075  17.357  10.712   6.185
 4246POPC   D2A54076  17.665  10.632   6.536
 4246POPC   C3A54077  17.411  10.599   6.899
 4246POPC   C4A54078  17.116  10.879   7.086
 4246POPC   C1B54079  17.612  10.147   6.262
 4246POPC   C2B54080  17.515  10.129   6.697
 4246POPC   C3B54081  17.651  10.177   7.131
 4246POPC   C4B54082  17.803  10.226   7.548
 4247POPC   NC354083  19.599   8.980   5.502
 4247POPC   PO454084  20.197   9.223   5.366
 4247POPC   GL154085  20.070   9.019   5.786
 4247POPC   GL254086  19.737   8.871   5.959
 4247POPC   C1A54087  20.038   9.196   6.214
 4247POPC   D2A54088  19.712   9.326   6.497
 4247POPC   C3A54089  19.667   9.095   6.876
 4247POPC   C4A54090  19.889   9.170   7.260
 4247POPC   C1B54091  19.731   8.813   6.381
 4247POPC   C2B54092  20.077   8.843   6.611
 4247POPC   C3B54093  20.032   8.752   7.021
 4247POPC   C4B54094  19.684   8.702   7.291
 4248POPC   NC354095  23.808  17.925   4.970
 4248POPC   PO454096  23.574  18.267   5.437
 4248POPC   GL154097  23.714  18.255   5.848
 4248POPC   GL254098  23.916  18.566   5.880
 4248POPC   C1A54099  23.672  18.325   6.277
 4248POPC   D2A54100  23.695  18.097   6.647
 4248POPC   C3A54101  23.598  18.302   7.018
 4248POPC   C4A54102  23.698  18.076   7.366
 4248POPC   C1B54103  24.080  18.638   6.243
 4248POPC   C2B54104  24.073  18.449   6.645
 4248POPC   C3B54105  24.109  18.345   7.081
 4248POPC   C4B54106  23.872  18.659   7.305
 4249POPC   NC354107  18.719  31.103   5.046
 4249POPC   PO454108  18.292  30.737   5.417
 4249POPC   GL154109  18.135  30.694   5.838
 4249POPC   GL254110  18.145  31.052   5.912
 4249POPC   C1A54111  18.301  30.683   6.290
 4249POPC   D2A54112  18.160  30.613   6.723
 4249POPC   C3A54113  18.446  30.606   7.108
 4249POPC   C4A54114  18.314  30.616   7.553
 4249POPC   C1B54115  18.504  31.145   6.212
 4249POPC   C2B54116  18.418  31.118   6.643
 4249POPC   C3B54117  18.366  31.119   7.069
 4249POPC   C4B54118  18.594  31.023   7.431
 4250POPC   NC354119   0.681  20.536   5.287
 4250POPC   PO454120   0.024  20.422   5.468
 4250POPC   GL154121   0.322  20.536   5.826
 4250POPC   GL254122   0.697  20.509   5.822
 4250POPC   C1A54123   0.328  20.767   6.232
 4250POPC   D2A54124   0.445  20.772   6.669
 4250POPC   C3A54125   0.388  20.956   7.097
 4250POPC   C4A54126   0.346  20.962   7.555
 4250POPC   C1B54127   0.764  20.507   6.291
 4250POPC   C2B54128   0.727  20.362   6.710
 4250POPC   C3B54129   0.576  20.485   7.091
 4250POPC   C4B54130   0.727  20.527   7.475
 4251POPC   NC354131  42.761   6.508   5.398
 4251POPC   PO454132  42.380   7.009   5.176
 4251POPC   GL154133  42.284   6.607   5.529
 4251POPC   GL254134  41.968   6.639   5.635
 4251POPC   C1A54135  42.426   6.457   6.011
 4251POPC   D2A54136  42.450   6.756   6.412
 4251POPC   C3A54137  42.452   6.684   6.876
 4251POPC   C4A54138  42.224   6.811   7.276
 4251POPC   C1B54139  42.031   6.755   6.084
 4251POPC   C2B54140  41.976   6.606   6.501
 4251POPC   C3B54141  41.954   6.536   6.919
 4251POPC   C4B54142  42.020   6.359   7.322
 4252POPC   NC354143  42.051  31.776   5.568
 4252POPC   PO454144  42.565  31.394   5.352
 4252POPC   GL154145  42.495  31.557   5.837
 4252POPC   GL254146  42.130  31.457   5.974
 4252POPC   C1A54147  42.517  31.330   6.278
 4252POPC   D2A54148  42.202  31.183   6.598
 4252POPC   C3A54149  42.351  31.164   7.019
 4252POPC   C4A54150  42.636  31.466   7.233
 4252POPC   C1B54151  42.239  31.787   6.228
 4252POPC   C2B54152  42.427  31.718   6.610
 4252POPC   C3B54153  42.236  31.664   6.977
 4252POPC   C4B54154  42.213  31.804   7.368
 4253POPC   NC354155  22.794  37.239   5.292
 4253POPC   PO454156  23.272  36.796   5.353
 4253POPC   GL154157  23.034  36.790   5.752
 4253POPC   GL254158  22.853  37.082   5.781
 4253POPC   C1A54159  23.064  36.753   6.218
 4253POPC   D2A54160  22.803  36.820   6.597
 4253POPC   C3A54161  22.917  36.745   7.018
 4253POPC   C4A54162  23.233  36.956   7.207
 4253POPC   C1B54163  23.200  37.228   6.011
 4253POPC   C2B54164  23.234  37.225   6.464
 4253POPC   C3B54165  23.016  37.244   6.857
 4253POPC   C4B54166  23.068  37.468   7.235
 4254POPC   NC354167  21.787   4.268   5.145
 4254POPC   PO454168  22.319   4.028   5.403
 4254POPC   GL154169  22.086   4.298   5.667
 4254POPC   GL254170  22.120   4.081   5.903
 4254POPC   C1A54171  21.989   4.637   5.975
 4254POPC   D2A54172  22.143   4.775   6.411
 4254POPC   C3A54173  22.050   4.618   6.831
 4254POPC   C4A54174  22.277   4.434   7.201
 4254POPC   C1B54175  22.030   4.232   6.276
 4254POPC   C2B54176  21.909   4.166   6.648
 4254POPC   C3B54177  22.178   4.014   6.940
 4254POPC   C4B54178  22.024   3.998   7.358
 4255POPC   NC354179  41.175  16.989   5.081
 4255POPC   PO454180  40.552  16.884   5.285
 4255POPC   GL154181  40.668  16.941   5.744
 4255POPC   GL254182  40.424  16.749   5.890
 4255POPC   C1A54183  40.854  16.754   6.135
 4255POPC   D2A54184  40.743  16.840   6.547
 4255POPC   C3A54185  41.081  16.772   6.797
 4255POPC   C4A54186  41.178  16.933   7.161
 4255POPC   C1B54187  40.363  16.526   6.288
 4255POPC   C2B54188  40.321  16.615   6.724
 4255POPC   C3B54189  40.641  16.710   7.046
 4255POPC   C4B54190  40.953  16.361   7.115
 4256POPC   NC354191  35.323  22.255   5.305
 4256POPC   PO454192  35.285  21.648   5.569
 4256POPC   GL154193  35.501  21.981   5.819
 4256POPC   GL254194  35.664  22.318   5.755
 4256POPC   C1A54195  35.408  22.126   6.256
 4256POPC   D2A54196  35.168  22.160   6.654
 4256POPC   C3A54197  35.218  22.386   7.046
 4256POPC   C4A54198  35.271  22.149   7.422
 4256POPC   C1B54199  35.749  22.504   6.200
 4256POPC   C2B54200  35.605  22.435   6.633
 4256POPC   C3B54201  35.688  22.214   7.029
 4256POPC   C4B54202  35.640  22.482   7.395
 4257POPC   NC354203  18.594  32.878   5.520
 4257POPC   PO454204  19.124  33.394   5.439
 4257POPC   GL154205  19.236  33.114   5.832
 4257POPC   GL254206  19.160  32.720   5.781
 4257POPC   C1A54207  19.085  33.120   6.303
 4257POPC   D2A54208  18.891  32.853   6.674
 4257POPC   C3A54209  18.902  33.055   7.073
 4257POPC   C4A54210  19.224  33.055   7.374
 4257POPC   C1B54211  19.077  32.624   6.228
 4257POPC   C2B54212  19.362  32.672   6.608
 4257POPC   C3B54213  19.239  32.611   7.010
 4257POPC   C4B54214  18.779  32.555   7.103
 4258POPC   NC354215  20.697  19.304   5.446
 4258POPC   PO454216  20.991  18.752   5.486
 4258POPC   GL154217  20.703  18.952   5.815
 4258POPC   GL254218  20.893  19.277   5.896
 4258POPC   C1A54219  20.523  19.163   6.220
 4258POPC   D2A54220  20.364  19.296   6.628
 4258POPC   C3A54221  20.158  18.978   6.870
 4258POPC   C4A54222  20.267  18.974   7.285
 4258POPC   C1B54223  21.044  19.003   6.182
 4258POPC   C2B54224  20.821  18.855   6.531
 4258POPC   C3B54225  20.692  19.017   6.932
 4258POPC   C4B54226  20.593  19.367   7.163
 4259POPC   NC354227   3.491  31.252   5.319
 4259POPC   PO454228   3.659  31.864   5.458
 4259POPC   GL154229   3.532  31.614   5.834
 4259POPC   GL254230   3.298  31.387   5.770
 4259POPC   C1A54231   3.737  31.440   6.228
 4259POPC   D2A54232   4.009  31.322   6.585
 4259POPC   C3A54233   3.713  31.429   6.928
 4259POPC   C4A54234   3.299  31.665   6.931
 4259POPC   C1B54235   3.285  31.174   6.125
 4259POPC   C2B54236   3.249  31.419   6.473
 4259POPC   C3B54237   3.277  31.174   6.805
 4259POPC   C4B54238   3.371  31.085   7.187
 4260POPC   NC354239  33.634   9.137   5.423
 4260POPC   PO454240  33.792   8.549   5.456
 4260POPC   GL154241  33.761   8.790   5.820
 4260POPC   GL254242  33.926   9.098   5.861
 4260POPC   C1A54243  33.597   8.924   6.230
 4260POPC   D2A54244  33.828   9.020   6.616
 4260POPC   C3A54245  33.563   9.000   7.003
 4260POPC   C4A54246  33.516   9.374   7.273
 4260POPC   C1B54247  34.121   8.855   6.194
 4260POPC   C2B54248  34.306   8.699   6.574
 4260POPC   C3B54249  34.158   8.828   6.967
 4260POPC   C4B54250  33.822   8.591   7.194
 4261POPC   NC354251  38.037  36.590   5.440
 4261POPC   PO454252  37.690  37.148   5.378
 4261POPC   GL154253  37.480  37.019   5.742
 4261POPC   GL254254  37.191  36.796   5.639
 4261POPC   C1A54255  37.671  37.024   6.170
 4261POPC   D2A54256  37.982  36.918   6.507
 4261POPC   C3A54257  37.964  37.165   6.897
 4261POPC   C4A54258  37.904  36.987   7.306
 4261POPC   C1B54259  37.245  36.724   6.101
 4261POPC   C2B54260  37.480  36.653   6.489
 4261POPC   C3B54261  37.580  36.838   6.883
 4261POPC   C4B54262  37.418  36.763   7.288
 4262POPC   NC354263  21.277  20.991   5.414
 4262POPC   PO454264  21.577  21.583   5.450
 4262POPC   GL154265  21.233  21.434   5.696
 4262POPC   GL254266  21.317  21.677   5.873
 4262POPC   C1A54267  21.035  21.326   6.128
 4262POPC   D2A54268  21.141  21.447   6.595
 4262POPC   C3A54269  21.270  21.192   6.962
 4262POPC   C4A54270  21.308  21.184   7.433
 4262POPC   C1B54271  21.254  21.799   6.239
 4262POPC   C2B54272  21.523  21.790   6.577
 4262POPC   C3B54273  21.342  21.776   6.963
 4262POPC   C4B54274  21.602  21.892   7.258
 4263POPC   NC354275  44.496  27.077   5.034
 4263POPC   PO454276   0.140  27.193   5.146
 4263POPC   GL154277  44.822  26.967   5.563
 4263POPC   GL254278  44.463  27.087   5.760
 4263POPC   C1A54279  44.821  26.938   6.080
 4263POPC   D2A54280  44.534  26.796   6.443
 4263POPC   C3A54281  44.629  26.710   6.884
 4263POPC   C4A54282  44.970  26.762   7.150
 4263POPC   C1B54283  44.364  27.241   6.222
 4263POPC   C2B54284  44.404  27.214   6.710
 4263POPC   C3B54285  44.377  27.073   7.124
 4263POPC   C4B54286  44.213  26.674   7.249
 4264POPC   NC354287   3.764   4.161   5.064
 4264POPC   PO454288   3.275   4.515   5.348
 4264POPC   GL154289   3.523   4.358   5.664
 4264POPC   GL254290   3.534   4.613   5.912
 4264POPC   C1A54291   3.670   4.150   6.061
 4264POPC   D2A54292   3.517   3.992   6.466
 4264POPC   C3A54293   3.711   4.065   6.870
 4264POPC   C4A54294   3.522   4.127   7.263
 4264POPC   C1B54295   3.449   4.513   6.366
 4264POPC   C2B54296   3.513   4.567   6.814
 4264POPC   C3B54297   3.338   4.614   7.249
 4264POPC   C4B54298   3.292   4.767   7.701
 4265POPC   NC354299   4.209  34.481   5.356
 4265POPC   PO454300   3.925  35.041   5.631
 4265POPC   GL154301   4.123  34.647   5.837
 4265POPC   GL254302   4.006  34.279   5.787
 4265POPC   C1A54303   4.214  34.632   6.270
 4265POPC   D2A54304   4.197  34.927   6.634
 4265POPC   C3A54305   4.483  34.846   6.958
 4265POPC   C4A54306   4.400  34.546   7.225
 4265POPC   C1B54307   3.863  34.251   6.231
 4265POPC   C2B54308   3.971  34.406   6.684
 4265POPC   C3B54309   3.980  34.243   7.131
 4265POPC   C4B54310   4.204  34.205   7.541
 4266POPC   NC354311  37.891   4.679   5.599
 4266POPC   PO454312  37.634   5.285   5.422
 4266POPC   GL154313  37.738   5.150   5.797
 4266POPC   GL254314  37.477   4.868   5.835
 4266POPC   C1A54315  37.832   5.397   6.160
 4266POPC   D2A54316  37.794   5.245   6.560
 4266POPC   C3A54317  37.679   5.437   6.921
 4266POPC   C4A54318  37.896   5.299   7.267
 4266POPC   C1B54319  37.677   4.848   6.215
 4266POPC   C2B54320  37.475   4.839   6.600
 4266POPC   C3B54321  37.686   4.909   6.960
 4266POPC   C4B54322  37.565   4.899   7.337
 4267POPC   NC354323   7.781   8.062   5.393
 4267POPC   PO454324   8.183   8.701   5.369
 4267POPC   GL154325   8.155   8.468   5.756
 4267POPC   GL254326   8.034   8.118   5.831
 4267POPC   C1A54327   8.063   8.553   6.173
 4267POPC   D2A54328   8.231   8.407   6.544
 4267POPC   C3A54329   8.007   8.421   6.908
 4267POPC   C4A54330   8.176   8.351   7.293
 4267POPC   C1B54331   8.031   7.893   6.229
 4267POPC   C2B54332   7.887   8.001   6.635
 4267POPC   C3B54333   8.008   7.900   7.083
 4267POPC   C4B54334   8.345   7.877   7.444
 4268POPC   NC354335   5.814  32.480   5.339
 4268POPC   PO454336   5.716  31.794   5.339
 4268POPC   GL154337   5.931  32.046   5.685
 4268POPC   GL254338   5.697  32.328   5.817
 4268POPC   C1A54339   6.066  32.150   6.117
 4268POPC   D2A54340   5.791  32.199   6.481
 4268POPC   C3A54341   5.958  32.250   6.905
 4268POPC   C4A54342   6.041  32.526   7.279
 4268POPC   C1B54343   5.515  31.994   6.081
 4268POPC   C2B54344   5.428  31.845   6.508
 4268POPC   C3B54345   5.409  32.143   6.852
 4268POPC   C4B54346   5.604  32.259   7.263
 4269POPC   NC354347  14.929  20.129   5.458
 4269POPC   PO454348  15.407  19.624   5.538
 4269POPC   GL154349  15.266  19.950   5.819
 4269POPC   GL254350  14.961  19.766   5.830
 4269POPC   C1A54351  15.121  20.059   6.251
 4269POPC   D2A54352  15.350  20.145   6.667
 4269POPC   C3A54353  15.261  19.959   7.100
 4269POPC   C4A54354  15.240  20.079   7.542
 4269POPC   C1B54355  15.058  19.549   6.240
 4269POPC   C2B54356  15.037  19.699   6.686
 4269POPC   C3B54357  14.999  19.503   7.103
 4269POPC   C4B54358  15.193  19.135   7.304
 4270POPC   NC354359   6.256  17.936   5.149
 4270POPC   PO454360   6.771  18.310   5.380
 4270POPC   GL154361   6.791  18.419   5.771
 4270POPC   GL254362   6.989  18.160   5.900
 4270POPC   C1A54363   6.560  18.442   6.144
 4270POPC   D2A54364   6.350  18.145   6.381
 4270POPC   C3A54365   6.552  18.215   6.754
 4270POPC   C4A54366   6.519  18.262   7.188
 4270POPC   C1B54367   7.065  18.530   6.178
 4270POPC   C2B54368   6.932  18.608   6.610
 4270POPC   C3B54369   6.857  18.675   7.055
 4270POPC   C4B54370   6.950  18.414   7.412
 4271POPC   NC354371  27.638   2.989   5.407
 4271POPC   PO454372  27.412   2.434   5.134
 4271POPC   GL154373  27.452   2.597   5.624
 4271POPC   GL254374  27.727   2.581   5.858
 4271POPC   C1A54375  27.311   2.804   6.043
 4271POPC   D2A54376  27.478   2.688   6.451
 4271POPC   C3A54377  27.241   2.710   6.802
 4271POPC   C4A54378  27.495   2.750   7.176
 4271POPC   C1B54379  27.769   2.977   6.143
 4271POPC   C2B54380  27.856   3.033   6.599
 4271POPC   C3B54381  28.078   2.922   7.003
 4271POPC   C4B54382  27.979   2.609   7.324
 4272POPC   NC354383   1.927  13.721   4.834
 4272POPC   PO454384   2.098  13.579   5.468
 4272POPC   GL154385   2.028  13.657   5.890
 4272POPC   GL254386   2.338  13.813   5.937
 4272POPC   C1A54387   1.987  13.425   6.299
 4272POPC   D2A54388   2.228  13.300   6.685
 4272POPC   C3A54389   2.070  13.532   7.019
 4272POPC   C4A54390   1.643  13.426   7.196
 4272POPC   C1B54391   2.139  13.920   6.313
 4272POPC   C2B54392   2.063  14.059   6.723
 4272POPC   C3B54393   2.283  13.978   7.108
 4272POPC   C4B54394   2.233  13.732   7.497
 4273POPC   NC354395  21.754   3.895   5.591
 4273POPC   PO454396  21.372   4.377   5.322
 4273POPC   GL154397  21.555   4.337   5.752
 4273POPC   GL254398  21.337   4.097   5.906
 4273POPC   C1A54399  21.559   4.447   6.220
 4273POPC   D2A54400  21.300   4.486   6.597
 4273POPC   C3A54401  21.502   4.641   6.955
 4273POPC   C4A54402  21.775   4.465   7.240
 4273POPC   C1B54403  21.610   3.914   6.241
 4273POPC   C2B54404  21.510   3.832   6.675
 4273POPC   C3B54405  21.534   4.104   6.996
 4273POPC   C4B54406  21.188   4.288   7.202
 4274POPC   NC354407  30.339   9.209   5.359
 4274POPC   PO454408  29.746   8.961   5.430
 4274POPC   GL154409  29.882   8.922   5.831
 4274POPC   GL254410  30.033   9.256   5.804
 4274POPC   C1A54411  29.754   8.811   6.256
 4274POPC   D2A54412  29.914   8.904   6.665
 4274POPC   C3A54413  29.704   8.681   6.965
 4274POPC   C4A54414  29.414   8.922   7.145
 4274POPC   C1B54415  30.017   9.258   6.248
 4274POPC   C2B54416  30.146   9.380   6.648
 4274POPC   C3B54417  30.148   9.205   7.056
 4274POPC   C4B54418  30.070   9.441   7.422
 4275POPC   NC354419  25.950   8.247   5.345
 4275POPC   PO454420  25.467   7.881   5.436
 4275POPC   GL154421  25.848   8.026   5.812
 4275POPC   GL254422  26.123   8.308   5.821
 4275POPC   C1A54423  26.161   7.983   6.226
 4275POPC   D2A54424  26.030   7.885   6.672
 4275POPC   C3A54425  26.212   8.093   7.042
 4275POPC   C4A54426  26.032   8.177   7.462
 4275POPC   C1B54427  25.991   8.451   6.220
 4275POPC   C2B54428  26.045   8.450   6.681
 4275POPC   C3B54429  25.974   8.576   7.126
 4275POPC   C4B54430  26.029   8.703   7.583
 4276POPC   NC354431  38.909  33.140   5.462
 4276POPC   PO454432  39.409  32.642   5.515
 4276POPC   GL154433  39.333  33.018   5.804
 4276POPC   GL254434  39.056  33.271   5.918
 4276POPC   C1A54435  39.437  33.106   6.234
 4276POPC   D2A54436  39.330  32.896   6.611
 4276POPC   C3A54437  39.394  33.183   6.943
 4276POPC   C4A54438  39.358  33.146   7.351
 4276POPC   C1B54439  38.933  33.049   6.289
 4276POPC   C2B54440  38.959  33.247   6.677
 4276POPC   C3B54441  38.860  33.113   7.061
 4276POPC   C4B54442  38.880  33.195   7.484
 4277POPC   NC354443  25.952  23.782   5.434
 4277POPC   PO454444  26.632  23.700   5.476
 4277POPC   GL154445  26.281  23.570   5.790
 4277POPC   GL254446  25.878  23.537   5.907
 4277POPC   C1A54447  26.188  23.842   6.142
 4277POPC   D2A54448  26.006  23.696   6.529
 4277POPC   C3A54449  26.183  23.843   6.903
 4277POPC   C4A54450  26.138  23.428   7.104
 4277POPC   C1B54451  25.667  23.896   6.212
 4277POPC   C2B54452  25.711  24.079   6.694
 4277POPC   C3B54453  25.737  23.905   7.152
 4277POPC   C4B54454  25.802  24.025   7.599
 4278POPC   NC354455   0.704  13.762   5.391
 4278POPC   PO454456   0.012  13.951   5.523
 4278POPC   GL154457   0.257  13.628   5.814
 4278POPC   GL254458   0.591  13.619   5.842
 4278POPC   C1A54459   0.414  13.599   6.294
 4278POPC   D2A54460   0.276  13.468   6.664
 4278POPC   C3A54461   0.315  13.769   6.989
 4278POPC   C4A54462   0.467  13.407   7.195
 4278POPC   C1B54463   0.544  14.024   6.047
 4278POPC   C2B54464   0.680  14.008   6.470
 4278POPC   C3B54465   0.789  13.733   6.793
 4278POPC   C4B54466   0.773  13.819   7.222
 4279POPC   NC354467  35.682   3.196   5.422
 4279POPC   PO454468  35.291   3.789   5.502
 4279POPC   GL154469  35.437   3.597   5.853
 4279POPC   GL254470  35.265   3.296   5.770
 4279POPC   C1A54471  35.492   3.761   6.288
 4279POPC   D2A54472  35.604   3.494   6.639
 4279POPC   C3A54473  35.559   3.707   7.004
 4279POPC   C4A54474  35.182   3.808   7.216
 4279POPC   C1B54475  35.087   3.441   6.187
 4279POPC   C2B54476  35.093   3.459   6.636
 4279POPC   C3B54477  35.204   3.324   7.040
 4279POPC   C4B54478  35.013   3.297   7.452
 4280POPC   NC354479  36.987   2.449   5.419
 4280POPC   PO454480  36.667   2.973   5.363
 4280POPC   GL154481  36.832   2.855   5.748
 4280POPC   GL254482  37.193   2.817   5.765
 4280POPC   C1A54483  36.753   2.945   6.176
 4280POPC   D2A54484  36.693   2.713   6.532
 4280POPC   C3A54485  36.801   2.937   6.906
 4280POPC   C4A54486  36.791   2.802   7.305
 4280POPC   C1B54487  37.278   2.947   6.209
 4280POPC   C2B54488  37.258   3.020   6.685
 4280POPC   C3B54489  37.228   2.725   7.067
 4280POPC   C4B54490  37.240   2.693   7.543
 4281POPC   NC354491  11.080  36.936   5.407
 4281POPC   PO454492  11.668  36.630   5.508
 4281POPC   GL154493  11.434  36.890   5.860
 4281POPC   GL254494  11.062  36.931   5.896
 4281POPC   C1A54495  11.322  36.927   6.342
 4281POPC   D2A54496  11.400  37.215   6.710
 4281POPC   C3A54497  11.449  36.981   7.099
 4281POPC   C4A54498  11.290  36.567   7.075
 4281POPC   C1B54499  10.967  37.258   6.162
 4281POPC   C2B54500  10.881  37.210   6.585
 4281POPC   C3B54501  10.966  37.115   6.988
 4281POPC   C4B54502  11.148  37.381   7.256
 4282POPC   NC354503  17.811  33.472   5.334
 4282POPC   PO454504  17.651  34.135   5.326
 4282POPC   GL154505  17.684  33.978   5.803
 4282POPC   GL254506  17.485  33.752   5.851
 4282POPC   C1A54507  17.796  33.670   6.224
 4282POPC   D2A54508  17.803  33.421   6.632
 4282POPC   C3A54509  17.597  33.616   6.973
 4282POPC   C4A54510  17.595  34.045   7.155
 4282POPC   C1B54511  17.360  33.944   6.248
 4282POPC   C2B54512  17.391  33.989   6.676
 4282POPC   C3B54513  17.130  33.845   7.001
 4282POPC   C4B54514  17.233  33.727   7.406
 4283POPC   NC354515  11.229   3.834   5.268
 4283POPC   PO454516  11.230   3.148   5.366
 4283POPC   GL154517  11.292   3.353   5.724
 4283POPC   GL254518  11.598   3.153   5.752
 4283POPC   C1A54519  11.253   3.613   6.111
 4283POPC   D2A54520  11.385   3.816   6.487
 4283POPC   C3A54521  11.501   3.571   6.869
 4283POPC   C4A54522  11.438   3.778   7.280
 4283POPC   C1B54523  11.382   3.075   6.127
 4283POPC   C2B54524  11.196   3.261   6.495
 4283POPC   C3B54525  11.159   3.170   6.929
 4283POPC   C4B54526  11.372   3.270   7.306
 4284POPC   NC354527   8.019  18.106   5.149
 4284POPC   PO454528   8.468  18.428   5.642
 4284POPC   GL154529   8.336  18.525   5.975
 4284POPC   GL254530   8.049  18.692   5.860
 4284POPC   C1A54531   8.393  18.264   6.326
 4284POPC   D2A54532   8.651  17.954   6.538
 4284POPC   C3A54533   8.523  17.932   6.980
 4284POPC   C4A54534   8.415  18.107   7.394
 4284POPC   C1B54535   7.886  18.404   6.163
 4284POPC   C2B54536   7.914  18.236   6.534
 4284POPC   C3B54537   7.693  18.176   6.878
 4284POPC   C4B54538   7.930  18.122   7.243
 4285POPC   NC354539  27.838  21.692   5.399
 4285POPC   PO454540  27.706  22.428   5.461
 4285POPC   GL154541  27.531  22.356   5.875
 4285POPC   GL254542  27.374  21.983   5.878
 4285POPC   C1A54543  27.663  22.462   6.300
 4285POPC   D2A54544  27.825  22.624   6.699
 4285POPC   C3A54545  27.573  22.509   7.055
 4285POPC   C4A54546  27.710  22.416   7.482
 4285POPC   C1B54547  27.755  21.980   6.165
 4285POPC   C2B54548  27.883  22.093   6.614
 4285POPC   C3B54549  27.706  22.030   7.030
 4285POPC   C4B54550  27.422  21.813   7.295
 4286POPC   NC354551   7.655  31.794   5.384
 4286POPC   PO454552   7.426  31.181   5.322
 4286POPC   GL154553   7.372  31.254   5.760
 4286POPC   GL254554   7.422  31.582   5.781
 4286POPC   C1A54555   7.320  31.185   6.214
 4286POPC   D2A54556   7.325  31.445   6.600
 4286POPC   C3A54557   7.136  31.327   6.994
 4286POPC   C4A54558   7.450  31.162   7.285
 4286POPC   C1B54559   7.452  31.781   6.145
 4286POPC   C2B54560   7.284  31.958   6.499
 4286POPC   C3B54561   7.541  31.858   6.839
 4286POPC   C4B54562   7.500  31.652   7.218
 4287POPC   NC354563  25.538  32.736   5.425
 4287POPC   PO454564  25.499  33.353   5.337
 4287POPC   GL154565  25.502  33.142   5.761
 4287POPC   GL254566  25.223  32.911   5.817
 4287POPC   C1A54567  25.529  33.124   6.241
 4287POPC   D2A54568  25.336  32.908   6.607
 4287POPC   C3A54569  25.397  33.001   7.050
 4287POPC   C4A54570  25.069  33.167   7.272
 4287POPC   C1B54571  24.912  32.673   6.088
 4287POPC   C2B54572  24.748  32.751   6.552
 4287POPC   C3B54573  24.947  32.772   6.951
 4287POPC   C4B54574  25.022  32.673   7.386
 4288POPC   NC354575  12.380  38.144   5.494
 4288POPC   PO454576  12.084  37.531   5.626
 4288POPC   GL154577  12.201  37.883   5.921
 4288POPC   GL254578  12.588  37.899   5.874
 4288POPC   C1A54579  11.960  38.002   6.330
 4288POPC   D2A54580  11.839  38.053   6.814
 4288POPC   C3A54581  11.994  37.715   7.115
 4288POPC   C4A54582  11.894  37.247   7.165
 4288POPC   C1B54583  12.574  37.586   6.148
 4288POPC   C2B54584  12.299  37.564   6.475
 4288POPC   C3B54585  12.427  37.602   6.892
 4288POPC   C4B54586  12.388  37.393   7.259
 4289POPC   NC354587  32.651  25.135   5.777
 4289POPC   PO454588  32.165  25.471   5.447
 4289POPC   GL154589  32.130  25.122   5.719
 4289POPC   GL254590  32.205  25.347   5.968
 4289POPC   C1A54591  31.975  24.950   6.141
 4289POPC   D2A54592  32.131  25.219   6.486
 4289POPC   C3A54593  32.348  25.042   6.822
 4289POPC   C4A54594  32.125  25.122   7.190
 4289POPC   C1B54595  32.424  25.581   6.263
 4289POPC   C2B54596  32.532  25.521   6.636
 4289POPC   C3B54597  32.380  25.528   6.988
 4289POPC   C4B54598  32.634  25.287   7.200
 4290POPC   NC354599  12.026  18.078   5.469
 4290POPC   PO454600  12.636  18.435   5.477
 4290POPC   GL154601  12.380  18.147   5.831
 4290POPC   GL254602  12.025  18.355   5.902
 4290POPC   C1A54603  12.175  18.041   6.259
 4290POPC   D2A54604  12.033  18.412   6.481
 4290POPC   C3A54605  12.013  18.399   6.917
 4290POPC   C4A54606  12.340  18.422   7.201
 4290POPC   C1B54607  11.691  18.170   6.206
 4290POPC   C2B54608  11.648  17.965   6.585
 4290POPC   C3B54609  11.590  18.114   6.993
 4290POPC   C4B54610  11.721  18.235   7.363
 4291POPC   NC354611   1.243  25.789   5.467
 4291POPC   PO454612   1.517  26.431   5.319
 4291POPC   GL154613   1.322  26.258   5.744
 4291POPC   GL254614   1.448  25.953   5.916
 4291POPC   C1A54615   1.171  26.292   6.201
 4291POPC   D2A54616   0.966  26.189   6.606
 4291POPC   C3A54617   1.162  26.069   6.982
 4291POPC   C4A54618   1.261  26.323   7.296
 4291POPC   C1B54619   1.592  25.727   6.286
 4291POPC   C2B54620   1.403  25.638   6.717
 4291POPC   C3B54621   1.487  25.697   7.150
 4291POPC   C4B54622   1.683  25.517   7.530
 4292POPC   NC354623  18.027  23.743   5.477
 4292POPC   PO454624  18.638  24.065   5.651
 4292POPC   GL154625  18.293  23.893   5.899
 4292POPC   GL254626  18.215  23.554   5.904
 4292POPC   C1A54627  18.049  23.873   6.288
 4292POPC   D2A54628  18.203  23.965   6.683
 4292POPC   C3A54629  17.998  23.997   7.035
 4292POPC   C4A54630  18.261  23.762   7.237
 4292POPC   C1B54631  17.970  23.375   6.223
 4292POPC   C2B54632  18.210  23.367   6.612
 4292POPC   C3B54633  18.452  23.298   7.001
 4292POPC   C4B54634  18.443  23.241   7.447
 4293POPC   NC354635  29.690  20.176   5.448
 4293POPC   PO454636  29.699  19.505   5.589
 4293POPC   GL154637  29.862  19.748   5.907
 4293POPC   GL254638  30.065  20.016   5.788
 4293POPC   C1A54639  29.780  19.706   6.338
 4293POPC   D2A54640  29.636  19.491   6.684
 4293POPC   C3A54641  29.685  19.741   7.001
 4293POPC   C4A54642  30.008  19.677   7.269
 4293POPC   C1B54643  30.069  20.109   6.238
 4293POPC   C2B54644  29.974  20.039   6.685
 4293POPC   C3B54645  30.061  20.138   7.101
 4293POPC   C4B54646  30.105  20.091   7.571
 4294POPC   NC354647  30.884   2.410   5.598
 4294POPC   PO454648  30.571   1.985   5.248
 4294POPC   GL154649  30.506   2.064   5.712
 4294POPC   GL254650  30.832   1.939   5.818
 4294POPC   C1A54651  30.376   2.013   6.183
 4294POPC   D2A54652  30.478   1.748   6.580
 4294POPC   C3A54653  30.548   1.943   7.003
 4294POPC   C4A54654  30.495   2.363   7.042
 4294POPC   C1B54655  30.876   2.133   6.237
 4294POPC   C2B54656  30.866   2.205   6.679
 4294POPC   C3B54657  31.062   2.007   7.038
 4294POPC   C4B54658  30.924   1.668   7.324
 4295POPC   NC354659  23.770  34.856   4.994
 4295POPC   PO454660  23.700  34.435   5.505
 4295POPC   GL154661  23.533  34.709   5.859
 4295POPC   GL254662  23.193  34.691   5.935
 4295POPC   C1A54663  23.541  34.693   6.348
 4295POPC   D2A54664  23.950  34.843   6.534
 4295POPC   C3A54665  23.970  34.863   6.980
 4295POPC   C4A54666  23.808  34.486   7.150
 4295POPC   C1B54667  23.204  34.313   6.206
 4295POPC   C2B54668  23.152  34.183   6.653
 4295POPC   C3B54669  23.323  34.423   7.005
 4295POPC   C4B54670  23.400  34.364   7.447
 4296POPC   NC354671  38.211  16.659   5.085
 4296POPC   PO454672  37.586  16.584   5.399
 4296POPC   GL154673  37.461  16.759   5.816
 4296POPC   GL254674  37.240  16.492   5.944
 4296POPC   C1A54675  37.521  16.979   6.267
 4296POPC   D2A54676  37.701  17.027   6.728
 4296POPC   C3A54677  37.462  16.899   7.121
 4296POPC   C4A54678  37.427  17.093   7.558
 4296POPC   C1B54679  37.655  16.484   6.200
 4296POPC   C2B54680  37.893  16.543   6.580
 4296POPC   C3B54681  37.849  16.548   7.028
 4296POPC   C4B54682  37.923  16.233   7.383
 4297POPC   NC354683  23.702  16.417   5.582
 4297POPC   PO454684  24.071  16.974   5.602
 4297POPC   GL154685  23.759  16.987   5.964
 4297POPC   GL254686  23.622  16.617   6.053
 4297POPC   C1A54687  23.738  16.972   6.428
 4297POPC   D2A54688  23.780  16.541   6.546
 4297POPC   C3A54689  23.785  16.388   6.915
 4297POPC   C4A54690  23.931  16.380   7.268
 4297POPC   C1B54691  23.365  16.336   6.305
 4297POPC   C2B54692  23.322  16.381   6.732
 4297POPC   C3B54693  23.464  16.821   6.872
 4297POPC   C4B54694  23.676  16.999   7.237
 4298POPC   NC354695  34.843  28.113   5.489
 4298POPC   PO454696  34.196  28.429   5.353
 4298POPC   GL154697  34.510  28.521   5.701
 4298POPC   GL254698  34.356  28.780   5.887
 4298POPC   C1A54699  34.674  28.305   6.095
 4298POPC   D2A54700  34.779  28.313   6.557
 4298POPC   C3A54701  34.727  28.170   6.984
 4298POPC   C4A54702  34.667  28.414   7.354
 4298POPC   C1B54703  34.253  28.568   6.230
 4298POPC   C2B54704  34.208  28.363   6.580
 4298POPC   C3B54705  34.265  28.384   7.005
 4298POPC   C4B54706  34.274  28.763   7.205
 4299POPC   NC354707   5.262   8.454   5.421
 4299POPC   PO454708   4.710   8.102   5.587
 4299POPC   GL154709   5.102   8.174   5.800
 4299POPC   GL254710   5.245   7.860   5.798
 4299POPC   C1A54711   5.235   8.408   6.174
 4299POPC   D2A54712   4.963   8.445   6.531
 4299POPC   C3A54713   5.132   8.396   6.954
 4299POPC   C4A54714   4.858   8.397   7.304
 4299POPC   C1B54715   5.053   7.928   6.230
 4299POPC   C2B54716   5.200   7.988   6.630
 4299POPC   C3B54717   5.382   7.899   7.037
 4299POPC   C4B54718   5.033   7.920   7.302
 4300POPC   NC354719  29.662  36.570   5.479
 4300POPC   PO454720  29.031  36.187   5.535
 4300POPC   GL154721  29.343  36.320   5.795
 4300POPC   GL254722  29.224  36.663   5.767
 4300POPC   C1A54723  29.431  36.250   6.222
 4300POPC   D2A54724  29.226  36.030   6.559
 4300POPC   C3A54725  29.302  36.052   6.999
 4300POPC   C4A54726  28.945  35.834   7.226
 4300POPC   C1B54727  29.009  36.534   6.149
 4300POPC   C2B54728  29.064  36.500   6.595
 4300POPC   C3B54729  28.852  36.254   6.893
 4300POPC   C4B54730  28.664  36.351   7.267
 4301POPC   NC354731  12.578  34.289   5.582
 4301POPC   PO454732  13.013  34.861   5.513
 4301POPC   GL154733  12.958  34.593   5.863
 4301POPC   GL254734  12.638  34.750   5.888
 4301POPC   C1A54735  12.896  34.546   6.326
 4301POPC   D2A54736  12.867  34.803   6.720
 4301POPC   C3A54737  12.877  34.531   7.062
 4301POPC   C4A54738  13.182  34.228   7.169
 4301POPC   C1B54739  12.396  34.569   6.179
 4301POPC   C2B54740  12.411  34.630   6.582
 4301POPC   C3B54741  12.385  34.403   6.947
 4301POPC   C4B54742  12.221  34.659   7.227
 4302POPC   NC354743  26.714   3.778   5.647
 4302POPC   PO454744  27.187   3.282   5.453
 4302POPC   GL154745  27.083   3.434   5.848
 4302POPC   GL254746  27.238   3.724   5.930
 4302POPC   C1A54747  26.878   3.528   6.251
 4302POPC   D2A54748  26.623   3.361   6.579
 4302POPC   C3A54749  26.808   3.446   6.963
 4302POPC   C4A54750  26.948   3.805   7.142
 4302POPC   C1B54751  27.164   3.975   6.248
 4302POPC   C2B54752  27.232   3.740   6.598
 4302POPC   C3B54753  27.431   3.865   6.937
 4302POPC   C4B54754  27.414   3.607   7.247
 4303POPC   NC354755  28.864  19.616   5.501
 4303POPC   PO454756  29.236  20.115   5.414
 4303POPC   GL154757  29.387  19.945   5.802
 4303POPC   GL254758  29.598  20.206   5.953
 4303POPC   C1A54759  29.293  19.752   6.195
 4303POPC   D2A54760  29.190  19.398   6.472
 4303POPC   C3A54761  29.168  19.561   6.900
 4303POPC   C4A54762  29.267  19.620   7.316
 4303POPC   C1B54763  29.593  20.227   6.398
 4303POPC   C2B54764  29.361  19.989   6.673
 4303POPC   C3B54765  29.260  20.056   7.088
 4303POPC   C4B54766  29.621  20.017   7.414
 4304POPC   NC354767  22.424  24.360   5.296
 4304POPC   PO454768  21.776  24.634   5.217
 4304POPC   GL154769  22.073  24.580   5.626
 4304POPC   GL254770  22.272  24.281   5.766
 4304POPC   C1A54771  22.101  24.636   6.098
 4304POPC   D2A54772  22.172  24.523   6.525
 4304POPC   C3A54773  22.017  24.767   6.874
 4304POPC   C4A54774  22.264  24.655   7.188
 4304POPC   C1B54775  22.217  24.120   6.177
 4304POPC   C2B54776  22.396  24.036   6.549
 4304POPC   C3B54777  22.283  24.200   6.927
 4304POPC   C4B54778  22.455  24.167   7.340
 4305POPC   NC354779   0.815   1.497   5.487
 4305POPC   PO454780   0.183   1.256   5.239
 4305POPC   GL154781   0.357   1.298   5.702
 4305POPC   GL254782   0.688   1.107   5.815
 4305POPC   C1A54783   0.382   1.291   6.183
 4305POPC   D2A54784   0.359   0.991   6.539
 4305POPC   C3A54785   0.338   1.157   6.953
 4305POPC   C4A54786   0.548   1.501   7.112
 4305POPC   C1B54787   0.835   1.076   6.277
 4305POPC   C2B54788   0.801   1.201   6.741
 4305POPC   C3B54789   0.797   1.071   7.210
 4305POPC   C4B54790   0.800   1.015   7.689
 4306POPC   NC354791  25.295  28.078   5.476
 4306POPC   PO454792  25.060  28.670   5.096
 4306POPC   GL154793  25.115  28.567   5.639
 4306POPC   GL254794  24.850  28.796   5.804
 4306POPC   C1A54795  25.368  28.352   6.082
 4306POPC   D2A54796  25.620  28.235   6.498
 4306POPC   C3A54797  25.614  28.480   6.896
 4306POPC   C4A54798  25.462  28.445   7.346
 4306POPC   C1B54799  24.904  28.533   6.173
 4306POPC   C2B54800  25.127  28.464   6.561
 4306POPC   C3B54801  25.106  28.303   6.971
 4306POPC   C4B54802  24.929  28.439   7.317
 4307POPC   NC354803   3.931  42.250   5.000
 4307POPC   PO454804   4.391  42.231   5.434
 4307POPC   GL154805   4.298  42.100   5.894
 4307POPC   GL254806   3.960  42.131   6.007
 4307POPC   C1A54807   4.311  42.081   6.396
 4307POPC   D2A54808   4.186  42.318   6.815
 4307POPC   C3A54809   4.430  42.557   7.131
 4307POPC   C4A54810   4.641  42.741   7.520
 4307POPC   C1B54811   4.012  42.522   6.302
 4307POPC   C2B54812   3.939  42.748   6.720
 4307POPC   C3B54813   3.857  42.586   7.149
 4307POPC   C4B54814   3.924  42.619   7.603
 4308POPC   NC354815  37.469  31.358   5.371
 4308POPC   PO454816  38.047  30.945   5.274
 4308POPC   GL154817  37.937  31.206   5.683
 4308POPC   GL254818  37.730  31.544   5.765
 4308POPC   C1A54819  37.879  31.270   6.158
 4308POPC   D2A54820  37.967  31.551   6.504
 4308POPC   C3A54821  37.847  31.392   6.889
 4308POPC   C4A54822  37.770  31.397   7.304
 4308POPC   C1B54823  37.458  31.670   6.137
 4308POPC   C2B54824  37.470  31.648   6.594
 4308POPC   C3B54825  37.350  31.418   6.953
 4308POPC   C4B54826  37.290  31.632   7.297
 4309POPC   NC354827   3.370  34.982   5.568
 4309POPC   PO454828   3.751  34.480   5.325
 4309POPC   GL154829   3.620  34.600   5.773
 4309POPC   GL254830   3.303  34.518   5.909
 4309POPC   C1A54831   3.684  34.728   6.227
 4309POPC   D2A54832   3.403  34.658   6.595
 4309POPC   C3A54833   3.516  34.445   6.964
 4309POPC   C4A54834   3.750  34.680   7.225
 4309POPC   C1B54835   3.207  34.918   6.191
 4309POPC   C2B54836   2.989  34.976   6.573
 4309POPC   C3B54837   3.177  34.968   6.986
 4309POPC   C4B54838   3.254  34.685   7.355
 4310POPC   NC354839   4.855   2.427   5.418
 4310POPC   PO454840   4.378   2.886   5.179
 4310POPC   GL154841   4.285   2.884   5.621
 4310POPC   GL254842   4.614   2.774   5.752
 4310POPC   C1A54843   4.197   2.877   6.060
 4310POPC   D2A54844   4.413   2.794   6.437
 4310POPC   C3A54845   4.196   2.917   6.826
 4310POPC   C4A54846   4.345   2.832   7.223
 4310POPC   C1B54847   4.624   2.432   6.069
 4310POPC   C2B54848   4.750   2.381   6.491
 4310POPC   C3B54849   4.566   2.515   6.863
 4310POPC   C4B54850   4.558   2.357   7.281
 4311POPC   NC354851  36.760   9.569   5.428
 4311POPC   PO454852  37.365   9.744   5.637
 4311POPC   GL154853  36.923   9.852   5.825
 4311POPC   GL254854  36.640  10.107   5.829
 4311POPC   C1A54855  36.674   9.659   6.178
 4311POPC   D2A54856  36.759   9.423   6.595
 4311POPC   C3A54857  36.722   9.594   7.013
 4311POPC   C4A54858  37.026   9.883   7.200
 4311POPC   C1B54859  36.679  10.178   6.288
 4311POPC   C2B54860  36.493  10.239   6.719
 4311POPC   C3B54861  36.729  10.339   7.121
 4311POPC   C4B54862  37.011  10.309   7.513
 4312POPC   NC354863  14.966  26.201   5.370
 4312POPC   PO454864  15.621  26.098   5.081
 4312POPC   GL154865  15.466  26.062   5.580
 4312POPC   GL254866  15.157  25.828   5.681
 4312POPC   C1A54867  15.295  26.202   6.031
 4312POPC   D2A54868  15.424  26.330   6.464
 4312POPC   C3A54869  15.283  26.190   6.882
 4312POPC   C4A54870  15.195  26.439   7.251
 4312POPC   C1B54871  14.884  25.922   6.052
 4312POPC   C2B54872  14.913  26.068   6.491
 4312POPC   C3B54873  14.801  25.975   6.935
 4312POPC   C4B54874  14.977  25.992   7.360
 4313POPC   NC354875  17.801   7.216   5.592
 4313POPC   PO454876  18.472   7.170   5.613
 4313POPC   GL154877  18.190   7.503   5.814
 4313POPC   GL254878  17.941   7.317   6.062
 4313POPC   C1A54879  18.167   7.749   6.198
 4313POPC   D2A54880  18.105   7.497   6.571
 4313POPC   C3A54881  18.026   7.602   6.981
 4313POPC   C4A54882  18.143   7.359   7.358
 4313POPC   C1B54883  18.330   7.169   6.248
 4313POPC   C2B54884  18.474   7.029   6.658
 4313POPC   C3B54885  18.532   7.171   7.071
 4313POPC   C4B54886  18.514   7.016   7.489
 4314POPC   NC354887   2.988  42.347   5.317
 4314POPC   PO454888   2.433  42.558   5.488
 4314POPC   GL154889   2.641  42.320   5.832
 4314POPC   GL254890   2.993  42.295   5.837
 4314POPC   C1A54891   2.683  42.163   6.274
 4314POPC   D2A54892   2.625  42.317   6.715
 4314POPC   C3A54893   2.435  42.122   7.087
 4314POPC   C4A54894   2.657  41.983   7.484
 4314POPC   C1B54895   3.062  42.508   6.268
 4314POPC   C2B54896   3.003  42.666   6.703
 4314POPC   C3B54897   2.989  42.634   7.129
 4314POPC   C4B54898   2.959  42.951   7.427
 4315POPC   NC354899   7.732   0.497   5.345
 4315POPC   PO454900   7.099   0.172   5.295
 4315POPC   GL154901   7.189   0.320   5.725
 4315POPC   GL254902   7.541   0.270   5.750
 4315POPC   C1A54903   7.307   0.358   6.189
 4315POPC   D2A54904   7.157   0.224   6.571
 4315POPC   C3A54905   7.322   0.391   6.932
 4315POPC   C4A54906   7.132   0.487   7.332
 4315POPC   C1B54907   7.693   0.631   6.008
 4315POPC   C2B54908   7.650   0.669   6.443
 4315POPC   C3B54909   7.755   0.688   6.873
 4315POPC   C4B54910   7.627   0.568   7.282
 4316POPC   NC354911  33.117  23.120   5.438
 4316POPC   PO454912  32.944  22.505   5.137
 4316POPC   GL154913  32.863  22.645   5.658
 4316POPC   GL254914  33.042  22.921   5.875
 4316POPC   C1A54915  32.859  22.628   6.207
 4316POPC   D2A54916  33.250  22.721   6.466
 4316POPC   C3A54917  33.172  22.910   6.867
 4316POPC   C4A54918  33.039  22.703   7.265
 4316POPC   C1B54919  33.198  23.155   6.210
 4316POPC   C2B54920  33.122  23.373   6.573
 4316POPC   C3B54921  32.951  23.504   6.938
 4316POPC   C4B54922  33.065  23.242   7.273
 4317POPC   NC354923  36.469  31.370   5.355
 4317POPC   PO454924  37.044  31.358   5.172
 4317POPC   GL154925  36.917  31.354   5.618
 4317POPC   GL254926  36.689  31.638   5.763
 4317POPC   C1A54927  37.031  31.323   6.065
 4317POPC   D2A54928  37.195  31.213   6.476
 4317POPC   C3A54929  36.885  31.285   6.807
 4317POPC   C4A54930  36.937  31.254   7.265
 4317POPC   C1B54931  36.840  31.791   6.184
 4317POPC   C2B54932  36.970  31.808   6.626
 4317POPC   C3B54933  36.850  31.727   7.059
 4317POPC   C4B54934  36.833  31.810   7.492
 4318POPC   NC354935   1.571   7.369   5.031
 4318POPC   PO454936   1.025   7.331   5.467
 4318POPC   GL154937   0.933   7.357   5.858
 4318POPC   GL254938   0.685   7.612   5.837
 4318POPC   C1A54939   1.162   7.267   6.228
 4318POPC   D2A54940   1.376   7.106   6.607
 4318POPC   C3A54941   1.226   7.179   7.020
 4318POPC   C4A54942   1.481   7.359   7.375
 4318POPC   C1B54943   0.848   7.693   6.255
 4318POPC   C2B54944   0.971   7.511   6.660
 4318POPC   C3B54945   0.951   7.598   7.086
 4318POPC   C4B54946   1.176   7.784   7.415
 4319POPC   NC354947  12.605  19.694   5.317
 4319POPC   PO454948  13.180  19.929   5.454
 4319POPC   GL154949  12.870  19.899   5.800
 4319POPC   GL254950  12.531  20.007   5.730
 4319POPC   C1A54951  12.932  19.854   6.270
 4319POPC   D2A54952  13.172  19.792   6.633
 4319POPC   C3A54953  13.054  20.109   6.912
 4319POPC   C4A54954  13.002  20.030   7.319
 4319POPC   C1B54955  12.432  19.833   6.136
 4319POPC   C2B54956  12.421  19.692   6.549
 4319POPC   C3B54957  12.691  19.749   6.884
 4319POPC   C4B54958  12.565  19.772   7.273
 4320POPC   NC354959  37.946  39.477   5.589
 4320POPC   PO454960  37.551  38.987   5.406
 4320POPC   GL154961  37.638  38.977   5.842
 4320POPC   GL254962  37.973  39.053   5.869
 4320POPC   C1A54963  37.471  39.174   6.230
 4320POPC   D2A54964  37.182  39.144   6.600
 4320POPC   C3A54965  37.394  38.979   6.952
 4320POPC   C4A54966  37.616  39.241   7.130
 4320POPC   C1B54967  37.993  39.211   6.263
 4320POPC   C2B54968  37.822  39.173   6.654
 4320POPC   C3B54969  38.076  39.338   6.983
 4320POPC   C4B54970  37.915  39.568   7.334
 4321POPC   NC354971   3.296  11.198   5.684
 4321POPC   PO454972   2.678  10.980   5.415
 4321POPC   GL154973   2.606  11.169   5.850
 4321POPC   GL254974   2.903  11.308   5.953
 4321POPC   C1A54975   2.531  11.322   6.294
 4321POPC   D2A54976   2.605  11.644   6.623
 4321POPC   C3A54977   2.653  11.509   7.031
 4321POPC   C4A54978   2.535  11.127   7.163
 4321POPC   C1B54979   2.972  11.037   6.309
 4321POPC   C2B54980   2.850  11.123   6.723
 4321POPC   C3B54981   3.039  11.142   7.119
 4321POPC   C4B54982   2.873  10.924   7.465
 4322POPC   NC354983  28.104   0.542   5.374
 4322POPC   PO454984  28.004  44.992   5.606
 4322POPC   GL154985  28.282   0.281   5.792
 4322POPC   GL254986  28.186   0.651   5.840
 4322POPC   C1A54987  28.277   0.347   6.215
 4322POPC   D2A54988  28.055   0.389   6.516
 4322POPC   C3A54989  28.294   0.397   6.871
 4322POPC   C4A54990  28.261   0.198   7.272
 4322POPC   C1B54991  28.513   0.779   6.091
 4322POPC   C2B54992  28.453   0.764   6.513
 4322POPC   C3B54993  28.411   0.904   6.921
 4322POPC   C4B54994  28.401   0.691   7.282
 4323POPC   NC354995   1.802  29.512   5.113
 4323POPC   PO454996   2.237  29.925   5.298
 4323POPC   GL154997   2.002  30.072   5.702
 4323POPC   GL254998   1.810  29.805   5.830
 4323POPC   C1A54999   2.152  30.181   6.126
 4323POPC   D2A55000   2.129  29.908   6.476
 4323POPC   C3A55001   2.168  29.879   6.914
 4323POPC   C4A55002   1.962  30.076   7.216
 4323POPC   C1B55003   1.747  29.670   6.254
 4323POPC   C2B55004   1.817  29.549   6.715
 4323POPC   C3B55005   1.668  29.648   7.147
 4323POPC   C4B55006   1.709  29.483   7.594
 4324POPC   NC355007   9.517  43.251   5.415
 4324POPC   PO455008  10.042  42.907   5.531
 4324POPC   GL155009   9.847  42.934   5.922
 4324POPC   GL255010   9.691  43.228   5.895
 4324POPC   C1A55011   9.799  43.107   6.360
 4324POPC   D2A55012   9.919  43.272   6.735
 4324POPC   C3A55013   9.843  43.004   7.037
 4324POPC   C4A55014   9.663  43.169   7.351
 4324POPC   C1B55015   9.384  43.405   6.202
 4324POPC   C2B55016   9.260  43.420   6.634
 4324POPC   C3B55017   9.539  43.503   6.999
 4324POPC   C4B55018   9.691  43.677   7.413
 4325POPC   NC355019  40.139  23.202   5.546
 4325POPC   PO455020  39.776  22.646   5.284
 4325POPC   GL155021  39.807  22.802   5.733
 4325POPC   GL255022  40.038  22.601   5.952
 4325POPC   C1A55023  39.859  23.074   6.125
 4325POPC   D2A55024  40.158  23.235   6.442
 4325POPC   C3A55025  40.208  23.051   6.843
 4325POPC   C4A55026  39.932  23.097   7.173
 4325POPC   C1B55027  40.074  22.697   6.412
 4325POPC   C2B55028  39.768  22.755   6.753
 4325POPC   C3B55029  39.776  22.610   7.165
 4325POPC   C4B55030  40.166  22.678   7.374
 4326POPC   NC355031   8.519  26.706   5.383
 4326POPC   PO455032   8.104  27.216   5.273
 4326POPC   GL155033   8.015  27.065   5.750
 4326POPC   GL255034   8.190  26.715   5.798
 4326POPC   C1A55035   8.095  27.001   6.208
 4326POPC   D2A55036   7.964  26.920   6.629
 4326POPC   C3A55037   8.252  26.857   6.947
 4326POPC   C4A55038   8.165  26.741   7.338
 4326POPC   C1B55039   8.372  26.546   6.184
 4326POPC   C2B55040   8.203  26.448   6.603
 4326POPC   C3B55041   8.359  26.357   7.028
 4326POPC   C4B55042   8.453  26.350   7.484
 4327POPC   NC355043  12.155  10.954   5.411
 4327POPC   PO455044  11.979  10.219   5.425
 4327POPC   GL155045  12.073  10.447   5.812
 4327POPC   GL255046  11.889  10.732   5.868
 4327POPC   C1A55047  11.978  10.344   6.249
 4327POPC   D2A55048  12.208  10.423   6.633
 4327POPC   C3A55049  12.023  10.266   7.001
 4327POPC   C4A55050  12.101  10.390   7.407
 4327POPC   C1B55051  12.154  10.823   6.250
 4327POPC   C2B55052  12.067  10.946   6.676
 4327POPC   C3B55053  12.183  10.801   7.073
 4327POPC   C4B55054  11.890  10.847   7.403
 4328POPC   NC355055  38.419   0.506   5.460
 4328POPC   PO455056  37.837   0.222   5.787
 4328POPC   GL155057  38.273   0.362   5.959
 4328POPC   GL255058  38.472   0.684   5.929
 4328POPC   C1A55059  38.446   0.432   6.378
 4328POPC   D2A55060  38.612   0.129   6.646
 4328POPC   C3A55061  38.436   0.070   7.007
 4328POPC   C4A55062  38.608   0.287   7.339
 4328POPC   C1B55063  38.201   0.908   6.188
 4328POPC   C2B55064  38.228   0.868   6.625
 4328POPC   C3B55065  38.382   0.580   6.915
 4328POPC   C4B55066  38.185   0.550   7.288
 4329POPC   NC355067  39.696   7.216   5.571
 4329POPC   PO455068  40.096   7.687   5.420
 4329POPC   GL155069  40.061   7.679   5.874
 4329POPC   GL255070  40.128   7.318   5.889
 4329POPC   C1A55071  39.990   7.557   6.341
 4329POPC   D2A55072  39.875   7.163   6.583
 4329POPC   C3A55073  39.705   7.227   6.995
 4329POPC   C4A55074  39.807   7.471   7.351
 4329POPC   C1B55075  40.394   7.239   6.245
 4329POPC   C2B55076  40.350   7.302   6.677
 4329POPC   C3B55077  40.191   7.015   6.996
 4329POPC   C4B55078  40.196   7.072   7.408
 4330POPC   NC355079  32.684  10.180   5.373
 4330POPC   PO455080  32.968  10.785   5.345
 4330POPC   GL155081  32.972  10.685   5.767
 4330POPC   GL255082  33.108  10.373   5.738
 4330POPC   C1A55083  32.873  10.710   6.216
 4330POPC   D2A55084  33.090  10.891   6.584
 4330POPC   C3A55085  33.117  10.614   6.946
 4330POPC   C4A55086  32.794  10.582   7.246
 4330POPC   C1B55087  33.083  10.206   6.172
 4330POPC   C2B55088  32.938  10.294   6.604
 4330POPC   C3B55089  32.892  10.106   7.027
 4330POPC   C4B55090  32.888  10.122   7.496
 4331POPC   NC355091  27.395   7.593   5.446
 4331POPC   PO455092  27.905   7.186   5.540
 4331POPC   GL155093  27.766   7.507   5.815
 4331POPC   GL255094  27.412   7.409   5.924
 4331POPC   C1A55095  27.731   7.691   6.213
 4331POPC   D2A55096  27.526   7.518   6.585
 4331POPC   C3A55097  27.729   7.486   7.003
 4331POPC   C4A55098  28.012   7.385   7.351
 4331POPC   C1B55099  27.207   7.740   6.175
 4331POPC   C2B55100  27.169   7.907   6.615
 4331POPC   C3B55101  27.278   7.735   6.996
 4331POPC   C4B55102  27.519   7.876   7.306
 4332POPC   NC355103  27.355  32.397   5.196
 4332POPC   PO455104  26.745  32.042   5.146
 4332POPC   GL155105  26.835  32.004   5.724
 4332POPC   GL255106  26.842  32.345   5.885
 4332POPC   C1A55107  26.701  31.900   6.149
 4332POPC   D2A55108  26.651  32.163   6.531
 4332POPC   C3A55109  26.660  32.123   7.002
 4332POPC   C4A55110  26.533  32.473   7.306
 4332POPC   C1B55111  27.132  32.179   6.203
 4332POPC   C2B55112  27.168  32.115   6.636
 4332POPC   C3B55113  27.107  32.390   6.960
 4332POPC   C4B55114  27.005  32.270   7.391
 4333POPC   NC355115   3.208   1.294   4.860
 4333POPC   PO455116   2.825   1.243   5.376
 4333POPC   GL155117   2.793   1.419   5.768
 4333POPC   GL255118   2.477   1.293   5.879
 4333POPC   C1A55119   2.989   1.427   6.172
 4333POPC   D2A55120   2.960   1.152   6.551
 4333POPC   C3A55121   2.726   1.263   6.934
 4333POPC   C4A55122   2.617   1.094   7.359
 4333POPC   C1B55123   2.514   1.336   6.340
 4333POPC   C2B55124   2.247   1.318   6.683
 4333POPC   C3B55125   2.176   1.237   7.093
 4333POPC   C4B55126   2.189   1.406   7.496
 4334POPC   NC355127  10.147  19.614   5.345
 4334POPC   PO455128  10.824  19.718   5.545
 4334POPC   GL155129  10.454  19.795   5.765
 4334POPC   GL255130  10.685  19.989   5.952
 4334POPC   C1A55131  10.282  19.812   6.174
 4334POPC   D2A55132  10.539  19.765   6.541
 4334POPC   C3A55133  10.304  19.846   6.910
 4334POPC   C4A55134  10.370  19.687   7.288
 4334POPC   C1B55135  10.956  20.105   6.283
 4334POPC   C2B55136  11.020  19.891   6.646
 4334POPC   C3B55137  10.818  19.766   7.028
 4334POPC   C4B55138  10.761  20.006   7.413
 4335POPC   NC355139  19.508  28.584   5.127
 4335POPC   PO455140  20.026  28.218   5.384
 4335POPC   GL155141  19.928  28.196   5.837
 4335POPC   GL255142  19.624  28.434   5.852
 4335POPC   C1A55143  19.947  28.356   6.262
 4335POPC   D2A55144  19.630  28.532   6.551
 4335POPC   C3A55145  19.678  28.501   6.993
 4335POPC   C4A55146  20.039  28.448   7.227
 4335POPC   C1B55147  19.512  28.104   6.166
 4335POPC   C2B55148  19.758  27.924   6.483
 4335POPC   C3B55149  19.969  28.082   6.833
 4335POPC   C4B55150  19.737  28.020   7.187
 4336POPC   NC355151  22.537   4.437   5.287
 4336POPC   PO455152  23.117   4.040   5.306
 4336POPC   GL155153  22.971   4.254   5.697
 4336POPC   GL255154  22.606   4.352   5.777
 4336POPC   C1A55155  23.175   4.460   6.062
 4336POPC   D2A55156  22.997   4.400   6.478
 4336POPC   C3A55157  23.171   4.471   6.879
 4336POPC   C4A55158  22.941   4.476   7.274
 4336POPC   C1B55159  22.542   4.199   6.178
 4336POPC   C2B55160  22.635   4.000   6.552
 4336POPC   C3B55161  22.655   4.272   6.886
 4336POPC   C4B55162  22.597   4.051   7.257
 4337POPC   NC355163  44.982   2.925   5.272
 4337POPC   PO455164  44.350   2.716   5.428
 4337POPC   GL155165  44.617   2.921   5.791
 4337POPC   GL255166  44.936   3.160   5.750
 4337POPC   C1A55167  44.514   2.901   6.260
 4337POPC   D2A55168  44.443   3.158   6.641
 4337POPC   C3A55169  44.480   2.922   7.039
 4337POPC   C4A55170  44.432   2.686   7.462
 4337POPC   C1B55171   0.117   3.202   6.185
 4337POPC   C2B55172  44.934   3.016   6.570
 4337POPC   C3B55173  44.985   2.861   7.000
 4337POPC   C4B55174  44.835   3.013   7.407
 4338POPC   NC355175  42.761  26.477   5.537
 4338POPC   PO455176  43.185  26.967   5.547
 4338POPC   GL155177  43.038  26.753   5.909
 4338POPC   GL255178  42.789  26.485   6.037
 4338POPC   C1A55179  42.931  26.860   6.329
 4338POPC   D2A55180  43.001  27.112   6.651
 4338POPC   C3A55181  42.840  26.877   6.929
 4338POPC   C4A55182  42.998  26.993   7.267
 4338POPC   C1B55183  43.231  26.444   6.254
 4338POPC   C2B55184  43.367  26.731   6.581
 4338POPC   C3B55185  43.296  26.661   6.995
 4338POPC   C4B55186  43.184  26.527   7.408
 4339POPC   NC355187   9.228  24.542   5.206
 4339POPC   PO455188   9.842  24.546   5.361
 4339POPC   GL155189   9.643  24.467   5.730
 4339POPC   GL255190   9.861  24.743   5.841
 4339POPC   C1A55191   9.751  24.340   6.158
 4339POPC   D2A55192   9.954  24.342   6.563
 4339POPC   C3A55193   9.700  24.286   6.914
 4339POPC   C4A55194   9.899  24.248   7.287
 4339POPC   C1B55195   9.592  24.857   6.165
 4339POPC   C2B55196   9.798  24.908   6.548
 4339POPC   C3B55197   9.888  24.763   6.950
 4339POPC   C4B55198   9.574  24.670   7.249
 4340POPC   NC355199  35.051  15.825   5.389
 4340POPC   PO455200  35.613  16.219   5.362
 4340POPC   GL155201  35.307  16.159   5.708
 4340POPC   GL255202  35.344  15.835   5.806
 4340POPC   C1A55203  35.232  16.196   6.177
 4340POPC   D2A55204  35.411  16.338   6.585
 4340POPC   C3A55205  35.224  16.401   6.983
 4340POPC   C4A55206  35.332  16.186   7.351
 4340POPC   C1B55207  35.153  15.684   6.162
 4340POPC   C2B55208  35.314  15.739   6.569
 4340POPC   C3B55209  35.221  15.851   6.977
 4340POPC   C4B55210  34.988  15.598   7.238
 4341POPC   NC355211   9.005   0.703   5.438
 4341POPC   PO455212   8.928   0.081   5.377
 4341POPC   GL155213   9.142   0.317   5.755
 4341POPC   GL255214   9.178   0.703   5.907
 4341POPC   C1A55215   8.991   0.303   6.177
 4341POPC   D2A55216   8.828   0.502   6.563
 4341POPC   C3A55217   9.075   0.503   6.938
 4341POPC   C4A55218   8.866   0.377   7.262
 4341POPC   C1B55219   8.755   0.792   6.129
 4341POPC   C2B55220   8.558   0.942   6.518
 4341POPC   C3B55221   8.733   0.881   6.939
 4341POPC   C4B55222   8.974   0.883   7.332
 4342POPC   NC355223  14.144   2.332   5.598
 4342POPC   PO455224  13.803   1.757   5.437
 4342POPC   GL155225  13.540   1.806   5.780
 4342POPC   GL255226  13.543   2.151   5.784
 4342POPC   C1A55227  13.640   1.774   6.206
 4342POPC   D2A55228  13.449   1.693   6.568
 4342POPC   C3A55229  13.678   1.815   6.929
 4342POPC   C4A55230  13.648   2.020   7.320
 4342POPC   C1B55231  13.309   2.152   6.165
 4342POPC   C2B55232  13.462   2.204   6.585
 4342POPC   C3B55233  13.258   2.117   6.975
 4342POPC   C4B55234  13.173   2.128   7.381
 4343POPC   NC355235  38.057  40.961   5.599
 4343POPC   PO455236  38.635  40.597   5.449
 4343POPC   GL155237  38.451  40.704   5.822
 4343POPC   GL255238  38.568  41.015   5.846
 4343POPC   C1A55239  38.470  40.713   6.267
 4343POPC   D2A55240  38.293  40.731   6.666
 4343POPC   C3A55241  38.483  40.604   7.038
 4343POPC   C4A55242  38.398  40.619   7.483
 4343POPC   C1B55243  38.646  41.204   6.208
 4343POPC   C2B55244  38.667  41.076   6.598
 4343POPC   C3B55245  38.443  41.119   6.967
 4343POPC   C4B55246  38.571  41.093   7.388
 4344POPC   NC355247  15.321  35.659   5.368
 4344POPC   PO455248  15.152  36.343   5.371
 4344POPC   GL155249  15.139  35.997   5.709
 4344POPC   GL255250  15.157  36.247   5.936
 4344POPC   C1A55251  15.008  35.781   6.141
 4344POPC   D2A55252  14.952  35.895   6.609
 4344POPC   C3A55253  15.288  36.028   6.865
 4344POPC   C4A55254  15.396  36.153   7.253
 4344POPC   C1B55255  15.316  36.151   6.341
 4344POPC   C2B55256  15.123  36.442   6.609
 4344POPC   C3B55257  14.956  36.453   6.991
 4344POPC   C4B55258  14.940  36.560   7.410
 4345POPC   NC355259  24.007   5.306   5.501
 4345POPC   PO455260  23.400   4.976   5.515
 4345POPC   GL155261  23.589   4.893   5.909
 4345POPC   GL255262  23.940   5.005   5.934
 4345POPC   C1A55263  23.644   4.886   6.357
 4345POPC   D2A55264  23.816   5.135   6.692
 4345POPC   C3A55265  23.508   5.126   7.020
 4345POPC   C4A55266  23.426   4.740   7.246
 4345POPC   C1B55267  23.965   5.374   6.239
 4345POPC   C2B55268  23.997   5.614   6.642
 4345POPC   C3B55269  24.027   5.438   7.059
 4345POPC   C4B55270  23.952   5.039   7.233
 4346POPC   NC355271  23.975  11.872   5.347
 4346POPC   PO455272  23.326  12.108   5.203
 4346POPC   GL155273  23.533  11.923   5.616
 4346POPC   GL255274  23.334  11.876   5.895
 4346POPC   C1A55275  23.864  11.997   5.980
 4346POPC   D2A55276  23.995  11.945   6.426
 4346POPC   C3A55277  23.689  11.885   6.754
 4346POPC   C4A55278  23.873  12.001   7.146
 4346POPC   C1B55279  23.462  12.100   6.279
 4346POPC   C2B55280  23.318  12.365   6.613
 4346POPC   C3B55281  23.439  12.289   7.019
 4346POPC   C4B55282  23.373  11.921   7.274
 4347POPC   NC355283  31.987   9.092   5.403
 4347POPC   PO455284  32.584   8.967   5.571
 4347POPC   GL155285  32.269   9.110   5.848
 4347POPC   GL255286  31.912   9.251   5.877
 4347POPC   C1A55287  32.281   9.157   6.266
 4347POPC   D2A55288  32.433   8.910   6.589
 4347POPC   C3A55289  32.318   9.144   6.899
 4347POPC   C4A55290  32.515   9.193   7.245
 4347POPC   C1B55291  31.853   8.897   6.155
 4347POPC   C2B55292  31.900   8.935   6.592
 4347POPC   C3B55293  31.842   9.016   7.014
 4347POPC   C4B55294  32.067   8.919   7.360
 4348POPC   NC355295  12.673  27.154   5.456
 4348POPC   PO455296  12.880  26.555   5.223
 4348POPC   GL155297  12.793  26.694   5.689
 4348POPC   GL255298  13.015  26.973   5.834
 4348POPC   C1A55299  12.802  26.635   6.157
 4348POPC   D2A55300  13.002  26.555   6.557
 4348POPC   C3A55301  12.771  26.669   6.905
 4348POPC   C4A55302  12.946  26.769   7.244
 4348POPC   C1B55303  12.691  27.127   6.124
 4348POPC   C2B55304  12.574  26.979   6.533
 4348POPC   C3B55305  12.761  27.221   6.853
 4348POPC   C4B55306  12.930  27.265   7.236
 4349POPC   NC355307   3.014  12.048   5.560
 4349POPC   PO455308   2.372  11.841   5.416
 4349POPC   GL155309   2.557  12.048   5.855
 4349POPC   GL255310   2.909  12.172   6.032
 4349POPC   C1A55311   2.517  12.063   6.326
 4349POPC   D2A55312   2.881  12.094   6.584
 4349POPC   C3A55313   2.784  12.007   6.974
 4349POPC   C4A55314   2.730  12.315   7.230
 4349POPC   C1B55315   2.907  11.735   6.215
 4349POPC   C2B55316   3.128  11.564   6.604
 4349POPC   C3B55317   3.161  11.649   7.074
 4349POPC   C4B55318   3.039  11.953   7.421
 4350POPC   NC355319  15.542  41.956   5.414
 4350POPC   PO455320  14.902  41.705   5.376
 4350POPC   GL155321  15.154  41.714   5.751
 4350POPC   GL255322  15.476  41.551   5.700
 4350POPC   C1A55323  15.138  41.552   6.192
 4350POPC   D2A55324  14.837  41.426   6.499
 4350POPC   C3A55325  15.007  41.378   6.901
 4350POPC   C4A55326  15.151  41.631   7.219
 4350POPC   C1B55327  15.604  41.379   6.071
 4350POPC   C2B55328  15.599  41.540   6.461
 4350POPC   C3B55329  15.527  41.418   6.887
 4350POPC   C4B55330  15.447  41.248   7.294
 4351POPC   NC355331  33.515  37.124   5.488
 4351POPC   PO455332  32.992  36.611   5.481
 4351POPC   GL155333  32.975  36.819   5.864
 4351POPC   GL255334  33.322  36.837   5.879
 4351POPC   C1A55335  32.666  36.897   6.220
 4351POPC   D2A55336  32.458  36.823   6.644
 4351POPC   C3A55337  32.722  37.015   6.938
 4351POPC   C4A55338  32.968  36.848   7.235
 4351POPC   C1B55339  33.212  36.699   6.302
 4351POPC   C2B55340  33.197  36.719   6.763
 4351POPC   C3B55341  33.321  36.514   7.159
 4351POPC   C4B55342  33.249  36.629   7.626
 4352POPC   NC355343  21.694  19.345   5.368
 4352POPC   PO455344  21.809  18.688   5.310
 4352POPC   GL155345  21.574  18.876   5.695
 4352POPC   GL255346  21.379  19.208   5.741
 4352POPC   C1A55347  21.566  18.944   6.174
 4352POPC   D2A55348  21.336  18.958   6.589
 4352POPC   C3A55349  21.581  18.961   6.967
 4352POPC   C4A55350  21.186  18.889   7.154
 4352POPC   C1B55351  21.572  19.440   6.119
 4352POPC   C2B55352  21.682  19.318   6.579
 4352POPC   C3B55353  21.549  19.471   7.010
 4352POPC   C4B55354  21.473  19.442   7.478
 4353POPC   NC355355  17.985  28.319   5.475
 4353POPC   PO455356  18.558  28.730   5.496
 4353POPC   GL155357  18.314  28.519   5.855
 4353POPC   GL255358  18.244  28.161   5.921
 4353POPC   C1A55359  18.334  28.550   6.303
 4353POPC   D2A55360  18.215  28.735   6.703
 4353POPC   C3A55361  18.331  28.566   7.066
 4353POPC   C4A55362  18.483  28.536   7.492
 4353POPC   C1B55363  18.006  28.163   6.319
 4353POPC   C2B55364  18.226  28.170   6.743
 4353POPC   C3B55365  18.269  28.072   7.207
 4353POPC   C4B55366  18.103  28.003   7.589
 4354POPC   NC355367  23.486  21.078   5.500
 4354POPC   PO455368  22.842  20.820   5.483
 4354POPC   GL155369  23.113  20.879   5.828
 4354POPC   GL255370  22.811  20.718   5.995
 4354POPC   C1A55371  23.136  20.966   6.280
 4354POPC   D2A55372  22.858  20.735   6.557
 4354POPC   C3A55373  23.016  20.685   6.967
 4354POPC   C4A55374  23.304  20.785   7.270
 4354POPC   C1B55375  23.145  20.462   6.190
 4354POPC   C2B55376  23.140  20.239   6.575
 4354POPC   C3B55377  23.278  20.233   6.962
 4354POPC   C4B55378  23.122  20.321   7.362
 4355POPC   NC355379   3.942   6.918   5.351
 4355POPC   PO455380   4.378   6.418   5.415
 4355POPC   GL155381   4.221   6.499   5.804
 4355POPC   GL255382   4.146   6.822   5.804
 4355POPC   C1A55383   4.291   6.440   6.264
 4355POPC   D2A55384   4.242   6.236   6.679
 4355POPC   C3A55385   4.331   6.568   7.006
 4355POPC   C4A55386   4.059   6.642   7.386
 4355POPC   C1B55387   3.938   6.963   6.172
 4355POPC   C2B55388   4.031   6.773   6.571
 4355POPC   C3B55389   4.012   6.948   6.966
 4355POPC   C4B55390   3.916   7.191   7.298
 4356POPC   NC355391  15.057   0.472   5.441
 4356POPC   PO455392  15.475   0.012   5.488
 4356POPC   GL155393  15.267   0.252   5.861
 4356POPC   GL255394  14.913   0.178   5.863
 4356POPC   C1A55395  15.342   0.369   6.313
 4356POPC   D2A55396  15.417   0.103   6.697
 4356POPC   C3A55397  15.384   0.281   7.101
 4356POPC   C4A55398  15.602   0.661   7.227
 4356POPC   C1B55399  14.810   0.433   6.226
 4356POPC   C2B55400  14.989   0.717   6.545
 4356POPC   C3B55401  15.025   0.616   6.972
 4356POPC   C4B55402  14.875   0.306   7.230
 4357POPC   NC355403   5.930   2.059   5.093
 4357POPC   PO455404   5.505   1.593   5.105
 4357POPC   GL155405   5.676   1.855   5.546
 4357POPC   GL255406   5.900   2.166   5.710
 4357POPC   C1A55407   5.770   1.814   6.032
 4357POPC   D2A55408   5.655   1.924   6.473
 4357POPC   C3A55409   5.899   1.949   6.870
 4357POPC   C4A55410   6.038   1.811   7.301
 4357POPC   C1B55411   5.775   2.331   6.172
 4357POPC   C2B55412   5.637   2.407   6.616
 4357POPC   C3B55413   5.534   2.460   7.024
 4357POPC   C4B55414   5.748   2.230   7.312
 4358POPC   NC355415  30.226  10.698   5.588
 4358POPC   PO455416  29.658  10.372   5.519
 4358POPC   GL155417  29.751  10.648   5.877
 4358POPC   GL255418  29.817  11.020   5.745
 4358POPC   C1A55419  29.930  10.479   6.304
 4358POPC   D2A55420  30.177  10.288   6.682
 4358POPC   C3A55421  30.012  10.314   7.131
 4358POPC   C4A55422  29.696  10.610   7.379
 4358POPC   C1B55423  29.997  10.985   6.174
 4358POPC   C2B55424  29.731  10.869   6.540
 4358POPC   C3B55425  29.853  10.749   6.907
 4358POPC   C4B55426  29.989  10.983   7.240
 4359POPC   NC355427  19.299   3.254   5.495
 4359POPC   PO455428  18.672   3.552   5.659
 4359POPC   GL155429  18.976   3.368   5.913
 4359POPC   GL255430  19.248   3.592   5.870
 4359POPC   C1A55431  19.302   3.199   6.206
 4359POPC   D2A55432  19.497   3.347   6.586
 4359POPC   C3A55433  19.236   3.340   6.917
 4359POPC   C4A55434  19.112   3.431   7.328
 4359POPC   C1B55435  19.152   3.710   6.282
 4359POPC   C2B55436  18.835   3.798   6.566
 4359POPC   C3B55437  18.997   3.804   6.969
 4359POPC   C4B55438  19.129   3.929   7.365
 4360POPC   NC355439  35.608  37.971   5.132
 4360POPC   PO455440  35.368  37.412   5.332
 4360POPC   GL155441  35.532  37.532   5.768
 4360POPC   GL255442  35.381  37.800   5.998
 4360POPC   C1A55443  35.663  37.420   6.208
 4360POPC   D2A55444  35.577  37.714   6.537
 4360POPC   C3A55445  35.540  37.570   6.952
 4360POPC   C4A55446  35.527  37.887   7.243
 4360POPC   C1B55447  35.100  37.579   6.290
 4360POPC   C2B55448  35.003  37.471   6.720
 4360POPC   C3B55449  35.069  37.630   7.137
 4360POPC   C4B55450  35.175  37.723   7.581
 4361POPC   NC355451  25.042   3.660   5.194
 4361POPC   PO455452  25.652   3.650   5.331
 4361POPC   GL155453  25.409   3.593   5.722
 4361POPC   GL255454  25.091   3.745   5.705
 4361POPC   C1A55455  25.420   3.609   6.187
 4361POPC   D2A55456  25.587   3.391   6.544
 4361POPC   C3A55457  25.419   3.466   6.914
 4361POPC   C4A55458  25.527   3.476   7.325
 4361POPC   C1B55459  24.935   3.489   6.027
 4361POPC   C2B55460  24.973   3.477   6.460
 4361POPC   C3B55461  24.958   3.290   6.843
 4361POPC   C4B55462  24.906   3.285   7.270
 4362POPC   NC355463   8.182   4.432   5.146
 4362POPC   PO455464   8.482   4.047   5.621
 4362POPC   GL155465   8.343   4.305   5.967
 4362POPC   GL255466   8.210   4.620   5.820
 4362POPC   C1A55467   8.103   4.329   6.353
 4362POPC   D2A55468   8.028   4.216   6.782
 4362POPC   C3A55469   8.286   4.338   7.025
 4362POPC   C4A55470   8.472   4.192   7.364
 4362POPC   C1B55471   7.916   4.751   6.121
 4362POPC   C2B55472   7.699   4.747   6.501
 4362POPC   C3B55473   7.899   4.712   6.883
 4362POPC   C4B55474   7.803   4.480   7.203
 4363POPC   NC355475  13.873  11.969   5.110
 4363POPC   PO455476  13.543  11.368   5.260
 4363POPC   GL155477  13.406  11.270   5.692
 4363POPC   GL255478  13.397  11.539   5.943
 4363POPC   C1A55479  13.552  11.104   6.121
 4363POPC   D2A55480  13.427  11.331   6.514
 4363POPC   C3A55481  13.551  11.144   6.923
 4363POPC   C4A55482  13.484  11.350   7.306
 4363POPC   C1B55483  13.795  11.565   6.228
 4363POPC   C2B55484  13.926  11.391   6.650
 4363POPC   C3B55485  13.945  11.503   7.104
 4363POPC   C4B55486  13.870  11.506   7.584
 4364POPC   NC355487  27.359  20.316   5.080
 4364POPC   PO455488  27.838  20.467   5.487
 4364POPC   GL155489  27.505  20.441   5.807
 4364POPC   GL255490  27.542  20.126   5.845
 4364POPC   C1A55491  27.341  20.514   6.240
 4364POPC   D2A55492  27.725  20.518   6.534
 4364POPC   C3A55493  27.657  20.591   6.944
 4364POPC   C4A55494  27.293  20.819   7.124
 4364POPC   C1B55495  27.631  20.107   6.234
 4364POPC   C2B55496  27.330  20.053   6.530
 4364POPC   C3B55497  27.179  20.342   6.834
 4364POPC   C4B55498  27.323  20.323   7.250
 4365POPC   NC355499  35.833   5.672   5.550
 4365POPC   PO455500  35.654   6.331   5.464
 4365POPC   GL155501  35.638   6.062   5.824
 4365POPC   GL255502  35.352   5.823   5.758
 4365POPC   C1A55503  35.545   5.998   6.258
 4365POPC   D2A55504  35.279   6.211   6.549
 4365POPC   C3A55505  35.275   5.998   6.920
 4365POPC   C4A55506  35.609   5.815   7.161
 4365POPC   C1B55507  35.055   5.819   6.113
 4365POPC   C2B55508  34.914   5.826   6.522
 4365POPC   C3B55509  34.978   5.578   6.866
 4365POPC   C4B55510  35.115   5.648   7.256
 4366POPC   NC355511  12.181  33.416   5.635
 4366POPC   PO455512  12.564  33.915   5.287
 4366POPC   GL155513  12.265  33.911   5.685
 4366POPC   GL255514  11.941  34.069   5.821
 4366POPC   C1A55515  12.377  33.968   6.118
 4366POPC   D2A55516  12.397  34.133   6.515
 4366POPC   C3A55517  12.318  33.862   6.864
 4366POPC   C4A55518  12.199  33.802   7.291
 4366POPC   C1B55519  11.922  33.778   6.213
 4366POPC   C2B55520  11.708  33.564   6.535
 4366POPC   C3B55521  11.820  33.634   6.955
 4366POPC   C4B55522  11.718  33.537   7.353
 4367POPC   NC355523  30.385  36.371   5.328
 4367POPC   PO455524  29.759  36.087   5.467
 4367POPC   GL155525  29.848  36.180   5.877
 4367POPC   GL255526  30.117  36.381   5.765
 4367POPC   C1A55527  29.931  35.957   6.286
 4367POPC   D2A55528  30.105  36.070   6.702
 4367POPC   C3A55529  29.798  35.908   7.040
 4367POPC   C4A55530  29.707  36.085   7.472
 4367POPC   C1B55531  30.328  36.350   6.138
 4367POPC   C2B55532  30.385  36.632   6.494
 4367POPC   C3B55533  30.311  36.535   6.928
 4367POPC   C4B55534  30.141  36.242   7.192
 4368POPC   NC355535  32.834   8.591   5.483
 4368POPC   PO455536  33.184   9.214   5.447
 4368POPC   GL155537  33.091   8.914   5.776
 4368POPC   GL255538  33.300   8.599   5.699
 4368POPC   C1A55539  32.811   8.851   6.166
 4368POPC   D2A55540  32.956   9.015   6.547
 4368POPC   C3A55541  32.860   8.873   6.944
 4368POPC   C4A55542  33.082   9.051   7.292
 4368POPC   C1B55543  33.229   8.536   6.123
 4368POPC   C2B55544  33.286   8.593   6.538
 4368POPC   C3B55545  33.267   8.500   6.953
 4368POPC   C4B55546  33.336   8.581   7.340
 4369POPC   NC355547  33.486  13.078   5.572
 4369POPC   PO455548  33.840  12.499   5.452
 4369POPC   GL155549  33.785  12.703   5.814
 4369POPC   GL255550  33.466  12.523   5.820
 4369POPC   C1A55551  33.950  12.801   6.227
 4369POPC   D2A55552  33.798  12.831   6.647
 4369POPC   C3A55553  33.945  12.886   7.062
 4369POPC   C4A55554  33.679  13.123   7.328
 4369POPC   C1B55555  33.435  12.660   6.242
 4369POPC   C2B55556  33.475  12.431   6.637
 4369POPC   C3B55557  33.455  12.672   7.037
 4369POPC   C4B55558  33.588  12.649   7.467
 4370POPC   NC355559  36.593  34.464   5.491
 4370POPC   PO455560  35.948  34.874   5.523
 4370POPC   GL155561  36.240  34.669   5.856
 4370POPC   GL255562  36.517  34.851   5.927
 4370POPC   C1A55563  36.298  34.550   6.338
 4370POPC   D2A55564  36.057  34.739   6.703
 4370POPC   C3A55565  35.763  34.524   6.983
 4370POPC   C4A55566  35.871  34.213   7.282
 4370POPC   C1B55567  36.319  35.058   6.291
 4370POPC   C2B55568  36.518  34.991   6.689
 4370POPC   C3B55569  36.536  34.575   6.856
 4370POPC   C4B55570  36.238  34.559   7.191
 4371POPC   NC355571  40.613  35.467   5.307
 4371POPC   PO455572  40.882  34.899   5.427
 4371POPC   GL155573  40.609  35.069   5.747
 4371POPC   GL255574  40.642  35.424   5.811
 4371POPC   C1A55575  40.724  35.071   6.207
 4371POPC   D2A55576  40.861  35.275   6.599
 4371POPC   C3A55577  40.684  35.206   7.017
 4371POPC   C4A55578  40.993  35.392   7.323
 4371POPC   C1B55579  40.798  35.582   6.165
 4371POPC   C2B55580  40.779  35.769   6.516
 4371POPC   C3B55581  40.684  35.704   6.921
 4371POPC   C4B55582  40.653  35.759   7.322
 4372POPC   NC355583  19.676  25.257   5.366
 4372POPC   PO455584  20.246  25.421   5.617
 4372POPC   GL155585  19.845  25.521   5.768
 4372POPC   GL255586  19.651  25.228   5.877
 4372POPC   C1A55587  19.778  25.652   6.168
 4372POPC   D2A55588  19.754  25.433   6.573
 4372POPC   C3A55589  19.904  25.636   6.921
 4372POPC   C4A55590  19.827  25.534   7.325
 4372POPC   C1B55591  19.974  25.159   6.185
 4372POPC   C2B55592  19.970  24.936   6.581
 4372POPC   C3B55593  19.784  25.027   6.979
 4372POPC   C4B55594  19.929  25.034   7.406
 4373POPC   NC355595  10.943   7.487   5.481
 4373POPC   PO455596  11.605   7.545   5.499
 4373POPC   GL155597  11.347   7.433   5.815
 4373POPC   GL255598  11.209   7.741   5.875
 4373POPC   C1A55599  11.136   7.419   6.251
 4373POPC   D2A55600  11.134   7.690   6.615
 4373POPC   C3A55601  11.012   7.406   6.927
 4373POPC   C4A55602  11.218   7.272   7.275
 4373POPC   C1B55603  11.609   7.615   6.192
 4373POPC   C2B55604  11.838   7.638   6.606
 4373POPC   C3B55605  11.554   7.629   6.968
 4373POPC   C4B55606  11.217   7.793   7.189
 4374POPC   NC355607   7.725  12.262   5.302
 4374POPC   PO455608   8.252  11.901   5.476
 4374POPC   GL155609   8.334  12.042   5.863
 4374POPC   GL255610   7.970  11.965   5.956
 4374POPC   C1A55611   8.371  11.962   6.294
 4374POPC   D2A55612   8.018  11.832   6.513
 4374POPC   C3A55613   7.973  12.033   6.889
 4374POPC   C4A55614   8.174  11.992   7.256
 4374POPC   C1B55615   8.060  12.357   6.175
 4374POPC   C2B55616   7.967  12.483   6.598
 4374POPC   C3B55617   7.764  12.511   6.986
 4374POPC   C4B55618   7.712  12.201   7.296
 4375POPC   NC355619  40.316  44.883   5.426
 4375POPC   PO455620  40.115  44.277   5.172
 4375POPC   GL155621  40.123  44.455   5.612
 4375POPC   GL255622  40.494  44.445   5.693
 4375POPC   C1A55623  39.946  44.730   5.977
 4375POPC   D2A55624  39.986  44.838   6.441
 4375POPC   C3A55625  39.795  44.711   6.853
 4375POPC   C4A55626  40.061  44.874   7.228
 4375POPC   C1B55627  40.292  44.406   6.122
 4375POPC   C2B55628  40.381  44.522   6.546
 4375POPC   C3B55629  40.240  44.486   6.956
 4375POPC   C4B55630  39.931  44.266   7.196
 4376POPC   NC355631  16.131  23.443   5.565
 4376POPC   PO455632  16.235  22.706   5.451
 4376POPC   GL155633  15.942  22.946   5.700
 4376POPC   GL255634  16.068  22.698   5.932
 4376POPC   C1A55635  15.867  23.102   6.135
 4376POPC   D2A55636  15.959  22.839   6.484
 4376POPC   C3A55637  15.788  22.952   6.869
 4376POPC   C4A55638  15.924  23.122   7.232
 4376POPC   C1B55639  16.376  22.634   6.248
 4376POPC   C2B55640  16.415  22.670   6.664
 4376POPC   C3B55641  16.230  22.627   7.035
 4376POPC   C4B55642  16.289  22.576   7.485
 4377POPC   NC355643   4.161  28.095   5.489
 4377POPC   PO455644   4.388  28.697   5.436
 4377POPC   GL155645   4.447  28.458   5.829
 4377POPC   GL255646   4.153  28.274   5.967
 4377POPC   C1A55647   4.444  28.555   6.276
 4377POPC   D2A55648   4.303  28.410   6.678
 4377POPC   C3A55649   4.578  28.558   7.029
 4377POPC   C4A55650   4.793  28.698   7.400
 4377POPC   C1B55651   4.497  28.032   6.209
 4377POPC   C2B55652   4.653  27.845   6.616
 4377POPC   C3B55653   4.482  28.033   6.994
 4377POPC   C4B55654   4.116  28.314   7.141
 4378POPC   NC355655  29.874   1.097   5.416
 4378POPC   PO455656  29.852   1.680   5.372
 4378POPC   GL155657  29.726   1.473   5.806
 4378POPC   GL255658  30.003   1.271   5.879
 4378POPC   C1A55659  29.636   1.242   6.239
 4378POPC   D2A55660  29.765   0.974   6.627
 4378POPC   C3A55661  29.900   1.204   6.974
 4378POPC   C4A55662  30.031   1.265   7.405
 4378POPC   C1B55663  30.140   1.152   6.296
 4378POPC   C2B55664  30.310   1.275   6.677
 4378POPC   C3B55665  30.430   1.172   7.074
 4378POPC   C4B55666  30.357   0.761   7.179
 4379POPC   NC355667   0.060   5.986   5.383
 4379POPC   PO455668   0.605   5.617   5.594
 4379POPC   GL155669   0.479   5.765   5.958
 4379POPC   GL255670   0.128   5.812   5.859
 4379POPC   C1A55671   0.653   6.009   6.307
 4379POPC   D2A55672   0.808   6.268   6.639
 4379POPC   C3A55673   0.669   6.073   6.995
 4379POPC   C4A55674   0.510   5.710   7.165
 4379POPC   C1B55675   0.138   5.983   6.263
 4379POPC   C2B55676   0.166   5.840   6.661
 4379POPC   C3B55677   0.091   6.088   6.998
 4379POPC   C4B55678   0.314   6.140   7.352
 4380POPC   NC355679  19.462   5.399   5.432
 4380POPC   PO455680  19.782   4.722   5.541
 4380POPC   GL155681  19.932   5.026   5.870
 4380POPC   GL255682  19.950   5.387   5.825
 4380POPC   C1A55683  20.134   5.010   6.257
 4380POPC   D2A55684  20.000   4.822   6.629
 4380POPC   C3A55685  20.141   5.004   7.034
 4380POPC   C4A55686  19.947   5.045   7.448
 4380POPC   C1B55687  19.773   5.372   6.271
 4380POPC   C2B55688  19.747   5.264   6.733
 4380POPC   C3B55689  19.493   5.250   7.128
 4380POPC   C4B55690  19.524   5.296   7.590
 4381POPC   NC355691  31.278  38.654   4.998
 4381POPC   PO455692  31.571  38.398   5.568
 4381POPC   GL155693  31.459  38.467   5.972
 4381POPC   GL255694  31.232  38.185   5.928
 4381POPC   C1A55695  31.513  38.829   6.265
 4381POPC   D2A55696  31.873  38.855   6.556
 4381POPC   C3A55697  31.796  38.597   6.924
 4381POPC   C4A55698  31.525  38.765   7.230
 4381POPC   C1B55699  31.137  38.363   6.364
 4381POPC   C2B55700  31.077  38.451   6.828
 4381POPC   C3B55701  31.328  38.304   7.173
 4381POPC   C4B55702  31.688  38.059   7.066
 4382POPC   NC355703  37.211   4.969   5.413
 4382POPC   PO455704  36.947   5.569   5.336
 4382POPC   GL155705  36.951   5.312   5.709
 4382POPC   GL255706  37.265   5.351   5.789
 4382POPC   C1A55707  36.840   5.077   6.094
 4382POPC   D2A55708  36.940   4.935   6.522
 4382POPC   C3A55709  36.697   5.098   6.860
 4382POPC   C4A55710  36.751   4.898   7.240
 4382POPC   C1B55711  37.337   5.217   6.207
 4382POPC   C2B55712  37.243   5.333   6.614
 4382POPC   C3B55713  37.206   5.161   7.015
 4382POPC   C4B55714  37.392   5.357   7.344
 4383POPC   NC355715  29.037   1.573   5.146
 4383POPC   PO455716  29.408   1.239   5.489
 4383POPC   GL155717  29.240   1.208   5.923
 4383POPC   GL255718  28.941   1.035   5.988
 4383POPC   C1A55719  29.077   1.365   6.350
 4383POPC   D2A55720  29.306   1.150   6.633
 4383POPC   C3A55721  29.380   1.155   7.052
 4383POPC   C4A55722  29.586   1.486   7.264
 4383POPC   C1B55723  28.956   0.851   6.359
 4383POPC   C2B55724  28.829   1.051   6.704
 4383POPC   C3B55725  28.818   1.197   7.096
 4383POPC   C4B55726  29.066   1.080   7.446
 4384POPC   NC355727  11.584  42.331   5.503
 4384POPC   PO455728  10.896  42.393   5.452
 4384POPC   GL155729  11.149  42.265   5.822
 4384POPC   GL255730  11.288  42.586   5.829
 4384POPC   C1A55731  11.387  42.274   6.238
 4384POPC   D2A55732  11.250  42.301   6.679
 4384POPC   C3A55733  11.318  42.203   7.116
 4384POPC   C4A55734  11.249  41.816   7.368
 4384POPC   C1B55735  11.148  42.771   6.179
 4384POPC   C2B55736  11.146  42.789   6.617
 4384POPC   C3B55737  10.989  42.611   7.008
 4384POPC   C4B55738  11.182  42.603   7.406
 4385POPC   NC355739  33.429  33.871   5.594
 4385POPC   PO455740  32.720  34.096   5.516
 4385POPC   GL155741  32.991  34.012   5.842
 4385POPC   GL255742  33.041  33.709   5.868
 4385POPC   C1A55743  32.842  34.085   6.256
 4385POPC   D2A55744  32.779  34.118   6.684
 4385POPC   C3A55745  32.869  33.762   6.916
 4385POPC   C4A55746  32.774  33.886   7.309
 4385POPC   C1B55747  33.298  33.847   6.251
 4385POPC   C2B55748  33.345  33.784   6.694
 4385POPC   C3B55749  33.518  33.933   7.086
 4385POPC   C4B55750  33.256  33.764   7.397
 4386POPC   NC355751  34.794  19.040   5.450
 4386POPC   PO455752  34.115  19.359   5.438
 4386POPC   GL155753  34.407  19.162   5.744
 4386POPC   GL255754  34.399  18.815   5.823
 4386POPC   C1A55755  34.653  19.182   6.133
 4386POPC   D2A55756  34.576  19.091   6.579
 4386POPC   C3A55757  34.853  19.196   6.946
 4386POPC   C4A55758  34.585  19.342   7.283
 4386POPC   C1B55759  34.511  18.659   6.230
 4386POPC   C2B55760  34.817  18.651   6.558
 4386POPC   C3B55761  34.665  18.718   6.949
 4386POPC   C4B55762  34.732  18.856   7.375
 4387POPC   NC355763  41.672  11.219   5.284
 4387POPC   PO455764  41.213  11.678   5.335
 4387POPC   GL155765  41.362  11.512   5.778
 4387POPC   GL255766  41.722  11.413   5.764
 4387POPC   C1A55767  41.480  11.427   6.256
 4387POPC   D2A55768  41.584  11.423   6.729
 4387POPC   C3A55769  41.327  11.384   7.101
 4387POPC   C4A55770  41.326  11.425   7.561
 4387POPC   C1B55771  41.846  11.112   6.076
 4387POPC   C2B55772  41.662  10.980   6.460
 4387POPC   C3B55773  41.768  10.975   6.875
 4387POPC   C4B55774  41.613  10.973   7.263
 4388POPC   NC355775   5.837  44.057   5.299
 4388POPC   PO455776   5.479  43.563   5.382
 4388POPC   GL155777   5.712  43.591   5.808
 4388POPC   GL255778   6.094  43.589   5.781
 4388POPC   C1A55779   5.713  43.844   6.230
 4388POPC   D2A55780   5.520  43.936   6.647
 4388POPC   C3A55781   5.704  43.939   7.072
 4388POPC   C4A55782   5.652  43.716   7.483
 4388POPC   C1B55783   6.223  43.854   6.150
 4388POPC   C2B55784   6.087  44.053   6.549
 4388POPC   C3B55785   6.224  43.984   6.981
 4388POPC   C4B55786   6.095  43.964   7.428
 4389POPC   NC355787  44.236  27.822   5.404
 4389POPC   PO455788  43.682  27.423   5.244
 4389POPC   GL155789  43.866  27.410   5.663
 4389POPC   GL255790  43.532  27.322   5.768
 4389POPC   C1A55791  44.001  27.623   6.081
 4389POPC   D2A55792  43.998  27.466   6.515
 4389POPC   C3A55793  44.152  27.615   6.914
 4389POPC   C4A55794  43.982  27.566   7.321
 4389POPC   C1B55795  43.448  27.633   6.082
 4389POPC   C2B55796  43.607  27.782   6.468
 4389POPC   C3B55797  43.648  27.626   6.898
 4389POPC   C4B55798  43.523  27.884   7.209
 4390POPC   NC355799  21.937   8.561   5.408
 4390POPC   PO455800  22.190   7.920   5.190
 4390POPC   GL155801  22.047   8.058   5.625
 4390POPC   GL255802  22.403   8.091   5.739
 4390POPC   C1A55803  21.877   8.164   6.075
 4390POPC   D2A55804  21.846   8.098   6.558
 4390POPC   C3A55805  21.977   8.386   6.914
 4390POPC   C4A55806  22.103   8.343   7.375
 4390POPC   C1B55807  22.266   7.810   6.085
 4390POPC   C2B55808  22.318   7.781   6.517
 4390POPC   C3B55809  22.232   7.939   6.924
 4390POPC   C4B55810  22.518   8.094   7.237
 4391POPC   NC355811  16.729   2.349   5.374
 4391POPC   PO455812  16.953   1.706   5.417
 4391POPC   GL155813  16.678   1.902   5.675
 4391POPC   GL255814  16.948   2.119   5.778
 4391POPC   C1A55815  16.554   2.012   6.109
 4391POPC   D2A55816  16.771   2.035   6.511
 4391POPC   C3A55817  16.597   2.042   6.901
 4391POPC   C4A55818  16.660   2.156   7.321
 4391POPC   C1B55819  17.132   2.173   6.183
 4391POPC   C2B55820  17.264   2.238   6.626
 4391POPC   C3B55821  17.175   2.080   7.053
 4391POPC   C4B55822  17.091   1.943   7.461
 4392POPC   NC355823   3.056  40.700   5.379
 4392POPC   PO455824   2.875  41.311   5.192
 4392POPC   GL155825   2.841  41.126   5.673
 4392POPC   GL255826   2.854  40.780   5.817
 4392POPC   C1A55827   2.759  41.100   6.196
 4392POPC   D2A55828   2.498  40.951   6.588
 4392POPC   C3A55829   2.610  40.654   6.916
 4392POPC   C4A55830   2.719  40.770   7.314
 4392POPC   C1B55831   2.992  40.624   6.200
 4392POPC   C2B55832   3.021  40.675   6.638
 4392POPC   C3B55833   3.155  40.773   7.052
 4392POPC   C4B55834   3.142  40.507   7.437
 4393POPC   NC355835  16.112  37.397   5.323
 4393POPC   PO455836  15.940  36.668   5.421
 4393POPC   GL155837  15.796  36.950   5.723
 4393POPC   GL255838  16.102  37.090   5.766
 4393POPC   C1A55839  15.851  36.807   6.149
 4393POPC   D2A55840  16.105  36.897   6.506
 4393POPC   C3A55841  15.915  36.819   6.901
 4393POPC   C4A55842  16.010  36.868   7.340
 4393POPC   C1B55843  15.962  37.291   6.170
 4393POPC   C2B55844  15.774  37.282   6.578
 4393POPC   C3B55845  15.840  37.289   7.011
 4393POPC   C4B55846  15.542  37.057   7.252
 4394POPC   NC355847  19.445  32.360   5.443
 4394POPC   PO455848  18.787  32.452   5.432
 4394POPC   GL155849  18.902  32.151   5.788
 4394POPC   GL255850  19.268  32.062   5.803
 4394POPC   C1A55851  18.990  32.111   6.244
 4394POPC   D2A55852  18.989  32.316   6.650
 4394POPC   C3A55853  18.802  32.073   6.929
 4394POPC   C4A55854  18.994  32.025   7.283
 4394POPC   C1B55855  19.481  32.350   6.102
 4394POPC   C2B55856  19.464  32.180   6.497
 4394POPC   C3B55857  19.411  32.100   6.921
 4394POPC   C4B55858  19.465  32.229   7.323
 4395POPC   NC355859   9.013  10.916   5.380
 4395POPC   PO455860   8.622  11.432   5.350
 4395POPC   GL155861   8.796  11.249   5.727
 4395POPC   GL255862   9.164  11.265   5.854
 4395POPC   C1A55863   8.773  11.074   6.126
 4395POPC   D2A55864   8.949  11.291   6.476
 4395POPC   C3A55865   8.761  11.182   6.871
 4395POPC   C4A55866   8.918  11.374   7.231
 4395POPC   C1B55867   9.276  10.957   6.218
 4395POPC   C2B55868   9.330  10.994   6.687
 4395POPC   C3B55869   9.208  10.962   7.129
 4395POPC   C4B55870   9.217  10.680   7.472
 4396POPC   NC355871   6.247  33.032   5.146
 4396POPC   PO455872   6.633  33.339   5.544
 4396POPC   GL155873   6.717  33.331   5.954
 4396POPC   GL255874   7.055  33.480   5.948
 4396POPC   C1A55875   6.653  33.006   6.254
 4396POPC   D2A55876   6.484  32.788   6.576
 4396POPC   C3A55877   6.544  32.971   6.946
 4396POPC   C4A55878   6.405  32.915   7.318
 4396POPC   C1B55879   7.107  33.221   6.302
 4396POPC   C2B55880   6.926  33.185   6.692
 4396POPC   C3B55881   7.016  33.115   7.110
 4396POPC   C4B55882   6.915  32.863   7.429
 4397POPC   NC355883  34.834  20.831   5.387
 4397POPC   PO455884  34.444  20.293   5.543
 4397POPC   GL155885  34.443  20.698   5.748
 4397POPC   GL255886  34.760  20.807   5.892
 4397POPC   C1A55887  34.310  20.775   6.154
 4397POPC   D2A55888  34.456  20.544   6.495
 4397POPC   C3A55889  34.575  20.747   6.885
 4397POPC   C4A55890  34.370  20.696   7.247
 4397POPC   C1B55891  34.853  20.444   6.170
 4397POPC   C2B55892  34.939  20.422   6.624
 4397POPC   C3B55893  34.764  20.303   7.019
 4397POPC   C4B55894  34.830  20.564   7.368
 4398POPC   NC355895  43.650  30.195   5.317
 4398POPC   PO455896  44.280  29.922   5.387
 4398POPC   GL155897  43.996  29.976   5.729
 4398POPC   GL255898  43.758  29.725   5.675
 4398POPC   C1A55899  44.092  30.077   6.178
 4398POPC   D2A55900  43.765  30.060   6.410
 4398POPC   C3A55901  43.844  30.044   6.797
 4398POPC   C4A55902  43.774  30.032   7.184
 4398POPC   C1B55903  43.831  29.639   6.101
 4398POPC   C2B55904  43.858  29.587   6.554
 4398POPC   C3B55905  43.716  29.561   6.981
 4398POPC   C4B55906  43.870  29.577   7.423
 4399POPC   NC355907   7.500  13.189   5.514
 4399POPC   PO455908   7.416  12.699   5.072
 4399POPC   GL155909   7.279  12.770   5.683
 4399POPC   GL255910   7.411  13.038   5.962
 4399POPC   C1A55911   7.184  12.678   6.195
 4399POPC   D2A55912   7.486  12.776   6.626
 4399POPC   C3A55913   7.345  12.847   7.071
 4399POPC   C4A55914   6.915  12.690   7.233
 4399POPC   C1B55915   7.640  13.373   6.170
 4399POPC   C2B55916   7.525  13.315   6.584
 4399POPC   C3B55917   7.688  13.319   6.960
 4399POPC   C4B55918   7.571  13.228   7.334
 4400POPC   NC355919  15.847  20.558   5.366
 4400POPC   PO455920  16.362  20.865   5.585
 4400POPC   GL155921  16.103  20.623   5.807
 4400POPC   GL255922  15.834  20.839   5.795
 4400POPC   C1A55923  16.056  20.605   6.230
 4400POPC   D2A55924  16.290  20.775   6.573
 4400POPC   C3A55925  16.098  20.619   6.909
 4400POPC   C4A55926  15.970  20.423   7.255
 4400POPC   C1B55927  15.645  20.947   6.180
 4400POPC   C2B55928  15.747  20.892   6.595
 4400POPC   C3B55929  15.606  20.769   6.988
 4400POPC   C4B55930  15.828  20.921   7.330
 4401POPC   NC355931  13.903   1.276   5.370
 4401POPC   PO455932  13.361   1.552   5.121
 4401POPC   GL155933  13.437   1.353   5.554
 4401POPC   GL255934  13.475   0.988   5.587
 4401POPC   C1A55935  13.706   1.316   5.975
 4401POPC   D2A55936  13.634   1.214   6.420
 4401POPC   C3A55937  13.860   1.316   6.780
 4401POPC   C4A55938  13.799   1.395   7.200
 4401POPC   C1B55939  13.378   0.920   6.041
 4401POPC   C2B55940  13.351   0.767   6.489
 4401POPC   C3B55941  13.516   0.927   6.885
 4401POPC   C4B55942  13.415   1.077   7.337
 4402POPC   NC355943  23.122   1.553   5.301
 4402POPC   PO455944  22.772   0.918   5.359
 4402POPC   GL155945  22.859   0.933   5.744
 4402POPC   GL255946  22.642   1.244   5.820
 4402POPC   C1A55947  22.838   0.931   6.170
 4402POPC   D2A55948  22.748   1.168   6.501
 4402POPC   C3A55949  22.985   1.038   6.863
 4402POPC   C4A55950  23.037   0.859   7.274
 4402POPC   C1B55951  22.409   1.460   6.167
 4402POPC   C2B55952  22.485   1.617   6.560
 4402POPC   C3B55953  22.416   1.483   6.964
 4402POPC   C4B55954  22.660   1.277   7.293
 4403POPC   NC355955  33.113  21.293   5.417
 4403POPC   PO455956  32.974  21.995   5.353
 4403POPC   GL155957  33.070  21.735   5.760
 4403POPC   GL255958  33.221  21.422   5.901
 4403POPC   C1A55959  32.906  21.753   6.200
 4403POPC   D2A55960  32.933  21.896   6.641
 4403POPC   C3A55961  32.858  21.628   6.970
 4403POPC   C4A55962  32.670  21.411   7.287
 4403POPC   C1B55963  33.416  21.698   6.194
 4403POPC   C2B55964  33.469  21.806   6.633
 4403POPC   C3B55965  33.379  21.555   7.028
 4403POPC   C4B55966  33.147  21.646   7.415
 4404POPC   NC355967  42.424  20.045   5.473
 4404POPC   PO455968  42.089  19.478   5.301
 4404POPC   GL155969  42.056  19.635   5.769
 4404POPC   GL255970  42.329  19.827   5.891
 4404POPC   C1A55971  42.032  19.747   6.259
 4404POPC   D2A55972  42.129  19.506   6.629
 4404POPC   C3A55973  42.161  19.736   6.993
 4404POPC   C4A55974  42.438  19.717   7.326
 4404POPC   C1B55975  42.524  19.969   6.237
 4404POPC   C2B55976  42.535  19.836   6.654
 4404POPC   C3B55977  42.531  20.105   7.011
 4404POPC   C4B55978  42.642  20.167   7.449
 4405POPC   NC355979   8.902  35.150   5.296
 4405POPC   PO455980   9.340  35.643   5.496
 4405POPC   GL155981   9.153  35.323   5.749
 4405POPC   GL255982   8.843  35.356   5.836
 4405POPC   C1A55983   9.182  35.417   6.189
 4405POPC   D2A55984   9.190  35.527   6.585
 4405POPC   C3A55985   9.076  35.305   6.879
 4405POPC   C4A55986   9.223  35.329   7.266
 4405POPC   C1B55987   8.696  35.504   6.298
 4405POPC   C2B55988   8.614  35.453   6.754
 4405POPC   C3B55989   8.719  35.457   7.226
 4405POPC   C4B55990   8.736  35.610   7.686
 4406POPC   NC355991  32.367  30.793   5.376
 4406POPC   PO455992  31.897  30.423   5.550
 4406POPC   GL155993  32.179  30.678   5.838
 4406POPC   GL255994  32.062  30.995   5.738
 4406POPC   C1A55995  32.402  30.866   6.234
 4406POPC   D2A55996  32.578  30.794   6.681
 4406POPC   C3A55997  32.365  30.887   7.084
 4406POPC   C4A55998  32.164  30.713   7.476
 4406POPC   C1B55999  31.895  30.966   6.171
 4406POPC   C2B56000  32.055  30.944   6.625
 4406POPC   C3B56001  31.832  30.946   7.031
 4406POPC   C4B56002  31.804  31.079   7.443
 4407POPC   NC356003  25.863  36.193   5.337
 4407POPC   PO456004  26.447  35.798   5.465
 4407POPC   GL156005  26.212  36.135   5.723
 4407POPC   GL256006  25.853  35.991   5.806
 4407POPC   C1A56007  26.124  36.284   6.160
 4407POPC   D2A56008  26.312  36.094   6.552
 4407POPC   C3A56009  26.321  36.277   6.985
 4407POPC   C4A56010  26.351  36.011   7.381
 4407POPC   C1B56011  26.082  35.767   6.136
 4407POPC   C2B56012  26.048  35.624   6.575
 4407POPC   C3B56013  26.009  35.835   7.007
 4407POPC   C4B56014  25.890  35.812   7.480
 4408POPC   NC356015  30.941   5.596   5.280
 4408POPC   PO456016  30.617   6.134   5.558
 4408POPC   GL156017  30.889   5.933   5.850
 4408POPC   GL256018  31.037   5.584   5.788
 4408POPC   C1A56019  30.783   6.029   6.277
 4408POPC   D2A56020  30.546   6.250   6.588
 4408POPC   C3A56021  30.549   5.969   6.922
 4408POPC   C4A56022  30.664   5.955   7.327
 4408POPC   C1B56023  30.995   5.537   6.252
 4408POPC   C2B56024  31.122   5.826   6.597
 4408POPC   C3B56025  31.024   5.793   7.006
 4408POPC   C4B56026  30.808   5.464   7.231
 4409POPC   NC356027   5.120   9.979   5.099
 4409POPC   PO456028   5.080  10.595   5.389
 4409POPC   GL156029   5.146  10.710   5.864
 4409POPC   GL256030   4.830  10.773   6.092
 4409POPC   C1A56031   5.220  10.489   6.275
 4409POPC   D2A56032   4.955  10.459   6.651
 4409POPC   C3A56033   5.211  10.336   7.024
 4409POPC   C4A56034   5.219  10.084   7.407
 4409POPC   C1B56035   5.088  10.978   6.396
 4409POPC   C2B56036   5.135  10.920   6.826
 4409POPC   C3B56037   4.881  10.737   7.097
 4409POPC   C4B56038   4.899  10.849   7.481
 4410POPC   NC356039  13.278   0.497   5.407
 4410POPC   PO456040  13.932   0.777   5.392
 4410POPC   GL156041  13.790   0.578   5.775
 4410POPC   GL256042  14.075   0.778   5.887
 4410POPC   C1A56043  13.686   0.293   6.166
 4410POPC   D2A56044  13.783   0.153   6.624
 4410POPC   C3A56045  13.623   0.411   6.976
 4410POPC   C4A56046  13.269   0.593   7.185
 4410POPC   C1B56047  13.837   0.775   6.251
 4410POPC   C2B56048  13.945   0.671   6.642
 4410POPC   C3B56049  13.982   0.785   7.046
 4410POPC   C4B56050  13.920   0.515   7.397
 4411POPC   NC356051   4.039  13.066   5.440
 4411POPC   PO456052   4.351  12.515   5.631
 4411POPC   GL156053   4.375  12.970   5.804
 4411POPC   GL256054   4.014  13.055   5.949
 4411POPC   C1A56055   4.543  13.156   6.196
 4411POPC   D2A56056   4.334  13.117   6.624
 4411POPC   C3A56057   4.555  13.208   7.012
 4411POPC   C4A56058   4.676  12.970   7.393
 4411POPC   C1B56059   4.201  12.767   6.235
 4411POPC   C2B56060   4.590  12.687   6.439
 4411POPC   C3B56061   4.591  12.697   6.870
 4411POPC   C4B56062   4.200  12.817   7.073
 4412POPC   NC356063   6.015  24.314   5.512
 4412POPC   PO456064   5.420  24.252   5.154
 4412POPC   GL156065   5.574  24.561   5.578
 4412POPC   GL256066   5.909  24.768   5.714
 4412POPC   C1A56067   5.693  24.430   6.065
 4412POPC   D2A56068   5.604  24.170   6.475
 4412POPC   C3A56069   5.727  24.243   6.918
 4412POPC   C4A56070   5.685  24.659   7.175
 4412POPC   C1B56071   6.171  24.624   6.094
 4412POPC   C2B56072   6.053  24.442   6.499
 4412POPC   C3B56073   6.128  24.533   6.936
 4412POPC   C4B56074   6.174  24.832   7.217
 4413POPC   NC356075   7.919  26.777   5.357
 4413POPC   PO456076   7.275  26.673   5.148
 4413POPC   GL156077   7.315  26.661   5.630
 4413POPC   GL256078   7.657  26.708   5.798
 4413POPC   C1A56079   7.244  26.745   6.079
 4413POPC   D2A56080   7.537  26.954   6.360
 4413POPC   C3A56081   7.448  26.928   6.818
 4413POPC   C4A56082   7.491  27.158   7.192
 4413POPC   C1B56083   7.836  26.545   6.205
 4413POPC   C2B56084   7.671  26.499   6.638
 4413POPC   C3B56085   7.777  26.595   7.053
 4413POPC   C4B56086   7.849  26.351   7.435
 4414POPC   NC356087  11.226  30.163   5.475
 4414POPC   PO456088  11.359  29.535   5.315
 4414POPC   GL156089  11.309  29.566   5.814
 4414POPC   GL256090  11.402  29.913   5.880
 4414POPC   C1A56091  11.464  29.605   6.275
 4414POPC   D2A56092  11.579  29.800   6.679
 4414POPC   C3A56093  11.275  29.701   6.983
 4414POPC   C4A56094  10.846  29.721   7.144
 4414POPC   C1B56095  11.601  30.106   6.236
 4414POPC   C2B56096  11.548  30.381   6.586
 4414POPC   C3B56097  11.423  30.219   6.976
 4414POPC   C4B56098  11.562  29.921   7.312
 4415POPC   NC356099  12.303  32.520   5.518
 4415POPC   PO456100  11.898  32.032   5.343
 4415POPC   GL156101  12.017  32.163   5.765
 4415POPC   GL256102  11.874  32.502   5.815
 4415POPC   C1A56103  12.254  32.255   6.167
 4415POPC   D2A56104  12.404  32.122   6.596
 4415POPC   C3A56105  12.062  31.921   6.846
 4415POPC   C4A56106  11.903  32.032   7.267
 4415POPC   C1B56107  11.654  32.666   6.204
 4415POPC   C2B56108  11.637  32.593   6.690
 4415POPC   C3B56109  11.915  32.502   7.067
 4415POPC   C4B56110  11.913  32.568   7.530
 4416POPC   NC356111  41.187  12.077   5.112
 4416POPC   PO456112  40.649  12.034   5.508
 4416POPC   GL156113  40.808  12.081   5.899
 4416POPC   GL256114  41.057  11.909   5.838
 4416POPC   C1A56115  40.963  12.307   6.265
 4416POPC   D2A56116  40.746  12.368   6.668
 4416POPC   C3A56117  40.866  12.285   7.084
 4416POPC   C4A56118  40.737  11.934   7.371
 4416POPC   C1B56119  41.196  11.853   6.241
 4416POPC   C2B56120  41.146  11.995   6.677
 4416POPC   C3B56121  41.183  11.881   7.115
 4416POPC   C4B56122  41.208  11.922   7.570
 4417POPC   NC356123  38.586  41.771   5.347
 4417POPC   PO456124  38.426  41.133   5.367
 4417POPC   GL156125  38.319  41.440   5.710
 4417POPC   GL256126  38.659  41.530   5.791
 4417POPC   C1A56127  38.314  41.588   6.168
 4417POPC   D2A56128  38.511  41.585   6.607
 4417POPC   C3A56129  38.247  41.578   7.005
 4417POPC   C4A56130  38.058  41.245   7.283
 4417POPC   C1B56131  38.833  41.680   6.177
 4417POPC   C2B56132  39.021  41.432   6.536
 4417POPC   C3B56133  38.905  41.526   6.965
 4417POPC   C4B56134  38.793  41.555   7.390
 4418POPC   NC356135  39.583   1.908   5.605
 4418POPC   PO456136  40.180   2.171   5.434
 4418POPC   GL156137  40.171   1.903   5.789
 4418POPC   GL256138  39.970   1.597   5.696
 4418POPC   C1A56139  40.222   2.026   6.235
 4418POPC   D2A56140  39.834   2.114   6.462
 4418POPC   C3A56141  39.895   2.286   6.857
 4418POPC   C4A56142  39.918   2.173   7.279
 4418POPC   C1B56143  39.879   1.668   6.142
 4418POPC   C2B56144  39.783   1.592   6.545
 4418POPC   C3B56145  39.724   1.813   6.885
 4418POPC   C4B56146  39.763   1.702   7.268
 4419POPC   NC356147   2.625  31.095   5.349
 4419POPC   PO456148   2.717  30.403   5.405
 4419POPC   GL156149   2.939  30.594   5.799
 4419POPC   GL256150   2.711  30.859   5.848
 4419POPC   C1A56151   2.969  30.733   6.288
 4419POPC   D2A56152   2.700  30.689   6.685
 4419POPC   C3A56153   2.911  30.904   7.045
 4419POPC   C4A56154   3.087  30.701   7.428
 4419POPC   C1B56155   2.499  30.576   6.185
 4419POPC   C2B56156   2.517  30.241   6.530
 4419POPC   C3B56157   2.446  30.292   6.980
 4419POPC   C4B56158   2.516  30.653   7.235
 4420POPC   NC356159   7.319  23.489   5.349
 4420POPC   PO456160   7.630  24.100   5.423
 4420POPC   GL156161   7.592  23.987   5.836
 4420POPC   GL256162   7.313  23.740   5.822
 4420POPC   C1A56163   7.556  23.835   6.270
 4420POPC   D2A56164   7.579  23.487   6.577
 4420POPC   C3A56165   7.514  23.664   6.986
 4420POPC   C4A56166   7.172  23.984   7.060
 4420POPC   C1B56167   7.209  23.438   6.185
 4420POPC   C2B56168   6.855  23.362   6.484
 4420POPC   C3B56169   7.050  23.481   6.869
 4420POPC   C4B56170   7.052  23.578   7.303
 4421POPC   NC356171  11.480  41.120   5.491
 4421POPC   PO456172  11.419  41.840   5.480
 4421POPC   GL156173  11.163  41.633   5.798
 4421POPC   GL256174  10.946  41.371   5.617
 4421POPC   C1A56175  11.074  41.821   6.212
 4421POPC   D2A56176  11.080  41.812   6.673
 4421POPC   C3A56177  11.467  41.759   6.895
 4421POPC   C4A56178  11.623  41.486   7.199
 4421POPC   C1B56179  10.845  41.354   6.074
 4421POPC   C2B56180  11.097  41.307   6.408
 4421POPC   C3B56181  11.122  41.312   6.815
 4421POPC   C4B56182  11.148  41.305   7.218
 4422POPC   NC356183  11.001  24.995   5.535
 4422POPC   PO456184  11.565  25.485   5.460
 4422POPC   GL156185  11.370  25.545   5.878
 4422POPC   GL256186  11.356  25.185   5.871
 4422POPC   C1A56187  11.298  25.398   6.325
 4422POPC   D2A56188  11.204  25.155   6.702
 4422POPC   C3A56189  11.290  25.414   7.007
 4422POPC   C4A56190  11.132  25.483   7.407
 4422POPC   C1B56191  11.672  25.049   6.198
 4422POPC   C2B56192  11.700  25.211   6.620
 4422POPC   C3B56193  11.628  25.028   7.012
 4422POPC   C4B56194  11.353  25.022   7.328
 4423POPC   NC356195   4.314  32.729   5.626
 4423POPC   PO456196   4.723  33.154   5.342
 4423POPC   GL156197   4.481  33.295   5.807
 4423POPC   GL256198   4.137  33.143   5.872
 4423POPC   C1A56199   4.428  33.129   6.298
 4423POPC   D2A56200   4.256  33.199   6.712
 4423POPC   C3A56201   4.426  32.941   7.038
 4423POPC   C4A56202   4.608  33.065   7.414
 4423POPC   C1B56203   3.952  32.865   6.229
 4423POPC   C2B56204   4.040  32.714   6.674
 4423POPC   C3B56205   4.074  32.594   7.125
 4423POPC   C4B56206   4.117  32.877   7.498
 4424POPC   NC356207  24.054  29.319   5.492
 4424POPC   PO456208  23.487  28.985   5.194
 4424POPC   GL156209  23.663  28.986   5.681
 4424POPC   GL256210  24.012  28.995   5.875
 4424POPC   C1A56211  23.612  28.837   6.145
 4424POPC   D2A56212  23.880  28.811   6.528
 4424POPC   C3A56213  23.678  28.945   6.912
 4424POPC   C4A56214  23.451  29.311   7.060
 4424POPC   C1B56215  23.764  29.321   6.112
 4424POPC   C2B56216  23.696  29.402   6.573
 4424POPC   C3B56217  23.994  29.346   6.947
 4424POPC   C4B56218  24.148  28.926   7.169
 4425POPC   NC356219  21.710  22.658   5.413
 4425POPC   PO456220  22.303  22.751   5.595
 4425POPC   GL156221  22.236  23.007   5.938
 4425POPC   GL256222  21.958  23.282   5.907
 4425POPC   C1A56223  22.229  22.716   6.300
 4425POPC   D2A56224  22.086  22.505   6.665
 4425POPC   C3A56225  22.337  22.600   6.986
 4425POPC   C4A56226  22.401  22.883   7.287
 4425POPC   C1B56227  22.013  23.192   6.360
 4425POPC   C2B56228  22.371  23.101   6.615
 4425POPC   C3B56229  22.372  23.289   7.005
 4425POPC   C4B56230  22.062  23.265   7.327
 4426POPC   NC356231  36.411  19.367   5.550
 4426POPC   PO456232  37.058  19.097   5.327
 4426POPC   GL156233  36.991  18.904   5.765
 4426POPC   GL256234  36.668  18.922   5.857
 4426POPC   C1A56235  37.080  19.059   6.181
 4426POPC   D2A56236  37.030  19.333   6.543
 4426POPC   C3A56237  37.024  19.167   6.930
 4426POPC   C4A56238  37.337  19.002   7.169
 4426POPC   C1B56239  36.627  18.805   6.284
 4426POPC   C2B56240  36.625  18.881   6.748
 4426POPC   C3B56241  36.742  18.880   7.229
 4426POPC   C4B56242  36.625  18.944   7.717
 4427POPC   NC356243  27.783  42.133   5.443
 4427POPC   PO456244  27.525  41.559   5.434
 4427POPC   GL156245  27.348  41.551   5.801
 4427POPC   GL256246  27.382  41.927   5.853
 4427POPC   C1A56247  27.270  41.297   6.177
 4427POPC   D2A56248  27.514  41.246   6.508
 4427POPC   C3A56249  27.419  41.507   6.831
 4427POPC   C4A56250  27.430  41.457   7.276
 4427POPC   C1B56251  27.615  41.731   6.222
 4427POPC   C2B56252  27.872  41.897   6.572
 4427POPC   C3B56253  27.753  41.842   6.997
 4427POPC   C4B56254  27.380  41.987   7.184
 4428POPC   NC356255  35.920   0.922   5.382
 4428POPC   PO456256  36.286   0.360   5.426
 4428POPC   GL156257  36.147   0.442   5.831
 4428POPC   GL256258  36.133   0.790   5.868
 4428POPC   C1A56259  35.986   0.300   6.226
 4428POPC   D2A56260  35.852   0.486   6.627
 4428POPC   C3A56261  35.902   0.178   6.949
 4428POPC   C4A56262  35.845   0.037   7.361
 4428POPC   C1B56263  36.300   0.684   6.311
 4428POPC   C2B56264  36.336   0.645   6.784
 4428POPC   C3B56265  36.011   0.772   7.109
 4428POPC   C4B56266  36.159   0.825   7.542
 4429POPC   NC356267  21.974  39.195   5.509
 4429POPC   PO456268  22.606  38.880   5.476
 4429POPC   GL156269  22.393  39.048   5.826
 4429POPC   GL256270  22.260  39.379   5.932
 4429POPC   C1A56271  22.230  38.913   6.219
 4429POPC   D2A56272  22.104  39.009   6.656
 4429POPC   C3A56273  22.326  39.346   6.892
 4429POPC   C4A56274  22.625  39.341   7.237
 4429POPC   C1B56275  21.842  39.253   6.151
 4429POPC   C2B56276  21.645  39.215   6.554
 4429POPC   C3B56277  21.821  39.318   6.982
 4429POPC   C4B56278  22.100  39.312   7.370
 4430POPC   NC356279  26.328  37.850   5.485
 4430POPC   PO456280  25.724  37.827   5.628
 4430POPC   GL156281  26.016  37.936   5.949
 4430POPC   GL256282  26.350  37.787   5.994
 4430POPC   C1A56283  25.948  37.822   6.394
 4430POPC   D2A56284  25.692  37.589   6.678
 4430POPC   C3A56285  25.885  37.819   6.954
 4430POPC   C4A56286  26.269  37.827   7.182
 4430POPC   C1B56287  26.055  37.437   6.091
 4430POPC   C2B56288  26.073  37.182   6.478
 4430POPC   C3B56289  26.118  37.344   6.886
 4430POPC   C4B56290  25.903  37.420   7.258
 4431POPC   NC356291  15.200  10.076   5.298
 4431POPC   PO456292  14.915  10.731   5.406
 4431POPC   GL156293  15.028  10.549   5.783
 4431POPC   GL256294  14.765  10.371   5.931
 4431POPC   C1A56295  15.392  10.569   6.043
 4431POPC   D2A56296  15.498  10.746   6.448
 4431POPC   C3A56297  15.357  10.575   6.851
 4431POPC   C4A56298  15.349  10.725   7.298
 4431POPC   C1B56299  15.042  10.290   6.275
 4431POPC   C2B56300  15.049  10.160   6.682
 4431POPC   C3B56301  14.745  10.204   6.981
 4431POPC   C4B56302  14.721  10.393   7.377
 4432POPC   NC356303  36.264  23.280   5.226
 4432POPC   PO456304  36.800  23.308   5.667
 4432POPC   GL156305  36.970  23.026   5.920
 4432POPC   GL256306  36.829  22.727   5.789
 4432POPC   C1A56307  37.032  22.965   6.348
 4432POPC   D2A56308  36.762  23.078   6.649
 4432POPC   C3A56309  36.927  22.940   6.957
 4432POPC   C4A56310  37.086  23.068   7.292
 4432POPC   C1B56311  37.158  22.572   6.065
 4432POPC   C2B56312  37.220  22.522   6.525
 4432POPC   C3B56313  37.027  22.447   6.929
 4432POPC   C4B56314  36.986  22.549   7.374
 4433POPC   NC356315  22.614  23.073   5.515
 4433POPC   PO456316  22.894  22.444   5.382
 4433POPC   GL156317  22.795  22.683   5.756
 4433POPC   GL256318  23.094  22.845   5.862
 4433POPC   C1A56319  22.700  22.922   6.165
 4433POPC   D2A56320  22.914  23.060   6.524
 4433POPC   C3A56321  22.760  22.933   6.922
 4433POPC   C4A56322  22.890  22.980   7.331
 4433POPC   C1B56323  23.176  22.655   6.281
 4433POPC   C2B56324  23.219  22.663   6.748
 4433POPC   C3B56325  23.256  22.668   7.215
 4433POPC   C4B56326  23.290  22.862   7.669
 4434POPC   NC356327  26.145   5.634   5.542
 4434POPC   PO456328  25.770   6.144   5.360
 4434POPC   GL156329  25.986   6.081   5.759
 4434POPC   GL256330  26.352   6.056   5.760
 4434POPC   C1A56331  25.893   5.838   6.136
 4434POPC   D2A56332  25.754   6.044   6.487
 4434POPC   C3A56333  25.762   5.930   6.902
 4434POPC   C4A56334  25.785   5.589   7.169
 4434POPC   C1B56335  26.403   5.821   6.170
 4434POPC   C2B56336  26.459   5.642   6.587
 4434POPC   C3B56337  26.236   5.722   6.963
 4434POPC   C4B56338  26.293   5.545   7.331
 4435POPC   NC356339  42.664  40.301   5.499
 4435POPC   PO456340  42.463  39.613   5.450
 4435POPC   GL156341  42.447  39.929   5.774
 4435POPC   GL256342  42.176  40.147   5.680
 4435POPC   C1A56343  42.366  39.963   6.205
 4435POPC   D2A56344  42.562  40.149   6.560
 4435POPC   C3A56345  42.461  39.909   6.927
 4435POPC   C4A56346  42.406  40.121   7.280
 4435POPC   C1B56347  41.992  40.289   6.060
 4435POPC   C2B56348  41.916  40.078   6.463
 4435POPC   C3B56349  42.034  40.175   6.902
 4435POPC   C4B56350  42.043  40.456   7.276
 4436POPC   NC356351  25.908  20.875   5.278
 4436POPC   PO456352  25.739  21.528   5.432
 4436POPC   GL156353  25.850  21.654   5.843
 4436POPC   GL256354  26.088  21.368   5.891
 4436POPC   C1A56355  25.864  21.591   6.297
 4436POPC   D2A56356  26.045  21.288   6.595
 4436POPC   C3A56357  25.840  21.279   7.007
 4436POPC   C4A56358  25.805  21.569   7.352
 4436POPC   C1B56359  26.387  21.528   6.188
 4436POPC   C2B56360  26.490  21.625   6.609
 4436POPC   C3B56361  26.427  21.375   6.952
 4436POPC   C4B56362  26.252  21.258   7.325
 4437POPC   NC356363  28.983  32.519   5.400
 4437POPC   PO456364  29.276  31.877   5.278
 4437POPC   GL156365  29.060  32.068   5.665
 4437POPC   GL256366  29.329  32.301   5.753
 4437POPC   C1A56367  28.866  32.273   6.061
 4437POPC   D2A56368  28.908  32.219   6.503
 4437POPC   C3A56369  28.692  32.318   6.892
 4437POPC   C4A56370  28.890  32.216   7.280
 4437POPC   C1B56371  29.335  32.483   6.157
 4437POPC   C2B56372  29.210  32.644   6.557
 4437POPC   C3B56373  29.197  32.423   6.915
 4437POPC   C4B56374  29.437  32.470   7.266
 4438POPC   NC356375  10.796   3.219   5.517
 4438POPC   PO456376  10.779   3.863   5.361
 4438POPC   GL156377  10.557   3.652   5.709
 4438POPC   GL256378  10.860   3.640   5.816
 4438POPC   C1A56379  10.280   3.470   6.072
 4438POPC   D2A56380  10.171   3.307   6.504
 4438POPC   C3A56381  10.426   3.472   6.825
 4438POPC   C4A56382  10.522   3.338   7.209
 4438POPC   C1B56383  10.794   3.397   6.167
 4438POPC   C2B56384  10.829   3.641   6.515
 4438POPC   C3B56385  11.029   3.801   6.850
 4438POPC   C4B56386  10.968   3.586   7.195
 4439POPC   NC356387   8.742  26.289   5.658
 4439POPC   PO456388   8.997  26.767   5.276
 4439POPC   GL156389   8.931  26.814   5.730
 4439POPC   GL256390   9.125  26.569   5.901
 4439POPC   C1A56391   8.817  26.861   6.185
 4439POPC   D2A56392   8.514  26.921   6.508
 4439POPC   C3A56393   8.652  27.180   6.833
 4439POPC   C4A56394   8.680  27.043   7.243
 4439POPC   C1B56395   9.217  26.588   6.362
 4439POPC   C2B56396   9.040  26.834   6.691
 4439POPC   C3B56397   9.102  26.812   7.100
 4439POPC   C4B56398   9.351  26.484   7.318
 4440POPC   NC356399  23.062  31.313   5.251
 4440POPC   PO456400  22.760  31.850   5.486
 4440POPC   GL156401  22.844  31.449   5.725
 4440POPC   GL256402  23.170  31.387   5.841
 4440POPC   C1A56403  22.774  31.217   6.125
 4440POPC   D2A56404  22.718  31.346   6.541
 4440POPC   C3A56405  22.919  31.205   6.918
 4440POPC   C4A56406  22.778  31.366   7.321
 4440POPC   C1B56407  23.234  31.505   6.291
 4440POPC   C2B56408  23.311  31.531   6.736
 4440POPC   C3B56409  23.255  31.510   7.189
 4440POPC   C4B56410  23.212  31.390   7.633
 4441POPC   NC356411  40.165  22.429   5.158
 4441POPC   PO456412  39.806  21.899   5.317
 4441POPC   GL156413  39.948  22.069   5.725
 4441POPC   GL256414  40.114  21.744   5.751
 4441POPC   C1A56415  40.044  22.155   6.208
 4441POPC   D2A56416  39.879  22.251   6.590
 4441POPC   C3A56417  40.138  22.381   6.899
 4441POPC   C4A56418  40.044  22.191   7.287
 4441POPC   C1B56419  39.853  21.704   6.087
 4441POPC   C2B56420  39.957  21.688   6.502
 4441POPC   C3B56421  39.949  21.862   6.911
 4441POPC   C4B56422  40.150  21.688   7.248
 4442POPC   NC356423  33.547   4.841   5.493
 4442POPC   PO456424  34.043   5.155   5.538
 4442POPC   GL156425  33.964   5.307   5.901
 4442POPC   GL256426  33.606   5.276   5.870
 4442POPC   C1A56427  34.111   5.266   6.325
 4442POPC   D2A56428  33.959   5.008   6.676
 4442POPC   C3A56429  34.083   5.304   6.947
 4442POPC   C4A56430  34.182   5.318   7.334
 4442POPC   C1B56431  33.652   5.054   6.256
 4442POPC   C2B56432  33.428   4.998   6.658
 4442POPC   C3B56433  33.611   5.120   7.047
 4442POPC   C4B56434  33.797   4.783   7.201
 4443POPC   NC356435  35.662   2.236   5.140
 4443POPC   PO456436  35.198   1.841   5.499
 4443POPC   GL156437  35.296   2.021   5.883
 4443POPC   GL256438  35.613   2.174   5.753
 4443POPC   C1A56439  35.153   2.232   6.267
 4443POPC   D2A56440  35.301   2.434   6.627
 4443POPC   C3A56441  35.298   2.133   6.941
 4443POPC   C4A56442  35.095   1.754   7.077
 4443POPC   C1B56443  35.677   2.019   6.190
 4443POPC   C2B56444  35.460   1.833   6.537
 4443POPC   C3B56445  35.592   1.732   6.955
 4443POPC   C4B56446  35.692   1.971   7.292
 4444POPC   NC356447   3.996  12.233   5.547
 4444POPC   PO456448   4.425  11.736   5.404
 4444POPC   GL156449   4.363  11.872   5.838
 4444POPC   GL256450   4.594  12.158   5.928
 4444POPC   C1A56451   4.466  11.788   6.283
 4444POPC   D2A56452   4.239  11.895   6.620
 4444POPC   C3A56453   4.205  11.732   6.990
 4444POPC   C4A56454   4.173  11.982   7.348
 4444POPC   C1B56455   4.233  12.246   6.223
 4444POPC   C2B56456   4.156  12.417   6.616
 4444POPC   C3B56457   4.301  12.292   6.966
 4444POPC   C4B56458   4.476  12.446   7.327
 4445POPC   NC356459  38.141  29.741   5.731
 4445POPC   PO456460  37.686  30.102   5.467
 4445POPC   GL156461  37.693  30.027   5.880
 4445POPC   GL256462  37.612  29.688   5.886
 4445POPC   C1A56463  37.834  30.054   6.302
 4445POPC   D2A56464  37.613  30.103   6.698
 4445POPC   C3A56465  37.742  29.909   7.087
 4445POPC   C4A56466  38.074  30.017   7.377
 4445POPC   C1B56467  37.443  29.720   6.316
 4445POPC   C2B56468  37.369  29.659   6.752
 4445POPC   C3B56469  37.213  29.898   7.103
 4445POPC   C4B56470  37.210  29.758   7.531
 4446POPC   NC356471  12.035  25.566   5.412
 4446POPC   PO456472  12.264  26.199   5.513
 4446POPC   GL156473  12.004  25.903   5.780
 4446POPC   GL256474  12.287  25.648   5.850
 4446POPC   C1A56475  11.819  25.815   6.188
 4446POPC   D2A56476  11.965  26.063   6.543
 4446POPC   C3A56477  11.926  26.008   6.976
 4446POPC   C4A56478  11.934  26.400   7.190
 4446POPC   C1B56479  12.325  25.962   6.172
 4446POPC   C2B56480  12.462  25.849   6.561
 4446POPC   C3B56481  12.388  25.792   6.961
 4446POPC   C4B56482  12.366  26.092   7.242
 4447POPC   NC356483  39.675  16.259   5.557
 4447POPC   PO456484  39.142  15.869   5.224
 4447POPC   GL156485  39.138  15.955   5.710
 4447POPC   GL256486  39.410  16.019   5.930
 4447POPC   C1A56487  38.996  15.857   6.164
 4447POPC   D2A56488  39.049  15.741   6.574
 4447POPC   C3A56489  39.357  15.840   6.886
 4447POPC   C4A56490  39.016  15.914   7.197
 4447POPC   C1B56491  39.459  16.015   6.371
 4447POPC   C2B56492  39.355  16.313   6.696
 4447POPC   C3B56493  39.340  16.305   7.161
 4447POPC   C4B56494  39.572  16.176   7.535
 4448POPC   NC356495  19.894  22.124   5.364
 4448POPC   PO456496  19.340  21.817   5.610
 4448POPC   GL156497  19.703  22.035   5.866
 4448POPC   GL256498  19.965  22.335   5.808
 4448POPC   C1A56499  19.693  21.998   6.312
 4448POPC   D2A56500  19.342  22.051   6.586
 4448POPC   C3A56501  19.499  21.974   6.966
 4448POPC   C4A56502  19.744  21.876   7.277
 4448POPC   C1B56503  20.070  22.397   6.209
 4448POPC   C2B56504  20.134  22.175   6.561
 4448POPC   C3B56505  20.023  22.215   6.979
 4448POPC   C4B56506  20.249  21.908   7.224
 4449POPC   NC356507   3.303  13.005   5.573
 4449POPC   PO456508   3.763  12.602   5.364
 4449POPC   GL156509   3.669  12.618   5.818
 4449POPC   GL256510   3.316  12.634   5.971
 4449POPC   C1A56511   3.745  12.514   6.278
 4449POPC   D2A56512   3.863  12.840   6.619
 4449POPC   C3A56513   3.632  12.851   6.995
 4449POPC   C4A56514   3.475  12.583   7.284
 4449POPC   C1B56515   3.566  12.985   6.187
 4449POPC   C2B56516   3.618  13.290   6.515
 4449POPC   C3B56517   3.391  13.322   6.885
 4449POPC   C4B56518   3.215  13.075   7.220
 4450POPC   NC356519  21.304  16.191   5.412
 4450POPC   PO456520  21.261  15.578   5.441
 4450POPC   GL156521  21.523  15.791   5.725
 4450POPC   GL256522  21.230  15.984   5.889
 4450POPC   C1A56523  21.644  15.893   6.164
 4450POPC   D2A56524  21.343  16.049   6.461
 4450POPC   C3A56525  21.485  15.940   6.874
 4450POPC   C4A56526  21.455  16.124   7.244
 4450POPC   C1B56527  21.029  15.714   6.228
 4450POPC   C2B56528  20.928  15.835   6.681
 4450POPC   C3B56529  20.983  15.881   7.142
 4450POPC   C4B56530  20.856  15.740   7.569
 4451POPC   NC356531  24.277  37.893   5.526
 4451POPC   PO456532  24.657  37.407   5.504
 4451POPC   GL156533  24.437  37.565   5.899
 4451POPC   GL256534  24.311  37.912   6.012
 4451POPC   C1A56535  24.484  37.547   6.340
 4451POPC   D2A56536  24.565  37.270   6.661
 4451POPC   C3A56537  24.468  37.469   7.028
 4451POPC   C4A56538  24.792  37.562   7.319
 4451POPC   C1B56539  24.620  38.035   6.305
 4451POPC   C2B56540  24.597  37.899   6.744
 4451POPC   C3B56541  24.520  37.960   7.191
 4451POPC   C4B56542  24.264  37.824   7.576
 4452POPC   NC356543  11.802  37.122   5.512
 4452POPC   PO456544  12.395  36.865   5.397
 4452POPC   GL156545  12.234  37.027   5.763
 4452POPC   GL256546  12.032  36.756   5.859
 4452POPC   C1A56547  12.373  37.028   6.186
 4452POPC   D2A56548  12.283  36.773   6.540
 4452POPC   C3A56549  12.330  37.002   6.913
 4452POPC   C4A56550  12.295  36.898   7.334
 4452POPC   C1B56551  11.790  36.716   6.242
 4452POPC   C2B56552  11.769  36.816   6.701
 4452POPC   C3B56553  11.866  36.671   7.117
 4452POPC   C4B56554  11.838  36.827   7.534
 4453POPC   NC356555  39.729  30.086   5.576
 4453POPC   PO456556  40.181  29.594   5.398
 4453POPC   GL156557  40.047  29.758   5.825
 4453POPC   GL256558  39.928  29.493   6.025
 4453POPC   C1A56559  39.911  29.952   6.219
 4453POPC   D2A56560  40.138  30.035   6.560
 4453POPC   C3A56561  40.048  29.846   6.904
 4453POPC   C4A56562  39.780  30.013   7.197
 4453POPC   C1B56563  40.251  29.578   6.359
 4453POPC   C2B56564  40.340  29.416   6.778
 4453POPC   C3B56565  40.301  29.524   7.218
 4453POPC   C4B56566  40.078  29.453   7.629
 4454POPC   NC356567  35.114  37.746   5.539
 4454POPC   PO456568  34.454  37.863   5.253
 4454POPC   GL156569  34.381  37.743   5.676
 4454POPC   GL256570  34.679  37.886   5.803
 4454POPC   C1A56571  34.312  37.758   6.143
 4454POPC   D2A56572  34.576  37.654   6.466
 4454POPC   C3A56573  34.391  37.702   6.848
 4454POPC   C4A56574  34.551  37.595   7.211
 4454POPC   C1B56575  34.832  38.015   6.185
 4454POPC   C2B56576  34.982  37.975   6.626
 4454POPC   C3B56577  34.773  38.036   7.023
 4454POPC   C4B56578  34.765  37.984   7.481
 4455POPC   NC356579  28.443   4.661   5.540
 4455POPC   PO456580  28.576   3.987   5.613
 4455POPC   GL156581  28.644   4.085   6.006
 4455POPC   GL256582  28.388   4.326   5.991
 4455POPC   C1A56583  28.618   4.146   6.429
 4455POPC   D2A56584  28.298   4.329   6.671
 4455POPC   C3A56585  28.492   4.414   7.033
 4455POPC   C4A56586  28.663   4.266   7.402
 4455POPC   C1B56587  28.049   4.519   6.232
 4455POPC   C2B56588  27.847   4.608   6.618
 4455POPC   C3B56589  28.063   4.665   7.006
 4455POPC   C4B56590  28.312   4.708   7.407
 4456POPC   NC356591  35.975  14.900   5.208
 4456POPC   PO456592  36.359  15.414   5.383
 4456POPC   GL156593  36.016  15.382   5.718
 4456POPC   GL256594  35.901  15.029   5.695
 4456POPC   C1A56595  35.943  15.435   6.175
 4456POPC   D2A56596  36.228  15.304   6.507
 4456POPC   C3A56597  36.330  15.354   6.958
 4456POPC   C4A56598  36.510  14.949   7.104
 4456POPC   C1B56599  35.949  14.909   6.107
 4456POPC   C2B56600  35.798  14.941   6.517
 4456POPC   C3B56601  36.014  14.928   6.900
 4456POPC   C4B56602  36.046  15.038   7.325
 4457POPC   NC356603  19.845   1.037   4.998
 4457POPC   PO456604  20.413   1.459   5.319
 4457POPC   GL156605  20.182   1.422   5.791
 4457POPC   GL256606  19.820   1.500   5.810
 4457POPC   C1A56607  20.046   1.255   6.257
 4457POPC   D2A56608  19.972   1.364   6.729
 4457POPC   C3A56609  19.762   1.070   7.004
 4457POPC   C4A56610  19.343   0.972   7.139
 4457POPC   C1B56611  19.576   1.394   6.168
 4457POPC   C2B56612  19.439   1.331   6.570
 4457POPC   C3B56613  19.540   1.664   6.824
 4457POPC   C4B56614  19.681   1.555   7.192
 4458POPC   NC356615  35.810   9.730   5.538
 4458POPC   PO456616  36.409   9.929   5.407
 4458POPC   GL156617  36.280   9.715   5.790
 4458POPC   GL256618  36.109  10.019   5.852
 4458POPC   C1A56619  35.971   9.536   6.144
 4458POPC   D2A56620  35.803   9.726   6.545
 4458POPC   C3A56621  35.928   9.611   6.976
 4458POPC   C4A56622  35.866   9.518   7.429
 4458POPC   C1B56623  36.240   9.944   6.264
 4458POPC   C2B56624  36.320   9.754   6.667
 4458POPC   C3B56625  36.345   9.929   7.099
 4458POPC   C4B56626  36.610   9.965   7.469
 4459POPC   NC356627  13.490   9.055   5.377
 4459POPC   PO456628  13.794   8.402   5.387
 4459POPC   GL156629  13.695   8.705   5.733
 4459POPC   GL256630  13.908   9.010   5.789
 4459POPC   C1A56631  13.475   8.882   6.130
 4459POPC   D2A56632  13.439   9.069   6.574
 4459POPC   C3A56633  13.470   8.825   7.002
 4459POPC   C4A56634  13.615   9.031   7.398
 4459POPC   C1B56635  13.960   8.734   6.189
 4459POPC   C2B56636  13.864   8.774   6.662
 4459POPC   C3B56637  13.975   8.790   7.120
 4459POPC   C4B56638  13.896   8.623   7.565
 4460POPC   NC356639  22.297  18.610   5.571
 4460POPC   PO456640  22.176  19.315   5.382
 4460POPC   GL156641  22.064  19.124   5.772
 4460POPC   GL256642  22.341  18.932   5.951
 4460POPC   C1A56643  22.034  19.236   6.208
 4460POPC   D2A56644  22.192  19.168   6.598
 4460POPC   C3A56645  22.077  19.428   6.927
 4460POPC   C4A56646  21.921  19.289   7.314
 4460POPC   C1B56647  22.579  18.787   6.314
 4460POPC   C2B56648  22.607  18.922   6.733
 4460POPC   C3B56649  22.375  18.937   7.110
 4460POPC   C4B56650  22.560  18.838   7.511
 4461POPC   NC356651  12.702  25.046   5.365
 4461POPC   PO456652  13.015  25.571   5.336
 4461POPC   GL156653  12.876  25.373   5.719
 4461POPC   GL256654  13.024  25.033   5.767
 4461POPC   C1A56655  12.620  25.158   6.062
 4461POPC   D2A56656  12.499  25.303   6.475
 4461POPC   C3A56657  12.652  25.361   6.850
 4461POPC   C4A56658  12.434  25.380   7.234
 4461POPC   C1B56659  13.122  25.325   6.147
 4461POPC   C2B56660  13.121  25.194   6.551
 4461POPC   C3B56661  13.002  24.987   6.917
 4461POPC   C4B56662  12.927  25.233   7.267
 4462POPC   NC356663  44.435   4.553   5.069
 4462POPC   PO456664  44.790   4.078   5.478
 4462POPC   GL156665  44.680   4.341   5.787
 4462POPC   GL256666  44.665   4.671   5.827
 4462POPC   C1A56667  44.478   4.251   6.154
 4462POPC   D2A56668  44.647   4.061   6.514
 4462POPC   C3A56669  44.575   4.323   6.831
 4462POPC   C4A56670  44.527   4.333   7.252
 4462POPC   C1B56671  44.742   4.675   6.275
 4462POPC   C2B56672  44.719   4.806   6.709
 4462POPC   C3B56673  44.807   4.741   7.156
 4462POPC   C4B56674  44.895   4.923   7.582
 4463POPC   NC356675  29.602  24.434   5.369
 4463POPC   PO456676  29.334  25.023   5.629
 4463POPC   GL156677  29.316  24.581   5.796
 4463POPC   GL256678  28.963  24.470   5.821
 4463POPC   C1A56679  29.271  24.299   6.175
 4463POPC   D2A56680  29.035  24.373   6.541
 4463POPC   C3A56681  29.321  24.435   6.856
 4463POPC   C4A56682  29.364  24.648   7.246
 4463POPC   C1B56683  28.992  24.760   6.209
 4463POPC   C2B56684  29.070  24.862   6.672
 4463POPC   C3B56685  28.892  24.632   7.030
 4463POPC   C4B56686  28.926  24.676   7.484
 4464POPC   NC356687  33.096  27.959   5.271
 4464POPC   PO456688  33.125  27.284   5.350
 4464POPC   GL156689  33.328  27.425   5.713
 4464POPC   GL256690  33.314  27.777   5.768
 4464POPC   C1A56691  33.256  27.301   6.134
 4464POPC   D2A56692  32.991  27.368   6.469
 4464POPC   C3A56693  33.106  27.529   6.863
 4464POPC   C4A56694  32.925  27.457   7.272
 4464POPC   C1B56695  33.238  27.826   6.251
 4464POPC   C2B56696  33.355  27.972   6.688
 4464POPC   C3B56697  33.244  27.928   7.165
 4464POPC   C4B56698  32.967  27.893   7.553
 4465POPC   NC356699   7.671   5.844   5.422
 4465POPC   PO456700   7.181   6.045   5.646
 4465POPC   GL156701   7.463   5.900   5.910
 4465POPC   GL256702   7.531   5.612   5.849
 4465POPC   C1A56703   7.674   5.991   6.282
 4465POPC   D2A56704   7.542   6.100   6.711
 4465POPC   C3A56705   7.562   5.883   7.100
 4465POPC   C4A56706   7.220   5.835   7.407
 4465POPC   C1B56707   7.384   5.521   6.241
 4465POPC   C2B56708   7.366   5.621   6.668
 4465POPC   C3B56709   7.290   5.454   7.082
 4465POPC   C4B56710   7.584   5.464   7.423
 4466POPC   NC356711   6.885   8.503   5.464
 4466POPC   PO456712   6.596   7.862   5.491
 4466POPC   GL156713   6.628   7.953   5.900
 4466POPC   GL256714   6.826   8.225   5.892
 4466POPC   C1A56715   6.708   7.968   6.351
 4466POPC   D2A56716   6.511   7.968   6.735
 4466POPC   C3A56717   6.703   8.188   7.059
 4466POPC   C4A56718   6.719   8.222   7.478
 4466POPC   C1B56719   6.476   8.378   6.167
 4466POPC   C2B56720   6.504   8.466   6.583
 4466POPC   C3B56721   6.246   8.412   6.909
 4466POPC   C4B56722   6.305   8.455   7.308
 4467POPC   NC356723   9.875  15.868   5.120
 4467POPC   PO456724   9.546  16.230   5.611
 4467POPC   GL156725   9.827  15.921   5.764
 4467POPC   GL256726   9.961  16.174   5.942
 4467POPC   C1A56727   9.800  15.805   6.234
 4467POPC   D2A56728   9.519  15.840   6.600
 4467POPC   C3A56729   9.759  15.973   6.947
 4467POPC   C4A56730   9.916  15.876   7.337
 4467POPC   C1B56731   9.654  16.318   6.232
 4467POPC   C2B56732   9.756  16.362   6.607
 4467POPC   C3B56733   9.698  16.500   6.970
 4467POPC   C4B56734   9.805  16.373   7.339
 4468POPC   NC356735  23.628   1.962   5.205
 4468POPC   PO456736  22.992   1.935   5.515
 4468POPC   GL156737  22.887   2.059   5.891
 4468POPC   GL256738  22.675   1.784   5.911
 4468POPC   C1A56739  23.052   2.124   6.296
 4468POPC   D2A56740  22.889   2.022   6.682
 4468POPC   C3A56741  23.194   2.046   6.970
 4468POPC   C4A56742  23.017   2.127   7.323
 4468POPC   C1B56743  22.927   1.606   6.259
 4468POPC   C2B56744  23.024   1.538   6.716
 4468POPC   C3B56745  22.876   1.685   7.110
 4468POPC   C4B56746  23.090   1.682   7.517
 4469POPC   NC356747   6.368  12.574   5.404
 4469POPC   PO456748   6.824  12.094   5.271
 4469POPC   GL156749   6.762  12.146   5.747
 4469POPC   GL256750   6.518  12.400   5.927
 4469POPC   C1A56751   6.782  12.065   6.193
 4469POPC   D2A56752   6.742  11.701   6.440
 4469POPC   C3A56753   6.778  11.692   6.879
 4469POPC   C4A56754   6.834  12.014   7.168
 4469POPC   C1B56755   6.651  12.554   6.330
 4469POPC   C2B56756   6.507  12.313   6.685
 4469POPC   C3B56757   6.493  12.385   7.124
 4469POPC   C4B56758   6.430  12.450   7.568
 4470POPC   NC356759  24.775  12.348   5.241
 4470POPC   PO456760  25.304  11.941   5.382
 4470POPC   GL156761  25.131  12.169   5.727
 4470POPC   GL256762  25.175  11.840   5.881
 4470POPC   C1A56763  25.120  12.257   6.183
 4470POPC   D2A56764  25.382  12.318   6.541
 4470POPC   C3A56765  25.346  12.341   6.969
 4470POPC   C4A56766  25.486  12.136   7.344
 4470POPC   C1B56767  24.936  11.790   6.234
 4470POPC   C2B56768  24.874  12.003   6.603
 4470POPC   C3B56769  25.031  11.924   7.009
 4470POPC   C4B56770  24.866  12.232   7.248
 4471POPC   NC356771  16.951  25.079   5.430
 4471POPC   PO456772  16.394  24.865   5.664
 4471POPC   GL156773  16.705  25.084   5.909
 4471POPC   GL256774  16.728  25.402   5.754
 4471POPC   C1A56775  16.653  25.325   6.309
 4471POPC   D2A56776  16.362  25.261   6.678
 4471POPC   C3A56777  16.539  25.202   7.092
 4471POPC   C4A56778  16.990  25.088   7.202
 4471POPC   C1B56779  16.867  25.718   6.018
 4471POPC   C2B56780  16.862  25.805   6.433
 4471POPC   C3B56781  16.819  25.537   6.775
 4471POPC   C4B56782  16.884  25.592   7.187
 4472POPC   NC356783   6.913  36.892   5.239
 4472POPC   PO456784   7.646  36.848   5.257
 4472POPC   GL156785   7.615  36.901   5.831
 4472POPC   GL256786   7.297  36.768   6.010
 4472POPC   C1A56787   7.562  37.185   6.192
 4472POPC   D2A56788   7.377  36.935   6.519
 4472POPC   C3A56789   7.163  36.930   6.925
 4472POPC   C4A56790   7.556  37.061   7.078
 4472POPC   C1B56791   7.533  36.431   6.160
 4472POPC   C2B56792   7.724  36.487   6.508
 4472POPC   C3B56793   7.516  36.565   6.862
 4472POPC   C4B56794   7.678  36.578   7.263
 4473POPC   NC356795  41.246  32.206   5.453
 4473POPC   PO456796  41.683  32.656   5.357
 4473POPC   GL156797  41.624  32.347   5.783
 4473POPC   GL256798  41.639  31.986   5.816
 4473POPC   C1A56799  41.702  32.332   6.264
 4473POPC   D2A56800  41.815  32.509   6.715
 4473POPC   C3A56801  41.578  32.388   7.127
 4473POPC   C4A56802  41.402  32.541   7.572
 4473POPC   C1B56803  41.573  31.833   6.263
 4473POPC   C2B56804  41.541  32.002   6.706
 4473POPC   C3B56805  41.798  31.913   7.085
 4473POPC   C4B56806  41.780  31.976   7.567
 4474POPC   NC356807  15.153  13.386   5.528
 4474POPC   PO456808  15.542  14.004   5.401
 4474POPC   GL156809  15.233  13.892   5.763
 4474POPC   GL256810  15.324  13.585   5.963
 4474POPC   C1A56811  14.927  13.855   6.139
 4474POPC   D2A56812  14.991  13.602   6.530
 4474POPC   C3A56813  15.132  13.684   6.963
 4474POPC   C4A56814  14.890  13.402   7.240
 4474POPC   C1B56815  15.443  13.788   6.341
 4474POPC   C2B56816  15.582  13.595   6.737
 4474POPC   C3B56817  15.559  13.500   7.198
 4474POPC   C4B56818  15.646  13.554   7.633
 4475POPC   NC356819  21.331  12.599   5.466
 4475POPC   PO456820  21.844  13.016   5.431
 4475POPC   GL156821  21.673  13.089   5.791
 4475POPC   GL256822  21.322  13.050   5.743
 4475POPC   C1A56823  21.661  12.871   6.171
 4475POPC   D2A56824  21.487  12.730   6.552
 4475POPC   C3A56825  21.624  12.942   6.901
 4475POPC   C4A56826  21.372  12.815   7.197
 4475POPC   C1B56827  21.170  12.792   6.118
 4475POPC   C2B56828  20.969  12.699   6.514
 4475POPC   C3B56829  20.986  12.548   6.947
 4475POPC   C4B56830  20.916  12.702   7.393
 4476POPC   NC356831  38.093  27.500   5.258
 4476POPC   PO456832  38.757  27.625   5.240
 4476POPC   GL156833  38.687  27.606   5.736
 4476POPC   GL256834  38.397  27.821   5.897
 4476POPC   C1A56835  38.598  27.429   6.170
 4476POPC   D2A56836  38.568  27.607   6.589
 4476POPC   C3A56837  38.533  27.357   6.948
 4476POPC   C4A56838  38.530  27.522   7.329
 4476POPC   C1B56839  38.045  27.919   6.200
 4476POPC   C2B56840  37.910  27.864   6.634
 4476POPC   C3B56841  38.156  27.769   6.997
 4476POPC   C4B56842  38.266  27.962   7.369
 4477POPC   NC356843  24.361   8.381   5.340
 4477POPC   PO456844  24.696   7.775   5.306
 4477POPC   GL156845  24.505   7.895   5.706
 4477POPC   GL256846  24.171   7.974   5.632
 4477POPC   C1A56847  24.562   8.145   6.112
 4477POPC   D2A56848  24.670   8.032   6.567
 4477POPC   C3A56849  24.652   8.248   6.980
 4477POPC   C4A56850  24.483   8.096   7.378
 4477POPC   C1B56851  24.126   7.875   6.087
 4477POPC   C2B56852  24.259   7.733   6.484
 4477POPC   C3B56853  24.252   7.937   6.873
 4477POPC   C4B56854  24.120   7.741   7.215
 4478POPC   NC356855  19.185  40.371   5.428
 4478POPC   PO456856  18.821  39.919   5.507
 4478POPC   GL156857  19.133  40.040   5.828
 4478POPC   GL256858  19.486  40.209   5.812
 4478POPC   C1A56859  19.092  40.026   6.251
 4478POPC   D2A56860  18.895  39.856   6.613
 4478POPC   C3A56861  18.947  40.127   6.959
 4478POPC   C4A56862  19.005  40.047   7.398
 4478POPC   C1B56863  19.581  39.908   6.140
 4478POPC   C2B56864  19.413  39.781   6.560
 4478POPC   C3B56865  19.390  39.882   6.999
 4478POPC   C4B56866  19.511  40.154   7.363
 4479POPC   NC356867  38.559  38.157   5.522
 4479POPC   PO456868  38.357  37.593   5.240
 4479POPC   GL156869  38.370  37.711   5.706
 4479POPC   GL256870  38.183  38.020   5.824
 4479POPC   C1A56871  38.673  37.615   6.063
 4479POPC   D2A56872  38.771  37.485   6.504
 4479POPC   C3A56873  38.466  37.616   6.871
 4479POPC   C4A56874  38.594  37.750   7.274
 4479POPC   C1B56875  38.222  37.828   6.225
 4479POPC   C2B56876  38.163  37.993   6.637
 4479POPC   C3B56877  38.254  38.079   7.070
 4479POPC   C4B56878  38.246  38.021   7.556
 4480POPC   NC356879  37.259  37.193   5.267
 4480POPC   PO456880  36.708  36.919   5.416
 4480POPC   GL156881  36.752  37.035   5.826
 4480POPC   GL256882  37.029  37.268   5.785
 4480POPC   C1A56883  36.870  37.042   6.251
 4480POPC   D2A56884  36.965  36.715   6.539
 4480POPC   C3A56885  37.065  36.763   6.916
 4480POPC   C4A56886  36.924  36.977   7.245
 4480POPC   C1B56887  37.254  37.346   6.141
 4480POPC   C2B56888  37.304  37.140   6.515
 4480POPC   C3B56889  37.204  37.255   6.888
 4480POPC   C4B56890  37.411  37.255   7.240
 4481POPC   NC356891  39.462  42.221   5.501
 4481POPC   PO456892  38.768  42.166   5.527
 4481POPC   GL156893  39.058  42.387   5.850
 4481POPC   GL256894  39.416  42.471   5.920
 4481POPC   C1A56895  39.124  42.147   6.240
 4481POPC   D2A56896  38.950  41.919   6.618
 4481POPC   C3A56897  39.116  42.092   6.977
 4481POPC   C4A56898  39.568  42.154   7.078
 4481POPC   C1B56899  39.362  42.599   6.313
 4481POPC   C2B56900  39.354  42.443   6.692
 4481POPC   C3B56901  39.234  42.585   7.087
 4481POPC   C4B56902  39.289  42.784   7.465
 4482POPC   NC356903  12.522   8.565   5.247
 4482POPC   PO456904  13.016   9.030   5.385
 4482POPC   GL156905  12.821   8.945   5.778
 4482POPC   GL256906  12.644   8.650   5.740
 4482POPC   C1A56907  12.987   8.700   6.157
 4482POPC   D2A56908  13.130   8.653   6.613
 4482POPC   C3A56909  13.020   9.041   6.884
 4482POPC   C4A56910  13.115   9.043   7.327
 4482POPC   C1B56911  12.501   8.810   6.151
 4482POPC   C2B56912  12.681   8.907   6.522
 4482POPC   C3B56913  12.540   8.857   6.909
 4482POPC   C4B56914  12.608   8.925   7.304
 4483POPC   NC356915  41.763  37.113   5.220
 4483POPC   PO456916  41.357  36.676   5.334
 4483POPC   GL156917  41.407  36.883   5.703
 4483POPC   GL256918  41.117  36.735   5.832
 4483POPC   C1A56919  41.483  36.892   6.160
 4483POPC   D2A56920  41.554  37.075   6.568
 4483POPC   C3A56921  41.738  36.917   6.973
 4483POPC   C4A56922  41.663  37.145   7.388
 4483POPC   C1B56923  41.069  36.617   6.295
 4483POPC   C2B56924  41.274  36.646   6.750
 4483POPC   C3B56925  41.384  36.671   7.211
 4483POPC   C4B56926  41.381  36.771   7.629
 4484POPC   NC356927  32.402   3.850   5.405
 4484POPC   PO456928  32.069   3.204   5.417
 4484POPC   GL156929  32.234   3.362   5.780
 4484POPC   GL256930  32.197   3.700   5.834
 4484POPC   C1A56931  32.283   3.355   6.213
 4484POPC   D2A56932  32.000   3.411   6.547
 4484POPC   C3A56933  32.136   3.443   6.927
 4484POPC   C4A56934  32.236   3.176   7.267
 4484POPC   C1B56935  31.906   3.732   6.159
 4484POPC   C2B56936  31.897   3.931   6.563
 4484POPC   C3B56937  31.946   3.959   7.009
 4484POPC   C4B56938  32.000   3.657   7.352
 4485POPC   NC356939  24.804  41.978   5.570
 4485POPC   PO456940  24.171  41.655   5.506
 4485POPC   GL156941  24.357  41.727   5.921
 4485POPC   GL256942  24.715  41.670   6.011
 4485POPC   C1A56943  24.355  41.558   6.374
 4485POPC   D2A56944  24.334  41.471   6.820
 4485POPC   C3A56945  24.459  41.745   7.152
 4485POPC   C4A56946  24.551  41.613   7.553
 4485POPC   C1B56947  24.710  41.223   6.219
 4485POPC   C2B56948  24.690  41.093   6.695
 4485POPC   C3B56949  24.678  41.282   7.153
 4485POPC   C4B56950  24.876  41.224   7.621
 4486POPC   NC356951   1.582   8.280   5.340
 4486POPC   PO456952   2.051   7.875   5.460
 4486POPC   GL156953   2.139   7.869   5.882
 4486POPC   GL256954   2.137   8.235   5.917
 4486POPC   C1A56955   2.109   7.884   6.323
 4486POPC   D2A56956   2.373   8.088   6.619
 4486POPC   C3A56957   2.204   8.433   6.816
 4486POPC   C4A56958   2.293   8.599   7.220
 4486POPC   C1B56959   1.755   8.266   6.192
 4486POPC   C2B56960   1.690   8.034   6.571
 4486POPC   C3B56961   1.948   7.957   6.884
 4486POPC   C4B56962   1.853   8.290   7.174
 4487POPC   NC356963   5.194  33.225   5.531
 4487POPC   PO456964   4.720  32.866   5.796
 4487POPC   GL156965   5.068  32.768   5.994
 4487POPC   GL256966   5.387  32.774   5.787
 4487POPC   C1A56967   5.034  32.920   6.409
 4487POPC   D2A56968   4.794  33.113   6.726
 4487POPC   C3A56969   4.962  32.909   7.088
 4487POPC   C4A56970   5.119  33.116   7.462
 4487POPC   C1B56971   5.533  32.863   6.225
 4487POPC   C2B56972   5.468  32.837   6.699
 4487POPC   C3B56973   5.437  33.142   7.048
 4487POPC   C4B56974   5.413  33.490   7.335
 4488POPC   NC356975   3.283  41.471   5.539
 4488POPC   PO456976   2.777  41.946   5.423
 4488POPC   GL156977   2.650  41.805   5.819
 4488POPC   GL256978   2.918  41.589   5.917
 4488POPC   C1A56979   2.509  41.694   6.246
 4488POPC   D2A56980   2.615  41.458   6.581
 4488POPC   C3A56981   2.663  41.682   6.944
 4488POPC   C4A56982   2.647  41.506   7.330
 4488POPC   C1B56983   3.070  41.506   6.351
 4488POPC   C2B56984   3.037  41.178   6.631
 4488POPC   C3B56985   2.825  41.162   6.985
 4488POPC   C4B56986   3.119  41.310   7.288
 4489POPC   NC356987  24.091  42.117   5.480
 4489POPC   PO456988  24.639  42.457   5.450
 4489POPC   GL156989  24.697  42.619   5.833
 4489POPC   GL256990  24.596  42.281   5.945
 4489POPC   C1A56991  24.772  42.623   6.282
 4489POPC   D2A56992  24.527  42.453   6.623
 4489POPC   C3A56993  24.714  42.518   6.986
 4489POPC   C4A56994  24.555  42.382   7.348
 4489POPC   C1B56995  24.458  42.069   6.298
 4489POPC   C2B56996  24.643  41.921   6.692
 4489POPC   C3B56997  24.877  42.028   7.080
 4489POPC   C4B56998  24.848  42.028   7.542
 4490POPC   NC356999   5.433   7.003   5.509
 4490POPC   PO457000   5.925   7.429   5.407
 4490POPC   GL157001   6.088   7.457   5.790
 4490POPC   GL257002   5.992   7.148   5.906
 4490POPC   C1A57003   5.912   7.583   6.168
 4490POPC   D2A57004   6.147   7.627   6.535
 4490POPC   C3A57005   6.100   7.421   6.931
 4490POPC   C4A57006   5.843   7.590   7.290
 4490POPC   C1B57007   5.984   7.098   6.324
 4490POPC   C2B57008   5.706   7.308   6.545
 4490POPC   C3B57009   5.587   7.431   6.890
 4490POPC   C4B57010   5.774   7.081   7.149
 4491POPC   NC357011  35.001  28.915   5.285
 4491POPC   PO457012  34.468  29.385   5.444
 4491POPC   GL157013  34.657  29.181   5.792
 4491POPC   GL257014  34.867  28.904   5.778
 4491POPC   C1A57015  34.499  29.179   6.202
 4491POPC   D2A57016  34.512  29.365   6.577
 4491POPC   C3A57017  34.426  29.166   6.915
 4491POPC   C4A57018  34.619  29.131   7.297
 4491POPC   C1B57019  34.792  28.776   6.192
 4491POPC   C2B57020  34.569  28.788   6.570
 4491POPC   C3B57021  34.708  28.719   6.958
 4491POPC   C4B57022  35.047  28.877   7.207
 4492POPC   NC357023   9.300  22.626   5.455
 4492POPC   PO457024   8.913  22.007   5.466
 4492POPC   GL157025   9.131  22.110   5.839
 4492POPC   GL257026   8.823  22.265   5.897
 4492POPC   C1A57027   9.109  22.178   6.320
 4492POPC   D2A57028   9.046  22.012   6.754
 4492POPC   C3A57029   9.221  22.258   7.112
 4492POPC   C4A57030   9.246  22.275   7.581
 4492POPC   C1B57031   8.594  22.005   6.215
 4492POPC   C2B57032   8.400  21.893   6.617
 4492POPC   C3B57033   8.589  21.870   7.014
 4492POPC   C4B57034   8.540  22.088   7.393
 4493POPC   NC357035  27.246  34.851   5.662
 4493POPC   PO457036  27.818  34.364   5.516
 4493POPC   GL157037  27.652  34.573   5.804
 4493POPC   GL257038  27.461  34.358   5.951
 4493POPC   C1A57039  27.748  34.802   6.154
 4493POPC   D2A57040  27.648  34.918   6.578
 4493POPC   C3A57041  27.674  34.669   6.955
 4493POPC   C4A57042  27.649  34.861   7.366
 4493POPC   C1B57043  27.456  34.443   6.358
 4493POPC   C2B57044  27.477  34.224   6.721
 4493POPC   C3B57045  27.308  34.270   7.110
 4493POPC   C4B57046  27.189  34.650   7.239
 4494POPC   NC357047  22.589  17.658   5.481
 4494POPC   PO457048  23.119  17.247   5.468
 4494POPC   GL157049  23.032  17.593   5.740
 4494POPC   GL257050  22.800  17.351   5.862
 4494POPC   C1A57051  22.851  17.783   6.137
 4494POPC   D2A57052  22.788  17.912   6.567
 4494POPC   C3A57053  22.984  17.683   6.902
 4494POPC   C4A57054  22.879  17.628   7.329
 4494POPC   C1B57055  23.169  17.374   6.173
 4494POPC   C2B57056  23.092  17.255   6.581
 4494POPC   C3B57057  23.048  17.169   6.979
 4494POPC   C4B57058  23.304  17.343   7.224
 4495POPC   NC357059  32.035  38.309   5.473
 4495POPC   PO457060  32.377  38.909   5.267
 4495POPC   GL157061  32.180  38.764   5.687
 4495POPC   GL257062  32.377  38.493   5.889
 4495POPC   C1A57063  31.960  38.629   6.103
 4495POPC   D2A57064  32.319  38.553   6.425
 4495POPC   C3A57065  32.337  38.540   6.885
 4495POPC   C4A57066  32.118  38.297   7.198
 4495POPC   C1B57067  32.118  38.149   6.178
 4495POPC   C2B57068  32.077  38.134   6.656
 4495POPC   C3B57069  32.411  37.988   6.934
 4495POPC   C4B57070  32.391  37.886   7.378
 4496POPC   NC357071  19.225  16.384   5.374
 4496POPC   PO457072  18.573  16.623   5.199
 4496POPC   GL157073  18.819  16.527   5.654
 4496POPC   GL257074  19.041  16.817   5.719
 4496POPC   C1A57075  18.862  16.601   6.147
 4496POPC   D2A57076  18.843  16.922   6.542
 4496POPC   C3A57077  18.977  16.700   6.900
 4496POPC   C4A57078  18.844  16.594   7.296
 4496POPC   C1B57079  19.063  17.084   6.093
 4496POPC   C2B57080  19.203  17.277   6.469
 4496POPC   C3B57081  19.231  17.190   6.889
 4496POPC   C4B57082  19.177  17.016   7.292
 4497POPC   NC357083   2.338   6.594   5.362
 4497POPC   PO457084   1.824   7.032   5.248
 4497POPC   GL157085   1.955   6.869   5.664
 4497POPC   GL257086   1.982   6.498   5.736
 4497POPC   C1A57087   2.024   6.888   6.108
 4497POPC   D2A57088   2.046   6.693   6.500
 4497POPC   C3A57089   1.902   6.920   6.835
 4497POPC   C4A57090   2.066   6.778   7.230
 4497POPC   C1B57091   1.824   6.372   6.139
 4497POPC   C2B57092   1.841   6.199   6.551
 4497POPC   C3B57093   1.956   6.398   6.923
 4497POPC   C4B57094   2.027   6.249   7.338
 4498POPC   NC357095   9.376   9.163   5.661
 4498POPC   PO457096   8.820   8.892   5.471
 4498POPC   GL157097   8.975   8.845   5.853
 4498POPC   GL257098   8.909   9.193   5.892
 4498POPC   C1A57099   9.010   8.890   6.300
 4498POPC   D2A57100   8.911   9.179   6.611
 4498POPC   C3A57101   9.130   9.012   6.940
 4498POPC   C4A57102   8.989   8.666   7.164
 4498POPC   C1B57103   8.595   9.185   6.201
 4498POPC   C2B57104   8.417   8.983   6.564
 4498POPC   C3B57105   8.433   9.145   6.969
 4498POPC   C4B57106   8.749   9.140   7.248
 4499POPC   NC357107  39.486  22.272   5.406
 4499POPC   PO457108  38.983  21.725   5.333
 4499POPC   GL157109  39.174  21.956   5.668
 4499POPC   GL257110  39.490  21.814   5.725
 4499POPC   C1A57111  39.117  21.886   6.120
 4499POPC   D2A57112  38.988  22.136   6.458
 4499POPC   C3A57113  38.999  22.097   6.913
 4499POPC   C4A57114  38.986  22.184   7.361
 4499POPC   C1B57115  39.553  22.131   6.066
 4499POPC   C2B57116  39.504  21.913   6.453
 4499POPC   C3B57117  39.430  21.823   6.855
 4499POPC   C4B57118  39.543  22.162   7.111
 4500POPC   NC357119   9.526  36.043   5.635
 4500POPC   PO457120  10.046  36.351   5.475
 4500POPC   GL157121  10.051  36.010   5.781
 4500POPC   GL257122   9.858  35.721   5.828
 4500POPC   C1A57123   9.980  36.051   6.215
 4500POPC   D2A57124  10.054  36.320   6.568
 4500POPC   C3A57125   9.896  36.161   6.937
 4500POPC   C4A57126   9.518  36.119   7.150
 4500POPC   C1B57127   9.590  35.719   6.207
 4500POPC   C2B57128   9.534  35.902   6.623
 4500POPC   C3B57129   9.495  35.651   6.988
 4500POPC   C4B57130   9.589  35.695   7.431
 4501POPC   NC357131  26.428  31.995   5.480
 4501POPC   PO457132  25.901  32.438   5.365
 4501POPC   GL157133  26.047  32.227   5.742
 4501POPC   GL257134  25.876  31.901   5.738
 4501POPC   C1A57135  26.202  32.143   6.182
 4501POPC   D2A57136  25.987  32.118   6.606
 4501POPC   C3A57137  26.125  32.253   7.041
 4501POPC   C4A57138  26.195  32.156   7.515
 4501POPC   C1B57139  25.678  32.063   6.159
 4501POPC   C2B57140  25.456  32.026   6.575
 4501POPC   C3B57141  25.640  32.043   6.989
 4501POPC   C4B57142  25.709  32.100   7.403
 4502POPC   NC357143  37.241  29.089   5.726
 4502POPC   PO457144  37.918  29.282   5.537
 4502POPC   GL157145  37.857  29.228   5.952
 4502POPC   GL257146  37.679  28.917   6.045
 4502POPC   C1A57147  37.876  29.378   6.362
 4502POPC   D2A57148  37.823  29.198   6.775
 4502POPC   C3A57149  37.904  29.398   7.146
 4502POPC   C4A57150  37.477  29.464   7.220
 4502POPC   C1B57151  37.399  28.616   6.316
 4502POPC   C2B57152  37.315  28.590   6.779
 4502POPC   C3B57153  37.636  28.602   7.119
 4502POPC   C4B57154  37.804  28.884   7.412
 4503POPC   NC357155  10.497  42.661   5.455
 4503POPC   PO457156  10.077  42.146   5.645
 4503POPC   GL157157  10.446  42.349   5.879
 4503POPC   GL257158  10.744  42.610   5.901
 4503POPC   C1A57159  10.387  42.577   6.278
 4503POPC   D2A57160  10.198  42.651   6.689
 4503POPC   C3A57161  10.483  42.466   7.037
 4503POPC   C4A57162  10.377  42.277   7.457
 4503POPC   C1B57163  10.875  42.360   6.277
 4503POPC   C2B57164  10.739  42.198   6.674
 4503POPC   C3B57165  10.817  42.025   7.086
 4503POPC   C4B57166  10.891  42.191   7.500
 4504POPC   NC357167   8.809  27.234   5.339
 4504POPC   PO457168   9.205  27.707   5.279
 4504POPC   GL157169   9.036  27.655   5.719
 4504POPC   GL257170   8.876  27.340   5.883
 4504POPC   C1A57171   9.226  27.593   6.156
 4504POPC   D2A57172   9.063  27.274   6.452
 4504POPC   C3A57173   9.156  27.319   6.920
 4504POPC   C4A57174   9.178  27.743   7.119
 4504POPC   C1B57175   8.726  27.739   6.123
 4504POPC   C2B57176   8.730  28.069   6.466
 4504POPC   C3B57177   8.768  28.004   6.915
 4504POPC   C4B57178   8.707  27.592   7.172
 4505POPC   NC357179  32.608   7.057   5.496
 4505POPC   PO457180  32.035   6.584   5.370
 4505POPC   GL157181  32.057   6.663   5.794
 4505POPC   GL257182  32.413   6.610   5.774
 4505POPC   C1A57183  32.096   6.494   6.215
 4505POPC   D2A57184  32.317   6.494   6.603
 4505POPC   C3A57185  32.143   6.584   6.975
 4505POPC   C4A57186  31.932   6.932   7.066
 4505POPC   C1B57187  32.590   6.465   6.160
 4505POPC   C2B57188  32.767   6.721   6.503
 4505POPC   C3B57189  32.601   6.823   6.893
 4505POPC   C4B57190  32.586   6.645   7.270
 4506POPC   NC357191   7.175  24.145   5.395
 4506POPC   PO457192   7.399  24.799   5.454
 4506POPC   GL157193   7.469  24.502   5.778
 4506POPC   GL257194   7.134  24.482   5.777
 4506POPC   C1A57195   7.638  24.366   6.211
 4506POPC   D2A57196   7.817  24.206   6.595
 4506POPC   C3A57197   7.571  24.273   6.964
 4506POPC   C4A57198   7.595  24.360   7.408
 4506POPC   C1B57199   7.177  24.189   6.091
 4506POPC   C2B57200   7.238  24.153   6.537
 4506POPC   C3B57201   7.021  24.413   6.857
 4506POPC   C4B57202   7.096  24.445   7.301
 4507POPC   NC357203  18.041  11.325   5.444
 4507POPC   PO457204  18.648  10.993   5.538
 4507POPC   GL157205  18.294  11.144   5.848
 4507POPC   GL257206  17.911  11.245   5.909
 4507POPC   C1A57207  18.220  11.026   6.262
 4507POPC   D2A57208  18.484  11.120   6.634
 4507POPC   C3A57209  18.282  11.121   7.055
 4507POPC   C4A57210  18.491  11.455   7.302
 4507POPC   C1B57211  18.021  11.482   6.265
 4507POPC   C2B57212  17.955  11.257   6.663
 4507POPC   C3B57213  17.903  11.471   7.034
 4507POPC   C4B57214  18.153  11.827   7.172
 4508POPC   NC357215  34.884  12.874   5.506
 4508POPC   PO457216  35.510  12.919   5.425
 4508POPC   GL157217  35.259  13.172   5.776
 4508POPC   GL257218  35.162  12.877   5.929
 4508POPC   C1A57219  35.121  13.244   6.257
 4508POPC   D2A57220  35.338  13.071   6.631
 4508POPC   C3A57221  35.152  12.997   7.033
 4508POPC   C4A57222  35.358  13.004   7.423
 4508POPC   C1B57223  35.332  12.578   6.208
 4508POPC   C2B57224  35.497  12.485   6.625
 4508POPC   C3B57225  35.594  12.666   7.017
 4508POPC   C4B57226  35.312  12.528   7.268
 4509POPC   NC357227   8.370  20.933   5.465
 4509POPC   PO457228   7.952  20.439   5.459
 4509POPC   GL157229   8.178  20.635   5.849
 4509POPC   GL257230   8.558  20.655   5.829
 4509POPC   C1A57231   8.318  20.555   6.288
 4509POPC   D2A57232   8.109  20.301   6.585
 4509POPC   C3A57233   8.013  20.484   6.986
 4509POPC   C4A57234   8.210  20.461   7.362
 4509POPC   C1B57235   8.810  20.502   6.133
 4509POPC   C2B57236   8.817  20.634   6.512
 4509POPC   C3B57237   8.503  20.617   6.804
 4509POPC   C4B57238   8.651  20.605   7.203
 4510POPC   NC357239  16.478  41.502   5.463
 4510POPC   PO457240  15.878  41.625   5.325
 4510POPC   GL157241  15.988  41.541   5.733
 4510POPC   GL257242  15.975  41.178   5.749
 4510POPC   C1A57243  15.899  41.799   6.110
 4510POPC   D2A57244  15.686  42.052   6.437
 4510POPC   C3A57245  15.767  41.861   6.825
 4510POPC   C4A57246  15.723  41.745   7.246
 4510POPC   C1B57247  16.115  41.328   6.177
 4510POPC   C2B57248  16.091  41.594   6.559
 4510POPC   C3B57249  16.036  41.437   6.989
 4510POPC   C4B57250  16.299  41.148   7.248
 4511POPC   NC357251  14.411  43.261   5.375
 4511POPC   PO457252  14.787  42.688   5.378
 4511POPC   GL157253  14.575  42.784   5.788
 4511POPC   GL257254  14.339  43.068   5.833
 4511POPC   C1A57255  14.479  42.827   6.260
 4511POPC   D2A57256  14.742  42.629   6.557
 4511POPC   C3A57257  14.703  42.843   6.937
 4511POPC   C4A57258  14.416  42.973   7.233
 4511POPC   C1B57259  14.291  43.317   6.203
 4511POPC   C2B57260  14.247  43.179   6.636
 4511POPC   C3B57261  14.129  43.360   7.020
 4511POPC   C4B57262  14.225  43.650   7.379
 4512POPC   NC357263  21.750  29.345   5.430
 4512POPC   PO457264  21.060  29.162   5.447
 4512POPC   GL157265  21.152  28.989   5.866
 4512POPC   GL257266  21.489  28.856   5.810
 4512POPC   C1A57267  21.158  29.068   6.317
 4512POPC   D2A57268  21.363  28.938   6.687
 4512POPC   C3A57269  21.198  29.129   7.059
 4512POPC   C4A57270  21.348  29.105   7.508
 4512POPC   C1B57271  21.654  29.015   6.228
 4512POPC   C2B57272  21.731  29.324   6.587
 4512POPC   C3B57273  21.682  29.270   7.052
 4512POPC   C4B57274  21.871  29.089   7.429
 4513POPC   NC357275  40.705  19.786   5.399
 4513POPC   PO457276  40.174  19.574   5.631
 4513POPC   GL157277  40.603  19.739   5.895
 4513POPC   GL257278  40.721  20.082   5.909
 4513POPC   C1A57279  41.012  19.713   6.142
 4513POPC   D2A57280  41.194  19.854   6.544
 4513POPC   C3A57281  40.916  19.923   6.887
 4513POPC   C4A57282  41.009  19.577   7.150
 4513POPC   C1B57283  40.683  20.035   6.392
 4513POPC   C2B57284  40.403  19.907   6.753
 4513POPC   C3B57285  40.352  20.048   7.194
 4513POPC   C4B57286  40.240  20.040   7.680
 4514POPC   NC357287  44.166  14.629   5.678
 4514POPC   PO457288  44.842  14.805   5.501
 4514POPC   GL157289  44.804  14.654   5.900
 4514POPC   GL257290  44.646  14.330   5.820
 4514POPC   C1A57291  44.502  14.609   6.230
 4514POPC   D2A57292  44.227  14.478   6.541
 4514POPC   C3A57293  44.370  14.597   6.941
 4514POPC   C4A57294  44.359  14.335   7.258
 4514POPC   C1B57295  44.861  14.219   6.194
 4514POPC   C2B57296  44.720  14.318   6.616
 4514POPC   C3B57297  44.630  14.053   6.949
 4514POPC   C4B57298  44.929  13.996   7.268
 4515POPC   NC357299  15.722  38.529   5.526
 4515POPC   PO457300  16.295  38.133   5.616
 4515POPC   GL157301  16.107  38.462   5.859
 4515POPC   GL257302  15.815  38.328   5.989
 4515POPC   C1A57303  16.142  38.598   6.286
 4515POPC   D2A57304  15.924  38.546   6.639
 4515POPC   C3A57305  16.050  38.422   7.066
 4515POPC   C4A57306  15.843  38.650   7.394
 4515POPC   C1B57307  15.697  38.138   6.365
 4515POPC   C2B57308  15.715  38.138   6.822
 4515POPC   C3B57309  15.619  38.214   7.244
 4515POPC   C4B57310  15.898  38.235   7.632
 4516POPC   NC357311  43.272  24.736   5.185
 4516POPC   PO457312  43.051  25.360   5.257
 4516POPC   GL157313  43.286  25.123   5.604
 4516POPC   GL257314  43.013  25.202   5.766
 4516POPC   C1A57315  43.363  25.178   6.116
 4516POPC   D2A57316  43.377  25.417   6.539
 4516POPC   C3A57317  43.342  25.174   6.951
 4516POPC   C4A57318  43.553  25.289   7.338
 4516POPC   C1B57319  42.833  25.158   6.179
 4516POPC   C2B57320  42.946  25.105   6.602
 4516POPC   C3B57321  42.814  25.169   7.002
 4516POPC   C4B57322  43.025  25.303   7.412
 4517POPC   NC357323  11.773   7.903   5.255
 4517POPC   PO457324  12.241   8.283   5.497
 4517POPC   GL157325  11.939   8.087   5.742
 4517POPC   GL257326  11.769   8.385   5.816
 4517POPC   C1A57327  11.943   7.998   6.196
 4517POPC   D2A57328  12.190   8.059   6.568
 4517POPC   C3A57329  11.972   8.021   6.949
 4517POPC   C4A57330  12.208   8.019   7.331
 4517POPC   C1B57331  11.629   8.605   6.154
 4517POPC   C2B57332  11.721   8.393   6.519
 4517POPC   C3B57333  11.773   8.524   6.921
 4517POPC   C4B57334  11.859   8.391   7.308
 4518POPC   NC357335  17.893  12.028   5.266
 4518POPC   PO457336  17.580  12.491   5.696
 4518POPC   GL157337  17.440  12.069   5.866
 4518POPC   GL257338  17.117  12.104   5.810
 4518POPC   C1A57339  17.315  11.973   6.308
 4518POPC   D2A57340  17.578  12.193   6.624
 4518POPC   C3A57341  17.668  11.955   7.002
 4518POPC   C4A57342  17.595  11.713   7.342
 4518POPC   C1B57343  16.999  12.346   6.207
 4518POPC   C2B57344  17.058  12.260   6.664
 4518POPC   C3B57345  17.310  12.320   7.040
 4518POPC   C4B57346  17.467  12.273   7.451
 4519POPC   NC357347  40.989   9.797   5.459
 4519POPC   PO457348  40.615   9.461   5.882
 4519POPC   GL157349  41.022   9.711   5.972
 4519POPC   GL257350  41.016  10.084   5.938
 4519POPC   C1A57351  41.201   9.814   6.395
 4519POPC   D2A57352  40.903   9.658   6.709
 4519POPC   C3A57353  40.787   9.492   7.110
 4519POPC   C4A57354  40.472   9.141   7.237
 4519POPC   C1B57355  40.725   9.996   6.303
 4519POPC   C2B57356  40.623  10.082   6.728
 4519POPC   C3B57357  40.602   9.984   7.146
 4519POPC   C4B57358  40.784   9.904   7.509
 4520POPC   NC357359   5.613  42.460   5.410
 4520POPC   PO457360   6.111  42.030   5.620
 4520POPC   GL157361   5.836  42.253   5.852
 4520POPC   GL257362   5.915  42.586   5.898
 4520POPC   C1A57363   5.848  42.201   6.287
 4520POPC   D2A57364   5.689  42.177   6.694
 4520POPC   C3A57365   6.018  42.083   6.997
 4520POPC   C4A57366   5.885  42.170   7.443
 4520POPC   C1B57367   5.732  42.689   6.295
 4520POPC   C2B57368   5.931  42.642   6.668
 4520POPC   C3B57369   5.930  42.558   7.100
 4520POPC   C4B57370   5.988  42.789   7.464
 4521POPC   NC357371   9.019  19.313   5.249
 4521POPC   PO457372   8.962  19.955   5.437
 4521POPC   GL157373   8.920  19.704   5.804
 4521POPC   GL257374   8.900  20.050   5.939
 4521POPC   C1A57375   8.720  19.680   6.221
 4521POPC   D2A57376   8.869  19.570   6.603
 4521POPC   C3A57377   8.778  19.743   7.005
 4521POPC   C4A57378   8.981  19.699   7.404
 4521POPC   C1B57379   9.216  19.862   6.204
 4521POPC   C2B57380   9.229  19.944   6.621
 4521POPC   C3B57381   9.293  19.705   6.943
 4521POPC   C4B57382   9.475  19.843   7.294
 4522POPC   NC357383  35.487  11.725   5.390
 4522POPC   PO457384  35.433  11.136   5.369
 4522POPC   GL157385  35.329  11.291   5.798
 4522POPC   GL257386  35.167  11.616   5.767
 4522POPC   C1A57387  35.290  11.115   6.233
 4522POPC   D2A57388  35.554  11.072   6.612
 4522POPC   C3A57389  35.337  11.176   6.964
 4522POPC   C4A57390  35.088  10.903   7.208
 4522POPC   C1B57391  35.275  11.708   6.184
 4522POPC   C2B57392  35.519  11.589   6.561
 4522POPC   C3B57393  35.625  11.611   7.005
 4522POPC   C4B57394  35.752  11.570   7.449
 4523POPC   NC357395  35.939  26.383   5.386
 4523POPC   PO457396  36.410  25.858   5.458
 4523POPC   GL157397  36.169  26.060   5.747
 4523POPC   GL257398  35.810  25.970   5.782
 4523POPC   C1A57399  36.140  26.093   6.174
 4523POPC   D2A57400  36.084  25.877   6.529
 4523POPC   C3A57401  36.242  26.032   6.895
 4523POPC   C4A57402  36.217  25.845   7.290
 4523POPC   C1B57403  35.643  26.202   6.151
 4523POPC   C2B57404  35.788  26.294   6.585
 4523POPC   C3B57405  35.779  26.169   7.053
 4523POPC   C4B57406  36.056  26.330   7.383
 4524POPC   NC357407  20.386  27.896   5.468
 4524POPC   PO457408  20.900  27.530   5.569
 4524POPC   GL157409  20.629  27.662   5.898
 4524POPC   GL257410  20.270  27.526   5.843
 4524POPC   C1A57411  20.557  27.485   6.306
 4524POPC   D2A57412  20.456  27.382   6.732
 4524POPC   C3A57413  20.759  27.476   7.103
 4524POPC   C4A57414  21.098  27.764   7.214
 4524POPC   C1B57415  20.214  27.862   6.159
 4524POPC   C2B57416  20.385  27.894   6.584
 4524POPC   C3B57417  20.350  27.772   7.030
 4524POPC   C4B57418  20.199  27.953   7.372
 4525POPC   NC357419  41.821   3.116   5.483
 4525POPC   PO457420  41.658   2.522   5.309
 4525POPC   GL157421  41.525   2.684   5.697
 4525POPC   GL257422  41.208   2.517   5.707
 4525POPC   C1A57423  41.667   2.856   6.111
 4525POPC   D2A57424  41.732   2.631   6.525
 4525POPC   C3A57425  41.641   2.797   6.949
 4525POPC   C4A57426  41.774   2.984   7.350
 4525POPC   C1B57427  41.338   2.462   6.158
 4525POPC   C2B57428  41.210   2.580   6.586
 4525POPC   C3B57429  41.173   2.587   7.032
 4525POPC   C4B57430  41.258   2.943   7.322
 4526POPC   NC357431  35.332   4.913   5.502
 4526POPC   PO457432  34.980   5.501   5.487
 4526POPC   GL157433  35.156   5.331   5.858
 4526POPC   GL257434  35.270   5.004   6.003
 4526POPC   C1A57435  35.461   5.482   6.141
 4526POPC   D2A57436  35.418   5.579   6.565
 4526POPC   C3A57437  35.289   5.189   6.747
 4526POPC   C4A57438  35.226   5.146   7.172
 4526POPC   C1B57439  35.630   4.946   6.294
 4526POPC   C2B57440  35.671   4.719   6.703
 4526POPC   C3B57441  35.559   4.749   7.169
 4526POPC   C4B57442  35.137   4.712   7.421
 4527POPC   NC357443   1.605  13.038   5.122
 4527POPC   PO457444   2.139  12.636   5.375
 4527POPC   GL157445   2.113  12.839   5.794
 4527POPC   GL257446   1.779  12.734   5.854
 4527POPC   C1A57447   2.264  12.982   6.214
 4527POPC   D2A57448   2.142  12.786   6.606
 4527POPC   C3A57449   2.327  12.836   7.001
 4527POPC   C4A57450   2.024  13.072   7.159
 4527POPC   C1B57451   1.755  12.930   6.264
 4527POPC   C2B57452   1.710  13.164   6.649
 4527POPC   C3B57453   1.581  12.944   6.981
 4527POPC   C4B57454   1.878  12.590   7.027
 4528POPC   NC357455  30.458  38.076   5.037
 4528POPC   PO457456  30.833  37.730   5.473
 4528POPC   GL157457  30.643  37.677   5.869
 4528POPC   GL257458  30.543  37.333   5.878
 4528POPC   C1A57459  30.471  37.691   6.302
 4528POPC   D2A57460  30.610  37.481   6.683
 4528POPC   C3A57461  30.657  37.663   7.058
 4528POPC   C4A57462  30.580  37.876   7.436
 4528POPC   C1B57463  30.860  37.378   6.233
 4528POPC   C2B57464  31.111  37.456   6.650
 4528POPC   C3B57465  31.092  37.415   7.123
 4528POPC   C4B57466  31.162  37.508   7.641
 4529POPC   NC357467   4.067  30.641   5.185
 4529POPC   PO457468   4.508  30.437   5.658
 4529POPC   GL157469   4.262  30.661   5.936
 4529POPC   GL257470   3.979  30.675   5.709
 4529POPC   C1A57471   4.378  30.807   6.321
 4529POPC   D2A57472   4.217  30.822   6.713
 4529POPC   C3A57473   4.375  30.618   7.050
 4529POPC   C4A57474   4.404  30.900   7.339
 4529POPC   C1B57475   3.869  30.380   6.058
 4529POPC   C2B57476   4.053  30.386   6.465
 4529POPC   C3B57477   3.914  30.405   6.882
 4529POPC   C4B57478   3.756  30.137   7.197
 4530POPC   NC357479  43.660  26.372   5.637
 4530POPC   PO457480  43.934  25.816   5.374
 4530POPC   GL157481  43.897  25.956   5.801
 4530POPC   GL257482  43.758  25.660   5.959
 4530POPC   C1A57483  43.979  26.030   6.236
 4530POPC   D2A57484  43.825  25.764   6.568
 4530POPC   C3A57485  43.886  26.048   6.911
 4530POPC   C4A57486  44.074  26.177   7.283
 4530POPC   C1B57487  43.458  25.942   6.218
 4530POPC   C2B57488  43.340  25.942   6.666
 4530POPC   C3B57489  43.543  25.679   7.001
 4530POPC   C4B57490  43.714  25.800   7.415
 4531POPC   NC357491  35.940   7.339   5.412
 4531POPC   PO457492  36.408   7.673   5.183
 4531POPC   GL157493  36.365   7.677   5.661
 4531POPC   GL257494  36.037   7.643   5.842
 4531POPC   C1A57495  36.535   7.413   6.039
 4531POPC   D2A57496  36.575   7.137   6.426
 4531POPC   C3A57497  36.408   7.236   6.858
 4531POPC   C4A57498  36.348   7.219   7.309
 4531POPC   C1B57499  36.102   7.474   6.294
 4531POPC   C2B57500  35.889   7.559   6.695
 4531POPC   C3B57501  36.050   7.738   7.064
 4531POPC   C4B57502  36.045   7.610   7.482
 4532POPC   NC357503   6.947   5.232   5.491
 4532POPC   PO457504   6.518   4.742   5.414
 4532POPC   GL157505   6.511   5.003   5.806
 4532POPC   GL257506   6.862   5.053   5.969
 4532POPC   C1A57507   6.427   5.172   6.236
 4532POPC   D2A57508   6.620   5.061   6.625
 4532POPC   C3A57509   6.468   5.241   7.004
 4532POPC   C4A57510   6.347   4.840   7.111
 4532POPC   C1B57511   6.894   5.366   6.304
 4532POPC   C2B57512   6.890   5.460   6.753
 4532POPC   C3B57513   6.951   5.082   7.052
 4532POPC   C4B57514   6.934   5.070   7.494
 4533POPC   NC357515  13.872  42.261   5.244
 4533POPC   PO457516  13.237  42.423   5.434
 4533POPC   GL157517  13.531  42.459   5.813
 4533POPC   GL257518  13.563  42.136   5.849
 4533POPC   C1A57519  13.491  42.675   6.244
 4533POPC   D2A57520  13.265  42.460   6.588
 4533POPC   C3A57521  13.387  42.460   6.996
 4533POPC   C4A57522  13.466  42.113   7.253
 4533POPC   C1B57523  13.837  42.314   6.201
 4533POPC   C2B57524  13.812  42.451   6.642
 4533POPC   C3B57525  13.874  42.319   7.081
 4533POPC   C4B57526  13.892  42.240   7.556
 4534POPC   NC357527  38.977  29.952   5.532
 4534POPC   PO457528  39.583  29.647   5.625
 4534POPC   GL157529  39.506  29.780   5.976
 4534POPC   GL257530  39.293  30.030   5.927
 4534POPC   C1A57531  39.440  29.743   6.392
 4534POPC   D2A57532  39.206  30.005   6.621
 4534POPC   C3A57533  39.107  29.881   7.005
 4534POPC   C4A57534  39.241  29.602   7.291
 4534POPC   C1B57535  39.476  30.279   6.250
 4534POPC   C2B57536  39.327  30.495   6.625
 4534POPC   C3B57537  39.394  30.316   7.021
 4534POPC   C4B57538  39.105  30.294   7.337
 4535POPC   NC357539  22.468   0.477   5.418
 4535POPC   PO457540  21.911   0.868   5.506
 4535POPC   GL157541  22.108   0.577   5.776
 4535POPC   GL257542  22.097   0.181   5.791
 4535POPC   C1A57543  22.055   0.513   6.181
 4535POPC   D2A57544  21.888   0.453   6.535
 4535POPC   C3A57545  22.059   0.677   6.852
 4535POPC   C4A57546  22.101   0.521   7.250
 4535POPC   C1B57547  22.306   0.065   6.210
 4535POPC   C2B57548  22.370   0.252   6.665
 4535POPC   C3B57549  22.243   0.018   7.062
 4535POPC   C4B57550  22.289   0.132   7.536
 4536POPC   NC357551  16.219  27.342   5.455
 4536POPC   PO457552  15.532  27.535   5.504
 4536POPC   GL157553  15.751  27.706   5.891
 4536POPC   GL257554  16.099  27.829   5.839
 4536POPC   C1A57555  15.990  27.482   6.239
 4536POPC   D2A57556  15.887  27.210   6.601
 4536POPC   C3A57557  15.832  27.437   6.987
 4536POPC   C4A57558  15.809  27.457   7.423
 4536POPC   C1B57559  16.412  27.926   6.189
 4536POPC   C2B57560  16.500  27.885   6.642
 4536POPC   C3B57561  16.507  27.921   7.107
 4536POPC   C4B57562  16.181  27.778   7.386
 4537POPC   NC357563  30.657  23.857   5.125
 4537POPC   PO457564  31.087  23.406   5.342
 4537POPC   GL157565  30.821  23.526   5.700
 4537POPC   GL257566  30.809  23.875   5.678
 4537POPC   C1A57567  30.699  23.445   6.152
 4537POPC   D2A57568  30.382  23.483   6.498
 4537POPC   C3A57569  30.583  23.552   6.891
 4537POPC   C4A57570  30.901  23.312   7.115
 4537POPC   C1B57571  30.983  23.892   6.086
 4537POPC   C2B57572  30.803  23.839   6.492
 4537POPC   C3B57573  30.898  23.959   6.895
 4537POPC   C4B57574  31.095  23.785   7.251
 4538POPC   NC357575  20.990  11.047   5.318
 4538POPC   PO457576  20.945  11.609   5.681
 4538POPC   GL157577  20.633  11.368   5.853
 4538POPC   GL257578  20.556  11.050   5.712
 4538POPC   C1A57579  20.428  11.458   6.232
 4538POPC   D2A57580  20.570  11.302   6.601
 4538POPC   C3A57581  20.406  11.511   6.939
 4538POPC   C4A57582  20.508  11.561   7.368
 4538POPC   C1B57583  20.543  10.963   6.163
 4538POPC   C2B57584  20.278  10.885   6.520
 4538POPC   C3B57585  20.244  11.025   6.924
 4538POPC   C4B57586  20.583  11.091   7.186
 4539POPC   NC357587  44.364  32.496   5.128
 4539POPC   PO457588  43.863  32.403   5.545
 4539POPC   GL157589  43.702  32.257   5.907
 4539POPC   GL257590  43.699  31.901   5.882
 4539POPC   C1A57591  43.623  32.421   6.287
 4539POPC   D2A57592  43.776  32.608   6.636
 4539POPC   C3A57593  43.707  32.459   7.022
 4539POPC   C4A57594  43.612  32.669   7.425
 4539POPC   C1B57595  43.947  31.982   6.284
 4539POPC   C2B57596  44.042  32.123   6.726
 4539POPC   C3B57597  43.890  31.981   7.115
 4539POPC   C4B57598  43.939  32.168   7.507
 4540POPC   NC357599  22.558  26.341   5.519
 4540POPC   PO457600  22.914  25.692   5.601
 4540POPC   GL157601  22.822  25.988   5.826
 4540POPC   GL257602  23.165  26.143   5.841
 4540POPC   C1A57603  22.932  25.862   6.257
 4540POPC   D2A57604  23.169  25.877   6.624
 4540POPC   C3A57605  22.938  25.837   7.016
 4540POPC   C4A57606  22.855  26.105   7.366
 4540POPC   C1B57607  22.923  26.353   6.141
 4540POPC   C2B57608  22.815  26.325   6.522
 4540POPC   C3B57609  22.946  26.331   6.903
 4540POPC   C4B57610  22.682  26.533   7.172
 4541POPC   NC357611  22.801   6.730   5.202
 4541POPC   PO457612  22.905   6.074   5.280
 4541POPC   GL157613  23.041   6.290   5.688
 4541POPC   GL257614  23.035   6.645   5.655
 4541POPC   C1A57615  22.824   6.358   6.122
 4541POPC   D2A57616  22.660   6.551   6.520
 4541POPC   C3A57617  22.843   6.380   6.885
 4541POPC   C4A57618  23.133   6.341   7.248
 4541POPC   C1B57619  23.107   6.793   6.071
 4541POPC   C2B57620  23.164   6.792   6.516
 4541POPC   C3B57621  22.989   6.865   6.937
 4541POPC   C4B57622  22.810   6.774   7.339
 4542POPC   NC357623  30.863  14.488   5.371
 4542POPC   PO457624  30.247  14.576   5.452
 4542POPC   GL157625  30.505  14.430   5.803
 4542POPC   GL257626  30.864  14.499   5.882
 4542POPC   C1A57627  30.478  14.267   6.209
 4542POPC   D2A57628  30.459  14.368   6.637
 4542POPC   C3A57629  30.263  14.210   7.012
 4542POPC   C4A57630  30.512  14.353   7.335
 4542POPC   C1B57631  31.003  14.334   6.305
 4542POPC   C2B57632  31.206  14.507   6.686
 4542POPC   C3B57633  30.918  14.460   7.043
 4542POPC   C4B57634  30.871  14.723   7.432
 4543POPC   NC357635  25.837  43.231   5.384
 4543POPC   PO457636  26.358  42.936   5.685
 4543POPC   GL157637  26.270  43.286   5.928
 4543POPC   GL257638  25.927  43.332   5.872
 4543POPC   C1A57639  26.149  43.221   6.336
 4543POPC   D2A57640  26.049  42.780   6.542
 4543POPC   C3A57641  26.075  42.862   6.972
 4543POPC   C4A57642  26.028  43.282   6.989
 4543POPC   C1B57643  25.718  43.054   6.131
 4543POPC   C2B57644  25.696  43.135   6.566
 4543POPC   C3B57645  25.587  42.955   6.913
 4543POPC   C4B57646  25.749  43.021   7.348
 4544POPC   NC357647  28.775  31.741   5.352
 4544POPC   PO457648  28.119  31.515   5.535
 4544POPC   GL157649  28.186  31.591   5.948
 4544POPC   GL257650  28.502  31.434   5.970
 4544POPC   C1A57651  28.194  31.367   6.348
 4544POPC   D2A57652  28.212  31.585   6.689
 4544POPC   C3A57653  28.310  31.430   7.061
 4544POPC   C4A57654  28.207  31.645   7.432
 4544POPC   C1B57655  28.769  31.331   6.289
 4544POPC   C2B57656  28.693  31.346   6.694
 4544POPC   C3B57657  28.835  31.358   7.094
 4544POPC   C4B57658  28.654  31.418   7.487
 4545POPC   NC357659  36.641  13.641   5.441
 4545POPC   PO457660  35.988  13.677   5.357
 4545POPC   GL157661  36.037  13.798   5.777
 4545POPC   GL257662  36.390  13.853   5.872
 4545POPC   C1A57663  35.972  13.828   6.237
 4545POPC   D2A57664  36.179  13.728   6.635
 4545POPC   C3A57665  36.037  13.850   7.045
 4545POPC   C4A57666  36.214  14.043   7.406
 4545POPC   C1B57667  36.387  13.511   6.199
 4545POPC   C2B57668  36.432  13.280   6.615
 4545POPC   C3B57669  36.275  13.203   7.027
 4545POPC   C4B57670  35.930  13.001   7.228
 4546POPC   NC357671  31.918  10.919   5.588
 4546POPC   PO457672  32.302  10.410   5.245
 4546POPC   GL157673  32.468  10.510   5.743
 4546POPC   GL257674  32.643  10.271   5.878
 4546POPC   C1A57675  32.282  10.658   6.194
 4546POPC   D2A57676  32.074  10.933   6.553
 4546POPC   C3A57677  32.038  10.816   7.022
 4546POPC   C4A57678  31.983  10.967   7.460
 4546POPC   C1B57679  32.565  10.237   6.278
 4546POPC   C2B57680  32.439  10.481   6.641
 4546POPC   C3B57681  32.249  10.342   6.989
 4546POPC   C4B57682  32.450  10.163   7.284
 4547POPC   NC357683  29.767  44.416   5.204
 4547POPC   PO457684  30.091  44.941   5.443
 4547POPC   GL157685  29.776  44.648   5.690
 4547POPC   GL257686  29.780  44.281   5.714
 4547POPC   C1A57687  29.664  44.632   6.147
 4547POPC   D2A57688  29.952  44.821   6.449
 4547POPC   C3A57689  29.923  44.855   6.891
 4547POPC   C4A57690  29.977  44.513   7.163
 4547POPC   C1B57691  29.992  44.194   6.136
 4547POPC   C2B57692  29.985  44.300   6.598
 4547POPC   C3B57693  30.348  44.452   6.838
 4547POPC   C4B57694  30.507  44.435   7.259
 4548POPC   NC357695   5.915  20.247   5.174
 4548POPC   PO457696   5.684  19.699   5.391
 4548POPC   GL157697   5.821  19.909   5.748
 4548POPC   GL257698   5.478  20.018   5.797
 4548POPC   C1A57699   6.096  19.831   6.128
 4548POPC   D2A57700   6.145  19.574   6.504
 4548POPC   C3A57701   5.999  19.763   6.904
 4548POPC   C4A57702   6.152  19.803   7.291
 4548POPC   C1B57703   5.600  19.912   6.204
 4548POPC   C2B57704   5.617  19.723   6.570
 4548POPC   C3B57705   5.534  19.994   6.898
 4548POPC   C4B57706   5.677  20.056   7.275
 4549POPC   NC357707  24.119  19.269   5.531
 4549POPC   PO457708  23.452  19.258   5.374
 4549POPC   GL157709  23.670  19.029   5.762
 4549POPC   GL257710  23.437  18.718   5.845
 4549POPC   C1A57711  23.954  19.135   6.154
 4549POPC   D2A57712  23.827  19.295   6.561
 4549POPC   C3A57713  23.797  19.062   6.948
 4549POPC   C4A57714  23.746  19.201   7.383
 4549POPC   C1B57715  23.540  18.862   6.281
 4549POPC   C2B57716  23.334  19.202   6.551
 4549POPC   C3B57717  23.315  19.252   6.991
 4549POPC   C4B57718  23.391  18.858   7.223
 4550POPC   NC357719  28.065  39.875   5.195
 4550POPC   PO457720  28.439  39.315   5.477
 4550POPC   GL157721  28.484  39.163   5.888
 4550POPC   GL257722  28.631  38.853   5.838
 4550POPC   C1A57723  28.550  39.323   6.331
 4550POPC   D2A57724  28.750  39.561   6.658
 4550POPC   C3A57725  28.603  39.542   7.054
 4550POPC   C4A57726  28.288  39.276   7.179
 4550POPC   C1B57727  28.421  38.843   6.280
 4550POPC   C2B57728  28.411  38.932   6.764
 4550POPC   C3B57729  28.374  38.742   7.208
 4550POPC   C4B57730  28.486  38.938   7.638
 4551POPC   NC357731  26.817   2.926   5.414
 4551POPC   PO457732  27.048   2.333   5.601
 4551POPC   GL157733  26.904   2.645   5.815
 4551POPC   GL257734  26.605   2.586   5.924
 4551POPC   C1A57735  26.831   2.983   6.144
 4551POPC   D2A57736  26.600   2.851   6.519
 4551POPC   C3A57737  26.768   2.922   6.887
 4551POPC   C4A57738  26.884   3.035   7.266
 4551POPC   C1B57739  26.899   2.487   6.303
 4551POPC   C2B57740  26.784   2.379   6.743
 4551POPC   C3B57741  26.936   2.503   7.157
 4551POPC   C4B57742  27.094   2.655   7.547
 4552POPC   NC357743   8.263  16.999   5.461
 4552POPC   PO457744   8.613  16.447   5.461
 4552POPC   GL157745   8.328  16.602   5.763
 4552POPC   GL257746   7.991  16.528   5.655
 4552POPC   C1A57747   8.229  16.845   6.129
 4552POPC   D2A57748   8.346  16.721   6.528
 4552POPC   C3A57749   8.188  16.980   6.824
 4552POPC   C4A57750   8.346  16.859   7.230
 4552POPC   C1B57751   7.926  16.433   6.114
 4552POPC   C2B57752   7.846  16.558   6.552
 4552POPC   C3B57753   8.043  16.513   6.961
 4552POPC   C4B57754   7.945  16.627   7.408
 4553POPC   NC357755  36.808  33.885   5.215
 4553POPC   PO457756  37.454  33.788   5.288
 4553POPC   GL157757  37.239  33.785   5.718
 4553POPC   GL257758  36.853  33.840   5.754
 4553POPC   C1A57759  37.106  33.663   6.167
 4553POPC   D2A57760  36.868  33.892   6.523
 4553POPC   C3A57761  36.953  33.757   6.969
 4553POPC   C4A57762  36.941  33.980   7.364
 4553POPC   C1B57763  36.583  33.692   6.133
 4553POPC   C2B57764  36.437  33.462   6.512
 4553POPC   C3B57765  36.442  33.584   6.952
 4553POPC   C4B57766  36.610  33.593   7.378
 4554POPC   NC357767  39.110  30.972   5.598
 4554POPC   PO457768  39.310  30.301   5.462
 4554POPC   GL157769  39.298  30.553   5.841
 4554POPC   GL257770  39.566  30.788   5.820
 4554POPC   C1A57771  39.097  30.747   6.235
 4554POPC   D2A57772  39.125  30.974   6.643
 4554POPC   C3A57773  39.113  30.761   7.064
 4554POPC   C4A57774  38.968  30.846   7.508
 4554POPC   C1B57775  39.608  30.785   6.269
 4554POPC   C2B57776  39.642  30.893   6.686
 4554POPC   C3B57777  39.683  30.725   7.086
 4554POPC   C4B57778  39.493  30.678   7.504
 4555POPC   NC357779  35.652  21.583   5.313
 4555POPC   PO457780  35.185  21.079   5.562
 4555POPC   GL157781  35.529  21.207   5.868
 4555POPC   GL257782  35.740  21.519   5.809
 4555POPC   C1A57783  35.466  21.168   6.335
 4555POPC   D2A57784  35.112  21.198   6.635
 4555POPC   C3A57785  35.267  21.298   7.056
 4555POPC   C4A57786  35.639  21.094   7.258
 4555POPC   C1B57787  35.616  21.635   6.210
 4555POPC   C2B57788  35.366  21.673   6.588
 4555POPC   C3B57789  35.347  21.827   7.007
 4555POPC   C4B57790  35.389  21.658   7.415
 4556POPC   NC357791  10.369  25.196   5.299
 4556POPC   PO457792  10.938  25.454   5.565
 4556POPC   GL157793  10.598  25.312   5.740
 4556POPC   GL257794  10.335  25.531   5.715
 4556POPC   C1A57795  10.552  25.211   6.121
 4556POPC   D2A57796  10.783  25.059   6.445
 4556POPC   C3A57797  10.575  25.068   6.816
 4556POPC   C4A57798  10.826  25.222   7.117
 4556POPC   C1B57799  10.279  25.649   6.138
 4556POPC   C2B57800  10.415  25.487   6.529
 4556POPC   C3B57801  10.459  25.574   6.956
 4556POPC   C4B57802  10.258  25.624   7.328
 4557POPC   NC357803  18.699  39.468   5.509
 4557POPC   PO457804  19.397  39.150   5.461
 4557POPC   GL157805  19.143  39.340   5.788
 4557POPC   GL257806  18.838  39.122   5.874
 4557POPC   C1A57807  19.005  39.512   6.186
 4557POPC   D2A57808  18.957  39.286   6.560
 4557POPC   C3A57809  19.084  39.486   6.927
 4557POPC   C4A57810  18.862  39.596   7.286
 4557POPC   C1B57811  19.171  38.966   6.199
 4557POPC   C2B57812  19.234  38.840   6.659
 4557POPC   C3B57813  18.959  38.966   6.985
 4557POPC   C4B57814  19.150  39.163   7.318
 4558POPC   NC357815   7.299  26.242   5.333
 4558POPC   PO457816   7.940  26.339   5.542
 4558POPC   GL157817   7.582  26.209   5.822
 4558POPC   GL257818   7.245  26.045   5.844
 4558POPC   C1A57819   7.399  26.277   6.256
 4558POPC   D2A57820   7.353  26.033   6.625
 4558POPC   C3A57821   7.454  26.192   7.063
 4558POPC   C4A57822   7.337  26.438   7.426
 4558POPC   C1B57823   7.565  25.797   6.130
 4558POPC   C2B57824   7.657  25.593   6.537
 4558POPC   C3B57825   7.526  25.690   6.946
 4558POPC   C4B57826   7.787  25.625   7.253
 4559POPC   NC357827   0.711   5.222   5.382
 4559POPC   PO457828   1.262   4.883   5.422
 4559POPC   GL157829   1.265   4.976   5.865
 4559POPC   GL257830   1.436   5.321   5.979
 4559POPC   C1A57831   1.246   4.923   6.304
 4559POPC   D2A57832   1.423   5.226   6.566
 4559POPC   C3A57833   1.460   5.054   6.963
 4559POPC   C4A57834   1.211   4.749   7.153
 4559POPC   C1B57835   1.027   5.361   6.192
 4559POPC   C2B57836   0.929   5.187   6.606
 4559POPC   C3B57837   1.040   5.326   7.004
 4559POPC   C4B57838   0.999   5.578   7.370
 4560POPC   NC357839   4.201  13.938   5.423
 4560POPC   PO457840   4.428  13.348   5.385
 4560POPC   GL157841   4.204  13.505   5.794
 4560POPC   GL257842   4.291  13.849   5.920
 4560POPC   C1A57843   4.184  13.511   6.290
 4560POPC   D2A57844   4.422  13.642   6.690
 4560POPC   C3A57845   4.198  13.597   7.079
 4560POPC   C4A57846   3.938  13.254   6.952
 4560POPC   C1B57847   4.616  13.863   6.260
 4560POPC   C2B57848   4.729  14.058   6.677
 4560POPC   C3B57849   4.609  13.901   7.102
 4560POPC   C4B57850   4.548  13.996   7.562
 4561POPC   NC357851  29.834  35.112   5.420
 4561POPC   PO457852  30.409  35.273   5.623
 4561POPC   GL157853  30.049  35.276   5.869
 4561POPC   GL257854  30.076  34.949   5.960
 4561POPC   C1A57855  29.809  35.404   6.225
 4561POPC   D2A57856  29.716  35.194   6.607
 4561POPC   C3A57857  29.834  35.356   7.006
 4561POPC   C4A57858  29.887  35.551   7.413
 4561POPC   C1B57859  30.187  35.091   6.377
 4561POPC   C2B57860  30.238  35.094   6.818
 4561POPC   C3B57861  30.243  35.200   7.255
 4561POPC   C4B57862  29.953  35.088   7.634
 4562POPC   NC357863  28.297  42.630   5.633
 4562POPC   PO457864  28.515  41.968   5.454
 4562POPC   GL157865  28.554  42.205   5.828
 4562POPC   GL257866  28.206  42.220   5.951
 4562POPC   C1A57867  28.601  42.286   6.278
 4562POPC   D2A57868  28.276  42.226   6.594
 4562POPC   C3A57869  28.434  42.331   6.978
 4562POPC   C4A57870  28.600  42.634   7.235
 4562POPC   C1B57871  28.143  42.579   6.258
 4562POPC   C2B57872  28.236  42.763   6.667
 4562POPC   C3B57873  28.093  42.707   7.076
 4562POPC   C4B57874  28.173  42.565   7.495
 4563POPC   NC357875   8.794   1.574   5.572
 4563POPC   PO457876   9.198   1.973   5.138
 4563POPC   GL157877   9.163   1.910   5.661
 4563POPC   GL257878   9.255   2.187   5.900
 4563POPC   C1A57879   9.212   1.705   6.117
 4563POPC   D2A57880   9.314   1.607   6.595
 4563POPC   C3A57881   9.019   1.816   6.949
 4563POPC   C4A57882   8.986   1.778   7.438
 4563POPC   C1B57883   8.953   2.339   6.181
 4563POPC   C2B57884   8.788   2.245   6.589
 4563POPC   C3B57885   8.793   2.419   6.987
 4563POPC   C4B57886   8.872   2.264   7.374
 4564POPC   NC357887  43.009  33.078   5.338
 4564POPC   PO457888  43.577  33.283   5.525
 4564POPC   GL157889  43.241  33.053   5.794
 4564POPC   GL257890  42.912  33.239   5.827
 4564POPC   C1A57891  43.310  32.870   6.214
 4564POPC   D2A57892  43.101  32.836   6.635
 4564POPC   C3A57893  43.239  32.753   7.086
 4564POPC   C4A57894  43.225  32.985   7.501
 4564POPC   C1B57895  42.841  33.084   6.236
 4564POPC   C2B57896  42.673  33.113   6.633
 4564POPC   C3B57897  42.803  33.020   7.018
 4564POPC   C4B57898  42.746  33.118   7.427
 4565POPC   NC357899  18.633  33.576   5.565
 4565POPC   PO457900  18.182  33.315   5.111
 4565POPC   GL157901  18.156  33.698   5.591
 4565POPC   GL257902  18.161  34.057   5.656
 4565POPC   C1A57903  18.285  33.694   6.082
 4565POPC   D2A57904  18.274  33.376   6.429
 4565POPC   C3A57905  18.397  33.502   6.845
 4565POPC   C4A57906  18.590  33.793   7.109
 4565POPC   C1B57907  18.049  34.136   6.134
 4565POPC   C2B57908  18.154  33.901   6.559
 4565POPC   C3B57909  18.070  33.865   7.024
 4565POPC   C4B57910  18.024  34.143   7.402
 4566POPC   NC357911  25.274  31.172   5.267
 4566POPC   PO457912  25.586  31.709   5.331
 4566POPC   GL157913  25.425  31.614   5.779
 4566POPC   GL257914  25.076  31.514   5.790
 4566POPC   C1A57915  25.287  31.645   6.245
 4566POPC   D2A57916  25.167  31.461   6.652
 4566POPC   C3A57917  25.241  31.731   6.987
 4566POPC   C4A57918  25.518  31.601   7.328
 4566POPC   C1B57919  24.981  31.226   6.132
 4566POPC   C2B57920  24.845  31.088   6.533
 4566POPC   C3B57921  25.013  31.047   6.926
 4566POPC   C4B57922  25.026  31.348   7.230
 4567POPC   NC357923  28.598  21.451   5.572
 4567POPC   PO457924  27.949  21.141   5.490
 4567POPC   GL157925  28.215  21.244   5.837
 4567POPC   GL257926  28.268  20.936   5.921
 4567POPC   C1A57927  28.499  21.250   6.233
 4567POPC   D2A57928  28.310  21.411   6.605
 4567POPC   C3A57929  28.559  21.606   6.902
 4567POPC   C4A57930  28.535  21.584   7.315
 4567POPC   C1B57931  28.019  21.025   6.316
 4567POPC   C2B57932  28.107  20.933   6.765
 4567POPC   C3B57933  28.197  21.263   7.093
 4567POPC   C4B57934  27.842  21.543   7.175
 4568POPC   NC357935  11.423  38.006   5.239
 4568POPC   PO457936  11.475  38.707   5.246
 4568POPC   GL157937  11.344  38.566   5.691
 4568POPC   GL257938  11.029  38.427   5.799
 4568POPC   C1A57939  11.331  38.771   6.118
 4568POPC   D2A57940  11.371  38.609   6.528
 4568POPC   C3A57941  11.450  38.728   6.937
 4568POPC   C4A57942  11.710  38.519   7.251
 4568POPC   C1B57943  11.276  38.251   6.143
 4568POPC   C2B57944  11.292  38.112   6.587
 4568POPC   C3B57945  11.355  38.209   7.033
 4568POPC   C4B57946  11.408  38.151   7.484
 4569POPC   NC357947  20.724  25.564   5.386
 4569POPC   PO457948  20.434  26.218   5.309
 4569POPC   GL157949  20.495  26.233   5.736
 4569POPC   GL257950  20.525  25.862   5.786
 4569POPC   C1A57951  20.710  26.264   6.139
 4569POPC   D2A57952  20.901  26.350   6.576
 4569POPC   C3A57953  20.723  26.162   6.983
 4569POPC   C4A57954  20.384  26.340   7.259
 4569POPC   C1B57955  20.645  25.739   6.226
 4569POPC   C2B57956  20.538  25.758   6.674
 4569POPC   C3B57957  20.410  25.681   7.118
 4569POPC   C4B57958  20.447  25.881   7.503
 4570POPC   NC357959  25.375   0.106   5.322
 4570POPC   PO457960  25.231   0.598   5.675
 4570POPC   GL157961  25.413   0.222   5.850
 4570POPC   GL257962  25.093   0.058   5.765
 4570POPC   C1A57963  25.478   0.253   6.308
 4570POPC   D2A57964  25.213   0.565   6.527
 4570POPC   C3A57965  25.418   0.600   6.857
 4570POPC   C4A57966  25.474   0.438   7.214
 4570POPC   C1B57967  24.993   0.260   6.171
 4570POPC   C2B57968  25.059   0.084   6.593
 4570POPC   C3B57969  25.124   0.119   7.014
 4570POPC   C4B57970  24.985   0.343   7.365
 4571POPC   NC357971  17.705  25.251   5.452
 4571POPC   PO457972  17.078  25.525   5.354
 4571POPC   GL157973  17.268  25.408   5.743
 4571POPC   GL257974  17.343  25.045   5.754
 4571POPC   C1A57975  17.179  25.354   6.189
 4571POPC   D2A57976  17.302  25.556   6.561
 4571POPC   C3A57977  17.330  25.420   6.973
 4571POPC   C4A57978  17.687  25.326   7.198
 4571POPC   C1B57979  17.311  24.872   6.155
 4571POPC   C2B57980  17.482  25.029   6.559
 4571POPC   C3B57981  17.464  24.913   6.997
 4571POPC   C4B57982  17.452  24.905   7.473
 4572POPC   NC357983  25.389   4.817   5.285
 4572POPC   PO457984  25.067   5.437   5.285
 4572POPC   GL157985  25.210   5.341   5.723
 4572POPC   GL257986  25.244   4.978   5.800
 4572POPC   C1A57987  25.287   5.357   6.194
 4572POPC   D2A57988  25.217   5.171   6.626
 4572POPC   C3A57989  25.388   5.293   7.005
 4572POPC   C4A57990  25.531   5.228   7.434
 4572POPC   C1B57991  25.479   4.874   6.189
 4572POPC   C2B57992  25.554   4.775   6.648
 4572POPC   C3B57993  25.456   4.803   7.105
 4572POPC   C4B57994  25.125   4.592   7.382
 4573POPC   NC357995   3.052   4.115   5.446
 4573POPC   PO457996   2.552   4.503   5.365
 4573POPC   GL157997   2.749   4.385   5.752
 4573POPC   GL257998   3.039   4.574   5.832
 4573POPC   C1A57999   2.607   4.154   6.131
 4573POPC   D2A58000   2.466   4.335   6.511
 4573POPC   C3A58001   2.661   4.246   6.882
 4573POPC   C4A58002   2.555   4.381   7.331
 4573POPC   C1B58003   3.131   4.217   6.089
 4573POPC   C2B58004   2.996   4.049   6.478
 4573POPC   C3B58005   3.172   4.193   6.841
 4573POPC   C4B58006   3.015   4.205   7.238
 4574POPC   NC358007  37.151  19.546   5.116
 4574POPC   PO458008  36.620  19.818   5.397
 4574POPC   GL158009  36.735  19.702   5.790
 4574POPC   GL258010  36.887  19.398   5.763
 4574POPC   C1A58011  36.980  19.684   6.184
 4574POPC   D2A58012  36.884  19.899   6.575
 4574POPC   C3A58013  36.902  19.678   6.951
 4574POPC   C4A58014  37.007  19.793   7.349
 4574POPC   C1B58015  36.620  19.341   6.166
 4574POPC   C2B58016  36.563  19.492   6.583
 4574POPC   C3B58017  36.524  19.319   6.996
 4574POPC   C4B58018  36.745  19.354   7.399
 4575POPC   NC358019   8.197  29.265   5.393
 4575POPC   PO458020   7.901  28.632   5.252
 4575POPC   GL158021   8.046  28.821   5.669
 4575POPC   GL258022   7.755  28.947   5.839
 4575POPC   C1A58023   8.119  28.785   6.168
 4575POPC   D2A58024   7.995  28.771   6.652
 4575POPC   C3A58025   8.315  28.886   6.987
 4575POPC   C4A58026   8.381  29.346   7.098
 4575POPC   C1B58027   7.744  29.141   6.273
 4575POPC   C2B58028   7.851  29.455   6.604
 4575POPC   C3B58029   7.874  29.312   7.036
 4575POPC   C4B58030   7.887  28.930   7.279
 4576POPC   NC358031  20.652  36.186   5.225
 4576POPC   PO458032  20.053  36.009   5.352
 4576POPC   GL158033  20.386  36.115   5.698
 4576POPC   GL258034  20.681  36.339   5.786
 4576POPC   C1A58035  20.565  35.921   6.101
 4576POPC   D2A58036  20.424  35.742   6.517
 4576POPC   C3A58037  20.708  35.828   6.872
 4576POPC   C4A58038  20.772  35.905   7.307
 4576POPC   C1B58039  20.489  36.432   6.168
 4576POPC   C2B58040  20.574  36.235   6.588
 4576POPC   C3B58041  20.615  36.329   7.047
 4576POPC   C4B58042  20.911  36.377   7.419
 4577POPC   NC358043  42.418  41.934   5.548
 4577POPC   PO458044  42.004  41.377   5.316
 4577POPC   GL158045  41.857  41.441   5.772
 4577POPC   GL258046  42.047  41.724   5.836
 4577POPC   C1A58047  41.996  41.364   6.212
 4577POPC   D2A58048  42.358  41.412   6.498
 4577POPC   C3A58049  42.320  41.522   6.917
 4577POPC   C4A58050  42.627  41.559   7.221
 4577POPC   C1B58051  42.275  41.826   6.210
 4577POPC   C2B58052  42.421  41.939   6.622
 4577POPC   C3B58053  42.471  42.021   7.067
 4577POPC   C4B58054  42.187  41.989   7.451
 4578POPC   NC358055  32.247  24.363   5.500
 4578POPC   PO458056  31.759  24.585   5.222
 4578POPC   GL158057  31.940  24.649   5.743
 4578POPC   GL258058  31.943  24.328   5.909
 4578POPC   C1A58059  32.304  24.545   6.168
 4578POPC   D2A58060  32.300  24.317   6.619
 4578POPC   C3A58061  32.216  24.588   7.020
 4578POPC   C4A58062  32.509  24.795   7.291
 4578POPC   C1B58063  31.835  24.482   6.309
 4578POPC   C2B58064  31.834  24.524   6.704
 4578POPC   C3B58065  31.883  24.179   6.995
 4578POPC   C4B58066  32.096  24.100   7.368
 4579POPC   NC358067   8.671   7.667   5.442
 4579POPC   PO458068   8.825   7.060   5.289
 4579POPC   GL158069   9.041   7.218   5.696
 4579POPC   GL258070   9.030   7.560   5.835
 4579POPC   C1A58071   9.162   7.174   6.165
 4579POPC   D2A58072   9.380   7.257   6.572
 4579POPC   C3A58073   9.177   7.372   6.967
 4579POPC   C4A58074   8.790   7.225   7.090
 4579POPC   C1B58075   8.852   7.706   6.234
 4579POPC   C2B58076   8.778   7.582   6.688
 4579POPC   C3B58077   8.843   7.769   7.102
 4579POPC   C4B58078   9.141   7.719   7.441
 4580POPC   NC358079  34.874   5.948   5.489
 4580POPC   PO458080  34.275   5.665   5.454
 4580POPC   GL158081  34.515   5.699   5.837
 4580POPC   GL258082  34.617   6.053   5.919
 4580POPC   C1A58083  34.331   5.753   6.242
 4580POPC   D2A58084  34.431   5.985   6.584
 4580POPC   C3A58085  34.297   5.783   6.973
 4580POPC   C4A58086  34.609   5.556   7.226
 4580POPC   C1B58087  34.854   6.301   6.238
 4580POPC   C2B58088  34.790   6.353   6.678
 4580POPC   C3B58089  34.746   6.031   6.988
 4580POPC   C4B58090  34.514   6.063   7.379
 4581POPC   NC358091  17.158  34.111   5.367
 4581POPC   PO458092  16.694  33.559   5.272
 4581POPC   GL158093  16.671  33.657   5.729
 4581POPC   GL258094  17.005  33.739   5.721
 4581POPC   C1A58095  16.749  33.896   6.131
 4581POPC   D2A58096  16.914  33.916   6.522
 4581POPC   C3A58097  16.656  33.999   6.895
 4581POPC   C4A58098  16.687  33.776   7.290
 4581POPC   C1B58099  17.120  33.515   6.123
 4581POPC   C2B58100  17.268  33.479   6.548
 4581POPC   C3B58101  17.141  33.352   6.948
 4581POPC   C4B58102  16.973  33.290   7.336
 4582POPC   NC358103  39.493   3.520   5.747
 4582POPC   PO458104  39.926   3.442   5.211
 4582POPC   GL158105  40.015   3.549   5.740
 4582POPC   GL258106  40.062   3.271   5.964
 4582POPC   C1A58107  40.125   3.663   6.240
 4582POPC   D2A58108  39.992   3.715   6.708
 4582POPC   C3A58109  40.241   3.681   7.123
 4582POPC   C4A58110  40.147   3.412   7.495
 4582POPC   C1B58111  39.762   3.276   6.339
 4582POPC   C2B58112  39.750   3.271   6.794
 4582POPC   C3B58113  39.751   3.513   7.186
 4582POPC   C4B58114  39.651   3.534   7.637
 4583POPC   NC358115  35.216  43.353   5.485
 4583POPC   PO458116  35.456  42.740   5.588
 4583POPC   GL158117  35.301  42.913   5.927
 4583POPC   GL258118  35.430  43.261   5.940
 4583POPC   C1A58119  35.388  42.962   6.351
 4583POPC   D2A58120  35.420  43.234   6.666
 4583POPC   C3A58121  35.323  42.927   6.943
 4583POPC   C4A58122  35.601  42.796   7.256
 4583POPC   C1B58123  35.056  43.316   6.211
 4583POPC   C2B58124  34.910  43.211   6.647
 4583POPC   C3B58125  35.079  43.354   7.068
 4583POPC   C4B58126  35.549  43.331   7.177
 4584POPC   NC358127  20.975   4.126   5.426
 4584POPC   PO458128  20.732   4.699   5.533
 4584POPC   GL158129  20.516   4.502   5.874
 4584POPC   GL258130  20.685   4.172   5.896
 4584POPC   C1A58131  20.323   4.463   6.287
 4584POPC   D2A58132  20.566   4.311   6.642
 4584POPC   C3A58133  20.477   4.476   7.040
 4584POPC   C4A58134  20.711   4.433   7.430
 4584POPC   C1B58135  20.967   4.219   6.274
 4584POPC   C2B58136  21.025   4.064   6.713
 4584POPC   C3B58137  20.766   4.029   7.097
 4584POPC   C4B58138  20.825   3.958   7.551
 4585POPC   NC358139  12.460  40.952   5.468
 4585POPC   PO458140  13.016  40.686   5.176
 4585POPC   GL158141  12.944  40.718   5.677
 4585POPC   GL258142  12.911  41.062   5.716
 4585POPC   C1A58143  12.872  40.513   6.123
 4585POPC   D2A58144  12.840  40.681   6.561
 4585POPC   C3A58145  12.780  40.536   6.993
 4585POPC   C4A58146  12.594  40.553   7.407
 4585POPC   C1B58147  12.938  41.020   6.167
 4585POPC   C2B58148  12.894  41.213   6.596
 4585POPC   C3B58149  13.230  41.234   6.896
 4585POPC   C4B58150  13.237  41.096   7.314
 4586POPC   NC358151  37.455  34.196   5.061
 4586POPC   PO458152  37.895  34.547   5.462
 4586POPC   GL158153  37.855  34.607   5.852
 4586POPC   GL258154  37.698  34.944   5.819
 4586POPC   C1A58155  37.900  34.363   6.229
 4586POPC   D2A58156  37.740  34.173   6.599
 4586POPC   C3A58157  37.877  34.321   6.926
 4586POPC   C4A58158  37.696  34.373   7.310
 4586POPC   C1B58159  37.463  34.721   6.158
 4586POPC   C2B58160  37.629  34.679   6.563
 4586POPC   C3B58161  37.452  34.643   6.942
 4586POPC   C4B58162  37.457  34.849   7.346
 4587POPC   NC358163  31.803   3.574   5.511
 4587POPC   PO458164  31.147   3.480   5.349
 4587POPC   GL158165  31.325   3.403   5.744
 4587POPC   GL258166  31.415   3.745   5.824
 4587POPC   C1A58167  31.163   3.234   6.128
 4587POPC   D2A58168  31.039   3.111   6.556
 4587POPC   C3A58169  31.218   3.268   6.937
 4587POPC   C4A58170  31.291   3.113   7.369
 4587POPC   C1B58171  31.349   3.674   6.252
 4587POPC   C2B58172  31.521   3.587   6.668
 4587POPC   C3B58173  31.548   3.649   7.117
 4587POPC   C4B58174  31.545   3.625   7.575
 4588POPC   NC358175  19.229  38.692   5.430
 4588POPC   PO458176  18.765  38.289   5.132
 4588POPC   GL158177  18.865  38.334   5.583
 4588POPC   GL258178  18.726  38.654   5.634
 4588POPC   C1A58179  19.004  38.206   6.014
 4588POPC   D2A58180  19.175  38.424   6.376
 4588POPC   C3A58181  19.280  38.335   6.810
 4588POPC   C4A58182  19.228  38.036   7.150
 4588POPC   C1B58183  18.773  38.650   6.076
 4588POPC   C2B58184  18.765  38.754   6.504
 4588POPC   C3B58185  18.801  38.480   6.865
 4588POPC   C4B58186  19.040  38.531   7.245
 4589POPC   NC358187  24.835  25.405   5.569
 4589POPC   PO458188  25.419  25.146   5.545
 4589POPC   GL158189  25.464  25.307   5.936
 4589POPC   GL258190  25.315  25.612   5.851
 4589POPC   C1A58191  25.402  25.204   6.389
 4589POPC   D2A58192  25.229  25.184   6.796
 4589POPC   C3A58193  25.276  24.895   7.154
 4589POPC   C4A58194  25.481  24.969   7.568
 4589POPC   C1B58195  25.069  25.525   6.184
 4589POPC   C2B58196  25.070  25.647   6.586
 4589POPC   C3B58197  25.144  25.656   6.986
 4589POPC   C4B58198  25.281  25.385   7.279
 4590POPC   NC358199   2.832  19.453   5.354
 4590POPC   PO458200   2.487  18.864   5.328
 4590POPC   GL158201   2.510  18.902   5.766
 4590POPC   GL258202   2.547  19.258   5.733
 4590POPC   C1A58203   2.728  18.947   6.180
 4590POPC   D2A58204   2.868  18.694   6.546
 4590POPC   C3A58205   2.689  18.802   6.933
 4590POPC   C4A58206   2.949  19.057   7.203
 4590POPC   C1B58207   2.513  19.443   6.120
 4590POPC   C2B58208   2.489  19.266   6.518
 4590POPC   C3B58209   2.585  19.320   6.922
 4590POPC   C4B58210   2.436  19.082   7.278
 4591POPC   NC358211  18.744  17.792   5.398
 4591POPC   PO458212  19.260  18.339   5.476
 4591POPC   GL158213  19.173  18.030   5.820
 4591POPC   GL258214  18.831  18.108   5.829
 4591POPC   C1A58215  19.337  18.041   6.271
 4591POPC   D2A58216  19.540  18.405   6.523
 4591POPC   C3A58217  19.389  18.447   6.952
 4591POPC   C4A58218  19.276  18.088   7.251
 4591POPC   C1B58219  18.935  18.373   6.195
 4591POPC   C2B58220  19.045  18.286   6.626
 4591POPC   C3B58221  18.878  18.349   7.028
 4591POPC   C4B58222  18.956  18.628   7.340
 4592POPC   NC358223  30.341  42.384   5.371
 4592POPC   PO458224  30.828  41.862   5.503
 4592POPC   GL158225  30.868  42.114   5.871
 4592POPC   GL258226  30.533  42.190   5.833
 4592POPC   C1A58227  31.034  42.307   6.264
 4592POPC   D2A58228  30.857  42.602   6.597
 4592POPC   C3A58229  30.988  42.578   7.007
 4592POPC   C4A58230  31.073  42.154   7.057
 4592POPC   C1B58231  30.549  42.401   6.196
 4592POPC   C2B58232  30.351  42.562   6.553
 4592POPC   C3B58233  30.474  42.482   6.972
 4592POPC   C4B58234  30.250  42.456   7.343
 4593POPC   NC358235   4.650   5.153   5.422
 4593POPC   PO458236   3.938   5.247   5.505
 4593POPC   GL158237   4.314   5.227   5.805
 4593POPC   GL258238   4.398   4.838   5.769
 4593POPC   C1A58239   4.447   5.407   6.229
 4593POPC   D2A58240   4.312   5.240   6.668
 4593POPC   C3A58241   4.558   5.376   7.059
 4593POPC   C4A58242   4.574   5.584   7.512
 4593POPC   C1B58243   4.344   4.909   6.228
 4593POPC   C2B58244   4.318   4.710   6.643
 4593POPC   C3B58245   4.360   4.771   7.088
 4593POPC   C4B58246   4.191   4.709   7.521
 4594POPC   NC358247  37.222  23.226   5.506
 4594POPC   PO458248  37.437  22.565   5.464
 4594POPC   GL158249  37.626  22.688   5.840
 4594POPC   GL258250  37.618  23.062   5.802
 4594POPC   C1A58251  37.574  22.809   6.249
 4594POPC   D2A58252  37.525  23.059   6.558
 4594POPC   C3A58253  37.424  22.842   6.895
 4594POPC   C4A58254  37.462  22.693   7.275
 4594POPC   C1B58255  37.826  23.270   6.150
 4594POPC   C2B58256  38.019  23.168   6.536
 4594POPC   C3B58257  37.854  23.238   6.932
 4594POPC   C4B58258  37.759  23.089   7.333
 4595POPC   NC358259  10.168  43.417   5.392
 4595POPC   PO458260  10.691  43.057   5.317
 4595POPC   GL158261  10.501  43.128   5.730
 4595POPC   GL258262  10.741  43.413   5.774
 4595POPC   C1A58263  10.307  43.110   6.183
 4595POPC   D2A58264  10.408  43.213   6.654
 4595POPC   C3A58265  10.333  42.958   7.066
 4595POPC   C4A58266  10.204  42.927   7.496
 4595POPC   C1B58267  10.839  43.172   6.138
 4595POPC   C2B58268  10.910  43.238   6.571
 4595POPC   C3B58269  10.792  43.104   6.981
 4595POPC   C4B58270  10.619  43.234   7.408
 4596POPC   NC358271  23.010  33.105   5.471
 4596POPC   PO458272  22.423  33.463   5.667
 4596POPC   GL158273  22.711  33.180   5.888
 4596POPC   GL258274  23.121  33.185   5.967
 4596POPC   C1A58275  22.748  33.068   6.300
 4596POPC   D2A58276  22.900  32.884   6.657
 4596POPC   C3A58277  22.961  33.068   7.036
 4596POPC   C4A58278  22.597  32.949   7.220
 4596POPC   C1B58279  23.222  32.806   6.264
 4596POPC   C2B58280  23.286  32.553   6.693
 4596POPC   C3B58281  23.356  32.716   7.130
 4596POPC   C4B58282  23.377  33.116   7.352
 4597POPC   NC358283  21.732  26.822   5.363
 4597POPC   PO458284  22.446  26.786   5.579
 4597POPC   GL158285  22.118  26.949   5.804
 4597POPC   GL258286  21.872  26.677   5.860
 4597POPC   C1A58287  22.172  27.073   6.245
 4597POPC   D2A58288  22.055  26.932   6.667
 4597POPC   C3A58289  22.368  26.888   6.992
 4597POPC   C4A58290  22.362  26.820   7.444
 4597POPC   C1B58291  22.186  26.550   6.203
 4597POPC   C2B58292  22.170  26.403   6.660
 4597POPC   C3B58293  22.099  26.482   7.126
 4597POPC   C4B58294  21.999  26.494   7.571
 4598POPC   NC358295  27.585  36.554   5.188
 4598POPC   PO458296  27.808  36.042   5.623
 4598POPC   GL158297  27.652  36.137   5.974
 4598POPC   GL258298  27.383  36.240   5.828
 4598POPC   C1A58299  27.636  36.392   6.294
 4598POPC   D2A58300  27.550  36.561   6.648
 4598POPC   C3A58301  27.698  36.340   6.963
 4598POPC   C4A58302  27.576  36.401   7.359
 4598POPC   C1B58303  27.178  36.070   6.208
 4598POPC   C2B58304  27.236  36.169   6.635
 4598POPC   C3B58305  27.319  35.970   7.033
 4598POPC   C4B58306  27.485  35.561   7.164
 4599POPC   NC358307  36.788  27.252   5.631
 4599POPC   PO458308  36.941  27.929   5.596
 4599POPC   GL158309  37.203  27.659   5.857
 4599POPC   GL258310  37.310  27.297   5.771
 4599POPC   C1A58311  37.186  27.692   6.301
 4599POPC   D2A58312  36.898  27.805   6.654
 4599POPC   C3A58313  37.043  27.942   7.060
 4599POPC   C4A58314  37.278  27.705   7.326
 4599POPC   C1B58315  37.248  27.162   6.211
 4599POPC   C2B58316  37.124  27.310   6.655
 4599POPC   C3B58317  36.914  27.438   7.044
 4599POPC   C4B58318  36.694  27.208   7.337
 4600POPC   NC358319  22.845  41.784   5.416
 4600POPC   PO458320  22.617  41.198   5.574
 4600POPC   GL158321  22.932  41.379   5.863
 4600POPC   GL258322  23.053  41.733   5.863
 4600POPC   C1A58323  23.012  41.352   6.314
 4600POPC   D2A58324  22.672  41.326   6.622
 4600POPC   C3A58325  22.820  41.441   7.017
 4600POPC   C4A58326  23.172  41.185   7.147
 4600POPC   C1B58327  22.764  41.782   6.160
 4600POPC   C2B58328  22.834  41.810   6.560
 4600POPC   C3B58329  22.965  41.938   6.919
 4600POPC   C4B58330  22.663  41.881   7.235
 4601POPC   NC358331  39.501   4.991   5.076
 4601POPC   PO458332  39.218   5.068   5.639
 4601POPC   GL158333  39.101   5.170   5.969
 4601POPC   GL258334  38.833   5.391   5.857
 4601POPC   C1A58335  39.301   5.186   6.374
 4601POPC   D2A58336  39.200   4.983   6.741
 4601POPC   C3A58337  39.343   5.184   7.108
 4601POPC   C4A58338  39.313   4.842   7.392
 4601POPC   C1B58339  38.783   5.217   6.336
 4601POPC   C2B58340  38.720   5.180   6.806
 4601POPC   C3B58341  38.862   5.051   7.180
 4601POPC   C4B58342  38.963   5.329   7.458
 4602POPC   NC358343  43.691  28.812   5.513
 4602POPC   PO458344  44.138  28.309   5.333
 4602POPC   GL158345  43.881  28.375   5.717
 4602POPC   GL258346  44.027  28.645   5.916
 4602POPC   C1A58347  43.851  28.168   6.146
 4602POPC   D2A58348  44.085  27.977   6.514
 4602POPC   C3A58349  43.930  28.077   6.920
 4602POPC   C4A58350  44.055  28.398   7.179
 4602POPC   C1B58351  43.815  28.710   6.321
 4602POPC   C2B58352  43.541  28.716   6.702
 4602POPC   C3B58353  43.537  28.406   7.040
 4602POPC   C4B58354  43.684  28.293   7.482
 4603POPC   NC358355   1.719  25.246   5.587
 4603POPC   PO458356   1.119  25.336   5.465
 4603POPC   GL158357   1.178  25.484   5.894
 4603POPC   GL258358   0.971  25.789   5.895
 4603POPC   C1A58359   1.298  25.294   6.325
 4603POPC   D2A58360   1.246  25.140   6.790
 4603POPC   C3A58361   1.519  25.178   7.164
 4603POPC   C4A58362   1.582  25.023   7.603
 4603POPC   C1B58363   1.077  25.775   6.326
 4603POPC   C2B58364   0.884  25.457   6.587
 4603POPC   C3B58365   0.749  25.280   6.958
 4603POPC   C4B58366   1.059  25.430   7.177
 4604POPC   NC358367  23.874  24.807   5.600
 4604POPC   PO458368  24.426  25.197   5.432
 4604POPC   GL158369  24.553  25.094   5.852
 4604POPC   GL258370  24.788  24.793   5.806
 4604POPC   C1A58371  24.399  25.281   6.240
 4604POPC   D2A58372  24.115  25.388   6.588
 4604POPC   C3A58373  24.268  25.280   7.007
 4604POPC   C4A58374  24.380  25.147   7.399
 4604POPC   C1B58375  24.973  25.018   6.145
 4604POPC   C2B58376  24.806  25.168   6.521
 4604POPC   C3B58377  24.753  25.116   6.973
 4604POPC   C4B58378  24.764  25.453   7.271
 4605POPC   NC358379  21.727  32.637   5.377
 4605POPC   PO458380  22.257  33.093   5.246
 4605POPC   GL158381  22.150  33.035   5.726
 4605POPC   GL258382  21.878  33.279   5.889
 4605POPC   C1A58383  22.247  33.157   6.204
 4605POPC   D2A58384  21.986  33.200   6.574
 4605POPC   C3A58385  22.148  33.141   7.007
 4605POPC   C4A58386  22.210  33.161   7.464
 4605POPC   C1B58387  21.832  32.863   6.099
 4605POPC   C2B58388  21.841  32.694   6.514
 4605POPC   C3B58389  21.708  32.884   6.901
 4605POPC   C4B58390  21.873  32.792   7.318
 4606POPC   NC358391  16.760  19.003   5.408
 4606POPC   PO458392  16.277  19.412   5.504
 4606POPC   GL158393  16.520  19.191   5.834
 4606POPC   GL258394  16.478  18.853   5.928
 4606POPC   C1A58395  16.883  19.093   6.155
 4606POPC   D2A58396  16.996  18.914   6.583
 4606POPC   C3A58397  16.725  18.852   6.973
 4606POPC   C4A58398  16.791  18.988   7.424
 4606POPC   C1B58399  16.278  19.077   6.302
 4606POPC   C2B58400  16.216  19.004   6.791
 4606POPC   C3B58401  16.304  19.008   7.255
 4606POPC   C4B58402  16.375  18.770   7.673
 4607POPC   NC358403   2.559  26.610   5.681
 4607POPC   PO458404   2.977  27.094   5.571
 4607POPC   GL158405   2.930  26.882   5.953
 4607POPC   GL258406   2.974  26.520   5.938
 4607POPC   C1A58407   2.767  27.046   6.339
 4607POPC   D2A58408   2.496  27.141   6.696
 4607POPC   C3A58409   2.471  26.794   6.969
 4607POPC   C4A58410   2.807  26.946   7.192
 4607POPC   C1B58411   2.779  26.533   6.334
 4607POPC   C2B58412   2.970  26.684   6.712
 4607POPC   C3B58413   2.982  26.493   7.097
 4607POPC   C4B58414   2.608  26.344   7.314
 4608POPC   NC358415  40.915  24.698   5.487
 4608POPC   PO458416  40.558  24.044   5.576
 4608POPC   GL158417  40.785  24.333   5.822
 4608POPC   GL258418  40.563  24.639   5.870
 4608POPC   C1A58419  41.006  24.431   6.180
 4608POPC   D2A58420  41.235  24.449   6.528
 4608POPC   C3A58421  41.042  24.556   6.925
 4608POPC   C4A58422  41.049  24.466   7.346
 4608POPC   C1B58423  40.484  24.429   6.265
 4608POPC   C2B58424  40.624  24.415   6.671
 4608POPC   C3B58425  40.596  24.280   7.071
 4608POPC   C4B58426  40.554  24.659   7.184
 4609POPC   NC358427  28.206  19.791   5.154
 4609POPC   PO458428  27.529  19.944   5.319
 4609POPC   GL158429  27.536  19.640   5.658
 4609POPC   GL258430  27.903  19.522   5.717
 4609POPC   C1A58431  27.342  19.698   6.082
 4609POPC   D2A58432  27.473  19.532   6.476
 4609POPC   C3A58433  27.328  19.649   6.886
 4609POPC   C4A58434  27.495  19.853   7.257
 4609POPC   C1B58435  27.854  19.675   6.147
 4609POPC   C2B58436  27.889  19.838   6.582
 4609POPC   C3B58437  27.840  19.631   6.960
 4609POPC   C4B58438  27.622  19.351   7.212
 4610POPC   NC358439  37.997  24.227   5.514
 4610POPC   PO458440  37.530  23.625   5.473
 4610POPC   GL158441  37.616  23.741   5.867
 4610POPC   GL258442  37.664  24.071   5.903
 4610POPC   C1A58443  37.382  23.823   6.260
 4610POPC   D2A58444  37.626  23.574   6.575
 4610POPC   C3A58445  37.692  23.717   6.982
 4610POPC   C4A58446  37.889  23.607   7.301
 4610POPC   C1B58447  37.901  23.861   6.258
 4610POPC   C2B58448  38.037  23.922   6.660
 4610POPC   C3B58449  37.937  24.158   7.019
 4610POPC   C4B58450  38.005  24.062   7.470
 4611POPC   NC358451   3.437   3.346   5.542
 4611POPC   PO458452   3.887   3.740   5.192
 4611POPC   GL158453   3.809   3.803   5.659
 4611POPC   GL258454   3.446   3.850   5.719
 4611POPC   C1A58455   3.743   3.642   6.099
 4611POPC   D2A58456   3.731   3.355   6.448
 4611POPC   C3A58457   3.736   3.524   6.864
 4611POPC   C4A58458   3.569   3.379   7.266
 4611POPC   C1B58459   3.236   3.710   6.131
 4611POPC   C2B58460   3.233   3.577   6.582
 4611POPC   C3B58461   3.292   3.733   7.010
 4611POPC   C4B58462   3.160   3.763   7.445
 4612POPC   NC358463  21.128  39.760   5.457
 4612POPC   PO458464  21.590  40.244   5.434
 4612POPC   GL158465  21.426  39.982   5.797
 4612POPC   GL258466  21.228  40.204   5.987
 4612POPC   C1A58467  21.444  39.801   6.229
 4612POPC   D2A58468  21.340  40.079   6.550
 4612POPC   C3A58469  21.435  39.921   6.945
 4612POPC   C4A58470  21.225  39.934   7.326
 4612POPC   C1B58471  21.665  40.268   6.161
 4612POPC   C2B58472  21.868  40.150   6.544
 4612POPC   C3B58473  21.807  40.332   6.952
 4612POPC   C4B58474  21.713  40.122   7.339
 4613POPC   NC358475  26.560   1.326   5.498
 4613POPC   PO458476  27.119   0.953   5.517
 4613POPC   GL158477  26.945   1.181   5.843
 4613POPC   GL258478  26.619   0.998   5.898
 4613POPC   C1A58479  26.845   1.348   6.239
 4613POPC   D2A58480  26.726   1.158   6.618
 4613POPC   C3A58481  26.779   1.453   6.942
 4613POPC   C4A58482  26.899   1.363   7.337
 4613POPC   C1B58483  26.453   0.832   6.298
 4613POPC   C2B58484  26.437   0.764   6.764
 4613POPC   C3B58485  26.647   0.923   7.132
 4613POPC   C4B58486  26.668   0.673   7.498
 4614POPC   NC358487  39.725  19.690   5.589
 4614POPC   PO458488  40.233  19.880   5.146
 4614POPC   GL158489  40.262  20.058   5.664
 4614POPC   GL258490  39.942  20.160   5.795
 4614POPC   C1A58491  40.227  19.868   6.192
 4614POPC   D2A58492  40.229  19.467   6.496
 4614POPC   C3A58493  40.067  19.533   6.949
 4614POPC   C4A58494  40.077  19.635   7.402
 4614POPC   C1B58495  39.744  20.021   6.187
 4614POPC   C2B58496  39.834  19.800   6.560
 4614POPC   C3B58497  39.844  19.982   6.946
 4614POPC   C4B58498  39.865  20.092   7.340
 4615POPC   NC358499  24.580  32.511   5.375
 4615POPC   PO458500  24.427  31.880   5.403
 4615POPC   GL158501  24.393  32.165   5.719
 4615POPC   GL258502  24.751  32.160   5.776
 4615POPC   C1A58503  24.445  32.453   6.060
 4615POPC   D2A58504  24.668  32.280   6.386
 4615POPC   C3A58505  24.458  32.335   6.771
 4615POPC   C4A58506  24.642  32.427   7.153
 4615POPC   C1B58507  24.820  31.833   6.107
 4615POPC   C2B58508  24.859  31.841   6.562
 4615POPC   C3B58509  24.721  31.897   7.002
 4615POPC   C4B58510  24.839  31.779   7.420
 4616POPC   NC358511  11.366  33.919   5.223
 4616POPC   PO458512  11.724  33.467   5.592
 4616POPC   GL158513  11.561  33.715   5.886
 4616POPC   GL258514  11.334  33.897   5.751
 4616POPC   C1A58515  11.510  34.109   6.166
 4616POPC   D2A58516  11.214  34.155   6.501
 4616POPC   C3A58517  11.395  33.917   6.791
 4616POPC   C4A58518  11.447  33.942   7.202
 4616POPC   C1B58519  11.153  33.724   6.186
 4616POPC   C2B58520  11.189  33.483   6.571
 4616POPC   C3B58521  11.138  33.550   7.030
 4616POPC   C4B58522  10.916  33.853   7.240
 4617POPC   NC358523  23.045  12.188   5.564
 4617POPC   PO458524  22.779  11.590   5.540
 4617POPC   GL158525  22.812  11.848   5.895
 4617POPC   GL258526  22.769  12.227   5.968
 4617POPC   C1A58527  22.968  11.914   6.291
 4617POPC   D2A58528  22.768  12.137   6.600
 4617POPC   C3A58529  22.990  11.996   6.932
 4617POPC   C4A58530  22.982  12.290   7.234
 4617POPC   C1B58531  22.463  12.422   6.225
 4617POPC   C2B58532  22.477  12.607   6.614
 4617POPC   C3B58533  22.515  12.434   7.042
 4617POPC   C4B58534  22.538  12.003   7.181
 4618POPC   NC358535  20.614  41.219   5.250
 4618POPC   PO458536  20.360  41.802   5.374
 4618POPC   GL158537  20.606  41.701   5.761
 4618POPC   GL258538  20.734  42.003   5.961
 4618POPC   C1A58539  20.752  41.459   6.144
 4618POPC   D2A58540  20.515  41.382   6.512
 4618POPC   C3A58541  20.684  41.420   6.939
 4618POPC   C4A58542  20.364  41.462   7.244
 4618POPC   C1B58543  20.491  41.879   6.315
 4618POPC   C2B58544  20.417  41.824   6.786
 4618POPC   C3B58545  20.538  41.921   7.210
 4618POPC   C4B58546  20.536  41.736   7.631
 4619POPC   NC358547  25.599  24.717   5.462
 4619POPC   PO458548  24.939  24.461   5.397
 4619POPC   GL158549  25.162  24.381   5.788
 4619POPC   GL258550  24.959  24.133   5.946
 4619POPC   C1A58551  25.434  24.438   6.193
 4619POPC   D2A58552  25.408  24.722   6.581
 4619POPC   C3A58553  25.669  24.631   6.946
 4619POPC   C4A58554  25.518  24.385   7.290
 4619POPC   C1B58555  24.918  24.515   6.241
 4619POPC   C2B58556  24.883  24.679   6.680
 4619POPC   C3B58557  25.014  24.462   7.076
 4619POPC   C4B58558  24.861  24.245   7.433
 4620POPC   NC358559  44.598  13.789   5.350
 4620POPC   PO458560  44.596  13.142   5.532
 4620POPC   GL158561  44.749  13.491   5.803
 4620POPC   GL258562  44.587  13.819   5.863
 4620POPC   C1A58563  44.937  13.681   6.188
 4620POPC   D2A58564  44.965  13.866   6.591
 4620POPC   C3A58565  44.845  13.584   6.920
 4620POPC   C4A58566  44.993  13.500   7.317
 4620POPC   C1B58567  44.487  13.876   6.337
 4620POPC   C2B58568  44.340  13.659   6.722
 4620POPC   C3B58569  44.398  13.591   7.159
 4620POPC   C4B58570  44.480  13.904   7.482
 4621POPC   NC358571  29.276  21.047   5.523
 4621POPC   PO458572  29.024  21.708   5.494
 4621POPC   GL158573  29.102  21.447   5.828
 4621POPC   GL258574  29.458  21.413   5.847
 4621POPC   C1A58575  29.085  21.386   6.280
 4621POPC   D2A58576  29.029  21.538   6.724
 4621POPC   C3A58577  28.888  21.264   7.095
 4621POPC   C4A58578  28.909  21.318   7.562
 4621POPC   C1B58579  29.465  21.738   6.149
 4621POPC   C2B58580  29.516  21.617   6.567
 4621POPC   C3B58581  29.463  21.642   7.021
 4621POPC   C4B58582  29.377  21.283   7.287
 4622POPC   NC358583  44.242  16.991   5.493
 4622POPC   PO458584  43.832  16.505   5.335
 4622POPC   GL158585  43.873  16.777   5.763
 4622POPC   GL258586  43.623  16.959   5.982
 4622POPC   C1A58587  44.098  16.952   6.163
 4622POPC   D2A58588  43.811  16.987   6.523
 4622POPC   C3A58589  43.859  17.007   6.991
 4622POPC   C4A58590  44.160  16.907   7.344
 4622POPC   C1B58591  43.726  16.567   6.226
 4622POPC   C2B58592  43.902  16.491   6.662
 4622POPC   C3B58593  43.681  16.513   7.069
 4622POPC   C4B58594  43.405  16.367   7.410
 4623POPC   NC358595   5.596  14.707   5.438
 4623POPC   PO458596   6.149  15.113   5.479
 4623POPC   GL158597   5.765  15.144   5.759
 4623POPC   GL258598   5.604  15.507   5.776
 4623POPC   C1A58599   5.793  15.007   6.194
 4623POPC   D2A58600   6.029  15.154   6.565
 4623POPC   C3A58601   5.808  14.947   6.897
 4623POPC   C4A58602   5.719  14.953   7.329
 4623POPC   C1B58603   5.768  15.556   6.224
 4623POPC   C2B58604   5.838  15.625   6.684
 4623POPC   C3B58605   5.752  15.416   7.088
 4623POPC   C4B58606   5.706  15.389   7.564
 4624POPC   NC358607  35.561  19.165   5.114
 4624POPC   PO458608  35.199  18.841   5.598
 4624POPC   GL158609  35.274  18.963   5.975
 4624POPC   GL258610  34.964  18.797   6.060
 4624POPC   C1A58611  35.580  19.004   6.324
 4624POPC   D2A58612  35.678  19.352   6.586
 4624POPC   C3A58613  35.450  19.215   6.941
 4624POPC   C4A58614  35.647  18.853   7.094
 4624POPC   C1B58615  35.080  19.078   6.424
 4624POPC   C2B58616  35.285  18.814   6.702
 4624POPC   C3B58617  35.144  18.778   7.089
 4624POPC   C4B58618  35.221  19.065   7.396
 4625POPC   NC358619  27.291  40.234   5.508
 4625POPC   PO458620  27.970  40.197   5.529
 4625POPC   GL158621  27.598  40.066   5.878
 4625POPC   GL258622  27.219  39.892   5.861
 4625POPC   C1A58623  27.529  39.788   6.250
 4625POPC   D2A58624  27.473  39.908   6.676
 4625POPC   C3A58625  27.743  39.850   6.981
 4625POPC   C4A58626  27.898  40.195   7.265
 4625POPC   C1B58627  27.175  40.236   6.162
 4625POPC   C2B58628  27.274  40.357   6.580
 4625POPC   C3B58629  27.434  40.318   7.009
 4625POPC   C4B58630  27.347  40.345   7.430
 4626POPC   NC358631  34.790  17.356   5.002
 4626POPC   PO458632  34.650  17.775   5.500
 4626POPC   GL158633  34.619  17.522   5.851
 4626POPC   GL258634  34.321  17.686   5.925
 4626POPC   C1A58635  34.770  17.221   6.173
 4626POPC   D2A58636  34.804  17.070   6.595
 4626POPC   C3A58637  34.588  17.365   6.852
 4626POPC   C4A58638  34.444  17.541   7.262
 4626POPC   C1B58639  34.537  17.685   6.331
 4626POPC   C2B58640  34.379  17.824   6.715
 4626POPC   C3B58641  34.730  17.838   6.978
 4626POPC   C4B58642  34.915  17.882   7.336
 4627POPC   NC358643  27.925  10.563   5.342
 4627POPC   PO458644  27.261  10.511   5.405
 4627POPC   GL158645  27.545  10.428   5.782
 4627POPC   GL258646  27.842  10.188   5.774
 4627POPC   C1A58647  27.493  10.501   6.233
 4627POPC   D2A58648  27.535  10.684   6.652
 4627POPC   C3A58649  27.420  10.466   7.012
 4627POPC   C4A58650  27.423  10.851   7.202
 4627POPC   C1B58651  27.958  10.255   6.209
 4627POPC   C2B58652  27.751  10.231   6.609
 4627POPC   C3B58653  27.909  10.351   7.004
 4627POPC   C4B58654  27.726  10.164   7.331
 4628POPC   NC358655  25.751   7.407   5.477
 4628POPC   PO458656  26.299   7.937   5.499
 4628POPC   GL158657  26.180   7.627   5.854
 4628POPC   GL258658  26.046   7.260   5.872
 4628POPC   C1A58659  25.883   7.562   6.248
 4628POPC   D2A58660  25.759   7.294   6.594
 4628POPC   C3A58661  25.872   7.314   7.025
 4628POPC   C4A58662  25.922   7.714   7.250
 4628POPC   C1B58663  26.327   7.287   6.217
 4628POPC   C2B58664  26.422   7.547   6.534
 4628POPC   C3B58665  26.311   7.556   6.947
 4628POPC   C4B58666  26.337   7.252   7.255
 4629POPC   NC358667  44.458  29.530   5.587
 4629POPC   PO458668  44.709  29.012   5.316
 4629POPC   GL158669  44.711  29.133   5.815
 4629POPC   GL258670  44.426  29.177   5.972
 4629POPC   C1A58671  44.801  29.241   6.288
 4629POPC   D2A58672  44.700  29.513   6.670
 4629POPC   C3A58673  44.542  29.233   7.015
 4629POPC   C4A58674  44.814  28.938   7.235
 4629POPC   C1B58675  44.364  28.824   6.266
 4629POPC   C2B58676  44.258  28.585   6.655
 4629POPC   C3B58677  44.386  28.737   7.048
 4629POPC   C4B58678  44.363  28.936   7.440
 4630POPC   NC358679  23.043  30.384   5.620
 4630POPC   PO458680  22.782  30.920   5.279
 4630POPC   GL158681  22.908  30.882   5.756
 4630POPC   GL258682  22.823  30.637   6.081
 4630POPC   C1A58683  23.205  30.926   6.107
 4630POPC   D2A58684  23.270  31.046   6.530
 4630POPC   C3A58685  23.221  30.778   6.897
 4630POPC   C4A58686  23.250  30.970   7.307
 4630POPC   C1B58687  22.806  30.821   6.495
 4630POPC   C2B58688  22.473  30.931   6.774
 4630POPC   C3B58689  22.535  30.939   7.173
 4630POPC   C4B58690  22.852  30.616   7.220
 4631POPC   NC358691  15.560   7.657   5.250
 4631POPC   PO458692  15.101   7.130   5.282
 4631POPC   GL158693  15.149   7.305   5.717
 4631POPC   GL258694  15.476   7.500   5.759
 4631POPC   C1A58695  15.151   7.443   6.161
 4631POPC   D2A58696  15.329   7.602   6.551
 4631POPC   C3A58697  15.174   7.359   6.873
 4631POPC   C4A58698  15.087   7.357   7.296
 4631POPC   C1B58699  15.549   7.786   6.116
 4631POPC   C2B58700  15.617   8.021   6.503
 4631POPC   C3B58701  15.620   7.866   6.934
 4631POPC   C4B58702  15.420   7.799   7.326
 4632POPC   NC358703   5.566  41.013   5.644
 4632POPC   PO458704   5.999  41.311   5.282
 4632POPC   GL158705   5.908  41.456   5.698
 4632POPC   GL258706   6.024  41.163   5.882
 4632POPC   C1A58707   5.867  41.646   6.122
 4632POPC   D2A58708   6.028  41.775   6.539
 4632POPC   C3A58709   5.789  41.655   6.867
 4632POPC   C4A58710   5.818  41.707   7.280
 4632POPC   C1B58711   5.975  41.160   6.326
 4632POPC   C2B58712   5.792  41.175   6.710
 4632POPC   C3B58713   5.936  41.210   7.127
 4632POPC   C4B58714   5.776  41.279   7.515
 4633POPC   NC358715  13.003  11.383   5.306
 4633POPC   PO458716  12.287  11.464   5.482
 4633POPC   GL158717  12.693  11.318   5.711
 4633POPC   GL258718  12.871  11.600   5.855
 4633POPC   C1A58719  12.997  11.184   6.100
 4633POPC   D2A58720  12.925  11.226   6.577
 4633POPC   C3A58721  13.042  11.337   7.020
 4633POPC   C4A58722  12.973  11.476   7.468
 4633POPC   C1B58723  13.048  11.660   6.297
 4633POPC   C2B58724  13.153  11.760   6.742
 4633POPC   C3B58725  13.145  11.858   7.199
 4633POPC   C4B58726  13.388  11.728   7.624
 4634POPC   NC358727  11.614  13.263   5.497
 4634POPC   PO458728  11.187  13.805   5.411
 4634POPC   GL158729  11.226  13.661   5.818
 4634POPC   GL258730  11.022  13.956   5.909
 4634POPC   C1A58731  11.368  13.402   6.189
 4634POPC   D2A58732  11.257  13.507   6.618
 4634POPC   C3A58733  11.456  13.491   7.021
 4634POPC   C4A58734  11.392  13.095   7.218
 4634POPC   C1B58735  11.292  13.916   6.266
 4634POPC   C2B58736  11.486  13.957   6.680
 4634POPC   C3B58737  11.264  14.012   7.052
 4634POPC   C4B58738  11.171  14.009   7.489
 4635POPC   NC358739  31.233  38.709   5.584
 4635POPC   PO458740  31.502  39.182   5.194
 4635POPC   GL158741  31.560  39.223   5.632
 4635POPC   GL258742  31.693  38.925   5.774
 4635POPC   C1A58743  31.319  39.343   6.018
 4635POPC   D2A58744  31.110  39.425   6.420
 4635POPC   C3A58745  31.305  39.576   6.806
 4635POPC   C4A58746  31.223  39.373   7.221
 4635POPC   C1B58747  31.807  39.239   6.105
 4635POPC   C2B58748  31.681  39.344   6.514
 4635POPC   C3B58749  31.629  39.171   6.929
 4635POPC   C4B58750  31.777  39.202   7.351
 4636POPC   NC358751  17.154   7.247   5.361
 4636POPC   PO458752  17.640   7.652   5.617
 4636POPC   GL158753  17.382   7.330   5.856
 4636POPC   GL258754  17.524   6.973   5.948
 4636POPC   C1A58755  17.482   7.354   6.287
 4636POPC   D2A58756  17.605   7.642   6.594
 4636POPC   C3A58757  17.442   7.578   6.987
 4636POPC   C4A58758  17.658   7.307   7.209
 4636POPC   C1B58759  17.499   6.847   6.384
 4636POPC   C2B58760  17.467   7.106   6.762
 4636POPC   C3B58761  17.176   7.137   7.124
 4636POPC   C4B58762  17.309   7.096   7.560
 4637POPC   NC358763   3.640  20.040   5.418
 4637POPC   PO458764   3.295  19.451   5.376
 4637POPC   GL158765   3.588  19.585   5.738
 4637POPC   GL258766   3.959  19.507   5.770
 4637POPC   C1A58767   3.658  19.913   6.079
 4637POPC   D2A58768   3.473  20.153   6.428
 4637POPC   C3A58769   3.680  20.092   6.849
 4637POPC   C4A58770   3.651  19.967   7.281
 4637POPC   C1B58771   3.824  19.432   6.214
 4637POPC   C2B58772   3.782  19.586   6.648
 4637POPC   C3B58773   3.554  19.506   7.056
 4637POPC   C4B58774   3.737  19.482   7.477
 4638POPC   NC358775  41.948  42.712   5.498
 4638POPC   PO458776  42.488  42.880   5.103
 4638POPC   GL158777  42.409  42.990   5.574
 4638POPC   GL258778  42.381  42.718   5.793
 4638POPC   C1A58779  42.493  43.149   6.036
 4638POPC   D2A58780  42.777  43.316   6.368
 4638POPC   C3A58781  42.549  43.300   6.761
 4638POPC   C4A58782  42.699  43.090   7.124
 4638POPC   C1B58783  42.126  42.753   6.140
 4638POPC   C2B58784  42.210  42.952   6.517
 4638POPC   C3B58785  42.252  42.895   6.938
 4638POPC   C4B58786  42.193  42.971   7.354
 4639POPC   NC358787  21.533  44.068   5.259
 4639POPC   PO458788  20.972  43.706   5.172
 4639POPC   GL158789  21.243  43.773   5.619
 4639POPC   GL258790  21.470  44.093   5.751
 4639POPC   C1A58791  21.366  43.757   6.106
 4639POPC   D2A58792  21.567  43.585   6.498
 4639POPC   C3A58793  21.416  43.772   6.910
 4639POPC   C4A58794  21.603  43.833   7.318
 4639POPC   C1B58795  21.608  44.226   6.152
 4639POPC   C2B58796  21.382  44.124   6.544
 4639POPC   C3B58797  21.179  44.292   6.917
 4639POPC   C4B58798  21.162  44.092   7.318
 4640POPC   NC358799  26.973  27.758   5.222
 4640POPC   PO458800  26.451  27.461   5.461
 4640POPC   GL158801  26.761  27.708   5.720
 4640POPC   GL258802  26.956  27.468   5.975
 4640POPC   C1A58803  26.805  27.935   6.096
 4640POPC   D2A58804  26.969  27.694   6.433
 4640POPC   C3A58805  26.886  27.629   6.845
 4640POPC   C4A58806  26.782  27.695   7.252
 4640POPC   C1B58807  26.558  27.521   6.184
 4640POPC   C2B58808  26.416  27.519   6.597
 4640POPC   C3B58809  26.503  27.309   7.000
 4640POPC   C4B58810  26.748  27.200   7.348
 4641POPC   NC358811  23.478   0.146   5.420
 4641POPC   PO458812  23.757   0.747   5.346
 4641POPC   GL158813  23.742   0.497   5.715
 4641POPC   GL258814  23.414   0.525   5.782
 4641POPC   C1A58815  23.732   0.352   6.173
 4641POPC   D2A58816  23.895   0.233   6.588
 4641POPC   C3A58817  23.730   0.361   7.012
 4641POPC   C4A58818  23.577   0.329   7.473
 4641POPC   C1B58819  23.599   0.839   6.117
 4641POPC   C2B58820  23.797   0.751   6.551
 4641POPC   C3B58821  23.896   0.854   6.990
 4641POPC   C4B58822  23.558   0.840   7.281
 4642POPC   NC358823  36.710  17.913   5.481
 4642POPC   PO458824  37.176  18.491   5.452
 4642POPC   GL158825  36.930  18.397   5.788
 4642POPC   GL258826  36.578  18.387   5.859
 4642POPC   C1A58827  37.044  18.512   6.192
 4642POPC   D2A58828  36.849  18.427   6.564
 4642POPC   C3A58829  37.050  18.634   6.909
 4642POPC   C4A58830  37.132  18.560   7.347
 4642POPC   C1B58831  36.778  18.054   6.166
 4642POPC   C2B58832  37.116  17.908   6.478
 4642POPC   C3B58833  37.094  18.126   6.881
 4642POPC   C4B58834  36.671  18.303   7.040
 4643POPC   NC358835  16.591   1.361   5.450
 4643POPC   PO458836  17.086   0.885   5.545
 4643POPC   GL158837  16.888   1.067   5.927
 4643POPC   GL258838  16.866   1.441   5.879
 4643POPC   C1A58839  16.886   1.095   6.402
 4643POPC   D2A58840  16.612   1.018   6.775
 4643POPC   C3A58841  16.773   1.188   7.182
 4643POPC   C4A58842  17.094   1.399   7.506
 4643POPC   C1B58843  16.594   1.510   6.255
 4643POPC   C2B58844  16.662   1.546   6.714
 4643POPC   C3B58845  16.864   1.670   7.108
 4643POPC   C4B58846  16.685   1.666   7.551
 4644POPC   NC358847   0.722  21.312   5.420
 4644POPC   PO458848   1.122  21.858   5.473
 4644POPC   GL158849   0.967  21.561   5.807
 4644POPC   GL258850   1.083  21.236   5.814
 4644POPC   C1A58851   0.933  21.482   6.270
 4644POPC   D2A58852   1.176  21.385   6.659
 4644POPC   C3A58853   1.224  21.628   7.058
 4644POPC   C4A58854   1.076  21.457   7.450
 4644POPC   C1B58855   1.307  21.113   6.233
 4644POPC   C2B58856   1.424  20.937   6.690
 4644POPC   C3B58857   1.361  21.138   7.119
 4644POPC   C4B58858   1.617  21.412   7.447
 4645POPC   NC358859  41.766  26.494   5.440
 4645POPC   PO458860  41.553  25.908   5.246
 4645POPC   GL158861  41.547  26.055   5.688
 4645POPC   GL258862  41.454  25.708   5.783
 4645POPC   C1A58863  41.677  26.231   6.121
 4645POPC   D2A58864  41.552  26.161   6.557
 4645POPC   C3A58865  41.737  26.351   6.925
 4645POPC   C4A58866  41.515  26.359   7.305
 4645POPC   C1B58867  41.407  25.800   6.214
 4645POPC   C2B58868  41.470  25.671   6.674
 4645POPC   C3B58869  41.617  25.850   7.063
 4645POPC   C4B58870  41.678  25.754   7.518
 4646POPC   NC358871  23.263  40.174   5.590
 4646POPC   PO458872  23.116  39.553   5.604
 4646POPC   GL158873  22.861  39.875   5.797
 4646POPC   GL258874  22.732  40.195   5.618
 4646POPC   C1A58875  23.066  39.939   6.188
 4646POPC   D2A58876  23.260  39.784   6.549
 4646POPC   C3A58877  23.230  40.085   6.848
 4646POPC   C4A58878  23.125  40.197   7.245
 4646POPC   C1B58879  22.729  40.323   6.077
 4646POPC   C2B58880  22.926  40.332   6.495
 4646POPC   C3B58881  22.809  40.423   6.887
 4646POPC   C4B58882  22.653  40.391   7.258
 4647POPC   NC358883  42.936  21.228   5.458
 4647POPC   PO458884  43.153  21.869   5.623
 4647POPC   GL158885  43.111  21.466   5.906
 4647POPC   GL258886  42.810  21.223   5.940
 4647POPC   C1A58887  43.035  21.442   6.359
 4647POPC   D2A58888  42.904  21.727   6.704
 4647POPC   C3A58889  43.169  21.643   7.041
 4647POPC   C4A58890  43.220  21.267   7.204
 4647POPC   C1B58891  42.666  21.044   6.319
 4647POPC   C2B58892  42.851  21.113   6.721
 4647POPC   C3B58893  42.770  21.092   7.135
 4647POPC   C4B58894  42.925  21.097   7.585
 4648POPC   NC358895  23.105  24.900   5.457
 4648POPC   PO458896  22.857  24.305   5.185
 4648POPC   GL158897  22.795  24.390   5.652
 4648POPC   GL258898  23.134  24.432   5.759
 4648POPC   C1A58899  22.656  24.434   6.114
 4648POPC   D2A58900  22.828  24.409   6.553
 4648POPC   C3A58901  22.693  24.475   6.984
 4648POPC   C4A58902  22.708  24.574   7.466
 4648POPC   C1B58903  23.211  24.305   6.182
 4648POPC   C2B58904  23.378  24.488   6.565
 4648POPC   C3B58905  23.197  24.444   6.958
 4648POPC   C4B58906  23.197  24.636   7.371
 4649POPC   NC358907  27.226  42.597   5.048
 4649POPC   PO458908  27.879  42.643   5.408
 4649POPC   GL158909  27.769  42.484   5.812
 4649POPC   GL258910  27.404  42.467   5.898
 4649POPC   C1A58911  27.742  42.249   6.194
 4649POPC   D2A58912  27.511  42.287   6.566
 4649POPC   C3A58913  27.833  42.332   6.864
 4649POPC   C4A58914  27.797  42.298   7.290
 4649POPC   C1B58915  27.220  42.730   6.248
 4649POPC   C2B58916  27.216  42.768   6.709
 4649POPC   C3B58917  27.378  42.505   7.041
 4649POPC   C4B58918  27.304  42.481   7.489
 4650POPC   NC358919   0.303   0.443   5.232
 4650POPC   PO458920   0.790   0.111   5.565
 4650POPC   GL158921   0.487   0.401   5.765
 4650POPC   GL258922   0.153   0.287   5.836
 4650POPC   C1A58923   0.453   0.613   6.179
 4650POPC   D2A58924   0.280   0.485   6.602
 4650POPC   C3A58925   0.527   0.670   6.971
 4650POPC   C4A58926   0.773   0.592   7.368
 4650POPC   C1B58927   0.040   0.056   6.252
 4650POPC   C2B58928  44.979   0.059   6.726
 4650POPC   C3B58929   0.210   0.287   7.085
 4650POPC   C4B58930   0.439   0.232   7.507
 4651POPC   NC358931  15.462  12.435   5.550
 4651POPC   PO458932  16.097  12.721   5.289
 4651POPC   GL158933  15.905  12.926   5.649
 4651POPC   GL258934  15.916  12.603   5.791
 4651POPC   C1A58935  15.935  13.000   6.111
 4651POPC   D2A58936  16.007  12.756   6.468
 4651POPC   C3A58937  15.923  12.910   6.854
 4651POPC   C4A58938  16.066  12.725   7.212
 4651POPC   C1B58939  15.678  12.489   6.160
 4651POPC   C2B58940  15.531  12.611   6.564
 4651POPC   C3B58941  15.664  12.452   6.954
 4651POPC   C4B58942  15.294  12.431   7.164
 4652POPC   NC358943  11.497   6.408   5.280
 4652POPC   PO458944  11.190   5.894   5.504
 4652POPC   GL158945  11.258   6.008   5.885
 4652POPC   GL258946  11.533   6.260   5.788
 4652POPC   C1A58947  11.276   5.776   6.287
 4652POPC   D2A58948  11.446   5.870   6.702
 4652POPC   C3A58949  11.311   5.642   7.060
 4652POPC   C4A58950  11.185   5.450   7.467
 4652POPC   C1B58951  11.511   6.242   6.251
 4652POPC   C2B58952  11.117   6.255   6.482
 4652POPC   C3B58953  11.119   6.229   6.905
 4652POPC   C4B58954  11.491   6.181   7.130
 4653POPC   NC358955  36.671  28.295   5.516
 4653POPC   PO458956  37.366  28.526   5.358
 4653POPC   GL158957  37.084  28.510   5.779
 4653POPC   GL258958  37.089  28.195   6.019
 4653POPC   C1A58959  36.882  28.612   6.204
 4653POPC   D2A58960  36.951  28.308   6.534
 4653POPC   C3A58961  36.835  28.388   6.931
 4653POPC   C4A58962  37.166  28.425   7.241
 4653POPC   C1B58963  36.644  28.110   6.185
 4653POPC   C2B58964  36.453  28.039   6.606
 4653POPC   C3B58965  36.524  27.982   7.096
 4653POPC   C4B58966  36.709  28.299   7.408
 4654POPC   NC358967  15.147  29.483   5.389
 4654POPC   PO458968  15.266  30.096   5.456
 4654POPC   GL158969  15.216  29.818   5.796
 4654POPC   GL258970  14.914  29.616   5.818
 4654POPC   C1A58971  15.336  29.877   6.214
 4654POPC   D2A58972  15.465  30.101   6.574
 4654POPC   C3A58973  15.249  29.958   6.940
 4654POPC   C4A58974  15.048  30.036   7.351
 4654POPC   C1B58975  14.836  29.829   6.193
 4654POPC   C2B58976  14.800  29.727   6.625
 4654POPC   C3B58977  14.875  29.590   7.038
 4654POPC   C4B58978  14.782  29.631   7.471
 4655POPC   NC358979  22.610  28.850   5.558
 4655POPC   PO458980  23.172  28.366   5.466
 4655POPC   GL158981  23.014  28.247   5.852
 4655POPC   GL258982  22.816  28.512   5.857
 4655POPC   C1A58983  22.861  28.286   6.286
 4655POPC   D2A58984  22.910  28.605   6.576
 4655POPC   C3A58985  23.001  28.415   6.914
 4655POPC   C4A58986  22.967  28.493   7.317
 4655POPC   C1B58987  22.581  28.750   6.212
 4655POPC   C2B58988  22.435  28.743   6.686
 4655POPC   C3B58989  22.677  28.834   7.102
 4655POPC   C4B58990  22.780  28.880   7.592
 4656POPC   NC358991  22.860   8.793   5.488
 4656POPC   PO458992  23.363   9.131   5.218
 4656POPC   GL158993  23.394   9.033   5.709
 4656POPC   GL258994  23.269   8.736   5.776
 4656POPC   C1A58995  23.359   9.119   6.160
 4656POPC   D2A58996  23.136   9.276   6.541
 4656POPC   C3A58997  22.867   9.007   6.798
 4656POPC   C4A58998  22.977   8.936   7.243
 4656POPC   C1B58999  23.031   8.723   6.147
 4656POPC   C2B59000  23.248   8.733   6.528
 4656POPC   C3B59001  23.207   8.624   6.937
 4656POPC   C4B59002  23.407   8.546   7.342
 4657POPC   NC359003   6.420  17.857   5.657
 4657POPC   PO459004   6.880  17.332   5.557
 4657POPC   GL159005   6.846  17.648   5.849
 4657POPC   GL259006   6.564  17.459   5.936
 4657POPC   C1A59007   6.738  17.824   6.245
 4657POPC   D2A59008   6.525  17.680   6.588
 4657POPC   C3A59009   6.730  17.763   6.917
 4657POPC   C4A59010   6.520  17.721   7.263
 4657POPC   C1B59011   6.816  17.287   6.255
 4657POPC   C2B59012   6.839  17.285   6.678
 4657POPC   C3B59013   6.496  17.274   6.947
 4657POPC   C4B59014   6.509  17.223   7.378
 4658POPC   NC359015  21.240  37.359   5.452
 4658POPC   PO459016  21.288  37.991   5.501
 4658POPC   GL159017  21.630  37.731   5.733
 4658POPC   GL259018  21.786  37.939   5.984
 4658POPC   C1A59019  21.763  37.434   6.095
 4658POPC   D2A59020  21.653  37.222   6.495
 4658POPC   C3A59021  21.635  37.395   6.918
 4658POPC   C4A59022  21.381  37.560   7.225
 4658POPC   C1B59023  21.381  37.747   6.198
 4658POPC   C2B59024  21.250  37.556   6.602
 4658POPC   C3B59025  21.019  37.772   6.951
 4658POPC   C4B59026  21.014  37.861   7.396
 4659POPC   NC359027  31.058  31.866   5.354
 4659POPC   PO459028  30.820  31.311   5.540
 4659POPC   GL159029  30.835  31.440   5.931
 4659POPC   GL259030  30.847  31.779   5.849
 4659POPC   C1A59031  30.948  31.331   6.367
 4659POPC   D2A59032  30.649  31.286   6.721
 4659POPC   C3A59033  30.791  31.159   7.133
 4659POPC   C4A59034  30.888  30.997   7.559
 4659POPC   C1B59035  30.717  31.768   6.281
 4659POPC   C2B59036  30.883  31.745   6.673
 4659POPC   C3B59037  30.698  31.685   7.061
 4659POPC   C4B59038  30.753  31.918   7.448
 4660POPC   NC359039  22.488  34.457   5.342
 4660POPC   PO459040  21.938  34.747   5.253
 4660POPC   GL159041  22.154  34.683   5.662
 4660POPC   GL259042  21.978  34.371   5.790
 4660POPC   C1A59043  22.308  34.648   6.100
 4660POPC   D2A59044  22.131  34.649   6.515
 4660POPC   C3A59045  22.353  34.554   6.896
 4660POPC   C4A59046  22.154  34.658   7.252
 4660POPC   C1B59047  21.794  34.234   6.204
 4660POPC   C2B59048  21.730  34.338   6.652
 4660POPC   C3B59049  21.965  34.206   7.008
 4660POPC   C4B59050  22.306  34.149   7.268
 4661POPC   NC359051  26.812  37.119   5.420
 4661POPC   PO459052  26.399  36.562   5.394
 4661POPC   GL159053  26.610  36.750   5.788
 4661POPC   GL259054  26.967  36.806   5.796
 4661POPC   C1A59055  26.724  36.874   6.254
 4661POPC   D2A59056  26.577  37.048   6.650
 4661POPC   C3A59057  26.676  36.744   6.940
 4661POPC   C4A59058  26.863  36.825   7.293
 4661POPC   C1B59059  27.139  37.126   6.108
 4661POPC   C2B59060  26.983  37.336   6.490
 4661POPC   C3B59061  27.033  37.193   6.917
 4661POPC   C4B59062  26.974  37.306   7.325
 4662POPC   NC359063  16.396  21.243   5.321
 4662POPC   PO459064  16.898  21.670   5.477
 4662POPC   GL159065  16.682  21.649   5.892
 4662POPC   GL259066  16.541  21.306   5.923
 4662POPC   C1A59067  16.718  21.770   6.321
 4662POPC   D2A59068  17.026  21.528   6.570
 4662POPC   C3A59069  16.782  21.303   6.889
 4662POPC   C4A59070  16.509  21.618   7.073
 4662POPC   C1B59071  16.545  21.308   6.410
 4662POPC   C2B59072  16.246  21.254   6.748
 4662POPC   C3B59073  16.299  21.044   7.120
 4662POPC   C4B59074  16.626  21.221   7.397
 4663POPC   NC359075   0.155  40.592   5.534
 4663POPC   PO459076   0.340  40.045   5.130
 4663POPC   GL159077   0.426  40.126   5.633
 4663POPC   GL259078   0.338  39.839   5.880
 4663POPC   C1A59079   0.609  40.244   6.082
 4663POPC   D2A59080   0.569  40.111   6.549
 4663POPC   C3A59081   0.602  40.283   6.989
 4663POPC   C4A59082   0.520  40.145   7.437
 4663POPC   C1B59083   0.141  39.697   6.256
 4663POPC   C2B59084   0.354  39.631   6.669
 4663POPC   C3B59085   0.450  39.775   7.100
 4663POPC   C4B59086   0.235  39.750   7.568
 4664POPC   NC359087  21.323  20.271   5.643
 4664POPC   PO459088  21.354  19.673   5.340
 4664POPC   GL159089  21.485  19.781   5.740
 4664POPC   GL259090  21.182  19.696   5.858
 4664POPC   C1A59091  21.457  19.931   6.201
 4664POPC   D2A59092  21.428  19.746   6.596
 4664POPC   C3A59093  21.323  19.942   6.977
 4664POPC   C4A59094  21.336  19.928   7.379
 4664POPC   C1B59095  21.077  19.528   6.293
 4664POPC   C2B59096  21.052  19.405   6.746
 4664POPC   C3B59097  21.065  19.535   7.192
 4664POPC   C4B59098  21.018  19.651   7.663
 4665POPC   NC359099  42.890   5.113   5.390
 4665POPC   PO459100  42.320   4.681   5.182
 4665POPC   GL159101  42.512   4.779   5.603
 4665POPC   GL259102  42.414   5.128   5.642
 4665POPC   C1A59103  42.506   4.834   6.093
 4665POPC   D2A59104  42.438   4.784   6.589
 4665POPC   C3A59105  42.088   4.880   6.906
 4665POPC   C4A59106  41.914   5.185   7.189
 4665POPC   C1B59107  42.361   5.335   6.030
 4665POPC   C2B59108  42.534   5.266   6.443
 4665POPC   C3B59109  42.433   5.270   6.857
 4665POPC   C4B59110  42.437   5.213   7.261
 4666POPC   NC359111  32.392  14.176   5.277
 4666POPC   PO459112  32.609  14.749   5.199
 4666POPC   GL159113  32.419  14.537   5.634
 4666POPC   GL259114  32.135  14.291   5.716
 4666POPC   C1A59115  32.378  14.551   6.118
 4666POPC   D2A59116  32.047  14.664   6.436
 4666POPC   C3A59117  32.120  14.625   6.872
 4666POPC   C4A59118  31.996  14.469   7.263
 4666POPC   C1B59119  31.987  14.235   6.180
 4666POPC   C2B59120  32.175  14.168   6.615
 4666POPC   C3B59121  32.068  14.012   7.029
 4666POPC   C4B59122  32.148  14.023   7.468
 4667POPC   NC359123  26.006  13.273   5.410
 4667POPC   PO459124  25.997  12.658   5.313
 4667POPC   GL159125  25.955  12.642   5.783
 4667POPC   GL259126  26.050  13.003   5.867
 4667POPC   C1A59127  26.138  12.663   6.241
 4667POPC   D2A59128  26.089  12.885   6.641
 4667POPC   C3A59129  26.284  12.738   6.992
 4667POPC   C4A59130  26.137  12.804   7.382
 4667POPC   C1B59131  26.210  13.212   6.267
 4667POPC   C2B59132  26.171  13.390   6.712
 4667POPC   C3B59133  26.034  13.272   7.110
 4667POPC   C4B59134  26.179  13.305   7.547
 4668POPC   NC359135  41.550  14.103   5.539
 4668POPC   PO459136  41.263  14.611   5.500
 4668POPC   GL159137  41.317  14.423   5.876
 4668POPC   GL259138  41.072  14.168   5.974
 4668POPC   C1A59139  41.571  14.533   6.215
 4668POPC   D2A59140  41.620  14.750   6.553
 4668POPC   C3A59141  41.625  14.508   6.903
 4668POPC   C4A59142  41.532  14.660   7.259
 4668POPC   C1B59143  41.101  14.373   6.331
 4668POPC   C2B59144  41.173  14.560   6.696
 4668POPC   C3B59145  41.041  14.582   7.090
 4668POPC   C4B59146  41.153  14.369   7.477
 4669POPC   NC359147   6.444  20.967   5.148
 4669POPC   PO459148   6.622  21.513   5.395
 4669POPC   GL159149   6.904  21.331   5.764
 4669POPC   GL259150   6.829  20.993   5.862
 4669POPC   C1A59151   6.781  21.372   6.227
 4669POPC   D2A59152   6.633  21.307   6.663
 4669POPC   C3A59153   6.563  21.593   7.029
 4669POPC   C4A59154   6.344  21.490   7.435
 4669POPC   C1B59155   7.177  21.026   6.172
 4669POPC   C2B59156   7.155  21.225   6.580
 4669POPC   C3B59157   7.019  21.335   6.984
 4669POPC   C4B59158   7.165  21.130   7.334
 4670POPC   NC359159  42.034   8.909   5.407
 4670POPC   PO459160  41.506   9.239   5.486
 4670POPC   GL159161  41.522   8.896   5.835
 4670POPC   GL259162  41.874   8.739   5.894
 4670POPC   C1A59163  41.542   8.888   6.298
 4670POPC   D2A59164  41.820   9.154   6.560
 4670POPC   C3A59165  41.694   9.201   6.978
 4670POPC   C4A59166  41.431   9.229   7.335
 4670POPC   C1B59167  42.037   8.748   6.308
 4670POPC   C2B59168  42.144   8.726   6.727
 4670POPC   C3B59169  41.905   8.744   7.076
 4670POPC   C4B59170  41.443   8.776   7.122
 4671POPC   NC359171  20.790  24.030   5.626
 4671POPC   PO459172  21.413  23.823   5.452
 4671POPC   GL159173  21.165  23.734   5.823
 4671POPC   GL259174  20.927  23.452   5.802
 4671POPC   C1A59175  21.181  23.944   6.218
 4671POPC   D2A59176  21.437  23.844   6.546
 4671POPC   C3A59177  21.402  23.978   6.948
 4671POPC   C4A59178  21.363  23.575   7.125
 4671POPC   C1B59179  21.106  23.419   6.252
 4671POPC   C2B59180  21.085  23.269   6.709
 4671POPC   C3B59181  20.745  23.353   7.013
 4671POPC   C4B59182  20.905  23.523   7.356
 4672POPC   NC359183   2.631   1.596   5.171
 4672POPC   PO459184   2.799   2.242   5.387
 4672POPC   GL159185   2.764   2.184   5.849
 4672POPC   GL259186   2.517   2.431   5.896
 4672POPC   C1A59187   2.833   1.933   6.269
 4672POPC   D2A59188   2.945   1.656   6.627
 4672POPC   C3A59189   2.966   1.701   7.073
 4672POPC   C4A59190   3.066   1.381   7.426
 4672POPC   C1B59191   2.584   2.365   6.323
 4672POPC   C2B59192   2.644   2.231   6.728
 4672POPC   C3B59193   2.748   2.167   7.130
 4672POPC   C4B59194   3.000   2.410   7.384
 4673POPC   NC359195  39.493  18.892   5.032
 4673POPC   PO459196  39.448  18.319   5.415
 4673POPC   GL159197  39.497  18.297   5.838
 4673POPC   GL259198  39.127  18.197   5.872
 4673POPC   C1A59199  39.475  18.391   6.280
 4673POPC   D2A59200  39.238  18.232   6.625
 4673POPC   C3A59201  39.435  18.309   7.032
 4673POPC   C4A59202  39.320  18.441   7.443
 4673POPC   C1B59203  38.817  17.957   6.154
 4673POPC   C2B59204  38.778  17.929   6.619
 4673POPC   C3B59205  39.038  17.957   7.007
 4673POPC   C4B59206  38.993  18.033   7.441
 4674POPC   NC359207  38.130   1.401   5.122
 4674POPC   PO459208  38.541   0.997   5.517
 4674POPC   GL159209  38.484   1.213   5.926
 4674POPC   GL259210  38.416   1.548   5.813
 4674POPC   C1A59211  38.597   1.135   6.368
 4674POPC   D2A59212  38.738   0.900   6.718
 4674POPC   C3A59213  38.498   1.102   6.995
 4674POPC   C4A59214  38.196   1.049   7.228
 4674POPC   C1B59215  38.220   1.557   6.229
 4674POPC   C2B59216  38.245   1.418   6.668
 4674POPC   C3B59217  38.076   1.525   7.079
 4674POPC   C4B59218  37.943   1.388   7.504
 4675POPC   NC359219  44.268  40.960   5.439
 4675POPC   PO459220  44.754  40.512   5.174
 4675POPC   GL159221  44.721  40.828   5.594
 4675POPC   GL259222  44.961  41.108   5.543
 4675POPC   C1A59223  44.568  40.819   6.074
 4675POPC   D2A59224  44.738  40.549   6.429
 4675POPC   C3A59225  44.591  40.679   6.823
 4675POPC   C4A59226  44.520  40.489   7.204
 4675POPC   C1B59227   0.003  41.045   5.984
 4675POPC   C2B59228  44.986  41.003   6.450
 4675POPC   C3B59229   0.017  41.101   6.890
 4675POPC   C4B59230  44.867  40.861   7.238
 4676POPC   NC359231  36.047  44.898   5.466
 4676POPC   PO459232  36.530  44.390   5.408
 4676POPC   GL159233  36.395  44.489   5.853
 4676POPC   GL259234  36.451  44.847   5.781
 4676POPC   C1A59235  36.090  44.384   6.269
 4676POPC   D2A59236  35.904  44.359   6.746
 4676POPC   C3A59237  36.016  44.568   7.141
 4676POPC   C4A59238  36.240  44.434   7.522
 4676POPC   C1B59239  36.242  44.859   6.183
 4676POPC   C2B59240  36.202  44.762   6.634
 4676POPC   C3B59241  36.480  44.688   6.985
 4676POPC   C4B59242  36.324  44.901   7.358
 4677POPC   NC359243   1.718   5.857   5.250
 4677POPC   PO459244   2.239   6.133   5.387
 4677POPC   GL159245   2.008   5.967   5.764
 4677POPC   GL259246   1.800   5.644   5.747
 4677POPC   C1A59247   2.146   5.954   6.196
 4677POPC   D2A59248   2.055   5.723   6.559
 4677POPC   C3A59249   2.145   5.917   6.937
 4677POPC   C4A59250   2.016   5.721   7.302
 4677POPC   C1B59251   1.669   5.770   6.172
 4677POPC   C2B59252   1.540   5.724   6.593
 4677POPC   C3B59253   1.686   5.527   6.947
 4677POPC   C4B59254   1.513   5.606   7.344
 4678POPC   NC359255   4.775  34.125   5.412
 4678POPC   PO459256   5.252  33.687   5.469
 4678POPC   GL159257   5.125  33.965   5.809
 4678POPC   GL259258   5.410  34.116   5.954
 4678POPC   C1A59259   4.997  33.794   6.236
 4678POPC   D2A59260   5.148  33.458   6.551
 4678POPC   C3A59261   5.039  33.486   6.991
 4678POPC   C4A59262   4.856  33.823   7.212
 4678POPC   C1B59263   5.334  34.152   6.387
 4678POPC   C2B59264   5.103  33.972   6.734
 4678POPC   C3B59265   5.317  33.928   7.100
 4678POPC   C4B59266   5.656  33.993   7.292
 4679POPC   NC359267   9.974  13.266   5.423
 4679POPC   PO459268   9.636  12.683   5.270
 4679POPC   GL159269   9.603  12.911   5.642
 4679POPC   GL259270   9.468  12.615   5.804
 4679POPC   C1A59271   9.687  13.071   6.069
 4679POPC   D2A59272   9.789  12.870   6.461
 4679POPC   C3A59273   9.730  13.005   6.897
 4679POPC   C4A59274   9.787  12.768   7.257
 4679POPC   C1B59275   9.269  12.775   6.164
 4679POPC   C2B59276   9.314  12.876   6.609
 4679POPC   C3B59277   9.338  12.676   7.009
 4679POPC   C4B59278   9.373  12.509   7.417
 4680POPC   NC359279  36.549  24.733   5.493
 4680POPC   PO459280  35.941  24.350   5.449
 4680POPC   GL159281  36.265  24.409   5.777
 4680POPC   GL259282  36.071  24.661   5.853
 4680POPC   C1A59283  36.351  24.506   6.233
 4680POPC   D2A59284  36.125  24.462   6.636
 4680POPC   C3A59285  36.366  24.517   7.037
 4680POPC   C4A59286  36.340  24.451   7.492
 4680POPC   C1B59287  35.755  24.760   6.167
 4680POPC   C2B59288  35.667  24.697   6.621
 4680POPC   C3B59289  35.948  24.817   6.982
 4680POPC   C4B59290  36.003  24.820   7.447
 4681POPC   NC359291   4.681  10.692   5.614
 4681POPC   PO459292   4.135  10.313   5.557
 4681POPC   GL159293   4.309  10.502   5.911
 4681POPC   GL259294   4.036  10.710   5.935
 4681POPC   C1A59295   4.558  10.381   6.257
 4681POPC   D2A59296   4.393  10.408   6.627
 4681POPC   C3A59297   4.437  10.470   7.023
 4681POPC   C4A59298   4.071  10.346   7.233
 4681POPC   C1B59299   3.976  10.545   6.340
 4681POPC   C2B59300   4.055  10.787   6.727
 4681POPC   C3B59301   3.919  10.828   7.151
 4681POPC   C4B59302   3.757  10.820   7.558
 4682POPC   NC359303  11.121  43.210   5.393
 4682POPC   PO459304  11.637  42.814   5.530
 4682POPC   GL159305  11.469  43.082   5.876
 4682POPC   GL259306  11.268  43.388   5.850
 4682POPC   C1A59307  11.386  43.190   6.323
 4682POPC   D2A59308  11.600  43.040   6.657
 4682POPC   C3A59309  11.466  42.847   7.039
 4682POPC   C4A59310  11.176  43.093   7.281
 4682POPC   C1B59311  11.116  43.609   6.217
 4682POPC   C2B59312  11.260  43.584   6.657
 4682POPC   C3B59313  11.017  43.556   7.047
 4682POPC   C4B59314  11.021  43.540   7.513
 4683POPC   NC359315  31.099  21.433   5.242
 4683POPC   PO459316  30.442  21.072   5.352
 4683POPC   GL159317  30.702  21.218   5.707
 4683POPC   GL259318  30.679  21.563   5.879
 4683POPC   C1A59319  30.792  21.143   6.143
 4683POPC   D2A59320  30.741  21.422   6.484
 4683POPC   C3A59321  30.768  21.169   6.820
 4683POPC   C4A59322  30.774  21.266   7.229
 4683POPC   C1B59323  30.347  21.440   6.143
 4683POPC   C2B59324  30.236  21.424   6.575
 4683POPC   C3B59325  30.340  21.422   7.002
 4683POPC   C4B59326  30.358  21.537   7.433
 4684POPC   NC359327  11.850  27.550   5.528
 4684POPC   PO459328  12.430  27.717   5.081
 4684POPC   GL159329  12.337  27.706   5.631
 4684POPC   GL259330  12.371  27.433   5.885
 4684POPC   C1A59331  12.217  27.857   6.113
 4684POPC   D2A59332  12.049  27.676   6.530
 4684POPC   C3A59333  11.976  27.882   6.945
 4684POPC   C4A59334  11.985  27.690   7.382
 4684POPC   C1B59335  12.189  27.205   6.249
 4684POPC   C2B59336  12.116  27.160   6.698
 4684POPC   C3B59337  12.303  27.469   6.964
 4684POPC   C4B59338  12.483  27.451   7.353
 4685POPC   NC359339  26.232  21.595   5.465
 4685POPC   PO459340  26.087  22.261   5.478
 4685POPC   GL159341  26.029  22.158   5.877
 4685POPC   GL259342  26.297  21.921   5.875
 4685POPC   C1A59343  26.013  22.416   6.247
 4685POPC   D2A59344  26.262  22.479   6.593
 4685POPC   C3A59345  26.067  22.370   6.995
 4685POPC   C4A59346  25.792  22.047   7.164
 4685POPC   C1B59347  26.405  22.050   6.276
 4685POPC   C2B59348  26.084  21.982   6.544
 4685POPC   C3B59349  26.045  21.731   6.869
 4685POPC   C4B59350  26.244  21.775   7.242
 4686POPC   NC359351  25.705  44.824   5.663
 4686POPC   PO459352  26.209  44.398   5.374
 4686POPC   GL159353  26.162  44.481   5.791
 4686POPC   GL259354  25.839  44.346   5.862
 4686POPC   C1A59355  26.258  44.862   6.030
 4686POPC   D2A59356  26.117  44.968   6.438
 4686POPC   C3A59357  26.329  44.971   6.821
 4686POPC   C4A59358  26.081  44.884   7.191
 4686POPC   C1B59359  25.965  44.485   6.288
 4686POPC   C2B59360  25.954  44.586   6.747
 4686POPC   C3B59361  25.976  44.392   7.131
 4686POPC   C4B59362  25.727  44.350   7.515
 4687POPC   NC359363  19.485  34.818   5.389
 4687POPC   PO459364  20.195  34.713   5.473
 4687POPC   GL159365  19.856  34.775   5.743
 4687POPC   GL259366  20.030  34.996   5.900
 4687POPC   C1A59367  19.690  34.686   6.163
 4687POPC   D2A59368  19.555  34.478   6.564
 4687POPC   C3A59369  19.646  34.633   6.945
 4687POPC   C4A59370  19.750  34.344   7.233
 4687POPC   C1B59371  20.205  34.769   6.224
 4687POPC   C2B59372  20.040  34.651   6.611
 4687POPC   C3B59373  20.170  34.580   7.041
 4687POPC   C4B59374  19.942  34.803   7.348
 4688POPC   NC359375   6.476  17.129   5.506
 4688POPC   PO459376   6.212  16.530   5.497
 4688POPC   GL159377   6.538  16.577   5.840
 4688POPC   GL259378   6.684  16.928   5.913
 4688POPC   C1A59379   6.693  16.586   6.275
 4688POPC   D2A59380   6.565  16.877   6.575
 4688POPC   C3A59381   6.710  16.811   6.987
 4688POPC   C4A59382   6.658  16.414   7.156
 4688POPC   C1B59383   6.319  17.105   6.179
 4688POPC   C2B59384   6.122  17.177   6.585
 4688POPC   C3B59385   6.165  16.864   6.901
 4688POPC   C4B59386   6.288  16.804   7.294
 4689POPC   NC359387  25.994  31.495   5.337
 4689POPC   PO459388  26.125  30.874   5.217
 4689POPC   GL159389  26.159  31.152   5.673
 4689POPC   GL259390  25.845  31.304   5.793
 4689POPC   C1A59391  26.244  31.320   6.141
 4689POPC   D2A59392  26.353  31.458   6.630
 4689POPC   C3A59393  26.276  31.282   7.085
 4689POPC   C4A59394  25.922  31.203   7.353
 4689POPC   C1B59395  25.784  31.550   6.168
 4689POPC   C2B59396  25.673  31.525   6.610
 4689POPC   C3B59397  25.900  31.599   6.987
 4689POPC   C4B59398  26.301  31.780   7.172
 4690POPC   NC359399  32.089  21.423   5.382
 4690POPC   PO459400  32.674  21.127   5.483
 4690POPC   GL159401  32.363  21.277   5.820
 4690POPC   GL259402  32.068  21.087   5.922
 4690POPC   C1A59403  32.303  21.571   6.201
 4690POPC   D2A59404  32.410  21.832   6.603
 4690POPC   C3A59405  32.306  21.684   7.043
 4690POPC   C4A59406  32.260  21.668   7.515
 4690POPC   C1B59407  32.091  21.103   6.376
 4690POPC   C2B59408  32.140  21.230   6.816
 4690POPC   C3B59409  32.196  21.199   7.277
 4690POPC   C4B59410  32.042  21.112   7.745
 4691POPC   NC359411  33.102   7.368   5.171
 4691POPC   PO459412  32.704   7.468   5.722
 4691POPC   GL159413  33.002   7.342   6.038
 4691POPC   GL259414  33.285   7.550   6.174
 4691POPC   C1A59415  32.918   7.284   6.447
 4691POPC   D2A59416  33.063   7.572   6.704
 4691POPC   C3A59417  33.164   7.381   7.037
 4691POPC   C4A59418  33.391   7.498   7.350
 4691POPC   C1B59419  32.917   7.802   6.268
 4691POPC   C2B59420  32.577   7.701   6.524
 4691POPC   C3B59421  32.667   7.828   6.928
 4691POPC   C4B59422  32.819   7.672   7.287
 4692POPC   NC359423  20.401   9.572   5.573
 4692POPC   PO459424  20.908   9.928   5.351
 4692POPC   GL159425  20.697  10.017   5.755
 4692POPC   GL259426  20.738   9.706   5.935
 4692POPC   C1A59427  20.683  10.113   6.207
 4692POPC   D2A59428  20.730   9.878   6.556
 4692POPC   C3A59429  20.586  10.055   6.931
 4692POPC   C4A59430  20.387   9.701   7.104
 4692POPC   C1B59431  20.424   9.614   6.233
 4692POPC   C2B59432  20.205   9.520   6.596
 4692POPC   C3B59433  20.263   9.235   6.934
 4692POPC   C4B59434  20.373   9.271   7.377
 4693POPC   NC359435  16.779  34.806   5.425
 4693POPC   PO459436  16.711  34.127   5.526
 4693POPC   GL159437  16.738  34.481   5.826
 4693POPC   GL259438  17.043  34.717   5.853
 4693POPC   C1A59439  16.547  34.591   6.215
 4693POPC   D2A59440  16.388  34.364   6.583
 4693POPC   C3A59441  16.518  34.488   6.996
 4693POPC   C4A59442  16.485  34.281   7.398
 4693POPC   C1B59443  16.911  34.963   6.221
 4693POPC   C2B59444  16.737  34.849   6.627
 4693POPC   C3B59445  16.919  34.812   7.040
 4693POPC   C4B59446  16.926  34.527   7.408
 4694POPC   NC359447  11.354  15.077   5.337
 4694POPC   PO459448  11.057  15.684   5.447
 4694POPC   GL159449  11.075  15.369   5.807
 4694POPC   GL259450  11.021  14.984   5.771
 4694POPC   C1A59451  11.259  15.189   6.213
 4694POPC   D2A59452  11.242  14.907   6.599
 4694POPC   C3A59453  11.453  15.011   7.015
 4694POPC   C4A59454  11.558  15.349   7.325
 4694POPC   C1B59455  10.760  15.087   6.172
 4694POPC   C2B59456  10.715  14.976   6.605
 4694POPC   C3B59457  10.899  15.023   6.989
 4694POPC   C4B59458  10.844  14.821   7.358
 4695POPC   NC359459  44.414  34.101   5.326
 4695POPC   PO459460  44.568  33.423   5.515
 4695POPC   GL159461  44.620  33.634   5.906
 4695POPC   GL259462  44.884  33.855   5.875
 4695POPC   C1A59463  44.540  33.610   6.375
 4695POPC   D2A59464  44.744  33.456   6.737
 4695POPC   C3A59465  44.554  33.660   7.111
 4695POPC   C4A59466  44.387  33.931   7.442
 4695POPC   C1B59467  44.839  34.009   6.297
 4695POPC   C2B59468  44.790  33.955   6.735
 4695POPC   C3B59469  44.892  34.073   7.145
 4695POPC   C4B59470  44.766  34.262   7.552
 4696POPC   NC359471  21.823  23.582   5.479
 4696POPC   PO459472  22.410  23.889   5.424
 4696POPC   GL159473  22.215  23.747   5.821
 4696POPC   GL259474  21.878  23.934   5.832
 4696POPC   C1A59475  22.391  23.569   6.237
 4696POPC   D2A59476  22.658  23.534   6.622
 4696POPC   C3A59477  22.511  23.770   6.977
 4696POPC   C4A59478  22.296  23.696   7.355
 4696POPC   C1B59479  21.892  23.712   6.248
 4696POPC   C2B59480  22.075  23.636   6.681
 4696POPC   C3B59481  21.875  23.769   7.083
 4696POPC   C4B59482  21.754  23.664   7.536
 4697POPC   NC359483  12.283   7.058   5.257
 4697POPC   PO459484  11.860   6.637   5.420
 4697POPC   GL159485  11.995   6.850   5.785
 4697POPC   GL259486  12.350   6.956   5.759
 4697POPC   C1A59487  11.932   6.750   6.243
 4697POPC   D2A59488  11.870   6.878   6.675
 4697POPC   C3A59489  11.768   6.635   7.073
 4697POPC   C4A59490  12.016   6.673   7.460
 4697POPC   C1B59491  12.425   6.923   6.186
 4697POPC   C2B59492  12.372   6.814   6.607
 4697POPC   C3B59493  12.274   6.781   7.025
 4697POPC   C4B59494  12.449   6.999   7.342
 4698POPC   NC359495  19.561  28.029   5.527
 4698POPC   PO459496  20.039  27.561   5.368
 4698POPC   GL159497  19.726  27.561   5.672
 4698POPC   GL259498  19.511  27.266   5.668
 4698POPC   C1A59499  19.770  27.599   6.088
 4698POPC   D2A59500  20.039  27.419   6.388
 4698POPC   C3A59501  19.950  27.546   6.777
 4698POPC   C4A59502  19.916  27.513   7.185
 4698POPC   C1B59503  19.355  27.312   6.126
 4698POPC   C2B59504  19.471  27.464   6.562
 4698POPC   C3B59505  19.440  27.618   7.032
 4698POPC   C4B59506  19.508  27.387   7.477
 4699POPC   NC359507  35.991  27.798   5.374
 4699POPC   PO459508  36.319  27.188   5.497
 4699POPC   GL159509  36.101  27.512   5.825
 4699POPC   GL259510  36.024  27.893   5.858
 4699POPC   C1A59511  36.104  27.613   6.308
 4699POPC   D2A59512  35.972  27.347   6.681
 4699POPC   C3A59513  36.281  27.322   7.021
 4699POPC   C4A59514  36.312  27.546   7.399
 4699POPC   C1B59515  36.096  28.124   6.204
 4699POPC   C2B59516  35.943  28.081   6.585
 4699POPC   C3B59517  36.051  27.822   6.885
 4699POPC   C4B59518  36.004  27.960   7.272
 4700POPC   NC359519  14.081  34.473   5.467
 4700POPC   PO459520  14.520  34.928   5.257
 4700POPC   GL159521  14.528  34.792   5.717
 4700POPC   GL259522  14.508  34.425   5.800
 4700POPC   C1A59523  14.334  34.762   6.155
 4700POPC   D2A59524  14.229  34.542   6.569
 4700POPC   C3A59525  14.192  34.761   6.975
 4700POPC   C4A59526  14.098  34.522   7.348
 4700POPC   C1B59527  14.550  34.272   6.238
 4700POPC   C2B59528  14.747  34.462   6.571
 4700POPC   C3B59529  14.705  34.726   6.888
 4700POPC   C4B59530  14.589  34.572   7.259
 4701POPC   NC359531  23.135  22.007   5.385
 4701POPC   PO459532  22.519  21.817   5.437
 4701POPC   GL159533  22.792  22.054   5.769
 4701POPC   GL259534  23.095  22.291   5.824
 4701POPC   C1A59535  22.997  21.951   6.166
 4701POPC   D2A59536  23.058  22.183   6.542
 4701POPC   C3A59537  22.920  21.929   6.895
 4701POPC   C4A59538  22.884  21.994   7.284
 4701POPC   C1B59539  22.731  22.388   6.152
 4701POPC   C2B59540  22.691  22.577   6.556
 4701POPC   C3B59541  22.828  22.424   6.948
 4701POPC   C4B59542  22.717  22.485   7.333
 4702POPC   NC359543  18.871  21.877   5.638
 4702POPC   PO459544  19.146  22.202   5.120
 4702POPC   GL159545  19.180  22.274   5.691
 4702POPC   GL259546  19.468  22.417   5.659
 4702POPC   C1A59547  19.067  22.172   6.170
 4702POPC   D2A59548  18.824  22.133   6.584
 4702POPC   C3A59549  18.962  21.920   6.950
 4702POPC   C4A59550  18.795  22.001   7.365
 4702POPC   C1B59551  19.559  22.462   6.119
 4702POPC   C2B59552  19.670  22.458   6.567
 4702POPC   C3B59553  19.428  22.491   6.932
 4702POPC   C4B59554  19.221  22.260   7.274
 4703POPC   NC359555  30.077  19.259   5.550
 4703POPC   PO459556  30.029  18.665   5.710
 4703POPC   GL159557  29.824  18.940   5.956
 4703POPC   GL259558  30.098  18.861   6.194
 4703POPC   C1A59559  29.612  18.928   6.358
 4703POPC   D2A59560  29.901  18.784   6.702
 4703POPC   C3A59561  29.771  18.882   7.106
 4703POPC   C4A59562  29.604  19.273   7.189
 4703POPC   C1B59563  30.007  19.233   6.425
 4703POPC   C2B59564  30.071  19.282   6.889
 4703POPC   C3B59565  30.270  18.950   7.150
 4703POPC   C4B59566  30.110  18.748   7.570
 4704POPC   NC359567  37.389   5.703   5.397
 4704POPC   PO459568  37.990   6.087   5.471
 4704POPC   GL159569  37.912   5.907   5.851
 4704POPC   GL259570  37.588   5.746   5.856
 4704POPC   C1A59571  37.819   5.956   6.260
 4704POPC   D2A59572  37.569   5.722   6.498
 4704POPC   C3A59573  37.620   5.949   6.853
 4704POPC   C4A59574  37.877   5.857   7.179
 4704POPC   C1B59575  37.347   6.018   6.132
 4704POPC   C2B59576  37.464   6.280   6.467
 4704POPC   C3B59577  37.308   6.355   6.851
 4704POPC   C4B59578  37.569   6.328   7.198
 4705POPC   NC359579  12.071  42.903   5.438
 4705POPC   PO459580  12.185  42.159   5.399
 4705POPC   GL159581  12.038  42.438   5.762
 4705POPC   GL259582  11.980  42.776   5.916
 4705POPC   C1A59583  12.045  42.383   6.231
 4705POPC   D2A59584  12.257  42.372   6.634
 4705POPC   C3A59585  12.033  42.137   6.943
 4705POPC   C4A59586  12.173  42.198   7.356
 4705POPC   C1B59587  11.652  42.725   6.226
 4705POPC   C2B59588  11.718  42.537   6.635
 4705POPC   C3B59589  11.946  42.638   7.010
 4705POPC   C4B59590  11.734  42.500   7.380
 4706POPC   NC359591  27.754  18.593   5.396
 4706POPC   PO459592  27.294  18.088   5.281
 4706POPC   GL159593  27.358  18.357   5.691
 4706POPC   GL259594  27.124  18.258   5.959
 4706POPC   C1A59595  27.607  18.392   6.121
 4706POPC   D2A59596  27.711  18.239   6.577
 4706POPC   C3A59597  27.873  18.358   7.006
 4706POPC   C4A59598  27.740  18.206   7.426
 4706POPC   C1B59599  27.206  18.365   6.425
 4706POPC   C2B59600  27.410  18.585   6.787
 4706POPC   C3B59601  27.275  18.290   7.105
 4706POPC   C4B59602  27.218  17.993   7.454
 4707POPC   NC359603  10.412  36.227   5.181
 4707POPC   PO459604  10.645  36.823   5.524
 4707POPC   GL159605  10.474  36.423   5.738
 4707POPC   GL259606  10.535  36.074   5.665
 4707POPC   C1A59607  10.429  36.307   6.181
 4707POPC   D2A59608  10.564  36.394   6.619
 4707POPC   C3A59609  10.297  36.507   6.995
 4707POPC   C4A59610  10.440  36.286   7.366
 4707POPC   C1B59611  10.500  35.810   6.063
 4707POPC   C2B59612  10.562  35.875   6.507
 4707POPC   C3B59613  10.394  35.991   6.900
 4707POPC   C4B59614  10.499  35.755   7.234
 4708POPC   NC359615  28.923  39.497   5.542
 4708POPC   PO459616  29.320  38.958   5.307
 4708POPC   GL159617  29.351  39.156   5.724
 4708POPC   GL259618  29.034  39.153   5.907
 4708POPC   C1A59619  29.420  39.382   6.131
 4708POPC   D2A59620  29.219  39.419   6.518
 4708POPC   C3A59621  29.369  39.378   6.947
 4708POPC   C4A59622  29.136  39.465   7.332
 4708POPC   C1B59623  28.935  38.949   6.304
 4708POPC   C2B59624  28.913  39.060   6.736
 4708POPC   C3B59625  28.797  39.042   7.163
 4708POPC   C4B59626  28.864  38.665   7.415
 4709POPC   NC359627  30.665  11.026   5.284
 4709POPC   PO459628  30.971  11.647   5.404
 4709POPC   GL159629  30.827  11.351   5.702
 4709POPC   GL259630  30.998  11.033   5.674
 4709POPC   C1A59631  30.597  11.444   6.086
 4709POPC   D2A59632  30.430  11.273   6.440
 4709POPC   C3A59633  30.564  11.510   6.813
 4709POPC   C4A59634  30.722  11.448   7.211
 4709POPC   C1B59635  30.690  10.954   6.005
 4709POPC   C2B59636  30.789  10.870   6.440
 4709POPC   C3B59637  30.737  11.014   6.864
 4709POPC   C4B59638  30.996  10.985   7.239
 4710POPC   NC359639  30.354  17.378   5.389
 4710POPC   PO459640  29.681  17.614   5.308
 4710POPC   GL159641  29.768  17.643   5.774
 4710POPC   GL259642  30.147  17.685   5.814
 4710POPC   C1A59643  29.740  17.472   6.233
 4710POPC   D2A59644  29.890  17.235   6.610
 4710POPC   C3A59645  29.642  17.197   6.983
 4710POPC   C4A59646  29.760  17.487   7.281
 4710POPC   C1B59647  29.948  17.917   6.191
 4710POPC   C2B59648  30.011  17.794   6.602
 4710POPC   C3B59649  29.973  17.926   7.019
 4710POPC   C4B59650  30.220  17.780   7.326
 4711POPC   NC359651  31.483  11.518   5.391
 4711POPC   PO459652  31.445  10.841   5.518
 4711POPC   GL159653  31.553  11.205   5.816
 4711POPC   GL259654  31.304  11.446   5.851
 4711POPC   C1A59655  31.541  11.299   6.286
 4711POPC   D2A59656  31.350  11.038   6.608
 4711POPC   C3A59657  31.560  11.125   7.037
 4711POPC   C4A59658  31.722  11.462   7.319
 4711POPC   C1B59659  31.072  11.238   6.144
 4711POPC   C2B59660  30.943  11.370   6.510
 4711POPC   C3B59661  31.109  11.371   6.906
 4711POPC   C4B59662  31.202  11.454   7.334
 4712POPC   NC359663  25.574  20.174   5.378
 4712POPC   PO459664  26.175  20.499   5.240
 4712POPC   GL159665  26.086  20.427   5.682
 4712POPC   GL259666  26.195  20.098   5.716
 4712POPC   C1A59667  25.905  20.509   6.111
 4712POPC   D2A59668  25.786  20.765   6.470
 4712POPC   C3A59669  26.069  20.801   6.823
 4712POPC   C4A59670  26.014  20.832   7.237
 4712POPC   C1B59671  26.342  20.225   6.135
 4712POPC   C2B59672  26.191  20.392   6.523
 4712POPC   C3B59673  26.210  20.286   6.937
 4712POPC   C4B59674  25.885  20.364   7.207
 4713POPC   NC359675  29.674   0.139   5.551
 4713POPC   PO459676  30.107   0.686   5.414
 4713POPC   GL159677  29.909   0.759   5.819
 4713POPC   GL259678  29.640   0.545   5.856
 4713POPC   C1A59679  29.947   0.678   6.263
 4713POPC   D2A59680  30.197   0.702   6.660
 4713POPC   C3A59681  30.189   0.346   6.942
 4713POPC   C4A59682  30.144   0.275   7.385
 4713POPC   C1B59683  29.736   0.222   6.184
 4713POPC   C2B59684  29.780   0.295   6.614
 4713POPC   C3B59685  29.685   0.336   7.027
 4713POPC   C4B59686  29.824   0.735   7.131
 4714POPC   NC359687  25.116  36.854   5.407
 4714POPC   PO459688  25.715  36.617   5.163
 4714POPC   GL159689  25.561  36.734   5.668
 4714POPC   GL259690  25.342  36.982   5.830
 4714POPC   C1A59691  25.337  36.592   6.118
 4714POPC   D2A59692  24.990  36.779   6.377
 4714POPC   C3A59693  25.193  36.809   6.784
 4714POPC   C4A59694  25.306  36.926   7.220
 4714POPC   C1B59695  25.334  37.146   6.252
 4714POPC   C2B59696  25.255  37.296   6.671
 4714POPC   C3B59697  24.939  37.203   7.004
 4714POPC   C4B59698  24.866  37.079   7.455
 4715POPC   NC359699  34.286  12.558   5.558
 4715POPC   PO459700  34.554  13.195   5.523
 4715POPC   GL159701  34.677  13.109   5.940
 4715POPC   GL259702  34.416  12.846   5.981
 4715POPC   C1A59703  34.662  13.050   6.390
 4715POPC   D2A59704  34.386  12.782   6.618
 4715POPC   C3A59705  34.467  12.879   7.044
 4715POPC   C4A59706  34.709  13.224   7.198
 4715POPC   C1B59707  34.783  12.631   6.156
 4715POPC   C2B59708  34.982  12.672   6.578
 4715POPC   C3B59709  34.878  12.550   6.997
 4715POPC   C4B59710  34.863  12.670   7.430
 4716POPC   NC359711  29.368   5.385   5.351
 4716POPC   PO459712  28.910   4.852   5.448
 4716POPC   GL159713  29.135   4.982   5.776
 4716POPC   GL259714  29.060   5.319   5.772
 4716POPC   C1A59715  28.960   5.016   6.182
 4716POPC   D2A59716  28.792   5.080   6.554
 4716POPC   C3A59717  29.036   4.978   6.897
 4716POPC   C4A59718  28.908   5.274   7.212
 4716POPC   C1B59719  29.379   5.278   6.121
 4716POPC   C2B59720  29.272   5.285   6.525
 4716POPC   C3B59721  29.352   5.381   6.923
 4716POPC   C4B59722  29.426   5.102   7.233
 4717POPC   NC359723  44.342  30.341   5.636
 4717POPC   PO459724  44.846  30.667   5.361
 4717POPC   GL159725  44.721  30.685   5.830
 4717POPC   GL259726  44.759  30.348   5.948
 4717POPC   C1A59727  44.846  30.848   6.290
 4717POPC   D2A59728   0.135  30.918   6.690
 4717POPC   C3A59729  44.886  30.926   7.087
 4717POPC   C4A59730  44.491  30.712   7.180
 4717POPC   C1B59731  44.448  30.528   6.249
 4717POPC   C2B59732  44.497  30.551   6.675
 4717POPC   C3B59733  44.251  30.311   6.946
 4717POPC   C4B59734  44.067  30.421   7.301
 4718POPC   NC359735  26.674  36.202   5.402
 4718POPC   PO459736  27.348  36.115   5.312
 4718POPC   GL159737  27.005  35.948   5.681
 4718POPC   GL259738  26.884  36.287   5.841
 4718POPC   C1A59739  26.704  35.865   6.085
 4718POPC   D2A59740  26.788  35.875   6.554
 4718POPC   C3A59741  26.560  35.781   6.939
 4718POPC   C4A59742  26.848  35.874   7.281
 4718POPC   C1B59743  26.625  36.378   6.160
 4718POPC   C2B59744  26.736  36.394   6.556
 4718POPC   C3B59745  26.841  36.248   6.938
 4718POPC   C4B59746  26.708  36.361   7.317
 4719POPC   NC359747   3.218   8.089   5.332
 4719POPC   PO459748   3.768   8.428   5.504
 4719POPC   GL159749   3.596   8.140   5.838
 4719POPC   GL259750   3.369   7.906   5.773
 4719POPC   C1A59751   3.719   8.091   6.285
 4719POPC   D2A59752   3.923   8.275   6.679
 4719POPC   C3A59753   3.677   8.231   7.080
 4719POPC   C4A59754   3.653   8.351   7.564
 4719POPC   C1B59755   3.340   7.709   6.162
 4719POPC   C2B59756   3.392   7.828   6.579
 4719POPC   C3B59757   3.261   7.966   6.972
 4719POPC   C4B59758   3.433   7.927   7.416
 4720POPC   NC359759  43.239  19.506   5.686
 4720POPC   PO459760  42.621  19.640   5.527
 4720POPC   GL159761  42.849  19.897   5.825
 4720POPC   GL259762  43.221  20.009   5.826
 4720POPC   C1A59763  42.999  19.834   6.237
 4720POPC   D2A59764  43.229  19.853   6.548
 4720POPC   C3A59765  42.989  19.691   6.860
 4720POPC   C4A59766  42.960  19.809   7.266
 4720POPC   C1B59767  43.279  20.282   6.234
 4720POPC   C2B59768  43.436  20.286   6.691
 4720POPC   C3B59769  43.452  19.924   6.997
 4720POPC   C4B59770  43.446  19.832   7.424
 4721POPC   NC359771  27.798  27.778   5.441
 4721POPC   PO459772  27.287  27.418   5.250
 4721POPC   GL159773  27.330  27.653   5.664
 4721POPC   GL259774  27.649  27.543   5.860
 4721POPC   C1A59775  27.317  27.832   6.098
 4721POPC   D2A59776  27.452  27.751   6.545
 4721POPC   C3A59777  27.835  27.583   6.712
 4721POPC   C4A59778  27.902  27.530   7.162
 4721POPC   C1B59779  27.421  27.324   6.186
 4721POPC   C2B59780  27.333  27.277   6.606
 4721POPC   C3B59781  27.370  27.489   7.003
 4721POPC   C4B59782  27.333  27.164   7.287
 4722POPC   NC359783  15.807   2.713   5.404
 4722POPC   PO459784  16.220   3.284   5.360
 4722POPC   GL159785  16.075   3.006   5.755
 4722POPC   GL259786  15.812   2.730   5.902
 4722POPC   C1A59787  16.157   3.003   6.222
 4722POPC   D2A59788  16.341   2.796   6.616
 4722POPC   C3A59789  16.147   2.997   6.983
 4722POPC   C4A59790  15.766   2.867   7.183
 4722POPC   C1B59791  15.963   2.535   6.291
 4722POPC   C2B59792  15.822   2.620   6.715
 4722POPC   C3B59793  15.701   2.369   7.091
 4722POPC   C4B59794  15.772   2.445   7.550
 4723POPC   NC359795   9.359   4.831   5.069
 4723POPC   PO459796   9.052   5.379   5.289
 4723POPC   GL159797   9.047   5.144   5.697
 4723POPC   GL259798   9.075   5.420   5.862
 4723POPC   C1A59799   8.850   5.111   6.172
 4723POPC   D2A59800   8.656   5.079   6.575
 4723POPC   C3A59801   8.808   5.121   6.996
 4723POPC   C4A59802   8.766   4.838   7.325
 4723POPC   C1B59803   9.343   5.168   6.176
 4723POPC   C2B59804   9.442   5.018   6.609
 4723POPC   C3B59805   9.266   4.929   7.036
 4723POPC   C4B59806   9.264   5.053   7.466
 4724POPC   NC359807  17.684   2.673   5.407
 4724POPC   PO459808  17.030   2.700   5.343
 4724POPC   GL159809  17.327   2.498   5.720
 4724POPC   GL259810  17.460   2.849   5.850
 4724POPC   C1A59811  17.560   2.443   6.152
 4724POPC   D2A59812  17.523   2.725   6.499
 4724POPC   C3A59813  17.352   2.660   6.903
 4724POPC   C4A59814  17.534   2.723   7.283
 4724POPC   C1B59815  17.401   3.146   6.223
 4724POPC   C2B59816  17.596   3.276   6.629
 4724POPC   C3B59817  17.772   3.137   7.029
 4724POPC   C4B59818  17.779   3.128   7.479
 4725POPC   NC359819  27.486  35.716   5.726
 4725POPC   PO459820  27.749  35.224   5.285
 4725POPC   GL159821  27.765  35.111   5.744
 4725POPC   GL259822  27.925  35.421   5.783
 4725POPC   C1A59823  27.623  35.288   6.210
 4725POPC   D2A59824  27.489  35.440   6.652
 4725POPC   C3A59825  27.350  35.096   6.960
 4725POPC   C4A59826  27.207  35.132   7.370
 4725POPC   C1B59827  28.112  35.470   6.194
 4725POPC   C2B59828  27.975  35.330   6.581
 4725POPC   C3B59829  27.854  35.209   6.992
 4725POPC   C4B59830  28.009  35.493   7.275
 4726POPC   NC359831  29.946   3.500   5.293
 4726POPC   PO459832  29.574   3.954   5.648
 4726POPC   GL159833  29.710   3.621   5.885
 4726POPC   GL259834  30.024   3.463   5.837
 4726POPC   C1A59835  29.770   3.684   6.295
 4726POPC   D2A59836  29.978   3.646   6.638
 4726POPC   C3A59837  29.755   3.706   7.000
 4726POPC   C4A59838  29.873   3.524   7.343
 4726POPC   C1B59839  30.183   3.360   6.245
 4726POPC   C2B59840  30.067   3.155   6.649
 4726POPC   C3B59841  30.209   3.366   7.008
 4726POPC   C4B59842  30.466   3.278   7.363
 4727POPC   NC359843  17.051  11.636   5.392
 4727POPC   PO459844  16.913  11.022   5.442
 4727POPC   GL159845  16.886  11.313   5.830
 4727POPC   GL259846  17.066  11.608   5.943
 4727POPC   C1A59847  16.655  11.381   6.239
 4727POPC   D2A59848  16.407  11.202   6.567
 4727POPC   C3A59849  16.548  11.036   6.970
 4727POPC   C4A59850  16.359  11.272   7.285
 4727POPC   C1B59851  17.150  11.417   6.369
 4727POPC   C2B59852  16.933  11.296   6.765
 4727POPC   C3B59853  16.796  11.510   7.151
 4727POPC   C4B59854  17.036  11.513   7.552
 4728POPC   NC359855  29.002   7.736   5.532
 4728POPC   PO459856  29.285   7.206   5.229
 4728POPC   GL159857  29.353   7.408   5.691
 4728POPC   GL259858  29.629   7.672   5.716
 4728POPC   C1A59859  29.140   7.564   6.139
 4728POPC   D2A59860  29.226   7.342   6.534
 4728POPC   C3A59861  28.890   7.345   6.845
 4728POPC   C4A59862  28.978   7.282   7.267
 4728POPC   C1B59863  29.632   7.615   6.164
 4728POPC   C2B59864  29.401   7.824   6.526
 4728POPC   C3B59865  29.272   7.699   6.921
 4728POPC   C4B59866  29.428   7.546   7.269
 4729POPC   NC359867  21.042  14.421   5.351
 4729POPC   PO459868  21.447  13.911   5.228
 4729POPC   GL159869  21.423  14.261   5.630
 4729POPC   GL259870  21.538  14.628   5.684
 4729POPC   C1A59871  21.393  14.344   6.101
 4729POPC   D2A59872  21.123  14.487   6.459
 4729POPC   C3A59873  21.267  14.388   6.896
 4729POPC   C4A59874  21.391  14.662   7.253
 4729POPC   C1B59875  21.770  14.724   6.119
 4729POPC   C2B59876  21.629  14.567   6.529
 4729POPC   C3B59877  21.775  14.530   6.923
 4729POPC   C4B59878  21.898  14.604   7.348
 4730POPC   NC359879  34.732  11.669   5.457
 4730POPC   PO459880  34.440  11.039   5.424
 4730POPC   GL159881  34.484  11.310   5.744
 4730POPC   GL259882  34.826  11.238   5.728
 4730POPC   C1A59883  34.316  11.381   6.140
 4730POPC   D2A59884  34.496  11.433   6.535
 4730POPC   C3A59885  34.318  11.423   6.931
 4730POPC   C4A59886  34.514  11.237   7.264
 4730POPC   C1B59887  34.852  11.408   6.130
 4730POPC   C2B59888  35.012  11.440   6.535
 4730POPC   C3B59889  34.852  11.319   6.894
 4730POPC   C4B59890  34.976  11.496   7.232
 4731POPC   NC359891  19.245  19.590   5.515
 4731POPC   PO459892  18.975  20.236   5.438
 4731POPC   GL159893  19.225  20.066   5.814
 4731POPC   GL259894  18.997  19.780   5.906
 4731POPC   C1A59895  19.201  20.013   6.294
 4731POPC   D2A59896  18.795  19.903   6.479
 4731POPC   C3A59897  18.769  19.796   6.911
 4731POPC   C4A59898  18.784  20.023   7.322
 4731POPC   C1B59899  19.107  19.504   6.257
 4731POPC   C2B59900  19.349  19.327   6.595
 4731POPC   C3B59901  19.424  19.402   6.998
 4731POPC   C4B59902  19.110  19.608   7.239
 4732POPC   NC359903   9.851  30.768   5.166
 4732POPC   PO459904   9.351  30.971   5.591
 4732POPC   GL159905   9.693  30.804   5.861
 4732POPC   GL259906   9.814  30.454   5.916
 4732POPC   C1A59907   9.898  30.788   6.284
 4732POPC   D2A59908   9.836  30.617   6.687
 4732POPC   C3A59909   9.878  30.875   7.048
 4732POPC   C4A59910  10.134  30.914   7.435
 4732POPC   C1B59911   9.678  30.289   6.298
 4732POPC   C2B59912   9.411  30.315   6.637
 4732POPC   C3B59913   9.524  30.315   7.047
 4732POPC   C4B59914   9.517  30.647   7.339
 4733POPC   NC359915  13.172   7.192   5.145
 4733POPC   PO459916  12.581   7.327   5.475
 4733POPC   GL159917  12.725   7.512   5.769
 4733POPC   GL259918  12.974   7.722   5.589
 4733POPC   C1A59919  12.691   7.385   6.181
 4733POPC   D2A59920  12.784   7.127   6.511
 4733POPC   C3A59921  12.634   7.225   6.899
 4733POPC   C4A59922  12.887   7.307   7.241
 4733POPC   C1B59923  12.934   7.844   6.058
 4733POPC   C2B59924  13.090   7.642   6.429
 4733POPC   C3B59925  13.026   7.641   6.870
 4733POPC   C4B59926  12.831   7.816   7.230
 4734POPC   NC359927  13.990  37.895   5.417
 4734POPC   PO459928  14.698  37.747   5.501
 4734POPC   GL159929  14.434  37.803   5.861
 4734POPC   GL259930  14.658  38.002   6.053
 4734POPC   C1A59931  14.284  37.747   6.327
 4734POPC   D2A59932  14.411  38.023   6.700
 4734POPC   C3A59933  14.232  37.918   7.099
 4734POPC   C4A59934  13.931  37.586   7.121
 4734POPC   C1B59935  14.731  37.552   6.207
 4734POPC   C2B59936  14.703  37.329   6.624
 4734POPC   C3B59937  14.770  37.484   7.039
 4734POPC   C4B59938  14.753  37.881   7.249
 4735POPC   NC359939  27.416   3.726   5.457
 4735POPC   PO459940  27.957   3.354   5.478
 4735POPC   GL159941  27.620   3.347   5.795
 4735POPC   GL259942  27.741   3.650   5.869
 4735POPC   C1A59943  27.413   3.349   6.235
 4735POPC   D2A59944  27.114   3.163   6.549
 4735POPC   C3A59945  27.273   3.201   6.964
 4735POPC   C4A59946  27.698   3.225   7.109
 4735POPC   C1B59947  27.924   3.469   6.256
 4735POPC   C2B59948  27.795   3.549   6.688
 4735POPC   C3B59949  27.920   3.684   7.098
 4735POPC   C4B59950  27.830   3.855   7.515
 4736POPC   NC359951   4.853  11.578   5.451
 4736POPC   PO459952   5.163  12.138   5.458
 4736POPC   GL159953   5.163  11.820   5.772
 4736POPC   GL259954   4.849  11.693   5.935
 4736POPC   C1A59955   5.413  11.745   6.117
 4736POPC   D2A59956   5.427  12.046   6.465
 4736POPC   C3A59957   5.136  11.896   6.746
 4736POPC   C4A59958   5.153  11.885   7.157
 4736POPC   C1B59959   4.942  11.948   6.268
 4736POPC   C2B59960   4.681  12.192   6.567
 4736POPC   C3B59961   4.774  12.183   6.996
 4736POPC   C4B59962   4.649  11.815   7.212
 4737POPC   NC359963  28.759  25.630   5.215
 4737POPC   PO459964  28.375  25.076   5.400
 4737POPC   GL159965  28.307  25.261   5.789
 4737POPC   GL259966  28.127  25.558   5.688
 4737POPC   C1A59967  28.456  25.193   6.191
 4737POPC   D2A59968  28.279  25.072   6.583
 4737POPC   C3A59969  28.569  25.064   6.918
 4737POPC   C4A59970  28.470  24.822   7.267
 4737POPC   C1B59971  28.173  25.642   6.146
 4737POPC   C2B59972  28.368  25.582   6.565
 4737POPC   C3B59973  28.292  25.627   7.005
 4737POPC   C4B59974  28.356  25.324   7.314
 4738POPC   NC359975  30.399  16.436   5.606
 4738POPC   PO459976  30.612  17.011   5.218
 4738POPC   GL159977  30.778  16.787   5.704
 4738POPC   GL259978  30.880  16.421   5.800
 4738POPC   C1A59979  30.929  16.758   6.172
 4738POPC   D2A59980  30.691  16.715   6.584
 4738POPC   C3A59981  30.876  16.730   6.996
 4738POPC   C4A59982  30.847  16.646   7.448
 4738POPC   C1B59983  30.631  16.311   6.219
 4738POPC   C2B59984  30.412  16.275   6.639
 4738POPC   C3B59985  30.464  16.428   7.083
 4738POPC   C4B59986  30.398  16.419   7.584
 4739POPC   NC359987  16.436  24.394   5.600
 4739POPC   PO459988  17.074  24.642   5.537
 4739POPC   GL159989  16.832  24.532   5.896
 4739POPC   GL259990  16.808  24.144   5.851
 4739POPC   C1A59991  16.657  24.666   6.303
 4739POPC   D2A59992  16.418  24.697   6.716
 4739POPC   C3A59993  16.713  24.665   7.066
 4739POPC   C4A59994  17.149  24.580   7.189
 4739POPC   C1B59995  16.528  24.152   6.205
 4739POPC   C2B59996  16.642  24.232   6.605
 4739POPC   C3B59997  16.511  24.206   7.007
 4739POPC   C4B59998  16.681  23.997   7.377
 4740POPC   NC359999  40.571   8.437   5.356
 4740POPC   PO460000  41.022   8.027   5.425
 4740POPC   GL160001  40.746   8.108   5.752
 4740POPC   GL260002  40.941   8.434   5.777
 4740POPC   C1A60003  40.734   8.196   6.207
 4740POPC   D2A60004  40.520   8.369   6.573
 4740POPC   C3A60005  40.616   8.232   6.998
 4740POPC   C4A60006  40.365   8.283   7.361
 4740POPC   C1B60007  41.196   8.497   6.182
 4740POPC   C2B60008  41.168   8.384   6.661
 4740POPC   C3B60009  41.082   8.416   7.131
 4740POPC   C4B60010  40.871   8.229   7.532
 4741POPC   NC360011   9.946   0.972   5.441
 4741POPC   PO460012   9.529   1.580   5.431
 4741POPC   GL160013   9.741   1.334   5.781
 4741POPC   GL260014   9.638   0.966   5.838
 4741POPC   C1A60015   9.842   1.213   6.230
 4741POPC   D2A60016   9.647   1.076   6.616
 4741POPC   C3A60017   9.709   1.334   6.985
 4741POPC   C4A60018   9.361   1.522   7.171
 4741POPC   C1B60019   9.945   0.713   6.099
 4741POPC   C2B60020   9.973   0.688   6.558
 4741POPC   C3B60021   9.968   0.863   6.990
 4741POPC   C4B60022   9.896   0.960   7.421
 4742POPC   NC360023  36.895   8.588   5.351
 4742POPC   PO460024  37.085   9.240   5.238
 4742POPC   GL160025  36.966   9.047   5.624
 4742POPC   GL260026  36.986   9.331   5.845
 4742POPC   C1A60027  36.903   8.850   6.049
 4742POPC   D2A60028  36.676   8.969   6.396
 4742POPC   C3A60029  36.687   8.928   6.856
 4742POPC   C4A60030  36.824   8.639   7.159
 4742POPC   C1B60031  37.165   9.230   6.258
 4742POPC   C2B60032  37.159   9.014   6.672
 4742POPC   C3B60033  37.080   9.216   7.098
 4742POPC   C4B60034  37.386   9.385   7.441
 4743POPC   NC360035  10.722   5.870   5.571
 4743POPC   PO460036  10.297   6.331   5.437
 4743POPC   GL160037  10.456   6.277   5.853
 4743POPC   GL260038  10.814   6.269   5.913
 4743POPC   C1A60039  10.362   6.253   6.282
 4743POPC   D2A60040  10.607   6.256   6.664
 4743POPC   C3A60041  10.392   5.993   6.934
 4743POPC   C4A60042  10.265   5.925   7.343
 4743POPC   C1B60043  10.782   5.938   6.241
 4743POPC   C2B60044  10.912   5.801   6.659
 4743POPC   C3B60045  10.840   5.820   7.086
 4743POPC   C4B60046  10.745   5.724   7.494
 4744POPC   NC360047  20.823  29.431   5.104
 4744POPC   PO460048  20.494  29.983   5.508
 4744POPC   GL160049  20.521  29.752   5.892
 4744POPC   GL260050  20.434  29.434   5.804
 4744POPC   C1A60051  20.827  29.685   6.210
 4744POPC   D2A60052  20.964  29.944   6.558
 4744POPC   C3A60053  20.870  29.836   6.989
 4744POPC   C4A60054  20.733  29.940   7.422
 4744POPC   C1B60055  20.257  29.450   6.222
 4744POPC   C2B60056  20.414  29.747   6.519
 4744POPC   C3B60057  20.406  29.645   6.941
 4744POPC   C4B60058  20.243  29.825   7.283
 4745POPC   NC360059  12.020   3.881   5.485
 4745POPC   PO460060  12.101   3.247   5.432
 4745POPC   GL160061  12.009   3.464   5.840
 4745POPC   GL260062  11.703   3.666   5.869
 4745POPC   C1A60063  12.179   3.564   6.290
 4745POPC   D2A60064  12.030   3.505   6.746
 4745POPC   C3A60065  12.233   3.712   7.124
 4745POPC   C4A60066  12.302   3.759   7.588
 4745POPC   C1B60067  11.691   3.442   6.293
 4745POPC   C2B60068  11.687   3.118   6.600
 4745POPC   C3B60069  11.773   3.137   7.020
 4745POPC   C4B60070  11.844   3.476   7.315
 4746POPC   NC360071  19.685  10.548   5.140
 4746POPC   PO460072  19.048  10.519   5.380
 4746POPC   GL160073  18.875  10.544   5.815
 4746POPC   GL260074  19.218  10.553   5.870
 4746POPC   C1A60075  18.966  10.322   6.244
 4746POPC   D2A60076  19.322  10.156   6.513
 4746POPC   C3A60077  19.134  10.267   6.925
 4746POPC   C4A60078  18.913  10.527   7.196
 4746POPC   C1B60079  19.435  10.593   6.233
 4746POPC   C2B60080  19.309  10.661   6.598
 4746POPC   C3B60081  19.281  10.771   6.966
 4746POPC   C4B60082  19.327  10.790   7.375
 4747POPC   NC360083  33.418  10.593   5.371
 4747POPC   PO460084  34.014  10.141   5.451
 4747POPC   GL160085  33.935  10.430   5.786
 4747POPC   GL260086  33.608  10.302   5.800
 4747POPC   C1A60087  33.892  10.424   6.251
 4747POPC   D2A60088  33.877  10.174   6.632
 4747POPC   C3A60089  33.848  10.388   7.037
 4747POPC   C4A60090  34.192  10.485   7.312
 4747POPC   C1B60091  33.425  10.589   6.091
 4747POPC   C2B60092  33.425  10.496   6.521
 4747POPC   C3B60093  33.389  10.201   6.834
 4747POPC   C4B60094  33.361  10.253   7.249
 4748POPC   NC360095  33.517  26.272   5.569
 4748POPC   PO460096  33.859  25.750   5.540
 4748POPC   GL160097  33.657  25.865   5.882
 4748POPC   GL260098  33.951  25.825   6.068
 4748POPC   C1A60099  33.612  26.171   6.213
 4748POPC   D2A60100  33.838  26.069   6.597
 4748POPC   C3A60101  33.687  26.151   7.001
 4748POPC   C4A60102  33.891  26.216   7.360
 4748POPC   C1B60103  34.127  26.202   6.190
 4748POPC   C2B60104  34.304  26.264   6.611
 4748POPC   C3B60105  34.223  26.067   6.986
 4748POPC   C4B60106  34.042  25.704   7.134
 4749POPC   NC360107   3.732  38.164   5.363
 4749POPC   PO460108   3.412  37.536   5.373
 4749POPC   GL160109   3.428  37.798   5.736
 4749POPC   GL260110   3.224  38.096   5.686
 4749POPC   C1A60111   3.495  37.693   6.169
 4749POPC   D2A60112   3.713  37.640   6.539
 4749POPC   C3A60113   3.573  37.551   6.971
 4749POPC   C4A60114   3.761  37.466   7.431
 4749POPC   C1B60115   3.312  38.161   6.138
 4749POPC   C2B60116   3.290  37.958   6.564
 4749POPC   C3B60117   3.415  38.030   6.979
 4749POPC   C4B60118   3.752  37.989   7.317
 4750POPC   NC360119  11.371  36.260   5.460
 4750POPC   PO460120  10.851  36.463   5.211
 4750POPC   GL160121  10.974  36.449   5.700
 4750POPC   GL260122  11.022  36.083   5.803
 4750POPC   C1A60123  11.237  36.458   6.116
 4750POPC   D2A60124  11.430  36.460   6.560
 4750POPC   C3A60125  11.609  36.206   6.924
 4750POPC   C4A60126  11.345  36.086   7.253
 4750POPC   C1B60127  11.003  36.014   6.253
 4750POPC   C2B60128  11.036  36.130   6.691
 4750POPC   C3B60129  10.857  36.128   7.091
 4750POPC   C4B60130  10.894  35.940   7.500
 4751POPC   NC360131  23.142  18.444   5.506
 4751POPC   PO460132  22.604  18.083   5.275
 4751POPC   GL160133  22.816  18.105   5.724
 4751POPC   GL260134  23.186  18.082   5.862
 4751POPC   C1A60135  22.736  18.296   6.146
 4751POPC   D2A60136  22.467  18.305   6.506
 4751POPC   C3A60137  22.615  18.447   6.916
 4751POPC   C4A60138  22.907  18.511   7.244
 4751POPC   C1B60139  23.193  18.145   6.333
 4751POPC   C2B60140  23.138  18.238   6.777
 4751POPC   C3B60141  23.154  18.072   7.191
 4751POPC   C4B60142  23.015  18.074   7.590
 4752POPC   NC360143  29.427  10.803   5.454
 4752POPC   PO460144  28.977  10.294   5.538
 4752POPC   GL160145  29.215  10.558   5.875
 4752POPC   GL260146  29.431  10.341   6.157
 4752POPC   C1A60147  29.335  10.815   6.214
 4752POPC   D2A60148  29.134  10.770   6.611
 4752POPC   C3A60149  29.344  10.746   6.996
 4752POPC   C4A60150  29.196  10.622   7.388
 4752POPC   C1B60151  28.984  10.249   6.266
 4752POPC   C2B60152  28.816  10.166   6.657
 4752POPC   C3B60153  29.065  10.271   7.000
 4752POPC   C4B60154  29.499  10.244   7.085
 4753POPC   NC360155  10.246  31.608   5.429
 4753POPC   PO460156  10.930  31.785   5.381
 4753POPC   GL160157  10.712  31.657   5.768
 4753POPC   GL260158  10.575  31.971   5.880
 4753POPC   C1A60159  10.687  31.423   6.188
 4753POPC   D2A60160  10.734  31.249   6.638
 4753POPC   C3A60161  10.676  31.531   7.004
 4753POPC   C4A60162  10.485  31.519   7.400
 4753POPC   C1B60163  10.281  31.768   6.151
 4753POPC   C2B60164  10.330  31.570   6.547
 4753POPC   C3B60165  10.229  31.721   6.930
 4753POPC   C4B60166  10.065  31.789   7.319
 4754POPC   NC360167   8.327  27.683   5.469
 4754POPC   PO460168   8.500  27.093   5.635
 4754POPC   GL160169   8.322  27.437   5.923
 4754POPC   GL260170   7.974  27.567   5.809
 4754POPC   C1A60171   8.212  27.825   6.176
 4754POPC   D2A60172   8.220  28.037   6.559
 4754POPC   C3A60173   8.328  27.767   6.870
 4754POPC   C4A60174   8.219  27.626   7.270
 4754POPC   C1B60175   7.861  27.449   6.209
 4754POPC   C2B60176   8.061  27.429   6.604
 4754POPC   C3B60177   7.954  27.272   7.019
 4754POPC   C4B60178   8.026  27.202   7.493
 4755POPC   NC360179  24.315  42.837   5.421
 4755POPC   PO460180  24.676  43.404   5.268
 4755POPC   GL160181  24.746  43.139   5.681
 4755POPC   GL260182  24.426  43.082   5.852
 4755POPC   C1A60183  24.781  43.146   6.194
 4755POPC   D2A60184  24.577  42.977   6.582
 4755POPC   C3A60185  24.638  43.092   7.016
 4755POPC   C4A60186  24.719  42.849   7.372
 4755POPC   C1B60187  24.173  43.132   6.245
 4755POPC   C2B60188  24.159  43.267   6.699
 4755POPC   C3B60189  24.118  43.113   7.121
 4755POPC   C4B60190  23.956  43.195   7.542
 4756POPC   NC360191   7.989  14.825   5.432
 4756POPC   PO460192   8.149  15.463   5.323
 4756POPC   GL160193   8.167  15.240   5.750
 4756POPC   GL260194   7.904  15.406   5.944
 4756POPC   C1A60195   8.216  15.020   6.188
 4756POPC   D2A60196   8.047  15.140   6.633
 4756POPC   C3A60197   8.190  15.117   7.111
 4756POPC   C4A60198   8.319  14.948   7.546
 4756POPC   C1B60199   8.282  15.529   6.225
 4756POPC   C2B60200   8.565  15.479   6.619
 4756POPC   C3B60201   8.639  15.376   7.089
 4756POPC   C4B60202   8.501  15.420   7.528
 4757POPC   NC360203   7.102   5.913   5.217
 4757POPC   PO460204   6.425   5.737   5.385
 4757POPC   GL160205   6.674   5.724   5.785
 4757POPC   GL260206   7.020   5.584   5.841
 4757POPC   C1A60207   6.497   5.713   6.213
 4757POPC   D2A60208   6.352   5.570   6.619
 4757POPC   C3A60209   6.543   5.762   6.978
 4757POPC   C4A60210   6.813   5.553   7.291
 4757POPC   C1B60211   6.984   5.842   6.203
 4757POPC   C2B60212   6.840   5.984   6.567
 4757POPC   C3B60213   7.035   5.952   6.944
 4757POPC   C4B60214   6.785   6.104   7.278
 4758POPC   NC360215   9.688  18.021   5.165
 4758POPC   PO460216  10.033  18.573   5.409
 4758POPC   GL160217   9.769  18.320   5.717
 4758POPC   GL260218   9.846  18.585   5.936
 4758POPC   C1A60219   9.565  18.252   6.177
 4758POPC   D2A60220   9.695  18.591   6.490
 4758POPC   C3A60221   9.769  18.514   6.947
 4758POPC   C4A60222   9.795  18.131   7.163
 4758POPC   C1B60223  10.074  18.298   6.208
 4758POPC   C2B60224  10.123  18.295   6.633
 4758POPC   C3B60225  10.278  18.161   6.998
 4758POPC   C4B60226  10.237  18.302   7.435
 4759POPC   NC360227  43.087  29.608   5.543
 4759POPC   PO460228  43.216  30.255   5.456
 4759POPC   GL160229  43.357  30.004   5.852
 4759POPC   GL260230  43.329  29.632   5.983
 4759POPC   C1A60231  43.286  30.098   6.308
 4759POPC   D2A60232  43.367  29.858   6.676
 4759POPC   C3A60233  43.356  30.191   6.953
 4759POPC   C4A60234  43.177  30.231   7.344
 4759POPC   C1B60235  42.916  29.838   6.118
 4759POPC   C2B60236  42.853  29.941   6.576
 4759POPC   C3B60237  42.975  29.861   7.037
 4759POPC   C4B60238  42.737  29.961   7.440
 4760POPC   NC360239  27.781   2.257   5.387
 4760POPC   PO460240  27.678   1.605   5.338
 4760POPC   GL160241  27.570   1.768   5.747
 4760POPC   GL260242  27.509   2.107   5.791
 4760POPC   C1A60243  27.646   1.832   6.198
 4760POPC   D2A60244  27.780   2.017   6.593
 4760POPC   C3A60245  27.772   1.710   6.940
 4760POPC   C4A60246  27.626   1.824   7.350
 4760POPC   C1B60247  27.371   2.284   6.156
 4760POPC   C2B60248  27.258   2.208   6.567
 4760POPC   C3B60249  27.466   2.268   6.926
 4760POPC   C4B60250  27.366   2.282   7.325
 4761POPC   NC360251   0.609  15.712   5.003
 4761POPC   PO460252   0.377  16.305   5.186
 4761POPC   GL160253   0.359  16.211   5.679
 4761POPC   GL260254   0.443  15.881   5.796
 4761POPC   C1A60255   0.353  16.305   6.140
 4761POPC   D2A60256   0.437  16.141   6.574
 4761POPC   C3A60257   0.266  16.296   6.980
 4761POPC   C4A60258   0.495  16.233   7.386
 4761POPC   C1B60259   0.204  15.822   6.191
 4761POPC   C2B60260   0.263  15.655   6.596
 4761POPC   C3B60261   0.295  15.796   6.978
 4761POPC   C4B60262   0.048  15.913   7.307
 4762POPC   NC360263   6.938  38.571   5.566
 4762POPC   PO460264   6.525  38.029   5.433
 4762POPC   GL160265   6.663  38.248   5.815
 4762POPC   GL260266   6.436  38.482   5.900
 4762POPC   C1A60267   6.864  38.480   6.196
 4762POPC   D2A60268   6.746  38.897   6.416
 4762POPC   C3A60269   6.635  38.781   6.859
 4762POPC   C4A60270   6.851  38.484   7.114
 4762POPC   C1B60271   6.501  38.139   6.267
 4762POPC   C2B60272   6.705  38.244   6.651
 4762POPC   C3B60273   6.521  38.121   7.022
 4762POPC   C4B60274   6.613  38.050   7.456
 4763POPC   NC360275   7.244  18.348   5.374
 4763POPC   PO460276   7.974  18.541   5.384
 4763POPC   GL160277   7.590  18.641   5.657
 4763POPC   GL260278   7.527  18.307   5.805
 4763POPC   C1A60279   7.525  18.746   6.118
 4763POPC   D2A60280   7.453  18.484   6.506
 4763POPC   C3A60281   7.354  18.582   6.934
 4763POPC   C4A60282   7.427  18.301   7.290
 4763POPC   C1B60283   7.399  18.089   6.192
 4763POPC   C2B60284   7.065  18.113   6.520
 4763POPC   C3B60285   7.033  18.170   6.967
 4763POPC   C4B60286   7.102  17.872   7.325
 4764POPC   NC360287  27.115   6.809   5.283
 4764POPC   PO460288  26.654   6.337   5.332
 4764POPC   GL160289  26.786   6.319   5.746
 4764POPC   GL260290  27.067   6.454   5.681
 4764POPC   C1A60291  26.687   6.413   6.180
 4764POPC   D2A60292  26.425   6.585   6.540
 4764POPC   C3A60293  26.631   6.588   6.943
 4764POPC   C4A60294  26.833   6.375   7.289
 4764POPC   C1B60295  27.119   6.692   6.060
 4764POPC   C2B60296  27.105   6.544   6.485
 4764POPC   C3B60297  27.157   6.383   6.903
 4764POPC   C4B60298  27.190   6.730   7.211
 4765POPC   NC360299   7.242  30.770   5.171
 4765POPC   PO460300   7.654  30.404   5.471
 4765POPC   GL160301   7.570  30.725   5.798
 4765POPC   GL260302   7.258  30.765   5.691
 4765POPC   C1A60303   7.613  30.758   6.252
 4765POPC   D2A60304   7.561  30.372   6.537
 4765POPC   C3A60305   7.670  30.386   7.000
 4765POPC   C4A60306   7.599  30.675   7.324
 4765POPC   C1B60307   7.196  30.517   6.083
 4765POPC   C2B60308   7.150  30.680   6.501
 4765POPC   C3B60309   7.294  30.803   6.896
 4765POPC   C4B60310   7.052  30.876   7.251
 4766POPC   NC360311  17.142  12.557   5.554
 4766POPC   PO460312  16.762  12.007   5.364
 4766POPC   GL160313  16.656  11.917   5.774
 4766POPC   GL260314  16.629  12.262   5.873
 4766POPC   C1A60315  16.755  11.892   6.237
 4766POPC   D2A60316  16.739  11.747   6.664
 4766POPC   C3A60317  16.784  12.017   7.033
 4766POPC   C4A60318  17.144  11.897   7.243
 4766POPC   C1B60319  16.360  12.220   6.242
 4766POPC   C2B60320  16.414  12.138   6.688
 4766POPC   C3B60321  16.312  12.270   7.097
 4766POPC   C4B60322  16.506  12.510   7.376
 4767POPC   NC360323  22.478  29.586   5.470
 4767POPC   PO460324  22.094  29.035   5.529
 4767POPC   GL160325  22.159  29.201   5.907
 4767POPC   GL260326  22.519  29.235   5.879
 4767POPC   C1A60327  22.153  29.030   6.332
 4767POPC   D2A60328  21.932  28.870   6.707
 4767POPC   C3A60329  22.155  29.161   6.938
 4767POPC   C4A60330  22.395  29.207   7.272
 4767POPC   C1B60331  22.429  29.529   6.180
 4767POPC   C2B60332  22.221  29.509   6.559
 4767POPC   C3B60333  22.420  29.600   6.934
 4767POPC   C4B60334  22.544  29.684   7.346
 4768POPC   NC360335  23.184  32.129   5.339
 4768POPC   PO460336  22.838  32.647   5.478
 4768POPC   GL160337  22.921  32.268   5.797
 4768POPC   GL260338  23.138  31.933   5.824
 4768POPC   C1A60339  23.037  32.249   6.267
 4768POPC   D2A60340  22.763  32.371   6.618
 4768POPC   C3A60341  22.830  32.523   7.029
 4768POPC   C4A60342  22.766  32.290   7.397
 4768POPC   C1B60343  22.838  31.779   6.147
 4768POPC   C2B60344  22.907  31.826   6.587
 4768POPC   C3B60345  22.926  31.977   6.990
 4768POPC   C4B60346  23.242  32.224   7.148
 4769POPC   NC360347  22.811  14.149   5.459
 4769POPC   PO460348  22.854  14.808   5.669
 4769POPC   GL160349  22.834  14.585   6.033
 4769POPC   GL260350  22.698  14.256   5.941
 4769POPC   C1A60351  22.988  14.554   6.472
 4769POPC   D2A60352  23.270  14.284   6.698
 4769POPC   C3A60353  23.128  14.313   7.070
 4769POPC   C4A60354  22.763  14.566   7.162
 4769POPC   C1B60355  23.006  14.110   6.222
 4769POPC   C2B60356  22.796  14.006   6.619
 4769POPC   C3B60357  22.539  14.075   6.961
 4769POPC   C4B60358  22.754  14.035   7.316
 4770POPC   NC360359   7.007  21.744   5.473
 4770POPC   PO460360   7.334  21.125   5.284
 4770POPC   GL160361   7.420  21.181   5.729
 4770POPC   GL260362   7.411  21.532   5.733
 4770POPC   C1A60363   7.650  21.242   6.152
 4770POPC   D2A60364   7.589  21.517   6.551
 4770POPC   C3A60365   7.529  21.334   6.972
 4770POPC   C4A60366   7.651  21.322   7.425
 4770POPC   C1B60367   7.240  21.575   6.151
 4770POPC   C2B60368   7.025  21.717   6.542
 4770POPC   C3B60369   7.265  21.776   6.895
 4770POPC   C4B60370   7.251  21.653   7.301
 4771POPC   NC360371  31.393  38.001   5.383
 4771POPC   PO460372  31.682  37.452   5.414
 4771POPC   GL160373  31.507  37.671   5.753
 4771POPC   GL260374  31.162  37.547   5.818
 4771POPC   C1A60375  31.648  37.835   6.139
 4771POPC   D2A60376  31.568  37.498   6.442
 4771POPC   C3A60377  31.620  37.586   6.858
 4771POPC   C4A60378  31.506  37.630   7.284
 4771POPC   C1B60379  31.146  37.787   6.216
 4771POPC   C2B60380  31.356  37.948   6.572
 4771POPC   C3B60381  31.187  37.885   6.937
 4771POPC   C4B60382  31.054  37.883   7.316
 4772POPC   NC360383   4.211  33.316   5.372
 4772POPC   PO460384   4.317  34.039   5.425
 4772POPC   GL160385   4.496  34.145   5.837
 4772POPC   GL260386   4.630  33.809   5.824
 4772POPC   C1A60387   4.365  34.130   6.285
 4772POPC   D2A60388   4.061  33.837   6.516
 4772POPC   C3A60389   4.132  33.771   6.959
 4772POPC   C4A60390   4.446  34.057   7.102
 4772POPC   C1B60391   4.498  33.636   6.236
 4772POPC   C2B60392   4.636  33.639   6.683
 4772POPC   C3B60393   4.533  33.449   7.078
 4772POPC   C4B60394   4.131  33.309   7.231
 4773POPC   NC360395  14.654  11.846   5.543
 4773POPC   PO460396  14.182  12.281   5.342
 4773POPC   GL160397  14.254  12.191   5.757
 4773POPC   GL260398  13.978  12.407   5.832
 4773POPC   C1A60399  14.397  11.943   6.141
 4773POPC   D2A60400  14.316  11.578   6.397
 4773POPC   C3A60401  14.379  11.614   6.845
 4773POPC   C4A60402  14.543  11.938   7.120
 4773POPC   C1B60403  13.926  12.143   6.195
 4773POPC   C2B60404  14.125  12.022   6.602
 4773POPC   C3B60405  14.057  12.095   7.051
 4773POPC   C4B60406  14.269  12.287   7.433
 4774POPC   NC360407  25.688  42.292   5.386
 4774POPC   PO460408  26.333  42.126   5.547
 4774POPC   GL160409  26.043  42.366   5.780
 4774POPC   GL260410  25.728  42.159   5.877
 4774POPC   C1A60411  26.175  42.387   6.202
 4774POPC   D2A60412  26.003  42.274   6.586
 4774POPC   C3A60413  26.244  42.386   6.944
 4774POPC   C4A60414  26.093  42.509   7.360
 4774POPC   C1B60415  25.607  42.055   6.324
 4774POPC   C2B60416  25.613  42.005   6.787
 4774POPC   C3B60417  25.912  42.021   7.139
 4774POPC   C4B60418  25.846  42.081   7.587
 4775POPC   NC360419  22.054  11.907   5.462
 4775POPC   PO460420  22.578  12.339   5.498
 4775POPC   GL160421  22.309  12.054   5.859
 4775POPC   GL260422  22.317  11.654   5.838
 4775POPC   C1A60423  22.053  12.097   6.254
 4775POPC   D2A60424  22.236  12.162   6.675
 4775POPC   C3A60425  22.026  12.221   7.053
 4775POPC   C4A60426  22.198  12.314   7.458
 4775POPC   C1B60427  22.028  11.574   6.197
 4775POPC   C2B60428  22.097  11.690   6.582
 4775POPC   C3B60429  22.204  11.662   6.992
 4775POPC   C4B60430  22.085  11.820   7.385
 4776POPC   NC360431   1.666  28.549   5.346
 4776POPC   PO460432   0.983  28.387   5.314
 4776POPC   GL160433   1.120  28.233   5.732
 4776POPC   GL260434   1.486  28.279   5.828
 4776POPC   C1A60435   1.033  28.229   6.187
 4776POPC   D2A60436   1.051  28.490   6.579
 4776POPC   C3A60437   1.178  28.315   6.989
 4776POPC   C4A60438   1.028  28.222   7.400
 4776POPC   C1B60439   1.479  28.499   6.251
 4776POPC   C2B60440   1.628  28.725   6.624
 4776POPC   C3B60441   1.618  28.615   7.071
 4776POPC   C4B60442   1.652  28.182   7.199
 4777POPC   NC360443  12.193  12.275   5.340
 4777POPC   PO460444  11.954  12.924   5.399
 4777POPC   GL160445  12.196  12.866   5.730
 4777POPC   GL260446  12.111  13.218   5.805
 4777POPC   C1A60447  12.222  12.868   6.168
 4777POPC   D2A60448  12.033  12.823   6.575
 4777POPC   C3A60449  12.126  12.659   6.954
 4777POPC   C4A60450  12.327  12.893   7.264
 4777POPC   C1B60451  11.878  13.244   6.217
 4777POPC   C2B60452  11.721  13.257   6.622
 4777POPC   C3B60453  11.882  13.142   7.020
 4777POPC   C4B60454  11.823  13.349   7.417
 4778POPC   NC360455  13.184  44.814   5.415
 4778POPC   PO460456  12.696  44.307   5.530
 4778POPC   GL160457  12.963  44.513   5.846
 4778POPC   GL260458  13.007  44.890   5.885
 4778POPC   C1A60459  12.733  44.502   6.250
 4778POPC   D2A60460  12.469  44.426   6.617
 4778POPC   C3A60461  12.528  44.601   7.026
 4778POPC   C4A60462  12.522  44.425   7.418
 4778POPC   C1B60463  13.130  44.800   6.318
 4778POPC   C2B60464  12.955  44.708   6.746
 4778POPC   C3B60465  13.008  44.628   7.203
 4778POPC   C4B60466  13.244  44.845   7.548
 4779POPC   NC360467   1.538   2.169   5.327
 4779POPC   PO460468   0.894   1.942   5.339
 4779POPC   GL160469   1.166   2.070   5.687
 4779POPC   GL260470   1.424   1.813   5.722
 4779POPC   C1A60471   1.162   2.031   6.149
 4779POPC   D2A60472   0.849   2.044   6.480
 4779POPC   C3A60473   0.956   1.868   6.898
 4779POPC   C4A60474   1.226   2.123   7.181
 4779POPC   C1B60475   1.495   1.660   6.160
 4779POPC   C2B60476   1.419   1.839   6.584
 4779POPC   C3B60477   1.429   1.663   7.007
 4779POPC   C4B60478   1.703   1.456   7.301
 4780POPC   NC360479   4.758  36.854   5.231
 4780POPC   PO460480   4.250  37.169   5.507
 4780POPC   GL160481   4.291  36.839   5.817
 4780POPC   GL260482   4.371  37.088   6.050
 4780POPC   C1A60483   4.140  36.661   6.221
 4780POPC   D2A60484   3.935  36.765   6.603
 4780POPC   C3A60485   4.136  36.790   7.005
 4780POPC   C4A60486   4.343  36.744   7.388
 4780POPC   C1B60487   3.998  37.178   6.255
 4780POPC   C2B60488   4.035  37.266   6.663
 4780POPC   C3B60489   3.983  37.267   7.037
 4780POPC   C4B60490   4.206  37.217   7.402
 4781POPC   NC360491   7.213  11.419   5.465
 4781POPC   PO460492   7.746  11.180   5.761
 4781POPC   GL160493   7.359  11.262   5.945
 4781POPC   GL260494   7.221  11.600   5.971
 4781POPC   C1A60495   7.431  11.110   6.349
 4781POPC   D2A60496   7.622  10.926   6.685
 4781POPC   C3A60497   7.429  11.173   6.980
 4781POPC   C4A60498   7.224  11.473   7.232
 4781POPC   C1B60499   7.591  11.600   6.283
 4781POPC   C2B60500   7.642  11.557   6.745
 4781POPC   C3B60501   7.705  11.683   7.178
 4781POPC   C4B60502   7.582  11.577   7.615
 4782POPC   NC360503  26.169  22.681   5.291
 4782POPC   PO460504  25.955  23.285   5.452
 4782POPC   GL160505  26.024  23.034   5.841
 4782POPC   GL260506  26.162  22.681   5.819
 4782POPC   C1A60507  25.862  22.946   6.275
 4782POPC   D2A60508  25.827  22.733   6.665
 4782POPC   C3A60509  26.016  22.914   7.037
 4782POPC   C4A60510  25.841  22.984   7.447
 4782POPC   C1B60511  26.360  22.827   6.215
 4782POPC   C2B60512  26.404  22.956   6.667
 4782POPC   C3B60513  26.506  22.660   7.021
 4782POPC   C4B60514  26.278  22.671   7.417
 4783POPC   NC360515  25.447  38.872   5.473
 4783POPC   PO460516  25.084  38.272   5.431
 4783POPC   GL160517  25.327  38.364   5.803
 4783POPC   GL260518  25.695  38.337   5.767
 4783POPC   C1A60519  25.359  38.594   6.206
 4783POPC   D2A60520  25.176  38.779   6.586
 4783POPC   C3A60521  25.337  38.573   6.955
 4783POPC   C4A60522  25.597  38.555   7.326
 4783POPC   C1B60523  25.634  38.170   6.195
 4783POPC   C2B60524  25.707  38.383   6.600
 4783POPC   C3B60525  25.929  38.347   6.985
 4783POPC   C4B60526  25.861  38.102   7.362
 4784POPC   NC360527  12.936  21.172   5.457
 4784POPC   PO460528  12.858  21.775   5.229
 4784POPC   GL160529  12.750  21.620   5.708
 4784POPC   GL260530  12.896  21.314   5.934
 4784POPC   C1A60531  12.962  21.763   6.139
 4784POPC   D2A60532  13.241  21.646   6.498
 4784POPC   C3A60533  13.026  21.463   6.882
 4784POPC   C4A60534  12.850  21.641   7.251
 4784POPC   C1B60535  12.697  21.177   6.308
 4784POPC   C2B60536  12.580  21.198   6.732
 4784POPC   C3B60537  12.548  21.230   7.156
 4784POPC   C4B60538  12.797  20.993   7.358
 4785POPC   NC360539  35.787  36.047   5.206
 4785POPC   PO460540  36.228  36.434   5.360
 4785POPC   GL160541  36.165  36.248   5.776
 4785POPC   GL260542  36.299  35.915   5.814
 4785POPC   C1A60543  35.905  36.378   6.176
 4785POPC   D2A60544  35.742  36.248   6.595
 4785POPC   C3A60545  35.985  36.325   6.985
 4785POPC   C4A60546  35.977  35.947   7.201
 4785POPC   C1B60547  36.322  36.071   6.241
 4785POPC   C2B60548  36.234  36.013   6.666
 4785POPC   C3B60549  36.446  36.084   7.047
 4785POPC   C4B60550  36.490  36.254   7.474
 4786POPC   NC360551   9.235  38.418   5.143
 4786POPC   PO460552   9.286  38.415   5.777
 4786POPC   GL160553   9.010  38.484   6.074
 4786POPC   GL260554   8.725  38.257   6.053
 4786POPC   C1A60555   8.964  38.854   6.276
 4786POPC   D2A60556   9.283  39.024   6.514
 4786POPC   C3A60557   9.179  39.014   6.944
 4786POPC   C4A60558   9.046  38.684   7.226
 4786POPC   C1B60559   8.633  38.499   6.405
 4786POPC   C2B60560   8.873  38.578   6.749
 4786POPC   C3B60561   8.861  38.252   7.052
 4786POPC   C4B60562   8.770  38.203   7.471
 4787POPC   NC360563  16.251  39.318   5.469
 4787POPC   PO460564  15.662  38.995   5.407
 4787POPC   GL160565  15.930  38.985   5.763
 4787POPC   GL260566  15.716  39.259   5.926
 4787POPC   C1A60567  16.178  39.071   6.139
 4787POPC   D2A60568  15.953  39.055   6.543
 4787POPC   C3A60569  15.946  38.934   6.972
 4787POPC   C4A60570  15.783  39.130   7.348
 4787POPC   C1B60571  15.927  39.482   6.266
 4787POPC   C2B60572  16.018  39.544   6.702
 4787POPC   C3B60573  15.905  39.547   7.134
 4787POPC   C4B60574  15.598  39.563   7.542
 4788POPC   NC360575  38.458  18.577   5.272
 4788POPC   PO460576  38.582  17.942   5.390
 4788POPC   GL160577  38.605  18.275   5.726
 4788POPC   GL260578  38.287  18.430   5.747
 4788POPC   C1A60579  38.612  18.449   6.155
 4788POPC   D2A60580  38.491  18.379   6.588
 4788POPC   C3A60581  38.796  18.395   6.903
 4788POPC   C4A60582  38.675  18.443   7.309
 4788POPC   C1B60583  38.083  18.511   6.159
 4788POPC   C2B60584  37.958  18.363   6.566
 4788POPC   C3B60585  38.062  18.470   6.995
 4788POPC   C4B60586  38.156  18.347   7.422
 4789POPC   NC360587  22.294  31.923   5.446
 4789POPC   PO460588  21.953  31.291   5.297
 4789POPC   GL160589  22.004  31.248   5.730
 4789POPC   GL260590  22.339  31.353   5.736
 4789POPC   C1A60591  21.949  31.196   6.175
 4789POPC   D2A60592  22.197  31.297   6.561
 4789POPC   C3A60593  22.005  31.550   6.843
 4789POPC   C4A60594  21.747  31.441   7.175
 4789POPC   C1B60595  22.373  31.552   6.147
 4789POPC   C2B60596  22.406  31.782   6.549
 4789POPC   C3B60597  22.511  31.636   6.965
 4789POPC   C4B60598  22.231  31.531   7.315
 4790POPC   NC360599  18.711  36.178   5.295
 4790POPC   PO460600  18.064  35.961   5.435
 4790POPC   GL160601  18.388  36.120   5.730
 4790POPC   GL260602  18.320  35.817   5.939
 4790POPC   C1A60603  18.424  36.359   6.131
 4790POPC   D2A60604  18.223  36.287   6.538
 4790POPC   C3A60605  18.374  36.139   6.945
 4790POPC   C4A60606  18.287  36.244   7.385
 4790POPC   C1B60607  17.961  36.104   6.074
 4790POPC   C2B60608  17.735  36.151   6.448
 4790POPC   C3B60609  17.860  36.035   6.842
 4790POPC   C4B60610  18.032  35.825   7.193
 4791POPC   NC360611  16.995  28.307   5.331
 4791POPC   PO460612  16.503  27.774   5.524
 4791POPC   GL160613  16.840  28.087   5.789
 4791POPC   GL260614  16.721  28.452   5.920
 4791POPC   C1A60615  16.924  28.076   6.212
 4791POPC   D2A60616  16.689  28.366   6.451
 4791POPC   C3A60617  16.763  28.273   6.852
 4791POPC   C4A60618  17.124  28.353   7.083
 4791POPC   C1B60619  16.434  28.738   6.211
 4791POPC   C2B60620  16.282  28.858   6.618
 4791POPC   C3B60621  16.336  28.722   7.029
 4791POPC   C4B60622  16.638  28.534   7.271
 4792POPC   NC360623   2.446  15.255   5.561
 4792POPC   PO460624   2.961  15.531   5.386
 4792POPC   GL160625   2.966  15.284   5.784
 4792POPC   GL260626   3.102  14.942   5.724
 4792POPC   C1A60627   2.703  15.214   6.189
 4792POPC   D2A60628   2.503  15.271   6.588
 4792POPC   C3A60629   2.676  15.089   6.967
 4792POPC   C4A60630   2.800  15.289   7.363
 4792POPC   C1B60631   3.152  14.977   6.191
 4792POPC   C2B60632   3.068  15.152   6.623
 4792POPC   C3B60633   3.171  15.030   7.073
 4792POPC   C4B60634   3.101  14.893   7.526
 4793POPC   NC360635   8.416  32.558   5.557
 4793POPC   PO460636   8.080  31.937   5.497
 4793POPC   GL160637   8.057  32.267   5.856
 4793POPC   GL260638   8.396  32.336   5.989
 4793POPC   C1A60639   8.048  32.317   6.348
 4793POPC   D2A60640   8.130  32.564   6.741
 4793POPC   C3A60641   7.908  32.341   7.037
 4793POPC   C4A60642   7.956  31.895   7.185
 4793POPC   C1B60643   8.498  32.570   6.354
 4793POPC   C2B60644   8.491  32.230   6.658
 4793POPC   C3B60645   8.406  32.183   7.103
 4793POPC   C4B60646   8.494  32.416   7.496
 4794POPC   NC360647  12.120  36.440   5.429
 4794POPC   PO460648  11.654  35.905   5.421
 4794POPC   GL160649  11.974  36.046   5.735
 4794POPC   GL260650  12.295  35.862   5.763
 4794POPC   C1A60651  12.107  36.216   6.146
 4794POPC   D2A60652  11.941  36.334   6.555
 4794POPC   C3A60653  12.136  36.256   6.952
 4794POPC   C4A60654  12.241  36.083   7.347
 4794POPC   C1B60655  12.198  35.702   6.207
 4794POPC   C2B60656  12.092  35.826   6.655
 4794POPC   C3B60657  11.938  35.768   7.101
 4794POPC   C4B60658  12.135  35.624   7.516
 4795POPC   NC360659  38.834  35.416   5.554
 4795POPC   PO460660  39.388  35.122   5.270
 4795POPC   GL160661  39.332  35.296   5.717
 4795POPC   GL260662  39.395  35.661   5.779
 4795POPC   C1A60663  39.417  35.198   6.188
 4795POPC   D2A60664  39.270  34.982   6.586
 4795POPC   C3A60665  39.290  35.206   6.978
 4795POPC   C4A60666  39.400  35.513   7.303
 4795POPC   C1B60667  39.128  35.624   6.135
 4795POPC   C2B60668  39.048  35.445   6.547
 4795POPC   C3B60669  39.038  35.644   6.961
 4795POPC   C4B60670  39.043  35.934   7.299
 4796POPC   NC360671  25.209  27.256   5.418
 4796POPC   PO460672  25.641  27.793   5.298
 4796POPC   GL160673  25.465  27.608   5.710
 4796POPC   GL260674  25.096  27.607   5.817
 4796POPC   C1A60675  25.537  27.386   6.121
 4796POPC   D2A60676  25.389  27.338   6.566
 4796POPC   C3A60677  25.567  27.603   6.894
 4796POPC   C4A60678  25.507  27.996   7.087
 4796POPC   C1B60679  24.925  27.574   6.267
 4796POPC   C2B60680  24.918  27.449   6.718
 4796POPC   C3B60681  25.105  27.586   7.133
 4796POPC   C4B60682  24.890  27.601   7.556
 4797POPC   NC360683  36.080   7.969   5.296
 4797POPC   PO460684  36.515   8.324   5.465
 4797POPC   GL160685  36.226   8.194   5.797
 4797POPC   GL260686  35.898   8.150   5.733
 4797POPC   C1A60687  36.230   8.165   6.264
 4797POPC   D2A60688  36.266   8.443   6.645
 4797POPC   C3A60689  36.096   8.273   7.028
 4797POPC   C4A60690  36.042   8.129   7.449
 4797POPC   C1B60691  35.740   8.040   6.138
 4797POPC   C2B60692  35.793   8.212   6.567
 4797POPC   C3B60693  35.611   8.100   6.967
 4797POPC   C4B60694  35.622   7.854   7.334
 4798POPC   NC360695  42.542  14.405   5.486
 4798POPC   PO460696  42.000  14.070   5.454
 4798POPC   GL160697  42.191  14.203   5.827
 4798POPC   GL260698  41.861  14.233   5.929
 4798POPC   C1A60699  42.359  14.485   6.158
 4798POPC   D2A60700  42.512  14.649   6.551
 4798POPC   C3A60701  42.568  14.430   6.929
 4798POPC   C4A60702  42.476  14.189   7.290
 4798POPC   C1B60703  42.004  14.150   6.328
 4798POPC   C2B60704  42.079  14.432   6.678
 4798POPC   C3B60705  42.079  14.477   7.131
 4798POPC   C4B60706  41.950  14.059   7.302
 4799POPC   NC360707  39.773  44.582   5.124
 4799POPC   PO460708  39.200  44.566   5.454
 4799POPC   GL160709  39.459  44.742   5.806
 4799POPC   GL260710  39.222  44.999   5.893
 4799POPC   C1A60711  39.496  44.671   6.275
 4799POPC   D2A60712  39.223  44.514   6.632
 4799POPC   C3A60713  39.296  44.561   7.080
 4799POPC   C4A60714  39.140  44.629   7.499
 4799POPC   C1B60715  38.868   0.141   6.102
 4799POPC   C2B60716  39.051  44.974   6.458
 4799POPC   C3B60717  39.194   0.016   6.858
 4799POPC   C4B60718  39.042   0.047   7.248
 4800POPC   NC360719   3.202  14.496   5.434
 4800POPC   PO460720   3.849  14.252   5.439
 4800POPC   GL160721   3.605  14.286   5.805
 4800POPC   GL260722   3.354  14.528   5.919
 4800POPC   C1A60723   3.743  14.340   6.233
 4800POPC   D2A60724   3.706  14.186   6.645
 4800POPC   C3A60725   3.784  14.367   7.048
 4800POPC   C4A60726   3.936  14.591   7.409
 4800POPC   C1B60727   3.245  14.471   6.358
 4800POPC   C2B60728   3.370  14.611   6.764
 4800POPC   C3B60729   3.338  14.568   7.215
 4800POPC   C4B60730   3.045  14.377   7.542
 4801POPC   NC360731   4.727  15.205   5.486
 4801POPC   PO460732   5.224  14.908   5.127
 4801POPC   GL160733   5.228  15.114   5.656
 4801POPC   GL260734   4.910  15.110   5.937
 4801POPC   C1A60735   5.338  15.276   6.142
 4801POPC   D2A60736   5.516  15.236   6.588
 4801POPC   C3A60737   5.333  15.124   7.015
 4801POPC   C4A60738   5.259  15.151   7.489
 4801POPC   C1B60739   4.856  15.473   6.254
 4801POPC   C2B60740   4.878  15.507   6.721
 4801POPC   C3B60741   4.816  15.653   7.152
 4801POPC   C4B60742   4.828  15.473   7.579
 4802POPC   NC360743   8.650  42.072   5.366
 4802POPC   PO460744   9.148  42.501   5.537
 4802POPC   GL160745   8.930  42.331   5.849
 4802POPC   GL260746   9.097  42.021   5.785
 4802POPC   C1A60747   9.018  42.468   6.283
 4802POPC   D2A60748   9.274  42.347   6.638
 4802POPC   C3A60749   9.106  42.564   6.986
 4802POPC   C4A60750   8.862  42.535   7.337
 4802POPC   C1B60751   8.999  41.963   6.225
 4802POPC   C2B60752   8.881  41.993   6.657
 4802POPC   C3B60753   8.978  42.086   7.075
 4802POPC   C4B60754   8.915  42.069   7.526
 4803POPC   NC360755  13.347  40.544   5.448
 4803POPC   PO460756  13.799  40.096   5.373
 4803POPC   GL160757  13.586  39.972   5.738
 4803POPC   GL260758  13.839  39.743   5.802
 4803POPC   C1A60759  13.580  40.136   6.156
 4803POPC   D2A60760  13.445  39.979   6.569
 4803POPC   C3A60761  13.532  40.259   6.888
 4803POPC   C4A60762  13.613  40.225   7.292
 4803POPC   C1B60763  13.658  39.649   6.219
 4803POPC   C2B60764  13.839  39.653   6.615
 4803POPC   C3B60765  13.749  39.779   7.036
 4803POPC   C4B60766  13.800  39.772   7.487
 4804POPC   NC360767  25.135   7.697   5.152
 4804POPC   PO460768  24.809   8.254   5.486
 4804POPC   GL160769  25.011   8.342   5.842
 4804POPC   GL260770  25.358   8.266   5.813
 4804POPC   C1A60771  25.064   8.135   6.246
 4804POPC   D2A60772  25.095   8.315   6.651
 4804POPC   C3A60773  25.080   7.951   6.907
 4804POPC   C4A60774  24.965   7.905   7.321
 4804POPC   C1B60775  25.487   8.410   6.254
 4804POPC   C2B60776  25.599   8.183   6.617
 4804POPC   C3B60777  25.697   8.159   7.031
 4804POPC   C4B60778  25.476   7.974   7.335
 4805POPC   NC360779  21.336   9.478   5.107
 4805POPC   PO460780  21.773   9.879   5.388
 4805POPC   GL160781  21.548   9.823   5.808
 4805POPC   GL260782  21.204   9.852   5.780
 4805POPC   C1A60783  21.506   9.567   6.224
 4805POPC   D2A60784  21.545   9.311   6.587
 4805POPC   C3A60785  21.674   9.516   6.963
 4805POPC   C4A60786  21.393   9.800   7.161
 4805POPC   C1B60787  21.159   9.934   6.223
 4805POPC   C2B60788  21.218   9.744   6.648
 4805POPC   C3B60789  20.930   9.653   6.981
 4805POPC   C4B60790  20.812   9.824   7.354
 4806POPC   NC360791   6.517  29.480   5.600
 4806POPC   PO460792   6.740  28.897   5.769
 4806POPC   GL160793   6.461  29.142   5.983
 4806POPC   GL260794   6.224  29.428   6.022
 4806POPC   C1A60795   6.618  29.316   6.324
 4806POPC   D2A60796   6.864  29.174   6.598
 4806POPC   C3A60797   6.699  29.362   6.902
 4806POPC   C4A60798   6.872  29.106   7.158
 4806POPC   C1B60799   6.127  29.142   6.362
 4806POPC   C2B60800   6.397  28.848   6.546
 4806POPC   C3B60801   6.460  28.878   6.965
 4806POPC   C4B60802   6.278  29.248   7.158
 4807POPC   NC360803  32.522  26.200   5.644
 4807POPC   PO460804  31.803  26.326   5.554
 4807POPC   GL160805  31.989  26.106   5.889
 4807POPC   GL260806  32.196  25.831   5.823
 4807POPC   C1A60807  32.291  26.128   6.270
 4807POPC   D2A60808  32.511  26.034   6.648
 4807POPC   C3A60809  32.455  26.225   7.037
 4807POPC   C4A60810  32.404  26.496   7.369
 4807POPC   C1B60811  31.961  25.749   6.230
 4807POPC   C2B60812  32.054  25.783   6.681
 4807POPC   C3B60813  32.062  25.898   7.147
 4807POPC   C4B60814  32.229  25.595   7.472
 4808POPC   NC360815  31.102  33.111   5.469
 4808POPC   PO460816  30.451  33.029   5.231
 4808POPC   GL160817  30.686  32.996   5.698
 4808POPC   GL260818  30.676  32.686   5.894
 4808POPC   C1A60819  30.817  33.077   6.170
 4808POPC   D2A60820  30.668  33.318   6.542
 4808POPC   C3A60821  30.482  33.086   6.885
 4808POPC   C4A60822  30.598  33.055   7.305
 4808POPC   C1B60823  30.952  32.615   6.291
 4808POPC   C2B60824  30.770  32.751   6.642
 4808POPC   C3B60825  30.957  32.872   7.002
 4808POPC   C4B60826  31.298  32.667   7.208
 4809POPC   NC360827  44.411  19.277   5.429
 4809POPC   PO460828  44.921  18.799   5.560
 4809POPC   GL160829  44.714  19.086   5.828
 4809POPC   GL260830  44.455  19.348   5.921
 4809POPC   C1A60831  44.649  18.997   6.240
 4809POPC   D2A60832  44.755  19.173   6.611
 4809POPC   C3A60833  44.685  18.916   6.917
 4809POPC   C4A60834  44.430  18.806   7.203
 4809POPC   C1B60835  44.294  19.343   6.333
 4809POPC   C2B60836  44.236  19.091   6.672
 4809POPC   C3B60837  44.276  19.289   7.036
 4809POPC   C4B60838  44.644  19.387   7.137
 4810POPC   NC360839  30.746  35.569   5.545
 4810POPC   PO460840  31.124  34.995   5.519
 4810POPC   GL160841  30.838  35.073   5.876
 4810POPC   GL260842  30.667  35.415   6.024
 4810POPC   C1A60843  30.932  35.138   6.324
 4810POPC   D2A60844  30.629  35.345   6.567
 4810POPC   C3A60845  30.748  35.223   6.959
 4810POPC   C4A60846  30.732  35.143   7.363
 4810POPC   C1B60847  30.302  35.584   6.230
 4810POPC   C2B60848  30.111  35.567   6.634
 4810POPC   C3B60849  30.260  35.673   7.063
 4810POPC   C4B60850  30.679  35.635   7.260
 4811POPC   NC360851   9.605  14.831   5.598
 4811POPC   PO460852   9.728  15.458   5.284
 4811POPC   GL160853   9.707  15.366   5.730
 4811POPC   GL260854   9.439  15.170   5.947
 4811POPC   C1A60855   9.888  15.321   6.142
 4811POPC   D2A60856   9.714  15.227   6.554
 4811POPC   C3A60857   9.893  15.470   6.864
 4811POPC   C4A60858  10.018  15.374   7.263
 4811POPC   C1B60859   9.542  14.824   6.278
 4811POPC   C2B60860   9.538  14.772   6.755
 4811POPC   C3B60861   9.654  15.004   7.123
 4811POPC   C4B60862   9.547  15.149   7.533
 4812POPC   NC360863  11.679   7.099   5.406
 4812POPC   PO460864  11.174   6.703   5.136
 4812POPC   GL160865  11.156   6.594   5.610
 4812POPC   GL260866  11.461   6.781   5.737
 4812POPC   C1A60867  11.177   6.584   6.090
 4812POPC   D2A60868  11.420   6.708   6.468
 4812POPC   C3A60869  11.222   6.885   6.832
 4812POPC   C4A60870  11.235   6.663   7.205
 4812POPC   C1B60871  11.538   7.069   6.122
 4812POPC   C2B60872  11.516   7.237   6.583
 4812POPC   C3B60873  11.644   7.139   7.045
 4812POPC   C4B60874  11.574   6.949   7.453
 4813POPC   NC360875  14.835  32.097   5.148
 4813POPC   PO460876  14.226  32.325   5.375
 4813POPC   GL160877  14.381  32.196   5.748
 4813POPC   GL260878  14.711  32.296   5.730
 4813POPC   C1A60879  14.500  32.071   6.155
 4813POPC   D2A60880  14.570  32.172   6.587
 4813POPC   C3A60881  14.595  32.087   7.008
 4813POPC   C4A60882  14.338  32.328   7.251
 4813POPC   C1B60883  14.705  32.542   6.137
 4813POPC   C2B60884  14.909  32.550   6.565
 4813POPC   C3B60885  14.722  32.584   6.960
 4813POPC   C4B60886  14.810  32.437   7.370
 4814POPC   NC360887   2.016   3.133   4.973
 4814POPC   PO460888   1.840   2.526   5.366
 4814POPC   GL160889   2.093   2.738   5.722
 4814POPC   GL260890   1.819   2.666   5.885
 4814POPC   C1A60891   2.092   2.942   6.191
 4814POPC   D2A60892   1.869   2.739   6.562
 4814POPC   C3A60893   2.053   2.793   6.995
 4814POPC   C4A60894   2.269   2.714   7.391
 4814POPC   C1B60895   2.100   2.449   6.199
 4814POPC   C2B60896   2.140   2.248   6.620
 4814POPC   C3B60897   2.237   2.266   7.084
 4814POPC   C4B60898   2.053   2.270   7.512
 4815POPC   NC360899  11.481  10.221   5.498
 4815POPC   PO460900  11.037  10.689   5.223
 4815POPC   GL160901  11.393  10.670   5.702
 4815POPC   GL260902  11.401  10.939   5.951
 4815POPC   C1A60903  11.450  10.484   6.158
 4815POPC   D2A60904  11.205  10.618   6.548
 4815POPC   C3A60905  11.109  10.387   6.947
 4815POPC   C4A60906  11.237  10.284   7.380
 4815POPC   C1B60907  11.654  10.908   6.351
 4815POPC   C2B60908  11.711  10.569   6.672
 4815POPC   C3B60909  11.600  10.533   7.114
 4815POPC   C4B60910  11.368  10.788   7.433
 4816POPC   NC360911  22.050  36.899   5.088
 4816POPC   PO460912  22.413  37.262   5.567
 4816POPC   GL160913  22.191  36.974   5.789
 4816POPC   GL260914  22.472  36.732   5.727
 4816POPC   C1A60915  21.920  36.923   6.157
 4816POPC   D2A60916  21.810  36.713   6.546
 4816POPC   C3A60917  21.904  36.930   6.931
 4816POPC   C4A60918  21.848  36.674   7.297
 4816POPC   C1B60919  22.549  36.902   6.155
 4816POPC   C2B60920  22.307  36.922   6.544
 4816POPC   C3B60921  22.459  37.022   6.954
 4816POPC   C4B60922  22.688  37.118   7.328
 4817POPC   NC360923   4.422  38.272   5.143
 4817POPC   PO460924   3.932  38.671   5.361
 4817POPC   GL160925   4.169  38.551   5.742
 4817POPC   GL260926   4.524  38.655   5.808
 4817POPC   C1A60927   4.244  38.380   6.158
 4817POPC   D2A60928   4.039  38.238   6.515
 4817POPC   C3A60929   4.336  38.212   6.837
 4817POPC   C4A60930   4.292  38.233   7.255
 4817POPC   C1B60931   4.627  38.773   6.257
 4817POPC   C2B60932   4.647  38.614   6.732
 4817POPC   C3B60933   4.726  38.556   7.221
 4817POPC   C4B60934   5.006  38.635   7.648
 4818POPC   NC360935  19.824   9.595   4.870
 4818POPC   PO460936  19.400   9.420   5.411
 4818POPC   GL160937  19.745   9.487   5.749
 4818POPC   GL260938  19.934   9.815   5.666
 4818POPC   C1A60939  19.903   9.686   6.164
 4818POPC   D2A60940  19.755   9.852   6.557
 4818POPC   C3A60941  19.853   9.586   6.955
 4818POPC   C4A60942  19.996   9.636   7.420
 4818POPC   C1B60943  20.215  10.046   5.987
 4818POPC   C2B60944  20.233  10.033   6.462
 4818POPC   C3B60945  20.064  10.046   6.891
 4818POPC   C4B60946  20.207  10.142   7.280
 4819POPC   NC360947  43.639   6.806   5.425
 4819POPC   PO460948  43.717   6.131   5.511
 4819POPC   GL160949  43.697   6.475   5.853
 4819POPC   GL260950  43.654   6.868   5.919
 4819POPC   C1A60951  43.776   6.552   6.308
 4819POPC   D2A60952  43.761   6.860   6.642
 4819POPC   C3A60953  43.771   6.706   7.058
 4819POPC   C4A60954  44.156   6.556   7.217
 4819POPC   C1B60955  44.110   6.857   6.052
 4819POPC   C2B60956  44.299   6.859   6.470
 4819POPC   C3B60957  44.262   6.959   6.904
 4819POPC   C4B60958  43.975   7.158   7.159
 4820POPC   NC360959  18.212  14.642   5.367
 4820POPC   PO460960  18.719  14.400   4.988
 4820POPC   GL160961  18.611  14.408   5.529
 4820POPC   GL260962  18.368  14.245   5.692
 4820POPC   C1A60963  18.613  14.566   6.011
 4820POPC   D2A60964  18.374  14.683   6.475
 4820POPC   C3A60965  18.546  14.585   6.955
 4820POPC   C4A60966  18.550  14.651   7.435
 4820POPC   C1B60967  18.263  14.222   6.143
 4820POPC   C2B60968  17.979  14.347   6.477
 4820POPC   C3B60969  18.031  14.547   6.879
 4820POPC   C4B60970  18.217  14.307   7.246
 4821POPC   NC360971   8.910   9.989   5.349
 4821POPC   PO460972   9.446   9.564   5.361
 4821POPC   GL160973   9.182   9.610   5.738
 4821POPC   GL260974   8.857   9.706   5.781
 4821POPC   C1A60975   9.110   9.539   6.207
 4821POPC   D2A60976   8.851   9.700   6.524
 4821POPC   C3A60977   8.852   9.545   6.953
 4821POPC   C4A60978   9.188   9.416   7.250
 4821POPC   C1B60979   8.786  10.073   6.063
 4821POPC   C2B60980   8.805  10.219   6.490
 4821POPC   C3B60981   8.986  10.071   6.882
 4821POPC   C4B60982   8.949   9.899   7.296
 4822POPC   NC360983  26.190  27.071   5.473
 4822POPC   PO460984  25.978  26.459   5.495
 4822POPC   GL160985  25.952  26.771   5.795
 4822POPC   GL260986  26.282  26.679   5.897
 4822POPC   C1A60987  25.899  26.960   6.193
 4822POPC   D2A60988  26.064  26.816   6.590
 4822POPC   C3A60989  26.025  27.014   7.023
 4822POPC   C4A60990  25.808  26.912   7.456
 4822POPC   C1B60991  25.955  26.437   6.191
 4822POPC   C2B60992  25.780  26.402   6.636
 4822POPC   C3B60993  26.041  26.504   7.003
 4822POPC   C4B60994  26.189  26.535   7.441
 4823POPC   NC360995  24.065  34.701   5.587
 4823POPC   PO460996  24.694  34.327   5.507
 4823POPC   GL160997  24.557  34.656   5.799
 4823POPC   GL260998  24.696  35.014   5.697
 4823POPC   C1A60999  24.475  34.537   6.248
 4823POPC   D2A61000  24.727  34.329   6.608
 4823POPC   C3A61001  24.589  34.417   7.035
 4823POPC   C4A61002  24.284  34.620   7.308
 4823POPC   C1B61003  24.805  34.937   6.152
 4823POPC   C2B61004  24.652  34.871   6.579
 4823POPC   C3B61005  24.515  34.958   6.986
 4823POPC   C4B61006  24.760  34.820   7.310
 4824POPC   NC361007  28.726   5.265   5.373
 4824POPC   PO461008  28.154   5.513   5.312
 4824POPC   GL161009  28.266   5.231   5.687
 4824POPC   GL261010  28.587   5.077   5.828
 4824POPC   C1A61011  28.164   5.155   6.138
 4824POPC   D2A61012  28.375   5.356   6.487
 4824POPC   C3A61013  28.410   5.397   6.939
 4824POPC   C4A61014  28.154   5.177   7.271
 4824POPC   C1B61015  28.502   4.790   6.197
 4824POPC   C2B61016  28.328   4.844   6.601
 4824POPC   C3B61017  28.536   4.916   6.994
 4824POPC   C4B61018  28.807   4.769   7.317
 4825POPC   NC361019  13.892  41.293   5.691
 4825POPC   PO461020  13.579  41.511   5.206
 4825POPC   GL161021  13.476  41.577   5.730
 4825POPC   GL261022  13.785  41.700   5.975
 4825POPC   C1A61023  13.457  41.396   6.211
 4825POPC   D2A61024  13.623  41.509   6.653
 4825POPC   C3A61025  13.747  41.253   7.052
 4825POPC   C4A61026  14.020  41.322   7.431
 4825POPC   C1B61027  13.512  41.916   6.310
 4825POPC   C2B61028  13.537  42.026   6.748
 4825POPC   C3B61029  13.772  41.778   7.062
 4825POPC   C4B61030  13.387  41.591   7.252
 4826POPC   NC361031  10.995  21.811   5.382
 4826POPC   PO461032  11.323  21.222   5.481
 4826POPC   GL161033  11.210  21.525   5.800
 4826POPC   GL261034  10.973  21.437   6.064
 4826POPC   C1A61035  11.467  21.522   6.186
 4826POPC   D2A61036  11.362  21.358   6.584
 4826POPC   C3A61037  11.138  21.582   6.876
 4826POPC   C4A61038  11.334  21.663   7.238
 4826POPC   C1B61039  10.879  21.242   6.477
 4826POPC   C2B61040  11.144  20.926   6.706
 4826POPC   C3B61041  11.404  21.093   7.049
 4826POPC   C4B61042  11.208  21.082   7.446
 4827POPC   NC361043   8.755  21.457   5.380
 4827POPC   PO461044   9.379  21.465   5.198
 4827POPC   GL161045   9.210  21.481   5.711
 4827POPC   GL261046   8.990  21.251   5.871
 4827POPC   C1A61047   9.028  21.679   6.142
 4827POPC   D2A61048   8.790  21.569   6.551
 4827POPC   C3A61049   8.961  21.513   6.972
 4827POPC   C4A61050   9.154  21.773   7.269
 4827POPC   C1B61051   8.687  21.037   6.163
 4827POPC   C2B61052   8.538  21.084   6.586
 4827POPC   C3B61053   8.512  21.305   6.966
 4827POPC   C4B61054   8.716  21.129   7.320
 4828POPC   NC361055  42.047  44.712   5.488
 4828POPC   PO461056  42.610  44.275   5.380
 4828POPC   GL161057  42.473  44.376   5.816
 4828POPC   GL261058  42.329  44.716   5.905
 4828POPC   C1A61059  42.634  44.459   6.245
 4828POPC   D2A61060  42.496  44.309   6.644
 4828POPC   C3A61061  42.351  44.627   6.901
 4828POPC   C4A61062  42.513  44.601   7.300
 4828POPC   C1B61063  42.480   0.105   6.124
 4828POPC   C2B61064  42.490   0.328   6.511
 4828POPC   C3B61065  42.513   0.107   6.883
 4828POPC   C4B61066  42.260   0.040   7.233
 4829POPC   NC361067  25.756   9.207   5.543
 4829POPC   PO461068  26.179   8.667   5.384
 4829POPC   GL161069  26.013   8.817   5.804
 4829POPC   GL261070  25.835   9.097   6.024
 4829POPC   C1A61071  26.266   8.873   6.156
 4829POPC   D2A61072  26.415   8.932   6.515
 4829POPC   C3A61073  26.137   9.008   6.833
 4829POPC   C4A61074  26.259   8.999   7.254
 4829POPC   C1B61075  25.823   8.872   6.437
 4829POPC   C2B61076  25.595   8.723   6.814
 4829POPC   C3B61077  25.722   9.018   7.148
 4829POPC   C4B61078  25.975   9.422   7.114
 4830POPC   NC361079   9.188  37.555   5.400
 4830POPC   PO461080   8.883  38.137   5.288
 4830POPC   GL161081   8.915  37.905   5.714
 4830POPC   GL261082   8.957  37.534   5.837
 4830POPC   C1A61083   9.077  37.918   6.150
 4830POPC   D2A61084   8.875  38.021   6.554
 4830POPC   C3A61085   8.977  37.781   6.941
 4830POPC   C4A61086   8.620  37.637   7.189
 4830POPC   C1B61087   9.091  37.408   6.220
 4830POPC   C2B61088   8.897  37.438   6.587
 4830POPC   C3B61089   8.951  37.268   6.982
 4830POPC   C4B61090   9.284  37.397   7.239
 4831POPC   NC361091  32.183  34.194   5.579
 4831POPC   PO461092  31.934  34.921   5.472
 4831POPC   GL161093  32.154  34.703   5.755
 4831POPC   GL261094  32.492  34.638   5.616
 4831POPC   C1A61095  32.145  34.576   6.186
 4831POPC   D2A61096  32.368  34.314   6.456
 4831POPC   C3A61097  32.168  34.229   6.844
 4831POPC   C4A61098  32.228  34.399   7.255
 4831POPC   C1B61099  32.579  34.810   6.030
 4831POPC   C2B61100  32.472  34.896   6.467
 4831POPC   C3B61101  32.422  34.683   6.853
 4831POPC   C4B61102  32.477  34.873   7.262
 4832POPC   NC361103  24.141  22.514   5.378
 4832POPC   PO461104  23.520  22.251   5.408
 4832POPC   GL161105  23.504  21.979   5.801
 4832POPC   GL261106  23.874  21.977   5.850
 4832POPC   C1A61107  23.509  22.003   6.265
 4832POPC   D2A61108  23.557  22.301   6.594
 4832POPC   C3A61109  23.348  22.214   6.997
 4832POPC   C4A61110  23.363  22.005   7.388
 4832POPC   C1B61111  24.001  22.299   6.076
 4832POPC   C2B61112  24.181  22.257   6.455
 4832POPC   C3B61113  23.995  22.178   6.822
 4832POPC   C4B61114  23.838  22.122   7.231
 4833POPC   NC361115  14.807   2.976   5.393
 4833POPC   PO461116  15.373   2.869   5.276
 4833POPC   GL161117  15.312   2.660   5.718
 4833POPC   GL261118  15.382   2.319   5.885
 4833POPC   C1A61119  15.069   2.693   6.120
 4833POPC   D2A61120  14.947   2.566   6.554
 4833POPC   C3A61121  14.849   2.773   6.960
 4833POPC   C4A61122  14.798   2.789   7.426
 4833POPC   C1B61123  15.457   2.404   6.304
 4833POPC   C2B61124  15.357   2.331   6.713
 4833POPC   C3B61125  15.355   2.741   6.879
 4833POPC   C4B61126  15.256   2.954   7.260
 4834POPC   NC361127  22.040   5.284   5.291
 4834POPC   PO461128  22.098   4.585   5.254
 4834POPC   GL161129  22.237   4.914   5.617
 4834POPC   GL261130  21.941   5.133   5.749
 4834POPC   C1A61131  22.348   5.100   6.072
 4834POPC   D2A61132  22.476   5.272   6.510
 4834POPC   C3A61133  22.323   5.050   6.909
 4834POPC   C4A61134  22.067   4.872   7.287
 4834POPC   C1B61135  21.823   5.109   6.145
 4834POPC   C2B61136  21.959   5.247   6.516
 4834POPC   C3B61137  21.825   5.145   6.900
 4834POPC   C4B61138  21.943   5.339   7.257
 4835POPC   NC361139   3.280   2.275   5.515
 4835POPC   PO461140   3.679   1.767   5.406
 4835POPC   GL161141   3.551   1.916   5.837
 4835POPC   GL261142   3.879   2.035   5.864
 4835POPC   C1A61143   3.360   1.900   6.302
 4835POPC   D2A61144   3.143   2.146   6.648
 4835POPC   C3A61145   3.282   2.129   7.078
 4835POPC   C4A61146   3.397   1.775   7.344
 4835POPC   C1B61147   3.882   1.951   6.308
 4835POPC   C2B61148   3.744   2.099   6.702
 4835POPC   C3B61149   3.789   2.049   7.147
 4835POPC   C4B61150   3.747   2.059   7.594
 4836POPC   NC361151  13.208  12.630   5.459
 4836POPC   PO461152  12.587  12.417   5.526
 4836POPC   GL161153  12.791  12.770   5.753
 4836POPC   GL261154  13.105  12.673   5.949
 4836POPC   C1A61155  12.745  13.026   6.128
 4836POPC   D2A61156  12.575  12.896   6.525
 4836POPC   C3A61157  12.681  13.053   6.899
 4836POPC   C4A61158  12.821  12.790   7.215
 4836POPC   C1B61159  13.277  13.017   6.205
 4836POPC   C2B61160  13.068  13.181   6.573
 4836POPC   C3B61161  13.195  13.100   6.996
 4836POPC   C4B61162  13.169  13.047   7.457
 4837POPC   NC361163  11.835  39.534   5.152
 4837POPC   PO461164  11.626  40.071   5.354
 4837POPC   GL161165  11.914  39.934   5.704
 4837POPC   GL261166  12.255  39.757   5.642
 4837POPC   C1A61167  12.059  39.945   6.144
 4837POPC   D2A61168  12.035  40.182   6.534
 4837POPC   C3A61169  12.057  39.989   6.931
 4837POPC   C4A61170  11.835  39.920   7.296
 4837POPC   C1B61171  12.356  39.525   6.042
 4837POPC   C2B61172  12.224  39.564   6.489
 4837POPC   C3B61173  12.419  39.571   6.898
 4837POPC   C4B61174  12.285  39.701   7.287
 4838POPC   NC361175  32.968  42.707   5.231
 4838POPC   PO461176  33.019  43.355   5.354
 4838POPC   GL161177  33.052  42.971   5.710
 4838POPC   GL261178  33.418  42.925   5.879
 4838POPC   C1A61179  33.015  42.807   6.152
 4838POPC   D2A61180  32.905  42.948   6.538
 4838POPC   C3A61181  33.229  42.952   6.838
 4838POPC   C4A61182  33.067  42.888   7.217
 4838POPC   C1B61183  33.258  43.253   6.170
 4838POPC   C2B61184  33.163  43.408   6.605
 4838POPC   C3B61185  33.328  43.428   7.041
 4838POPC   C4B61186  33.317  43.476   7.497
 4839POPC   NC361187   8.463   3.481   5.011
 4839POPC   PO461188   8.023   3.974   5.222
 4839POPC   GL161189   7.944   3.662   5.589
 4839POPC   GL261190   8.051   3.827   5.922
 4839POPC   C1A61191   8.002   3.326   5.955
 4839POPC   D2A61192   8.174   3.399   6.387
 4839POPC   C3A61193   8.244   3.236   6.816
 4839POPC   C4A61194   8.244   3.474   7.248
 4839POPC   C1B61195   8.407   3.857   6.231
 4839POPC   C2B61196   8.507   4.048   6.611
 4839POPC   C3B61197   8.407   3.862   6.977
 4839POPC   C4B61198   8.026   3.948   7.250
 4840POPC   NC361199   5.002  38.809   5.618
 4840POPC   PO461200   5.435  39.110   5.221
 4840POPC   GL161201   5.259  39.219   5.726
 4840POPC   GL261202   5.077  39.566   5.836
 4840POPC   C1A61203   5.046  39.168   6.166
 4840POPC   D2A61204   5.229  39.352   6.551
 4840POPC   C3A61205   5.090  39.098   6.868
 4840POPC   C4A61206   4.977  38.991   7.277
 4840POPC   C1B61207   4.777  39.602   6.238
 4840POPC   C2B61208   4.777  39.512   6.714
 4840POPC   C3B61209   4.831  39.496   7.191
 4840POPC   C4B61210   4.561  39.516   7.602
 4841POPC   NC361211  31.548  20.657   5.420
 4841POPC   PO461212  31.668  20.032   5.515
 4841POPC   GL161213  31.517  20.348   5.845
 4841POPC   GL261214  31.301  20.684   5.851
 4841POPC   C1A61215  31.461  20.473   6.286
 4841POPC   D2A61216  31.476  20.364   6.690
 4841POPC   C3A61217  31.518  20.613   7.037
 4841POPC   C4A61218  31.769  20.617   7.381
 4841POPC   C1B61219  31.293  20.966   6.223
 4841POPC   C2B61220  31.209  20.855   6.664
 4841POPC   C3B61221  31.198  20.999   7.105
 4841POPC   C4B61222  31.122  20.779   7.489
 4842POPC   NC361223  28.184  30.123   5.392
 4842POPC   PO461224  28.598  29.592   5.461
 4842POPC   GL161225  28.305  29.780   5.796
 4842POPC   GL261226  28.295  30.142   5.887
 4842POPC   C1A61227  28.258  29.822   6.273
 4842POPC   D2A61228  28.208  30.094   6.630
 4842POPC   C3A61229  28.361  29.914   7.031
 4842POPC   C4A61230  28.751  29.810   7.284
 4842POPC   C1B61231  27.902  30.190   6.152
 4842POPC   C2B61232  27.733  30.309   6.587
 4842POPC   C3B61233  27.907  30.222   7.016
 4842POPC   C4B61234  28.235  30.341   7.297
 4843POPC   NC361235   6.750  32.133   5.391
 4843POPC   PO461236   6.288  32.614   5.332
 4843POPC   GL161237   6.411  32.411   5.733
 4843POPC   GL261238   6.477  32.044   5.830
 4843POPC   C1A61239   6.514  32.478   6.168
 4843POPC   D2A61240   6.327  32.287   6.545
 4843POPC   C3A61241   6.436  32.428   6.952
 4843POPC   C4A61242   6.594  32.165   7.246
 4843POPC   C1B61243   6.696  32.008   6.266
 4843POPC   C2B61244   6.846  32.166   6.700
 4843POPC   C3B61245   7.041  31.919   7.069
 4843POPC   C4B61246   7.169  31.872   7.535
 4844POPC   NC361247  43.558  21.867   5.384
 4844POPC   PO461248  43.942  22.480   5.456
 4844POPC   GL161249  43.855  22.289   5.830
 4844POPC   GL261250  43.677  21.988   5.841
 4844POPC   C1A61251  44.044  22.074   6.167
 4844POPC   D2A61252  43.943  21.899   6.557
 4844POPC   C3A61253  43.856  22.241   6.848
 4844POPC   C4A61254  44.032  22.473   7.197
 4844POPC   C1B61255  43.547  21.792   6.201
 4844POPC   C2B61256  43.450  21.672   6.605
 4844POPC   C3B61257  43.687  21.728   6.963
 4844POPC   C4B61258  43.796  21.999   7.303
 4845POPC   NC361259  30.860   3.139   5.478
 4845POPC   PO461260  30.472   2.608   5.696
 4845POPC   GL161261  30.545   2.931   5.930
 4845POPC   GL261262  30.896   2.881   5.914
 4845POPC   C1A61263  30.381   2.879   6.347
 4845POPC   D2A61264  30.199   2.674   6.724
 4845POPC   C3A61265  30.397   2.888   7.044
 4845POPC   C4A61266  30.836   2.998   7.128
 4845POPC   C1B61267  30.860   2.674   6.296
 4845POPC   C2B61268  30.737   2.700   6.718
 4845POPC   C3B61269  30.974   2.519   7.083
 4845POPC   C4B61270  31.105   2.636   7.479
 4846POPC   NC361271  11.598  29.230   5.574
 4846POPC   PO461272  12.226  28.959   5.550
 4846POPC   GL161273  12.328  29.223   5.901
 4846POPC   GL261274  11.979  29.304   5.913
 4846POPC   C1A61275  12.260  29.155   6.312
 4846POPC   D2A61276  12.009  28.889   6.564
 4846POPC   C3A61277  12.262  29.039   6.870
 4846POPC   C4A61278  12.277  29.167   7.264
 4846POPC   C1B61279  11.677  29.130   6.227
 4846POPC   C2B61280  11.468  29.242   6.643
 4846POPC   C3B61281  11.603  29.326   7.047
 4846POPC   C4B61282  11.818  29.488   7.412
 4847POPC   NC361283  43.202  27.372   5.294
 4847POPC   PO461284  42.861  27.910   5.541
 4847POPC   GL161285  42.939  27.656   5.911
 4847POPC   GL261286  43.013  27.292   5.887
 4847POPC   C1A61287  42.925  27.511   6.337
 4847POPC   D2A61288  43.185  27.609   6.696
 4847POPC   C3A61289  43.078  27.542   7.118
 4847POPC   C4A61290  42.679  27.400   7.145
 4847POPC   C1B61291  43.323  27.147   6.203
 4847POPC   C2B61292  43.527  27.224   6.582
 4847POPC   C3B61293  43.423  27.165   7.027
 4847POPC   C4B61294  43.493  27.415   7.408
 4848POPC   NC361295  26.302  32.710   5.279
 4848POPC   PO461296  26.129  33.331   5.471
 4848POPC   GL161297  26.015  33.114   5.824
 4848POPC   GL261298  25.917  32.774   5.761
 4848POPC   C1A61299  26.056  33.187   6.249
 4848POPC   D2A61300  25.900  33.339   6.625
 4848POPC   C3A61301  26.069  33.220   7.001
 4848POPC   C4A61302  25.805  33.103   7.341
 4848POPC   C1B61303  26.024  32.650   6.172
 4848POPC   C2B61304  26.074  32.812   6.599
 4848POPC   C3B61305  25.873  32.742   6.972
 4848POPC   C4B61306  26.029  32.640   7.367
 4849POPC   NC361307  20.164  13.993   5.133
 4849POPC   PO461308  19.640  14.368   5.376
 4849POPC   GL161309  19.662  14.183   5.770
 4849POPC   GL261310  19.866  14.487   5.816
 4849POPC   C1A61311  19.829  14.156   6.203
 4849POPC   D2A61312  19.702  14.320   6.582
 4849POPC   C3A61313  19.833  14.124   6.947
 4849POPC   C4A61314  19.764  14.295   7.364
 4849POPC   C1B61315  19.745  14.700   6.171
 4849POPC   C2B61316  19.926  14.782   6.572
 4849POPC   C3B61317  19.831  14.651   6.984
 4849POPC   C4B61318  20.033  14.780   7.362
 4850POPC   NC361319  22.672   7.896   5.273
 4850POPC   PO461320  23.167   8.400   5.418
 4850POPC   GL161321  22.899   8.333   5.754
 4850POPC   GL261322  23.040   8.026   5.823
 4850POPC   C1A61323  22.701   8.282   6.168
 4850POPC   D2A61324  22.888   8.328   6.599
 4850POPC   C3A61325  22.674   8.542   6.939
 4850POPC   C4A61326  22.605   8.603   7.359
 4850POPC   C1B61327  23.210   8.249   6.191
 4850POPC   C2B61328  23.391   8.217   6.586
 4850POPC   C3B61329  23.208   8.118   6.953
 4850POPC   C4B61330  22.992   8.282   7.276
 4851POPC   NC361331   3.036   7.261   5.622
 4851POPC   PO461332   2.791   6.777   5.258
 4851POPC   GL161333   2.736   6.555   5.684
 4851POPC   GL261334   2.454   6.747   5.850
 4851POPC   C1A61335   2.881   6.538   6.121
 4851POPC   D2A61336   3.006   6.822   6.458
 4851POPC   C3A61337   2.832   6.617   6.801
 4851POPC   C4A61338   2.984   6.449   7.163
 4851POPC   C1B61339   2.351   6.440   6.183
 4851POPC   C2B61340   2.393   6.324   6.657
 4851POPC   C3B61341   2.456   6.443   7.137
 4851POPC   C4B61342   2.415   6.329   7.636
 4852POPC   NC361343  40.863  14.416   5.553
 4852POPC   PO461344  40.324  14.882   5.536
 4852POPC   GL161345  40.446  14.569   5.814
 4852POPC   GL261346  40.503  14.180   5.833
 4852POPC   C1A61347  40.665  14.571   6.163
 4852POPC   D2A61348  40.734  14.743   6.540
 4852POPC   C3A61349  40.543  14.616   6.934
 4852POPC   C4A61350  40.640  14.794   7.339
 4852POPC   C1B61351  40.646  14.092   6.294
 4852POPC   C2B61352  40.849  14.169   6.718
 4852POPC   C3B61353  40.775  14.144   7.166
 4852POPC   C4B61354  40.344  14.234   7.273
 4853POPC   NC361355   7.425  22.421   5.248
 4853POPC   PO461356   7.405  21.800   5.239
 4853POPC   GL161357   7.394  22.043   5.646
 4853POPC   GL261358   7.212  22.319   5.736
 4853POPC   C1A61359   7.558  22.066   6.055
 4853POPC   D2A61360   7.406  22.051   6.468
 4853POPC   C3A61361   7.590  22.198   6.849
 4853POPC   C4A61362   7.396  22.153   7.247
 4853POPC   C1B61363   7.265  22.480   6.156
 4853POPC   C2B61364   7.352  22.573   6.592
 4853POPC   C3B61365   7.193  22.668   7.021
 4853POPC   C4B61366   7.038  22.453   7.413
 4854POPC   NC361367  31.366  23.931   5.487
 4854POPC   PO461368  31.879  23.518   5.316
 4854POPC   GL161369  31.902  23.636   5.788
 4854POPC   GL261370  31.654  23.886   5.912
 4854POPC   C1A61371  31.785  23.533   6.241
 4854POPC   D2A61372  31.368  23.663   6.435
 4854POPC   C3A61373  31.280  23.477   6.836
 4854POPC   C4A61374  31.407  23.380   7.275
 4854POPC   C1B61375  31.445  24.170   6.157
 4854POPC   C2B61376  31.575  24.114   6.547
 4854POPC   C3B61377  31.423  23.964   6.895
 4854POPC   C4B61378  31.400  24.193   7.255
 4855POPC   NC361379  24.254  36.348   5.433
 4855POPC   PO461380  24.573  35.838   5.176
 4855POPC   GL161381  24.607  36.096   5.692
 4855POPC   GL261382  24.298  36.222   5.922
 4855POPC   C1A61383  24.747  36.253   6.146
 4855POPC   D2A61384  24.502  36.223   6.543
 4855POPC   C3A61385  24.646  36.118   6.937
 4855POPC   C4A61386  24.662  36.494   7.165
 4855POPC   C1B61387  24.375  35.879   6.199
 4855POPC   C2B61388  24.307  35.750   6.600
 4855POPC   C3B61389  24.131  35.950   6.930
 4855POPC   C4B61390  24.306  35.957   7.298
 4856POPC   NC361391  37.480  17.334   5.212
 4856POPC   PO461392  37.990  17.182   5.659
 4856POPC   GL161393  37.883  17.588   5.742
 4856POPC   GL261394  37.555  17.683   5.642
 4856POPC   C1A61395  37.923  17.726   6.133
 4856POPC   D2A61396  37.754  17.868   6.493
 4856POPC   C3A61397  37.846  17.603   6.832
 4856POPC   C4A61398  37.672  17.357   7.159
 4856POPC   C1B61399  37.423  17.590   6.095
 4856POPC   C2B61400  37.431  17.466   6.545
 4856POPC   C3B61401  37.315  17.660   6.939
 4856POPC   C4B61402  37.236  17.534   7.364
 4857POPC   NC361403  38.601   3.124   5.532
 4857POPC   PO461404  38.339   2.547   5.469
 4857POPC   GL161405  38.460   2.729   5.850
 4857POPC   GL261406  38.216   2.978   5.838
 4857POPC   C1A61407  38.302   2.696   6.279
 4857POPC   D2A61408  38.200   2.615   6.709
 4857POPC   C3A61409  38.538   2.712   7.031
 4857POPC   C4A61410  38.428   2.596   7.465
 4857POPC   C1B61411  38.466   3.180   6.169
 4857POPC   C2B61412  38.491   3.053   6.602
 4857POPC   C3B61413  38.448   3.213   7.012
 4857POPC   C4B61414  38.450   3.099   7.454
 4858POPC   NC361415  25.836  30.509   5.296
 4858POPC   PO461416  26.387  30.555   5.643
 4858POPC   GL161417  26.060  30.712   5.866
 4858POPC   GL261418  25.761  30.807   5.701
 4858POPC   C1A61419  25.952  30.906   6.262
 4858POPC   D2A61420  25.977  31.080   6.690
 4858POPC   C3A61421  26.146  30.787   7.016
 4858POPC   C4A61422  26.155  30.740   7.471
 4858POPC   C1B61423  25.607  30.556   6.050
 4858POPC   C2B61424  25.649  30.548   6.509
 4858POPC   C3B61425  25.787  30.429   6.926
 4858POPC   C4B61426  25.685  30.687   7.286
 4859POPC   NC361427  11.464  28.472   5.489
 4859POPC   PO461428  11.030  28.023   5.233
 4859POPC   GL161429  11.034  28.275   5.680
 4859POPC   GL261430  10.870  28.606   5.729
 4859POPC   C1A61431  11.129  28.276   6.154
 4859POPC   D2A61432  11.431  28.307   6.550
 4859POPC   C3A61433  11.427  28.201   7.013
 4859POPC   C4A61434  11.792  28.205   7.319
 4859POPC   C1B61435  10.849  28.711   6.175
 4859POPC   C2B61436  10.935  28.452   6.578
 4859POPC   C3B61437  10.999  28.531   7.037
 4859POPC   C4B61438  10.974  28.502   7.501
 4860POPC   NC361439  34.336  16.787   5.170
 4860POPC   PO461440  34.926  17.036   5.301
 4860POPC   GL161441  34.856  16.949   5.742
 4860POPC   GL261442  34.479  16.986   5.812
 4860POPC   C1A61443  34.810  16.706   6.155
 4860POPC   D2A61444  34.876  16.548   6.583
 4860POPC   C3A61445  34.816  16.734   7.002
 4860POPC   C4A61446  34.854  16.891   7.441
 4860POPC   C1B61447  34.282  16.765   6.196
 4860POPC   C2B61448  34.325  16.472   6.582
 4860POPC   C3B61449  34.313  16.608   7.027
 4860POPC   C4B61450  34.431  17.029   7.189
 4861POPC   NC361451  32.441   2.997   5.201
 4861POPC   PO461452  33.031   2.937   5.498
 4861POPC   GL161453  33.028   2.812   5.916
 4861POPC   GL261454  32.795   2.568   6.010
 4861POPC   C1A61455  32.934   3.019   6.305
 4861POPC   D2A61456  33.069   3.051   6.739
 4861POPC   C3A61457  32.894   2.861   7.127
 4861POPC   C4A61458  33.089   2.874   7.518
 4861POPC   C1B61459  33.105   2.527   6.375
 4861POPC   C2B61460  33.123   2.512   6.841
 4861POPC   C3B61461  33.189   2.433   7.302
 4861POPC   C4B61462  33.028   2.130   7.603
 4862POPC   NC361463  10.706  35.276   5.277
 4862POPC   PO461464  10.210  35.695   5.229
 4862POPC   GL161465  10.413  35.555   5.621
 4862POPC   GL261466  10.784  35.600   5.681
 4862POPC   C1A61467  10.506  35.278   5.990
 4862POPC   D2A61468  10.567  35.347   6.429
 4862POPC   C3A61469  10.229  35.290   6.742
 4862POPC   C4A61470  10.333  35.256   7.183
 4862POPC   C1B61471  10.965  35.523   6.096
 4862POPC   C2B61472  11.115  35.568   6.517
 4862POPC   C3B61473  10.926  35.636   6.918
 4862POPC   C4B61474  10.846  35.333   7.243
 4863POPC   NC361475  30.460  44.097   5.370
 4863POPC   PO461476  30.467  43.481   5.313
 4863POPC   GL161477  30.480  43.600   5.738
 4863POPC   GL261478  30.790  43.479   5.807
 4863POPC   C1A61479  30.617  43.859   6.128
 4863POPC   D2A61480  30.434  44.037   6.522
 4863POPC   C3A61481  30.651  44.009   6.963
 4863POPC   C4A61482  30.550  43.950   7.425
 4863POPC   C1B61483  31.011  43.455   6.213
 4863POPC   C2B61484  30.989  43.559   6.649
 4863POPC   C3B61485  31.080  43.408   7.040
 4863POPC   C4B61486  31.014  43.737   7.351
 4864POPC   NC361487   8.334   2.569   5.505
 4864POPC   PO461488   8.543   3.184   5.358
 4864POPC   GL161489   8.362   3.024   5.824
 4864POPC   GL261490   8.043   2.829   5.920
 4864POPC   C1A61491   8.323   2.921   6.313
 4864POPC   D2A61492   8.587   2.724   6.613
 4864POPC   C3A61493   8.392   2.725   6.967
 4864POPC   C4A61494   8.261   2.979   7.252
 4864POPC   C1B61495   7.902   2.612   6.328
 4864POPC   C2B61496   7.929   2.611   6.808
 4864POPC   C3B61497   7.908   2.599   7.284
 4864POPC   C4B61498   7.636   2.616   7.658
 4865POPC   NC361499  22.315   1.088   5.414
 4865POPC   PO461500  22.124   1.609   5.049
 4865POPC   GL161501  22.122   1.456   5.662
 4865POPC   GL261502  22.135   1.121   5.873
 4865POPC   C1A61503  21.891   1.463   6.133
 4865POPC   D2A61504  21.690   1.456   6.557
 4865POPC   C3A61505  21.871   1.336   6.958
 4865POPC   C4A61506  22.134   1.067   7.207
 4865POPC   C1B61507  22.305   0.965   6.222
 4865POPC   C2B61508  22.230   1.130   6.612
 4865POPC   C3B61509  22.496   0.956   6.895
 4865POPC   C4B61510  22.535   0.793   7.290
 4866POPC   NC361511  36.176   2.592   5.411
 4866POPC   PO461512  36.080   3.179   5.638
 4866POPC   GL161513  35.877   2.864   5.854
 4866POPC   GL261514  35.984   2.507   5.878
 4866POPC   C1A61515  35.809   2.898   6.280
 4866POPC   D2A61516  35.890   3.058   6.646
 4866POPC   C3A61517  35.817   2.766   6.975
 4866POPC   C4A61518  35.971   2.704   7.401
 4866POPC   C1B61519  36.250   2.634   6.231
 4866POPC   C2B61520  36.206   2.620   6.664
 4866POPC   C3B61521  36.356   2.694   7.045
 4866POPC   C4B61522  36.423   2.451   7.391
 4867POPC   NC361523  11.725  37.814   5.710
 4867POPC   PO461524  11.377  37.305   5.400
 4867POPC   GL161525  11.300  37.417   5.795
 4867POPC   GL261526  11.221  37.778   5.753
 4867POPC   C1A61527  11.495  37.378   6.194
 4867POPC   D2A61528  11.582  37.686   6.515
 4867POPC   C3A61529  11.355  37.700   6.893
 4867POPC   C4A61530  11.523  37.710   7.266
 4867POPC   C1B61531  11.146  37.748   6.208
 4867POPC   C2B61532  10.945  37.719   6.598
 4867POPC   C3B61533  10.883  38.017   6.914
 4867POPC   C4B61534  11.041  37.871   7.288
 4868POPC   NC361535  12.213  30.172   5.312
 4868POPC   PO461536  12.026  29.509   5.326
 4868POPC   GL161537  12.130  29.775   5.740
 4868POPC   GL261538  11.960  30.127   5.810
 4868POPC   C1A61539  11.978  29.733   6.208
 4868POPC   D2A61540  11.931  29.426   6.574
 4868POPC   C3A61541  12.071  29.548   6.967
 4868POPC   C4A61542  12.036  29.962   7.131
 4868POPC   C1B61543  12.335  30.174   6.107
 4868POPC   C2B61544  12.504  30.147   6.557
 4868POPC   C3B61545  12.421  30.331   6.995
 4868POPC   C4B61546  12.424  30.129   7.413
 4869POPC   NC361547   2.078  39.687   5.226
 4869POPC   PO461548   1.739  40.157   5.501
 4869POPC   GL161549   2.007  40.026   5.862
 4869POPC   GL261550   2.198  39.696   5.841
 4869POPC   C1A61551   2.034  40.221   6.280
 4869POPC   D2A61552   2.180  40.414   6.678
 4869POPC   C3A61553   1.833  40.375   6.957
 4869POPC   C4A61554   1.756  40.149   7.341
 4869POPC   C1B61555   1.978  39.694   6.265
 4869POPC   C2B61556   1.987  39.689   6.730
 4869POPC   C3B61557   2.109  39.945   7.032
 4869POPC   C4B61558   2.205  39.965   7.462
 4870POPC   NC361559  40.210  28.422   5.544
 4870POPC   PO461560  39.626  28.158   5.499
 4870POPC   GL161561  39.814  28.219   5.880
 4870POPC   GL261562  39.690  28.557   5.917
 4870POPC   C1A61563  39.897  28.293   6.323
 4870POPC   D2A61564  40.182  28.330   6.740
 4870POPC   C3A61565  40.085  28.182   7.193
 4870POPC   C4A61566  39.817  28.020   7.536
 4870POPC   C1B61567  39.748  28.781   6.325
 4870POPC   C2B61568  39.727  28.579   6.707
 4870POPC   C3B61569  39.861  28.609   7.088
 4870POPC   C4B61570  39.678  28.703   7.415
 4871POPC   NC361571  23.988   1.131   5.531
 4871POPC   PO461572  23.531   1.504   5.076
 4871POPC   GL161573  23.492   1.343   5.571
 4871POPC   GL261574  23.473   1.026   5.666
 4871POPC   C1A61575  23.680   1.374   6.039
 4871POPC   D2A61576  23.904   1.227   6.398
 4871POPC   C3A61577  23.895   1.452   6.784
 4871POPC   C4A61578  23.770   1.315   7.205
 4871POPC   C1B61579  23.212   1.211   5.992
 4871POPC   C2B61580  23.349   1.262   6.420
 4871POPC   C3B61581  23.479   1.133   6.819
 4871POPC   C4B61582  23.269   1.336   7.177
 4872POPC   NC361583   4.824  42.446   5.405
 4872POPC   PO461584   5.359  42.079   5.278
 4872POPC   GL161585   5.242  42.248   5.706
 4872POPC   GL261586   5.397  42.542   5.895
 4872POPC   C1A61587   5.112  42.015   6.093
 4872POPC   D2A61588   5.162  41.927   6.558
 4872POPC   C3A61589   5.015  42.247   6.831
 4872POPC   C4A61590   4.903  42.379   7.224
 4872POPC   C1B61591   5.321  42.416   6.347
 4872POPC   C2B61592   5.412  42.643   6.738
 4872POPC   C3B61593   5.431  42.392   7.118
 4872POPC   C4B61594   5.394  41.942   7.045
 4873POPC   NC361595  41.029  28.725   5.373
 4873POPC   PO461596  40.624  28.207   5.480
 4873POPC   GL161597  40.639  28.441   5.869
 4873POPC   GL261598  40.779  28.787   5.821
 4873POPC   C1A61599  40.696  28.446   6.331
 4873POPC   D2A61600  40.623  28.671   6.719
 4873POPC   C3A61601  40.814  28.480   7.081
 4873POPC   C4A61602  40.601  28.051   7.161
 4873POPC   C1B61603  41.122  28.546   6.048
 4873POPC   C2B61604  41.206  28.299   6.432
 4873POPC   C3B61605  41.014  28.081   6.798
 4873POPC   C4B61606  41.114  28.064   7.236
 4874POPC   NC361607  37.223  30.062   5.494
 4874POPC   PO461608  36.933  29.433   5.460
 4874POPC   GL161609  36.872  29.784   5.778
 4874POPC   GL261610  37.149  29.975   5.987
 4874POPC   C1A61611  36.674  29.877   6.187
 4874POPC   D2A61612  36.962  29.902   6.540
 4874POPC   C3A61613  36.730  29.843   6.902
 4874POPC   C4A61614  36.739  29.984   7.304
 4874POPC   C1B61615  36.905  30.316   6.183
 4874POPC   C2B61616  36.669  30.327   6.565
 4874POPC   C3B61617  36.822  30.377   6.970
 4874POPC   C4B61618  36.590  30.463   7.305
 4875POPC   NC361619   8.350  38.859   5.359
 4875POPC   PO461620   7.997  39.437   5.368
 4875POPC   GL161621   8.191  39.272   5.745
 4875POPC   GL261622   8.264  39.564   5.913
 4875POPC   C1A61623   8.331  39.090   6.146
 4875POPC   D2A61624   8.069  39.020   6.499
 4875POPC   C3A61625   8.286  38.991   6.871
 4875POPC   C4A61626   8.224  39.052   7.285
 4875POPC   C1B61627   8.119  39.529   6.306
 4875POPC   C2B61628   8.333  39.443   6.660
 4875POPC   C3B61629   8.323  39.512   7.081
 4875POPC   C4B61630   7.890  39.440   7.227
 4876POPC   NC361631  11.127  27.657   5.514
 4876POPC   PO461632  11.703  28.077   5.630
 4876POPC   GL161633  11.334  27.886   5.916
 4876POPC   GL261634  11.242  27.502   5.984
 4876POPC   C1A61635  11.191  27.813   6.374
 4876POPC   D2A61636  11.353  27.456   6.643
 4876POPC   C3A61637  11.528  27.663   6.986
 4876POPC   C4A61638  11.498  27.815   7.401
 4876POPC   C1B61639  10.938  27.369   6.344
 4876POPC   C2B61640  10.866  27.490   6.799
 4876POPC   C3B61641  11.067  27.561   7.194
 4876POPC   C4B61642  11.029  27.283   7.555
 4877POPC   NC361643   0.728  31.671   5.597
 4877POPC   PO461644   1.201  31.346   5.175
 4877POPC   GL161645   1.146  31.277   5.684
 4877POPC   GL261646   0.941  31.038   5.734
 4877POPC   C1A61647   1.362  31.441   6.082
 4877POPC   D2A61648   1.441  31.745   6.413
 4877POPC   C3A61649   1.512  31.605   6.830
 4877POPC   C4A61650   1.368  31.555   7.229
 4877POPC   C1B61651   1.041  31.074   6.183
 4877POPC   C2B61652   1.115  31.318   6.580
 4877POPC   C3B61653   0.941  31.148   6.988
 4877POPC   C4B61654   0.897  31.286   7.409
 4878POPC   NC361655   4.137   6.010   5.472
 4878POPC   PO461656   4.674   5.683   5.493
 4878POPC   GL161657   4.517   6.009   5.844
 4878POPC   GL261658   4.161   6.029   5.972
 4878POPC   C1A61659   4.565   6.009   6.310
 4878POPC   D2A61660   4.460   5.732   6.655
 4878POPC   C3A61661   4.469   5.879   7.066
 4878POPC   C4A61662   4.150   6.145   7.196
 4878POPC   C1B61663   4.026   5.816   6.306
 4878POPC   C2B61664   3.847   5.799   6.691
 4878POPC   C3B61665   4.054   5.578   6.993
 4878POPC   C4B61666   4.102   5.703   7.422
 4879POPC   NC361667  22.713  39.347   5.482
 4879POPC   PO461668  23.414  39.036   5.436
 4879POPC   GL161669  23.047  39.076   5.797
 4879POPC   GL261670  22.807  39.366   5.969
 4879POPC   C1A61671  22.786  38.901   6.158
 4879POPC   D2A61672  22.645  38.969   6.599
 4879POPC   C3A61673  22.959  38.885   6.918
 4879POPC   C4A61674  23.139  39.187   7.195
 4879POPC   C1B61675  23.155  39.344   6.252
 4879POPC   C2B61676  23.236  39.302   6.705
 4879POPC   C3B61677  23.008  39.622   6.983
 4879POPC   C4B61678  22.705  39.875   7.218
 4880POPC   NC361679   9.057   5.879   5.322
 4880POPC   PO461680   8.443   5.776   5.605
 4880POPC   GL161681   8.828   5.882   5.887
 4880POPC   GL261682   9.195   5.908   5.802
 4880POPC   C1A61683   9.070   5.710   6.272
 4880POPC   D2A61684   9.059   5.421   6.631
 4880POPC   C3A61685   8.765   5.621   6.951
 4880POPC   C4A61686   8.825   5.981   7.191
 4880POPC   C1B61687   9.380   6.112   6.159
 4880POPC   C2B61688   9.470   5.923   6.553
 4880POPC   C3B61689   9.255   5.911   6.954
 4880POPC   C4B61690   9.245   6.262   7.277
 4881POPC   NC361691  42.454  24.130   5.628
 4881POPC   PO461692  42.288  23.471   5.431
 4881POPC   GL161693  42.546  23.488   5.812
 4881POPC   GL261694  42.697  23.809   5.929
 4881POPC   C1A61695  42.392  23.594   6.255
 4881POPC   D2A61696  42.289  23.802   6.639
 4881POPC   C3A61697  42.465  23.611   6.986
 4881POPC   C4A61698  42.145  23.489   7.182
 4881POPC   C1B61699  42.618  24.063   6.338
 4881POPC   C2B61700  42.633  24.131   6.812
 4881POPC   C3B61701  42.352  24.062   7.155
 4881POPC   C4B61702  42.437  23.766   7.507
 4882POPC   NC361703   8.150  18.090   5.641
 4882POPC   PO461704   8.321  17.447   5.516
 4882POPC   GL161705   8.167  17.629   5.876
 4882POPC   GL261706   8.498  17.755   5.934
 4882POPC   C1A61707   8.150  17.765   6.315
 4882POPC   D2A61708   8.350  17.570   6.661
 4882POPC   C3A61709   8.139  17.566   7.051
 4882POPC   C4A61710   7.875  17.209   7.163
 4882POPC   C1B61711   8.536  17.354   6.193
 4882POPC   C2B61712   8.648  17.159   6.597
 4882POPC   C3B61713   8.541  17.275   7.032
 4882POPC   C4B61714   8.545  17.590   7.362
 4883POPC   NC361715  44.913   5.425   5.222
 4883POPC   PO461716  44.756   4.755   5.328
 4883POPC   GL161717  44.655   5.137   5.623
 4883POPC   GL261718  44.912   5.360   5.726
 4883POPC   C1A61719  44.621   5.171   6.115
 4883POPC   D2A61720  44.335   5.079   6.492
 4883POPC   C3A61721  44.355   5.199   6.926
 4883POPC   C4A61722  44.645   5.212   7.244
 4883POPC   C1B61723   0.139   5.392   6.111
 4883POPC   C2B61724   0.068   5.345   6.525
 4883POPC   C3B61725   0.012   5.175   6.897
 4883POPC   C4B61726   0.138   5.367   7.264
 4884POPC   NC361727  12.499  23.470   5.413
 4884POPC   PO461728  12.915  22.922   5.283
 4884POPC   GL161729  12.958  22.872   5.740
 4884POPC   GL261730  12.885  23.194   5.810
 4884POPC   C1A61731  12.769  22.734   6.165
 4884POPC   D2A61732  12.725  22.649   6.641
 4884POPC   C3A61733  12.455  22.854   6.978
 4884POPC   C4A61734  12.374  22.743   7.401
 4884POPC   C1B61735  13.137  23.118   6.192
 4884POPC   C2B61736  13.244  23.183   6.645
 4884POPC   C3B61737  13.275  23.053   7.079
 4884POPC   C4B61738  13.240  23.100   7.531
 4885POPC   NC361739  28.082   8.320   5.445
 4885POPC   PO461740  28.585   7.902   5.383
 4885POPC   GL161741  28.417   8.010   5.758
 4885POPC   GL261742  28.723   7.939   5.917
 4885POPC   C1A61743  28.320   8.234   6.152
 4885POPC   D2A61744  28.328   8.141   6.601
 4885POPC   C3A61745  28.168   8.291   7.015
 4885POPC   C4A61746  28.020   7.903   7.221
 4885POPC   C1B61747  28.737   7.926   6.319
 4885POPC   C2B61748  28.601   7.719   6.642
 4885POPC   C3B61749  28.576   7.939   7.010
 4885POPC   C4B61750  28.914   7.825   7.275
 4886POPC   NC361751  31.765   8.019   5.303
 4886POPC   PO461752  31.156   8.345   5.266
 4886POPC   GL161753  31.395   8.212   5.704
 4886POPC   GL261754  31.692   7.950   5.800
 4886POPC   C1A61755  31.485   8.268   6.186
 4886POPC   D2A61756  31.288   8.361   6.606
 4886POPC   C3A61757  31.206   8.055   6.911
 4886POPC   C4A61758  31.298   8.130   7.326
 4886POPC   C1B61759  31.584   7.758   6.199
 4886POPC   C2B61760  31.619   7.959   6.605
 4886POPC   C3B61761  31.714   7.903   7.036
 4886POPC   C4B61762  31.641   7.811   7.497
 4887POPC   NC361763  43.466  12.424   5.378
 4887POPC   PO461764  42.942  12.647   5.611
 4887POPC   GL161765  43.145  12.901   5.869
 4887POPC   GL261766  42.830  12.962   6.011
 4887POPC   C1A61767  43.243  12.774   6.306
 4887POPC   D2A61768  43.044  12.676   6.708
 4887POPC   C3A61769  43.190  12.786   7.138
 4887POPC   C4A61770  43.441  12.739   7.558
 4887POPC   C1B61771  43.077  13.256   6.240
 4887POPC   C2B61772  43.136  13.203   6.656
 4887POPC   C3B61773  43.449  13.204   6.928
 4887POPC   C4B61774  43.416  13.200   7.354
 4888POPC   NC361775   5.657   6.241   5.636
 4888POPC   PO461776   5.867   6.833   5.522
 4888POPC   GL161777   5.707   6.727   5.900
 4888POPC   GL261778   5.494   6.995   6.049
 4888POPC   C1A61779   5.823   6.607   6.284
 4888POPC   D2A61780   5.657   6.770   6.660
 4888POPC   C3A61781   5.724   6.390   6.889
 4888POPC   C4A61782   5.794   6.421   7.280
 4888POPC   C1B61783   5.314   6.632   6.266
 4888POPC   C2B61784   5.271   6.420   6.637
 4888POPC   C3B61785   5.320   6.652   7.067
 4888POPC   C4B61786   5.475   6.829   7.460
 4889POPC   NC361787  16.978   6.337   5.411
 4889POPC   PO461788  16.769   6.986   5.403
 4889POPC   GL161789  16.889   6.766   5.773
 4889POPC   GL261790  16.531   6.675   5.783
 4889POPC   C1A61791  16.863   6.790   6.242
 4889POPC   D2A61792  16.591   6.726   6.616
 4889POPC   C3A61793  16.721   6.774   7.058
 4889POPC   C4A61794  16.457   6.425   7.115
 4889POPC   C1B61795  16.631   6.342   6.059
 4889POPC   C2B61796  16.881   6.304   6.406
 4889POPC   C3B61797  16.955   6.389   6.823
 4889POPC   C4B61798  16.935   6.262   7.220
 4890POPC   NC361799   2.237  20.146   5.467
 4890POPC   PO461800   2.004  19.666   5.125
 4890POPC   GL161801   1.923  19.774   5.635
 4890POPC   GL261802   1.561  19.957   5.757
 4890POPC   C1A61803   2.144  19.804   6.060
 4890POPC   D2A61804   2.298  19.755   6.501
 4890POPC   C3A61805   2.147  19.984   6.851
 4890POPC   C4A61806   2.307  20.082   7.242
 4890POPC   C1B61807   1.648  19.686   6.088
 4890POPC   C2B61808   1.795  19.776   6.485
 4890POPC   C3B61809   1.699  19.741   6.923
 4890POPC   C4B61810   1.821  19.966   7.297
 4891POPC   NC361811   1.636  12.307   5.583
 4891POPC   PO461812   1.122  11.917   5.270
 4891POPC   GL161813   1.178  12.025   5.735
 4891POPC   GL261814   1.179  12.398   5.785
 4891POPC   C1A61815   1.251  12.042   6.221
 4891POPC   D2A61816   1.282  12.050   6.706
 4891POPC   C3A61817   1.011  11.880   7.016
 4891POPC   C4A61818   1.083  11.796   7.467
 4891POPC   C1B61819   1.410  12.540   6.168
 4891POPC   C2B61820   1.612  12.501   6.579
 4891POPC   C3B61821   1.381  12.483   6.968
 4891POPC   C4B61822   1.310  12.189   7.271
 4892POPC   NC361823  15.529  30.482   5.406
 4892POPC   PO461824  16.150  30.487   5.704
 4892POPC   GL161825  15.780  30.601   5.903
 4892POPC   GL261826  15.821  30.960   5.866
 4892POPC   C1A61827  15.765  30.605   6.364
 4892POPC   D2A61828  15.991  30.789   6.720
 4892POPC   C3A61829  16.007  30.634   7.132
 4892POPC   C4A61830  15.747  30.431   7.372
 4892POPC   C1B61831  16.157  30.918   6.221
 4892POPC   C2B61832  16.442  31.010   6.594
 4892POPC   C3B61833  16.305  31.070   7.040
 4892POPC   C4B61834  16.018  31.084   7.397
 4893POPC   NC361835  15.650   1.852   5.559
 4893POPC   PO461836  16.143   1.468   5.339
 4893POPC   GL161837  15.942   1.305   5.730
 4893POPC   GL261838  15.601   1.385   5.809
 4893POPC   C1A61839  15.939   1.131   6.171
 4893POPC   D2A61840  16.081   0.893   6.556
 4893POPC   C3A61841  15.881   1.019   6.934
 4893POPC   C4A61842  16.244   1.180   7.090
 4893POPC   C1B61843  15.646   1.555   6.208
 4893POPC   C2B61844  15.780   1.423   6.588
 4893POPC   C3B61845  15.623   1.463   6.975
 4893POPC   C4B61846  15.879   1.465   7.280
 4894POPC   NC361847   9.599   1.766   5.011
 4894POPC   PO461848  10.013   2.091   5.391
 4894POPC   GL161849   9.875   1.844   5.728
 4894POPC   GL261850   9.762   2.084   5.893
 4894POPC   C1A61851  10.031   1.677   6.119
 4894POPC   D2A61852   9.901   1.605   6.571
 4894POPC   C3A61853   9.657   1.892   6.856
 4894POPC   C4A61854   9.752   1.837   7.284
 4894POPC   C1B61855   9.632   1.955   6.298
 4894POPC   C2B61856   9.300   2.126   6.506
 4894POPC   C3B61857   9.265   2.260   6.904
 4894POPC   C4B61858   9.345   2.112   7.312
 4895POPC   NC361859  10.781  29.060   5.462
 4895POPC   PO461860  10.331  29.559   5.477
 4895POPC   GL161861  10.416  29.226   5.779
 4895POPC   GL261862  10.752  29.287   5.916
 4895POPC   C1A61863  10.388  29.039   6.186
 4895POPC   D2A61864  10.228  29.192   6.584
 4895POPC   C3A61865  10.514  29.180   6.970
 4895POPC   C4A61866  10.723  28.905   7.274
 4895POPC   C1B61867  10.476  29.554   6.202
 4895POPC   C2B61868  10.466  29.645   6.650
 4895POPC   C3B61869  10.168  29.546   6.956
 4895POPC   C4B61870  10.401  29.520   7.343
 4896POPC   NC361871  25.545  28.803   5.466
 4896POPC   PO461872  25.245  29.480   5.451
 4896POPC   GL161873  25.346  29.404   5.855
 4896POPC   GL261874  25.299  29.061   5.827
 4896POPC   C1A61875  25.415  29.330   6.293
 4896POPC   D2A61876  25.675  29.502   6.635
 4896POPC   C3A61877  25.506  29.285   6.988
 4896POPC   C4A61878  25.027  29.256   7.060
 4896POPC   C1B61879  25.341  28.837   6.223
 4896POPC   C2B61880  25.241  28.969   6.655
 4896POPC   C3B61881  25.283  28.830   7.096
 4896POPC   C4B61882  25.163  28.835   7.535
 4897POPC   NC361883   6.894  20.087   5.304
 4897POPC   PO461884   6.225  20.111   5.492
 4897POPC   GL161885   6.471  19.829   5.785
 4897POPC   GL261886   6.799  19.900   5.772
 4897POPC   C1A61887   6.603  19.812   6.247
 4897POPC   D2A61888   6.433  19.949   6.670
 4897POPC   C3A61889   6.501  19.636   6.961
 4897POPC   C4A61890   6.898  19.522   7.037
 4897POPC   C1B61891   7.040  20.081   6.118
 4897POPC   C2B61892   7.165  20.060   6.552
 4897POPC   C3B61893   6.901  20.016   6.905
 4897POPC   C4B61894   6.533  20.137   7.142
 4898POPC   NC361895   2.998  16.706   5.343
 4898POPC   PO461896   2.446  16.525   5.575
 4898POPC   GL161897   2.556  16.715   5.951
 4898POPC   GL261898   2.859  16.830   5.834
 4898POPC   C1A61899   2.634  16.597   6.370
 4898POPC   D2A61900   2.954  16.687   6.660
 4898POPC   C3A61901   2.939  16.561   7.010
 4898POPC   C4A61902   2.626  16.742   7.235
 4898POPC   C1B61903   3.084  16.744   6.178
 4898POPC   C2B61904   3.229  17.075   6.502
 4898POPC   C3B61905   3.048  17.125   6.928
 4898POPC   C4B61906   3.090  16.918   7.313
 4899POPC   NC361907   8.961  14.596   5.377
 4899POPC   PO461908   8.619  13.930   5.283
 4899POPC   GL161909   8.831  14.115   5.680
 4899POPC   GL261910   8.680  14.437   5.764
 4899POPC   C1A61911   9.074  14.164   6.107
 4899POPC   D2A61912   9.310  14.397   6.475
 4899POPC   C3A61913   9.129  14.457   6.935
 4899POPC   C4A61914   8.999  14.114   7.251
 4899POPC   C1B61915   8.776  14.580   6.169
 4899POPC   C2B61916   8.810  14.341   6.548
 4899POPC   C3B61917   8.610  14.359   6.961
 4899POPC   C4B61918   8.688  14.762   7.188
 4900POPC   NC361919  18.748   7.518   5.486
 4900POPC   PO461920  19.278   7.293   5.233
 4900POPC   GL161921  19.241   7.454   5.661
 4900POPC   GL261922  19.308   7.805   5.695
 4900POPC   C1A61923  19.014   7.467   6.079
 4900POPC   D2A61924  18.752   7.397   6.437
 4900POPC   C3A61925  18.956   7.293   6.807
 4900POPC   C4A61926  19.057   7.360   7.228
 4900POPC   C1B61927  19.266   7.906   6.150
 4900POPC   C2B61928  19.079   7.777   6.516
 4900POPC   C3B61929  19.060   7.794   6.938
 4900POPC   C4B61930  19.359   7.758   7.280
 4901POPC   NC361931  32.958   4.679   5.332
 4901POPC   PO461932  33.353   5.254   5.438
 4901POPC   GL161933  33.129   5.016   5.756
 4901POPC   GL261934  32.817   4.823   5.829
 4901POPC   C1A61935  33.159   5.077   6.195
 4901POPC   D2A61936  33.210   5.424   6.487
 4901POPC   C3A61937  33.137   5.338   6.923
 4901POPC   C4A61938  33.156   4.938   7.114
 4901POPC   C1B61939  32.683   4.954   6.242
 4901POPC   C2B61940  32.884   4.927   6.649
 4901POPC   C3B61941  32.671   4.851   7.027
 4901POPC   C4B61942  32.480   5.200   7.151
 4902POPC   NC361943  31.550  32.609   5.624
 4902POPC   PO461944  31.567  33.240   5.345
 4902POPC   GL161945  31.595  33.154   5.774
 4902POPC   GL261946  31.927  33.312   5.827
 4902POPC   C1A61947  31.356  33.013   6.165
 4902POPC   D2A61948  31.153  33.083   6.570
 4902POPC   C3A61949  31.384  33.122   6.957
 4902POPC   C4A61950  31.222  33.206   7.358
 4902POPC   C1B61951  31.896  33.026   6.184
 4902POPC   C2B61952  31.698  32.961   6.566
 4902POPC   C3B61953  31.768  32.774   6.973
 4902POPC   C4B61954  31.684  32.983   7.366
 4903POPC   NC361955  29.513  12.216   5.588
 4903POPC   PO461956  28.860  12.151   5.339
 4903POPC   GL161957  28.772  11.958   5.731
 4903POPC   GL261958  29.132  12.021   5.854
 4903POPC   C1A61959  28.727  11.948   6.172
 4903POPC   D2A61960  29.023  11.944   6.504
 4903POPC   C3A61961  28.899  12.091   6.891
 4903POPC   C4A61962  29.123  12.003   7.259
 4903POPC   C1B61963  29.480  12.129   6.220
 4903POPC   C2B61964  29.678  12.175   6.670
 4903POPC   C3B61965  29.722  12.430   7.067
 4903POPC   C4B61966  29.478  12.320   7.436
 4904POPC   NC361967   6.095  31.519   5.372
 4904POPC   PO461968   5.479  31.226   5.586
 4904POPC   GL161969   5.753  31.553   5.836
 4904POPC   GL261970   6.149  31.585   5.870
 4904POPC   C1A61971   5.870  31.701   6.275
 4904POPC   D2A61972   6.037  31.784   6.670
 4904POPC   C3A61973   5.725  31.751   6.998
 4904POPC   C4A61974   5.772  31.781   7.438
 4904POPC   C1B61975   6.028  31.242   6.173
 4904POPC   C2B61976   5.906  31.139   6.600
 4904POPC   C3B61977   6.138  31.085   6.985
 4904POPC   C4B61978   6.103  31.371   7.312
 4905POPC   NC361979   2.706  35.139   5.458
 4905POPC   PO461980   2.938  35.755   5.628
 4905POPC   GL161981   2.667  35.492   5.832
 4905POPC   GL261982   2.906  35.229   5.910
 4905POPC   C1A61983   2.592  35.559   6.244
 4905POPC   D2A61984   2.947  35.491   6.519
 4905POPC   C3A61985   2.962  35.475   6.968
 4905POPC   C4A61986   2.623  35.449   7.296
 4905POPC   C1B61987   2.586  35.059   6.203
 4905POPC   C2B61988   2.432  35.189   6.601
 4905POPC   C3B61989   2.660  35.064   6.969
 4905POPC   C4B61990   2.811  34.975   7.363
 4906POPC   NC361991  23.681  13.942   5.472
 4906POPC   PO461992  24.002  13.260   5.412
 4906POPC   GL161993  23.871  13.521   5.778
 4906POPC   GL261994  23.501  13.584   5.829
 4906POPC   C1A61995  23.921  13.624   6.200
 4906POPC   D2A61996  23.669  13.530   6.528
 4906POPC   C3A61997  23.783  13.542   6.939
 4906POPC   C4A61998  23.533  13.344   7.294
 4906POPC   C1B61999  23.520  13.931   6.136
 4906POPC   C2B62000  23.704  14.060   6.506
 4906POPC   C3B62001  23.677  14.056   6.943
 4906POPC   C4B62002  23.625  13.837   7.357
 4907POPC   NC362003  20.326  20.222   5.584
 4907POPC   PO462004  19.664  19.837   5.452
 4907POPC   GL162005  19.683  19.796   5.862
 4907POPC   GL262006  20.041  19.833   5.838
 4907POPC   C1A62007  19.613  19.715   6.288
 4907POPC   D2A62008  19.662  20.034   6.601
 4907POPC   C3A62009  19.755  19.837   6.975
 4907POPC   C4A62010  19.571  19.785   7.334
 4907POPC   C1B62011  20.062  20.010   6.241
 4907POPC   C2B62012  20.125  19.777   6.615
 4907POPC   C3B62013  20.241  19.689   7.029
 4907POPC   C4B62014  20.046  19.755   7.438
 4908POPC   NC362015  37.360  44.125   5.377
 4908POPC   PO462016  37.878  43.580   5.343
 4908POPC   GL162017  37.530  43.723   5.644
 4908POPC   GL262018  37.745  43.954   5.748
 4908POPC   C1A62019  37.513  43.638   6.109
 4908POPC   D2A62020  37.801  43.754   6.464
 4908POPC   C3A62021  37.729  43.878   6.847
 4908POPC   C4A62022  37.570  43.730   7.199
 4908POPC   C1B62023  37.576  44.133   6.156
 4908POPC   C2B62024  37.510  44.287   6.541
 4908POPC   C3B62025  37.367  44.201   6.939
 4908POPC   C4B62026  37.642  44.305   7.240
 4909POPC   NC362027  11.627   9.354   5.425
 4909POPC   PO462028  11.434   8.721   5.492
 4909POPC   GL162029  11.424   8.954   5.818
 4909POPC   GL262030  11.766   9.057   5.814
 4909POPC   C1A62031  11.156   9.019   6.179
 4909POPC   D2A62032  11.245   9.111   6.604
 4909POPC   C3A62033  11.281   8.745   6.856
 4909POPC   C4A62034  10.992   8.699   7.195
 4909POPC   C1B62035  11.664   9.135   6.240
 4909POPC   C2B62036  11.723   8.918   6.586
 4909POPC   C3B62037  11.681   9.064   6.974
 4909POPC   C4B62038  11.535   8.791   7.294
 4910POPC   NC362039  21.691  20.301   5.074
 4910POPC   PO462040  21.078  20.529   5.310
 4910POPC   GL162041  21.260  20.711   5.825
 4910POPC   GL262042  21.428  21.019   5.921
 4910POPC   C1A62043  21.475  20.559   6.224
 4910POPC   D2A62044  21.420  20.267   6.584
 4910POPC   C3A62045  21.608  20.374   6.968
 4910POPC   C4A62046  21.498  20.737   7.173
 4910POPC   C1B62047  21.359  21.028   6.383
 4910POPC   C2B62048  21.196  20.740   6.700
 4910POPC   C3B62049  21.075  20.410   6.987
 4910POPC   C4B62050  21.177  20.392   7.426
 4911POPC   NC362051   2.937  36.634   5.378
 4911POPC   PO462052   2.623  37.181   5.224
 4911POPC   GL162053   2.671  37.073   5.705
 4911POPC   GL262054   2.595  36.717   5.762
 4911POPC   C1A62055   2.850  36.922   6.149
 4911POPC   D2A62056   3.080  36.920   6.545
 4911POPC   C3A62057   2.838  36.837   6.916
 4911POPC   C4A62058   2.929  36.928   7.310
 4911POPC   C1B62059   2.353  36.872   6.115
 4911POPC   C2B62060   2.459  36.798   6.541
 4911POPC   C3B62061   2.335  36.800   6.962
 4911POPC   C4B62062   2.461  36.736   7.410
 4912POPC   NC362063  27.436  30.518   5.254
 4912POPC   PO462064  27.291  31.227   5.341
 4912POPC   GL162065  27.362  30.924   5.739
 4912POPC   GL262066  27.364  30.532   5.774
 4912POPC   C1A62067  27.533  30.970   6.199
 4912POPC   D2A62068  27.438  30.823   6.639
 4912POPC   C3A62069  27.583  31.023   7.041
 4912POPC   C4A62070  27.412  30.986   7.486
 4912POPC   C1B62071  27.280  30.496   6.237
 4912POPC   C2B62072  27.238  30.346   6.683
 4912POPC   C3B62073  27.489  30.497   7.050
 4912POPC   C4B62074  27.807  30.652   7.345
 4913POPC   NC362075   1.285  20.361   5.514
 4913POPC   PO462076   0.912  20.881   5.476
 4913POPC   GL162077   1.172  20.732   5.864
 4913POPC   GL262078   1.539  20.553   5.897
 4913POPC   C1A62079   1.253  20.618   6.298
 4913POPC   D2A62080   1.222  20.389   6.646
 4913POPC   C3A62081   1.075  20.634   6.983
 4913POPC   C4A62082   1.210  20.678   7.365
 4913POPC   C1B62083   1.577  20.208   6.241
 4913POPC   C2B62084   1.691  20.212   6.708
 4913POPC   C3B62085   1.485  20.309   7.133
 4913POPC   C4B62086   1.611  20.486   7.584
 4914POPC   NC362087   6.686  13.597   5.144
 4914POPC   PO462088   6.132  13.646   5.562
 4914POPC   GL162089   6.476  13.761   5.850
 4914POPC   GL262090   6.799  13.697   5.733
 4914POPC   C1A62091   6.647  13.499   6.204
 4914POPC   D2A62092   6.838  13.460   6.613
 4914POPC   C3A62093   6.572  13.505   6.927
 4914POPC   C4A62094   6.687  13.603   7.305
 4914POPC   C1B62095   6.944  13.901   6.108
 4914POPC   C2B62096   6.732  13.961   6.547
 4914POPC   C3B62097   6.874  13.965   7.002
 4914POPC   C4B62098   6.944  14.013   7.488
 4915POPC   NC362099   4.480  20.323   5.412
 4915POPC   PO462100   4.222  21.000   5.442
 4915POPC   GL162101   4.180  20.676   5.752
 4915POPC   GL262102   4.528  20.570   5.860
 4915POPC   C1A62103   4.085  20.337   6.052
 4915POPC   D2A62104   4.253  20.243   6.465
 4915POPC   C3A62105   4.131  20.425   6.866
 4915POPC   C4A62106   4.084  20.237   7.255
 4915POPC   C1B62107   4.865  20.468   6.169
 4915POPC   C2B62108   4.869  20.626   6.574
 4915POPC   C3B62109   4.581  20.682   6.895
 4915POPC   C4B62110   4.486  20.546   7.275
 4916POPC   NC362111  23.978  31.714   5.432
 4916POPC   PO462112  23.511  31.307   5.167
 4916POPC   GL162113  23.635  31.333   5.633
 4916POPC   GL262114  23.928  31.425   5.832
 4916POPC   C1A62115  23.603  31.208   6.106
 4916POPC   D2A62116  23.761  31.182   6.518
 4916POPC   C3A62117  23.567  31.156   6.948
 4916POPC   C4A62118  23.678  31.239   7.386
 4916POPC   C1B62119  24.004  31.547   6.247
 4916POPC   C2B62120  23.851  31.649   6.658
 4916POPC   C3B62121  23.960  31.492   7.050
 4916POPC   C4B62122  23.958  31.757   7.428
 4917POPC   NC362123  38.723  33.851   5.186
 4917POPC   PO462124  38.127  33.926   5.469
 4917POPC   GL162125  38.462  33.779   5.720
 4917POPC   GL262126  38.435  33.433   5.761
 4917POPC   C1A62127  38.520  33.936   6.144
 4917POPC   D2A62128  38.202  33.978   6.486
 4917POPC   C3A62129  38.312  34.003   6.933
 4917POPC   C4A62130  38.507  33.978   7.355
 4917POPC   C1B62131  38.635  33.440   6.173
 4917POPC   C2B62132  38.694  33.686   6.567
 4917POPC   C3B62133  38.634  33.593   6.997
 4917POPC   C4B62134  38.236  33.489   7.155
 4918POPC   NC362135  44.752  23.840   5.351
 4918POPC   PO462136  44.358  23.372   5.628
 4918POPC   GL162137  44.467  23.723   5.787
 4918POPC   GL262138  44.812  23.779   5.869
 4918POPC   C1A62139  44.417  23.852   6.207
 4918POPC   D2A62140  44.502  23.893   6.634
 4918POPC   C3A62141  44.697  23.556   6.876
 4918POPC   C4A62142  44.894  23.498   7.314
 4918POPC   C1B62143  44.900  23.985   6.293
 4918POPC   C2B62144  44.942  24.116   6.746
 4918POPC   C3B62145  44.770  23.985   7.151
 4918POPC   C4B62146  44.942  23.938   7.599
 4919POPC   NC362147  33.258  30.284   5.038
 4919POPC   PO462148  32.792  30.710   5.210
 4919POPC   GL162149  33.008  30.778   5.628
 4919POPC   GL262150  32.714  30.782   5.833
 4919POPC   C1A62151  33.207  30.807   6.067
 4919POPC   D2A62152  33.057  30.910   6.535
 4919POPC   C3A62153  33.044  30.808   7.005
 4919POPC   C4A62154  32.807  30.913   7.382
 4919POPC   C1B62155  32.810  30.526   6.250
 4919POPC   C2B62156  32.938  30.411   6.703
 4919POPC   C3B62157  32.709  30.445   7.131
 4919POPC   C4B62158  32.633  30.477   7.594
 4920POPC   NC362159   0.113  40.664   4.939
 4920POPC   PO462160   0.477  41.003   5.381
 4920POPC   GL162161   0.479  40.921   5.802
 4920POPC   GL262162   0.737  41.139   5.839
 4920POPC   C1A62163   0.348  40.704   6.197
 4920POPC   D2A62164   0.237  40.551   6.601
 4920POPC   C3A62165   0.365  40.731   6.969
 4920POPC   C4A62166   0.226  40.523   7.300
 4920POPC   C1B62167   0.801  40.926   6.242
 4920POPC   C2B62168   0.744  40.652   6.586
 4920POPC   C3B62169   0.951  40.662   6.950
 4920POPC   C4B62170   0.784  40.785   7.298
 4921POPC   NC362171  29.126  37.437   5.457
 4921POPC   PO462172  29.564  37.033   5.554
 4921POPC   GL162173  29.212  37.170   5.866
 4921POPC   GL262174  28.870  37.073   5.741
 4921POPC   C1A62175  29.111  37.018   6.262
 4921POPC   D2A62176  29.457  36.760   6.430
 4921POPC   C3A62177  29.415  36.790   6.877
 4921POPC   C4A62178  29.376  37.103   7.199
 4921POPC   C1B62179  28.601  36.858   6.067
 4921POPC   C2B62180  28.568  36.616   6.478
 4921POPC   C3B62181  28.719  36.741   6.883
 4921POPC   C4B62182  29.015  36.726   7.222
 4922POPC   NC362183   1.644  44.479   5.006
 4922POPC   PO462184   1.223  44.436   5.385
 4922POPC   GL162185   1.294  44.587   5.810
 4922POPC   GL262186   1.591  44.816   5.818
 4922POPC   C1A62187   1.108  44.652   6.251
 4922POPC   D2A62188   0.937  44.491   6.670
 4922POPC   C3A62189   1.026  44.664   7.091
 4922POPC   C4A62190   1.232  44.827   7.481
 4922POPC   C1B62191   1.626  44.563   6.217
 4922POPC   C2B62192   1.517  44.516   6.677
 4922POPC   C3B62193   1.532  44.597   7.127
 4922POPC   C4B62194   1.530  44.350   7.523
 4923POPC   NC362195   0.605  28.230   5.533
 4923POPC   PO462196   0.063  28.616   5.634
 4923POPC   GL162197   0.418  28.542   5.892
 4923POPC   GL262198   0.202  28.337   6.045
 4923POPC   C1A62199   0.593  28.482   6.314
 4923POPC   D2A62200   0.398  28.204   6.629
 4923POPC   C3A62201   0.373  28.477   6.976
 4923POPC   C4A62202   0.604  28.548   7.348
 4923POPC   C1B62203  44.986  27.986   6.212
 4923POPC   C2B62204   0.001  27.812   6.595
 4923POPC   C3B62205   0.031  28.060   6.970
 4923POPC   C4B62206   0.347  28.079   7.292
 4924POPC   NC362207  19.304  33.836   5.398
 4924POPC   PO462208  18.695  34.042   5.571
 4924POPC   GL162209  19.036  33.916   5.825
 4924POPC   GL262210  19.188  33.634   5.861
 4924POPC   C1A62211  18.999  33.889   6.256
 4924POPC   D2A62212  18.817  33.719   6.603
 4924POPC   C3A62213  19.052  33.907   6.905
 4924POPC   C4A62214  18.974  34.052   7.305
 4924POPC   C1B62215  19.397  33.545   6.201
 4924POPC   C2B62216  19.311  33.473   6.615
 4924POPC   C3B62217  19.303  33.456   7.026
 4924POPC   C4B62218  19.004  33.529   7.269
 4925POPC   NC362219   7.952   7.142   5.489
 4925POPC   PO462220   8.214   7.811   5.430
 4925POPC   GL162221   8.228   7.616   5.819
 4925POPC   GL262222   7.866   7.592   5.818
 4925POPC   C1A62223   8.364   7.505   6.256
 4925POPC   D2A62224   8.285   7.706   6.665
 4925POPC   C3A62225   8.370   7.523   7.066
 4925POPC   C4A62226   8.270   7.103   7.181
 4925POPC   C1B62227   7.889   7.280   6.165
 4925POPC   C2B62228   7.929   6.958   6.506
 4925POPC   C3B62229   7.821   7.043   6.938
 4925POPC   C4B62230   7.680   7.243   7.286
 4926POPC   NC362231  10.094  41.747   5.391
 4926POPC   PO462232   9.518  41.338   5.455
 4926POPC   GL162233   9.738  41.578   5.768
 4926POPC   GL262234  10.067  41.691   5.888
 4926POPC   C1A62235   9.710  41.595   6.221
 4926POPC   D2A62236   9.886  41.743   6.605
 4926POPC   C3A62237   9.681  41.544   6.956
 4926POPC   C4A62238   9.720  41.554   7.405
 4926POPC   C1B62239  10.016  41.236   6.043
 4926POPC   C2B62240  10.017  41.213   6.525
 4926POPC   C3B62241  10.182  41.443   6.903
 4926POPC   C4B62242  10.182  41.333   7.349
 4927POPC   NC362243  21.042  36.572   5.363
 4927POPC   PO462244  21.583  37.056   5.322
 4927POPC   GL162245  21.568  37.072   5.764
 4927POPC   GL262246  21.390  36.733   5.859
 4927POPC   C1A62247  21.298  37.175   6.123
 4927POPC   D2A62248  21.313  36.855   6.431
 4927POPC   C3A62249  21.396  36.943   6.859
 4927POPC   C4A62250  21.394  37.054   7.299
 4927POPC   C1B62251  20.984  36.645   6.106
 4927POPC   C2B62252  20.886  36.631   6.576
 4927POPC   C3B62253  20.980  36.708   7.026
 4927POPC   C4B62254  21.359  36.541   7.245
 4928POPC   NC362255   6.979  10.182   5.436
 4928POPC   PO462256   6.840   9.589   5.198
 4928POPC   GL162257   6.708   9.690   5.649
 4928POPC   GL262258   6.344   9.614   5.741
 4928POPC   C1A62259   6.683   9.835   6.092
 4928POPC   D2A62260   6.882   9.919   6.499
 4928POPC   C3A62261   6.738   9.797   6.908
 4928POPC   C4A62262   6.993   9.556   7.173
 4928POPC   C1B62263   6.256   9.527   6.207
 4928POPC   C2B62264   6.328   9.565   6.658
 4928POPC   C3B62265   6.280   9.431   7.095
 4928POPC   C4B62266   6.070   9.631   7.409
 4929POPC   NC362267  35.727  24.810   5.464
 4929POPC   PO462268  35.229  24.327   5.342
 4929POPC   GL162269  35.368  24.520   5.727
 4929POPC   GL262270  35.655  24.362   5.860
 4929POPC   C1A62271  35.173  24.608   6.126
 4929POPC   D2A62272  35.106  24.335   6.509
 4929POPC   C3A62273  35.250  24.464   6.929
 4929POPC   C4A62274  35.135  24.575   7.334
 4929POPC   C1B62275  35.547  24.300   6.277
 4929POPC   C2B62276  35.551  24.138   6.675
 4929POPC   C3B62277  35.753  24.332   6.992
 4929POPC   C4B62278  35.628  24.511   7.367
 4930POPC   NC362279   4.622  27.440   5.285
 4930POPC   PO462280   3.898  27.408   5.340
 4930POPC   GL162281   4.208  27.456   5.698
 4930POPC   GL262282   4.010  27.719   5.793
 4930POPC   C1A62283   4.370  27.528   6.149
 4930POPC   D2A62284   4.466  27.331   6.541
 4930POPC   C3A62285   4.374  27.534   6.935
 4930POPC   C4A62286   4.296  27.472   7.352
 4930POPC   C1B62287   3.963  27.856   6.180
 4930POPC   C2B62288   4.154  27.816   6.567
 4930POPC   C3B62289   3.972  27.847   6.974
 4930POPC   C4B62290   3.857  27.720   7.382
 4931POPC   NC362291  43.170  10.177   5.367
 4931POPC   PO462292  43.090   9.544   5.478
 4931POPC   GL162293  43.001   9.869   5.746
 4931POPC   GL262294  43.270   9.805   5.958
 4931POPC   C1A62295  42.827   9.948   6.137
 4931POPC   D2A62296  43.019   9.640   6.436
 4931POPC   C3A62297  42.911   9.613   6.891
 4931POPC   C4A62298  42.824   9.947   7.218
 4931POPC   C1B62299  43.554   9.717   6.322
 4931POPC   C2B62300  43.450   9.648   6.753
 4931POPC   C3B62301  43.328   9.799   7.152
 4931POPC   C4B62302  43.492   9.649   7.547
 4932POPC   NC362303  25.866   3.233   5.411
 4932POPC   PO462304  26.274   3.676   5.554
 4932POPC   GL162305  25.923   3.572   5.786
 4932POPC   GL262306  25.814   3.838   5.960
 4932POPC   C1A62307  25.888   3.324   6.146
 4932POPC   D2A62308  26.113   3.483   6.524
 4932POPC   C3A62309  25.926   3.624   6.905
 4932POPC   C4A62310  26.036   3.513   7.336
 4932POPC   C1B62311  26.172   3.933   6.244
 4932POPC   C2B62312  26.430   3.869   6.649
 4932POPC   C3B62313  26.414   3.773   7.094
 4932POPC   C4B62314  26.480   3.764   7.542
 4933POPC   NC362315   3.537  29.371   5.239
 4933POPC   PO462316   3.598  30.013   5.370
 4933POPC   GL162317   3.468  29.928   5.747
 4933POPC   GL262318   3.570  29.599   5.720
 4933POPC   C1A62319   3.427  30.123   6.154
 4933POPC   D2A62320   3.657  30.037   6.551
 4933POPC   C3A62321   3.376  30.131   6.883
 4933POPC   C4A62322   3.267  30.170   7.317
 4933POPC   C1B62323   3.632  29.645   6.155
 4933POPC   C2B62324   3.815  29.537   6.541
 4933POPC   C3B62325   3.599  29.646   6.911
 4933POPC   C4B62326   3.289  29.698   7.170
 4934POPC   NC362327  25.647  12.341   5.363
 4934POPC   PO462328  26.079  11.751   5.432
 4934POPC   GL162329  25.957  12.083   5.748
 4934POPC   GL262330  25.624  12.131   5.830
 4934POPC   C1A62331  26.048  12.061   6.208
 4934POPC   D2A62332  26.323  12.032   6.573
 4934POPC   C3A62333  26.286  11.976   6.997
 4934POPC   C4A62334  26.003  11.979   7.302
 4934POPC   C1B62335  25.700  12.424   6.178
 4934POPC   C2B62336  25.901  12.361   6.636
 4934POPC   C3B62337  25.874  12.431   7.123
 4934POPC   C4B62338  25.975  12.363   7.613
 4935POPC   NC362339   1.113   4.452   5.486
 4935POPC   PO462340   1.106   3.791   5.489
 4935POPC   GL162341   1.239   4.071   5.835
 4935POPC   GL262342   0.958   4.230   5.930
 4935POPC   C1A62343   1.412   4.406   6.141
 4935POPC   D2A62344   1.569   4.255   6.520
 4935POPC   C3A62345   1.523   4.443   6.901
 4935POPC   C4A62346   1.530   4.342   7.298
 4935POPC   C1B62347   0.924   4.545   6.228
 4935POPC   C2B62348   1.074   4.589   6.652
 4935POPC   C3B62349   0.958   4.335   6.983
 4935POPC   C4B62350   1.031   4.331   7.407
 4936POPC   NC362351   7.508   6.765   5.547
 4936POPC   PO462352   7.040   6.386   5.215
 4936POPC   GL162353   7.100   6.545   5.731
 4936POPC   GL262354   7.453   6.399   5.895
 4936POPC   C1A62355   7.226   6.739   6.172
 4936POPC   D2A62356   7.595   6.560   6.430
 4936POPC   C3A62357   7.661   6.568   6.848
 4936POPC   C4A62358   7.711   6.644   7.269
 4936POPC   C1B62359   7.236   6.252   6.302
 4936POPC   C2B62360   7.160   6.446   6.730
 4936POPC   C3B62361   7.280   6.351   7.191
 4936POPC   C4B62362   7.234   6.255   7.665
 4937POPC   NC362363  44.318   4.113   5.482
 4937POPC   PO462364  44.014   4.671   5.263
 4937POPC   GL162365  43.966   4.473   5.707
 4937POPC   GL262366  43.764   4.702   5.910
 4937POPC   C1A62367  43.980   4.156   6.079
 4937POPC   D2A62368  44.133   4.124   6.539
 4937POPC   C3A62369  44.083   4.206   6.979
 4937POPC   C4A62370  43.702   4.160   7.241
 4937POPC   C1B62371  43.794   4.539   6.333
 4937POPC   C2B62372  43.696   4.423   6.757
 4937POPC   C3B62373  43.785   4.672   7.137
 4937POPC   C4B62374  43.570   4.988   7.402
 4938POPC   NC362375   4.610  28.957   5.726
 4938POPC   PO462376   4.120  29.298   5.376
 4938POPC   GL162377   4.141  29.129   5.794
 4938POPC   GL262378   4.043  28.785   5.806
 4938POPC   C1A62379   4.265  29.048   6.252
 4938POPC   D2A62380   4.506  28.955   6.630
 4938POPC   C3A62381   4.297  29.280   6.827
 4938POPC   C4A62382   4.220  29.333   7.228
 4938POPC   C1B62383   3.939  28.660   6.226
 4938POPC   C2B62384   3.999  28.815   6.633
 4938POPC   C3B62385   4.150  28.826   7.048
 4938POPC   C4B62386   3.996  28.933   7.436
 4939POPC   NC362387  10.965  19.267   5.586
 4939POPC   PO462388  11.501  19.546   5.306
 4939POPC   GL162389  11.483  19.302   5.719
 4939POPC   GL262390  11.332  18.953   5.758
 4939POPC   C1A62391  11.449  19.228   6.177
 4939POPC   D2A62392  11.459  19.027   6.572
 4939POPC   C3A62393  11.416  19.261   6.932
 4939POPC   C4A62394  11.454  19.153   7.331
 4939POPC   C1B62395  11.054  18.863   6.140
 4939POPC   C2B62396  11.071  18.672   6.530
 4939POPC   C3B62397  11.122  18.808   6.954
 4939POPC   C4B62398  11.008  18.887   7.367
 4940POPC   NC362399   6.987   7.609   5.415
 4940POPC   PO462400   7.325   8.214   5.407
 4940POPC   GL162401   7.442   8.173   5.807
 4940POPC   GL262402   7.273   8.501   5.890
 4940POPC   C1A62403   7.668   8.236   6.169
 4940POPC   D2A62404   7.639   8.444   6.533
 4940POPC   C3A62405   7.524   8.213   6.911
 4940POPC   C4A62406   7.692   8.236   7.304
 4940POPC   C1B62407   7.173   8.228   6.255
 4940POPC   C2B62408   6.998   8.309   6.639
 4940POPC   C3B62409   7.127   8.504   6.985
 4940POPC   C4B62410   7.194   8.264   7.358
 4941POPC   NC362411  27.138  10.912   5.631
 4941POPC   PO462412  27.583  11.433   5.569
 4941POPC   GL162413  27.386  11.279   5.887
 4941POPC   GL262414  27.071  11.425   5.844
 4941POPC   C1A62415  27.507  11.033   6.217
 4941POPC   D2A62416  27.836  11.057   6.494
 4941POPC   C3A62417  27.787  11.085   6.927
 4941POPC   C4A62418  28.031  11.197   7.280
 4941POPC   C1B62419  27.238  11.557   6.268
 4941POPC   C2B62420  27.408  11.338   6.613
 4941POPC   C3B62421  27.255  11.298   7.004
 4941POPC   C4B62422  27.446  11.329   7.386
 4942POPC   NC362423  30.670  22.271   5.407
 4942POPC   PO462424  31.028  21.746   5.577
 4942POPC   GL162425  30.853  22.103   5.851
 4942POPC   GL262426  30.469  22.218   5.864
 4942POPC   C1A62427  30.861  22.262   6.269
 4942POPC   D2A62428  30.923  21.919   6.569
 4942POPC   C3A62429  30.905  22.039   6.998
 4942POPC   C4A62430  30.757  22.404   7.240
 4942POPC   C1B62431  30.484  21.923   6.185
 4942POPC   C2B62432  30.396  21.976   6.586
 4942POPC   C3B62433  30.413  22.262   6.893
 4942POPC   C4B62434  30.447  21.988   7.232
 4943POPC   NC362435  35.604  23.168   5.513
 4943POPC   PO462436  35.068  22.672   5.333
 4943POPC   GL162437  35.248  22.871   5.739
 4943POPC   GL262438  35.056  23.142   5.876
 4943POPC   C1A62439  35.524  22.962   6.142
 4943POPC   D2A62440  35.748  22.939   6.569
 4943POPC   C3A62441  35.521  22.835   6.954
 4943POPC   C4A62442  35.533  22.973   7.371
 4943POPC   C1B62443  35.031  22.806   6.207
 4943POPC   C2B62444  35.132  22.684   6.620
 4943POPC   C3B62445  35.015  22.870   7.012
 4943POPC   C4B62446  34.861  23.242   7.190
 4944POPC   NC362447   6.568   9.272   5.377
 4944POPC   PO462448   6.401   8.632   5.471
 4944POPC   GL162449   6.656   8.900   5.702
 4944POPC   GL262450   6.721   8.719   5.909
 4944POPC   C1A62451   6.606   9.201   6.037
 4944POPC   D2A62452   6.468   9.105   6.468
 4944POPC   C3A62453   6.687   9.252   6.843
 4944POPC   C4A62454   6.707   9.168   7.269
 4944POPC   C1B62455   6.913   8.674   6.275
 4944POPC   C2B62456   6.861   8.818   6.664
 4944POPC   C3B62457   6.672   8.716   7.041
 4944POPC   C4B62458   6.928   8.704   7.399
 4945POPC   NC362459  11.264  10.998   4.959
 4945POPC   PO462460  11.295  11.545   5.386
 4945POPC   GL162461  11.339  11.418   5.796
 4945POPC   GL262462  11.033  11.358   5.857
 4945POPC   C1A62463  11.513  11.379   6.181
 4945POPC   D2A62464  11.451  11.382   6.601
 4945POPC   C3A62465  11.515  11.023   6.884
 4945POPC   C4A62466  11.525  11.237   7.277
 4945POPC   C1B62467  11.102  11.656   6.192
 4945POPC   C2B62468  11.098  11.826   6.592
 4945POPC   C3B62469  11.201  11.677   6.984
 4945POPC   C4B62470  11.033  11.340   7.198
 4946POPC   NC362471  26.523  33.629   5.484
 4946POPC   PO462472  26.998  32.984   5.368
 4946POPC   GL162473  26.775  32.909   5.748
 4946POPC   GL262474  26.538  33.200   5.781
 4946POPC   C1A62475  26.798  33.009   6.193
 4946POPC   D2A62476  27.016  33.100   6.571
 4946POPC   C3A62477  26.836  32.870   6.883
 4946POPC   C4A62478  26.938  32.781   7.270
 4946POPC   C1B62479  26.509  33.419   6.199
 4946POPC   C2B62480  26.480  33.180   6.610
 4946POPC   C3B62481  26.580  33.316   7.043
 4946POPC   C4B62482  26.584  33.567   7.430
 4947POPC   NC362483  35.572  36.286   5.604
 4947POPC   PO462484  34.845  36.374   5.437
 4947POPC   GL162485  35.014  36.247   5.856
 4947POPC   GL262486  34.992  35.898   5.979
 4947POPC   C1A62487  35.235  36.284   6.279
 4947POPC   D2A62488  35.255  36.373   6.722
 4947POPC   C3A62489  35.483  36.196   7.076
 4947POPC   C4A62490  35.327  36.051   7.467
 4947POPC   C1B62491  35.271  35.760   6.319
 4947POPC   C2B62492  35.343  35.837   6.764
 4947POPC   C3B62493  35.552  35.687   7.175
 4947POPC   C4B62494  35.655  35.741   7.660
 4948POPC   NC362495   9.638  12.263   5.444
 4948POPC   PO462496  10.043  11.772   5.387
 4948POPC   GL162497   9.668  11.826   5.740
 4948POPC   GL262498   9.292  11.783   5.675
 4948POPC   C1A62499   9.598  12.126   6.117
 4948POPC   D2A62500   9.911  12.379   6.379
 4948POPC   C3A62501   9.816  12.491   6.822
 4948POPC   C4A62502   9.767  12.262   7.210
 4948POPC   C1B62503   9.270  11.706   6.121
 4948POPC   C2B62504   9.243  11.806   6.564
 4948POPC   C3B62505   9.305  11.618   6.973
 4948POPC   C4B62506   9.623  11.762   7.252
 4949POPC   NC362507  21.728  41.914   5.542
 4949POPC   PO462508  22.345  41.670   5.414
 4949POPC   GL162509  22.400  41.642   5.859
 4949POPC   GL262510  22.047  41.681   5.958
 4949POPC   C1A62511  22.331  41.344   6.238
 4949POPC   D2A62512  22.038  41.256   6.590
 4949POPC   C3A62513  22.291  41.205   6.954
 4949POPC   C4A62514  22.330  41.474   7.308
 4949POPC   C1B62515  22.289  41.844   6.346
 4949POPC   C2B62516  22.332  41.701   6.781
 4949POPC   C3B62517  21.942  41.614   6.998
 4949POPC   C4B62518  21.811  41.755   7.386
 4950POPC   NC362519  34.287  13.548   5.415
 4950POPC   PO462520  34.054  14.148   5.482
 4950POPC   GL162521  34.269  13.816   5.863
 4950POPC   GL262522  34.210  13.427   5.899
 4950POPC   C1A62523  34.586  13.578   6.216
 4950POPC   D2A62524  34.783  13.462   6.657
 4950POPC   C3A62525  34.791  13.759   7.027
 4950POPC   C4A62526  34.793  13.796   7.488
 4950POPC   C1B62527  34.206  13.235   6.301
 4950POPC   C2B62528  34.321  13.273   6.720
 4950POPC   C3B62529  34.328  13.514   7.052
 4950POPC   C4B62530  34.174  13.271   7.326
 4951POPC   NC362531  11.396   4.710   5.428
 4951POPC   PO462532  11.619   4.069   5.382
 4951POPC   GL162533  11.335   4.245   5.702
 4951POPC   GL262534  11.525   4.517   5.892
 4951POPC   C1A62535  11.159   4.142   6.121
 4951POPC   D2A62536  10.823   4.247   6.419
 4951POPC   C3A62537  10.858   4.311   6.850
 4951POPC   C4A62538  11.140   4.191   7.183
 4951POPC   C1B62539  11.302   4.596   6.318
 4951POPC   C2B62540  11.348   4.467   6.773
 4951POPC   C3B62541  11.660   4.263   7.082
 4951POPC   C4B62542  11.733   4.326   7.521
 4952POPC   NC362543  15.866  37.997   5.488
 4952POPC   PO462544  15.633  37.400   5.407
 4952POPC   GL162545  15.878  37.562   5.760
 4952POPC   GL262546  15.683  37.781   5.908
 4952POPC   C1A62547  16.129  37.770   6.145
 4952POPC   D2A62548  15.989  37.750   6.568
 4952POPC   C3A62549  16.182  37.898   6.921
 4952POPC   C4A62550  16.159  37.939   7.321
 4952POPC   C1B62551  15.585  37.639   6.263
 4952POPC   C2B62552  15.478  37.739   6.668
 4952POPC   C3B62553  15.645  37.726   7.100
 4952POPC   C4B62554  15.735  37.781   7.522
 4953POPC   NC362555  36.386  32.840   5.249
 4953POPC   PO462556  35.860  33.216   5.469
 4953POPC   GL162557  35.972  33.132   5.905
 4953POPC   GL262558  36.308  32.998   5.833
 4953POPC   C1A62559  36.029  33.113   6.364
 4953POPC   D2A62560  35.967  33.325   6.752
 4953POPC   C3A62561  36.194  33.145   7.080
 4953POPC   C4A62562  36.517  33.076   7.348
 4953POPC   C1B62563  36.398  32.779   6.229
 4953POPC   C2B62564  36.494  32.914   6.664
 4953POPC   C3B62565  36.504  32.672   7.057
 4953POPC   C4B62566  36.458  32.623   7.551
 4954POPC   NC362567   7.840  11.619   5.584
 4954POPC   PO462568   7.952  10.963   5.304
 4954POPC   GL162569   8.257  11.226   5.657
 4954POPC   GL262570   8.352  11.532   5.781
 4954POPC   C1A62571   8.280  11.211   6.165
 4954POPC   D2A62572   7.988  11.289   6.512
 4954POPC   C3A62573   7.976  11.175   6.975
 4954POPC   C4A62574   8.061  11.386   7.367
 4954POPC   C1B62575   8.644  11.569   6.124
 4954POPC   C2B62576   8.475  11.505   6.547
 4954POPC   C3B62577   8.279  11.598   6.932
 4954POPC   C4B62578   8.506  11.636   7.329
 4955POPC   NC362579   7.751  32.423   5.439
 4955POPC   PO462580   7.213  31.958   5.381
 4955POPC   GL162581   7.305  32.148   5.783
 4955POPC   GL262582   6.962  32.291   5.854
 4955POPC   C1A62583   7.564  32.314   6.145
 4955POPC   D2A62584   7.618  32.446   6.598
 4955POPC   C3A62585   7.316  32.322   6.865
 4955POPC   C4A62586   7.479  32.169   7.231
 4955POPC   C1B62587   7.071  32.382   6.274
 4955POPC   C2B62588   6.993  32.676   6.578
 4955POPC   C3B62589   6.905  32.615   6.986
 4955POPC   C4B62590   7.034  32.378   7.336
 4956POPC   NC362591   5.529  43.140   5.554
 4956POPC   PO462592   6.026  42.803   5.449
 4956POPC   GL162593   6.038  43.075   5.825
 4956POPC   GL262594   5.731  43.088   6.003
 4956POPC   C1A62595   6.156  42.938   6.243
 4956POPC   D2A62596   6.272  43.061   6.643
 4956POPC   C3A62597   5.967  43.055   6.972
 4956POPC   C4A62598   5.566  42.894   7.165
 4956POPC   C1B62599   5.952  43.408   6.257
 4956POPC   C2B62600   5.912  43.594   6.685
 4956POPC   C3B62601   6.004  43.535   7.126
 4956POPC   C4B62602   5.816  43.260   7.411
 4957POPC   NC362603  39.513  27.709   5.479
 4957POPC   PO462604  40.120  27.571   5.237
 4957POPC   GL162605  40.037  27.794   5.627
 4957POPC   GL262606  40.011  27.483   5.774
 4957POPC   C1A62607  40.167  27.874   6.081
 4957POPC   D2A62608  40.004  27.854   6.518
 4957POPC   C3A62609  40.223  27.802   6.884
 4957POPC   C4A62610  40.143  27.690   7.321
 4957POPC   C1B62611  39.981  27.396   6.204
 4957POPC   C2B62612  40.068  27.364   6.630
 4957POPC   C3B62613  39.908  27.332   7.038
 4957POPC   C4B62614  39.937  27.184   7.473
 4958POPC   NC362615  38.858   5.122   5.360
 4958POPC   PO462616  38.309   4.740   5.381
 4958POPC   GL162617  38.383   5.072   5.656
 4958POPC   GL262618  38.657   4.921   5.786
 4958POPC   C1A62619  38.345   5.274   6.059
 4958POPC   D2A62620  38.308   5.164   6.502
 4958POPC   C3A62621  38.236   5.372   6.895
 4958POPC   C4A62622  38.492   5.428   7.283
 4958POPC   C1B62623  38.695   4.709   6.142
 4958POPC   C2B62624  38.777   4.741   6.561
 4958POPC   C3B62625  38.617   4.675   6.943
 4958POPC   C4B62626  38.348   4.960   7.173
 4959POPC   NC362627  33.586  20.416   5.334
 4959POPC   PO462628  32.951  20.574   5.193
 4959POPC   GL162629  33.188  20.657   5.585
 4959POPC   GL262630  33.276  20.322   5.742
 4959POPC   C1A62631  33.315  20.779   6.030
 4959POPC   D2A62632  33.371  20.586   6.475
 4959POPC   C3A62633  33.178  20.798   6.859
 4959POPC   C4A62634  32.879  20.950   7.177
 4959POPC   C1B62635  32.891  20.489   5.984
 4959POPC   C2B62636  32.855  20.531   6.455
 4959POPC   C3B62637  32.895  20.342   6.868
 4959POPC   C4B62638  32.627  20.500   7.181
 4960POPC   NC362639  25.146  34.335   5.378
 4960POPC   PO462640  25.612  34.790   5.463
 4960POPC   GL162641  25.409  34.554   5.765
 4960POPC   GL262642  25.071  34.653   5.767
 4960POPC   C1A62643  25.526  34.473   6.178
 4960POPC   D2A62644  25.602  34.704   6.565
 4960POPC   C3A62645  25.519  34.542   6.959
 4960POPC   C4A62646  25.483  34.799   7.338
 4960POPC   C1B62647  24.984  34.461   6.136
 4960POPC   C2B62648  25.108  34.647   6.494
 4960POPC   C3B62649  25.025  34.657   6.910
 4960POPC   C4B62650  25.111  34.431   7.293
 4961POPC   NC362651  17.851  31.311   5.498
 4961POPC   PO462652  17.350  31.885   5.461
 4961POPC   GL162653  17.559  31.655   5.754
 4961POPC   GL262654  17.357  31.445   5.993
 4961POPC   C1A62655  17.783  31.713   6.107
 4961POPC   D2A62656  17.654  31.533   6.489
 4961POPC   C3A62657  17.692  31.810   6.830
 4961POPC   C4A62658  17.700  31.876   7.290
 4961POPC   C1B62659  17.396  31.107   6.339
 4961POPC   C2B62660  17.449  31.106   6.801
 4961POPC   C3B62661  17.590  31.392   7.127
 4961POPC   C4B62662  17.361  31.565   7.494
 4962POPC   NC362663   9.566   9.181   5.149
 4962POPC   PO462664   9.767   8.616   5.381
 4962POPC   GL162665   9.692   8.778   5.789
 4962POPC   GL262666  10.023   8.887   5.861
 4962POPC   C1A62667   9.521   8.850   6.224
 4962POPC   D2A62668   9.416   9.215   6.497
 4962POPC   C3A62669   9.593   9.236   6.932
 4962POPC   C4A62670   9.591   8.935   7.267
 4962POPC   C1B62671   9.956   9.146   6.215
 4962POPC   C2B62672  10.055   9.046   6.636
 4962POPC   C3B62673  10.096   9.236   7.029
 4962POPC   C4B62674  10.031   9.143   7.465
 4963POPC   NC362675   4.240   8.426   5.458
 4963POPC   PO462676   4.257   7.749   5.298
 4963POPC   GL162677   4.093   7.988   5.711
 4963POPC   GL262678   4.044   8.361   5.924
 4963POPC   C1A62679   4.205   7.943   6.153
 4963POPC   D2A62680   4.532   8.077   6.422
 4963POPC   C3A62681   4.374   7.943   6.801
 4963POPC   C4A62682   4.558   7.853   7.185
 4963POPC   C1B62683   4.346   8.519   6.233
 4963POPC   C2B62684   4.473   8.545   6.677
 4963POPC   C3B62685   4.396   8.370   7.079
 4963POPC   C4B62686   4.103   8.068   7.271
 4964POPC   NC362687  25.577  26.685   5.439
 4964POPC   PO462688  24.910  26.888   5.419
 4964POPC   GL162689  25.193  26.849   5.800
 4964POPC   GL262690  25.473  26.608   5.930
 4964POPC   C1A62691  25.026  26.572   6.180
 4964POPC   D2A62692  25.188  26.530   6.623
 4964POPC   C3A62693  25.075  26.818   6.994
 4964POPC   C4A62694  24.770  26.767   7.368
 4964POPC   C1B62695  25.394  26.906   6.260
 4964POPC   C2B62696  25.572  26.874   6.631
 4964POPC   C3B62697  25.581  26.753   7.016
 4964POPC   C4B62698  25.449  27.161   7.170
 4965POPC   NC362699   2.226  30.381   5.372
 4965POPC   PO462700   1.585  30.553   5.445
 4965POPC   GL162701   1.864  30.741   5.776
 4965POPC   GL262702   2.205  30.883   5.660
 4965POPC   C1A62703   1.986  30.675   6.218
 4965POPC   D2A62704   2.057  30.434   6.593
 4965POPC   C3A62705   2.095  30.695   6.935
 4965POPC   C4A62706   1.770  30.779   7.218
 4965POPC   C1B62707   2.302  31.053   6.066
 4965POPC   C2B62708   2.313  30.994   6.507
 4965POPC   C3B62709   2.443  31.089   6.922
 4965POPC   C4B62710   2.231  31.072   7.279
 4966POPC   NC362711  36.837  25.629   5.431
 4966POPC   PO462712  36.936  25.008   5.499
 4966POPC   GL162713  36.742  25.220   5.862
 4966POPC   GL262714  36.988  25.486   5.935
 4966POPC   C1A62715  36.779  25.211   6.346
 4966POPC   D2A62716  37.148  25.172   6.630
 4966POPC   C3A62717  37.068  25.343   7.036
 4966POPC   C4A62718  36.773  25.152   7.328
 4966POPC   C1B62719  36.671  25.697   6.229
 4966POPC   C2B62720  36.558  25.674   6.687
 4966POPC   C3B62721  36.620  25.597   7.137
 4966POPC   C4B62722  36.511  25.513   7.587
 4967POPC   NC362723  21.344  18.489   5.328
 4967POPC   PO462724  21.805  17.963   5.306
 4967POPC   GL162725  21.449  18.069   5.653
 4967POPC   GL262726  21.374  18.403   5.810
 4967POPC   C1A62727  21.278  18.022   6.119
 4967POPC   D2A62728  21.473  18.111   6.533
 4967POPC   C3A62729  21.410  18.003   6.964
 4967POPC   C4A62730  21.048  17.833   7.126
 4967POPC   C1B62731  21.615  18.447   6.154
 4967POPC   C2B62732  21.677  18.582   6.564
 4967POPC   C3B62733  21.387  18.504   6.860
 4967POPC   C4B62734  21.477  18.467   7.258
 4968POPC   NC362735  22.027  40.175   5.320
 4968POPC   PO462736  22.271  39.553   5.449
 4968POPC   GL162737  22.280  39.924   5.756
 4968POPC   GL262738  21.933  40.050   5.788
 4968POPC   C1A62739  22.221  40.198   6.162
 4968POPC   D2A62740  22.411  40.364   6.512
 4968POPC   C3A62741  22.323  40.162   6.919
 4968POPC   C4A62742  22.168  40.302   7.333
 4968POPC   C1B62743  21.938  39.763   6.119
 4968POPC   C2B62744  21.920  39.636   6.548
 4968POPC   C3B62745  21.936  39.817   6.950
 4968POPC   C4B62746  22.206  39.795   7.275
 4969POPC   NC362747  30.164  14.139   5.557
 4969POPC   PO462748  29.819  13.628   5.417
 4969POPC   GL162749  30.051  13.692   5.772
 4969POPC   GL262750  29.809  13.938   5.870
 4969POPC   C1A62751  30.266  13.762   6.177
 4969POPC   D2A62752  30.178  13.413   6.458
 4969POPC   C3A62753  30.042  13.382   6.892
 4969POPC   C4A62754  30.292  13.335   7.232
 4969POPC   C1B62755  29.778  13.763   6.292
 4969POPC   C2B62756  29.990  13.882   6.695
 4969POPC   C3B62757  29.861  13.849   7.149
 4969POPC   C4B62758  29.547  13.685   7.507
 4970POPC   NC362759  39.325   0.010   5.398
 4970POPC   PO462760  39.250   0.611   5.359
 4970POPC   GL162761  39.352   0.505   5.775
 4970POPC   GL262762  39.593   0.309   5.707
 4970POPC   C1A62763  39.286   0.451   6.225
 4970POPC   D2A62764  38.935   0.489   6.492
 4970POPC   C3A62765  38.925   0.452   6.936
 4970POPC   C4A62766  39.327   0.472   7.144
 4970POPC   C1B62767  39.669   0.137   6.097
 4970POPC   C2B62768  39.557   0.117   6.517
 4970POPC   C3B62769  39.694   0.202   6.915
 4970POPC   C4B62770  39.552  44.976   7.255
 4971POPC   NC362771  37.980  23.532   5.548
 4971POPC   PO462772  38.454  23.993   5.413
 4971POPC   GL162773  38.454  23.742   5.756
 4971POPC   GL262774  38.211  23.954   5.887
 4971POPC   C1A62775  38.585  23.635   6.183
 4971POPC   D2A62776  38.419  23.520   6.609
 4971POPC   C3A62777  38.692  23.493   6.987
 4971POPC   C4A62778  38.648  23.555   7.444
 4971POPC   C1B62779  38.374  24.111   6.289
 4971POPC   C2B62780  38.530  24.017   6.722
 4971POPC   C3B62781  38.380  23.897   7.137
 4971POPC   C4B62782  38.512  24.047   7.550
 4972POPC   NC362783   1.337  38.140   5.359
 4972POPC   PO462784   0.916  38.636   5.270
 4972POPC   GL162785   1.099  38.494   5.701
 4972POPC   GL262786   1.461  38.375   5.799
 4972POPC   C1A62787   1.101  38.600   6.159
 4972POPC   D2A62788   1.255  38.585   6.588
 4972POPC   C3A62789   0.968  38.546   6.983
 4972POPC   C4A62790   0.803  38.779   7.391
 4972POPC   C1B62791   1.629  38.476   6.220
 4972POPC   C2B62792   1.769  38.375   6.647
 4972POPC   C3B62793   1.504  38.471   7.022
 4972POPC   C4B62794   1.253  38.548   7.392
 4973POPC   NC362795  21.433   3.204   5.389
 4973POPC   PO462796  21.317   3.835   5.457
 4973POPC   GL162797  21.408   3.581   5.852
 4973POPC   GL262798  21.597   3.209   5.858
 4973POPC   C1A62799  21.155   3.690   6.277
 4973POPC   D2A62800  21.017   3.541   6.707
 4973POPC   C3A62801  21.209   3.737   7.088
 4973POPC   C4A62802  21.603   3.670   7.298
 4973POPC   C1B62803  21.276   3.213   6.164
 4973POPC   C2B62804  21.518   3.364   6.486
 4973POPC   C3B62805  21.510   3.326   6.901
 4973POPC   C4B62806  21.162   3.222   7.084
 4974POPC   NC362807  17.093   3.944   5.034
 4974POPC   PO462808  17.303   4.276   5.506
 4974POPC   GL162809  17.510   4.343   5.856
 4974POPC   GL262810  17.339   4.679   5.841
 4974POPC   C1A62811  17.646   4.190   6.271
 4974POPC   D2A62812  17.850   4.279   6.688
 4974POPC   C3A62813  17.572   4.088   7.004
 4974POPC   C4A62814  17.540   4.304   7.349
 4974POPC   C1B62815  17.260   4.546   6.257
 4974POPC   C2B62816  17.342   4.371   6.650
 4974POPC   C3B62817  17.188   4.506   7.039
 4974POPC   C4B62818  17.065   4.380   7.460
 4975POPC   NC362819  43.606   9.239   5.216
 4975POPC   PO462820  44.128   8.784   5.456
 4975POPC   GL162821  43.990   9.081   5.782
 4975POPC   GL262822  43.835   8.772   5.893
 4975POPC   C1A62823  43.852   9.194   6.248
 4975POPC   D2A62824  43.895   9.391   6.668
 4975POPC   C3A62825  43.863   9.160   7.054
 4975POPC   C4A62826  43.634   8.814   7.202
 4975POPC   C1B62827  44.105   8.664   6.227
 4975POPC   C2B62828  44.015   8.838   6.620
 4975POPC   C3B62829  44.055   8.627   6.963
 4975POPC   C4B62830  43.973   8.444   7.305
 4976POPC   NC362831  18.114  17.989   5.655
 4976POPC   PO462832  18.341  17.391   5.485
 4976POPC   GL162833  18.210  17.557   5.901
 4976POPC   GL262834  18.491  17.738   5.920
 4976POPC   C1A62835  18.278  17.717   6.381
 4976POPC   D2A62836  18.347  17.767   6.872
 4976POPC   C3A62837  18.055  17.578   7.181
 4976POPC   C4A62838  17.909  17.513   7.630
 4976POPC   C1B62839  18.523  17.283   6.167
 4976POPC   C2B62840  18.292  17.205   6.536
 4976POPC   C3B62841  18.376  17.235   6.949
 4976POPC   C4B62842  18.700  17.056   7.140
 4977POPC   NC362843  34.750  24.135   5.345
 4977POPC   PO462844  34.565  24.750   5.277
 4977POPC   GL162845  34.609  24.522   5.682
 4977POPC   GL262846  34.313  24.590   5.855
 4977POPC   C1A62847  34.735  24.285   6.109
 4977POPC   D2A62848  34.669  24.089   6.531
 4977POPC   C3A62849  34.476  24.319   6.881
 4977POPC   C4A62850  34.665  24.332   7.287
 4977POPC   C1B62851  34.662  24.785   6.133
 4977POPC   C2B62852  34.715  24.650   6.555
 4977POPC   C3B62853  34.731  24.770   7.000
 4977POPC   C4B62854  34.367  24.775   7.246
 4978POPC   NC362855  27.511  37.277   5.373
 4978POPC   PO462856  27.792  37.890   5.247
 4978POPC   GL162857  27.539  37.738   5.651
 4978POPC   GL262858  27.590  37.986   5.868
 4978POPC   C1A62859  27.356  37.621   6.131
 4978POPC   D2A62860  27.501  37.361   6.507
 4978POPC   C3A62861  27.564  37.529   6.935
 4978POPC   C4A62862  27.345  37.645   7.322
 4978POPC   C1B62863  27.676  38.073   6.264
 4978POPC   C2B62864  27.435  37.910   6.595
 4978POPC   C3B62865  27.467  38.042   7.012
 4978POPC   C4B62866  27.571  38.115   7.399
 4979POPC   NC362867  43.636  19.344   5.294
 4979POPC   PO462868  44.135  18.892   5.325
 4979POPC   GL162869  44.048  19.061   5.724
 4979POPC   GL262870  43.675  19.125   5.787
 4979POPC   C1A62871  44.035  18.935   6.159
 4979POPC   D2A62872  43.777  19.172   6.437
 4979POPC   C3A62873  43.789  19.110   6.909
 4979POPC   C4A62874  43.974  18.995   7.302
 4979POPC   C1B62875  43.405  18.955   6.136
 4979POPC   C2B62876  43.450  18.832   6.602
 4979POPC   C3B62877  43.386  18.856   7.073
 4979POPC   C4B62878  43.593  18.739   7.505
 4980POPC   NC362879  30.189   6.974   5.446
 4980POPC   PO462880  29.744   6.452   5.489
 4980POPC   GL162881  29.940   6.526   5.842
 4980POPC   GL262882  29.877   6.867   5.881
 4980POPC   C1A62883  29.862   6.566   6.284
 4980POPC   D2A62884  30.149   6.587   6.602
 4980POPC   C3A62885  29.928   6.584   6.953
 4980POPC   C4A62886  29.604   6.781   7.121
 4980POPC   C1B62887  30.270   6.859   6.130
 4980POPC   C2B62888  30.379   7.052   6.534
 4980POPC   C3B62889  30.149   7.121   6.915
 4980POPC   C4B62890  30.200   6.859   7.266
 4981POPC   NC362891  28.848  24.983   5.590
 4981POPC   PO462892  29.228  25.452   5.243
 4981POPC   GL162893  29.052  25.449   5.712
 4981POPC   GL262894  28.729  25.516   5.750
 4981POPC   C1A62895  29.019  25.271   6.151
 4981POPC   D2A62896  28.835  25.313   6.538
 4981POPC   C3A62897  29.161  25.338   6.826
 4981POPC   C4A62898  29.020  25.089   7.190
 4981POPC   C1B62899  28.705  25.670   6.177
 4981POPC   C2B62900  28.871  25.821   6.582
 4981POPC   C3B62901  28.796  25.622   6.999
 4981POPC   C4B62902  28.829  25.521   7.449
 4982POPC   NC362903  24.269   7.564   5.334
 4982POPC   PO462904  24.403   6.968   5.490
 4982POPC   GL162905  24.499   7.355   5.755
 4982POPC   GL262906  24.174   7.457   5.827
 4982POPC   C1A62907  24.640   7.631   6.140
 4982POPC   D2A62908  24.738   7.520   6.605
 4982POPC   C3A62909  24.620   7.653   7.044
 4982POPC   C4A62910  24.537   7.611   7.507
 4982POPC   C1B62911  24.299   7.273   6.231
 4982POPC   C2B62912  24.132   7.246   6.633
 4982POPC   C3B62913  24.276   7.259   7.059
 4982POPC   C4B62914  24.102   7.317   7.484
 4983POPC   NC362915  11.182  11.984   5.104
 4983POPC   PO462916  11.781  12.098   5.482
 4983POPC   GL162917  11.345  12.180   5.655
 4983POPC   GL262918  11.410  11.904   5.850
 4983POPC   C1A62919  11.143  12.255   6.092
 4983POPC   D2A62920  11.336  12.340   6.478
 4983POPC   C3A62921  11.326  12.183   6.880
 4983POPC   C4A62922  11.211  12.216   7.279
 4983POPC   C1B62923  11.563  11.894   6.296
 4983POPC   C2B62924  11.651  11.832   6.742
 4983POPC   C3B62925  11.654  11.762   7.194
 4983POPC   C4B62926  11.641  12.082   7.520
 4984POPC   NC362927  20.323   5.821   5.420
 4984POPC   PO462928  19.689   5.732   5.130
 4984POPC   GL162929  19.755   5.850   5.666
 4984POPC   GL262930  20.099   5.895   5.852
 4984POPC   C1A62931  19.728   5.879   6.186
 4984POPC   D2A62932  19.608   6.038   6.628
 4984POPC   C3A62933  19.669   5.737   6.963
 4984POPC   C4A62934  19.951   5.474   7.180
 4984POPC   C1B62935  20.282   6.071   6.234
 4984POPC   C2B62936  20.153   6.124   6.683
 4984POPC   C3B62937  20.109   6.015   7.133
 4984POPC   C4B62938  20.192   5.787   7.503
 4985POPC   NC362939  23.653   4.595   5.487
 4985POPC   PO462940  23.869   4.018   5.319
 4985POPC   GL162941  23.857   4.178   5.739
 4985POPC   GL262942  23.481   4.158   5.712
 4985POPC   C1A62943  23.881   4.494   6.100
 4985POPC   D2A62944  24.096   4.683   6.481
 4985POPC   C3A62945  23.882   4.652   6.880
 4985POPC   C4A62946  23.895   4.443   7.274
 4985POPC   C1B62947  23.543   4.084   6.150
 4985POPC   C2B62948  23.602   4.328   6.522
 4985POPC   C3B62949  23.628   4.174   6.928
 4985POPC   C4B62950  23.416   4.226   7.307
 4986POPC   NC362951  43.919  20.981   5.673
 4986POPC   PO462952  43.946  21.594   5.244
 4986POPC   GL162953  43.948  21.549   5.692
 4986POPC   GL262954  43.614  21.450   5.776
 4986POPC   C1A62955  44.014  21.540   6.157
 4986POPC   D2A62956  43.890  21.376   6.581
 4986POPC   C3A62957  44.145  21.480   6.957
 4986POPC   C4A62958  44.053  21.382   7.370
 4986POPC   C1B62959  43.523  21.275   6.208
 4986POPC   C2B62960  43.416  21.151   6.665
 4986POPC   C3B62961  43.684  21.216   7.057
 4986POPC   C4B62962  43.579  21.545   7.411
 4987POPC   NC362963   0.671  42.195   5.472
 4987POPC   PO462964   0.031  42.539   5.416
 4987POPC   GL162965   0.202  42.299   5.798
 4987POPC   GL262966   0.540  42.374   5.920
 4987POPC   C1A62967   0.250  42.153   6.245
 4987POPC   D2A62968   0.442  42.395   6.575
 4987POPC   C3A62969   0.330  42.193   6.957
 4987POPC   C4A62970   0.235  42.402   7.318
 4987POPC   C1B62971   0.774  42.066   6.220
 4987POPC   C2B62972   0.760  42.024   6.689
 4987POPC   C3B62973   0.794  42.363   7.010
 4987POPC   C4B62974   0.730  42.512   7.434
 4988POPC   NC362975  17.920  13.018   5.125
 4988POPC   PO462976  18.457  12.928   5.495
 4988POPC   GL162977  18.410  12.765   5.867
 4988POPC   GL262978  18.509  13.069   6.000
 4988POPC   C1A62979  18.163  12.660   6.225
 4988POPC   D2A62980  17.946  12.714   6.617
 4988POPC   C3A62981  18.225  12.752   6.975
 4988POPC   C4A62982  18.204  12.669   7.416
 4988POPC   C1B62983  18.144  13.192   6.215
 4988POPC   C2B62984  18.082  13.360   6.611
 4988POPC   C3B62985  18.023  13.245   7.015
 4988POPC   C4B62986  18.337  13.148   7.298
 4989POPC   NC362987  32.593  17.271   5.226
 4989POPC   PO462988  32.264  16.719   5.449
 4989POPC   GL162989  32.177  16.940   5.847
 4989POPC   GL262990  32.469  16.770   5.965
 4989POPC   C1A62991  32.190  16.965   6.332
 4989POPC   D2A62992  32.543  16.838   6.605
 4989POPC   C3A62993  32.355  16.891   7.002
 4989POPC   C4A62994  31.887  16.792   7.058
 4989POPC   C1B62995  32.621  16.421   6.197
 4989POPC   C2B62996  32.473  16.297   6.576
 4989POPC   C3B62997  32.331  16.398   6.983
 4989POPC   C4B62998  32.490  16.326   7.361
 4990POPC   NC362999  30.050   5.046   5.492
 4990POPC   PO463000  30.716   5.163   5.340
 4990POPC   GL163001  30.543   5.042   5.785
 4990POPC   GL263002  30.349   4.721   5.841
 4990POPC   C1A63003  30.615   5.129   6.257
 4990POPC   D2A63004  30.746   5.331   6.669
 4990POPC   C3A63005  30.901   5.026   6.940
 4990POPC   C4A63006  30.952   4.961   7.352
 4990POPC   C1B63007  30.188   4.809   6.273
 4990POPC   C2B63008  30.290   5.029   6.683
 4990POPC   C3B63009  30.413   5.168   7.110
 4990POPC   C4B63010  30.467   5.055   7.559
 4991POPC   NC363011  27.297   2.052   5.343
 4991POPC   PO463012  26.740   1.747   5.443
 4991POPC   GL163013  27.025   1.855   5.783
 4991POPC   GL263014  26.787   2.100   5.974
 4991POPC   C1A63015  27.121   1.822   6.232
 4991POPC   D2A63016  26.855   1.848   6.603
 4991POPC   C3A63017  27.041   1.977   7.024
 4991POPC   C4A63018  27.130   1.849   7.464
 4991POPC   C1B63019  26.445   2.240   6.264
 4991POPC   C2B63020  26.333   2.031   6.624
 4991POPC   C3B63021  26.534   1.946   6.992
 4991POPC   C4B63022  26.485   2.292   7.225
 4992POPC   NC363023  18.964  14.664   5.324
 4992POPC   PO463024  18.860  13.989   5.517
 4992POPC   GL163025  19.144  14.287   5.733
 4992POPC   GL263026  19.317  14.615   5.710
 4992POPC   C1A63027  19.339  14.323   6.161
 4992POPC   D2A63028  19.194  14.207   6.579
 4992POPC   C3A63029  19.344  14.334   6.978
 4992POPC   C4A63030  19.017  14.489   7.254
 4992POPC   C1B63031  19.251  14.835   6.118
 4992POPC   C2B63032  19.373  14.709   6.543
 4992POPC   C3B63033  19.286  14.833   6.946
 4992POPC   C4B63034  19.495  14.882   7.312
 4993POPC   NC363035  24.570  39.351   5.473
 4993POPC   PO463036  24.292  38.731   5.300
 4993POPC   GL163037  24.437  38.929   5.778
 4993POPC   GL263038  24.371  39.296   5.947
 4993POPC   C1A63039  24.529  38.953   6.272
 4993POPC   D2A63040  24.366  39.202   6.638
 4993POPC   C3A63041  24.552  39.080   7.036
 4993POPC   C4A63042  24.371  39.067   7.448
 4993POPC   C1B63043  24.645  39.508   6.258
 4993POPC   C2B63044  24.593  39.665   6.682
 4993POPC   C3B63045  24.526  39.566   7.136
 4993POPC   C4B63046  24.308  39.838   7.407
 4994POPC   NC363047  24.487  27.103   5.460
 4994POPC   PO463048  24.279  26.464   5.549
 4994POPC   GL163049  24.343  26.780   5.865
 4994POPC   GL263050  24.677  26.834   5.857
 4994POPC   C1A63051  24.464  26.776   6.306
 4994POPC   D2A63052  24.390  26.500   6.616
 4994POPC   C3A63053  24.250  26.685   6.966
 4994POPC   C4A63054  24.317  27.007   7.250
 4994POPC   C1B63055  24.902  27.087   6.116
 4994POPC   C2B63056  24.926  26.971   6.511
 4994POPC   C3B63057  24.624  26.996   6.810
 4994POPC   C4B63058  24.776  27.216   7.155
 4995POPC   NC363059  10.270   9.151   5.502
 4995POPC   PO463060  10.576   8.600   5.378
 4995POPC   GL163061  10.547   8.824   5.785
 4995POPC   GL263062  10.721   9.143   5.878
 4995POPC   C1A63063  10.430   8.851   6.209
 4995POPC   D2A63064  10.722   8.952   6.506
 4995POPC   C3A63065  10.521   8.999   6.871
 4995POPC   C4A63066  10.467   8.947   7.293
 4995POPC   C1B63067  10.783   9.405   6.270
 4995POPC   C2B63068  10.837   9.406   6.733
 4995POPC   C3B63069  10.884   9.218   7.152
 4995POPC   C4B63070  10.967   9.226   7.628
 4996POPC   NC363071  36.631  21.598   5.518
 4996POPC   PO463072  37.280  21.645   5.478
 4996POPC   GL163073  36.991  21.295   5.743
 4996POPC   GL263074  36.641  21.135   5.809
 4996POPC   C1A63075  36.897  21.282   6.213
 4996POPC   D2A63076  36.975  21.475   6.601
 4996POPC   C3A63077  36.717  21.551   6.984
 4996POPC   C4A63078  36.907  21.604   7.393
 4996POPC   C1B63079  36.621  20.866   6.239
 4996POPC   C2B63080  36.791  20.923   6.683
 4996POPC   C3B63081  36.667  21.028   7.133
 4996POPC   C4B63082  36.847  21.130   7.552
 4997POPC   NC363083   2.607  15.792   5.233
 4997POPC   PO463084   3.027  16.255   5.217
 4997POPC   GL163085   2.843  16.052   5.639
 4997POPC   GL263086   2.640  15.730   5.733
 4997POPC   C1A63087   2.737  16.169   6.091
 4997POPC   D2A63088   2.975  16.209   6.497
 4997POPC   C3A63089   2.847  16.078   6.895
 4997POPC   C4A63090   2.657  16.218   7.275
 4997POPC   C1B63091   2.881  15.681   6.087
 4997POPC   C2B63092   2.876  15.642   6.518
 4997POPC   C3B63093   2.780  15.583   6.946
 4997POPC   C4B63094   2.946  15.783   7.328
 4998POPC   NC363095   6.489  44.257   5.532
 4998POPC   PO463096   6.594  43.625   5.412
 4998POPC   GL163097   6.605  43.719   5.826
 4998POPC   GL263098   6.812  43.969   5.816
 4998POPC   C1A63099   6.800  43.684   6.238
 4998POPC   D2A63100   7.060  43.711   6.621
 4998POPC   C3A63101   6.862  43.758   7.016
 4998POPC   C4A63102   6.919  43.723   7.500
 4998POPC   C1B63103   6.629  44.165   6.156
 4998POPC   C2B63104   6.606  44.025   6.565
 4998POPC   C3B63105   6.683  44.223   6.911
 4998POPC   C4B63106   6.633  44.119   7.308
 4999POPC   NC363107  41.110  17.206   5.605
 4999POPC   PO463108  40.653  17.658   5.442
 4999POPC   GL163109  40.711  17.451   5.821
 4999POPC   GL263110  41.010  17.622   5.908
 4999POPC   C1A63111  40.788  17.255   6.221
 4999POPC   D2A63112  41.066  17.247   6.585
 4999POPC   C3A63113  40.811  17.231   6.989
 4999POPC   C4A63114  40.680  17.486   7.341
 4999POPC   C1B63115  40.685  17.763   6.219
 4999POPC   C2B63116  40.680  17.589   6.627
 4999POPC   C3B63117  40.857  17.782   6.980
 4999POPC   C4B63118  40.789  17.962   7.399
 5000POPC   NC363119  13.587  39.647   5.343
 5000POPC   PO463120  13.852  39.128   5.619
 5000POPC   GL163121  13.663  39.274   5.899
 5000POPC   GL263122  13.371  39.481   5.792
 5000POPC   C1A63123  13.780  39.154   6.312
 5000POPC   D2A63124  13.694  39.128   6.716
 5000POPC   C3A63125  13.974  39.299   6.962
 5000POPC   C4A63126  13.834  39.305   7.353
 5000POPC   C1B63127  13.268  39.273   6.209
 5000POPC   C2B63128  13.307  39.442   6.619
 5000POPC   C3B63129  13.351  39.411   7.076
 5000POPC   C4B63130  13.307  39.779   7.331
 5001POPC   NC363131  26.229  19.428   5.496
 5001POPC   PO463132  25.641  19.669   5.404
 5001POPC   GL163133  25.762  19.810   5.781
 5001POPC   GL263134  25.677  20.128   5.869
 5001POPC   C1A63135  26.069  19.750   6.097
 5001POPC   D2A63136  26.193  19.882   6.496
 5001POPC   C3A63137  25.962  19.733   6.832
 5001POPC   C4A63138  26.014  19.890   7.244
 5001POPC   C1B63139  25.733  20.059   6.311
 5001POPC   C2B63140  25.728  20.178   6.723
 5001POPC   C3B63141  25.442  20.161   7.048
 5001POPC   C4B63142  25.548  20.119   7.487
 5002POPC   NC363143  41.393  38.608   5.391
 5002POPC   PO463144  40.824  38.267   5.218
 5002POPC   GL163145  40.965  38.424   5.663
 5002POPC   GL263146  40.986  38.782   5.729
 5002POPC   C1A63147  40.952  38.434   6.151
 5002POPC   D2A63148  40.592  38.465   6.474
 5002POPC   C3A63149  40.727  38.465   6.908
 5002POPC   C4A63150  41.048  38.585   7.165
 5002POPC   C1B63151  40.713  38.884   6.116
 5002POPC   C2B63152  40.857  38.908   6.557
 5002POPC   C3B63153  40.718  38.971   6.962
 5002POPC   C4B63154  40.607  38.781   7.340
 5003POPC   NC363155  42.007  39.397   5.469
 5003POPC   PO463156  42.452  38.905   5.459
 5003POPC   GL163157  42.490  39.232   5.860
 5003POPC   GL263158  42.233  39.488   5.913
 5003POPC   C1A63159  42.483  39.369   6.336
 5003POPC   D2A63160  42.124  39.192   6.602
 5003POPC   C3A63161  42.222  38.954   6.996
 5003POPC   C4A63162  42.546  39.059   7.278
 5003POPC   C1B63163  41.996  39.596   6.295
 5003POPC   C2B63164  42.031  39.668   6.759
 5003POPC   C3B63165  42.248  39.468   7.106
 5003POPC   C4B63166  42.303  39.452   7.555
 5004POPC   NC363167  41.110   6.932   5.488
 5004POPC   PO463168  40.688   6.459   5.645
 5004POPC   GL163169  40.697   6.821   5.885
 5004POPC   GL263170  40.844   7.140   5.895
 5004POPC   C1A63171  40.680   6.826   6.306
 5004POPC   D2A63172  40.749   7.006   6.664
 5004POPC   C3A63173  40.649   6.714   6.985
 5004POPC   C4A63174  40.660   6.359   7.247
 5004POPC   C1B63175  41.166   6.886   6.122
 5004POPC   C2B63176  41.127   6.605   6.407
 5004POPC   C3B63177  41.141   6.722   6.790
 5004POPC   C4B63178  41.107   6.820   7.201
 5005POPC   NC363179  15.247  23.419   5.483
 5005POPC   PO463180  15.380  22.729   5.441
 5005POPC   GL163181  15.120  22.924   5.738
 5005POPC   GL263182  15.425  23.078   5.878
 5005POPC   C1A63183  15.029  22.984   6.192
 5005POPC   D2A63184  15.207  22.979   6.635
 5005POPC   C3A63185  14.925  23.099   6.998
 5005POPC   C4A63186  14.978  22.959   7.433
 5005POPC   C1B63187  15.498  22.708   6.204
 5005POPC   C2B63188  15.561  22.541   6.665
 5005POPC   C3B63189  15.353  22.732   7.066
 5005POPC   C4B63190  15.418  23.160   7.233
 5006POPC   NC363191  27.853  26.047   5.140
 5006POPC   PO463192  28.464  26.026   5.100
 5006POPC   GL163193  28.323  26.024   5.578
 5006POPC   GL263194  28.175  26.344   5.702
 5006POPC   C1A63195  28.467  26.083   6.035
 5006POPC   D2A63196  28.365  26.087   6.489
 5006POPC   C3A63197  28.612  26.146   6.879
 5006POPC   C4A63198  28.569  25.976   7.288
 5006POPC   C1B63199  28.060  26.375   6.150
 5006POPC   C2B63200  27.902  26.290   6.584
 5006POPC   C3B63201  28.089  26.113   6.968
 5006POPC   C4B63202  28.072  26.023   7.412
 5007POPC   NC363203  21.129   8.014   5.629
 5007POPC   PO463204  21.277   7.518   5.249
 5007POPC   GL163205  21.355   7.556   5.715
 5007POPC   GL263206  21.595   7.819   5.803
 5007POPC   C1A63207  21.182   7.402   6.129
 5007POPC   D2A63208  21.248   7.324   6.585
 5007POPC   C3A63209  21.006   7.089   6.897
 5007POPC   C4A63210  21.139   7.117   7.319
 5007POPC   C1B63211  21.604   7.707   6.259
 5007POPC   C2B63212  21.403   7.809   6.685
 5007POPC   C3B63213  21.484   7.695   7.128
 5007POPC   C4B63214  21.875   7.825   7.376
 5008POPC   NC363215  14.950  20.982   5.492
 5008POPC   PO463216  15.402  20.590   5.424
 5008POPC   GL163217  15.391  20.599   5.855
 5008POPC   GL263218  15.086  20.451   5.858
 5008POPC   C1A63219  15.320  20.545   6.304
 5008POPC   D2A63220  14.939  20.445   6.530
 5008POPC   C3A63221  14.958  20.344   6.940
 5008POPC   C4A63222  15.230  20.485   7.202
 5008POPC   C1B63223  14.777  20.675   6.107
 5008POPC   C2B63224  14.592  20.827   6.478
 5008POPC   C3B63225  14.747  20.798   6.869
 5008POPC   C4B63226  14.836  20.790   7.259
 5009POPC   NC363227  11.339  31.560   5.416
 5009POPC   PO463228  11.052  30.997   5.586
 5009POPC   GL163229  11.173  31.344   5.872
 5009POPC   GL263230  11.550  31.332   5.882
 5009POPC   C1A63231  11.201  31.372   6.326
 5009POPC   D2A63232  11.418  31.276   6.694
 5009POPC   C3A63233  11.142  31.383   6.975
 5009POPC   C4A63234  10.960  31.305   7.390
 5009POPC   C1B63235  11.496  31.735   6.116
 5009POPC   C2B63236  11.384  31.812   6.567
 5009POPC   C3B63237  11.605  31.691   6.953
 5009POPC   C4B63238  11.560  31.334   7.232
 5010POPC   NC363239  22.473  25.593   5.508
 5010POPC   PO463240  22.559  24.877   5.386
 5010POPC   GL163241  22.766  25.170   5.727
 5010POPC   GL263242  22.851  24.863   5.893
 5010POPC   C1A63243  23.061  25.295   6.109
 5010POPC   D2A63244  23.219  25.330   6.547
 5010POPC   C3A63245  22.855  25.360   6.821
 5010POPC   C4A63246  22.742  25.424   7.246
 5010POPC   C1B63247  23.034  24.800   6.291
 5010POPC   C2B63248  23.024  24.864   6.724
 5010POPC   C3B63249  22.843  24.928   7.126
 5010POPC   C4B63250  23.020  25.094   7.527
 5011POPC   NC363251  36.573  35.707   5.437
 5011POPC   PO463252  36.764  34.969   5.499
 5011POPC   GL163253  36.939  35.177   5.855
 5011POPC   GL263254  36.943  35.544   5.795
 5011POPC   C1A63255  36.832  35.137   6.275
 5011POPC   D2A63256  36.844  35.394   6.610
 5011POPC   C3A63257  36.745  35.347   7.034
 5011POPC   C4A63258  37.088  35.217   7.262
 5011POPC   C1B63259  37.164  35.543   6.192
 5011POPC   C2B63260  37.237  35.698   6.606
 5011POPC   C3B63261  37.193  35.676   7.049
 5011POPC   C4B63262  37.319  35.715   7.497
 5012POPC   NC363263  19.898  24.066   5.519
 5012POPC   PO463264  19.967  24.784   5.205
 5012POPC   GL163265  19.751  24.745   5.642
 5012POPC   GL263266  19.569  24.424   5.722
 5012POPC   C1A63267  19.807  24.671   6.107
 5012POPC   D2A63268  19.893  24.327   6.399
 5012POPC   C3A63269  20.012  24.426   6.784
 5012POPC   C4A63270  19.998  24.584   7.157
 5012POPC   C1B63271  19.506  24.188   6.095
 5012POPC   C2B63272  19.510  23.983   6.507
 5012POPC   C3B63273  19.538  24.210   6.841
 5012POPC   C4B63274  19.668  24.197   7.220
 5013POPC   NC363275  44.875  40.051   5.226
 5013POPC   PO463276  44.526  40.364   5.615
 5013POPC   GL163277  44.673  40.315   5.984
 5013POPC   GL263278  44.959  40.186   5.812
 5013POPC   C1A63279  44.571  40.055   6.354
 5013POPC   D2A63280  44.623  39.813   6.704
 5013POPC   C3A63281  44.505  40.001   7.040
 5013POPC   C4A63282  44.323  39.716   7.264
 5013POPC   C1B63283   0.118  40.223   6.207
 5013POPC   C2B63284   0.043  40.075   6.586
 5013POPC   C3B63285   0.107  40.140   6.976
 5013POPC   C4B63286  44.927  40.103   7.352
 5014POPC   NC363287  21.473   0.726   5.619
 5014POPC   PO463288  21.397   0.078   5.412
 5014POPC   GL163289  21.237   0.318   5.850
 5014POPC   GL263290  21.191   0.726   6.017
 5014POPC   C1A63291  21.443   0.355   6.271
 5014POPC   D2A63292  21.516   0.138   6.666
 5014POPC   C3A63293  21.602   0.417   6.971
 5014POPC   C4A63294  21.513   0.495   7.387
 5014POPC   C1B63295  20.972   0.571   6.326
 5014POPC   C2B63296  21.121   0.471   6.742
 5014POPC   C3B63297  21.117   0.301   7.169
 5014POPC   C4B63298  21.061   0.530   7.619
 5015POPC   NC363299  31.445  40.575   5.382
 5015POPC   PO463300  31.771  40.223   5.862
 5015POPC   GL163301  31.609  40.650   5.868
 5015POPC   GL263302  31.725  40.937   5.671
 5015POPC   C1A63303  31.357  40.790   6.204
 5015POPC   D2A63304  31.302  40.583   6.554
 5015POPC   C3A63305  31.494  40.661   6.919
 5015POPC   C4A63306  31.261  40.753   7.258
 5015POPC   C1B63307  31.773  41.061   6.116
 5015POPC   C2B63308  31.667  41.065   6.585
 5015POPC   C3B63309  31.825  41.021   7.042
 5015POPC   C4B63310  31.627  41.021   7.482
 5016POPC   NC363311  33.390  32.264   5.263
 5016POPC   PO463312  33.953  31.947   5.357
 5016POPC   GL163313  33.669  32.103   5.691
 5016POPC   GL263314  33.519  32.440   5.722
 5016POPC   C1A63315  33.793  32.066   6.132
 5016POPC   D2A63316  34.050  32.109   6.509
 5016POPC   C3A63317  33.834  32.189   6.898
 5016POPC   C4A63318  33.904  32.131   7.315
 5016POPC   C1B63319  33.654  32.558   6.093
 5016POPC   C2B63320  33.957  32.614   6.396
 5016POPC   C3B63321  34.113  32.596   6.790
 5016POPC   C4B63322  33.986  32.636   7.184
 5017POPC   NC363323  13.930  12.673   5.399
 5017POPC   PO463324  13.375  13.069   5.546
 5017POPC   GL163325  13.628  12.815   5.799
 5017POPC   GL263326  13.899  13.021   5.767
 5017POPC   C1A63327  13.869  12.738   6.188
 5017POPC   D2A63328  13.683  12.905   6.554
 5017POPC   C3A63329  13.796  12.714   6.940
 5017POPC   C4A63330  13.826  12.493   7.313
 5017POPC   C1B63331  13.835  13.241   6.148
 5017POPC   C2B63332  14.013  13.351   6.541
 5017POPC   C3B63333  13.818  13.247   6.919
 5017POPC   C4B63334  13.638  13.074   7.271
 5018POPC   NC363335  12.393  13.198   5.342
 5018POPC   PO463336  11.908  13.676   5.482
 5018POPC   GL163337  11.776  13.620   5.878
 5018POPC   GL263338  12.150  13.700   5.975
 5018POPC   C1A63339  11.773  13.739   6.305
 5018POPC   D2A63340  12.134  13.737   6.556
 5018POPC   C3A63341  11.940  13.695   6.954
 5018POPC   C4A63342  12.131  13.760   7.352
 5018POPC   C1B63343  12.365  13.390   6.223
 5018POPC   C2B63344  12.251  13.262   6.651
 5018POPC   C3B63345  12.347  13.402   7.058
 5018POPC   C4B63346  12.317  13.329   7.511
 5019POPC   NC363347  41.755  34.067   5.537
 5019POPC   PO463348  41.353  33.526   5.472
 5019POPC   GL163349  41.548  33.676   5.831
 5019POPC   GL263350  41.921  33.644   5.785
 5019POPC   C1A63351  41.372  33.820   6.216
 5019POPC   D2A63352  41.164  33.778   6.601
 5019POPC   C3A63353  41.412  33.853   6.933
 5019POPC   C4A63354  41.247  33.920   7.308
 5019POPC   C1B63355  41.875  33.883   6.179
 5019POPC   C2B63356  41.874  33.903   6.636
 5019POPC   C3B63357  41.914  33.991   7.065
 5019POPC   C4B63358  41.718  33.751   7.404
 5020POPC   NC363359  33.661  28.456   4.822
 5020POPC   PO463360  33.485  28.167   5.460
 5020POPC   GL163361  33.736  28.487   5.691
 5020POPC   GL263362  34.027  28.374   5.829
 5020POPC   C1A63363  33.735  28.612   6.149
 5020POPC   D2A63364  33.668  28.366   6.503
 5020POPC   C3A63365  33.803  28.540   6.843
 5020POPC   C4A63366  33.799  28.578   7.236
 5020POPC   C1B63367  33.787  28.090   6.080
 5020POPC   C2B63368  33.846  27.893   6.480
 5020POPC   C3B63369  33.918  28.025   6.852
 5020POPC   C4B63370  33.779  28.050   7.223
 5021POPC   NC363371  26.967  21.493   5.342
 5021POPC   PO463372  26.387  21.153   5.384
 5021POPC   GL163373  26.731  21.243   5.758
 5021POPC   GL263374  27.013  21.524   5.867
 5021POPC   C1A63375  26.866  21.208   6.228
 5021POPC   D2A63376  27.047  21.358   6.626
 5021POPC   C3A63377  26.890  21.155   7.008
 5021POPC   C4A63378  26.951  21.080   7.436
 5021POPC   C1B63379  26.866  21.725   6.265
 5021POPC   C2B63380  26.942  21.889   6.672
 5021POPC   C3B63381  26.980  21.676   7.050
 5021POPC   C4B63382  26.700  21.555   7.352
 5022POPC   NC363383  35.477  31.258   5.414
 5022POPC   PO463384  36.087  31.619   5.369
 5022POPC   GL163385  36.190  31.501   5.779
 5022POPC   GL263386  36.113  31.826   5.904
 5022POPC   C1A63387  36.384  31.509   6.220
 5022POPC   D2A63388  36.438  31.843   6.559
 5022POPC   C3A63389  36.338  31.711   6.995
 5022POPC   C4A63390  36.445  31.349   7.215
 5022POPC   C1B63391  35.865  31.517   6.164
 5022POPC   C2B63392  35.957  31.441   6.584
 5022POPC   C3B63393  35.822  31.666   6.937
 5022POPC   C4B63394  35.919  31.455   7.311
 5023POPC   NC363395  35.084  25.743   5.492
 5023POPC   PO463396  35.503  26.268   5.487
 5023POPC   GL163397  35.227  26.127   5.785
 5023POPC   GL263398  35.333  25.810   5.948
 5023POPC   C1A63399  35.111  26.205   6.167
 5023POPC   D2A63400  35.304  26.092   6.518
 5023POPC   C3A63401  35.356  26.381   6.848
 5023POPC   C4A63402  35.259  26.322   7.253
 5023POPC   C1B63403  35.613  25.713   6.315
 5023POPC   C2B63404  35.624  25.772   6.751
 5023POPC   C3B63405  35.269  25.894   6.985
 5023POPC   C4B63406  35.450  25.867   7.373
 5024POPC   NC363407  22.438  19.690   5.321
 5024POPC   PO463408  22.133  20.281   5.187
 5024POPC   GL163409  21.911  20.035   5.554
 5024POPC   GL263410  21.987  19.667   5.685
 5024POPC   C1A63411  21.924  20.021   6.037
 5024POPC   D2A63412  21.914  19.738   6.415
 5024POPC   C3A63413  21.851  19.904   6.851
 5024POPC   C4A63414  21.815  19.824   7.287
 5024POPC   C1B63415  22.295  19.646   6.046
 5024POPC   C2B63416  22.402  19.626   6.514
 5024POPC   C3B63417  22.386  19.866   6.881
 5024POPC   C4B63418  22.301  19.741   7.278
 5025POPC   NC363419  16.167  43.253   5.430
 5025POPC   PO463420  15.562  43.316   5.446
 5025POPC   GL163421  15.765  43.133   5.797
 5025POPC   GL263422  16.005  42.863   5.762
 5025POPC   C1A63423  15.903  43.334   6.186
 5025POPC   D2A63424  15.727  43.587   6.509
 5025POPC   C3A63425  15.891  43.571   6.920
 5025POPC   C4A63426  16.079  43.219   7.133
 5025POPC   C1B63427  15.924  42.835   6.240
 5025POPC   C2B63428  16.141  43.028   6.622
 5025POPC   C3B63429  16.422  42.907   6.961
 5025POPC   C4B63430  16.294  42.796   7.391
 5026POPC   NC363431  21.244   7.101   5.453
 5026POPC   PO463432  21.482   6.505   5.306
 5026POPC   GL163433  21.480   6.475   5.757
 5026POPC   GL263434  21.458   6.828   5.861
 5026POPC   C1A63435  21.309   6.475   6.195
 5026POPC   D2A63436  21.209   6.796   6.511
 5026POPC   C3A63437  21.300   6.640   6.930
 5026POPC   C4A63438  21.226   6.509   7.325
 5026POPC   C1B63439  21.595   7.087   6.227
 5026POPC   C2B63440  21.722   7.132   6.641
 5026POPC   C3B63441  21.540   7.084   7.005
 5026POPC   C4B63442  21.582   6.859   7.366
 5027POPC   NC363443  38.907   2.505   5.448
 5027POPC   PO463444  39.047   3.188   5.440
 5027POPC   GL163445  39.250   2.813   5.723
 5027POPC   GL263446  38.990   2.677   5.941
 5027POPC   C1A63447  39.486   2.557   6.105
 5027POPC   D2A63448  39.575   2.651   6.588
 5027POPC   C3A63449  39.169   2.626   6.864
 5027POPC   C4A63450  38.945   2.457   7.244
 5027POPC   C1B63451  39.223   2.983   6.224
 5027POPC   C2B63452  39.280   3.099   6.664
 5027POPC   C3B63453  39.427   3.030   7.103
 5027POPC   C4B63454  39.333   3.123   7.521
 5028POPC   NC363455   5.006  18.702   5.151
 5028POPC   PO463456   5.516  19.035   5.389
 5028POPC   GL163457   5.101  18.988   5.622
 5028POPC   GL263458   5.321  19.117   5.876
 5028POPC   C1A63459   4.862  19.027   6.052
 5028POPC   D2A63460   5.050  18.906   6.463
 5028POPC   C3A63461   4.803  18.939   6.833
 5028POPC   C4A63462   4.891  18.951   7.253
 5028POPC   C1B63463   5.258  19.383   6.226
 5028POPC   C2B63464   5.293  19.306   6.659
 5028POPC   C3B63465   5.323  18.990   6.953
 5028POPC   C4B63466   5.324  19.210   7.316
 5029POPC   NC363467   5.752  11.157   5.455
 5029POPC   PO463468   6.050  11.764   5.429
 5029POPC   GL163469   6.141  11.489   5.780
 5029POPC   GL263470   6.291  11.137   5.720
 5029POPC   C1A63471   5.921  11.531   6.175
 5029POPC   D2A63472   5.692  11.616   6.543
 5029POPC   C3A63473   5.861  11.432   6.895
 5029POPC   C4A63474   6.016  11.567   7.244
 5029POPC   C1B63475   6.031  11.035   6.091
 5029POPC   C2B63476   6.082  11.101   6.539
 5029POPC   C3B63477   5.997  10.937   6.959
 5029POPC   C4B63478   5.598  11.026   7.162
 5030POPC   NC363479  32.899  39.638   5.526
 5030POPC   PO463480  32.722  40.328   5.570
 5030POPC   GL163481  33.107  40.252   5.778
 5030POPC   GL263482  33.049  39.915   5.909
 5030POPC   C1A63483  33.309  40.214   6.203
 5030POPC   D2A63484  33.125  39.935   6.527
 5030POPC   C3A63485  33.115  40.098   6.960
 5030POPC   C4A63486  33.031  39.974   7.397
 5030POPC   C1B63487  32.682  39.881   6.166
 5030POPC   C2B63488  32.608  39.865   6.611
 5030POPC   C3B63489  32.796  39.712   6.987
 5030POPC   C4B63490  32.622  39.668   7.372
 5031POPC   NC363491  44.597  30.224   5.178
 5031POPC   PO463492  44.896  29.684   5.535
 5031POPC   GL163493  44.788  29.789   5.959
 5031POPC   GL263494  44.478  29.915   5.898
 5031POPC   C1A63495  44.673  30.043   6.351
 5031POPC   D2A63496  44.849  30.040   6.755
 5031POPC   C3A63497  44.655  30.043   7.120
 5031POPC   C4A63498  44.775  29.629   7.200
 5031POPC   C1B63499  44.355  29.641   6.255
 5031POPC   C2B63500  44.302  29.849   6.659
 5031POPC   C3B63501  44.217  29.759   7.080
 5031POPC   C4B63502  44.210  29.952   7.496
 5032POPC   NC363503   6.699  18.789   5.425
 5032POPC   PO463504   6.666  19.509   5.415
 5032POPC   GL163505   6.741  19.311   5.831
 5032POPC   GL263506   6.746  18.930   5.915
 5032POPC   C1A63507   6.688  19.309   6.290
 5032POPC   D2A63508   6.833  19.102   6.649
 5032POPC   C3A63509   6.586  19.123   6.978
 5032POPC   C4A63510   6.765  19.143   7.352
 5032POPC   C1B63511   6.352  18.939   6.145
 5032POPC   C2B63512   6.270  18.953   6.570
 5032POPC   C3B63513   6.335  18.683   6.919
 5032POPC   C4B63514   6.427  18.782   7.329
 5033POPC   NC363515   3.187  31.899   5.543
 5033POPC   PO463516   2.542  32.172   5.390
 5033POPC   GL163517   2.743  32.175   5.779
 5033POPC   GL263518   2.686  31.859   5.831
 5033POPC   C1A63519   2.873  32.273   6.191
 5033POPC   D2A63520   2.631  32.461   6.501
 5033POPC   C3A63521   2.745  32.356   6.881
 5033POPC   C4A63522   2.833  32.448   7.288
 5033POPC   C1B63523   2.845  31.750   6.246
 5033POPC   C2B63524   2.908  31.904   6.665
 5033POPC   C3B63525   2.720  31.898   7.077
 5033POPC   C4B63526   2.860  31.947   7.462
 5034POPC   NC363527  13.572  29.495   5.605
 5034POPC   PO463528  13.461  30.190   5.416
 5034POPC   GL163529  13.583  29.983   5.776
 5034POPC   GL263530  13.932  29.835   5.764
 5034POPC   C1A63531  13.367  29.838   6.150
 5034POPC   D2A63532  13.389  29.984   6.575
 5034POPC   C3A63533  13.381  29.695   6.894
 5034POPC   C4A63534  13.615  29.966   7.128
 5034POPC   C1B63535  13.865  29.951   6.216
 5034POPC   C2B63536  13.937  30.261   6.538
 5034POPC   C3B63537  13.931  30.361   6.985
 5034POPC   C4B63538  14.062  30.096   7.352
 5035POPC   NC363539  29.942  20.897   5.338
 5035POPC   PO463540  30.216  20.295   5.333
 5035POPC   GL163541  30.014  20.517   5.705
 5035POPC   GL263542  30.257  20.764   5.725
 5035POPC   C1A63543  29.874  20.595   6.162
 5035POPC   D2A63544  29.955  20.550   6.620
 5035POPC   C3A63545  29.647  20.373   6.942
 5035POPC   C4A63546  29.821  20.476   7.379
 5035POPC   C1B63547  30.238  20.955   6.117
 5035POPC   C2B63548  30.393  20.905   6.529
 5035POPC   C3B63549  30.219  20.896   6.944
 5035POPC   C4B63550  30.344  21.009   7.344
 5036POPC   NC363551  17.732  34.590   5.213
 5036POPC   PO463552  18.332  34.828   5.493
 5036POPC   GL163553  18.259  34.686   5.871
 5036POPC   GL263554  18.437  34.391   5.912
 5036POPC   C1A63555  18.226  34.833   6.272
 5036POPC   D2A63556  18.334  34.624   6.638
 5036POPC   C3A63557  18.253  34.849   6.978
 5036POPC   C4A63558  18.093  34.636   7.288
 5036POPC   C1B63559  18.554  34.137   6.283
 5036POPC   C2B63560  18.604  34.180   6.731
 5036POPC   C3B63561  18.415  34.275   7.102
 5036POPC   C4B63562  18.515  34.153   7.507
 5037POPC   NC363563  35.206  16.553   5.384
 5037POPC   PO463564  35.381  17.182   5.497
 5037POPC   GL163565  35.382  16.847   5.772
 5037POPC   GL263566  35.617  16.566   5.767
 5037POPC   C1A63567  35.330  16.706   6.179
 5037POPC   D2A63568  35.282  16.853   6.563
 5037POPC   C3A63569  35.549  16.801   6.874
 5037POPC   C4A63570  35.245  16.978   7.134
 5037POPC   C1B63571  35.747  16.409   6.199
 5037POPC   C2B63572  35.941  16.429   6.619
 5037POPC   C3B63573  35.783  16.380   7.037
 5037POPC   C4B63574  35.575  16.628   7.358
 5038POPC   NC363575  43.819   0.795   5.516
 5038POPC   PO463576  43.561   1.420   5.582
 5038POPC   GL163577  43.847   1.183   5.840
 5038POPC   GL263578  44.036   1.426   6.023
 5038POPC   C1A63579  44.004   0.906   6.175
 5038POPC   D2A63580  44.087   1.125   6.571
 5038POPC   C3A63581  43.980   1.032   7.001
 5038POPC   C4A63582  43.819   1.405   7.206
 5038POPC   C1B63583  44.267   1.631   6.365
 5038POPC   C2B63584  44.232   1.566   6.804
 5038POPC   C3B63585  44.224   1.721   7.196
 5038POPC   C4B63586  43.997   1.770   7.569
 5039POPC   NC363587  33.278  32.901   5.402
 5039POPC   PO463588  32.560  33.120   5.372
 5039POPC   GL163589  32.823  32.951   5.686
 5039POPC   GL263590  33.003  33.228   5.730
 5039POPC   C1A63591  32.821  33.024   6.150
 5039POPC   D2A63592  32.862  32.805   6.532
 5039POPC   C3A63593  32.898  32.986   6.931
 5039POPC   C4A63594  33.183  32.891   7.267
 5039POPC   C1B63595  33.230  33.345   6.145
 5039POPC   C2B63596  33.202  33.287   6.592
 5039POPC   C3B63597  33.262  33.384   7.024
 5039POPC   C4B63598  32.904  33.371   7.267
 5040POPC   NC363599  41.640  24.148   5.355
 5040POPC   PO463600  41.399  23.617   5.547
 5040POPC   GL163601  41.503  23.916   5.862
 5040POPC   GL263602  41.869  24.046   5.803
 5040POPC   C1A63603  41.351  23.939   6.312
 5040POPC   D2A63604  41.322  23.997   6.768
 5040POPC   C3A63605  41.365  23.630   7.027
 5040POPC   C4A63606  41.689  23.577   7.338
 5040POPC   C1B63607  42.059  24.036   6.214
 5040POPC   C2B63608  41.817  24.035   6.600
 5040POPC   C3B63609  41.806  23.962   7.027
 5040POPC   C4B63610  41.924  24.053   7.447
 5041POPC   NC363611  37.792  44.883   5.488
 5041POPC   PO463612  37.789  44.284   5.311
 5041POPC   GL163613  37.770  44.454   5.753
 5041POPC   GL263614  37.428  44.432   5.800
 5041POPC   C1A63615  37.902  44.564   6.197
 5041POPC   D2A63616  37.815  44.829   6.591
 5041POPC   C3A63617  38.008  44.713   7.018
 5041POPC   C4A63618  38.028  44.546   7.452
 5041POPC   C1B63619  37.401  44.727   6.158
 5041POPC   C2B63620  37.228  44.715   6.583
 5041POPC   C3B63621  37.467  44.695   6.947
 5041POPC   C4B63622  37.605  44.869   7.334
 5042POPC   NC363623  14.613  21.726   5.429
 5042POPC   PO463624  14.132  21.208   5.367
 5042POPC   GL163625  14.457  21.246   5.677
 5042POPC   GL263626  14.393  21.557   5.856
 5042POPC   C1A63627  14.637  21.173   6.086
 5042POPC   D2A63628  14.841  21.352   6.440
 5042POPC   C3A63629  14.585  21.268   6.764
 5042POPC   C4A63630  14.610  21.245   7.180
 5042POPC   C1B63631  14.333  21.573   6.302
 5042POPC   C2B63632  14.498  21.766   6.667
 5042POPC   C3B63633  14.378  21.753   7.120
 5042POPC   C4B63634  14.155  21.647   7.534
 5043POPC   NC363635  32.873  31.150   5.292
 5043POPC   PO463636  33.289  31.650   5.425
 5043POPC   GL163637  33.184  31.316   5.747
 5043POPC   GL263638  32.820  31.302   5.811
 5043POPC   C1A63639  33.150  31.292   6.216
 5043POPC   D2A63640  33.063  31.595   6.552
 5043POPC   C3A63641  33.058  31.654   6.989
 5043POPC   C4A63642  33.150  31.279   7.199
 5043POPC   C1B63643  32.675  31.479   6.224
 5043POPC   C2B63644  32.551  31.373   6.672
 5043POPC   C3B63645  32.639  31.360   7.108
 5043POPC   C4B63646  32.505  31.664   7.407
 5044POPC   NC363647  10.421   4.931   5.404
 5044POPC   PO463648  10.807   5.433   5.659
 5044POPC   GL163649  10.673   5.126   5.928
 5044POPC   GL263650  10.292   5.099   5.859
 5044POPC   C1A63651  10.742   5.273   6.374
 5044POPC   D2A63652  10.847   5.320   6.827
 5044POPC   C3A63653  10.519   5.420   7.102
 5044POPC   C4A63654  10.655   5.235   7.482
 5044POPC   C1B63655  10.342   4.953   6.267
 5044POPC   C2B63656  10.405   5.082   6.689
 5044POPC   C3B63657  10.508   4.894   7.052
 5044POPC   C4B63658  10.125   4.821   7.178
 5045POPC   NC363659  24.964  16.612   4.901
 5045POPC   PO463660  24.954  17.180   5.149
 5045POPC   GL163661  24.985  16.925   5.601
 5045POPC   GL263662  25.334  16.730   5.672
 5045POPC   C1A63663  25.065  16.860   6.104
 5045POPC   D2A63664  25.179  17.041   6.561
 5045POPC   C3A63665  25.084  16.799   6.988
 5045POPC   C4A63666  24.900  16.412   7.213
 5045POPC   C1B63667  25.567  16.793   6.104
 5045POPC   C2B63668  25.530  16.672   6.571
 5045POPC   C3B63669  25.592  16.735   7.024
 5045POPC   C4B63670  25.457  17.053   7.302
 5046POPC   NC363671  38.356  31.341   5.239
 5046POPC   PO463672  37.840  31.695   5.271
 5046POPC   GL163673  38.213  31.667   5.634
 5046POPC   GL263674  38.552  31.453   5.700
 5046POPC   C1A63675  38.299  31.603   6.104
 5046POPC   D2A63676  38.458  31.719   6.516
 5046POPC   C3A63677  38.344  31.477   6.860
 5046POPC   C4A63678  38.184  31.690   7.223
 5046POPC   C1B63679  38.638  31.144   6.067
 5046POPC   C2B63680  38.514  31.055   6.494
 5046POPC   C3B63681  38.712  31.117   6.915
 5046POPC   C4B63682  38.611  31.298   7.289
 5047POPC   NC363683  33.824   5.562   5.455
 5047POPC   PO463684  33.469   6.121   5.399
 5047POPC   GL163685  33.745   6.094   5.772
 5047POPC   GL263686  33.989   5.814   5.858
 5047POPC   C1A63687  33.881   6.140   6.206
 5047POPC   D2A63688  33.938   5.897   6.574
 5047POPC   C3A63689  33.841   6.097   6.919
 5047POPC   C4A63690  33.994   6.037   7.299
 5047POPC   C1B63691  33.722   5.628   6.202
 5047POPC   C2B63692  33.698   5.447   6.618
 5047POPC   C3B63693  33.660   5.631   7.020
 5047POPC   C4B63694  33.737   5.549   7.448
 5048POPC   NC363695   6.373  14.470   5.424
 5048POPC   PO463696   6.847  14.017   5.234
 5048POPC   GL163697   6.710  14.184   5.679
 5048POPC   GL263698   6.928  14.386   5.889
 5048POPC   C1A63699   6.540  14.192   6.129
 5048POPC   D2A63700   6.580  14.482   6.480
 5048POPC   C3A63701   6.396  14.285   6.867
 5048POPC   C4A63702   6.568  14.285   7.287
 5048POPC   C1B63703   7.138  14.332   6.281
 5048POPC   C2B63704   7.026  14.357   6.705
 5048POPC   C3B63705   6.760  14.650   6.941
 5048POPC   C4B63706   6.662  15.026   7.146
 5049POPC   NC363707  17.028  20.536   5.323
 5049POPC   PO463708  17.618  20.893   5.404
 5049POPC   GL163709  17.375  20.773   5.685
 5049POPC   GL263710  17.395  20.429   5.729
 5049POPC   C1A63711  17.476  20.784   6.127
 5049POPC   D2A63712  17.740  20.768   6.493
 5049POPC   C3A63713  17.660  20.996   6.829
 5049POPC   C4A63714  17.668  20.918   7.204
 5049POPC   C1B63715  17.327  20.299   6.157
 5049POPC   C2B63716  17.262  20.534   6.557
 5049POPC   C3B63717  17.453  20.509   6.957
 5049POPC   C4B63718  17.377  20.560   7.407
 5050POPC   NC363719  19.513  30.874   5.510
 5050POPC   PO463720  19.977  30.500   5.224
 5050POPC   GL163721  19.961  30.598   5.685
 5050POPC   GL263722  19.655  30.560   5.858
 5050POPC   C1A63723  20.097  30.461   6.123
 5050POPC   D2A63724  20.042  30.650   6.537
 5050POPC   C3A63725  20.021  30.476   6.946
 5050POPC   C4A63726  20.139  30.714   7.306
 5050POPC   C1B63727  19.606  30.731   6.258
 5050POPC   C2B63728  19.554  30.808   6.687
 5050POPC   C3B63729  19.703  30.889   7.105
 5050POPC   C4B63730  19.715  30.938   7.578
 5051POPC   NC363731  40.357   9.155   5.615
 5051POPC   PO463732  39.773   9.534   5.427
 5051POPC   GL163733  39.957   9.437   5.830
 5051POPC   GL263734  40.168   9.726   5.889
 5051POPC   C1A63735  39.861   9.580   6.275
 5051POPC   D2A63736  39.942   9.742   6.687
 5051POPC   C3A63737  40.306   9.609   6.904
 5051POPC   C4A63738  40.107   9.502   7.270
 5051POPC   C1B63739  40.187  10.004   6.275
 5051POPC   C2B63740  40.276  10.385   6.530
 5051POPC   C3B63741  40.278  10.370   6.994
 5051POPC   C4B63742  40.087   9.998   7.155
 5052POPC   NC363743  25.698  29.630   5.521
 5052POPC   PO463744  26.363  29.616   5.390
 5052POPC   GL163745  26.219  29.921   5.757
 5052POPC   GL263746  25.946  30.210   5.783
 5052POPC   C1A63747  26.018  29.883   6.186
 5052POPC   D2A63748  25.794  30.048   6.541
 5052POPC   C3A63749  25.871  29.909   6.964
 5052POPC   C4A63750  26.206  29.749   7.229
 5052POPC   C1B63751  26.084  30.384   6.236
 5052POPC   C2B63752  26.347  30.484   6.609
 5052POPC   C3B63753  26.380  30.209   6.981
 5052POPC   C4B63754  26.084  30.243   7.314
 5053POPC   NC363755  44.108  10.262   5.667
 5053POPC   PO463756  43.933   9.585   5.467
 5053POPC   GL163757  43.990   9.667   5.884
 5053POPC   GL263758  43.750   9.931   5.854
 5053POPC   C1A63759  44.111   9.684   6.314
 5053POPC   D2A63760  44.281   9.735   6.747
 5053POPC   C3A63761  44.001   9.658   7.105
 5053POPC   C4A63762  44.037   9.641   7.545
 5053POPC   C1B63763  43.811  10.153   6.230
 5053POPC   C2B63764  43.850  10.019   6.644
 5053POPC   C3B63765  44.010  10.163   7.012
 5053POPC   C4B63766  43.725  10.064   7.320
 5054POPC   NC363767  24.977  24.000   5.421
 5054POPC   PO463768  25.518  23.664   5.569
 5054POPC   GL163769  25.131  23.636   5.800
 5054POPC   GL263770  25.145  23.297   5.938
 5054POPC   C1A63771  25.132  23.711   6.247
 5054POPC   D2A63772  25.407  23.675   6.618
 5054POPC   C3A63773  25.197  23.625   6.992
 5054POPC   C4A63774  25.228  23.973   7.249
 5054POPC   C1B63775  25.527  23.347   6.249
 5054POPC   C2B63776  25.683  23.249   6.717
 5054POPC   C3B63777  25.594  23.362   7.181
 5054POPC   C4B63778  25.455  23.650   7.555
 5055POPC   NC363779  31.991  39.292   5.291
 5055POPC   PO463780  32.672  39.239   5.574
 5055POPC   GL163781  32.531  39.393   5.904
 5055POPC   GL263782  32.187  39.285   5.781
 5055POPC   C1A63783  32.473  39.441   6.344
 5055POPC   D2A63784  32.746  39.318   6.659
 5055POPC   C3A63785  32.594  39.236   7.085
 5055POPC   C4A63786  32.278  39.283   7.393
 5055POPC   C1B63787  32.270  39.015   6.157
 5055POPC   C2B63788  32.353  39.013   6.627
 5055POPC   C3B63789  32.123  38.988   7.012
 5055POPC   C4B63790  32.028  38.759   7.389
 5056POPC   NC363791  35.330  40.487   5.311
 5056POPC   PO463792  35.414  41.113   5.377
 5056POPC   GL163793  35.316  40.819   5.707
 5056POPC   GL263794  35.039  41.043   5.718
 5056POPC   C1A63795  35.266  40.577   6.134
 5056POPC   D2A63796  35.245  40.639   6.613
 5056POPC   C3A63797  35.499  40.685   7.007
 5056POPC   C4A63798  35.165  40.554   7.289
 5056POPC   C1B63799  35.181  41.077   6.133
 5056POPC   C2B63800  35.010  41.096   6.550
 5056POPC   C3B63801  35.209  41.078   6.952
 5056POPC   C4B63802  35.065  41.053   7.354
 5057POPC   NC363803  23.774  30.942   5.228
 5057POPC   PO463804  23.581  30.386   5.556
 5057POPC   GL163805  23.618  30.719   5.837
 5057POPC   GL263806  23.888  30.900   5.754
 5057POPC   C1A63807  23.685  30.717   6.267
 5057POPC   D2A63808  23.680  30.701   6.682
 5057POPC   C3A63809  23.681  30.381   6.949
 5057POPC   C4A63810  23.762  30.704   7.244
 5057POPC   C1B63811  24.091  31.023   6.121
 5057POPC   C2B63812  24.150  30.856   6.511
 5057POPC   C3B63813  24.033  30.996   6.900
 5057POPC   C4B63814  24.153  31.026   7.272
 5058POPC   NC363815  44.269  26.160   5.363
 5058POPC   PO463816  44.918  25.976   5.462
 5058POPC   GL163817  44.713  25.842   5.840
 5058POPC   GL263818  44.363  25.775   5.739
 5058POPC   C1A63819  44.658  25.963   6.254
 5058POPC   D2A63820  44.637  26.278   6.590
 5058POPC   C3A63821  44.873  26.251   6.996
 5058POPC   C4A63822  44.650  26.199   7.417
 5058POPC   C1B63823  44.259  25.611   6.169
 5058POPC   C2B63824  44.334  25.792   6.595
 5058POPC   C3B63825  44.425  25.995   6.974
 5058POPC   C4B63826  44.412  25.760   7.368
 5059POPC   NC363827  11.424  44.442   5.342
 5059POPC   PO463828  11.377   0.148   5.272
 5059POPC   GL163829  11.301  44.870   5.654
 5059POPC   GL263830  11.297  44.540   5.840
 5059POPC   C1A63831  11.306  44.979   6.103
 5059POPC   D2A63832  11.138  44.931   6.504
 5059POPC   C3A63833  11.393  44.834   6.850
 5059POPC   C4A63834  11.333  44.964   7.267
 5059POPC   C1B63835  11.436  44.541   6.299
 5059POPC   C2B63836  11.127  44.435   6.645
 5059POPC   C3B63837  11.144  44.458   7.088
 5059POPC   C4B63838  11.534  44.490   7.267
 5060POPC   NC363839   0.673  33.310   5.121
 5060POPC   PO463840   0.729  32.737   5.507
 5060POPC   GL163841   0.766  32.924   5.879
 5060POPC   GL263842   0.480  33.094   5.810
 5060POPC   C1A63843   0.683  33.052   6.308
 5060POPC   D2A63844   0.817  33.130   6.713
 5060POPC   C3A63845   0.597  32.978   7.026
 5060POPC   C4A63846   0.445  33.314   7.189
 5060POPC   C1B63847   0.237  32.882   6.158
 5060POPC   C2B63848   0.296  32.760   6.608
 5060POPC   C3B63849   0.085  32.981   6.947
 5060POPC   C4B63850  44.931  33.330   7.225
 5061POPC   NC363851  30.115   2.063   5.329
 5061POPC   PO463852  29.447   2.237   5.620
 5061POPC   GL163853  29.708   2.034   5.927
 5061POPC   GL263854  30.017   1.899   5.823
 5061POPC   C1A63855  29.864   2.116   6.359
 5061POPC   D2A63856  30.201   2.166   6.664
 5061POPC   C3A63857  30.013   2.116   7.052
 5061POPC   C4A63858  29.589   1.952   7.013
 5061POPC   C1B63859  29.980   1.648   6.223
 5061POPC   C2B63860  29.967   1.666   6.679
 5061POPC   C3B63861  30.170   1.624   7.058
 5061POPC   C4B63862  30.429   1.592   7.439
 5062POPC   NC363863  14.602  28.215   5.348
 5062POPC   PO463864  14.149  28.516   5.106
 5062POPC   GL163865  14.255  28.364   5.673
 5062POPC   GL263866  14.604  28.416   5.811
 5062POPC   C1A63867  14.285  28.576   6.164
 5062POPC   D2A63868  14.364  28.413   6.610
 5062POPC   C3A63869  14.290  28.664   7.032
 5062POPC   C4A63870  14.372  28.539   7.479
 5062POPC   C1B63871  14.539  28.110   6.151
 5062POPC   C2B63872  14.760  28.063   6.541
 5062POPC   C3B63873  14.721  27.968   6.969
 5062POPC   C4B63874  14.544  28.087   7.367
 5063POPC   NC363875  27.729   5.332   5.317
 5063POPC   PO463876  28.003   4.806   5.578
 5063POPC   GL163877  27.746   5.078   5.823
 5063POPC   GL263878  27.440   5.266   5.744
 5063POPC   C1A63879  27.616   5.128   6.259
 5063POPC   D2A63880  27.418   4.941   6.650
 5063POPC   C3A63881  27.689   5.025   7.012
 5063POPC   C4A63882  27.600   5.139   7.443
 5063POPC   C1B63883  27.311   5.537   6.113
 5063POPC   C2B63884  27.472   5.567   6.536
 5063POPC   C3B63885  27.335   5.397   6.936
 5063POPC   C4B63886  27.354   5.572   7.330
 5064POPC   NC363887  15.872  40.247   5.409
 5064POPC   PO463888  16.306  39.764   5.588
 5064POPC   GL163889  15.956  39.873   5.914
 5064POPC   GL263890  15.707  40.144   5.879
 5064POPC   C1A63891  15.972  39.970   6.373
 5064POPC   D2A63892  16.125  40.288   6.643
 5064POPC   C3A63893  16.298  40.197   7.021
 5064POPC   C4A63894  16.205  39.917   7.317
 5064POPC   C1B63895  15.464  40.255   6.228
 5064POPC   C2B63896  15.559  40.158   6.616
 5064POPC   C3B63897  15.774  39.958   6.879
 5064POPC   C4B63898  15.679  39.979   7.286
 5065POPC   NC363899  35.007  17.435   5.532
 5065POPC   PO463900  35.545  17.917   5.432
 5065POPC   GL163901  35.306  17.773   5.770
 5065POPC   GL263902  35.433  17.474   5.887
 5065POPC   C1A63903  35.043  17.650   6.140
 5065POPC   D2A63904  35.231  17.352   6.461
 5065POPC   C3A63905  35.118  17.431   6.921
 5065POPC   C4A63906  35.406  17.550   7.297
 5065POPC   C1B63907  35.643  17.149   6.107
 5065POPC   C2B63908  35.736  17.121   6.523
 5065POPC   C3B63909  35.627  17.320   6.885
 5065POPC   C4B63910  35.701  17.116   7.273
 5066POPC   NC363911   9.138   3.099   5.451
 5066POPC   PO463912   8.914   2.363   5.521
 5066POPC   GL163913   9.107   2.670   5.746
 5066POPC   GL263914   8.807   2.833   5.722
 5066POPC   C1A63915   9.281   2.775   6.147
 5066POPC   D2A63916   9.140   2.640   6.557
 5066POPC   C3A63917   9.358   2.798   6.897
 5066POPC   C4A63918   9.213   2.618   7.256
 5066POPC   C1B63919   8.789   2.838   6.162
 5066POPC   C2B63920   8.906   3.099   6.557
 5066POPC   C3B63921   8.875   2.940   7.008
 5066POPC   C4B63922   8.720   2.750   7.393
 5067POPC   NC363923  44.396  12.316   5.515
 5067POPC   PO463924  44.011  11.831   5.168
 5067POPC   GL163925  43.834  11.998   5.613
 5067POPC   GL263926  44.132  12.052   5.844
 5067POPC   C1A63927  43.688  12.203   6.047
 5067POPC   D2A63928  43.853  12.320   6.489
 5067POPC   C3A63929  43.749  12.129   6.909
 5067POPC   C4A63930  44.057  12.217   7.241
 5067POPC   C1B63931  44.060  11.870   6.243
 5067POPC   C2B63932  44.162  11.927   6.664
 5067POPC   C3B63933  44.127  11.750   7.053
 5067POPC   C4B63934  43.885  11.521   7.291
 5068POPC   NC363935   3.928  42.048   5.504
 5068POPC   PO463936   3.546  42.536   5.179
 5068POPC   GL163937   3.510  42.329   5.666
 5068POPC   GL263938   3.401  41.978   5.780
 5068POPC   C1A63939   3.535  42.308   6.179
 5068POPC   D2A63940   3.824  42.118   6.529
 5068POPC   C3A63941   3.702  42.083   6.968
 5068POPC   C4A63942   3.403  42.342   7.148
 5068POPC   C1B63943   3.153  41.977   6.190
 5068POPC   C2B63944   3.098  42.150   6.647
 5068POPC   C3B63945   2.960  42.111   7.095
 5068POPC   C4B63946   3.098  42.246   7.545
 5069POPC   NC363947   6.752   6.209   5.570
 5069POPC   PO463948   6.689   6.868   5.548
 5069POPC   GL163949   6.594   6.603   5.869
 5069POPC   GL263950   6.234   6.649   5.846
 5069POPC   C1A63951   6.776   6.456   6.264
 5069POPC   D2A63952   6.640   6.491   6.705
 5069POPC   C3A63953   6.829   6.615   7.108
 5069POPC   C4A63954   6.987   6.882   7.435
 5069POPC   C1B63955   6.328   6.721   6.289
 5069POPC   C2B63956   6.151   6.610   6.701
 5069POPC   C3B63957   6.264   6.673   7.145
 5069POPC   C4B63958   6.479   6.861   7.509
 5070POPC   NC363959  20.927  33.930   5.518
 5070POPC   PO463960  21.570  33.818   5.285
 5070POPC   GL163961  21.537  33.737   5.730
 5070POPC   GL263962  21.488  34.081   5.811
 5070POPC   C1A63963  21.499  33.738   6.205
 5070POPC   D2A63964  21.752  33.824   6.599
 5070POPC   C3A63965  21.659  33.741   7.012
 5070POPC   C4A63966  21.359  33.667   7.311
 5070POPC   C1B63967  21.131  34.079   6.140
 5070POPC   C2B63968  21.297  34.079   6.553
 5070POPC   C3B63969  21.177  33.926   6.912
 5070POPC   C4B63970  21.017  34.071   7.306
 5071POPC   NC363971  37.734  21.650   5.381
 5071POPC   PO463972  37.730  21.012   5.250
 5071POPC   GL163973  37.809  21.223   5.650
 5071POPC   GL263974  37.494  21.253   5.767
 5071POPC   C1A63975  37.884  21.416   6.054
 5071POPC   D2A63976  37.852  21.273   6.491
 5071POPC   C3A63977  37.639  21.517   6.803
 5071POPC   C4A63978  37.867  21.418   7.180
 5071POPC   C1B63979  37.407  21.293   6.229
 5071POPC   C2B63980  37.329  21.101   6.653
 5071POPC   C3B63981  37.148  21.266   7.053
 5071POPC   C4B63982  37.322  21.302   7.471
 5072POPC   NC363983  35.144  14.240   5.354
 5072POPC   PO463984  35.673  14.622   5.441
 5072POPC   GL163985  35.719  14.520   5.836
 5072POPC   GL263986  35.666  14.159   5.849
 5072POPC   C1A63987  35.576  14.533   6.277
 5072POPC   D2A63988  35.206  14.343   6.502
 5072POPC   C3A63989  35.286  14.325   6.941
 5072POPC   C4A63990  35.297  14.460   7.390
 5072POPC   C1B63991  35.504  14.030   6.229
 5072POPC   C2B63992  35.630  13.976   6.644
 5072POPC   C3B63993  35.542  13.902   7.051
 5072POPC   C4B63994  35.260  13.956   7.342
 5073POPC   NC363995  32.608  15.200   5.272
 5073POPC   PO463996  33.210  15.359   5.377
 5073POPC   GL163997  33.039  15.234   5.764
 5073POPC   GL263998  33.169  14.949   5.920
 5073POPC   C1A63999  32.949  15.355   6.184
 5073POPC   D2A64000  32.927  15.123   6.549
 5073POPC   C3A64001  32.819  15.366   6.879
 5073POPC   C4A64002  32.962  15.427   7.302
 5073POPC   C1B64003  33.408  14.818   6.288
 5073POPC   C2B64004  33.369  14.902   6.681
 5073POPC   C3B64005  33.097  14.888   7.013
 5073POPC   C4B64006  33.315  14.888   7.350
 5074POPC   NC364007  40.376  38.185   5.148
 5074POPC   PO464008  39.962  38.710   5.350
 5074POPC   GL164009  39.986  38.545   5.765
 5074POPC   GL264010  39.760  38.277   5.730
 5074POPC   C1A64011  40.179  38.385   6.155
 5074POPC   D2A64012  40.043  38.474   6.570
 5074POPC   C3A64013  40.236  38.401   6.997
 5074POPC   C4A64014  40.144  38.588   7.408
 5074POPC   C1B64015  39.663  38.327   6.157
 5074POPC   C2B64016  39.650  38.084   6.532
 5074POPC   C3B64017  39.780  38.197   6.902
 5074POPC   C4B64018  39.780  38.182   7.325
 5075POPC   NC364019  16.367  30.200   5.424
 5075POPC   PO464020  16.367  29.526   5.373
 5075POPC   GL164021  16.564  29.711   5.761
 5075POPC   GL264022  16.595  30.088   5.891
 5075POPC   C1A64023  16.859  29.668   6.103
 5075POPC   D2A64024  16.930  29.417   6.462
 5075POPC   C3A64025  16.803  29.628   6.836
 5075POPC   C4A64026  17.000  29.906   7.115
 5075POPC   C1B64027  16.969  30.197   6.213
 5075POPC   C2B64028  17.154  30.258   6.667
 5075POPC   C3B64029  16.940  30.408   7.071
 5075POPC   C4B64030  16.954  30.222   7.512
 5076POPC   NC364031  20.975  44.874   5.456
 5076POPC   PO464032  20.463  44.431   5.368
 5076POPC   GL164033  20.681  44.526   5.717
 5076POPC   GL264034  20.530  44.809   5.824
 5076POPC   C1A64035  20.679  44.446   6.176
 5076POPC   D2A64036  20.836  44.610   6.586
 5076POPC   C3A64037  20.583  44.556   6.934
 5076POPC   C4A64038  20.684  44.230   7.173
 5076POPC   C1B64039  20.924  44.893   6.080
 5076POPC   C2B64040  21.067   0.041   6.455
 5076POPC   C3B64041  20.768   0.103   6.789
 5076POPC   C4B64042  20.745  44.979   7.168
 5077POPC   NC364043  43.968   5.130   5.364
 5077POPC   PO464044  43.432   5.013   5.633
 5077POPC   GL164045  43.765   5.209   5.865
 5077POPC   GL264046  44.147   5.147   5.846
 5077POPC   C1A64047  43.866   5.091   6.280
 5077POPC   D2A64048  43.836   4.919   6.672
 5077POPC   C3A64049  43.824   5.183   6.996
 5077POPC   C4A64050  44.036   5.341   7.333
 5077POPC   C1B64051  44.237   4.757   6.083
 5077POPC   C2B64052  44.280   4.589   6.488
 5077POPC   C3B64053  44.238   4.691   6.894
 5077POPC   C4B64054  44.273   4.852   7.267
 5078POPC   NC364055  31.349  18.633   5.527
 5078POPC   PO464056  31.631  18.042   5.288
 5078POPC   GL164057  31.439  18.085   5.752
 5078POPC   GL264058  31.104  17.958   5.848
 5078POPC   C1A64059  31.435  18.284   6.167
 5078POPC   D2A64060  31.623  18.443   6.548
 5078POPC   C3A64061  31.364  18.599   6.887
 5078POPC   C4A64062  31.548  18.484   7.272
 5078POPC   C1B64063  30.939  18.172   6.206
 5078POPC   C2B64064  31.127  18.231   6.602
 5078POPC   C3B64065  31.367  18.080   6.961
 5078POPC   C4B64066  31.104  18.064   7.310
 5079POPC   NC364067   1.911  18.002   5.311
 5079POPC   PO464068   2.060  17.377   5.490
 5079POPC   GL164069   2.083  17.438   5.900
 5079POPC   GL264070   2.071  17.093   6.032
 5079POPC   C1A64071   1.943  17.712   6.229
 5079POPC   D2A64072   1.728  17.685   6.613
 5079POPC   C3A64073   1.839  17.380   6.912
 5079POPC   C4A64074   1.727  17.646   7.260
 5079POPC   C1B64075   2.278  17.309   6.371
 5079POPC   C2B64076   2.266  17.645   6.658
 5079POPC   C3B64077   2.225  17.665   7.082
 5079POPC   C4B64078   2.144  17.422   7.450
 5080POPC   NC364079   7.244  30.131   5.486
 5080POPC   PO464080   7.633  29.595   5.203
 5080POPC   GL164081   7.442  29.712   5.694
 5080POPC   GL264082   7.585  30.042   5.850
 5080POPC   C1A64083   7.504  29.603   6.181
 5080POPC   D2A64084   7.487  29.849   6.565
 5080POPC   C3A64085   7.566  29.725   6.978
 5080POPC   C4A64086   7.461  29.944   7.354
 5080POPC   C1B64087   7.221  30.017   6.136
 5080POPC   C2B64088   7.075  30.162   6.527
 5080POPC   C3B64089   7.232  30.157   6.927
 5080POPC   C4B64090   7.170  30.392   7.277
 5081POPC   NC364091  40.807  11.582   5.538
 5081POPC   PO464092  40.884  10.885   5.390
 5081POPC   GL164093  40.874  11.112   5.772
 5081POPC   GL264094  40.531  11.188   5.771
 5081POPC   C1A64095  40.976  11.365   6.156
 5081POPC   D2A64096  41.094  11.394   6.604
 5081POPC   C3A64097  40.840  11.550   6.943
 5081POPC   C4A64098  40.854  11.426   7.363
 5081POPC   C1B64099  40.601  11.016   6.213
 5081POPC   C2B64100  40.613  11.172   6.668
 5081POPC   C3B64101  40.443  11.241   7.122
 5081POPC   C4B64102  40.359  11.596   7.451
 5082POPC   NC364103  23.225   0.754   5.326
 5082POPC   PO464104  22.999   0.130   5.335
 5082POPC   GL164105  22.919   0.401   5.704
 5082POPC   GL264106  22.606   0.320   5.873
 5082POPC   C1A64107  23.086   0.477   6.154
 5082POPC   D2A64108  23.259   0.759   6.487
 5082POPC   C3A64109  23.302   0.612   6.902
 5082POPC   C4A64110  23.130   0.346   7.256
 5082POPC   C1B64111  22.566   0.505   6.243
 5082POPC   C2B64112  22.771   0.636   6.573
 5082POPC   C3B64113  22.799   0.542   6.933
 5082POPC   C4B64114  22.611   0.317   7.203
 5083POPC   NC364115   6.350  25.929   5.367
 5083POPC   PO464116   5.689  26.005   5.484
 5083POPC   GL164117   5.718  25.900   5.914
 5083POPC   GL264118   6.057  26.043   5.893
 5083POPC   C1A64119   5.641  25.901   6.380
 5083POPC   D2A64120   5.367  26.013   6.712
 5083POPC   C3A64121   5.616  26.057   7.076
 5083POPC   C4A64122   5.966  26.207   7.241
 5083POPC   C1B64123   6.012  26.221   6.310
 5083POPC   C2B64124   6.007  26.013   6.739
 5083POPC   C3B64125   6.071  25.720   7.113
 5083POPC   C4B64126   5.944  25.778   7.591
 5084POPC   NC364127  20.369  17.633   5.354
 5084POPC   PO464128  20.998  17.373   5.351
 5084POPC   GL164129  20.690  17.501   5.729
 5084POPC   GL264130  20.326  17.421   5.814
 5084POPC   C1A64131  20.566  17.690   6.148
 5084POPC   D2A64132  20.567  17.455   6.532
 5084POPC   C3A64133  20.552  17.635   6.949
 5084POPC   C4A64134  20.604  17.515   7.374
 5084POPC   C1B64135  20.315  17.074   6.120
 5084POPC   C2B64136  20.188  17.097   6.569
 5084POPC   C3B64137  20.274  17.185   6.999
 5084POPC   C4B64138  20.308  17.106   7.428
 5085POPC   NC364139   6.807  22.654   5.551
 5085POPC   PO464140   6.961  23.346   5.583
 5085POPC   GL164141   6.820  23.222   5.945
 5085POPC   GL264142   6.557  23.028   5.847
 5085POPC   C1A64143   6.928  22.890   6.216
 5085POPC   D2A64144   6.845  22.726   6.614
 5085POPC   C3A64145   6.843  23.022   6.917
 5085POPC   C4A64146   6.759  22.893   7.310
 5085POPC   C1B64147   6.386  23.196   6.251
 5085POPC   C2B64148   6.375  22.997   6.687
 5085POPC   C3B64149   6.394  23.194   7.121
 5085POPC   C4B64150   6.347  23.149   7.598
 5086POPC   NC364151  38.778  42.622   5.476
 5086POPC   PO464152  38.283  42.133   5.254
 5086POPC   GL164153  38.337  42.336   5.725
 5086POPC   GL264154  38.413  42.007   5.896
 5086POPC   C1A64155  38.631  42.413   6.120
 5086POPC   D2A64156  38.822  42.388   6.566
 5086POPC   C3A64157  38.635  42.300   6.976
 5086POPC   C4A64158  38.350  42.532   7.221
 5086POPC   C1B64159  38.417  42.049   6.383
 5086POPC   C2B64160  38.185  42.297   6.704
 5086POPC   C3B64161  38.098  42.105   7.091
 5086POPC   C4B64162  38.378  41.918   7.370
 5087POPC   NC364163  19.670  18.093   5.420
 5087POPC   PO464164  20.303  18.112   5.318
 5087POPC   GL164165  20.134  18.251   5.726
 5087POPC   GL264166  20.102  17.910   5.796
 5087POPC   C1A64167  20.024  18.404   6.201
 5087POPC   D2A64168  20.193  18.487   6.658
 5087POPC   C3A64169  19.897  18.537   7.032
 5087POPC   C4A64170  19.602  18.441   7.399
 5087POPC   C1B64171  20.068  17.886   6.220
 5087POPC   C2B64172  19.909  18.056   6.593
 5087POPC   C3B64173  20.076  18.069   6.989
 5087POPC   C4B64174  19.837  18.000   7.364
 5088POPC   NC364175  34.460  41.047   5.345
 5088POPC   PO464176  34.902  40.569   5.484
 5088POPC   GL164177  34.605  40.813   5.802
 5088POPC   GL264178  34.294  41.076   5.820
 5088POPC   C1A64179  34.772  40.768   6.218
 5088POPC   D2A64180  34.715  40.566   6.586
 5088POPC   C3A64181  34.812  40.767   6.938
 5088POPC   C4A64182  34.634  40.519   7.207
 5088POPC   C1B64183  34.283  40.917   6.221
 5088POPC   C2B64184  34.451  41.022   6.598
 5088POPC   C3B64185  34.315  40.913   6.989
 5088POPC   C4B64186  34.556  41.031   7.331
 5089POPC   NC364187  30.012   5.330   5.024
 5089POPC   PO464188  29.585   5.002   5.427
 5089POPC   GL164189  29.701   5.264   5.763
 5089POPC   GL264190  29.692   4.917   5.942
 5089POPC   C1A64191  29.915   5.278   6.189
 5089POPC   D2A64192  29.749   5.044   6.536
 5089POPC   C3A64193  29.857   5.204   6.926
 5089POPC   C4A64194  29.970   5.057   7.344
 5089POPC   C1B64195  29.397   4.765   6.264
 5089POPC   C2B64196  29.418   4.652   6.709
 5089POPC   C3B64197  29.711   4.726   7.065
 5089POPC   C4B64198  29.609   4.762   7.570
 5090POPC   NC364199  32.647  12.548   5.451
 5090POPC   PO464200  33.045  13.106   5.465
 5090POPC   GL164201  33.104  12.895   5.862
 5090POPC   GL264202  32.952  12.588   5.867
 5090POPC   C1A64203  32.952  12.904   6.274
 5090POPC   D2A64204  33.090  12.758   6.647
 5090POPC   C3A64205  33.073  13.032   6.971
 5090POPC   C4A64206  33.192  13.002   7.404
 5090POPC   C1B64207  32.838  12.378   6.240
 5090POPC   C2B64208  32.715  12.409   6.678
 5090POPC   C3B64209  32.921  12.476   7.082
 5090POPC   C4B64210  32.686  12.404   7.466
 5091POPC   NC364211  37.920  22.631   5.429
 5091POPC   PO464212  37.693  22.055   5.182
 5091POPC   GL164213  37.720  22.150   5.648
 5091POPC   GL264214  37.591  21.846   5.838
 5091POPC   C1A64215  37.898  22.242   6.090
 5091POPC   D2A64216  38.120  22.024   6.473
 5091POPC   C3A64217  37.973  22.045   6.914
 5091POPC   C4A64218  37.848  22.351   7.250
 5091POPC   C1B64219  37.658  21.808   6.294
 5091POPC   C2B64220  37.611  22.177   6.537
 5091POPC   C3B64221  37.482  22.228   6.937
 5091POPC   C4B64222  37.587  21.861   7.217
 5092POPC   NC364223  39.703  14.109   5.203
 5092POPC   PO464224  40.328  13.946   5.361
 5092POPC   GL164225  40.210  13.753   5.747
 5092POPC   GL264226  40.113  13.406   5.714
 5092POPC   C1A64227  39.926  13.782   6.090
 5092POPC   D2A64228  39.681  13.801   6.492
 5092POPC   C3A64229  39.853  13.644   6.885
 5092POPC   C4A64230  40.137  13.755   7.243
 5092POPC   C1B64231  40.111  13.273   6.122
 5092POPC   C2B64232  40.280  13.306   6.516
 5092POPC   C3B64233  40.292  13.396   6.906
 5092POPC   C4B64234  39.998  13.253   7.204
 5093POPC   NC364235   4.122  17.714   5.476
 5093POPC   PO464236   4.485  17.300   5.111
 5093POPC   GL164237   4.586  17.477   5.626
 5093POPC   GL264238   4.446  17.723   5.854
 5093POPC   C1A64239   4.388  17.301   6.107
 5093POPC   D2A64240   4.128  17.326   6.462
 5093POPC   C3A64241   4.243  17.215   6.887
 5093POPC   C4A64242   4.443  17.424   7.215
 5093POPC   C1B64243   4.089  17.761   6.143
 5093POPC   C2B64244   3.870  17.766   6.530
 5093POPC   C3B64245   4.098  17.711   6.902
 5093POPC   C4B64246   3.977  17.656   7.309
 5094POPC   NC364247  33.743  31.541   5.366
 5094POPC   PO464248  34.209  31.094   5.538
 5094POPC   GL164249  34.004  31.453   5.812
 5094POPC   GL264250  33.634  31.612   5.841
 5094POPC   C1A64251  33.948  31.574   6.249
 5094POPC   D2A64252  33.746  31.452   6.625
 5094POPC   C3A64253  34.070  31.502   6.919
 5094POPC   C4A64254  34.226  31.243   7.230
 5094POPC   C1B64255  33.447  31.700   6.230
 5094POPC   C2B64256  33.499  31.904   6.638
 5094POPC   C3B64257  33.567  31.769   7.083
 5094POPC   C4B64258  33.684  31.351   7.210
 5095POPC   NC364259  25.040  44.178   5.485
 5095POPC   PO464260  25.524  43.671   5.429
 5095POPC   GL164261  25.292  43.780   5.805
 5095POPC   GL264262  25.386  44.107   5.852
 5095POPC   C1A64263  25.154  43.896   6.249
 5095POPC   D2A64264  24.977  43.833   6.648
 5095POPC   C3A64265  25.251  43.892   6.959
 5095POPC   C4A64266  25.168  43.743   7.361
 5095POPC   C1B64267  25.467  44.318   6.249
 5095POPC   C2B64268  25.606  44.194   6.665
 5095POPC   C3B64269  25.470  44.404   7.034
 5095POPC   C4B64270  25.257  44.240   7.371
 5096POPC   NC364271  33.283  42.172   5.481
 5096POPC   PO464272  32.639  42.430   5.368
 5096POPC   GL164273  32.838  42.478   5.786
 5096POPC   GL264274  33.203  42.418   5.909
 5096POPC   C1A64275  32.740  42.384   6.236
 5096POPC   D2A64276  33.100  42.396   6.500
 5096POPC   C3A64277  32.962  42.511   6.876
 5096POPC   C4A64278  32.723  42.365   7.178
 5096POPC   C1B64279  33.046  41.999   6.122
 5096POPC   C2B64280  32.826  41.952   6.529
 5096POPC   C3B64281  33.009  41.939   6.944
 5096POPC   C4B64282  33.224  42.223   7.225
 5097POPC   NC364283  39.700  31.726   5.309
 5097POPC   PO464284  39.509  31.108   5.417
 5097POPC   GL164285  39.403  31.355   5.792
 5097POPC   GL264286  39.171  31.643   5.785
 5097POPC   C1A64287  39.245  31.265   6.200
 5097POPC   D2A64288  39.454  31.349   6.561
 5097POPC   C3A64289  39.244  31.427   6.897
 5097POPC   C4A64290  39.197  31.241   7.258
 5097POPC   C1B64291  38.851  31.604   6.125
 5097POPC   C2B64292  38.866  31.423   6.530
 5097POPC   C3B64293  38.805  31.671   6.897
 5097POPC   C4B64294  38.931  31.698   7.295
 5098POPC   NC364295  23.239  44.017   5.707
 5098POPC   PO464296  22.564  43.797   5.596
 5098POPC   GL164297  22.785  43.949   5.913
 5098POPC   GL264298  22.991  43.627   5.943
 5098POPC   C1A64299  22.858  44.081   6.339
 5098POPC   D2A64300  22.772  44.370   6.689
 5098POPC   C3A64301  22.705  44.169   7.078
 5098POPC   C4A64302  23.076  44.023   7.295
 5098POPC   C1B64303  22.644  43.582   6.241
 5098POPC   C2B64304  22.629  43.720   6.661
 5098POPC   C3B64305  22.878  43.660   7.003
 5098POPC   C4B64306  23.074  43.358   7.278
 5099POPC   NC364307  38.631  36.391   5.639
 5099POPC   PO464308  39.020  35.827   5.452
 5099POPC   GL164309  39.098  36.148   5.727
 5099POPC   GL264310  39.436  36.179   5.828
 5099POPC   C1A64311  39.016  36.151   6.156
 5099POPC   D2A64312  39.003  35.953   6.553
 5099POPC   C3A64313  38.828  36.191   6.900
 5099POPC   C4A64314  39.122  36.439   7.157
 5099POPC   C1B64315  39.517  35.941   6.230
 5099POPC   C2B64316  39.459  35.737   6.648
 5099POPC   C3B64317  39.503  35.948   7.054
 5099POPC   C4B64318  39.518  35.954   7.519
 5100POPC   NC364319   5.935  22.635   5.062
 5100POPC   PO464320   5.836  21.975   5.361
 5100POPC   GL164321   5.892  22.134   5.768
 5100POPC   GL264322   5.563  22.192   5.832
 5100POPC   C1A64323   5.927  22.220   6.232
 5100POPC   D2A64324   6.050  22.084   6.660
 5100POPC   C3A64325   6.090  22.418   6.990
 5100POPC   C4A64326   6.220  22.731   7.301
 5100POPC   C1B64327   5.425  22.109   6.238
 5100POPC   C2B64328   5.524  22.192   6.666
 5100POPC   C3B64329   5.705  22.053   7.052
 5100POPC   C4B64330   5.786  22.333   7.389
 5101POPC   NC364331  17.437  22.540   5.509
 5101POPC   PO464332  17.142  23.124   5.420
 5101POPC   GL164333  17.212  22.952   5.824
 5101POPC   GL264334  17.084  22.632   5.879
 5101POPC   C1A64335  17.491  22.983   6.197
 5101POPC   D2A64336  17.764  23.061   6.566
 5101POPC   C3A64337  17.517  23.209   6.865
 5101POPC   C4A64338  17.595  23.149   7.254
 5101POPC   C1B64339  17.294  22.492   6.257
 5101POPC   C2B64340  17.418  22.684   6.627
 5101POPC   C3B64341  17.610  22.712   6.999
 5101POPC   C4B64342  17.711  22.644   7.410
 5102POPC   NC364343  15.577  14.470   5.437
 5102POPC   PO464344  16.217  14.220   5.379
 5102POPC   GL164345  16.020  14.357   5.734
 5102POPC   GL264346  16.237  14.665   5.771
 5102POPC   C1A64347  15.758  14.406   6.119
 5102POPC   D2A64348  15.652  14.212   6.540
 5102POPC   C3A64349  15.789  14.425   6.922
 5102POPC   C4A64350  15.605  14.587   7.296
 5102POPC   C1B64351  16.291  14.439   6.176
 5102POPC   C2B64352  16.212  14.299   6.596
 5102POPC   C3B64353  16.294  14.368   7.047
 5102POPC   C4B64354  16.081  14.772   7.219
 5103POPC   NC364355  14.083   0.248   5.483
 5103POPC   PO464356  14.326  44.540   5.444
 5103POPC   GL164357  14.259  44.599   5.851
 5103POPC   GL264358  14.258  44.949   5.881
 5103POPC   C1A64359  14.416  44.462   6.236
 5103POPC   D2A64360  14.483  44.206   6.592
 5103POPC   C3A64361  14.306  44.355   6.956
 5103POPC   C4A64362  14.382  44.533   7.308
 5103POPC   C1B64363  14.551  44.966   6.231
 5103POPC   C2B64364  14.559  44.766   6.664
 5103POPC   C3B64365  14.539  44.952   7.080
 5103POPC   C4B64366  14.645  44.916   7.544
 5104POPC   NC364367   6.511  11.808   5.426
 5104POPC   PO464368   6.798  11.207   5.443
 5104POPC   GL164369   6.792  11.312   5.840
 5104POPC   GL264370   6.647  11.639   5.899
 5104POPC   C1A64371   6.941  11.276   6.238
 5104POPC   D2A64372   7.134  11.416   6.627
 5104POPC   C3A64373   6.920  11.192   6.947
 5104POPC   C4A64374   6.764  11.237   7.331
 5104POPC   C1B64375   6.427  11.359   6.194
 5104POPC   C2B64376   6.567  11.246   6.592
 5104POPC   C3B64377   6.399  11.344   6.974
 5104POPC   C4B64378   6.494  11.656   7.304
 5105POPC   NC364379  32.619  43.593   5.359
 5105POPC   PO464380  32.087  43.346   5.370
 5105POPC   GL164381  32.168  43.043   5.709
 5105POPC   GL264382  32.428  42.799   5.669
 5105POPC   C1A64383  32.149  43.144   6.179
 5105POPC   D2A64384  31.955  43.273   6.550
 5105POPC   C3A64385  32.039  43.045   6.907
 5105POPC   C4A64386  31.903  43.154   7.317
 5105POPC   C1B64387  32.514  42.809   6.090
 5105POPC   C2B64388  32.410  42.780   6.517
 5105POPC   C3B64389  32.577  42.861   6.923
 5105POPC   C4B64390  32.415  43.139   7.232
 5106POPC   NC364391  23.578  23.335   5.475
 5106POPC   PO464392  23.744  23.985   5.363
 5106POPC   GL164393  23.772  23.805   5.758
 5106POPC   GL264394  23.475  24.020   5.814
 5106POPC   C1A64395  23.882  23.546   6.128
 5106POPC   D2A64396  23.710  23.541   6.547
 5106POPC   C3A64397  23.864  23.601   6.976
 5106POPC   C4A64398  23.518  23.444   7.178
 5106POPC   C1B64399  23.390  23.776   6.156
 5106POPC   C2B64400  23.408  23.975   6.539
 5106POPC   C3B64401  23.433  23.922   6.973
 5106POPC   C4B64402  23.445  24.194   7.308
 5107POPC   NC364403  38.220   8.096   5.498
 5107POPC   PO464404  38.840   8.293   5.672
 5107POPC   GL164405  38.618   8.272   6.046
 5107POPC   GL264406  38.302   8.355   5.918
 5107POPC   C1A64407  38.343   8.251   6.403
 5107POPC   D2A64408  38.178   7.904   6.550
 5107POPC   C3A64409  38.431   7.942   6.886
 5107POPC   C4A64410  38.397   7.902   7.311
 5107POPC   C1B64411  37.986   8.560   6.187
 5107POPC   C2B64412  37.827   8.382   6.572
 5107POPC   C3B64413  38.002   8.257   6.973
 5107POPC   C4B64414  38.397   8.426   7.131
 5108POPC   NC364415   4.049  11.445   5.429
 5108POPC   PO464416   4.687  11.139   5.443
 5108POPC   GL164417   4.458  11.356   5.771
 5108POPC   GL264418   4.416  11.043   5.890
 5108POPC   C1A64419   4.196  11.393   6.173
 5108POPC   D2A64420   4.294  11.315   6.599
 5108POPC   C3A64421   4.002  11.274   6.929
 5108POPC   C4A64422   4.170  11.288   7.348
 5108POPC   C1B64423   4.366  10.884   6.292
 5108POPC   C2B64424   4.617  10.877   6.637
 5108POPC   C3B64425   4.454  11.013   7.008
 5108POPC   C4B64426   4.388  10.822   7.387
 5109POPC   NC364427  32.740   9.388   5.471
 5109POPC   PO464428  33.153   9.974   5.431
 5109POPC   GL164429  33.104   9.687   5.740
 5109POPC   GL264430  32.772   9.774   5.849
 5109POPC   C1A64431  33.192   9.683   6.189
 5109POPC   D2A64432  32.986   9.784   6.600
 5109POPC   C3A64433  33.235   9.725   6.990
 5109POPC   C4A64434  33.269   9.792   7.429
 5109POPC   C1B64435  32.731   9.408   6.136
 5109POPC   C2B64436  32.616   9.405   6.571
 5109POPC   C3B64437  32.849   9.387   6.921
 5109POPC   C4B64438  32.838   9.597   7.291
 5110POPC   NC364439  31.862  41.475   5.513
 5110POPC   PO464440  32.456  41.231   5.450
 5110POPC   GL164441  32.286  41.461   5.833
 5110POPC   GL264442  32.332  41.814   5.801
 5110POPC   C1A64443  32.174  41.316   6.274
 5110POPC   D2A64444  32.191  41.056   6.651
 5110POPC   C3A64445  32.259  41.341   6.993
 5110POPC   C4A64446  32.128  41.742   7.264
 5110POPC   C1B64447  32.145  41.815   6.225
 5110POPC   C2B64448  32.174  41.739   6.660
 5110POPC   C3B64449  32.526  41.773   6.917
 5110POPC   C4B64450  32.649  41.864   7.344
 5111POPC   NC364451  26.282  18.484   5.170
 5111POPC   PO464452  25.715  18.155   5.388
 5111POPC   GL164453  25.890  18.213   5.868
 5111POPC   GL264454  26.163  18.027   5.975
 5111POPC   C1A64455  25.832  18.529   6.273
 5111POPC   D2A64456  25.863  18.752   6.731
 5111POPC   C3A64457  25.865  18.464   7.143
 5111POPC   C4A64458  26.189  18.472   7.452
 5111POPC   C1B64459  26.249  18.243   6.311
 5111POPC   C2B64460  26.115  18.324   6.695
 5111POPC   C3B64461  26.268  18.177   7.038
 5111POPC   C4B64462  26.113  17.959   7.391
 5112POPC   NC364463  40.514  27.719   5.420
 5112POPC   PO464464  41.161  27.552   5.313
 5112POPC   GL164465  40.919  27.679   5.751
 5112POPC   GL264466  40.556  27.528   5.922
 5112POPC   C1A64467  40.767  27.912   6.160
 5112POPC   D2A64468  40.509  27.641   6.461
 5112POPC   C3A64469  40.809  27.384   6.715
 5112POPC   C4A64470  40.910  27.536   7.122
 5112POPC   C1B64471  40.469  27.154   6.240
 5112POPC   C2B64472  40.441  27.032   6.700
 5112POPC   C3B64473  40.417  27.362   7.029
 5112POPC   C4B64474  40.469  27.344   7.474
 5113POPC   NC364475  11.566  14.106   5.410
 5113POPC   PO464476  11.106  14.675   5.304
 5113POPC   GL164477  11.096  14.437   5.711
 5113POPC   GL264478  11.412  14.283   5.863
 5113POPC   C1A64479  11.034  14.459   6.163
 5113POPC   D2A64480  11.072  14.271   6.563
 5113POPC   C3A64481  11.011  14.526   6.902
 5113POPC   C4A64482  11.220  14.516   7.272
 5113POPC   C1B64483  11.582  14.341   6.289
 5113POPC   C2B64484  11.519  14.471   6.726
 5113POPC   C3B64485  11.656  14.339   7.114
 5113POPC   C4B64486  11.709  14.690   7.379
 5114POPC   NC364487  33.142  11.216   5.319
 5114POPC   PO464488  32.489  11.299   5.483
 5114POPC   GL164489  32.833  11.205   5.784
 5114POPC   GL264490  33.182  11.390   5.797
 5114POPC   C1A64491  32.879  11.352   6.224
 5114POPC   D2A64492  33.026  11.572   6.598
 5114POPC   C3A64493  33.277  11.308   6.835
 5114POPC   C4A64494  33.027  11.070   7.120
 5114POPC   C1B64495  33.330  11.090   6.139
 5114POPC   C2B64496  33.615  10.983   6.523
 5114POPC   C3B64497  33.555  10.893   6.993
 5114POPC   C4B64498  33.458  11.228   7.331
 5115POPC   NC364499  36.374  23.466   5.688
 5115POPC   PO464500  36.029  22.911   5.432
 5115POPC   GL164501  36.028  23.110   5.830
 5115POPC   GL264502  36.372  22.988   5.858
 5115POPC   C1A64503  36.116  23.187   6.278
 5115POPC   D2A64504  36.278  22.931   6.632
 5115POPC   C3A64505  36.183  23.086   7.008
 5115POPC   C4A64506  35.783  23.276   7.051
 5115POPC   C1B64507  36.563  22.830   6.219
 5115POPC   C2B64508  36.658  22.562   6.575
 5115POPC   C3B64509  36.512  22.578   7.002
 5115POPC   C4B64510  36.561  22.908   7.303
 5116POPC   NC364511   1.076  27.746   5.431
 5116POPC   PO464512   0.534  27.543   5.607
 5116POPC   GL164513   0.992  27.440   5.823
 5116POPC   GL264514   1.259  27.737   5.900
 5116POPC   C1A64515   1.282  27.342   6.204
 5116POPC   D2A64516   1.298  27.603   6.601
 5116POPC   C3A64517   1.196  27.381   6.967
 5116POPC   C4A64518   1.030  27.398   7.374
 5116POPC   C1B64519   0.939  27.717   6.244
 5116POPC   C2B64520   0.847  27.940   6.627
 5116POPC   C3B64521   0.928  27.836   7.057
 5116POPC   C4B64522   1.320  27.797   7.246
 5117POPC   NC364523   8.845  38.474   5.595
 5117POPC   PO464524   8.110  38.431   5.409
 5117POPC   GL164525   8.325  38.426   5.782
 5117POPC   GL264526   8.289  38.062   5.875
 5117POPC   C1A64527   8.182  38.577   6.205
 5117POPC   D2A64528   7.957  38.478   6.608
 5117POPC   C3A64529   8.133  38.544   7.034
 5117POPC   C4A64530   8.552  38.655   7.170
 5117POPC   C1B64531   8.284  38.083   6.354
 5117POPC   C2B64532   8.431  38.220   6.768
 5117POPC   C3B64533   8.362  38.128   7.199
 5117POPC   C4B64534   8.075  38.172   7.543
 5118POPC   NC364535   5.878  34.811   5.134
 5118POPC   PO464536   5.441  34.384   5.504
 5118POPC   GL164537   5.808  34.382   5.742
 5118POPC   GL264538   5.929  34.697   5.653
 5118POPC   C1A64539   5.880  34.262   6.158
 5118POPC   D2A64540   6.086  34.300   6.528
 5118POPC   C3A64541   5.871  34.355   6.906
 5118POPC   C4A64542   6.037  34.371   7.280
 5118POPC   C1B64543   5.868  34.799   6.105
 5118POPC   C2B64544   6.093  34.829   6.504
 5118POPC   C3B64545   6.100  34.830   6.963
 5118POPC   C4B64546   5.738  34.763   7.262
 5119POPC   NC364547  39.510  38.667   5.287
 5119POPC   PO464548  39.026  38.264   5.511
 5119POPC   GL164549  39.270  38.502   5.837
 5119POPC   GL264550  39.520  38.772   5.786
 5119POPC   C1A64551  39.165  38.770   6.205
 5119POPC   D2A64552  38.939  38.985   6.560
 5119POPC   C3A64553  38.896  38.688   6.911
 5119POPC   C4A64554  39.051  38.517   7.287
 5119POPC   C1B64555  39.673  38.842   6.189
 5119POPC   C2B64556  39.551  38.630   6.570
 5119POPC   C3B64557  39.454  38.545   6.979
 5119POPC   C4B64558  39.562  38.709   7.335
 5120POPC   NC364559   2.131  18.583   5.477
 5120POPC   PO464560   1.510  18.223   5.358
 5120POPC   GL164561   1.739  18.324   5.751
 5120POPC   GL264562   2.084  18.171   5.793
 5120POPC   C1A64563   1.785  18.239   6.212
 5120POPC   D2A64564   2.059  18.128   6.545
 5120POPC   C3A64565   1.900  18.058   6.965
 5120POPC   C4A64566   2.086  18.030   7.398
 5120POPC   C1B64567   2.235  18.495   6.104
 5120POPC   C2B64568   2.345  18.703   6.496
 5120POPC   C3B64569   2.279  18.469   6.872
 5120POPC   C4B64570   2.277  18.515   7.297
 5121POPC   NC364571   7.726   8.862   5.442
 5121POPC   PO464572   7.045   9.018   5.413
 5121POPC   GL164573   7.355   9.023   5.735
 5121POPC   GL264574   7.123   9.019   5.965
 5121POPC   C1A64575   7.575   8.842   6.137
 5121POPC   D2A64576   7.362   8.871   6.557
 5121POPC   C3A64577   7.583   8.751   6.941
 5121POPC   C4A64578   7.459   8.693   7.345
 5121POPC   C1B64579   7.006   9.220   6.344
 5121POPC   C2B64580   7.172   9.340   6.717
 5121POPC   C3B64581   7.153   9.038   7.035
 5121POPC   C4B64582   7.198   9.160   7.431
 5122POPC   NC364583  30.389  24.135   5.545
 5122POPC   PO464584  30.016  24.743   5.327
 5122POPC   GL164585  29.840  24.687   5.753
 5122POPC   GL264586  29.920  24.319   5.779
 5122POPC   C1A64587  29.683  24.620   6.187
 5122POPC   D2A64588  29.913  24.716   6.566
 5122POPC   C3A64589  29.793  24.589   6.965
 5122POPC   C4A64590  30.005  24.779   7.285
 5122POPC   C1B64591  29.904  24.149   6.196
 5122POPC   C2B64592  29.718  24.205   6.590
 5122POPC   C3B64593  29.888  24.074   6.978
 5122POPC   C4B64594  29.980  24.259   7.341
 5123POPC   NC364595  29.394  18.768   5.468
 5123POPC   PO464596  28.825  19.197   5.318
 5123POPC   GL164597  28.977  19.116   5.744
 5123POPC   GL264598  28.937  19.403   5.978
 5123POPC   C1A64599  29.102  18.941   6.155
 5123POPC   D2A64600  28.952  18.951   6.567
 5123POPC   C3A64601  29.239  19.033   6.902
 5123POPC   C4A64602  29.309  18.815   7.296
 5123POPC   C1B64603  28.690  19.365   6.372
 5123POPC   C2B64604  28.716  19.323   6.839
 5123POPC   C3B64605  28.903  19.263   7.242
 5123POPC   C4B64606  29.177  19.223   7.595
 5124POPC   NC364607  44.871   1.522   5.488
 5124POPC   PO464608  44.205   1.183   5.434
 5124POPC   GL164609  44.466   1.247   5.776
 5124POPC   GL264610  44.794   1.077   5.819
 5124POPC   C1A64611  44.446   1.175   6.200
 5124POPC   D2A64612  44.595   1.241   6.588
 5124POPC   C3A64613  44.508   0.962   6.908
 5124POPC   C4A64614  44.423   1.254   7.195
 5124POPC   C1B64615  44.886   1.419   6.153
 5124POPC   C2B64616   0.064   1.422   6.578
 5124POPC   C3B64617  44.888   1.382   7.000
 5124POPC   C4B64618   0.056   1.566   7.343
 5125POPC   NC364619  38.400  26.550   5.322
 5125POPC   PO464620  37.978  27.036   5.235
 5125POPC   GL164621  38.192  26.933   5.679
 5125POPC   GL264622  38.517  26.766   5.765
 5125POPC   C1A64623  38.257  26.954   6.153
 5125POPC   D2A64624  38.390  27.090   6.530
 5125POPC   C3A64625  38.297  26.893   6.932
 5125POPC   C4A64626  38.454  27.004   7.342
 5125POPC   C1B64627  38.496  26.506   6.125
 5125POPC   C2B64628  38.542  26.619   6.534
 5125POPC   C3B64629  38.468  26.393   6.906
 5125POPC   C4B64630  38.567  26.500   7.290
 5126POPC   NC364631  10.111   8.267   5.443
 5126POPC   PO464632  10.781   7.963   5.489
 5126POPC   GL164633  10.606   8.040   5.865
 5126POPC   GL264634  10.473   8.324   5.819
 5126POPC   C1A64635  10.833   7.977   6.221
 5126POPC   D2A64636  10.693   8.034   6.616
 5126POPC   C3A64637  10.649   7.778   6.973
 5126POPC   C4A64638  10.409   8.046   7.253
 5126POPC   C1B64639  10.391   8.311   6.268
 5126POPC   C2B64640  10.349   8.546   6.660
 5126POPC   C3B64641  10.506   8.503   7.072
 5126POPC   C4B64642  10.362   8.480   7.522
 5127POPC   NC364643  24.976   1.005   5.620
 5127POPC   PO464644  25.387   1.419   5.255
 5127POPC   GL164645  25.397   1.346   5.768
 5127POPC   GL264646  25.413   1.003   5.958
 5127POPC   C1A64647  25.330   1.392   6.270
 5127POPC   D2A64648  25.362   1.105   6.662
 5127POPC   C3A64649  25.250   1.317   7.055
 5127POPC   C4A64650  25.377   1.566   7.425
 5127POPC   C1B64651  25.018   0.968   6.266
 5127POPC   C2B64652  24.862   0.935   6.708
 5127POPC   C3B64653  25.069   0.835   7.121
 5127POPC   C4B64654  25.534   0.941   7.245
 5128POPC   NC364655  16.333   8.230   5.519
 5128POPC   PO464656  15.641   8.443   5.514
 5128POPC   GL164657  15.801   8.208   5.821
 5128POPC   GL264658  15.821   7.886   5.684
 5128POPC   C1A64659  15.915   8.392   6.227
 5128POPC   D2A64660  15.691   8.513   6.607
 5128POPC   C3A64661  15.786   8.381   7.014
 5128POPC   C4A64662  16.091   8.318   7.364
 5128POPC   C1B64663  16.049   7.871   6.100
 5128POPC   C2B64664  16.152   8.047   6.515
 5128POPC   C3B64665  16.126   8.015   6.948
 5128POPC   C4B64666  15.961   7.821   7.362
 5129POPC   NC364667  11.782   0.316   5.433
 5129POPC   PO464668  11.097   0.558   5.448
 5129POPC   GL164669  11.135   0.351   5.802
 5129POPC   GL264670  11.462   0.338   5.798
 5129POPC   C1A64671  10.980   0.353   6.230
 5129POPC   D2A64672  11.055   0.746   6.447
 5129POPC   C3A64673  11.187   0.712   6.862
 5129POPC   C4A64674  11.036   0.399   7.164
 5129POPC   C1B64675  11.456   0.518   6.175
 5129POPC   C2B64676  11.425   0.351   6.547
 5129POPC   C3B64677  11.491   0.318   6.945
 5129POPC   C4B64678  11.734   0.452   7.210
 5130POPC   NC364679  10.306  23.298   5.393
 5130POPC   PO464680  10.290  23.994   5.459
 5130POPC   GL164681  10.389  23.792   5.871
 5130POPC   GL264682  10.368  23.463   5.873
 5130POPC   C1A64683  10.641  23.658   6.253
 5130POPC   D2A64684  10.749  23.437   6.629
 5130POPC   C3A64685  10.665  23.775   6.924
 5130POPC   C4A64686  10.752  23.844   7.345
 5130POPC   C1B64687  10.028  23.440   6.192
 5130POPC   C2B64688   9.987  23.227   6.596
 5130POPC   C3B64689  10.284  23.413   6.856
 5130POPC   C4B64690  10.502  23.415   7.231
 5131POPC   NC364691  21.145   2.427   5.376
 5131POPC   PO464692  21.657   2.782   5.440
 5131POPC   GL164693  21.528   2.682   5.835
 5131POPC   GL264694  21.218   2.864   5.792
 5131POPC   C1A64695  21.517   2.792   6.277
 5131POPC   D2A64696  21.276   2.937   6.630
 5131POPC   C3A64697  21.448   2.771   6.973
 5131POPC   C4A64698  21.474   2.947   7.351
 5131POPC   C1B64699  21.020   2.752   6.205
 5131POPC   C2B64700  21.146   2.454   6.547
 5131POPC   C3B64701  21.088   2.364   6.979
 5131POPC   C4B64702  21.005   2.752   7.226
 5132POPC   NC364703  13.452  25.708   5.285
 5132POPC   PO464704  13.831  25.188   5.373
 5132POPC   GL164705  13.718  25.489   5.679
 5132POPC   GL264706  13.428  25.320   5.725
 5132POPC   C1A64707  13.613  25.556   6.143
 5132POPC   D2A64708  13.443  25.663   6.572
 5132POPC   C3A64709  13.444  25.375   6.910
 5132POPC   C4A64710  13.854  25.197   7.076
 5132POPC   C1B64711  13.510  25.010   6.113
 5132POPC   C2B64712  13.655  25.004   6.572
 5132POPC   C3B64713  13.503  24.859   6.999
 5132POPC   C4B64714  13.415  25.116   7.345
 5133POPC   NC364715  35.200  30.885   5.019
 5133POPC   PO464716  35.094  31.506   5.329
 5133POPC   GL164717  35.296  31.659   5.711
 5133POPC   GL264718  35.630  31.816   5.676
 5133POPC   C1A64719  35.324  31.426   6.116
 5133POPC   D2A64720  35.317  31.172   6.529
 5133POPC   C3A64721  35.561  31.238   6.891
 5133POPC   C4A64722  35.408  31.368   7.278
 5133POPC   C1B64723  35.524  31.898   6.121
 5133POPC   C2B64724  35.485  31.681   6.524
 5133POPC   C3B64725  35.296  31.696   6.917
 5133POPC   C4B64726  35.257  31.971   7.248
 5134POPC   NC364727  42.763  16.899   5.683
 5134POPC   PO464728  42.258  16.815   5.283
 5134POPC   GL164729  42.234  16.678   5.709
 5134POPC   GL264730  42.322  16.969   5.935
 5134POPC   C1A64731  42.160  16.537   6.150
 5134POPC   D2A64732  42.295  16.718   6.579
 5134POPC   C3A64733  42.062  16.628   6.967
 5134POPC   C4A64734  42.194  16.387   7.300
 5134POPC   C1B64735  42.625  17.069   6.316
 5134POPC   C2B64736  42.707  17.015   6.767
 5134POPC   C3B64737  42.588  16.692   7.084
 5134POPC   C4B64738  42.487  16.793   7.514
 5135POPC   NC364739  38.199  28.827   5.594
 5135POPC   PO464740  38.488  29.504   5.470
 5135POPC   GL164741  38.358  29.300   5.839
 5135POPC   GL264742  38.564  29.099   5.972
 5135POPC   C1A64743  38.389  29.428   6.299
 5135POPC   D2A64744  38.323  29.283   6.718
 5135POPC   C3A64745  38.696  29.089   6.864
 5135POPC   C4A64746  38.927  29.168   7.278
 5135POPC   C1B64747  38.195  28.946   6.237
 5135POPC   C2B64748  38.057  28.769   6.626
 5135POPC   C3B64749  38.139  28.860   7.040
 5135POPC   C4B64750  38.372  29.180   7.243
 5136POPC   NC364751   9.093  20.399   5.402
 5136POPC   PO464752   8.832  20.995   5.460
 5136POPC   GL164753   9.089  20.761   5.784
 5136POPC   GL264754   9.269  20.438   5.890
 5136POPC   C1A64755   9.170  20.873   6.199
 5136POPC   D2A64756   9.053  21.123   6.553
 5136POPC   C3A64757   8.965  20.907   6.924
 5136POPC   C4A64758   9.138  20.651   7.274
 5136POPC   C1B64759   9.289  20.383   6.338
 5136POPC   C2B64760   9.249  20.448   6.788
 5136POPC   C3B64761   9.098  20.162   7.117
 5136POPC   C4B64762   9.163  20.144   7.582
 5137POPC   NC364763  11.140  25.874   5.534
 5137POPC   PO464764  11.487  26.472   5.572
 5137POPC   GL164765  11.399  26.119   5.907
 5137POPC   GL264766  11.024  26.100   5.981
 5137POPC   C1A64767  11.345  25.937   6.347
 5137POPC   D2A64768  11.561  25.725   6.695
 5137POPC   C3A64769  11.453  25.882   7.124
 5137POPC   C4A64770  11.698  26.039   7.469
 5137POPC   C1B64771  10.872  25.688   6.199
 5137POPC   C2B64772  10.905  25.551   6.644
 5137POPC   C3B64773  10.921  25.777   7.031
 5137POPC   C4B64774  11.024  25.965   7.419
 5138POPC   NC364775  13.695  26.537   5.574
 5138POPC   PO464776  13.895  25.949   5.271
 5138POPC   GL164777  13.598  26.021   5.668
 5138POPC   GL264778  13.281  25.817   5.738
 5138POPC   C1A64779  13.682  26.104   6.123
 5138POPC   D2A64780  13.963  26.000   6.475
 5138POPC   C3A64781  13.727  26.005   6.856
 5138POPC   C4A64782  13.763  25.687   7.159
 5138POPC   C1B64783  13.208  25.866   6.152
 5138POPC   C2B64784  13.300  26.148   6.482
 5138POPC   C3B64785  13.244  26.190   6.911
 5138POPC   C4B64786  13.328  25.939   7.272
 5139POPC   NC364787  11.730   1.300   5.603
 5139POPC   PO464788  12.266   0.955   5.389
 5139POPC   GL164789  12.127   1.011   5.815
 5139POPC   GL264790  12.064   1.336   5.958
 5139POPC   C1A64791  12.148   0.976   6.267
 5139POPC   D2A64792  11.935   1.207   6.615
 5139POPC   C3A64793  12.223   1.267   6.959
 5139POPC   C4A64794  12.535   0.958   7.153
 5139POPC   C1B64795  11.776   1.585   6.214
 5139POPC   C2B64796  11.578   1.620   6.618
 5139POPC   C3B64797  11.769   1.527   7.010
 5139POPC   C4B64798  11.883   1.638   7.398
 5140POPC   NC364799  44.252  11.419   5.098
 5140POPC   PO464800  43.740  11.475   5.618
 5140POPC   GL164801  43.964  11.259   5.879
 5140POPC   GL264802  43.693  11.086   5.996
 5140POPC   C1A64803  44.022  11.346   6.292
 5140POPC   D2A64804  43.840  11.512   6.656
 5140POPC   C3A64805  44.015  11.227   6.901
 5140POPC   C4A64806  44.069  11.034   7.274
 5140POPC   C1B64807  43.532  11.104   6.372
 5140POPC   C2B64808  43.553  10.969   6.763
 5140POPC   C3B64809  43.511  11.217   7.102
 5140POPC   C4B64810  43.624  11.129   7.501
 5141POPC   NC364811  12.488   0.649   5.676
 5141POPC   PO464812  12.915   0.195   5.380
 5141POPC   GL164813  12.948   0.432   5.794
 5141POPC   GL264814  12.711   0.298   6.015
 5141POPC   C1A64815  12.910   0.754   6.162
 5141POPC   D2A64816  12.797   0.880   6.584
 5141POPC   C3A64817  12.778   0.560   6.930
 5141POPC   C4A64818  12.592   0.464   7.344
 5141POPC   C1B64819  13.134   0.306   6.260
 5141POPC   C2B64820  13.225   0.216   6.707
 5141POPC   C3B64821  13.047   0.140   7.141
 5141POPC   C4B64822  13.024   0.318   7.573
 5142POPC   NC364823   1.687  33.254   5.365
 5142POPC   PO464824   2.323  32.861   5.379
 5142POPC   GL164825   2.149  33.193   5.721
 5142POPC   GL264826   1.784  33.296   5.862
 5142POPC   C1A64827   2.195  33.215   6.200
 5142POPC   D2A64828   2.075  33.339   6.637
 5142POPC   C3A64829   2.041  32.990   6.916
 5142POPC   C4A64830   2.079  32.767   7.287
 5142POPC   C1B64831   1.572  33.315   6.272
 5142POPC   C2B64832   1.601  33.148   6.698
 5142POPC   C3B64833   1.714  33.375   7.099
 5142POPC   C4B64834   1.712  33.230   7.567
 5143POPC   NC364835   0.073  27.844   5.315
 5143POPC   PO464836  44.570  27.408   5.380
 5143POPC   GL164837  44.513  27.612   5.769
 5143POPC   GL264838  44.821  27.708   5.799
 5143POPC   C1A64839  44.476  27.837   6.152
 5143POPC   D2A64840  44.496  27.668   6.528
 5143POPC   C3A64841  44.640  27.730   6.936
 5143POPC   C4A64842  44.522  27.526   7.296
 5143POPC   C1B64843  44.817  27.462   6.168
 5143POPC   C2B64844  44.883  27.273   6.546
 5143POPC   C3B64845  44.848  27.265   6.983
 5143POPC   C4B64846   0.046  27.603   7.249
 5144POPC   NC364847  14.149  20.756   5.406
 5144POPC   PO464848  14.734  20.560   5.473
 5144POPC   GL164849  14.446  20.438   5.788
 5144POPC   GL264850  14.662  20.187   5.923
 5144POPC   C1A64851  14.242  20.698   6.113
 5144POPC   D2A64852  14.112  20.597   6.525
 5144POPC   C3A64853  14.251  20.789   6.892
 5144POPC   C4A64854  14.312  20.853   7.301
 5144POPC   C1B64855  14.493  20.302   6.323
 5144POPC   C2B64856  14.481  20.354   6.757
 5144POPC   C3B64857  14.487  20.395   7.158
 5144POPC   C4B64858  14.794  20.316   7.458
 5145POPC   NC364859  12.822  40.289   5.293
 5145POPC   PO464860  13.022  39.660   5.356
 5145POPC   GL164861  12.920  39.930   5.687
 5145POPC   GL264862  13.116  40.216   5.764
 5145POPC   C1A64863  12.597  39.998   6.003
 5145POPC   D2A64864  12.522  40.241   6.377
 5145POPC   C3A64865  12.529  40.059   6.783
 5145POPC   C4A64866  12.592  40.092   7.215
 5145POPC   C1B64867  13.076  40.045   6.196
 5145POPC   C2B64868  12.986  40.180   6.629
 5145POPC   C3B64869  13.078  40.139   7.075
 5145POPC   C4B64870  13.010  40.238   7.537
 5146POPC   NC364871  26.505   9.076   5.282
 5146POPC   PO464872  26.972   8.692   5.501
 5146POPC   GL164873  26.808   8.711   5.877
 5146POPC   GL264874  26.532   8.862   5.748
 5146POPC   C1A64875  26.914   8.865   6.271
 5146POPC   D2A64876  27.094   9.137   6.569
 5146POPC   C3A64877  27.109   8.870   6.895
 5146POPC   C4A64878  26.873   8.695   7.202
 5146POPC   C1B64879  26.653   9.229   6.046
 5146POPC   C2B64880  26.639   9.378   6.514
 5146POPC   C3B64881  26.647   9.187   6.932
 5146POPC   C4B64882  26.973   9.215   7.241
 5147POPC   NC364883  20.526  38.988   5.253
 5147POPC   PO464884  20.824  39.439   5.658
 5147POPC   GL164885  20.544  39.253   5.871
 5147POPC   GL264886  20.453  38.930   5.814
 5147POPC   C1A64887  20.465  39.395   6.262
 5147POPC   D2A64888  20.305  39.439   6.658
 5147POPC   C3A64889  20.447  39.220   7.005
 5147POPC   C4A64890  20.633  39.406   7.301
 5147POPC   C1B64891  20.775  38.972   6.208
 5147POPC   C2B64892  20.762  39.168   6.628
 5147POPC   C3B64893  20.950  39.076   7.059
 5147POPC   C4B64894  20.918  39.104   7.565
 5148POPC   NC364895  43.879  21.095   5.192
 5148POPC   PO464896  43.680  20.535   5.681
 5148POPC   GL164897  43.924  20.572   6.037
 5148POPC   GL264898  44.142  20.281   6.055
 5148POPC   C1A64899  43.986  20.823   6.418
 5148POPC   D2A64900  44.231  21.001   6.773
 5148POPC   C3A64901  44.080  20.875   7.182
 5148POPC   C4A64902  43.824  20.538   7.381
 5148POPC   C1B64903  43.824  20.162   6.351
 5148POPC   C2B64904  43.914  20.079   6.781
 5148POPC   C3B64905  44.208  20.320   7.063
 5148POPC   C4B64906  44.271  20.254   7.513
 5149POPC   NC364907  40.544  33.431   5.234
 5149POPC   PO464908  40.953  32.930   5.227
 5149POPC   GL164909  40.903  33.037   5.701
 5149POPC   GL264910  40.534  32.986   5.767
 5149POPC   C1A64911  40.843  32.943   6.191
 5149POPC   D2A64912  40.665  32.871   6.638
 5149POPC   C3A64913  40.896  32.845   7.055
 5149POPC   C4A64914  41.064  33.084   7.415
 5149POPC   C1B64915  40.406  33.207   6.170
 5149POPC   C2B64916  40.530  33.368   6.597
 5149POPC   C3B64917  40.423  33.298   7.049
 5149POPC   C4B64918  40.568  33.063   7.403
 5150POPC   NC364919  16.855  10.120   5.503
 5150POPC   PO464920  16.835   9.437   5.277
 5150POPC   GL164921  16.556   9.645   5.596
 5150POPC   GL264922  16.839   9.682   5.800
 5150POPC   C1A64923  16.419   9.705   6.071
 5150POPC   D2A64924  16.564   9.690   6.523
 5150POPC   C3A64925  16.336   9.662   6.949
 5150POPC   C4A64926  16.358   9.812   7.420
 5150POPC   C1B64927  16.963   9.414   6.174
 5150POPC   C2B64928  16.935   9.369   6.618
 5150POPC   C3B64929  16.830   9.549   6.993
 5150POPC   C4B64930  16.897   9.712   7.397
 5151POPC   NC364931  44.605  42.764   5.522
 5151POPC   PO464932  44.795  43.392   5.408
 5151POPC   GL164933  44.673  43.167   5.815
 5151POPC   GL264934  44.317  43.209   5.930
 5151POPC   C1A64935  44.561  42.875   6.190
 5151POPC   D2A64936  44.312  43.007   6.578
 5151POPC   C3A64937  44.513  43.008   7.002
 5151POPC   C4A64938  44.570  43.029   7.439
 5151POPC   C1B64939  44.568  43.371   6.284
 5151POPC   C2B64940  44.649  43.407   6.721
 5151POPC   C3B64941  44.510  43.533   7.126
 5151POPC   C4B64942  44.341  43.496   7.524
 5152POPC   NC364943  20.607  40.607   5.350
 5152POPC   PO464944  20.387  41.173   5.641
 5152POPC   GL164945  20.638  40.826   5.823
 5152POPC   GL264946  20.877  40.518   5.771
 5152POPC   C1A64947  20.841  40.860   6.210
 5152POPC   D2A64948  20.880  41.025   6.619
 5152POPC   C3A64949  20.463  40.977   6.833
 5152POPC   C4A64950  20.552  40.985   7.244
 5152POPC   C1B64951  20.739  40.360   6.180
 5152POPC   C2B64952  20.507  40.526   6.537
 5152POPC   C3B64953  20.633  40.516   6.969
 5152POPC   C4B64954  20.877  40.602   7.351
 5153POPC   NC364955  17.080  31.511   5.528
 5153POPC   PO464956  16.454  31.381   5.486
 5153POPC   GL164957  16.555  31.678   5.803
 5153POPC   GL264958  16.785  31.457   5.930
 5153POPC   C1A64959  16.633  31.784   6.273
 5153POPC   D2A64960  16.644  31.556   6.683
 5153POPC   C3A64961  16.748  31.841   6.986
 5153POPC   C4A64962  16.541  31.886   7.358
 5153POPC   C1B64963  16.971  31.404   6.316
 5153POPC   C2B64964  17.179  31.500   6.674
 5153POPC   C3B64965  17.059  31.422   7.061
 5153POPC   C4B64966  16.649  31.406   7.231
 5154POPC   NC364967  42.761  39.250   5.434
 5154POPC   PO464968  43.433  39.379   5.526
 5154POPC   GL164969  43.217  39.564   5.889
 5154POPC   GL264970  42.863  39.618   5.799
 5154POPC   C1A64971  43.173  39.444   6.350
 5154POPC   D2A64972  42.942  39.184   6.686
 5154POPC   C3A64973  43.080  39.086   7.152
 5154POPC   C4A64974  42.991  38.875   7.565
 5154POPC   C1B64975  42.851  39.809   6.201
 5154POPC   C2B64976  42.822  39.707   6.632
 5154POPC   C3B64977  42.804  39.520   7.039
 5154POPC   C4B64978  43.210  39.568   7.260
 5155POPC   NC364979  41.334   1.400   5.395
 5155POPC   PO464980  41.873   0.936   5.609
 5155POPC   GL164981  41.617   1.013   5.948
 5155POPC   GL264982  41.325   1.147   5.830
 5155POPC   C1A64983  41.653   1.111   6.360
 5155POPC   D2A64984  41.796   1.022   6.743
 5155POPC   C3A64985  41.670   1.236   7.082
 5155POPC   C4A64986  41.590   1.051   7.468
 5155POPC   C1B64987  41.331   1.503   6.169
 5155POPC   C2B64988  41.566   1.577   6.568
 5155POPC   C3B64989  41.390   1.636   7.026
 5155POPC   C4B64990  41.499   1.534   7.503
 5156POPC   NC364991  39.795   7.998   5.245
 5156POPC   PO464992  40.361   8.130   5.100
 5156POPC   GL164993  40.196   8.148   5.590
 5156POPC   GL264994  39.813   8.135   5.742
 5156POPC   C1A64995  40.207   8.156   6.067
 5156POPC   D2A64996  39.979   8.074   6.466
 5156POPC   C3A64997  40.111   8.217   6.874
 5156POPC   C4A64998  39.868   8.380   7.199
 5156POPC   C1B64999  39.632   7.904   6.150
 5156POPC   C2B65000  39.492   7.841   6.620
 5156POPC   C3B65001  39.585   7.856   7.094
 5156POPC   C4B65002  39.583   8.098   7.513
 5157POPC   NC365003   6.254   7.071   5.476
 5157POPC   PO465004   6.761   7.340   5.117
 5157POPC   GL165005   6.598   7.385   5.669
 5157POPC   GL265006   6.500   7.111   5.934
 5157POPC   C1A65007   6.484   7.541   6.161
 5157POPC   D2A65008   6.611   7.443   6.658
 5157POPC   C3A65009   6.533   7.637   7.124
 5157POPC   C4A65010   6.539   7.760   7.595
 5157POPC   C1B65011   6.783   6.988   6.273
 5157POPC   C2B65012   6.892   6.977   6.721
 5157POPC   C3B65013   6.664   7.124   7.101
 5157POPC   C4B65014   6.776   7.341   7.496
 5158POPC   NC365015   5.296  21.967   5.444
 5158POPC   PO465016   5.293  22.567   5.561
 5158POPC   GL165017   5.053  22.229   5.844
 5158POPC   GL265018   5.131  21.840   5.899
 5158POPC   C1A65019   4.921  22.145   6.298
 5158POPC   D2A65020   4.846  22.104   6.750
 5158POPC   C3A65021   5.175  22.030   7.027
 5158POPC   C4A65022   5.355  22.422   7.132
 5158POPC   C1B65023   4.719  21.721   6.098
 5158POPC   C2B65024   4.703  21.638   6.574
 5158POPC   C3B65025   4.685  21.731   7.059
 5158POPC   C4B65026   4.956  21.800   7.430
 5159POPC   NC365027   4.663  37.251   5.677
 5159POPC   PO465028   5.192  36.840   5.432
 5159POPC   GL165029   5.076  36.967   5.789
 5159POPC   GL265030   4.804  36.749   5.802
 5159POPC   C1A65031   5.134  36.985   6.227
 5159POPC   D2A65032   5.030  36.849   6.650
 5159POPC   C3A65033   5.059  37.126   7.021
 5159POPC   C4A65034   5.240  36.899   7.378
 5159POPC   C1B65035   4.667  36.734   6.236
 5159POPC   C2B65036   4.514  36.800   6.657
 5159POPC   C3B65037   4.736  36.721   7.083
 5159POPC   C4B65038   4.809  36.720   7.583
 5160POPC   NC365039   5.190  31.114   5.245
 5160POPC   PO465040   4.761  31.547   5.503
 5160POPC   GL165041   4.882  31.443   5.907
 5160POPC   GL265042   5.237  31.529   6.020
 5160POPC   C1A65043   4.835  31.555   6.340
 5160POPC   D2A65044   5.084  31.518   6.708
 5160POPC   C3A65045   4.863  31.411   7.064
 5160POPC   C4A65046   4.922  31.185   7.422
 5160POPC   C1B65047   5.508  31.299   6.284
 5160POPC   C2B65048   5.401  30.985   6.595
 5160POPC   C3B65049   5.284  31.070   7.024
 5160POPC   C4B65050   5.380  31.398   7.341
 5161POPC   NC365051   9.207  29.135   5.579
 5161POPC   PO465052   8.624  29.076   5.415
 5161POPC   GL165053   8.849  28.936   5.872
 5161POPC   GL265054   9.149  28.684   5.830
 5161POPC   C1A65055   9.080  29.218   6.234
 5161POPC   D2A65056   9.192  29.404   6.668
 5161POPC   C3A65057   8.992  29.156   6.952
 5161POPC   C4A65058   8.767  29.068   7.296
 5161POPC   C1B65059   9.328  28.772   6.247
 5161POPC   C2B65060   9.391  28.929   6.663
 5161POPC   C3B65061   9.335  28.787   7.084
 5161POPC   C4B65062   9.195  28.891   7.487
 5162POPC   NC365063  32.472  10.842   5.360
 5162POPC   PO465064  31.912  11.322   5.315
 5162POPC   GL165065  32.051  11.473   5.754
 5162POPC   GL265066  32.407  11.534   5.934
 5162POPC   C1A65067  32.009  11.467   6.221
 5162POPC   D2A65068  32.265  11.507   6.598
 5162POPC   C3A65069  32.116  11.345   6.999
 5162POPC   C4A65070  32.213  11.496   7.415
 5162POPC   C1B65071  32.417  11.141   6.138
 5162POPC   C2B65072  32.587  11.067   6.547
 5162POPC   C3B65073  32.638  11.333   6.926
 5162POPC   C4B65074  32.504  11.060   7.272
 5163POPC   NC365075  44.629   6.921   5.338
 5163POPC   PO465076  44.239   6.413   5.369
 5163POPC   GL165077  44.586   6.506   5.685
 5163POPC   GL265078  44.841   6.249   5.772
 5163POPC   C1A65079  44.674   6.695   6.107
 5163POPC   D2A65080  44.733   6.526   6.549
 5163POPC   C3A65081  44.862   6.582   6.972
 5163POPC   C4A65082  44.607   6.767   7.276
 5163POPC   C1B65083  44.661   6.168   6.192
 5163POPC   C2B65084  44.639   6.027   6.657
 5163POPC   C3B65085  44.587   6.149   7.115
 5163POPC   C4B65086  44.838   6.349   7.452
 5164POPC   NC365087  17.412   3.827   5.583
 5164POPC   PO465088  17.906   3.219   5.561
 5164POPC   GL165089  17.638   3.434   5.847
 5164POPC   GL265090  17.283   3.348   5.743
 5164POPC   C1A65091  17.568   3.650   6.249
 5164POPC   D2A65092  17.783   3.790   6.629
 5164POPC   C3A65093  17.809   3.636   7.050
 5164POPC   C4A65094  17.791   3.715   7.485
 5164POPC   C1B65095  17.076   3.558   6.098
 5164POPC   C2B65096  17.147   3.569   6.518
 5164POPC   C3B65097  17.311   3.586   6.928
 5164POPC   C4B65098  17.398   3.423   7.323
 5165POPC   NC365099  39.068  27.294   5.347
 5165POPC   PO465100  39.096  27.930   5.527
 5165POPC   GL165101  39.188  27.661   5.890
 5165POPC   GL265102  39.496  27.428   5.908
 5165POPC   C1A65103  39.104  27.541   6.323
 5165POPC   D2A65104  39.095  27.806   6.683
 5165POPC   C3A65105  38.930  27.686   7.003
 5165POPC   C4A65106  39.048  27.317   7.051
 5165POPC   C1B65107  39.634  27.763   6.160
 5165POPC   C2B65108  39.573  27.596   6.580
 5165POPC   C3B65109  39.469  27.643   7.004
 5165POPC   C4B65110  39.631  27.574   7.402
 5166POPC   NC365111   2.465  39.249   5.470
 5166POPC   PO465112   2.943  38.826   5.345
 5166POPC   GL165113   2.964  39.011   5.788
 5166POPC   GL265114   2.777  39.302   5.855
 5166POPC   C1A65115   2.896  39.066   6.280
 5166POPC   D2A65116   2.535  39.120   6.590
 5166POPC   C3A65117   2.628  39.099   7.042
 5166POPC   C4A65118   2.960  39.359   7.155
 5166POPC   C1B65119   2.717  39.549   6.215
 5166POPC   C2B65120   2.854  39.686   6.605
 5166POPC   C3B65121   2.508  39.571   6.834
 5166POPC   C4B65122   2.402  39.547   7.218
 5167POPC   NC365123  34.323  15.847   5.512
 5167POPC   PO465124  34.831  16.257   5.371
 5167POPC   GL165125  34.805  16.060   5.799
 5167POPC   GL265126  34.709  15.721   5.901
 5167POPC   C1A65127  34.712  16.162   6.234
 5167POPC   D2A65128  34.932  16.059   6.602
 5167POPC   C3A65129  34.734  16.214   6.968
 5167POPC   C4A65130  34.608  15.931   7.266
 5167POPC   C1B65131  34.666  15.660   6.361
 5167POPC   C2B65132  34.438  15.905   6.671
 5167POPC   C3B65133  34.198  15.754   7.009
 5167POPC   C4B65134  34.189  15.714   7.457
 5168POPC   NC365135   4.591  25.750   5.428
 5168POPC   PO465136   3.947  25.644   5.302
 5168POPC   GL165137   4.198  25.583   5.716
 5168POPC   GL265138   4.474  25.330   5.729
 5168POPC   C1A65139   4.419  25.602   6.150
 5168POPC   D2A65140   4.494  25.544   6.625
 5168POPC   C3A65141   4.164  25.273   6.825
 5168POPC   C4A65142   3.994  24.996   7.142
 5168POPC   C1B65143   4.682  25.147   6.125
 5168POPC   C2B65144   4.541  24.973   6.554
 5168POPC   C3B65145   4.514  24.939   7.022
 5168POPC   C4B65146   4.514  25.383   7.165
 5169POPC   NC365147  37.934   3.699   5.405
 5169POPC   PO465148  37.528   3.129   5.422
 5169POPC   GL165149  37.478   3.405   5.784
 5169POPC   GL265150  37.567   3.755   5.795
 5169POPC   C1A65151  37.560   3.398   6.248
 5169POPC   D2A65152  37.731   3.649   6.614
 5169POPC   C3A65153  37.838   3.523   7.031
 5169POPC   C4A65154  37.646   3.497   7.431
 5169POPC   C1B65155  37.584   3.940   6.203
 5169POPC   C2B65156  37.347   4.027   6.589
 5169POPC   C3B65157  37.485   3.892   7.004
 5169POPC   C4B65158  37.652   3.989   7.401
 5170POPC   NC365159  22.608   5.751   5.131
 5170POPC   PO465160  23.318   5.712   5.329
 5170POPC   GL165161  23.103   5.775   5.737
 5170POPC   GL265162  22.780   5.664   5.694
 5170POPC   C1A65163  23.071   5.889   6.204
 5170POPC   D2A65164  22.915   5.732   6.619
 5170POPC   C3A65165  23.103   5.920   6.944
 5170POPC   C4A65166  23.243   5.845   7.358
 5170POPC   C1B65167  22.587   5.734   6.115
 5170POPC   C2B65168  22.550   6.039   6.456
 5170POPC   C3B65169  22.504   6.000   6.902
 5170POPC   C4B65170  22.722   5.809   7.258
 5171POPC   NC365171  14.584  31.789   5.507
 5171POPC   PO465172  14.193  31.283   5.392
 5171POPC   GL165173  14.394  31.368   5.745
 5171POPC   GL265174  14.165  31.670   5.791
 5171POPC   C1A65175  14.588  31.180   6.115
 5171POPC   D2A65176  14.429  31.135   6.529
 5171POPC   C3A65177  14.676  31.107   6.885
 5171POPC   C4A65178  14.509  31.212   7.291
 5171POPC   C1B65179  14.343  31.606   6.201
 5171POPC   C2B65180  14.352  31.665   6.605
 5171POPC   C3B65181  14.215  31.446   6.947
 5171POPC   C4B65182  14.325  31.725   7.258
 5172POPC   NC365183  13.457   2.977   5.269
 5172POPC   PO465184  13.743   2.393   5.366
 5172POPC   GL165185  13.684   2.642   5.732
 5172POPC   GL265186  13.984   2.739   5.904
 5172POPC   C1A65187  13.613   2.559   6.199
 5172POPC   D2A65188  13.484   2.721   6.611
 5172POPC   C3A65189  13.544   2.517   6.994
 5172POPC   C4A65190  13.498   2.646   7.365
 5172POPC   C1B65191  14.114   2.623   6.347
 5172POPC   C2B65192  13.993   2.550   6.780
 5172POPC   C3B65193  13.939   2.814   7.149
 5172POPC   C4B65194  14.297   2.944   7.400
 5173POPC   NC365195  18.034  29.155   5.312
 5173POPC   PO465196  17.305  29.189   5.452
 5173POPC   GL165197  17.368  29.141   5.890
 5173POPC   GL265198  17.686  29.186   5.836
 5173POPC   C1A65199  17.391  28.931   6.298
 5173POPC   D2A65200  17.364  29.205   6.603
 5173POPC   C3A65201  17.131  29.224   6.953
 5173POPC   C4A65202  17.445  29.113   7.239
 5173POPC   C1B65203  17.794  29.243   6.276
 5173POPC   C2B65204  17.852  29.098   6.697
 5173POPC   C3B65205  17.872  28.863   7.086
 5173POPC   C4B65206  17.800  28.953   7.554
 5174POPC   NC365207  28.198   7.583   5.482
 5174POPC   PO465208  28.826   7.307   5.643
 5174POPC   GL165209  28.501   7.492   5.871
 5174POPC   GL265210  28.236   7.259   5.953
 5174POPC   C1A65211  28.263   7.711   6.193
 5174POPC   D2A65212  28.062   7.453   6.525
 5174POPC   C3A65213  28.227   7.519   6.911
 5174POPC   C4A65214  28.520   7.479   7.199
 5174POPC   C1B65215  28.535   7.294   6.337
 5174POPC   C2B65216  28.450   7.081   6.706
 5174POPC   C3B65217  28.350   7.021   7.115
 5174POPC   C4B65218  28.370   7.068   7.558
 5175POPC   NC365219  24.705  38.527   5.347
 5175POPC   PO465220  24.108  38.296   5.652
 5175POPC   GL165221  24.400  38.424   5.943
 5175POPC   GL265222  24.725  38.273   5.836
 5175POPC   C1A65223  24.360  38.483   6.391
 5175POPC   D2A65224  24.593  38.666   6.747
 5175POPC   C3A65225  24.405  38.599   7.187
 5175POPC   C4A65226  24.471  38.320   7.558
 5175POPC   C1B65227  24.847  38.503   6.226
 5175POPC   C2B65228  24.936  38.292   6.622
 5175POPC   C3B65229  24.873  38.314   7.052
 5175POPC   C4B65230  24.906  38.730   7.211
 5176POPC   NC365231   3.777  21.021   5.546
 5176POPC   PO465232   3.316  20.439   5.525
 5176POPC   GL165233   3.606  20.625   5.826
 5176POPC   GL265234   3.427  20.920   5.924
 5176POPC   C1A65235   3.818  20.743   6.221
 5176POPC   D2A65236   3.707  20.566   6.609
 5176POPC   C3A65237   3.741  20.772   6.971
 5176POPC   C4A65238   3.662  20.563   7.325
 5176POPC   C1B65239   3.302  20.647   6.275
 5176POPC   C2B65240   3.160  20.712   6.700
 5176POPC   C3B65241   3.241  20.825   7.139
 5176POPC   C4B65242   3.296  20.838   7.587
 5177POPC   NC365243  18.162  24.847   5.093
 5177POPC   PO465244  18.352  25.016   5.743
 5177POPC   GL165245  18.192  25.252   6.051
 5177POPC   GL265246  17.830  25.185   5.947
 5177POPC   C1A65247  18.560  25.422   6.297
 5177POPC   D2A65248  18.717  25.317   6.698
 5177POPC   C3A65249  18.329  25.314   6.910
 5177POPC   C4A65250  18.170  25.296   7.326
 5177POPC   C1B65251  17.710  25.465   6.259
 5177POPC   C2B65252  17.836  25.402   6.691
 5177POPC   C3B65253  17.956  24.982   6.858
 5177POPC   C4B65254  17.891  24.846   7.274
 5178POPC   NC365255   0.699  12.051   5.387
 5178POPC   PO465256   0.461  12.654   5.413
 5178POPC   GL165257   0.442  12.358   5.807
 5178POPC   GL265258   0.273  12.001   5.809
 5178POPC   C1A65259   0.507  12.185   6.247
 5178POPC   D2A65260   0.419  12.351   6.677
 5178POPC   C3A65261   0.502  12.020   6.989
 5178POPC   C4A65262   0.614  11.623   7.220
 5178POPC   C1B65263   0.035  11.793   6.153
 5178POPC   C2B65264   0.168  11.884   6.579
 5178POPC   C3B65265   0.005  11.940   6.989
 5178POPC   C4B65266   0.183  11.831   7.394
 5179POPC   NC365267  13.945  36.186   5.489
 5179POPC   PO465268  13.308  36.492   5.434
 5179POPC   GL165269  13.513  36.259   5.770
 5179POPC   GL265270  13.433  36.455   5.993
 5179POPC   C1A65271  13.587  36.014   6.178
 5179POPC   D2A65272  13.662  36.114   6.626
 5179POPC   C3A65273  13.616  35.757   6.906
 5179POPC   C4A65274  13.384  35.718   7.277
 5179POPC   C1B65275  13.840  36.473   6.223
 5179POPC   C2B65276  14.082  36.426   6.641
 5179POPC   C3B65277  14.007  36.288   7.063
 5179POPC   C4B65278  13.616  36.171   7.248
 5180POPC   NC365279  24.634  21.800   5.397
 5180POPC   PO465280  24.803  21.192   5.540
 5180POPC   GL165281  24.619  21.474   5.854
 5180POPC   GL265282  24.277  21.615   5.774
 5180POPC   C1A65283  24.417  21.361   6.250
 5180POPC   D2A65284  24.600  21.443   6.639
 5180POPC   C3A65285  24.410  21.332   6.964
 5180POPC   C4A65286  24.468  21.272   7.368
 5180POPC   C1B65287  24.257  21.834   6.175
 5180POPC   C2B65288  24.120  21.675   6.577
 5180POPC   C3B65289  24.108  21.717   7.005
 5180POPC   C4B65290  24.165  21.752   7.420
 5181POPC   NC365291  13.468  19.564   5.369
 5181POPC   PO465292  13.707  20.238   5.436
 5181POPC   GL165293  13.762  20.009   5.828
 5181POPC   GL265294  13.751  19.667   5.793
 5181POPC   C1A65295  13.610  19.909   6.292
 5181POPC   D2A65296  13.691  19.806   6.753
 5181POPC   C3A65297  13.501  20.042   7.118
 5181POPC   C4A65298  13.420  19.894   7.586
 5181POPC   C1B65299  13.925  19.520   6.194
 5181POPC   C2B65300  14.133  19.542   6.589
 5181POPC   C3B65301  13.974  19.425   6.993
 5181POPC   C4B65302  13.820  19.697   7.298
 5182POPC   NC365303  22.497  14.996   5.417
 5182POPC   PO465304  21.877  14.803   5.298
 5182POPC   GL165305  22.081  14.962   5.776
 5182POPC   GL265306  22.458  15.004   5.919
 5182POPC   C1A65307  21.940  15.260   6.133
 5182POPC   D2A65308  22.048  15.380   6.576
 5182POPC   C3A65309  21.789  15.466   6.931
 5182POPC   C4A65310  22.023  15.370   7.310
 5182POPC   C1B65311  22.356  15.040   6.329
 5182POPC   C2B65312  22.058  14.848   6.574
 5182POPC   C3B65313  22.015  14.979   6.982
 5182POPC   C4B65314  22.311  14.915   7.289
 5183POPC   NC365315  22.459  16.037   5.424
 5183POPC   PO465316  21.986  15.610   5.418
 5183POPC   GL165317  22.209  15.685   5.784
 5183POPC   GL265318  22.089  16.010   5.845
 5183POPC   C1A65319  22.329  15.665   6.219
 5183POPC   D2A65320  22.161  15.887   6.572
 5183POPC   C3A65321  22.222  15.748   7.008
 5183POPC   C4A65322  21.895  15.874   7.302
 5183POPC   C1B65323  22.353  16.204   6.159
 5183POPC   C2B65324  22.260  16.393   6.547
 5183POPC   C3B65325  22.140  16.246   6.951
 5183POPC   C4B65326  22.345  16.208   7.326
 5184POPC   NC365327  16.283  32.508   5.627
 5184POPC   PO465328  15.863  33.009   5.351
 5184POPC   GL165329  15.881  32.829   5.784
 5184POPC   GL265330  15.514  32.756   5.817
 5184POPC   C1A65331  16.142  32.977   6.186
 5184POPC   D2A65332  16.380  33.104   6.575
 5184POPC   C3A65333  16.189  32.970   6.933
 5184POPC   C4A65334  16.077  33.141   7.290
 5184POPC   C1B65335  15.622  33.025   6.191
 5184POPC   C2B65336  15.770  32.971   6.644
 5184POPC   C3B65337  15.619  32.986   7.098
 5184POPC   C4B65338  15.710  32.871   7.560
 5185POPC   NC365339  21.968  33.433   5.418
 5185POPC   PO465340  22.207  34.090   5.375
 5185POPC   GL165341  22.054  33.845   5.723
 5185POPC   GL265342  22.346  33.955   5.929
 5185POPC   C1A65343  22.000  33.711   6.167
 5185POPC   D2A65344  22.199  34.021   6.466
 5185POPC   C3A65345  22.297  33.821   6.850
 5185POPC   C4A65346  22.115  33.626   7.217
 5185POPC   C1B65347  22.498  33.630   6.280
 5185POPC   C2B65348  22.478  33.347   6.635
 5185POPC   C3B65349  22.584  33.420   7.030
 5185POPC   C4B65350  22.633  33.767   7.267
 5186POPC   NC365351  19.573  12.212   5.573
 5186POPC   PO465352  20.096  11.877   5.520
 5186POPC   GL165353  19.896  12.008   5.914
 5186POPC   GL265354  19.724  12.350   6.016
 5186POPC   C1A65355  19.999  11.798   6.289
 5186POPC   D2A65356  19.837  11.804   6.700
 5186POPC   C3A65357  20.048  11.843   7.084
 5186POPC   C4A65358  19.868  11.951   7.460
 5186POPC   C1B65359  19.684  12.218   6.427
 5186POPC   C2B65360  19.432  12.118   6.799
 5186POPC   C3B65361  19.513  12.228   7.239
 5186POPC   C4B65362  19.465  12.211   7.765
 5187POPC   NC365363  35.800  18.310   5.364
 5187POPC   PO465364  36.468  18.290   5.336
 5187POPC   GL165365  36.197  18.051   5.667
 5187POPC   GL265366  35.839  18.093   5.825
 5187POPC   C1A65367  36.252  17.992   6.111
 5187POPC   D2A65368  36.358  18.237   6.468
 5187POPC   C3A65369  36.194  18.014   6.802
 5187POPC   C4A65370  36.340  17.889   7.193
 5187POPC   C1B65371  35.864  18.355   6.193
 5187POPC   C2B65372  35.774  18.471   6.626
 5187POPC   C3B65373  35.951  18.389   7.052
 5187POPC   C4B65374  35.939  18.610   7.432
 5188POPC   NC365375  13.859  14.322   5.315
 5188POPC   PO465376  13.256  14.259   5.224
 5188POPC   GL165377  13.517  14.268   5.701
 5188POPC   GL265378  13.739  14.583   5.757
 5188POPC   C1A65379  13.441  14.450   6.161
 5188POPC   D2A65380  13.580  14.586   6.591
 5188POPC   C3A65381  13.442  14.371   6.969
 5188POPC   C4A65382  13.558  13.990   7.199
 5188POPC   C1B65383  13.957  14.754   6.155
 5188POPC   C2B65384  14.098  14.665   6.589
 5188POPC   C3B65385  13.945  14.515   6.981
 5188POPC   C4B65386  13.770  14.489   7.381
 5189POPC   NC365387  33.442  17.222   5.070
 5189POPC   PO465388  33.653  17.692   5.496
 5189POPC   GL165389  33.783  17.747   5.919
 5189POPC   GL265390  33.591  17.485   6.005
 5189POPC   C1A65391  34.013  17.672   6.334
 5189POPC   D2A65392  34.018  17.441   6.747
 5189POPC   C3A65393  33.851  17.711   7.075
 5189POPC   C4A65394  33.502  18.040   7.128
 5189POPC   C1B65395  33.556  17.465   6.419
 5189POPC   C2B65396  33.559  17.165   6.720
 5189POPC   C3B65397  33.519  17.279   7.108
 5189POPC   C4B65398  33.524  17.086   7.503
 5190POPC   NC365399  17.432  25.929   5.213
 5190POPC   PO465400  17.957  26.433   5.149
 5190POPC   GL165401  17.721  26.266   5.603
 5190POPC   GL265402  17.489  25.971   5.711
 5190POPC   C1A65403  17.639  26.277   6.111
 5190POPC   D2A65404  17.746  26.347   6.591
 5190POPC   C3A65405  17.706  26.079   6.989
 5190POPC   C4A65406  17.624  26.257   7.418
 5190POPC   C1B65407  17.356  25.844   6.115
 5190POPC   C2B65408  17.312  26.068   6.507
 5190POPC   C3B65409  17.190  25.926   6.896
 5190POPC   C4B65410  17.311  25.867   7.302
 5191POPC   NC365411   7.893   9.845   5.513
 5191POPC   PO465412   8.501   9.808   5.229
 5191POPC   GL165413   8.378   9.849   5.703
 5191POPC   GL265414   8.180   9.536   5.795
 5191POPC   C1A65415   8.487   9.682   6.153
 5191POPC   D2A65416   8.367   9.526   6.563
 5191POPC   C3A65417   8.476   9.891   6.814
 5191POPC   C4A65418   8.446  10.060   7.200
 5191POPC   C1B65419   7.976   9.740   6.181
 5191POPC   C2B65420   8.001   9.926   6.606
 5191POPC   C3B65421   7.990   9.855   7.041
 5191POPC   C4B65422   7.710  10.071   7.313
 5192POPC   NC365423   0.109   4.638   5.046
 5192POPC   PO465424   0.607   4.621   5.501
 5192POPC   GL165425   0.484   4.365   5.835
 5192POPC   GL265426   0.207   4.156   5.777
 5192POPC   C1A65427   0.427   4.452   6.235
 5192POPC   D2A65428   0.619   4.286   6.566
 5192POPC   C3A65429   0.454   4.451   6.903
 5192POPC   C4A65430   0.524   4.368   7.296
 5192POPC   C1B65431  44.995   4.215   6.175
 5192POPC   C2B65432   0.043   4.379   6.619
 5192POPC   C3B65433   0.023   4.262   7.100
 5192POPC   C4B65434  44.931   4.395   7.557
 5193POPC   NC365435  23.153   3.730   5.634
 5193POPC   PO465436  22.756   3.205   5.455
 5193POPC   GL165437  22.730   3.477   5.850
 5193POPC   GL265438  22.679   3.841   5.815
 5193POPC   C1A65439  22.833   3.527   6.317
 5193POPC   D2A65440  23.058   3.351   6.687
 5193POPC   C3A65441  22.921   3.509   7.082
 5193POPC   C4A65442  22.836   3.606   7.489
 5193POPC   C1B65443  23.006   3.983   6.181
 5193POPC   C2B65444  23.195   3.929   6.612
 5193POPC   C3B65445  23.054   4.000   7.053
 5193POPC   C4B65446  22.995   4.075   7.563
 5194POPC   NC365447  13.814  18.708   5.525
 5194POPC   PO465448  13.918  19.406   5.334
 5194POPC   GL165449  13.658  19.173   5.657
 5194POPC   GL265450  13.281  19.199   5.729
 5194POPC   C1A65451  13.624  19.117   6.111
 5194POPC   D2A65452  13.611  19.303   6.549
 5194POPC   C3A65453  13.742  18.989   6.850
 5194POPC   C4A65454  13.780  18.814   7.263
 5194POPC   C1B65455  13.120  19.066   6.168
 5194POPC   C2B65456  13.171  18.987   6.609
 5194POPC   C3B65457  13.258  18.892   7.060
 5194POPC   C4B65458  13.376  18.492   7.264
 5195POPC   NC365459  15.135  37.558   5.463
 5195POPC   PO465460  15.450  38.156   5.682
 5195POPC   GL165461  15.166  37.894   5.891
 5195POPC   GL265462  15.182  37.548   5.973
 5195POPC   C1A65463  15.117  37.928   6.315
 5195POPC   D2A65464  14.924  37.836   6.696
 5195POPC   C3A65465  15.197  37.956   7.034
 5195POPC   C4A65466  15.245  37.920   7.482
 5195POPC   C1B65467  15.161  37.428   6.441
 5195POPC   C2B65468  15.320  37.298   6.843
 5195POPC   C3B65469  15.232  37.458   7.240
 5195POPC   C4B65470  14.928  37.523   7.557
 5196POPC   NC365471  13.992  22.448   5.735
 5196POPC   PO465472  14.506  22.356   5.348
 5196POPC   GL165473  14.399  22.082   5.747
 5196POPC   GL265474  14.097  21.977   5.923
 5196POPC   C1A65475  14.639  21.972   6.152
 5196POPC   D2A65476  14.648  22.269   6.502
 5196POPC   C3A65477  14.688  22.149   6.929
 5196POPC   C4A65478  14.445  22.341   7.203
 5196POPC   C1B65479  14.184  22.093   6.347
 5196POPC   C2B65480  14.182  22.241   6.763
 5196POPC   C3B65481  13.971  22.467   7.094
 5196POPC   C4B65482  14.009  22.078   7.313
 5197POPC   NC365483  25.907  34.434   5.395
 5197POPC   PO465484  26.423  34.841   5.468
 5197POPC   GL165485  26.247  34.509   5.770
 5197POPC   GL265486  25.921  34.604   5.866
 5197POPC   C1A65487  26.187  34.311   6.197
 5197POPC   D2A65488  25.900  34.275   6.536
 5197POPC   C3A65489  26.085  34.292   6.959
 5197POPC   C4A65490  25.910  34.516   7.287
 5197POPC   C1B65491  25.935  34.836   6.212
 5197POPC   C2B65492  26.099  35.075   6.532
 5197POPC   C3B65493  25.944  34.886   6.906
 5197POPC   C4B65494  26.034  35.021   7.298
 5198POPC   NC365495   5.440  40.330   5.202
 5198POPC   PO465496   5.652  39.704   5.363
 5198POPC   GL165497   5.896  39.701   5.769
 5198POPC   GL265498   5.673  39.490   5.851
 5198POPC   C1A65499   5.983  39.961   6.185
 5198POPC   D2A65500   6.055  40.301   6.547
 5198POPC   C3A65501   5.956  40.262   7.029
 5198POPC   C4A65502   6.154  40.025   7.407
 5198POPC   C1B65503   5.487  39.798   6.076
 5198POPC   C2B65504   5.486  39.808   6.506
 5198POPC   C3B65505   5.726  39.835   6.873
 5198POPC   C4B65506   5.710  39.744   7.311
 5199POPC   NC365507  27.216   9.106   5.587
 5199POPC   PO465508  27.767   8.694   5.493
 5199POPC   GL165509  27.773   8.920   5.874
 5199POPC   GL265510  27.466   9.099   6.033
 5199POPC   C1A65511  27.792   8.774   6.281
 5199POPC   D2A65512  27.569   8.907   6.610
 5199POPC   C3A65513  27.617   8.740   6.998
 5199POPC   C4A65514  27.437   9.000   7.270
 5199POPC   C1B65515  27.785   9.289   6.291
 5199POPC   C2B65516  28.012   9.264   6.687
 5199POPC   C3B65517  27.888   9.198   7.117
 5199POPC   C4B65518  27.804   9.206   7.592
 5200POPC   NC365519   1.695  13.814   5.503
 5200POPC   PO465520   1.081  13.439   5.426
 5200POPC   GL165521   1.052  13.437   5.848
 5200POPC   GL265522   1.337  13.658   5.907
 5200POPC   C1A65523   0.926  13.561   6.252
 5200POPC   D2A65524   1.227  13.690   6.539
 5200POPC   C3A65525   1.275  13.373   6.823
 5200POPC   C4A65526   0.961  13.370   7.131
 5200POPC   C1B65527   1.625  13.813   6.244
 5200POPC   C2B65528   1.714  13.693   6.694
 5200POPC   C3B65529   1.765  13.910   7.117
 5200POPC   C4B65530   1.609  13.860   7.521
 5201POPC   NC365531  29.782  41.281   5.433
 5201POPC   PO465532  29.937  41.888   5.661
 5201POPC   GL165533  30.024  41.536   5.831
 5201POPC   GL265534  29.659  41.472   5.885
 5201POPC   C1A65535  30.191  41.496   6.229
 5201POPC   D2A65536  30.178  41.769   6.573
 5201POPC   C3A65537  30.290  41.571   6.949
 5201POPC   C4A65538  30.062  41.401   7.274
 5201POPC   C1B65539  29.738  41.268   6.266
 5201POPC   C2B65540  29.853  41.354   6.705
 5201POPC   C3B65541  29.600  41.203   7.026
 5201POPC   C4B65542  29.557  41.383   7.430
 5202POPC   NC365543  28.086  44.549   5.654
 5202POPC   PO465544  28.632  44.687   5.113
 5202POPC   GL165545  28.538  44.758   5.646
 5202POPC   GL265546  28.772  44.524   5.870
 5202POPC   C1A65547  28.522  44.916   6.092
 5202POPC   D2A65548  28.276  44.904   6.496
 5202POPC   C3A65549  28.514  44.909   6.892
 5202POPC   C4A65550  28.484  44.747   7.310
 5202POPC   C1B65551  28.513  44.423   6.251
 5202POPC   C2B65552  28.311  44.290   6.631
 5202POPC   C3B65553  28.203  44.327   7.069
 5202POPC   C4B65554  28.439  44.269   7.441
 5203POPC   NC365555   5.701  28.967   5.334
 5203POPC   PO465556   6.053  29.526   5.551
 5203POPC   GL165557   5.829  29.233   5.769
 5203POPC   GL265558   6.034  28.935   5.737
 5203POPC   C1A65559   5.684  29.329   6.182
 5203POPC   D2A65560   5.745  29.471   6.606
 5203POPC   C3A65561   5.574  29.257   6.975
 5203POPC   C4A65562   5.801  29.216   7.379
 5203POPC   C1B65563   5.822  28.821   6.118
 5203POPC   C2B65564   5.671  28.940   6.553
 5203POPC   C3B65565   5.936  28.877   6.951
 5203POPC   C4B65566   6.121  28.830   7.377
 5204POPC   NC365567   2.504   7.920   5.501
 5204POPC   PO465568   2.890   8.408   5.343
 5204POPC   GL165569   2.663   8.363   5.746
 5204POPC   GL265570   2.952   8.207   5.828
 5204POPC   C1A65571   2.683   8.344   6.239
 5204POPC   D2A65572   2.890   8.069   6.578
 5204POPC   C3A65573   2.734   7.993   7.008
 5204POPC   C4A65574   2.767   8.118   7.456
 5204POPC   C1B65575   3.205   8.201   6.186
 5204POPC   C2B65576   3.317   8.345   6.594
 5204POPC   C3B65577   3.036   8.436   6.932
 5204POPC   C4B65578   3.204   8.367   7.302
 5205POPC   NC365579  10.733   6.818   5.245
 5205POPC   PO465580  11.012   7.088   5.700
 5205POPC   GL165581  10.744   6.781   5.871
 5205POPC   GL265582  10.403   6.794   5.817
 5205POPC   C1A65583  10.704   6.634   6.293
 5205POPC   D2A65584  10.630   6.878   6.664
 5205POPC   C3A65585  10.521   6.643   7.014
 5205POPC   C4A65586  10.721   6.308   7.198
 5205POPC   C1B65587  10.223   6.813   6.265
 5205POPC   C2B65588  10.178   6.592   6.633
 5205POPC   C3B65589  10.093   6.398   7.029
 5205POPC   C4B65590  10.258   6.431   7.415
 5206POPC   NC365591  18.548   0.467   5.520
 5206POPC   PO465592  17.948   0.498   5.243
 5206POPC   GL165593  18.033   0.511   5.695
 5206POPC   GL265594  18.166   0.819   5.834
 5206POPC   C1A65595  18.207   0.387   6.118
 5206POPC   D2A65596  18.461   0.406   6.515
 5206POPC   C3A65597  18.289   0.322   6.959
 5206POPC   C4A65598  18.246   0.224   7.430
 5206POPC   C1B65599  18.302   0.869   6.297
 5206POPC   C2B65600  18.298   0.834   6.764
 5206POPC   C3B65601  18.355   0.748   7.213
 5206POPC   C4B65602  18.158   0.696   7.604
 5207POPC   NC365603  40.210  35.891   5.513
 5207POPC   PO465604  39.774  36.374   5.461
 5207POPC   GL165605  39.943  36.252   5.862
 5207POPC   GL265606  39.906  35.885   5.908
 5207POPC   C1A65607  40.096  36.154   6.295
 5207POPC   D2A65608  39.882  36.012   6.648
 5207POPC   C3A65609  39.858  36.323   6.930
 5207POPC   C4A65610  39.598  36.416   7.278
 5207POPC   C1B65611  40.289  35.709   6.152
 5207POPC   C2B65612  40.278  35.718   6.620
 5207POPC   C3B65613  40.243  35.965   7.034
 5207POPC   C4B65614  39.989  36.003   7.373
 5208POPC   NC365615  13.024  18.098   5.427
 5208POPC   PO465616  13.338  18.694   5.540
 5208POPC   GL165617  13.144  18.416   5.867
 5208POPC   GL265618  12.941  18.095   5.924
 5208POPC   C1A65619  12.984  18.543   6.285
 5208POPC   D2A65620  13.079  18.512   6.750
 5208POPC   C3A65621  12.876  18.405   7.125
 5208POPC   C4A65622  13.099  18.041   7.312
 5208POPC   C1B65623  12.668  18.136   6.281
 5208POPC   C2B65624  12.483  18.213   6.681
 5208POPC   C3B65625  12.575  17.987   7.027
 5208POPC   C4B65626  12.713  17.698   7.297
 5209POPC   NC365627   8.289   0.059   5.167
 5209POPC   PO465628   8.129   0.637   5.146
 5209POPC   GL165629   8.106   0.697   5.643
 5209POPC   GL265630   8.066   0.365   5.786
 5209POPC   C1A65631   8.202   0.745   6.111
 5209POPC   D2A65632   8.134   0.510   6.500
 5209POPC   C3A65633   8.269   0.679   6.894
 5209POPC   C4A65634   8.113   0.625   7.298
 5209POPC   C1B65635   7.863   0.166   6.153
 5209POPC   C2B65636   7.694   0.180   6.574
 5209POPC   C3B65637   7.859   0.209   6.987
 5209POPC   C4B65638   7.665  44.939   7.243
 5210POPC   NC365639  13.810  23.973   5.647
 5210POPC   PO465640  14.177  23.591   5.252
 5210POPC   GL165641  14.338  23.568   5.738
 5210POPC   GL265642  14.255  23.913   5.895
 5210POPC   C1A65643  14.582  23.652   6.166
 5210POPC   D2A65644  14.506  23.563   6.624
 5210POPC   C3A65645  14.339  23.765   6.994
 5210POPC   C4A65646  14.561  23.668   7.387
 5210POPC   C1B65647  13.980  24.115   6.247
 5210POPC   C2B65648  13.912  23.990   6.679
 5210POPC   C3B65649  13.966  24.099   7.124
 5210POPC   C4B65650  14.120  23.913   7.484
 5211POPC   NC365651   8.573  15.254   5.427
 5211POPC   PO465652   9.189  14.996   5.485
 5211POPC   GL165653   8.926  15.217   5.789
 5211POPC   GL265654   8.630  14.985   5.858
 5211POPC   C1A65655   8.991  15.526   6.118
 5211POPC   D2A65656   9.245  15.402   6.435
 5211POPC   C3A65657   9.137  15.464   6.845
 5211POPC   C4A65658   9.461  15.498   7.169
 5211POPC   C1B65659   8.759  15.094   6.285
 5211POPC   C2B65660   9.058  14.918   6.590
 5211POPC   C3B65661   9.140  14.990   7.031
 5211POPC   C4B65662   9.211  14.770   7.386
 5212POPC   NC365663  27.217  12.539   5.406
 5212POPC   PO465664  26.947  11.940   5.408
 5212POPC   GL165665  26.836  11.878   5.830
 5212POPC   GL265666  26.450  11.935   5.843
 5212POPC   C1A65667  27.137  12.047   6.165
 5212POPC   D2A65668  27.236  12.294   6.576
 5212POPC   C3A65669  26.939  12.334   6.953
 5212POPC   C4A65670  26.849  12.583   7.363
 5212POPC   C1B65671  26.633  12.142   6.204
 5212POPC   C2B65672  26.839  11.947   6.575
 5212POPC   C3B65673  26.799  11.813   6.998
 5212POPC   C4B65674  26.581  11.883   7.414
 5213POPC   NC365675  32.902  31.817   5.620
 5213POPC   PO465676  32.995  32.494   5.406
 5213POPC   GL165677  33.025  32.316   5.761
 5213POPC   GL265678  33.083  32.606   5.950
 5213POPC   C1A65679  33.282  32.164   6.080
 5213POPC   D2A65680  33.068  32.091   6.423
 5213POPC   C3A65681  33.006  32.347   6.775
 5213POPC   C4A65682  33.193  32.197   7.146
 5213POPC   C1B65683  32.714  32.485   6.154
 5213POPC   C2B65684  32.510  32.372   6.532
 5213POPC   C3B65685  32.541  32.592   6.863
 5213POPC   C4B65686  32.802  32.569   7.218
 5214POPC   NC365687   2.539  13.749   5.480
 5214POPC   PO465688   2.889  13.211   5.545
 5214POPC   GL165689   2.761  13.484   5.891
 5214POPC   GL265690   2.871  13.833   5.858
 5214POPC   C1A65691   2.503  13.481   6.281
 5214POPC   D2A65692   2.478  13.771   6.660
 5214POPC   C3A65693   2.580  13.579   7.046
 5214POPC   C4A65694   2.990  13.531   7.131
 5214POPC   C1B65695   2.867  13.830   6.294
 5214POPC   C2B65696   2.863  14.159   6.585
 5214POPC   C3B65697   2.815  14.063   7.011
 5214POPC   C4B65698   2.716  13.980   7.406
 5215POPC   NC365699   4.763  16.494   5.459
 5215POPC   PO465700   4.425  17.017   5.553
 5215POPC   GL165701   4.414  16.646   5.796
 5215POPC   GL265702   4.085  16.515   5.845
 5215POPC   C1A65703   4.582  16.638   6.197
 5215POPC   D2A65704   4.473  16.942   6.516
 5215POPC   C3A65705   4.478  16.760   6.918
 5215POPC   C4A65706   4.456  16.920   7.336
 5215POPC   C1B65707   4.090  16.829   6.196
 5215POPC   C2B65708   3.942  16.860   6.629
 5215POPC   C3B65709   4.003  16.746   7.069
 5215POPC   C4B65710   4.005  16.600   7.500
 5216POPC   NC365711  20.159  27.100   5.366
 5216POPC   PO465712  20.693  26.819   5.519
 5216POPC   GL165713  20.691  26.744   5.900
 5216POPC   GL265714  20.744  27.132   5.962
 5216POPC   C1A65715  20.663  26.750   6.324
 5216POPC   D2A65716  20.834  27.076   6.553
 5216POPC   C3A65717  20.707  26.993   6.955
 5216POPC   C4A65718  20.765  26.657   7.204
 5216POPC   C1B65719  20.326  27.069   6.090
 5216POPC   C2B65720  20.216  26.950   6.504
 5216POPC   C3B65721  20.116  27.059   6.919
 5216POPC   C4B65722  20.284  26.869   7.269
 5217POPC   NC365723  41.723  24.809   5.552
 5217POPC   PO465724  41.220  24.335   5.452
 5217POPC   GL165725  41.479  24.416   5.779
 5217POPC   GL265726  41.321  24.686   5.863
 5217POPC   C1A65727  41.634  24.333   6.190
 5217POPC   D2A65728  41.741  24.536   6.600
 5217POPC   C3A65729  41.530  24.421   6.947
 5217POPC   C4A65730  41.621  24.469   7.331
 5217POPC   C1B65731  41.549  24.821   6.242
 5217POPC   C2B65732  41.386  24.921   6.689
 5217POPC   C3B65733  41.396  24.882   7.162
 5217POPC   C4B65734  41.718  24.916   7.527
 5218POPC   NC365735  21.394  21.983   5.371
 5218POPC   PO465736  21.206  22.652   5.403
 5218POPC   GL165737  21.377  22.390   5.730
 5218POPC   GL265738  21.142  22.135   5.794
 5218POPC   C1A65739  21.588  22.138   6.055
 5218POPC   D2A65740  21.629  22.280   6.478
 5218POPC   C3A65741  21.526  22.268   6.901
 5218POPC   C4A65742  21.533  22.385   7.350
 5218POPC   C1B65743  21.129  22.307   6.216
 5218POPC   C2B65744  21.119  22.100   6.623
 5218POPC   C3B65745  21.037  22.248   7.051
 5218POPC   C4B65746  21.097  22.208   7.501
 5219POPC   NC365747  37.461   0.479   5.687
 5219POPC   PO465748  37.860   0.926   5.349
 5219POPC   GL165749  37.955   0.721   5.788
 5219POPC   GL265750  37.726   0.814   6.005
 5219POPC   C1A65751  37.947   0.514   6.321
 5219POPC   D2A65752  37.808   0.576   6.720
 5219POPC   C3A65753  37.920   0.242   6.977
 5219POPC   C4A65754  37.717   0.352   7.343
 5219POPC   C1B65755  37.452   0.611   6.329
 5219POPC   C2B65756  37.405   0.218   6.522
 5219POPC   C3B65757  37.410   0.195   6.942
 5219POPC   C4B65758  37.215   0.310   7.302
 5220POPC   NC365759  31.244  31.240   5.702
 5220POPC   PO465760  31.535  31.780   5.427
 5220POPC   GL165761  31.640  31.596   5.815
 5220POPC   GL265762  31.324  31.643   5.999
 5220POPC   C1A65763  31.717  31.489   6.255
 5220POPC   D2A65764  31.442  31.627   6.583
 5220POPC   C3A65765  31.187  31.358   6.863
 5220POPC   C4A65766  31.306  31.090   7.250
 5220POPC   C1B65767  31.629  31.998   6.129
 5220POPC   C2B65768  31.756  32.118   6.529
 5220POPC   C3B65769  31.784  31.869   6.893
 5220POPC   C4B65770  31.630  31.479   7.089
 5221POPC   NC365771  37.913   2.863   5.411
 5221POPC   PO465772  37.422   2.313   5.378
 5221POPC   GL165773  37.645   2.571   5.745
 5221POPC   GL265774  37.699   2.954   5.887
 5221POPC   C1A65775  37.826   2.562   6.167
 5221POPC   D2A65776  37.664   2.768   6.499
 5221POPC   C3A65777  37.698   2.692   6.902
 5221POPC   C4A65778  37.610   3.007   7.245
 5221POPC   C1B65779  37.971   3.104   6.277
 5221POPC   C2B65780  37.990   3.117   6.756
 5221POPC   C3B65781  38.085   2.883   7.156
 5221POPC   C4B65782  38.051   2.417   7.172
 5222POPC   NC365783  37.995  16.710   5.576
 5222POPC   PO465784  38.581  16.504   5.339
 5222POPC   GL165785  38.531  16.640   5.756
 5222POPC   GL265786  38.484  17.005   5.726
 5222POPC   C1A65787  38.328  16.543   6.146
 5222POPC   D2A65788  38.386  16.683   6.556
 5222POPC   C3A65789  38.531  16.424   6.899
 5222POPC   C4A65790  38.304  16.561   7.279
 5222POPC   C1B65791  38.610  17.017   6.179
 5222POPC   C2B65792  38.731  17.059   6.615
 5222POPC   C3B65793  38.558  16.921   6.972
 5222POPC   C4B65794  38.564  17.026   7.353
 5223POPC   NC365795  34.479  42.099   5.479
 5223POPC   PO465796  34.646  41.459   5.257
 5223POPC   GL165797  34.679  41.405   5.699
 5223POPC   GL265798  34.404  41.608   5.827
 5223POPC   C1A65799  34.699  41.262   6.131
 5223POPC   D2A65800  34.669  41.484   6.538
 5223POPC   C3A65801  34.756  41.305   6.954
 5223POPC   C4A65802  34.905  41.523   7.349
 5223POPC   C1B65803  34.230  41.419   6.213
 5223POPC   C2B65804  34.166  41.508   6.617
 5223POPC   C3B65805  34.275  41.432   7.037
 5223POPC   C4B65806  34.404  41.504   7.476
 5224POPC   NC365807  18.661   6.735   5.556
 5224POPC   PO465808  18.210   6.364   5.364
 5224POPC   GL165809  18.222   6.507   5.790
 5224POPC   GL265810  18.098   6.842   5.772
 5224POPC   C1A65811  18.331   6.409   6.235
 5224POPC   D2A65812  18.199   6.578   6.656
 5224POPC   C3A65813  18.454   6.657   7.044
 5224POPC   C4A65814  18.383   6.538   7.486
 5224POPC   C1B65815  17.977   6.796   6.191
 5224POPC   C2B65816  17.949   7.021   6.576
 5224POPC   C3B65817  18.029   6.978   7.010
 5224POPC   C4B65818  17.708   6.813   7.274
 5225POPC   NC365819  31.144   8.739   4.997
 5225POPC   PO465820  31.493   9.078   5.478
 5225POPC   GL165821  31.417   9.056   5.897
 5225POPC   GL265822  31.462   8.695   5.896
 5225POPC   C1A65823  31.524   9.264   6.315
 5225POPC   D2A65824  31.200   9.429   6.587
 5225POPC   C3A65825  31.150   9.287   6.979
 5225POPC   C4A65826  31.443   9.144   7.284
 5225POPC   C1B65827  31.340   8.779   6.327
 5225POPC   C2B65828  31.400   8.868   6.772
 5225POPC   C3B65829  31.467   8.639   7.163
 5225POPC   C4B65830  31.652   8.732   7.587
 5226POPC   NC365831   3.859   7.514   5.365
 5226POPC   PO465832   3.198   7.618   5.368
 5226POPC   GL165833   3.501   7.417   5.732
 5226POPC   GL265834   3.788   7.599   5.874
 5226POPC   C1A65835   3.507   7.228   6.178
 5226POPC   D2A65836   3.655   7.222   6.645
 5226POPC   C3A65837   3.380   7.452   6.955
 5226POPC   C4A65838   3.065   7.622   7.278
 5226POPC   C1B65839   3.857   7.585   6.322
 5226POPC   C2B65840   3.874   7.743   6.755
 5226POPC   C3B65841   3.794   7.672   7.198
 5226POPC   C4B65842   3.753   7.529   7.648
 5227POPC   NC365843  35.548   1.528   5.398
 5227POPC   PO465844  35.487   0.925   5.221
 5227POPC   GL165845  35.429   1.047   5.643
 5227POPC   GL265846  35.708   1.123   5.819
 5227POPC   C1A65847  35.281   1.006   6.088
 5227POPC   D2A65848  35.172   1.343   6.418
 5227POPC   C3A65849  35.290   1.317   6.854
 5227POPC   C4A65850  35.249   1.119   7.258
 5227POPC   C1B65851  35.630   1.365   6.189
 5227POPC   C2B65852  35.762   1.412   6.615
 5227POPC   C3B65853  35.753   1.240   7.040
 5227POPC   C4B65854  35.712   1.031   7.452
 5228POPC   NC365855  37.302  28.993   5.179
 5228POPC   PO465856  36.818  28.921   5.607
 5228POPC   GL165857  36.771  29.099   5.986
 5228POPC   GL265858  36.593  29.413   6.005
 5228POPC   C1A65859  36.557  29.025   6.367
 5228POPC   D2A65860  36.571  28.763   6.706
 5228POPC   C3A65861  36.918  28.894   6.989
 5228POPC   C4A65862  37.303  28.983   7.205
 5228POPC   C1B65863  36.976  29.471   6.246
 5228POPC   C2B65864  37.014  29.287   6.641
 5228POPC   C3B65865  36.999  29.412   7.049
 5228POPC   C4B65866  36.682  29.490   7.292
 5229POPC   NC365867   7.990  40.744   5.431
 5229POPC   PO465868   8.670  40.948   5.483
 5229POPC   GL165869   8.493  40.808   5.889
 5229POPC   GL265870   8.209  40.561   5.884
 5229POPC   C1A65871   8.182  41.014   6.193
 5229POPC   D2A65872   7.924  40.993   6.603
 5229POPC   C3A65873   8.162  40.795   6.969
 5229POPC   C4A65874   8.616  40.744   7.090
 5229POPC   C1B65875   8.073  40.518   6.325
 5229POPC   C2B65876   7.955  40.320   6.707
 5229POPC   C3B65877   7.908  40.374   7.137
 5229POPC   C4B65878   7.851  40.690   7.479
 5230POPC   NC365879   7.450  17.351   5.477
 5230POPC   PO465880   7.622  17.970   5.370
 5230POPC   GL165881   7.506  17.722   5.835
 5230POPC   GL265882   7.269  17.393   5.945
 5230POPC   C1A65883   7.704  17.465   6.209
 5230POPC   D2A65884   7.853  17.407   6.653
 5230POPC   C3A65885   7.657  17.675   7.006
 5230POPC   C4A65886   7.416  17.443   7.270
 5230POPC   C1B65887   7.213  17.606   6.344
 5230POPC   C2B65888   7.329  17.404   6.734
 5230POPC   C3B65889   7.178  17.073   7.014
 5230POPC   C4B65890   6.929  17.391   7.187
 5231POPC   NC365891  15.445  32.308   5.468
 5231POPC   PO465892  15.028  31.864   5.491
 5231POPC   GL165893  15.098  32.019   5.873
 5231POPC   GL265894  15.220  32.341   5.914
 5231POPC   C1A65895  14.988  32.120   6.290
 5231POPC   D2A65896  15.059  31.932   6.658
 5231POPC   C3A65897  15.121  32.181   7.012
 5231POPC   C4A65898  15.067  32.031   7.432
 5231POPC   C1B65899  15.480  32.456   6.274
 5231POPC   C2B65900  15.459  32.532   6.724
 5231POPC   C3B65901  15.491  32.501   7.185
 5231POPC   C4B65902  15.316  32.529   7.601
 5232POPC   NC365903  24.244  40.296   5.446
 5232POPC   PO465904  24.639  39.792   5.358
 5232POPC   GL165905  24.609  39.881   5.840
 5232POPC   GL265906  24.574  40.248   5.864
 5232POPC   C1A65907  24.791  40.032   6.274
 5232POPC   D2A65908  24.725  40.307   6.646
 5232POPC   C3A65909  24.657  40.046   7.014
 5232POPC   C4A65910  24.848  39.862   7.404
 5232POPC   C1B65911  24.329  40.327   6.248
 5232POPC   C2B65912  24.247  40.136   6.662
 5232POPC   C3B65913  24.190  40.311   7.056
 5232POPC   C4B65914  24.028  40.249   7.459
 5233POPC   NC365915   8.753   1.990   5.246
 5233POPC   PO465916   8.236   2.231   5.219
 5233POPC   GL165917   8.333   2.111   5.716
 5233POPC   GL265918   8.662   2.037   5.842
 5233POPC   C1A65919   8.220   1.861   6.126
 5233POPC   D2A65920   8.048   1.907   6.573
 5233POPC   C3A65921   8.108   1.683   6.984
 5233POPC   C4A65922   8.072   1.893   7.388
 5233POPC   C1B65923   8.438   2.365   6.149
 5233POPC   C2B65924   8.276   2.342   6.562
 5233POPC   C3B65925   8.331   2.167   6.969
 5233POPC   C4B65926   8.365   2.383   7.335
 5234POPC   NC365927  24.595  19.970   5.369
 5234POPC   PO465928  24.790  19.342   5.453
 5234POPC   GL165929  24.481  19.566   5.748
 5234POPC   GL265930  24.397  19.928   5.822
 5234POPC   C1A65931  24.391  19.568   6.210
 5234POPC   D2A65932  24.314  19.455   6.654
 5234POPC   C3A65933  24.489  19.462   7.061
 5234POPC   C4A65934  24.615  19.692   7.416
 5234POPC   C1B65935  24.343  20.174   6.164
 5234POPC   C2B65936  24.201  20.214   6.567
 5234POPC   C3B65937  24.329  20.063   6.953
 5234POPC   C4B65938  24.173  19.893   7.306
 5235POPC   NC365939  37.985   5.603   5.435
 5235POPC   PO465940  38.570   5.693   5.321
 5235POPC   GL165941  38.435   5.763   5.761
 5235POPC   GL265942  38.740   5.930   5.832
 5235POPC   C1A65943  38.265   5.753   6.218
 5235POPC   D2A65944  38.081   5.799   6.666
 5235POPC   C3A65945  38.355   5.860   7.051
 5235POPC   C4A65946  38.265   5.814   7.523
 5235POPC   C1B65947  38.762   5.716   6.216
 5235POPC   C2B65948  38.586   5.633   6.617
 5235POPC   C3B65949  38.839   5.660   7.000
 5235POPC   C4B65950  38.783   5.934   7.369
 5236POPC   NC365951  30.671   4.684   5.410
 5236POPC   PO465952  30.417   4.038   5.405
 5236POPC   GL165953  30.547   4.201   5.799
 5236POPC   GL265954  30.900   4.172   5.755
 5236POPC   C1A65955  30.565   4.399   6.223
 5236POPC   D2A65956  30.688   4.707   6.581
 5236POPC   C3A65957  30.530   4.669   7.042
 5236POPC   C4A65958  30.658   4.571   7.485
 5236POPC   C1B65959  31.064   4.211   6.171
 5236POPC   C2B65960  30.874   4.206   6.589
 5236POPC   C3B65961  30.992   4.439   6.954
 5236POPC   C4B65962  31.009   4.171   7.284
 5237POPC   NC365963  11.037  19.608   5.147
 5237POPC   PO465964  11.083  20.263   5.335
 5237POPC   GL165965  11.156  20.034   5.759
 5237POPC   GL265966  11.280  20.276   5.919
 5237POPC   C1A65967  11.272  19.733   6.130
 5237POPC   D2A65968  11.471  19.641   6.561
 5237POPC   C3A65969  11.352  19.763   7.003
 5237POPC   C4A65970  11.191  19.598   7.368
 5237POPC   C1B65971  11.505  20.175   6.270
 5237POPC   C2B65972  11.459  20.155   6.682
 5237POPC   C3B65973  11.710  20.133   7.023
 5237POPC   C4B65974  11.546  20.065   7.402
 5238POPC   NC365975   8.319  37.213   5.456
 5238POPC   PO465976   8.032  36.645   5.699
 5238POPC   GL165977   8.106  37.028   5.896
 5238POPC   GL265978   8.433  37.061   5.904
 5238POPC   C1A65979   8.115  37.191   6.309
 5238POPC   D2A65980   7.846  37.174   6.663
 5238POPC   C3A65981   7.975  36.789   6.880
 5238POPC   C4A65982   8.169  36.711   7.264
 5238POPC   C1B65983   8.625  37.205   6.209
 5238POPC   C2B65984   8.686  36.974   6.563
 5238POPC   C3B65985   8.501  36.867   6.904
 5238POPC   C4B65986   8.539  37.112   7.250
 5239POPC   NC365987   1.525  10.689   5.347
 5239POPC   PO465988   2.043  10.208   5.417
 5239POPC   GL165989   2.013  10.470   5.764
 5239POPC   GL265990   1.671  10.526   5.823
 5239POPC   C1A65991   2.052  10.504   6.204
 5239POPC   D2A65992   2.005  10.639   6.623
 5239POPC   C3A65993   2.246  10.435   6.924
 5239POPC   C4A65994   2.132  10.223   7.301
 5239POPC   C1B65995   1.591  10.753   6.209
 5239POPC   C2B65996   1.573  10.948   6.605
 5239POPC   C3B65997   1.601  10.676   6.956
 5239POPC   C4B65998   1.820  10.638   7.344
 5240POPC   NC365999   5.369   4.878   5.382
 5240POPC   PO466000   4.984   5.320   5.148
 5240POPC   GL166001   5.097   5.267   5.666
 5240POPC   GL266002   4.827   5.081   5.903
 5240POPC   C1A66003   5.190   5.266   6.173
 5240POPC   D2A66004   4.901   5.135   6.557
 5240POPC   C3A66005   5.074   5.168   6.995
 5240POPC   C4A66006   5.014   5.370   7.411
 5240POPC   C1B66007   5.040   4.768   6.218
 5240POPC   C2B66008   5.164   4.703   6.676
 5240POPC   C3B66009   4.906   4.694   7.064
 5240POPC   C4B66010   5.040   4.879   7.467
 5241POPC   NC366011  42.882  22.223   5.419
 5241POPC   PO466012  43.485  22.301   5.159
 5241POPC   GL166013  43.373  22.380   5.645
 5241POPC   GL266014  43.036  22.361   5.857
 5241POPC   C1A66015  43.435  22.328   6.144
 5241POPC   D2A66016  43.180  22.127   6.494
 5241POPC   C3A66017  43.345  22.117   6.926
 5241POPC   C4A66018  43.273  22.026   7.387
 5241POPC   C1B66019  42.854  22.533   6.224
 5241POPC   C2B66020  42.874  22.517   6.673
 5241POPC   C3B66021  42.845  22.203   6.991
 5241POPC   C4B66022  42.764  21.877   7.237
 5242POPC   NC366023  41.178  14.993   5.273
 5242POPC   PO466024  41.681  15.443   5.312
 5242POPC   GL166025  41.554  15.341   5.743
 5242POPC   GL266026  41.380  15.016   5.783
 5242POPC   C1A66027  41.471  15.329   6.197
 5242POPC   D2A66028  41.636  15.258   6.600
 5242POPC   C3A66029  41.653  15.504   6.961
 5242POPC   C4A66030  41.599  15.229   7.318
 5242POPC   C1B66031  41.141  14.868   6.140
 5242POPC   C2B66032  41.176  15.043   6.532
 5242POPC   C3B66033  41.341  14.999   6.933
 5242POPC   C4B66034  41.133  15.018   7.327
 5243POPC   NC366035  41.669  40.331   5.406
 5243POPC   PO466036  41.632  39.681   5.528
 5243POPC   GL166037  41.350  39.863   5.793
 5243POPC   GL266038  41.555  40.119   5.879
 5243POPC   C1A66039  41.249  39.838   6.212
 5243POPC   D2A66040  41.446  39.927   6.598
 5243POPC   C3A66041  41.336  39.772   6.992
 5243POPC   C4A66042  41.476  39.777   7.437
 5243POPC   C1B66043  41.506  40.355   6.269
 5243POPC   C2B66044  41.597  40.397   6.732
 5243POPC   C3B66045  41.597  40.204   7.161
 5243POPC   C4B66046  41.686  40.216   7.590
 5244POPC   NC366047  35.062  26.513   5.467
 5244POPC   PO466048  35.496  27.095   5.519
 5244POPC   GL166049  35.217  26.892   5.788
 5244POPC   GL266050  35.408  26.600   5.899
 5244POPC   C1A66051  35.206  27.049   6.198
 5244POPC   D2A66052  35.525  27.171   6.476
 5244POPC   C3A66053  35.455  27.067   6.887
 5244POPC   C4A66054  35.503  27.113   7.314
 5244POPC   C1B66055  35.365  26.594   6.360
 5244POPC   C2B66056  35.132  26.784   6.663
 5244POPC   C3B66057  35.123  26.787   7.141
 5244POPC   C4B66058  35.294  26.703   7.575
 5245POPC   NC366059   0.450   6.726   5.322
 5245POPC   PO466060   0.366   6.206   5.669
 5245POPC   GL166061   0.441   6.585   5.823
 5245POPC   GL266062   0.092   6.709   5.704
 5245POPC   C1A66063   0.527   6.550   6.266
 5245POPC   D2A66064   0.258   6.378   6.598
 5245POPC   C3A66065   0.385   6.512   6.997
 5245POPC   C4A66066   0.578   6.838   7.177
 5245POPC   C1B66067   0.149   6.904   6.110
 5245POPC   C2B66068   0.322   6.937   6.531
 5245POPC   C3B66069   0.172   6.981   6.915
 5245POPC   C4B66070   0.058   7.023   7.328
 5246POPC   NC366071  38.996   0.990   5.407
 5246POPC   PO466072  39.427   1.515   5.388
 5246POPC   GL166073  39.263   1.324   5.745
 5246POPC   GL266074  38.924   1.363   5.767
 5246POPC   C1A66075  39.284   1.118   6.157
 5246POPC   D2A66076  39.492   1.178   6.566
 5246POPC   C3A66077  39.343   1.038   6.975
 5246POPC   C4A66078  39.404   1.316   7.349
 5246POPC   C1B66079  38.927   1.474   6.239
 5246POPC   C2B66080  38.928   1.362   6.703
 5246POPC   C3B66081  38.935   1.253   7.155
 5246POPC   C4B66082  38.845   0.828   7.280
 5247POPC   NC366083  23.790  41.461   5.356
 5247POPC   PO466084  23.321  41.875   5.358
 5247POPC   GL166085  23.541  41.717   5.744
 5247POPC   GL266086  23.825  41.869   5.836
 5247POPC   C1A66087  23.455  41.741   6.205
 5247POPC   D2A66088  23.463  41.940   6.616
 5247POPC   C3A66089  23.373  41.611   6.920
 5247POPC   C4A66090  23.557  41.527   7.309
 5247POPC   C1B66091  23.973  41.889   6.244
 5247POPC   C2B66092  24.106  41.918   6.669
 5247POPC   C3B66093  23.905  41.726   6.991
 5247POPC   C4B66094  24.066  41.444   7.275
 5248POPC   NC366095  11.547  15.818   5.435
 5248POPC   PO466096  11.234  16.380   5.285
 5248POPC   GL166097  11.464  16.281   5.680
 5248POPC   GL266098  11.241  16.020   5.813
 5248POPC   C1A66099  11.618  16.165   6.108
 5248POPC   D2A66100  11.243  16.116   6.380
 5248POPC   C3A66101  11.203  16.141   6.831
 5248POPC   C4A66102  11.375  16.314   7.211
 5248POPC   C1B66103  11.365  15.690   6.125
 5248POPC   C2B66104  11.179  15.616   6.557
 5248POPC   C3B66105  11.164  15.483   7.003
 5248POPC   C4B66106  11.192  15.818   7.326
 5249POPC   NC366107  14.808  41.324   5.663
 5249POPC   PO466108  14.404  40.946   5.206
 5249POPC   GL166109  14.303  40.785   5.711
 5249POPC   GL266110  14.608  40.574   5.778
 5249POPC   C1A66111  14.220  40.971   6.221
 5249POPC   D2A66112  14.392  41.098   6.667
 5249POPC   C3A66113  14.191  40.916   7.070
 5249POPC   C4A66114  14.095  40.604   7.414
 5249POPC   C1B66115  14.547  40.598   6.243
 5249POPC   C2B66116  14.516  40.565   6.711
 5249POPC   C3B66117  14.534  40.519   7.176
 5249POPC   C4B66118  14.746  40.652   7.582
 5250POPC   NC366119  21.897  13.497   5.494
 5250POPC   PO466120  22.411  13.929   5.492
 5250POPC   GL166121  22.248  13.963   5.885
 5250POPC   GL266122  22.257  13.613   5.867
 5250POPC   C1A66123  22.141  13.790   6.312
 5250POPC   D2A66124  22.330  13.673   6.683
 5250POPC   C3A66125  22.283  13.648   7.124
 5250POPC   C4A66126  22.284  13.887   7.473
 5250POPC   C1B66127  21.965  13.336   6.127
 5250POPC   C2B66128  21.768  13.242   6.506
 5250POPC   C3B66129  21.886  13.417   6.872
 5250POPC   C4B66130  21.998  13.220   7.210
 5251POPC   NC366131  24.989  39.678   5.099
 5251POPC   PO466132  25.515  40.062   5.320
 5251POPC   GL166133  25.264  40.032   5.702
 5251POPC   GL266134  25.055  39.723   5.647
 5251POPC   C1A66135  25.299  40.177   6.133
 5251POPC   D2A66136  25.226  40.426   6.496
 5251POPC   C3A66137  25.165  40.117   6.818
 5251POPC   C4A66138  25.308  40.037   7.212
 5251POPC   C1B66139  25.149  39.658   6.091
 5251POPC   C2B66140  25.088  39.680   6.531
 5251POPC   C3B66141  25.022  39.634   6.969
 5251POPC   C4B66142  25.218  39.515   7.346
 5252POPC   NC366143   0.721  10.778   5.425
 5252POPC   PO466144   1.228  10.247   5.387
 5252POPC   GL166145   1.171  10.496   5.730
 5252POPC   GL266146   0.857  10.421   5.788
 5252POPC   C1A66147   1.210  10.386   6.176
 5252POPC   D2A66148   1.223  10.577   6.573
 5252POPC   C3A66149   1.159  10.379   6.957
 5252POPC   C4A66150   1.444  10.324   7.322
 5252POPC   C1B66151   0.887  10.787   6.097
 5252POPC   C2B66152   1.041  11.040   6.460
 5252POPC   C3B66153   1.055  10.933   6.906
 5252POPC   C4B66154   1.193  10.758   7.293
 5253POPC   NC366155  12.935   1.435   5.250
 5253POPC   PO466156  12.861   0.787   5.418
 5253POPC   GL166157  12.970   1.102   5.755
 5253POPC   GL266158  12.991   1.486   5.754
 5253POPC   C1A66159  12.739   1.246   6.144
 5253POPC   D2A66160  12.470   1.291   6.501
 5253POPC   C3A66161  12.718   1.315   6.863
 5253POPC   C4A66162  13.021   1.023   7.027
 5253POPC   C1B66163  13.231   1.427   6.141
 5253POPC   C2B66164  13.146   1.273   6.566
 5253POPC   C3B66165  13.350   1.400   6.956
 5253POPC   C4B66166  13.331   1.612   7.350
 5254POPC   NC366167   0.872  13.025   5.534
 5254POPC   PO466168   1.462  12.722   5.445
 5254POPC   GL166169   1.365  13.042   5.795
 5254POPC   GL266170   1.077  12.914   5.983
 5254POPC   C1A66171   1.347  13.238   6.250
 5254POPC   D2A66172   1.261  12.882   6.534
 5254POPC   C3A66173   1.063  12.908   6.915
 5254POPC   C4A66174   1.200  13.003   7.328
 5254POPC   C1B66175   0.866  12.561   6.134
 5254POPC   C2B66176   0.925  12.342   6.505
 5254POPC   C3B66177   0.872  12.378   6.928
 5254POPC   C4B66178   0.959  12.572   7.272
 5255POPC   NC366179  34.528   6.885   5.435
 5255POPC   PO466180  34.912   6.403   5.525
 5255POPC   GL166181  34.777   6.700   5.869
 5255POPC   GL266182  34.399   6.703   5.887
 5255POPC   C1A66183  34.651   6.804   6.314
 5255POPC   D2A66184  34.314   6.875   6.625
 5255POPC   C3A66185  34.520   6.819   6.998
 5255POPC   C4A66186  34.732   6.511   7.184
 5255POPC   C1B66187  34.344   6.377   6.204
 5255POPC   C2B66188  34.123   6.391   6.579
 5255POPC   C3B66189  34.304   6.323   6.950
 5255POPC   C4B66190  34.224   6.496   7.305
 5256POPC   NC366191   4.594  17.754   5.095
 5256POPC   PO466192   5.173  17.635   5.351
 5256POPC   GL166193   5.113  17.470   5.750
 5256POPC   GL266194   4.972  17.786   5.844
 5256POPC   C1A66195   5.257  17.325   6.172
 5256POPC   D2A66196   5.094  17.463   6.587
 5256POPC   C3A66197   5.269  17.306   6.950
 5256POPC   C4A66198   5.310  17.585   7.239
 5256POPC   C1B66199   4.791  17.576   6.204
 5256POPC   C2B66200   4.578  17.542   6.631
 5256POPC   C3B66201   4.837  17.663   7.014
 5256POPC   C4B66202   4.871  17.655   7.474
 5257POPC   NC366203  19.841  42.811   5.274
 5257POPC   PO466204  20.018  43.391   5.500
 5257POPC   GL166205  20.043  43.081   5.859
 5257POPC   GL266206  19.983  42.718   5.867
 5257POPC   C1A66207  19.888  43.089   6.296
 5257POPC   D2A66208  19.629  43.005   6.678
 5257POPC   C3A66209  19.860  43.122   7.048
 5257POPC   C4A66210  19.970  43.458   7.359
 5257POPC   C1B66211  19.952  42.590   6.331
 5257POPC   C2B66212  19.938  42.618   6.806
 5257POPC   C3B66213  19.996  42.592   7.271
 5257POPC   C4B66214  20.159  42.663   7.713
 5258POPC   NC366215  13.842  10.983   5.272
 5258POPC   PO466216  13.434  10.386   5.388
 5258POPC   GL166217  13.739  10.450   5.747
 5258POPC   GL266218  13.870  10.804   5.765
 5258POPC   C1A66219  13.713  10.187   6.141
 5258POPC   D2A66220  13.769  10.200   6.585
 5258POPC   C3A66221  13.552  10.585   6.745
 5258POPC   C4A66222  13.426  10.681   7.163
 5258POPC   C1B66223  13.893  10.666   6.206
 5258POPC   C2B66224  14.051  10.639   6.621
 5258POPC   C3B66225  13.951  10.614   7.076
 5258POPC   C4B66226  13.832  10.958   7.362
 5259POPC   NC366227   6.673  16.234   5.434
 5259POPC   PO466228   6.566  15.607   5.647
 5259POPC   GL166229   6.723  15.963   5.858
 5259POPC   GL266230   6.372  16.083   5.801
 5259POPC   C1A66231   6.950  16.145   6.226
 5259POPC   D2A66232   6.831  16.263   6.657
 5259POPC   C3A66233   6.738  15.941   6.949
 5259POPC   C4A66234   6.863  15.893   7.364
 5259POPC   C1B66235   6.420  16.138   6.234
 5259POPC   C2B66236   6.381  15.840   6.563
 5259POPC   C3B66237   6.208  15.885   6.945
 5259POPC   C4B66238   6.389  16.023   7.317
 5260POPC   NC366239  17.239  14.844   5.476
 5260POPC   PO466240  17.927  14.953   5.582
 5260POPC   GL166241  17.569  15.067   5.836
 5260POPC   GL266242  17.489  15.423   5.865
 5260POPC   C1A66243  17.608  15.018   6.281
 5260POPC   D2A66244  17.916  14.991   6.622
 5260POPC   C3A66245  17.787  15.100   7.077
 5260POPC   C4A66246  17.335  15.193   7.241
 5260POPC   C1B66247  17.303  15.409   6.310
 5260POPC   C2B66248  17.489  15.308   6.710
 5260POPC   C3B66249  17.560  15.584   7.042
 5260POPC   C4B66250  17.131  15.710   7.180
 5261POPC   NC366251  22.769  13.431   5.383
 5261POPC   PO466252  23.205  13.882   5.474
 5261POPC   GL166253  22.840  13.761   5.784
 5261POPC   GL266254  22.885  13.401   5.882
 5261POPC   C1A66255  22.638  13.747   6.193
 5261POPC   D2A66256  22.764  13.480   6.534
 5261POPC   C3A66257  22.781  13.572   6.964
 5261POPC   C4A66258  23.067  13.253   7.090
 5261POPC   C1B66259  23.132  13.607   6.190
 5261POPC   C2B66260  23.241  13.785   6.561
 5261POPC   C3B66261  23.295  13.705   6.964
 5261POPC   C4B66262  23.120  13.683   7.358
 5262POPC   NC366263  23.259  42.286   5.159
 5262POPC   PO466264  23.905  42.561   5.380
 5262POPC   GL166265  23.723  42.385   5.759
 5262POPC   GL266266  24.058  42.321   5.952
 5262POPC   C1A66267  23.595  42.256   6.172
 5262POPC   D2A66268  23.903  42.337   6.482
 5262POPC   C3A66269  23.757  42.290   6.882
 5262POPC   C4A66270  23.527  42.044   7.152
 5262POPC   C1B66271  24.265  42.621   6.209
 5262POPC   C2B66272  24.117  42.772   6.628
 5262POPC   C3B66273  24.192  42.578   7.017
 5262POPC   C4B66274  24.165  42.146   7.131
 5263POPC   NC366275  34.105  24.531   5.394
 5263POPC   PO466276  33.474  24.206   5.280
 5263POPC   GL166277  33.688  24.486   5.649
 5263POPC   GL266278  33.931  24.221   5.770
 5263POPC   C1A66279  33.784  24.581   6.129
 5263POPC   D2A66280  34.008  24.541   6.571
 5263POPC   C3A66281  33.885  24.746   6.996
 5263POPC   C4A66282  33.927  24.815   7.482
 5263POPC   C1B66283  34.158  24.232   6.178
 5263POPC   C2B66284  34.160  24.012   6.586
 5263POPC   C3B66285  33.967  24.180   6.934
 5263POPC   C4B66286  34.061  24.365   7.284
 5264POPC   NC366287   8.566   6.726   5.118
 5264POPC   PO466288   7.964   6.647   5.492
 5264POPC   GL166289   8.060   6.833   5.872
 5264POPC   GL266290   7.750   6.814   6.014
 5264POPC   C1A66291   8.348   6.846   6.207
 5264POPC   D2A66292   8.395   6.571   6.542
 5264POPC   C3A66293   8.164   6.666   6.899
 5264POPC   C4A66294   8.268   6.614   7.314
 5264POPC   C1B66295   8.005   6.440   6.190
 5264POPC   C2B66296   8.029   6.237   6.622
 5264POPC   C3B66297   7.958   6.209   7.088
 5264POPC   C4B66298   7.969   6.281   7.541
 5265POPC   NC366299  27.395  22.764   5.436
 5265POPC   PO466300  27.956  23.020   5.487
 5265POPC   GL166301  27.724  22.869   5.852
 5265POPC   GL266302  28.012  22.777   6.015
 5265POPC   C1A66303  27.648  22.978   6.324
 5265POPC   D2A66304  27.415  23.207   6.639
 5265POPC   C3A66305  27.463  23.030   7.039
 5265POPC   C4A66306  27.441  22.841   7.427
 5265POPC   C1B66307  28.057  23.244   6.174
 5265POPC   C2B66308  27.932  23.401   6.603
 5265POPC   C3B66309  28.018  23.210   7.027
 5265POPC   C4B66310  27.937  22.817   7.223
 5266POPC   NC366311   7.787  38.059   5.433
 5266POPC   PO466312   7.168  38.169   5.621
 5266POPC   GL166313   7.348  38.414   5.921
 5266POPC   GL266314   7.404  38.716   5.760
 5266POPC   C1A66315   7.466  38.348   6.348
 5266POPC   D2A66316   7.249  38.075   6.659
 5266POPC   C3A66317   7.307  38.278   7.022
 5266POPC   C4A66318   7.627  38.520   7.008
 5266POPC   C1B66319   7.225  38.836   6.183
 5266POPC   C2B66320   7.127  38.628   6.613
 5266POPC   C3B66321   7.217  38.806   6.976
 5266POPC   C4B66322   7.331  38.731   7.415
 5267POPC   NC366323  14.412   0.889   5.358
 5267POPC   PO466324  14.556   0.192   5.513
 5267POPC   GL166325  14.447   0.434   5.829
 5267POPC   GL266326  14.688   0.669   5.755
 5267POPC   C1A66327  14.235   0.413   6.229
 5267POPC   D2A66328  14.384   0.266   6.632
 5267POPC   C3A66329  14.153   0.289   7.005
 5267POPC   C4A66330  14.400   0.381   7.388
 5267POPC   C1B66331  14.551   0.869   6.110
 5267POPC   C2B66332  14.454   0.781   6.532
 5267POPC   C3B66333  14.508   0.682   6.970
 5267POPC   C4B66334  14.375   0.907   7.336
 5268POPC   NC366335  13.758  43.913   5.261
 5268POPC   PO466336  13.286  43.459   5.425
 5268POPC   GL166337  13.540  43.786   5.723
 5268POPC   GL266338  13.836  44.035   5.742
 5268POPC   C1A66339  13.555  43.951   6.170
 5268POPC   D2A66340  13.715  44.100   6.573
 5268POPC   C3A66341  13.419  44.109   6.918
 5268POPC   C4A66342  13.412  43.837   7.253
 5268POPC   C1B66343  13.978  43.713   6.041
 5268POPC   C2B66344  13.944  43.625   6.474
 5268POPC   C3B66345  13.777  43.701   6.889
 5268POPC   C4B66346  13.901  44.014   7.183
 5269POPC   NC366347  41.989  38.614   5.440
 5269POPC   PO466348  41.441  38.239   5.662
 5269POPC   GL166349  41.670  38.466   5.909
 5269POPC   GL266350  41.519  38.744   5.865
 5269POPC   C1A66351  41.482  38.519   6.333
 5269POPC   D2A66352  41.178  38.498   6.671
 5269POPC   C3A66353  41.278  38.172   7.008
 5269POPC   C4A66354  41.535  38.047   7.376
 5269POPC   C1B66355  41.766  38.930   6.215
 5269POPC   C2B66356  41.830  38.772   6.659
 5269POPC   C3B66357  41.613  38.667   7.058
 5269POPC   C4B66358  41.860  38.543   7.431
 5270POPC   NC366359  29.855  13.156   5.604
 5270POPC   PO466360  30.328  12.831   5.284
 5270POPC   GL166361  30.167  12.804   5.871
 5270POPC   GL266362  29.896  12.517   5.974
 5270POPC   C1A66363  30.022  12.864   6.338
 5270POPC   D2A66364  29.653  12.703   6.597
 5270POPC   C3A66365  29.550  12.911   7.006
 5270POPC   C4A66366  29.533  12.812   7.445
 5270POPC   C1B66367  30.273  12.409   6.196
 5270POPC   C2B66368  30.353  12.541   6.618
 5270POPC   C3B66369  30.064  12.769   6.887
 5270POPC   C4B66370  30.095  12.868   7.298
 5271POPC   NC366371  42.754   9.195   5.518
 5271POPC   PO466372  42.386   8.589   5.454
 5271POPC   GL166373  42.383   8.917   5.764
 5271POPC   GL266374  42.709   8.781   5.818
 5271POPC   C1A66375  42.200   9.183   6.110
 5271POPC   D2A66376  42.334   9.169   6.541
 5271POPC   C3A66377  42.468   9.080   6.938
 5271POPC   C4A66378  42.168   9.133   7.268
 5271POPC   C1B66379  42.534   8.804   6.225
 5271POPC   C2B66380  42.674   8.679   6.590
 5271POPC   C3B66381  42.548   8.474   6.894
 5271POPC   C4B66382  42.403   8.672   7.233
 5272POPC   NC366383  44.930  31.131   5.396
 5272POPC   PO466384  44.409  31.584   5.367
 5272POPC   GL166385  44.561  31.410   5.720
 5272POPC   GL266386  44.430  31.071   5.612
 5272POPC   C1A66387  44.725  31.491   6.162
 5272POPC   D2A66388  44.860  31.343   6.587
 5272POPC   C3A66389  44.817  31.631   6.969
 5272POPC   C4A66390  44.653  31.746   7.386
 5272POPC   C1B66391  44.461  31.062   6.062
 5272POPC   C2B66392  44.403  31.063   6.516
 5272POPC   C3B66393  44.484  31.223   6.923
 5272POPC   C4B66394  44.466  31.213   7.347
 5273POPC   NC366395  30.717  43.100   5.434
 5273POPC   PO466396  30.787  42.428   5.452
 5273POPC   GL166397  30.616  42.732   5.789
 5273POPC   GL266398  30.419  43.085   5.827
 5273POPC   C1A66399  30.617  42.887   6.233
 5273POPC   D2A66400  30.766  43.111   6.572
 5273POPC   C3A66401  30.602  42.979   6.925
 5273POPC   C4A66402  30.782  43.032   7.273
 5273POPC   C1B66403  30.511  43.373   6.214
 5273POPC   C2B66404  30.460  43.536   6.640
 5273POPC   C3B66405  30.589  43.508   7.080
 5273POPC   C4B66406  30.598  43.443   7.526
 5274POPC   NC366407  32.027  37.685   5.236
 5274POPC   PO466408  32.437  38.083   5.594
 5274POPC   GL166409  32.306  37.749   5.865
 5274POPC   GL266410  32.043  37.581   5.735
 5274POPC   C1A66411  32.470  37.395   6.111
 5274POPC   D2A66412  32.444  37.305   6.538
 5274POPC   C3A66413  32.658  37.507   6.852
 5274POPC   C4A66414  32.487  37.399   7.248
 5274POPC   C1B66415  31.957  37.432   6.114
 5274POPC   C2B66416  32.057  37.647   6.480
 5274POPC   C3B66417  32.132  37.576   6.903
 5274POPC   C4B66418  31.958  37.444   7.272
 5275POPC   NC366419   8.012  36.305   5.401
 5275POPC   PO466420   8.381  35.756   5.402
 5275POPC   GL166421   8.156  36.005   5.760
 5275POPC   GL266422   8.415  36.265   5.788
 5275POPC   C1A66423   7.984  36.148   6.159
 5275POPC   D2A66424   7.804  35.971   6.540
 5275POPC   C3A66425   7.896  36.210   6.909
 5275POPC   C4A66426   8.181  36.217   7.224
 5275POPC   C1B66427   8.534  36.075   6.191
 5275POPC   C2B66428   8.334  36.043   6.616
 5275POPC   C3B66429   8.478  35.870   7.011
 5275POPC   C4B66430   8.635  36.046   7.409
 5276POPC   NC366431   0.044  13.070   5.623
 5276POPC   PO466432  44.628  12.616   5.233
 5276POPC   GL166433  44.584  12.706   5.762
 5276POPC   GL266434  44.877  12.762   5.991
 5276POPC   C1A66435  44.366  12.654   6.167
 5276POPC   D2A66436  44.198  12.749   6.591
 5276POPC   C3A66437  44.516  12.677   6.917
 5276POPC   C4A66438  44.560  12.681   7.358
 5276POPC   C1B66439  44.637  13.108   6.162
 5276POPC   C2B66440  44.682  13.360   6.480
 5276POPC   C3B66441  44.533  13.185   6.822
 5276POPC   C4B66442  44.657  13.151   7.217
 5277POPC   NC366443  37.270  22.135   5.367
 5277POPC   PO466444  36.570  22.071   5.391
 5277POPC   GL166445  36.840  22.217   5.707
 5277POPC   GL266446  37.015  21.934   5.798
 5277POPC   C1A66447  36.752  22.276   6.146
 5277POPC   D2A66448  36.487  22.069   6.451
 5277POPC   C3A66449  36.662  22.083   6.857
 5277POPC   C4A66450  36.611  21.990   7.268
 5277POPC   C1B66451  37.242  22.083   6.152
 5277POPC   C2B66452  37.106  22.016   6.565
 5277POPC   C3B66453  37.171  21.802   6.928
 5277POPC   C4B66454  37.105  22.044   7.230
 5278POPC   NC366455  18.912  12.941   5.437
 5278POPC   PO466456  19.523  12.687   5.645
 5278POPC   GL166457  19.323  12.973   5.870
 5278POPC   GL266458  18.990  12.884   5.936
 5278POPC   C1A66459  19.316  12.947   6.335
 5278POPC   D2A66460  19.027  12.770   6.657
 5278POPC   C3A66461  19.239  12.612   6.992
 5278POPC   C4A66462  19.326  12.961   7.170
 5278POPC   C1B66463  18.727  12.679   6.250
 5278POPC   C2B66464  18.468  12.930   6.523
 5278POPC   C3B66465  18.626  13.043   6.882
 5278POPC   C4B66466  18.733  12.692   7.154
 5279POPC   NC366467  42.828  29.073   5.382
 5279POPC   PO466468  43.469  29.377   5.440
 5279POPC   GL166469  43.153  29.162   5.782
 5279POPC   GL266470  42.787  29.307   5.851
 5279POPC   C1A66471  42.978  28.996   6.186
 5279POPC   D2A66472  43.038  28.927   6.614
 5279POPC   C3A66473  42.723  28.991   6.914
 5279POPC   C4A66474  42.919  29.061   7.294
 5279POPC   C1B66475  42.735  29.415   6.304
 5279POPC   C2B66476  42.849  29.447   6.737
 5279POPC   C3B66477  42.670  29.483   7.169
 5279POPC   C4B66478  42.903  29.485   7.583
 5280POPC   NC366479  16.600   9.030   5.266
 5280POPC   PO466480  17.037   8.457   5.415
 5280POPC   GL166481  16.865   8.777   5.715
 5280POPC   GL266482  16.793   9.157   5.729
 5280POPC   C1A66483  16.880   8.877   6.165
 5280POPC   D2A66484  16.622   8.973   6.535
 5280POPC   C3A66485  16.822   9.001   6.955
 5280POPC   C4A66486  16.703   8.765   7.295
 5280POPC   C1B66487  16.484   9.207   6.081
 5280POPC   C2B66488  16.225   9.318   6.470
 5280POPC   C3B66489  16.298   9.151   6.907
 5280POPC   C4B66490  16.501   9.293   7.286
 5281POPC   NC366491  15.420  24.276   5.425
 5281POPC   PO466492  16.045  24.457   5.352
 5281POPC   GL166493  16.005  24.574   5.826
 5281POPC   GL266494  15.803  24.831   5.964
 5281POPC   C1A66495  16.142  24.577   6.272
 5281POPC   D2A66496  15.939  24.481   6.676
 5281POPC   C3A66497  16.088  24.492   7.086
 5281POPC   C4A66498  16.318  24.391   7.446
 5281POPC   C1B66499  15.608  24.577   6.303
 5281POPC   C2B66500  15.502  24.732   6.735
 5281POPC   C3B66501  15.621  24.783   7.178
 5281POPC   C4B66502  15.846  24.610   7.540
 5282POPC   NC366503  43.644  11.047   5.501
 5282POPC   PO466504  43.043  11.261   5.337
 5282POPC   GL166505  43.236  11.213   5.750
 5282POPC   GL266506  43.272  10.832   5.758
 5282POPC   C1A66507  43.137  11.393   6.177
 5282POPC   D2A66508  43.114  11.293   6.635
 5282POPC   C3A66509  43.099  11.636   6.948
 5282POPC   C4A66510  43.435  11.778   7.226
 5282POPC   C1B66511  43.104  10.899   6.139
 5282POPC   C2B66512  42.773  10.964   6.414
 5282POPC   C3B66513  42.719  11.053   6.843
 5282POPC   C4B66514  43.007  11.200   7.187
 5283POPC   NC366515  23.303  14.851   5.742
 5283POPC   PO466516  23.568  15.411   5.437
 5283POPC   GL166517  23.723  15.462   5.842
 5283POPC   GL266518  23.761  15.140   5.885
 5283POPC   C1A66519  23.808  15.592   6.250
 5283POPC   D2A66520  23.964  15.457   6.666
 5283POPC   C3A66521  23.621  15.266   6.878
 5283POPC   C4A66522  23.503  15.124   7.245
 5283POPC   C1B66523  23.964  15.082   6.281
 5283POPC   C2B66524  23.954  14.901   6.709
 5283POPC   C3B66525  24.043  15.077   7.113
 5283POPC   C4B66526  24.077  15.474   7.296
 5284POPC   NC366527  19.673  39.509   5.289
 5284POPC   PO466528  19.805  40.061   5.402
 5284POPC   GL166529  20.007  40.138   5.782
 5284POPC   GL266530  20.059  39.841   5.908
 5284POPC   C1A66531  20.061  40.262   6.204
 5284POPC   D2A66532  19.890  40.107   6.556
 5284POPC   C3A66533  19.987  40.373   6.890
 5284POPC   C4A66534  20.189  40.614   7.174
 5284POPC   C1B66535  19.985  39.645   6.303
 5284POPC   C2B66536  19.865  39.645   6.741
 5284POPC   C3B66537  19.884  39.905   7.099
 5284POPC   C4B66538  19.820  39.764   7.508
 5285POPC   NC366539  36.946  44.450   5.223
 5285POPC   PO466540  37.033  43.755   5.323
 5285POPC   GL166541  37.003  43.765   5.776
 5285POPC   GL266542  36.643  43.731   5.790
 5285POPC   C1A66543  37.071  43.856   6.230
 5285POPC   D2A66544  37.265  43.784   6.636
 5285POPC   C3A66545  37.027  43.839   7.047
 5285POPC   C4A66546  36.795  44.111   7.345
 5285POPC   C1B66547  36.680  43.553   6.176
 5285POPC   C2B66548  36.738  43.633   6.614
 5285POPC   C3B66549  36.534  43.674   7.024
 5285POPC   C4B66550  36.683  43.609   7.465
 5286POPC   NC366551  12.333  10.018   5.672
 5286POPC   PO466552  12.059   9.493   5.380
 5286POPC   GL166553  12.000   9.539   5.777
 5286POPC   GL266554  12.366   9.516   5.807
 5286POPC   C1A66555  11.844   9.610   6.182
 5286POPC   D2A66556  12.028   9.525   6.573
 5286POPC   C3A66557  11.964   9.762   6.921
 5286POPC   C4A66558  11.734   9.567   7.199
 5286POPC   C1B66559  12.355   9.687   6.218
 5286POPC   C2B66560  12.378   9.908   6.593
 5286POPC   C3B66561  12.483   9.845   6.997
 5286POPC   C4B66562  12.299   9.934   7.370
 5287POPC   NC366563   0.569   2.138   5.080
 5287POPC   PO466564   0.191   2.198   5.575
 5287POPC   GL166565   0.332   2.168   5.981
 5287POPC   GL266566   0.715   2.156   5.968
 5287POPC   C1A66567   0.454   1.804   6.227
 5287POPC   D2A66568   0.529   1.632   6.612
 5287POPC   C3A66569   0.225   1.822   6.893
 5287POPC   C4A66570   0.420   1.952   7.280
 5287POPC   C1B66571   0.611   2.491   6.256
 5287POPC   C2B66572   0.322   2.392   6.576
 5287POPC   C3B66573   0.573   2.213   6.870
 5287POPC   C4B66574   0.761   2.371   7.220
 5288POPC   NC366575  22.756  21.278   5.423
 5288POPC   PO466576  23.367  21.567   5.404
 5288POPC   GL166577  23.077  21.587   5.767
 5288POPC   GL266578  22.689  21.561   5.836
 5288POPC   C1A66579  23.128  21.463   6.192
 5288POPC   D2A66580  23.186  21.674   6.576
 5288POPC   C3A66581  23.231  21.525   7.034
 5288POPC   C4A66582  23.126  21.563   7.495
 5288POPC   C1B66583  22.680  21.220   6.083
 5288POPC   C2B66584  22.713  21.231   6.516
 5288POPC   C3B66585  22.750  21.396   6.929
 5288POPC   C4B66586  22.931  21.136   7.249
 5289POPC   NC366587  21.975  37.320   5.426
 5289POPC   PO466588  22.083  38.042   5.530
 5289POPC   GL166589  22.312  37.940   5.887
 5289POPC   GL266590  22.176  37.603   5.852
 5289POPC   C1A66591  22.166  37.828   6.314
 5289POPC   D2A66592  21.778  37.746   6.530
 5289POPC   C3A66593  21.845  37.861   6.970
 5289POPC   C4A66594  22.210  37.860   7.232
 5289POPC   C1B66595  22.250  37.333   6.225
 5289POPC   C2B66596  22.097  37.370   6.664
 5289POPC   C3B66597  22.116  37.365   7.107
 5289POPC   C4B66598  22.280  37.421   7.528
 5290POPC   NC366599   7.569  34.005   5.310
 5290POPC   PO466600   7.300  33.414   5.506
 5290POPC   GL166601   7.548  33.614   5.848
 5290POPC   GL266602   7.666  33.948   5.794
 5290POPC   C1A66603   7.451  33.795   6.275
 5290POPC   D2A66604   7.106  33.670   6.563
 5290POPC   C3A66605   7.091  33.603   7.005
 5290POPC   C4A66606   7.206  33.538   7.468
 5290POPC   C1B66607   7.910  34.017   6.122
 5290POPC   C2B66608   7.810  34.162   6.530
 5290POPC   C3B66609   7.473  34.015   6.773
 5290POPC   C4B66610   7.519  33.804   7.149
 5291POPC   NC366611   6.101   3.854   5.416
 5291POPC   PO466612   5.614   3.440   5.330
 5291POPC   GL166613   5.706   3.612   5.762
 5291POPC   GL266614   6.062   3.649   5.873
 5291POPC   C1A66615   5.667   3.562   6.224
 5291POPC   D2A66616   5.868   3.313   6.556
 5291POPC   C3A66617   5.699   3.378   6.962
 5291POPC   C4A66618   5.723   3.287   7.389
 5291POPC   C1B66619   6.229   3.551   6.273
 5291POPC   C2B66620   6.199   3.735   6.682
 5291POPC   C3B66621   6.022   3.790   7.100
 5291POPC   C4B66622   6.225   3.888   7.482
 5292POPC   NC366623  40.249  19.393   5.209
 5292POPC   PO466624  39.818  18.873   5.386
 5292POPC   GL166625  39.890  18.898   5.832
 5292POPC   GL266626  39.831  19.246   5.821
 5292POPC   C1A66627  40.006  18.993   6.280
 5292POPC   D2A66628  39.889  18.788   6.645
 5292POPC   C3A66629  40.100  19.010   6.915
 5292POPC   C4A66630  40.109  19.145   7.286
 5292POPC   C1B66631  39.729  19.416   6.225
 5292POPC   C2B66632  39.716  19.288   6.664
 5292POPC   C3B66633  39.635  19.259   7.123
 5292POPC   C4B66634  39.722  19.324   7.604
 5293POPC   NC366635   1.368  11.536   5.393
 5293POPC   PO466636   1.148  10.933   5.450
 5293POPC   GL166637   1.393  10.998   5.806
 5293POPC   GL266638   1.122  11.213   5.933
 5293POPC   C1A66639   1.569  11.273   6.169
 5293POPC   D2A66640   1.339  11.569   6.460
 5293POPC   C3A66641   1.444  11.560   6.904
 5293POPC   C4A66642   1.502  11.136   7.112
 5293POPC   C1B66643   0.963  11.632   6.064
 5293POPC   C2B66644   0.857  11.788   6.487
 5293POPC   C3B66645   0.924  11.445   6.779
 5293POPC   C4B66646   1.058  11.370   7.192
 5294POPC   NC366647  19.418  37.058   5.028
 5294POPC   PO466648  19.961  37.000   5.436
 5294POPC   GL166649  20.016  37.172   5.832
 5294POPC   GL266650  19.727  36.986   5.902
 5294POPC   C1A66651  19.900  37.241   6.293
 5294POPC   D2A66652  19.968  36.996   6.662
 5294POPC   C3A66653  19.800  37.035   7.061
 5294POPC   C4A66654  20.081  36.944   7.361
 5294POPC   C1B66655  19.858  36.706   6.220
 5294POPC   C2B66656  19.660  36.602   6.612
 5294POPC   C3B66657  19.934  36.556   6.934
 5294POPC   C4B66658  20.032  36.442   7.305
 5295POPC   NC366659   2.111   7.432   5.374
 5295POPC   PO466660   1.480   7.744   5.282
 5295POPC   GL166661   1.619   7.460   5.708
 5295POPC   GL266662   1.956   7.392   5.830
 5295POPC   C1A66663   1.688   7.279   6.218
 5295POPC   D2A66664   1.915   7.476   6.604
 5295POPC   C3A66665   1.904   7.390   7.066
 5295POPC   C4A66666   2.075   7.625   7.446
 5295POPC   C1B66667   2.218   7.390   6.176
 5295POPC   C2B66668   2.381   7.087   6.479
 5295POPC   C3B66669   2.436   6.944   6.903
 5295POPC   C4B66670   2.394   7.167   7.287
 5296POPC   NC366671   5.062  24.036   5.396
 5296POPC   PO466672   5.207  23.406   5.502
 5296POPC   GL166673   5.088  23.665   5.863
 5296POPC   GL266674   4.855  23.935   5.845
 5296POPC   C1A66675   5.011  23.630   6.304
 5296POPC   D2A66676   5.189  23.841   6.647
 5296POPC   C3A66677   5.115  23.638   7.010
 5296POPC   C4A66678   5.078  23.788   7.391
 5296POPC   C1B66679   4.684  24.024   6.259
 5296POPC   C2B66680   4.686  23.892   6.711
 5296POPC   C3B66681   4.614  23.856   7.173
 5296POPC   C4B66682   4.636  23.830   7.638
 5297POPC   NC366683   3.198   9.657   5.495
 5297POPC   PO466684   3.734   9.971   5.187
 5297POPC   GL166685   3.674   9.784   5.667
 5297POPC   GL266686   3.643   9.389   5.735
 5297POPC   C1A66687   3.458   9.729   6.126
 5297POPC   D2A66688   3.115   9.785   6.469
 5297POPC   C3A66689   3.304   9.842   6.880
 5297POPC   C4A66690   3.558   9.590   7.159
 5297POPC   C1B66691   3.838   9.371   6.167
 5297POPC   C2B66692   3.849   9.560   6.590
 5297POPC   C3B66693   4.021   9.442   7.016
 5297POPC   C4B66694   3.934   9.385   7.519
 5298POPC   NC366695  11.229  23.282   5.500
 5298POPC   PO466696  11.360  22.612   5.508
 5298POPC   GL166697  11.363  22.885   5.827
 5298POPC   GL266698  11.029  22.962   5.857
 5298POPC   C1A66699  11.387  22.939   6.262
 5298POPC   D2A66700  11.450  22.733   6.629
 5298POPC   C3A66701  11.471  23.022   6.926
 5298POPC   C4A66702  11.417  23.017   7.339
 5298POPC   C1B66703  10.848  23.010   6.275
 5298POPC   C2B66704  10.979  22.959   6.688
 5298POPC   C3B66705  10.998  23.175   7.060
 5298POPC   C4B66706  10.931  23.246   7.483
 5299POPC   NC366707  31.206  42.230   5.493
 5299POPC   PO466708  31.762  42.628   5.350
 5299POPC   GL166709  31.615  42.444   5.751
 5299POPC   GL266710  31.448  42.140   5.928
 5299POPC   C1A66711  31.526  42.553   6.192
 5299POPC   D2A66712  31.386  42.446   6.605
 5299POPC   C3A66713  31.566  42.572   6.971
 5299POPC   C4A66714  31.384  42.447   7.327
 5299POPC   C1B66715  31.700  42.083   6.323
 5299POPC   C2B66716  31.805  42.109   6.765
 5299POPC   C3B66717  31.559  41.990   7.125
 5299POPC   C4B66718  31.562  42.039   7.577
 5300POPC   NC366719  42.117  10.567   5.587
 5300POPC   PO466720  42.713  10.299   5.347
 5300POPC   GL166721  42.566  10.460   5.773
 5300POPC   GL266722  42.683  10.779   5.865
 5300POPC   C1A66723  42.365  10.479   6.198
 5300POPC   D2A66724  42.530  10.564   6.588
 5300POPC   C3A66725  42.348  10.366   6.887
 5300POPC   C4A66726  42.466  10.310   7.263
 5300POPC   C1B66727  42.351  10.979   6.118
 5300POPC   C2B66728  42.198  11.034   6.505
 5300POPC   C3B66729  42.263  10.869   6.894
 5300POPC   C4B66730  42.039  10.639   7.166
 5301POPC   NC366731  35.423  38.649   5.355
 5301POPC   PO466732  35.588  38.018   5.583
 5301POPC   GL166733  35.327  38.308   5.840
 5301POPC   GL266734  35.286  38.692   5.831
 5301POPC   C1A66735  35.270  38.258   6.274
 5301POPC   D2A66736  35.479  38.286   6.671
 5301POPC   C3A66737  35.233  38.265   7.056
 5301POPC   C4A66738  35.240  38.231   7.513
 5301POPC   C1B66739  35.223  38.770   6.229
 5301POPC   C2B66740  35.375  38.824   6.626
 5301POPC   C3B66741  35.204  38.770   7.003
 5301POPC   C4B66742  35.003  38.645   7.337
 5302POPC   NC366743  35.246  14.944   5.554
 5302POPC   PO466744  35.481  15.501   5.445
 5302POPC   GL166745  35.508  15.332   5.902
 5302POPC   GL266746  35.477  14.966   5.986
 5302POPC   C1A66747  35.387  15.272   6.368
 5302POPC   D2A66748  34.979  15.297   6.617
 5302POPC   C3A66749  35.060  15.136   7.034
 5302POPC   C4A66750  35.473  15.326   7.147
 5302POPC   C1B66751  35.133  14.831   6.240
 5302POPC   C2B66752  35.205  14.818   6.667
 5302POPC   C3B66753  35.516  14.792   6.978
 5302POPC   C4B66754  35.547  14.885   7.395
 5303POPC   NC366755   8.434  16.014   5.441
 5303POPC   PO466756   7.735  15.984   5.343
 5303POPC   GL166757   7.975  15.881   5.728
 5303POPC   GL266758   8.241  16.112   5.885
 5303POPC   C1A66759   7.920  15.913   6.198
 5303POPC   D2A66760   8.150  16.150   6.527
 5303POPC   C3A66761   8.270  15.886   6.865
 5303POPC   C4A66762   8.134  15.628   7.198
 5303POPC   C1B66763   8.489  16.367   6.187
 5303POPC   C2B66764   8.654  16.290   6.627
 5303POPC   C3B66765   8.494  16.300   7.066
 5303POPC   C4B66766   8.083  16.140   7.308
 5304POPC   NC366767  36.489  29.239   5.548
 5304POPC   PO466768  35.840  29.158   5.581
 5304POPC   GL166769  36.102  29.279   5.890
 5304POPC   GL266770  36.287  28.954   5.914
 5304POPC   C1A66771  36.193  29.376   6.316
 5304POPC   D2A66772  36.539  29.515   6.547
 5304POPC   C3A66773  36.509  29.243   6.886
 5304POPC   C4A66774  36.218  29.275   7.236
 5304POPC   C1B66775  35.993  28.919   6.241
 5304POPC   C2B66776  35.983  29.065   6.680
 5304POPC   C3B66777  36.080  28.845   7.026
 5304POPC   C4B66778  36.474  28.825   7.223
 5305POPC   NC366779  16.431  28.228   5.572
 5305POPC   PO466780  15.805  28.487   5.453
 5305POPC   GL166781  15.970  28.324   5.809
 5305POPC   GL266782  16.187  28.595   5.817
 5305POPC   C1A66783  16.036  28.289   6.263
 5305POPC   D2A66784  16.225  28.354   6.676
 5305POPC   C3A66785  16.048  28.161   7.043
 5305POPC   C4A66786  15.692  27.908   7.184
 5305POPC   C1B66787  15.838  28.732   6.075
 5305POPC   C2B66788  15.800  28.737   6.503
 5305POPC   C3B66789  15.817  28.774   6.940
 5305POPC   C4B66790  15.909  28.552   7.341
 5306POPC   NC366791  12.028   5.077   5.205
 5306POPC   PO466792  11.624   5.016   5.705
 5306POPC   GL166793  12.005   4.933   5.840
 5306POPC   GL266794  12.151   5.253   5.789
 5306POPC   C1A66795  12.076   4.967   6.288
 5306POPC   D2A66796  11.842   5.160   6.645
 5306POPC   C3A66797  12.048   5.107   7.037
 5306POPC   C4A66798  11.831   4.811   7.232
 5306POPC   C1B66799  12.272   5.437   6.214
 5306POPC   C2B66800  12.162   5.552   6.650
 5306POPC   C3B66801  11.849   5.578   6.994
 5306POPC   C4B66802  12.094   5.565   7.362
 5307POPC   NC366803  13.688  10.017   5.481
 5307POPC   PO466804  13.875   9.360   5.394
 5307POPC   GL166805  13.797   9.559   5.757
 5307POPC   GL266806  13.445   9.420   5.749
 5307POPC   C1A66807  13.988   9.756   6.127
 5307POPC   D2A66808  13.849   9.686   6.547
 5307POPC   C3A66809  13.969   9.820   6.934
 5307POPC   C4A66810  13.729   9.481   7.138
 5307POPC   C1B66811  13.272   9.530   6.150
 5307POPC   C2B66812  13.361   9.840   6.453
 5307POPC   C3B66813  13.443   9.855   6.883
 5307POPC   C4B66814  13.609  10.200   7.079
 5308POPC   NC366815  30.328  40.768   5.376
 5308POPC   PO466816  30.972  40.486   5.325
 5308POPC   GL166817  30.764  40.790   5.682
 5308POPC   GL266818  30.435  40.668   5.880
 5308POPC   C1A66819  30.822  40.871   6.151
 5308POPC   D2A66820  30.672  40.628   6.519
 5308POPC   C3A66821  30.910  40.662   6.880
 5308POPC   C4A66822  30.814  41.010   7.118
 5308POPC   C1B66823  30.211  40.485   6.288
 5308POPC   C2B66824  30.204  40.513   6.750
 5308POPC   C3B66825  30.465  40.585   7.117
 5308POPC   C4B66826  30.507  40.580   7.556
 5309POPC   NC366827   9.410  15.800   5.444
 5309POPC   PO466828   8.726  15.676   5.544
 5309POPC   GL166829   8.745  15.985   5.845
 5309POPC   GL266830   9.023  16.190   5.729
 5309POPC   C1A66831   8.646  15.897   6.262
 5309POPC   D2A66832   8.952  15.854   6.549
 5309POPC   C3A66833   8.775  15.845   6.930
 5309POPC   C4A66834   8.997  15.718   7.267
 5309POPC   C1B66835   9.018  16.281   6.198
 5309POPC   C2B66836   9.213  16.300   6.622
 5309POPC   C3B66837   9.017  16.266   7.024
 5309POPC   C4B66838   8.910  16.187   7.464
 5310POPC   NC366839  25.334   6.748   5.395
 5310POPC   PO466840  24.850   6.315   5.713
 5310POPC   GL166841  25.119   6.652   5.858
 5310POPC   GL266842  25.501   6.648   5.863
 5310POPC   C1A66843  25.222   6.782   6.265
 5310POPC   D2A66844  25.542   6.848   6.546
 5310POPC   C3A66845  25.378   6.750   6.921
 5310POPC   C4A66846  25.260   7.020   7.198
 5310POPC   C1B66847  25.725   6.496   6.225
 5310POPC   C2B66848  25.909   6.505   6.659
 5310POPC   C3B66849  25.736   6.415   7.066
 5310POPC   C4B66850  25.583   6.103   7.368
 5311POPC   NC366851  13.119  31.555   5.488
 5311POPC   PO466852  12.491  31.327   5.305
 5311POPC   GL166853  12.680  31.531   5.723
 5311POPC   GL266854  12.890  31.196   5.757
 5311POPC   C1A66855  12.920  31.478   6.158
 5311POPC   D2A66856  12.802  31.242   6.528
 5311POPC   C3A66857  12.999  31.394   6.904
 5311POPC   C4A66858  12.908  31.607   7.284
 5311POPC   C1B66859  13.102  30.984   6.104
 5311POPC   C2B66860  13.113  30.840   6.553
 5311POPC   C3B66861  13.175  30.923   7.000
 5311POPC   C4B66862  13.225  31.219   7.349
 5312POPC   NC366863   4.367  19.387   5.207
 5312POPC   PO466864   4.104  20.037   5.340
 5312POPC   GL166865   4.237  19.958   5.736
 5312POPC   GL266866   4.478  19.702   5.766
 5312POPC   C1A66867   4.155  19.816   6.156
 5312POPC   D2A66868   4.390  19.738   6.510
 5312POPC   C3A66869   4.168  19.891   6.846
 5312POPC   C4A66870   4.048  19.617   7.115
 5312POPC   C1B66871   4.599  20.040   6.094
 5312POPC   C2B66872   4.744  20.125   6.546
 5312POPC   C3B66873   4.586  20.143   6.973
 5312POPC   C4B66874   4.529  19.757   7.233
 5313POPC   NC366875  14.555  10.332   5.464
 5313POPC   PO466876  14.283  10.867   5.167
 5313POPC   GL166877  14.414  10.792   5.677
 5313POPC   GL266878  14.257  10.481   5.861
 5313POPC   C1A66879  14.507  10.759   6.175
 5313POPC   D2A66880  14.694  10.571   6.560
 5313POPC   C3A66881  14.450  10.631   6.929
 5313POPC   C4A66882  14.443  10.814   7.309
 5313POPC   C1B66883  14.212  10.254   6.267
 5313POPC   C2B66884  14.287  10.189   6.715
 5313POPC   C3B66885  14.272  10.197   7.167
 5313POPC   C4B66886  14.169  10.461   7.520
 5314POPC   NC366887   5.476  26.357   5.692
 5314POPC   PO466888   5.183  26.846   5.297
 5314POPC   GL166889   5.149  26.786   5.768
 5314POPC   GL266890   5.025  26.456   5.915
 5314POPC   C1A66891   5.299  26.919   6.169
 5314POPC   D2A66892   5.453  27.056   6.560
 5314POPC   C3A66893   5.247  27.042   6.950
 5314POPC   C4A66894   5.175  26.668   7.181
 5314POPC   C1B66895   4.823  26.725   6.225
 5314POPC   C2B66896   4.820  26.924   6.645
 5314POPC   C3B66897   4.704  26.785   7.067
 5314POPC   C4B66898   4.703  26.370   7.214
 5315POPC   NC366899   5.280   1.491   5.498
 5315POPC   PO466900   5.198   2.115   5.260
 5315POPC   GL166901   5.135   2.123   5.737
 5315POPC   GL266902   5.399   2.144   5.911
 5315POPC   C1A66903   4.931   2.022   6.158
 5315POPC   D2A66904   4.790   1.841   6.570
 5315POPC   C3A66905   4.847   2.041   6.980
 5315POPC   C4A66906   4.733   1.885   7.418
 5315POPC   C1B66907   5.255   2.397   6.266
 5315POPC   C2B66908   5.201   2.153   6.620
 5315POPC   C3B66909   5.379   1.973   6.980
 5315POPC   C4B66910   5.211   2.116   7.336
 5316POPC   NC366911  38.361  37.999   5.005
 5316POPC   PO466912  38.441  38.579   5.388
 5316POPC   GL166913  38.444  38.476   5.869
 5316POPC   GL266914  38.764  38.511   5.990
 5316POPC   C1A66915  38.248  38.349   6.257
 5316POPC   D2A66916  38.533  38.479   6.582
 5316POPC   C3A66917  38.414  38.579   6.988
 5316POPC   C4A66918  38.593  38.755   7.397
 5316POPC   C1B66919  38.689  38.116   6.180
 5316POPC   C2B66920  38.695  37.987   6.591
 5316POPC   C3B66921  38.773  38.165   6.984
 5316POPC   C4B66922  38.622  38.268   7.370
 5317POPC   NC366923  29.155  22.626   5.470
 5317POPC   PO466924  29.519  23.128   5.605
 5317POPC   GL166925  29.377  23.066   5.993
 5317POPC   GL266926  29.256  22.730   5.955
 5317POPC   C1A66927  29.388  23.229   6.406
 5317POPC   D2A66928  29.219  22.953   6.739
 5317POPC   C3A66929  29.326  23.048   7.158
 5317POPC   C4A66930  29.223  23.278   7.527
 5317POPC   C1B66931  28.964  22.740   6.273
 5317POPC   C2B66932  28.839  22.563   6.675
 5317POPC   C3B66933  28.945  22.637   7.085
 5317POPC   C4B66934  29.025  22.824   7.501
 5318POPC   NC366935  29.636   8.499   5.411
 5318POPC   PO466936  30.118   8.086   5.118
 5318POPC   GL166937  30.010   8.144   5.633
 5318POPC   GL266938  29.688   8.186   5.825
 5318POPC   C1A66939  30.088   8.415   6.073
 5318POPC   D2A66940  30.272   8.551   6.521
 5318POPC   C3A66941  30.146   8.415   6.978
 5318POPC   C4A66942  30.126   8.488   7.463
 5318POPC   C1B66943  29.724   8.108   6.247
 5318POPC   C2B66944  29.769   8.289   6.620
 5318POPC   C3B66945  29.614   8.114   6.975
 5318POPC   C4B66946  29.893   8.062   7.285
 5319POPC   NC366947   6.937   6.909   5.168
 5319POPC   PO466948   7.500   7.232   5.484
 5319POPC   GL166949   7.355   7.463   5.840
 5319POPC   GL266950   7.052   7.220   5.864
 5319POPC   C1A66951   7.554   7.672   6.257
 5319POPC   D2A66952   7.708   7.521   6.712
 5319POPC   C3A66953   7.485   7.713   7.119
 5319POPC   C4A66954   7.025   7.778   7.296
 5319POPC   C1B66955   7.263   7.235   6.286
 5319POPC   C2B66956   7.413   6.982   6.622
 5319POPC   C3B66957   7.312   6.894   7.036
 5319POPC   C4B66958   7.159   7.282   7.152
 5320POPC   NC366959  27.737  28.821   5.487
 5320POPC   PO466960  27.114  29.064   5.311
 5320POPC   GL166961  27.288  29.150   5.763
 5320POPC   GL266962  27.590  29.027   5.939
 5320POPC   C1A66963  27.339  29.454   6.141
 5320POPC   D2A66964  27.623  29.333   6.477
 5320POPC   C3A66965  27.507  29.451   6.880
 5320POPC   C4A66966  27.572  29.318   7.280
 5320POPC   C1B66967  27.855  28.922   6.285
 5320POPC   C2B66968  27.780  28.695   6.659
 5320POPC   C3B66969  27.749  28.909   7.010
 5320POPC   C4B66970  28.160  28.922   7.197
 5321POPC   NC366971  15.698  28.022   5.480
 5321POPC   PO466972  15.069  28.256   5.400
 5321POPC   GL166973  15.125  28.365   5.812
 5321POPC   GL266974  15.440  28.221   5.865
 5321POPC   C1A66975  14.981  28.421   6.244
 5321POPC   D2A66976  15.188  28.456   6.663
 5321POPC   C3A66977  14.972  28.409   7.057
 5321POPC   C4A66978  14.764  28.764   7.265
 5321POPC   C1B66979  15.512  28.382   6.263
 5321POPC   C2B66980  15.672  28.276   6.691
 5321POPC   C3B66981  15.497  28.371   7.088
 5321POPC   C4B66982  15.405  28.345   7.514
 5322POPC   NC366983   1.624  19.895   5.250
 5322POPC   PO466984   0.951  20.135   5.288
 5322POPC   GL166985   1.021  19.971   5.735
 5322POPC   GL266986   1.112  20.232   5.975
 5322POPC   C1A66987   1.144  19.768   6.160
 5322POPC   D2A66988   1.287  19.857   6.582
 5322POPC   C3A66989   1.227  19.536   6.913
 5322POPC   C4A66990   1.348  19.693   7.293
 5322POPC   C1B66991   0.711  20.044   6.121
 5322POPC   C2B66992   0.698  19.887   6.528
 5322POPC   C3B66993   0.872  19.918   6.937
 5322POPC   C4B66994   0.841  19.629   7.283
 5323POPC   NC366995   0.619   2.441   5.570
 5323POPC   PO466996   0.117   2.516   5.080
 5323POPC   GL166997   0.140   2.675   5.663
 5323POPC   GL266998   0.426   2.909   5.800
 5323POPC   C1A66999   0.139   2.687   6.167
 5323POPC   D2A67000   0.429   2.910   6.509
 5323POPC   C3A67001   0.487   2.735   6.942
 5323POPC   C4A67002   0.192   2.397   7.140
 5323POPC   C1B67003   0.783   2.990   6.125
 5323POPC   C2B67004   0.913   3.075   6.584
 5323POPC   C3B67005   0.785   3.266   6.990
 5323POPC   C4B67006   0.656   3.161   7.480
 5324POPC   NC367007  27.226  32.576   5.636
 5324POPC   PO467008  27.737  32.163   5.296
 5324POPC   GL167009  27.680  32.260   5.788
 5324POPC   GL267010  27.537  32.475   5.997
 5324POPC   C1A67011  27.622  32.035   6.209
 5324POPC   D2A67012  27.823  31.890   6.568
 5324POPC   C3A67013  27.670  32.144   6.863
 5324POPC   C4A67014  27.443  32.089   7.208
 5324POPC   C1B67015  27.934  32.572   6.104
 5324POPC   C2B67016  27.987  32.552   6.522
 5324POPC   C3B67017  28.072  32.483   6.934
 5324POPC   C4B67018  27.880  32.369   7.292
 5325POPC   NC367019  34.226  37.320   5.365
 5325POPC   PO467020  33.792  36.720   5.441
 5325POPC   GL167021  34.052  36.974   5.746
 5325POPC   GL267022  33.783  37.047   5.931
 5325POPC   C1A67023  34.183  37.177   6.194
 5325POPC   D2A67024  34.132  36.971   6.619
 5325POPC   C3A67025  34.187  37.192   7.003
 5325POPC   C4A67026  33.922  37.097   7.345
 5325POPC   C1B67027  33.524  37.110   6.269
 5325POPC   C2B67028  33.618  37.091   6.643
 5325POPC   C3B67029  33.620  36.901   6.996
 5325POPC   C4B67030  33.418  37.032   7.356
 5326POPC   NC367031  34.265  19.876   5.428
 5326POPC   PO467032  34.866  19.501   5.394
 5326POPC   GL167033  34.685  19.833   5.722
 5326POPC   GL267034  34.451  19.645   5.874
 5326POPC   C1A67035  34.526  20.055   6.149
 5326POPC   D2A67036  34.603  20.048   6.592
 5326POPC   C3A67037  34.317  20.022   6.938
 5326POPC   C4A67038  34.294  19.775   7.315
 5326POPC   C1B67039  34.845  19.651   6.166
 5326POPC   C2B67040  34.780  19.566   6.592
 5326POPC   C3B67041  34.771  19.751   7.011
 5326POPC   C4B67042  35.047  19.577   7.298
 5327POPC   NC367043  34.240  20.611   5.289
 5327POPC   PO467044  33.642  20.884   5.399
 5327POPC   GL167045  33.909  20.810   5.732
 5327POPC   GL267046  33.970  20.465   5.700
 5327POPC   C1A67047  33.803  20.657   6.154
 5327POPC   D2A67048  33.827  20.808   6.567
 5327POPC   C3A67049  33.636  20.599   6.953
 5327POPC   C4A67050  33.882  20.800   7.258
 5327POPC   C1B67051  34.040  20.209   6.068
 5327POPC   C2B67052  33.994  20.289   6.500
 5327POPC   C3B67053  34.114  20.482   6.866
 5327POPC   C4B67054  33.994  20.308   7.238
 5328POPC   NC367055   6.460  36.787   5.529
 5328POPC   PO467056   7.191  37.019   5.576
 5328POPC   GL167057   6.853  37.023   5.795
 5328POPC   GL267058   6.802  36.734   5.920
 5328POPC   C1A67059   6.597  37.119   6.177
 5328POPC   D2A67060   6.436  37.251   6.587
 5328POPC   C3A67061   6.687  37.188   6.961
 5328POPC   C4A67062   6.396  37.144   7.257
 5328POPC   C1B67063   6.606  36.612   6.285
 5328POPC   C2B67064   6.621  36.751   6.698
 5328POPC   C3B67065   6.638  36.711   7.149
 5328POPC   C4B67066   6.955  36.576   7.442
 5329POPC   NC367067  43.956  31.136   5.167
 5329POPC   PO467068  43.949  30.514   5.452
 5329POPC   GL167069  43.897  30.842   5.745
 5329POPC   GL267070  43.588  30.877   5.961
 5329POPC   C1A67071  44.014  30.913   6.198
 5329POPC   D2A67072  43.855  31.029   6.582
 5329POPC   C3A67073  44.087  30.900   6.934
 5329POPC   C4A67074  44.039  30.931   7.374
 5329POPC   C1B67075  43.782  30.472   6.092
 5329POPC   C2B67076  43.982  30.499   6.519
 5329POPC   C3B67077  43.732  30.544   6.891
 5329POPC   C4B67078  43.576  30.546   7.304
 5330POPC   NC367079  25.291  37.837   5.489
 5330POPC   PO467080  25.435  37.205   5.380
 5330POPC   GL167081  25.378  37.478   5.821
 5330POPC   GL267082  25.015  37.683   5.899
 5330POPC   C1A67083  25.402  37.647   6.244
 5330POPC   D2A67084  24.983  37.683   6.474
 5330POPC   C3A67085  25.057  37.712   6.909
 5330POPC   C4A67086  25.373  37.466   7.158
 5330POPC   C1B67087  25.129  38.067   6.176
 5330POPC   C2B67088  25.364  38.018   6.602
 5330POPC   C3B67089  25.434  38.060   7.048
 5330POPC   C4B67090  25.162  37.924   7.368
 5331POPC   NC367091  37.422  35.806   5.362
 5331POPC   PO467092  37.990  36.169   5.238
 5331POPC   GL167093  37.682  36.134   5.661
 5331POPC   GL267094  37.347  35.947   5.835
 5331POPC   C1A67095  37.653  36.307   6.112
 5331POPC   D2A67096  37.928  36.381   6.482
 5331POPC   C3A67097  37.866  36.248   6.911
 5331POPC   C4A67098  37.829  36.444   7.289
 5331POPC   C1B67099  37.234  36.076   6.246
 5331POPC   C2B67100  37.465  36.150   6.596
 5331POPC   C3B67101  37.386  36.371   6.947
 5331POPC   C4B67102  37.366  36.169   7.295
 5332POPC   NC367103   1.049  36.606   5.337
 5332POPC   PO467104   1.430  35.998   5.325
 5332POPC   GL167105   1.468  36.060   5.804
 5332POPC   GL267106   1.562  36.379   5.999
 5332POPC   C1A67107   1.356  35.903   6.226
 5332POPC   D2A67108   1.222  35.963   6.651
 5332POPC   C3A67109   1.496  36.026   6.991
 5332POPC   C4A67110   1.544  36.400   7.198
 5332POPC   C1B67111   1.159  36.377   6.279
 5332POPC   C2B67112   0.938  36.381   6.721
 5332POPC   C3B67113   1.040  36.209   7.150
 5332POPC   C4B67114   0.896  36.021   7.557
 5333POPC   NC367115  13.870  30.499   5.524
 5333POPC   PO467116  13.406  30.952   5.451
 5333POPC   GL167117  13.538  30.764   5.843
 5333POPC   GL267118  13.372  30.456   5.847
 5333POPC   C1A67119  13.865  30.671   6.185
 5333POPC   D2A67120  13.996  30.862   6.579
 5333POPC   C3A67121  13.775  30.846   6.957
 5333POPC   C4A67122  13.580  30.873   7.304
 5333POPC   C1B67123  13.486  30.342   6.234
 5333POPC   C2B67124  13.516  30.530   6.642
 5333POPC   C3B67125  13.405  30.442   7.069
 5333POPC   C4B67126  13.423  30.260   7.492
 5334POPC   NC367127  34.591   8.321   5.352
 5334POPC   PO467128  34.488   7.607   5.407
 5334POPC   GL167129  34.652   7.952   5.730
 5334POPC   GL267130  34.700   8.352   5.845
 5334POPC   C1A67131  34.613   8.000   6.180
 5334POPC   D2A67132  34.578   8.239   6.551
 5334POPC   C3A67133  34.532   7.969   6.831
 5334POPC   C4A67134  34.587   7.935   7.216
 5334POPC   C1B67135  34.892   8.479   6.242
 5334POPC   C2B67136  34.850   8.643   6.691
 5334POPC   C3B67137  34.698   8.448   7.105
 5334POPC   C4B67138  34.944   8.334   7.508
 5335POPC   NC367139  25.783  33.600   5.607
 5335POPC   PO467140  25.562  34.135   5.292
 5335POPC   GL167141  25.300  33.902   5.655
 5335POPC   GL267142  25.109  33.567   5.591
 5335POPC   C1A67143  25.162  33.991   6.114
 5335POPC   D2A67144  25.324  34.172   6.524
 5335POPC   C3A67145  25.139  34.106   6.907
 5335POPC   C4A67146  25.331  33.964   7.329
 5335POPC   C1B67147  25.194  33.480   5.986
 5335POPC   C2B67148  25.301  33.575   6.382
 5335POPC   C3B67149  25.389  33.415   6.744
 5335POPC   C4B67150  25.136  33.603   7.040
 5336POPC   NC367151  18.466  29.182   5.626
 5336POPC   PO467152  17.918  28.778   5.554
 5336POPC   GL167153  18.122  28.977   5.934
 5336POPC   GL267154  18.158  29.380   5.963
 5336POPC   C1A67155  18.299  29.061   6.324
 5336POPC   D2A67156  18.307  29.404   6.596
 5336POPC   C3A67157  18.262  29.223   6.992
 5336POPC   C4A67158  18.287  28.982   7.352
 5336POPC   C1B67159  18.606  29.439   6.169
 5336POPC   C2B67160  18.884  29.411   6.500
 5336POPC   C3B67161  18.746  29.462   6.893
 5336POPC   C4B67162  18.671  29.333   7.291
 5337POPC   NC367163  40.575  34.572   5.493
 5337POPC   PO467164  41.270  34.349   5.640
 5337POPC   GL167165  40.901  34.415   5.879
 5337POPC   GL267166  40.994  34.756   5.901
 5337POPC   C1A67167  40.710  34.380   6.314
 5337POPC   D2A67168  40.964  34.281   6.690
 5337POPC   C3A67169  40.897  34.456   7.114
 5337POPC   C4A67170  40.638  34.785   7.327
 5337POPC   C1B67171  41.135  34.645   6.305
 5337POPC   C2B67172  41.011  34.794   6.713
 5337POPC   C3B67173  41.106  34.938   7.128
 5337POPC   C4B67174  41.072  34.912   7.587
 5338POPC   NC367175   4.007  28.763   5.192
 5338POPC   PO467176   3.378  28.933   5.303
 5338POPC   GL167177   3.645  29.104   5.654
 5338POPC   GL267178   3.327  29.143   5.793
 5338POPC   C1A67179   3.761  29.152   6.125
 5338POPC   D2A67180   3.572  29.095   6.554
 5338POPC   C3A67181   3.793  29.179   6.931
 5338POPC   C4A67182   3.653  29.284   7.312
 5338POPC   C1B67183   3.254  29.271   6.199
 5338POPC   C2B67184   3.148  29.386   6.632
 5338POPC   C3B67185   3.251  29.210   7.032
 5338POPC   C4B67186   3.095  29.346   7.455
 5339POPC   NC367187  44.521  39.904   5.731
 5339POPC   PO467188  43.977  39.914   5.371
 5339POPC   GL167189  43.971  39.950   5.844
 5339POPC   GL267190  44.142  40.238   5.899
 5339POPC   C1A67191  44.012  39.963   6.315
 5339POPC   D2A67192  44.088  39.784   6.738
 5339POPC   C3A67193  43.968  40.034   7.076
 5339POPC   C4A67194  43.948  39.981   7.477
 5339POPC   C1B67195  44.239  40.443   6.276
 5339POPC   C2B67196  44.210  40.310   6.695
 5339POPC   C3B67197  44.039  40.530   7.044
 5339POPC   C4B67198  44.078  40.464   7.524
 5340POPC   NC367199  41.489   0.676   5.588
 5340POPC   PO467200  41.591  44.991   5.444
 5340POPC   GL167201  41.633   0.238   5.845
 5340POPC   GL267202  41.268   0.278   5.826
 5340POPC   C1A67203  41.563   0.546   6.219
 5340POPC   D2A67204  41.381   0.717   6.606
 5340POPC   C3A67205  41.565   0.666   7.029
 5340POPC   C4A67206  41.308   0.437   7.291
 5340POPC   C1B67207  41.224   0.114   6.212
 5340POPC   C2B67208  41.445   0.185   6.571
 5340POPC   C3B67209  41.465   0.091   6.970
 5340POPC   C4B67210  41.786   0.232   7.222
 5341POPC   NC367211  13.372  35.241   5.487
 5341POPC   PO467212  13.625  35.841   5.445
 5341POPC   GL167213  13.780  35.503   5.704
 5341POPC   GL267214  13.594  35.223   5.942
 5341POPC   C1A67215  13.879  35.595   6.119
 5341POPC   D2A67216  13.643  35.421   6.458
 5341POPC   C3A67217  13.892  35.193   6.745
 5341POPC   C4A67218  13.935  35.388   7.142
 5341POPC   C1B67219  13.364  34.995   6.275
 5341POPC   C2B67220  13.244  35.168   6.671
 5341POPC   C3B67221  13.464  35.245   7.028
 5341POPC   C4B67222  13.742  34.928   7.239
 5342POPC   NC367223  18.309  27.053   5.579
 5342POPC   PO467224  18.319  27.863   5.509
 5342POPC   GL167225  18.216  27.560   5.810
 5342POPC   GL267226  18.495  27.332   5.963
 5342POPC   C1A67227  18.155  27.675   6.239
 5342POPC   D2A67228  18.430  27.481   6.540
 5342POPC   C3A67229  18.281  27.653   6.907
 5342POPC   C4A67230  18.180  27.501   7.317
 5342POPC   C1B67231  18.096  27.198   6.157
 5342POPC   C2B67232  17.999  27.221   6.557
 5342POPC   C3B67233  17.940  27.226   6.960
 5342POPC   C4B67234  17.822  27.123   7.361
 5343POPC   NC367235  28.871  33.371   5.443
 5343POPC   PO467236  29.299  32.846   5.289
 5343POPC   GL167237  29.266  32.828   5.749
 5343POPC   GL267238  28.971  32.719   5.847
 5343POPC   C1A67239  29.308  33.008   6.191
 5343POPC   D2A67240  29.291  33.166   6.637
 5343POPC   C3A67241  29.368  32.922   7.000
 5343POPC   C4A67242  29.601  33.123   7.323
 5343POPC   C1B67243  28.853  32.763   6.221
 5343POPC   C2B67244  28.819  33.040   6.516
 5343POPC   C3B67245  28.829  33.002   6.945
 5343POPC   C4B67246  28.964  32.710   7.278
 5344POPC   NC367247   6.958  37.852   5.359
 5344POPC   PO467248   6.631  37.286   5.241
 5344POPC   GL167249   6.648  37.478   5.735
 5344POPC   GL267250   6.812  37.779   5.832
 5344POPC   C1A67251   6.538  37.619   6.215
 5344POPC   D2A67252   6.274  37.753   6.580
 5344POPC   C3A67253   6.436  37.628   6.980
 5344POPC   C4A67254   6.684  37.558   7.333
 5344POPC   C1B67255   6.968  37.907   6.245
 5344POPC   C2B67256   6.832  37.752   6.663
 5344POPC   C3B67257   6.967  37.896   7.081
 5344POPC   C4B67258   7.352  37.840   7.299
 5345POPC   NC367259  18.563  31.107   5.572
 5345POPC   PO467260  18.150  31.682   5.461
 5345POPC   GL167261  18.265  31.554   5.877
 5345POPC   GL267262  18.587  31.691   5.812
 5345POPC   C1A67263  18.169  31.497   6.350
 5345POPC   D2A67264  18.051  31.449   6.802
 5345POPC   C3A67265  18.130  31.660   7.142
 5345POPC   C4A67266  18.317  31.445   7.467
 5345POPC   C1B67267  18.657  31.678   6.242
 5345POPC   C2B67268  18.478  31.782   6.647
 5345POPC   C3B67269  18.609  31.579   7.015
 5345POPC   C4B67270  18.873  31.437   7.324
 5346POPC   NC367271  28.194  20.758   5.410
 5346POPC   PO467272  28.780  20.991   5.570
 5346POPC   GL167273  28.594  20.586   5.741
 5346POPC   GL267274  28.231  20.444   5.816
 5346POPC   C1A67275  28.644  20.374   6.126
 5346POPC   D2A67276  28.481  20.160   6.481
 5346POPC   C3A67277  28.245  20.382   6.809
 5346POPC   C4A67278  28.409  20.344   7.207
 5346POPC   C1B67279  28.208  20.556   6.284
 5346POPC   C2B67280  28.567  20.704   6.564
 5346POPC   C3B67281  28.567  20.836   7.012
 5346POPC   C4B67282  28.176  20.780   7.261
 5347POPC   NC367283  31.458  34.725   5.293
 5347POPC   PO467284  31.728  34.200   5.576
 5347POPC   GL167285  31.635  34.573   5.772
 5347POPC   GL267286  31.308  34.477   5.790
 5347POPC   C1A67287  31.650  34.705   6.204
 5347POPC   D2A67288  31.767  34.473   6.580
 5347POPC   C3A67289  31.876  34.653   6.974
 5347POPC   C4A67290  31.733  34.462   7.380
 5347POPC   C1B67291  31.140  34.711   6.131
 5347POPC   C2B67292  31.275  34.802   6.547
 5347POPC   C3B67293  31.336  34.587   6.926
 5347POPC   C4B67294  31.044  34.751   7.251
 5348POPC   NC367295   0.109  27.362   5.562
 5348POPC   PO467296   0.526  27.894   5.217
 5348POPC   GL167297   0.288  27.932   5.759
 5348POPC   GL267298   0.263  27.608   6.004
 5348POPC   C1A67299   0.517  27.980   6.182
 5348POPC   D2A67300   0.464  27.620   6.475
 5348POPC   C3A67301   0.441  27.738   6.911
 5348POPC   C4A67302   0.560  27.577   7.331
 5348POPC   C1B67303   0.260  27.199   6.165
 5348POPC   C2B67304   0.347  27.029   6.489
 5348POPC   C3B67305   0.335  27.249   6.850
 5348POPC   C4B67306   0.277  27.152   7.248
 5349POPC   NC367307  24.749  26.413   5.545
 5349POPC   PO467308  25.033  25.810   5.493
 5349POPC   GL167309  24.756  25.923   5.844
 5349POPC   GL267310  24.492  25.649   5.881
 5349POPC   C1A67311  24.642  26.215   6.209
 5349POPC   D2A67312  24.828  26.127   6.628
 5349POPC   C3A67313  24.762  26.424   6.951
 5349POPC   C4A67314  24.485  26.336   7.258
 5349POPC   C1B67315  24.632  25.720   6.321
 5349POPC   C2B67316  24.578  25.579   6.742
 5349POPC   C3B67317  24.401  25.780   7.100
 5349POPC   C4B67318  24.781  25.958   7.160
 5350POPC   NC367319  24.044  15.488   5.437
 5350POPC   PO467320  24.395  14.864   5.309
 5350POPC   GL167321  24.313  15.089   5.707
 5350POPC   GL267322  24.126  14.796   5.816
 5350POPC   C1A67323  24.463  15.304   6.113
 5350POPC   D2A67324  24.694  15.451   6.503
 5350POPC   C3A67325  24.448  15.419   6.892
 5350POPC   C4A67326  24.560  15.278   7.298
 5350POPC   C1B67327  24.399  14.805   6.152
 5350POPC   C2B67328  24.408  15.027   6.554
 5350POPC   C3B67329  24.470  14.865   6.959
 5350POPC   C4B67330  24.537  14.758   7.353
 5351POPC   NC367331  34.785  40.136   5.565
 5351POPC   PO467332  34.716  39.555   5.441
 5351POPC   GL167333  34.659  39.696   5.843
 5351POPC   GL267334  34.289  39.689   5.789
 5351POPC   C1A67335  34.827  39.839   6.272
 5351POPC   D2A67336  34.660  40.052   6.673
 5351POPC   C3A67337  34.892  40.098   7.086
 5351POPC   C4A67338  34.819  40.183   7.558
 5351POPC   C1B67339  34.305  39.875   6.217
 5351POPC   C2B67340  34.126  39.934   6.623
 5351POPC   C3B67341  34.255  40.194   6.980
 5351POPC   C4B67342  34.332  40.159   7.420
 5352POPC   NC367343  42.091  13.641   5.333
 5352POPC   PO467344  42.673  13.362   5.305
 5352POPC   GL167345  42.544  13.718   5.630
 5352POPC   GL267346  42.216  13.697   5.835
 5352POPC   C1A67347  42.605  13.957   6.057
 5352POPC   D2A67348  42.505  14.108   6.500
 5352POPC   C3A67349  42.652  13.913   6.878
 5352POPC   C4A67350  42.518  13.690   7.252
 5352POPC   C1B67351  42.255  13.664   6.301
 5352POPC   C2B67352  42.214  13.399   6.684
 5352POPC   C3B67353  42.066  13.560   7.088
 5352POPC   C4B67354  42.087  13.454   7.562
 5353POPC   NC367355  33.705  34.692   5.350
 5353POPC   PO467356  34.021  34.149   5.199
 5353POPC   GL167357  34.001  34.324   5.707
 5353POPC   GL267358  33.832  34.649   5.839
 5353POPC   C1A67359  33.775  34.232   6.131
 5353POPC   D2A67360  33.735  34.466   6.493
 5353POPC   C3A67361  33.908  34.362   6.868
 5353POPC   C4A67362  33.768  34.356   7.293
 5353POPC   C1B67363  33.583  34.841   6.172
 5353POPC   C2B67364  33.362  34.813   6.587
 5353POPC   C3B67365  33.440  34.616   6.995
 5353POPC   C4B67366  33.510  34.814   7.419
 5354POPC   NC367367  15.725   8.900   5.426
 5354POPC   PO467368  16.364   8.616   5.241
 5354POPC   GL167369  16.230   8.889   5.622
 5354POPC   GL267370  16.097   8.617   5.782
 5354POPC   C1A67371  16.006   9.024   6.055
 5354POPC   D2A67372  16.033   8.855   6.487
 5354POPC   C3A67373  15.854   8.905   6.901
 5354POPC   C4A67374  15.866   9.180   7.232
 5354POPC   C1B67375  16.391   8.692   6.142
 5354POPC   C2B67376  16.386   8.501   6.571
 5354POPC   C3B67377  16.278   8.616   6.992
 5354POPC   C4B67378  16.215   8.855   7.379
 5355POPC   NC367379  12.569  11.862   5.484
 5355POPC   PO467380  13.199  11.768   5.493
 5355POPC   GL167381  12.976  12.099   5.741
 5355POPC   GL267382  12.619  12.041   5.951
 5355POPC   C1A67383  13.052  12.175   6.160
 5355POPC   D2A67384  12.813  12.096   6.521
 5355POPC   C3A67385  12.995  12.261   6.883
 5355POPC   C4A67386  12.925  12.314   7.308
 5355POPC   C1B67387  12.549  11.714   6.297
 5355POPC   C2B67388  12.645  11.675   6.758
 5355POPC   C3B67389  12.628  11.964   7.098
 5355POPC   C4B67390  12.501  12.051   7.539
 5356POPC   NC367391   6.790  27.803   5.436
 5356POPC   PO467392   6.189  27.565   5.270
 5356POPC   GL167393   6.406  27.459   5.717
 5356POPC   GL267394   6.727  27.658   5.905
 5356POPC   C1A67395   6.407  27.413   6.196
 5356POPC   D2A67396   6.668  27.292   6.552
 5356POPC   C3A67397   6.450  27.354   6.926
 5356POPC   C4A67398   6.579  27.619   7.248
 5356POPC   C1B67399   6.694  27.893   6.299
 5356POPC   C2B67400   6.683  27.798   6.743
 5356POPC   C3B67401   6.956  27.884   7.077
 5356POPC   C4B67402   6.981  28.233   7.263
 5357POPC   NC367403   3.418  15.437   5.416
 5357POPC   PO467404   3.586  14.752   5.432
 5357POPC   GL167405   3.627  14.963   5.832
 5357POPC   GL267406   3.485  15.243   5.889
 5357POPC   C1A67407   3.630  14.856   6.258
 5357POPC   D2A67408   3.581  15.093   6.624
 5357POPC   C3A67409   3.698  14.930   7.008
 5357POPC   C4A67410   3.589  14.979   7.408
 5357POPC   C1B67411   3.332  15.469   6.230
 5357POPC   C2B67412   3.370  15.581   6.639
 5357POPC   C3B67413   3.456  15.451   7.041
 5357POPC   C4B67414   3.293  15.408   7.457
 5358POPC   NC367415  37.883  37.585   5.379
 5358POPC   PO467416  37.152  37.627   5.402
 5358POPC   GL167417  37.481  37.547   5.716
 5358POPC   GL267418  37.627  37.876   5.730
 5358POPC   C1A67419  37.690  37.598   6.166
 5358POPC   D2A67420  37.552  37.606   6.631
 5358POPC   C3A67421  37.876  37.663   6.974
 5358POPC   C4A67422  38.118  37.578   7.356
 5358POPC   C1B67423  37.777  38.113   6.091
 5358POPC   C2B67424  37.674  38.260   6.470
 5358POPC   C3B67425  37.741  38.151   6.877
 5358POPC   C4B67426  37.813  38.050   7.305
 5359POPC   NC367427  18.589  28.254   5.522
 5359POPC   PO467428  19.217  28.347   5.386
 5359POPC   GL167429  19.115  28.358   5.813
 5359POPC   GL267430  18.835  28.545   5.874
 5359POPC   C1A67431  19.215  28.512   6.239
 5359POPC   D2A67432  19.165  28.228   6.596
 5359POPC   C3A67433  19.167  28.446   6.994
 5359POPC   C4A67434  19.382  28.375   7.404
 5359POPC   C1B67435  18.760  28.291   6.227
 5359POPC   C2B67436  18.685  28.437   6.667
 5359POPC   C3B67437  18.712  28.227   7.049
 5359POPC   C4B67438  19.003  28.056   7.301
 5360POPC   NC367439  39.032   8.618   5.428
 5360POPC   PO467440  39.530   9.058   5.523
 5360POPC   GL167441  39.385   8.905   5.824
 5360POPC   GL267442  39.089   8.957   5.826
 5360POPC   C1A67443  39.389   8.929   6.223
 5360POPC   D2A67444  39.175   9.016   6.534
 5360POPC   C3A67445  39.290   8.718   6.760
 5360POPC   C4A67446  39.519   8.745   7.093
 5360POPC   C1B67447  38.793   9.114   6.164
 5360POPC   C2B67448  38.720   9.203   6.624
 5360POPC   C3B67449  39.001   9.187   6.992
 5360POPC   C4B67450  39.452   9.256   7.097
 5361POPC   NC367451   3.763   4.815   5.474
 5361POPC   PO467452   3.198   5.067   5.671
 5361POPC   GL167453   3.590   5.138   5.869
 5361POPC   GL267454   3.914   4.939   5.943
 5361POPC   C1A67455   3.517   5.023   6.272
 5361POPC   D2A67456   3.185   5.129   6.528
 5361POPC   C3A67457   3.366   5.048   6.900
 5361POPC   C4A67458   3.600   5.304   7.157
 5361POPC   C1B67459   3.953   5.287   6.233
 5361POPC   C2B67460   3.764   5.289   6.640
 5361POPC   C3B67461   3.910   4.985   6.931
 5361POPC   C4B67462   4.107   5.173   7.286
 5362POPC   NC367463  35.922  26.986   5.658
 5362POPC   PO467464  36.349  26.613   5.320
 5362POPC   GL167465  36.296  26.565   5.780
 5362POPC   GL267466  35.942  26.504   5.878
 5362POPC   C1A67467  36.316  26.565   6.249
 5362POPC   D2A67468  36.405  26.787   6.631
 5362POPC   C3A67469  36.227  26.606   6.995
 5362POPC   C4A67470  36.249  26.865   7.353
 5362POPC   C1B67471  35.828  26.731   6.242
 5362POPC   C2B67472  35.876  26.826   6.652
 5362POPC   C3B67473  35.900  26.981   7.040
 5362POPC   C4B67474  35.667  26.644   7.220
 5363POPC   NC367475  27.141  20.073   5.565
 5363POPC   PO467476  26.639  19.617   5.451
 5363POPC   GL167477  26.866  19.678   5.823
 5363POPC   GL267478  26.551  19.794   5.931
 5363POPC   C1A67479  26.880  19.713   6.297
 5363POPC   D2A67480  26.885  19.848   6.702
 5363POPC   C3A67481  26.847  19.517   7.014
 5363POPC   C4A67482  27.114  19.404   7.335
 5363POPC   C1B67483  26.464  19.435   6.193
 5363POPC   C2B67484  26.495  19.505   6.631
 5363POPC   C3B67485  26.439  19.810   6.963
 5363POPC   C4B67486  26.503  19.933   7.407
 5364POPC   NC367487  25.642  11.610   5.379
 5364POPC   PO467488  25.019  11.396   5.576
 5364POPC   GL167489  25.217  11.319   5.945
 5364POPC   GL267490  25.548  11.472   5.882
 5364POPC   C1A67491  25.234  11.397   6.363
 5364POPC   D2A67492  24.944  11.482   6.692
 5364POPC   C3A67493  25.017  11.094   6.928
 5364POPC   C4A67494  25.364  11.131   7.227
 5364POPC   C1B67495  25.547  11.816   6.215
 5364POPC   C2B67496  25.358  11.826   6.606
 5364POPC   C3B67497  25.400  11.552   6.925
 5364POPC   C4B67498  25.472  11.617   7.325
 5365POPC   NC367499   7.491  35.668   5.136
 5365POPC   PO467500   7.256  35.117   5.384
 5365POPC   GL167501   7.489  35.452   5.661
 5365POPC   GL267502   7.225  35.632   5.837
 5365POPC   C1A67503   7.646  35.471   6.126
 5365POPC   D2A67504   7.580  35.180   6.499
 5365POPC   C3A67505   7.721  35.326   6.896
 5365POPC   C4A67506   7.545  35.437   7.262
 5365POPC   C1B67507   7.167  35.253   6.126
 5365POPC   C2B67508   7.048  35.115   6.554
 5365POPC   C3B67509   7.216  35.197   6.961
 5365POPC   C4B67510   7.062  35.524   7.274
 5366POPC   NC367511  40.576   1.906   5.481
 5366POPC   PO467512  41.126   2.193   5.288
 5366POPC   GL167513  41.003   2.046   5.741
 5366POPC   GL267514  40.668   2.021   5.942
 5366POPC   C1A67515  41.114   1.996   6.181
 5366POPC   D2A67516  41.096   1.739   6.572
 5366POPC   C3A67517  41.019   1.959   6.936
 5366POPC   C4A67518  40.717   1.734   7.202
 5366POPC   C1B67519  40.682   1.773   6.293
 5366POPC   C2B67520  40.576   1.914   6.695
 5366POPC   C3B67521  40.338   2.026   7.042
 5366POPC   C4B67522  40.371   2.071   7.504
 5367POPC   NC367523   7.929   5.281   5.311
 5367POPC   PO467524   7.319   5.501   5.380
 5367POPC   GL167525   7.402   5.145   5.712
 5367POPC   GL267526   7.734   4.956   5.676
 5367POPC   C1A67527   7.358   5.010   6.164
 5367POPC   D2A67528   7.235   5.110   6.587
 5367POPC   C3A67529   7.475   4.998   6.921
 5367POPC   C4A67530   7.431   4.999   7.346
 5367POPC   C1B67531   7.794   5.231   6.039
 5367POPC   C2B67532   7.736   5.273   6.505
 5367POPC   C3B67533   7.781   5.398   6.946
 5367POPC   C4B67534   7.922   5.096   7.236
 5368POPC   NC367535  31.635  13.124   5.408
 5368POPC   PO467536  31.209  12.612   5.512
 5368POPC   GL167537  31.533  12.754   5.798
 5368POPC   GL267538  31.639  13.090   5.904
 5368POPC   C1A67539  31.547  12.700   6.229
 5368POPC   D2A67540  31.386  12.807   6.609
 5368POPC   C3A67541  31.473  12.697   6.999
 5368POPC   C4A67542  31.724  12.786   7.370
 5368POPC   C1B67543  31.348  13.188   6.220
 5368POPC   C2B67544  31.289  13.320   6.619
 5368POPC   C3B67545  31.441  13.202   6.986
 5368POPC   C4B67546  31.723  13.282   7.268
 5369POPC   NC367547  10.113  26.649   5.597
 5369POPC   PO467548  10.642  26.946   5.555
 5369POPC   GL167549  10.763  26.780   5.945
 5369POPC   GL267550  10.669  26.482   5.903
 5369POPC   C1A67551  10.771  26.662   6.389
 5369POPC   D2A67552  10.765  26.994   6.683
 5369POPC   C3A67553  10.741  26.883   7.107
 5369POPC   C4A67554  10.380  26.947   7.323
 5369POPC   C1B67555  10.316  26.542   6.207
 5369POPC   C2B67556  10.283  26.370   6.623
 5369POPC   C3B67557  10.339  26.524   7.043
 5369POPC   C4B67558  10.382  26.503   7.528
 5370POPC   NC367559  42.083  25.870   5.265
 5370POPC   PO467560  42.722  26.152   5.197
 5370POPC   GL167561  42.465  26.051   5.594
 5370POPC   GL267562  42.317  25.730   5.678
 5370POPC   C1A67563  42.400  26.099   6.064
 5370POPC   D2A67564  42.412  26.227   6.517
 5370POPC   C3A67565  42.190  26.030   6.865
 5370POPC   C4A67566  42.461  25.990   7.247
 5370POPC   C1B67567  41.965  25.814   5.961
 5370POPC   C2B67568  41.899  25.815   6.410
 5370POPC   C3B67569  41.983  25.538   6.763
 5370POPC   C4B67570  42.080  25.636   7.189
 5371POPC   NC367571  32.349   7.718   5.505
 5371POPC   PO467572  32.117   8.307   5.349
 5371POPC   GL167573  32.131   8.299   5.810
 5371POPC   GL267574  32.437   8.552   5.862
 5371POPC   C1A67575  32.071   8.058   6.225
 5371POPC   D2A67576  32.374   8.167   6.574
 5371POPC   C3A67577  32.296   8.171   6.996
 5371POPC   C4A67578  32.558   8.109   7.353
 5371POPC   C1B67579  32.230   8.561   6.266
 5371POPC   C2B67580  31.878   8.423   6.551
 5371POPC   C3B67581  31.962   8.538   6.971
 5371POPC   C4B67582  32.403   8.668   7.071
 5372POPC   NC367583  14.826  42.248   5.544
 5372POPC   PO467584  14.317  42.172   5.095
 5372POPC   GL167585  14.310  42.318   5.559
 5372POPC   GL267586  14.071  42.088   5.746
 5372POPC   C1A67587  14.360  42.395   6.029
 5372POPC   D2A67588  14.311  42.350   6.492
 5372POPC   C3A67589  14.272  42.584   6.879
 5372POPC   C4A67590  14.289  42.485   7.339
 5372POPC   C1B67591  14.180  41.957   6.188
 5372POPC   C2B67592  14.016  41.957   6.609
 5372POPC   C3B67593  14.273  42.039   6.989
 5372POPC   C4B67594  14.172  41.858   7.386
 5373POPC   NC367595   1.292  35.698   4.996
 5373POPC   PO467596   1.357  35.174   5.421
 5373POPC   GL167597   1.102  35.289   5.767
 5373POPC   GL267598   1.395  35.297   5.974
 5373POPC   C1A67599   0.997  35.506   6.183
 5373POPC   D2A67600   1.308  35.470   6.505
 5373POPC   C3A67601   1.256  35.529   6.935
 5373POPC   C4A67602   1.645  35.569   7.160
 5373POPC   C1B67603   1.161  35.019   6.276
 5373POPC   C2B67604   0.949  35.128   6.687
 5373POPC   C3B67605   0.864  35.186   7.162
 5373POPC   C4B67606   0.947  34.952   7.579
 5374POPC   NC367607   3.094  20.869   5.534
 5374POPC   PO467608   2.517  20.526   5.425
 5374POPC   GL167609   2.573  20.407   5.893
 5374POPC   GL267610   2.921  20.543   5.939
 5374POPC   C1A67611   2.623  20.384   6.374
 5374POPC   D2A67612   2.980  20.212   6.626
 5374POPC   C3A67613   2.925  20.393   7.032
 5374POPC   C4A67614   2.500  20.522   7.121
 5374POPC   C1B67615   2.809  20.840   6.282
 5374POPC   C2B67616   2.630  20.817   6.715
 5374POPC   C3B67617   2.729  20.975   7.139
 5374POPC   C4B67618   2.642  21.099   7.574
 5375POPC   NC367619   9.863   6.427   5.546
 5375POPC   PO467620   9.526   7.038   5.571
 5375POPC   GL167621   9.596   6.719   5.862
 5375POPC   GL267622   9.899   6.827   5.888
 5375POPC   C1A67623   9.741   6.491   6.282
 5375POPC   D2A67624   9.680   6.551   6.755
 5375POPC   C3A67625   9.630   6.594   7.225
 5375POPC   C4A67626   9.516   6.441   7.693
 5375POPC   C1B67627   9.721   7.005   6.277
 5375POPC   C2B67628   9.880   7.021   6.697
 5375POPC   C3B67629  10.056   6.895   7.099
 5375POPC   C4B67630   9.959   6.797   7.566
 5376POPC   NC367631  24.381  33.980   5.508
 5376POPC   PO467632  24.510  33.344   5.483
 5376POPC   GL167633  24.599  33.613   5.824
 5376POPC   GL267634  24.793  33.907   5.795
 5376POPC   C1A67635  24.748  33.568   6.243
 5376POPC   D2A67636  24.534  33.588   6.630
 5376POPC   C3A67637  24.613  33.906   6.911
 5376POPC   C4A67638  24.803  34.010   7.275
 5376POPC   C1B67639  24.602  34.046   6.184
 5376POPC   C2B67640  24.286  34.066   6.525
 5376POPC   C3B67641  24.140  34.154   6.947
 5376POPC   C4B67642  24.296  34.120   7.367
 5377POPC   NC367643  27.798  23.489   5.514
 5377POPC   PO467644  27.673  24.232   5.514
 5377POPC   GL167645  27.770  23.946   5.859
 5377POPC   GL267646  27.552  23.648   5.913
 5377POPC   C1A67647  27.823  23.816   6.304
 5377POPC   D2A67648  27.507  23.732   6.644
 5377POPC   C3A67649  27.614  23.529   7.008
 5377POPC   C4A67650  27.702  23.844   7.235
 5377POPC   C1B67651  27.245  23.721   6.218
 5377POPC   C2B67652  27.018  23.529   6.544
 5377POPC   C3B67653  27.108  23.623   6.970
 5377POPC   C4B67654  27.201  23.382   7.349
 5378POPC   NC367655  17.095   5.627   5.300
 5378POPC   PO467656  16.522   6.022   5.315
 5378POPC   GL167657  16.713   5.882   5.774
 5378POPC   GL267658  17.065   5.753   5.835
 5378POPC   C1A67659  16.762   5.820   6.276
 5378POPC   D2A67660  16.640   5.983   6.734
 5378POPC   C3A67661  16.563   5.921   7.188
 5378POPC   C4A67662  16.382   5.923   7.641
 5378POPC   C1B67663  17.167   5.492   6.243
 5378POPC   C2B67664  17.153   5.440   6.725
 5378POPC   C3B67665  17.068   5.729   7.122
 5378POPC   C4B67666  17.317   5.665   7.526
 5379POPC   NC367667  24.375  41.214   5.453
 5379POPC   PO467668  24.644  40.539   5.440
 5379POPC   GL167669  24.743  40.744   5.838
 5379POPC   GL267670  24.373  40.741   5.884
 5379POPC   C1A67671  24.678  40.709   6.308
 5379POPC   D2A67672  24.351  40.677   6.652
 5379POPC   C3A67673  24.587  40.666   7.030
 5379POPC   C4A67674  24.937  40.443   7.127
 5379POPC   C1B67675  24.232  40.999   6.238
 5379POPC   C2B67676  24.043  41.098   6.638
 5379POPC   C3B67677  24.197  41.001   7.065
 5379POPC   C4B67678  24.234  40.696   7.407
 5380POPC   NC367679  27.815  36.521   5.642
 5380POPC   PO467680  27.264  36.869   5.330
 5380POPC   GL167681  27.460  36.940   5.735
 5380POPC   GL267682  27.452  36.709   5.955
 5380POPC   C1A67683  27.676  37.129   6.081
 5380POPC   D2A67684  27.813  36.928   6.444
 5380POPC   C3A67685  27.683  37.012   6.875
 5380POPC   C4A67686  27.854  36.798   7.225
 5380POPC   C1B67687  27.146  36.581   6.240
 5380POPC   C2B67688  27.079  36.753   6.632
 5380POPC   C3B67689  27.221  36.603   7.029
 5380POPC   C4B67690  27.362  36.927   7.303
 5381POPC   NC367691  42.759  44.696   5.507
 5381POPC   PO467692  43.366  44.389   5.423
 5381POPC   GL167693  43.252  44.639   5.772
 5381POPC   GL267694  43.308   0.006   5.782
 5381POPC   C1A67695  43.121  44.695   6.181
 5381POPC   D2A67696  43.092  44.460   6.566
 5381POPC   C3A67697  42.863  44.610   6.892
 5381POPC   C4A67698  43.013  44.573   7.281
 5381POPC   C1B67699  43.503   0.062   6.183
 5381POPC   C2B67700  43.376  44.912   6.579
 5381POPC   C3B67701  43.392  44.728   6.963
 5381POPC   C4B67702  43.342  44.955   7.347
 5382POPC   NC367703  43.816  15.296   5.283
 5382POPC   PO467704  43.706  14.652   5.651
 5382POPC   GL167705  43.716  15.043   5.795
 5382POPC   GL267706  43.939  15.304   5.857
 5382POPC   C1A67707  43.661  15.118   6.236
 5382POPC   D2A67708  43.795  15.342   6.638
 5382POPC   C3A67709  43.604  15.148   7.028
 5382POPC   C4A67710  43.739  15.257   7.460
 5382POPC   C1B67711  44.166  15.097   6.209
 5382POPC   C2B67712  44.300  15.212   6.628
 5382POPC   C3B67713  44.116  15.190   7.042
 5382POPC   C4B67714  44.054  14.841   7.288
 5383POPC   NC367715   6.024  40.005   5.396
 5383POPC   PO467716   5.664  40.587   5.530
 5383POPC   GL167717   5.837  40.655   5.905
 5383POPC   GL267718   6.165  40.606   5.769
 5383POPC   C1A67719   5.686  40.756   6.314
 5383POPC   D2A67720   5.750  40.672   6.753
 5383POPC   C3A67721   5.532  40.900   7.074
 5383POPC   C4A67722   5.756  40.789   7.447
 5383POPC   C1B67723   6.279  40.766   6.183
 5383POPC   C2B67724   6.233  40.797   6.640
 5383POPC   C3B67725   6.146  40.742   7.106
 5383POPC   C4B67726   6.153  40.515   7.540
 5384POPC   NC367727  19.406  31.527   5.235
 5384POPC   PO467728  18.752  31.461   5.334
 5384POPC   GL167729  19.068  31.600   5.641
 5384POPC   GL267730  19.188  31.276   5.694
 5384POPC   C1A67731  19.181  31.637   6.103
 5384POPC   D2A67732  19.054  31.437   6.519
 5384POPC   C3A67733  19.129  31.662   6.922
 5384POPC   C4A67734  19.391  31.708   7.304
 5384POPC   C1B67735  19.293  31.134   6.100
 5384POPC   C2B67736  19.550  31.263   6.432
 5384POPC   C3B67737  19.492  31.304   6.860
 5384POPC   C4B67738  19.316  31.199   7.244
 5385POPC   NC367739  25.503  25.856   5.439
 5385POPC   PO467740  25.201  26.446   5.520
 5385POPC   GL167741  25.244  26.145   5.825
 5385POPC   GL267742  25.600  26.066   5.926
 5385POPC   C1A67743  25.148  26.034   6.228
 5385POPC   D2A67744  25.399  26.046   6.599
 5385POPC   C3A67745  25.223  26.163   6.980
 5385POPC   C4A67746  25.403  26.190   7.347
 5385POPC   C1B67747  25.587  25.708   6.254
 5385POPC   C2B67748  25.597  25.583   6.695
 5385POPC   C3B67749  25.623  25.744   7.139
 5385POPC   C4B67750  25.643  25.849   7.633
 5386POPC   NC367751  30.878   6.800   5.032
 5386POPC   PO467752  30.768   7.448   5.319
 5386POPC   GL167753  30.748   7.443   5.758
 5386POPC   GL267754  30.521   7.174   5.784
 5386POPC   C1A67755  30.638   7.611   6.176
 5386POPC   D2A67756  30.492   7.595   6.610
 5386POPC   C3A67757  30.805   7.698   6.949
 5386POPC   C4A67758  30.669   7.672   7.388
 5386POPC   C1B67759  30.744   7.090   6.149
 5386POPC   C2B67760  30.855   7.231   6.560
 5386POPC   C3B67761  30.655   7.213   6.968
 5386POPC   C4B67762  30.969   7.270   7.248
 5387POPC   NC367763  31.059  25.663   5.056
 5387POPC   PO467764  30.616  26.058   5.417
 5387POPC   GL167765  30.513  25.873   5.856
 5387POPC   GL267766  30.860  25.828   5.961
 5387POPC   C1A67767  30.520  25.767   6.332
 5387POPC   D2A67768  30.628  26.035   6.707
 5387POPC   C3A67769  30.646  25.942   7.159
 5387POPC   C4A67770  30.395  26.175   7.468
 5387POPC   C1B67771  31.064  26.198   6.171
 5387POPC   C2B67772  31.112  26.302   6.643
 5387POPC   C3B67773  30.942  26.354   7.100
 5387POPC   C4B67774  31.005  26.458   7.571
 5388POPC   NC367775  31.817   7.047   5.272
 5388POPC   PO467776  32.463   7.380   5.208
 5388POPC   GL167777  32.165   7.274   5.635
 5388POPC   GL267778  32.309   7.103   5.916
 5388POPC   C1A67779  32.041   7.502   6.080
 5388POPC   D2A67780  31.925   7.557   6.541
 5388POPC   C3A67781  32.172   7.679   6.879
 5388POPC   C4A67782  32.335   7.481   7.233
 5388POPC   C1B67783  32.099   7.012   6.319
 5388POPC   C2B67784  32.240   7.176   6.722
 5388POPC   C3B67785  32.645   7.319   6.882
 5388POPC   C4B67786  32.762   7.165   7.271
 5389POPC   NC367787  10.701  30.691   5.533
 5389POPC   PO467788  10.020  30.370   5.379
 5389POPC   GL167789  10.294  30.445   5.741
 5389POPC   GL267790  10.217  30.807   5.793
 5389POPC   C1A67791  10.421  30.517   6.205
 5389POPC   D2A67792  10.561  30.754   6.588
 5389POPC   C3A67793  10.331  30.663   6.955
 5389POPC   C4A67794  10.468  30.409   7.281
 5389POPC   C1B67795  10.345  31.026   6.200
 5389POPC   C2B67796  10.156  31.090   6.642
 5389POPC   C3B67797  10.346  31.158   7.045
 5389POPC   C4B67798  10.653  30.889   7.309
 5390POPC   NC367799  37.571  14.921   5.440
 5390POPC   PO467800  38.006  15.418   5.243
 5390POPC   GL167801  37.861  15.267   5.706
 5390POPC   GL267802  37.514  15.287   5.795
 5390POPC   C1A67803  37.768  15.092   6.171
 5390POPC   D2A67804  37.682  15.282   6.599
 5390POPC   C3A67805  37.801  15.037   6.963
 5390POPC   C4A67806  37.864  14.750   7.285
 5390POPC   C1B67807  37.429  15.515   6.194
 5390POPC   C2B67808  37.195  15.512   6.585
 5390POPC   C3B67809  37.270  15.675   6.983
 5390POPC   C4B67810  37.673  15.502   7.163
 5391POPC   NC367811  20.998  28.686   5.461
 5391POPC   PO467812  21.505  28.266   5.420
 5391POPC   GL167813  21.241  28.370   5.792
 5391POPC   GL267814  20.936  28.229   5.956
 5391POPC   C1A67815  21.330  28.551   6.190
 5391POPC   D2A67816  21.686  28.481   6.454
 5391POPC   C3A67817  21.549  28.479   6.883
 5391POPC   C4A67818  21.691  28.625   7.278
 5391POPC   C1B67819  20.858  27.972   6.323
 5391POPC   C2B67820  21.075  28.050   6.741
 5391POPC   C3B67821  21.098  28.263   7.147
 5391POPC   C4B67822  21.081  28.122   7.616
 5392POPC   NC367823  28.536  27.249   5.285
 5392POPC   PO467824  28.263  27.917   5.393
 5392POPC   GL167825  28.189  27.644   5.767
 5392POPC   GL267826  28.077  27.295   5.656
 5392POPC   C1A67827  28.229  27.746   6.239
 5392POPC   D2A67828  28.331  27.775   6.704
 5392POPC   C3A67829  28.604  27.508   6.996
 5392POPC   C4A67830  28.371  27.560   7.365
 5392POPC   C1B67831  28.009  27.287   6.124
 5392POPC   C2B67832  28.263  27.300   6.507
 5392POPC   C3B67833  28.205  27.200   6.920
 5392POPC   C4B67834  28.366  27.043   7.286
 5393POPC   NC367835  43.542  39.824   5.542
 5393POPC   PO467836  43.131  40.331   5.482
 5393POPC   GL167837  43.004  40.133   5.835
 5393POPC   GL267838  43.314  40.070   5.923
 5393POPC   C1A67839  42.982  40.299   6.247
 5393POPC   D2A67840  43.151  40.148   6.630
 5393POPC   C3A67841  42.908  40.130   6.965
 5393POPC   C4A67842  42.850  39.917   7.334
 5393POPC   C1B67843  43.489  40.014   6.286
 5393POPC   C2B67844  43.670  40.139   6.679
 5393POPC   C3B67845  43.427  40.017   7.059
 5393POPC   C4B67846  43.288  40.081   7.489
 5394POPC   NC367847  34.146  30.010   5.408
 5394POPC   PO467848  33.487  29.999   5.323
 5394POPC   GL167849  33.744  30.185   5.692
 5394POPC   GL267850  33.949  29.870   5.870
 5394POPC   C1A67851  33.838  30.281   6.145
 5394POPC   D2A67852  33.944  29.959   6.460
 5394POPC   C3A67853  33.782  29.945   6.881
 5394POPC   C4A67854  33.798  29.777   7.313
 5394POPC   C1B67855  34.123  29.556   6.191
 5394POPC   C2B67856  34.043  29.487   6.647
 5394POPC   C3B67857  34.254  29.729   6.948
 5394POPC   C4B67858  34.151  30.126   7.175
 5395POPC   NC367859  39.509  39.887   5.322
 5395POPC   PO467860  40.099  40.160   5.360
 5395POPC   GL167861  40.096  40.115   5.790
 5395POPC   GL267862  39.801  39.931   5.785
 5395POPC   C1A67863  40.153  39.848   6.179
 5395POPC   D2A67864  40.417  39.758   6.561
 5395POPC   C3A67865  40.222  39.892   6.943
 5395POPC   C4A67866  40.199  40.324   7.071
 5395POPC   C1B67867  39.800  40.235   6.163
 5395POPC   C2B67868  40.001  40.200   6.563
 5395POPC   C3B67869  39.748  40.057   6.885
 5395POPC   C4B67870  39.595  40.146   7.256
 5396POPC   NC367871  40.560   7.791   5.344
 5396POPC   PO467872  41.024   7.335   5.297
 5396POPC   GL167873  40.948   7.598   5.676
 5396POPC   GL267874  40.587   7.580   5.801
 5396POPC   C1A67875  40.972   7.734   6.121
 5396POPC   D2A67876  40.799   7.499   6.483
 5396POPC   C3A67877  40.737   7.582   6.920
 5396POPC   C4A67878  40.661   7.197   7.141
 5396POPC   C1B67879  40.463   7.743   6.188
 5396POPC   C2B67880  40.391   7.835   6.607
 5396POPC   C3B67881  40.038   7.701   6.853
 5396POPC   C4B67882  40.257   7.501   7.136
 5397POPC   NC367883  36.324  36.852   5.170
 5397POPC   PO467884  35.721  36.580   5.263
 5397POPC   GL167885  35.918  36.679   5.728
 5397POPC   GL267886  36.238  36.848   5.690
 5397POPC   C1A67887  35.941  36.931   6.171
 5397POPC   D2A67888  35.985  36.901   6.645
 5397POPC   C3A67889  35.779  37.128   6.994
 5397POPC   C4A67890  35.994  37.401   7.247
 5397POPC   C1B67891  36.342  36.643   6.094
 5397POPC   C2B67892  36.450  36.866   6.445
 5397POPC   C3B67893  36.532  36.999   6.855
 5397POPC   C4B67894  36.210  36.875   7.154
 5398POPC   NC367895  28.461   3.139   5.477
 5398POPC   PO467896  27.975   2.666   5.429
 5398POPC   GL167897  28.097   2.936   5.767
 5398POPC   GL267898  28.318   2.678   5.881
 5398POPC   C1A67899  28.266   3.044   6.209
 5398POPC   D2A67900  28.374   2.795   6.583
 5398POPC   C3A67901  28.598   2.959   6.968
 5398POPC   C4A67902  28.961   3.164   7.184
 5398POPC   C1B67903  28.040   2.551   6.257
 5398POPC   C2B67904  27.956   2.508   6.712
 5398POPC   C3B67905  28.334   2.474   6.984
 5398POPC   C4B67906  28.509   2.194   7.256
 5399POPC   NC367907   4.749   6.727   5.370
 5399POPC   PO467908   5.310   6.560   5.634
 5399POPC   GL167909   5.019   6.832   5.826
 5399POPC   GL267910   4.703   6.649   5.868
 5399POPC   C1A67911   4.936   6.977   6.241
 5399POPC   D2A67912   5.019   6.837   6.654
 5399POPC   C3A67913   4.820   6.779   7.053
 5399POPC   C4A67914   4.966   6.931   7.448
 5399POPC   C1B67915   4.811   6.486   6.262
 5399POPC   C2B67916   4.709   6.423   6.670
 5399POPC   C3B67917   4.758   6.285   7.089
 5399POPC   C4B67918   4.995   6.416   7.417
 5400POPC   NC367919  32.717  38.779   5.587
 5400POPC   PO467920  33.271  38.452   5.426
 5400POPC   GL167921  33.180  38.565   5.825
 5400POPC   GL267922  33.475  38.715   5.929
 5400POPC   C1A67923  33.027  38.405   6.219
 5400POPC   D2A67924  33.159  38.248   6.630
 5400POPC   C3A67925  32.831  38.282   6.881
 5400POPC   C4A67926  32.650  38.328   7.246
 5400POPC   C1B67927  33.265  38.847   6.313
 5400POPC   C2B67928  33.323  38.864   6.745
 5400POPC   C3B67929  33.261  38.579   7.063
 5400POPC   C4B67930  33.158  38.200   7.278
 5401POPC   NC367931  38.131  35.826   5.518
 5401POPC   PO467932  37.577  35.348   5.371
 5401POPC   GL167933  37.471  35.412   5.802
 5401POPC   GL267934  37.744  35.623   5.814
 5401POPC   C1A67935  37.560  35.235   6.258
 5401POPC   D2A67936  37.333  35.172   6.689
 5401POPC   C3A67937  37.565  35.288   7.081
 5401POPC   C4A67938  38.005  35.369   7.129
 5401POPC   C1B67939  37.659  35.756   6.246
 5401POPC   C2B67940  37.728  35.637   6.693
 5401POPC   C3B67941  37.701  35.803   7.112
 5401POPC   C4B67942  38.100  35.873   7.314
 5402POPC   NC367943  40.280  31.030   5.519
 5402POPC   PO467944  40.137  31.664   5.415
 5402POPC   GL167945  40.088  31.492   5.838
 5402POPC   GL267946  39.887  31.194   5.778
 5402POPC   C1A67947  39.970  31.701   6.256
 5402POPC   D2A67948  39.712  31.773   6.666
 5402POPC   C3A67949  40.002  31.697   6.985
 5402POPC   C4A67950  40.180  31.413   7.281
 5402POPC   C1B67951  39.772  31.251   6.181
 5402POPC   C2B67952  39.959  31.315   6.595
 5402POPC   C3B67953  39.741  31.273   7.001
 5402POPC   C4B67954  39.759  31.112   7.391
 5403POPC   NC367955  12.326  24.455   5.387
 5403POPC   PO467956  11.644  24.602   5.359
 5403POPC   GL167957  11.850  24.620   5.767
 5403POPC   GL267958  12.026  24.308   5.825
 5403POPC   C1A67959  11.713  24.527   6.201
 5403POPC   D2A67960  11.805  24.343   6.611
 5403POPC   C3A67961  11.938  24.618   6.930
 5403POPC   C4A67962  12.223  24.548   7.246
 5403POPC   C1B67963  12.201  24.281   6.257
 5403POPC   C2B67964  12.312  24.382   6.679
 5403POPC   C3B67965  12.385  24.133   7.033
 5403POPC   C4B67966  12.345  24.141   7.530
 5404POPC   NC367967   4.922  14.264   5.295
 5404POPC   PO467968   5.482  14.293   5.658
 5404POPC   GL167969   5.071  14.377   5.846
 5404POPC   GL267970   4.977  14.669   5.664
 5404POPC   C1A67971   5.016  14.392   6.327
 5404POPC   D2A67972   5.308  14.150   6.630
 5404POPC   C3A67973   5.231  14.189   7.072
 5404POPC   C4A67974   4.831  14.344   7.241
 5404POPC   C1B67975   5.294  14.777   6.052
 5404POPC   C2B67976   5.381  14.739   6.504
 5404POPC   C3B67977   5.134  14.660   6.888
 5404POPC   C4B67978   5.330  14.632   7.283
 5405POPC   NC367979   0.802   6.051   5.601
 5405POPC   PO467980   1.376   5.628   5.434
 5405POPC   GL167981   1.298   5.838   5.820
 5405POPC   GL267982   1.506   6.131   5.810
 5405POPC   C1A67983   1.154   5.846   6.257
 5405POPC   D2A67984   0.965   5.701   6.634
 5405POPC   C3A67985   1.148   5.846   6.984
 5405POPC   C4A67986   1.124   6.259   7.137
 5405POPC   C1B67987   1.310   6.319   6.193
 5405POPC   C2B67988   1.327   6.182   6.645
 5405POPC   C3B67989   1.598   6.064   7.031
 5405POPC   C4B67990   1.545   6.344   7.397
 5406POPC   NC367991  26.323  38.879   5.623
 5406POPC   PO467992  26.594  38.286   5.446
 5406POPC   GL167993  26.238  38.399   5.799
 5406POPC   GL267994  26.391  38.631   6.059
 5406POPC   C1A67995  25.925  38.585   6.173
 5406POPC   D2A67996  26.175  38.595   6.584
 5406POPC   C3A67997  26.245  38.782   6.972
 5406POPC   C4A67998  26.049  38.818   7.369
 5406POPC   C1B67999  26.289  38.214   6.277
 5406POPC   C2B68000  26.309  38.074   6.702
 5406POPC   C3B68001  26.583  38.203   7.039
 5406POPC   C4B68002  26.309  38.384   7.342
 5407POPC   NC368003  16.150  28.840   5.372
 5407POPC   PO468004  15.615  29.249   5.421
 5407POPC   GL168005  15.909  29.127   5.756
 5407POPC   GL268006  16.134  29.392   5.796
 5407POPC   C1A68007  16.050  29.162   6.228
 5407POPC   D2A68008  15.851  29.240   6.616
 5407POPC   C3A68009  16.103  29.243   6.954
 5407POPC   C4A68010  16.073  29.034   7.327
 5407POPC   C1B68011  15.761  29.567   6.033
 5407POPC   C2B68012  15.760  29.714   6.448
 5407POPC   C3B68013  15.718  29.660   6.892
 5407POPC   C4B68014  15.767  29.431   7.292
 5408POPC   NC368015  34.866  35.896   5.484
 5408POPC   PO468016  34.499  35.310   5.529
 5408POPC   GL168017  34.489  35.270   5.949
 5408POPC   GL268018  34.529  35.643   5.924
 5408POPC   C1A68019  34.515  35.116   6.389
 5408POPC   D2A68020  34.389  35.321   6.768
 5408POPC   C3A68021  34.656  35.233   7.105
 5408POPC   C4A68022  34.598  35.054   7.558
 5408POPC   C1B68023  34.520  35.678   6.356
 5408POPC   C2B68024  34.810  35.741   6.677
 5408POPC   C3B68025  34.601  35.745   7.050
 5408POPC   C4B68026  34.234  35.552   7.213
 5409POPC   NC368027  26.517  22.333   5.646
 5409POPC   PO468028  26.667  21.737   5.579
 5409POPC   GL168029  26.832  22.072   5.920
 5409POPC   GL268030  27.017  22.387   5.831
 5409POPC   C1A68031  26.731  22.456   6.239
 5409POPC   D2A68032  26.789  22.408   6.656
 5409POPC   C3A68033  26.503  22.107   6.816
 5409POPC   C4A68034  26.649  22.043   7.155
 5409POPC   C1B68035  27.182  22.227   6.273
 5409POPC   C2B68036  27.364  22.183   6.677
 5409POPC   C3B68037  27.161  22.175   7.067
 5409POPC   C4B68038  27.213  22.403   7.469
 5410POPC   NC368039  29.000  12.610   5.294
 5410POPC   PO468040  29.642  12.653   5.547
 5410POPC   GL168041  29.207  12.624   5.797
 5410POPC   GL268042  28.867  12.461   5.771
 5410POPC   C1A68043  28.959  12.842   6.175
 5410POPC   D2A68044  29.156  12.905   6.620
 5410POPC   C3A68045  28.986  12.930   7.057
 5410POPC   C4A68046  29.007  12.952   7.521
 5410POPC   C1B68047  29.035  12.358   6.204
 5410POPC   C2B68048  29.234  12.400   6.602
 5410POPC   C3B68049  29.213  12.482   7.026
 5410POPC   C4B68050  29.012  12.471   7.426
 5411POPC   NC368051   0.957   9.807   5.395
 5411POPC   PO468052   1.518   9.544   5.577
 5411POPC   GL168053   1.166   9.719   5.847
 5411POPC   GL268054   0.791   9.586   5.827
 5411POPC   C1A68055   0.909   9.933   6.175
 5411POPC   D2A68056   0.862  10.141   6.565
 5411POPC   C3A68057   0.877   9.941   6.963
 5411POPC   C4A68058   1.249   9.910   7.159
 5411POPC   C1B68059   1.005   9.390   6.195
 5411POPC   C2B68060   1.198   9.459   6.592
 5411POPC   C3B68061   1.090   9.467   7.015
 5411POPC   C4B68062   1.241   9.505   7.461
 5412POPC   NC368063  19.918  40.497   5.435
 5412POPC   PO468064  20.292  40.901   5.164
 5412POPC   GL168065  19.956  40.938   5.657
 5412POPC   GL268066  19.830  40.623   5.933
 5412POPC   C1A68067  19.985  41.043   6.145
 5412POPC   D2A68068  20.045  40.788   6.562
 5412POPC   C3A68069  19.902  40.970   6.991
 5412POPC   C4A68070  20.075  41.077   7.388
 5412POPC   C1B68071  19.548  40.408   6.294
 5412POPC   C2B68072  19.483  40.321   6.780
 5412POPC   C3B68073  19.600  40.606   7.168
 5412POPC   C4B68074  19.430  40.631   7.620
 5413POPC   NC368075  21.429  24.265   5.295
 5413POPC   PO468076  20.918  24.691   5.498
 5413POPC   GL168077  21.187  24.510   5.788
 5413POPC   GL268078  21.389  24.209   5.816
 5413POPC   C1A68079  21.423  24.649   6.153
 5413POPC   D2A68080  21.645  24.597   6.542
 5413POPC   C3A68081  21.375  24.522   6.873
 5413POPC   C4A68082  21.243  24.720   7.220
 5413POPC   C1B68083  21.664  24.195   6.201
 5413POPC   C2B68084  21.865  24.115   6.592
 5413POPC   C3B68085  21.805  24.304   6.964
 5413POPC   C4B68086  21.955  24.228   7.323
 5414POPC   NC368087  27.063  31.651   5.429
 5414POPC   PO468088  26.425  31.543   5.494
 5414POPC   GL168089  26.700  31.433   5.822
 5414POPC   GL268090  26.921  31.192   5.699
 5414POPC   C1A68091  26.733  31.403   6.272
 5414POPC   D2A68092  26.846  31.673   6.605
 5414POPC   C3A68093  26.755  31.507   7.008
 5414POPC   C4A68094  26.854  31.764   7.348
 5414POPC   C1B68095  27.031  31.026   6.140
 5414POPC   C2B68096  27.090  31.202   6.598
 5414POPC   C3B68097  27.063  31.068   7.055
 5414POPC   C4B68098  26.915  31.251   7.460
 5415POPC   NC368099  26.607  43.331   5.547
 5415POPC   PO468100  26.994  42.821   5.372
 5415POPC   GL168101  27.015  43.065   5.757
 5415POPC   GL268102  26.803  42.865   5.951
 5415POPC   C1A68103  27.023  43.312   6.159
 5415POPC   D2A68104  26.857  43.328   6.584
 5415POPC   C3A68105  27.087  43.314   6.986
 5415POPC   C4A68106  27.175  42.947   7.222
 5415POPC   C1B68107  26.544  42.838   6.331
 5415POPC   C2B68108  26.446  43.080   6.703
 5415POPC   C3B68109  26.551  43.214   7.070
 5415POPC   C4B68110  26.492  42.827   7.278
 5416POPC   NC368111  26.331  41.650   5.569
 5416POPC   PO468112  25.776  41.558   5.244
 5416POPC   GL168113  25.824  41.680   5.689
 5416POPC   GL268114  25.979  41.388   5.817
 5416POPC   C1A68115  26.042  41.855   6.108
 5416POPC   D2A68116  26.019  41.771   6.544
 5416POPC   C3A68117  26.332  41.636   6.828
 5416POPC   C4A68118  26.227  41.607   7.249
 5416POPC   C1B68119  26.194  41.368   6.201
 5416POPC   C2B68120  26.092  41.254   6.581
 5416POPC   C3B68121  26.162  41.145   6.975
 5416POPC   C4B68122  26.157  40.972   7.356
 5417POPC   NC368123   9.447  31.422   5.443
 5417POPC   PO468124  10.093  31.129   5.337
 5417POPC   GL168125   9.917  31.271   5.759
 5417POPC   GL268126   9.567  31.324   5.910
 5417POPC   C1A68127   9.951  31.332   6.228
 5417POPC   D2A68128   9.810  31.530   6.588
 5417POPC   C3A68129   9.866  31.393   7.014
 5417POPC   C4A68130   9.578  31.615   7.288
 5417POPC   C1B68131   9.477  31.079   6.253
 5417POPC   C2B68132   9.599  31.067   6.657
 5417POPC   C3B68133   9.394  31.224   7.003
 5417POPC   C4B68134   9.180  31.266   7.360
 5418POPC   NC368135  34.854   3.729   5.373
 5418POPC   PO468136  34.460   3.281   5.276
 5418POPC   GL168137  34.481   3.492   5.688
 5418POPC   GL268138  34.174   3.670   5.827
 5418POPC   C1A68139  34.619   3.667   6.082
 5418POPC   D2A68140  34.396   3.786   6.469
 5418POPC   C3A68141  34.723   3.790   6.764
 5418POPC   C4A68142  34.728   3.549   7.119
 5418POPC   C1B68143  34.258   3.324   6.152
 5418POPC   C2B68144  34.351   3.300   6.604
 5418POPC   C3B68145  34.186   3.576   6.934
 5418POPC   C4B68146  34.293   3.767   7.331
 5419POPC   NC368147  29.888  34.182   5.423
 5419POPC   PO468148  30.166  34.822   5.291
 5419POPC   GL168149  29.859  34.627   5.640
 5419POPC   GL268150  29.580  34.810   5.739
 5419POPC   C1A68151  29.727  34.453   6.089
 5419POPC   D2A68152  29.824  34.645   6.526
 5419POPC   C3A68153  29.848  34.399   6.919
 5419POPC   C4A68154  30.219  34.359   7.184
 5419POPC   C1B68155  29.597  34.932   6.167
 5419POPC   C2B68156  29.349  34.834   6.578
 5419POPC   C3B68157  29.565  34.842   6.953
 5419POPC   C4B68158  29.928  34.819   7.200
 5420POPC   NC368159  30.497  11.655   5.480
 5420POPC   PO468160  30.560  12.322   5.356
 5420POPC   GL168161  30.715  12.294   5.816
 5420POPC   GL268162  30.804  11.936   5.808
 5420POPC   C1A68163  30.771  12.381   6.301
 5420POPC   D2A68164  30.972  12.453   6.732
 5420POPC   C3A68165  30.710  12.293   7.084
 5420POPC   C4A68166  30.455  11.891   7.154
 5420POPC   C1B68167  31.020  11.769   6.141
 5420POPC   C2B68168  31.163  11.843   6.552
 5420POPC   C3B68169  30.961  11.863   6.928
 5420POPC   C4B68170  30.930  11.907   7.339
 5421POPC   NC368171  19.461  23.264   5.405
 5421POPC   PO468172  19.824  22.735   5.500
 5421POPC   GL168173  19.843  22.850   5.911
 5421POPC   GL268174  19.770  23.202   5.892
 5421POPC   C1A68175  19.794  22.904   6.342
 5421POPC   D2A68176  19.856  23.074   6.725
 5421POPC   C3A68177  19.869  22.749   6.964
 5421POPC   C4A68178  20.133  22.713   7.247
 5421POPC   C1B68179  19.413  23.169   6.154
 5421POPC   C2B68180  19.310  23.030   6.566
 5421POPC   C3B68181  19.405  23.044   7.004
 5421POPC   C4B68182  19.718  23.175   7.240
 5422POPC   NC368183  15.521   7.059   5.451
 5422POPC   PO468184  15.998   7.544   5.315
 5422POPC   GL168185  16.021   7.411   5.751
 5422POPC   GL268186  15.837   7.154   5.862
 5422POPC   C1A68187  16.143   7.396   6.208
 5422POPC   D2A68188  15.905   7.597   6.542
 5422POPC   C3A68189  16.018   7.495   6.937
 5422POPC   C4A68190  16.093   7.265   7.291
 5422POPC   C1B68191  15.638   7.259   6.265
 5422POPC   C2B68192  15.661   7.165   6.735
 5422POPC   C3B68193  15.593   7.343   7.168
 5422POPC   C4B68194  15.690   7.462   7.592
 5423POPC   NC368195   0.829   3.420   5.463
 5423POPC   PO468196   1.525   3.373   5.532
 5423POPC   GL168197   1.376   3.529   5.893
 5423POPC   GL268198   1.025   3.433   5.924
 5423POPC   C1A68199   1.328   3.461   6.326
 5423POPC   D2A68200   1.066   3.566   6.651
 5423POPC   C3A68201   1.282   3.440   7.014
 5423POPC   C4A68202   1.068   3.442   7.401
 5423POPC   C1B68203   0.956   3.790   6.184
 5423POPC   C2B68204   1.086   4.082   6.498
 5423POPC   C3B68205   1.315   3.974   6.884
 5423POPC   C4B68206   1.307   3.881   7.314
 5424POPC   NC368207  21.794  44.739   5.448
 5424POPC   PO468208  21.209  44.370   5.404
 5424POPC   GL168209  21.211  44.565   5.798
 5424POPC   GL268210  21.512  44.728   5.890
 5424POPC   C1A68211  21.196  44.501   6.241
 5424POPC   D2A68212  21.435  44.643   6.586
 5424POPC   C3A68213  21.199  44.819   6.937
 5424POPC   C4A68214  21.036  44.595   7.304
 5424POPC   C1B68215  21.791  44.963   6.185
 5424POPC   C2B68216  21.973  44.924   6.600
 5424POPC   C3B68217  21.797  44.743   6.953
 5424POPC   C4B68218  21.541  44.660   7.295
 5425POPC   NC368219   0.299  43.035   5.485
 5425POPC   PO468220   0.924  42.670   5.461
 5425POPC   GL168221   0.680  42.860   5.827
 5425POPC   GL268222   0.454  43.174   5.941
 5425POPC   C1A68223   0.443  42.771   6.226
 5425POPC   D2A68224   0.329  42.940   6.620
 5425POPC   C3A68225   0.443  42.785   7.035
 5425POPC   C4A68226   0.623  43.020   7.399
 5425POPC   C1B68227   0.044  43.121   6.210
 5425POPC   C2B68228  44.838  42.964   6.604
 5425POPC   C3B68229   0.008  43.122   6.996
 5425POPC   C4B68230   0.089  42.989   7.408
 5426POPC   NC368231   3.709  27.812   5.115
 5426POPC   PO468232   3.316  28.034   5.580
 5426POPC   GL168233   3.489  27.640   5.774
 5426POPC   GL268234   3.696  27.301   5.816
 5426POPC   C1A68235   3.417  27.566   6.213
 5426POPC   D2A68236   3.643  27.727   6.577
 5426POPC   C3A68237   3.470  27.685   7.001
 5426POPC   C4A68238   3.340  27.797   7.445
 5426POPC   C1B68239   3.897  27.356   6.226
 5426POPC   C2B68240   3.966  27.347   6.665
 5426POPC   C3B68241   3.887  27.304   7.087
 5426POPC   C4B68242   3.543  27.339   7.363
 5427POPC   NC368243  41.468   5.512   5.336
 5427POPC   PO468244  42.104   5.193   5.247
 5427POPC   GL168245  41.824   5.161   5.623
 5427POPC   GL268246  41.897   5.440   5.818
 5427POPC   C1A68247  41.673   5.021   6.084
 5427POPC   D2A68248  41.421   5.136   6.498
 5427POPC   C3A68249  41.497   4.997   6.940
 5427POPC   C4A68250  41.359   5.149   7.350
 5427POPC   C1B68251  41.607   5.526   6.191
 5427POPC   C2B68252  41.631   5.595   6.669
 5427POPC   C3B68253  41.561   5.569   7.128
 5427POPC   C4B68254  41.709   5.454   7.589
 5428POPC   NC368255  37.423  18.884   5.512
 5428POPC   PO468256  38.055  18.791   5.365
 5428POPC   GL168257  37.939  19.076   5.702
 5428POPC   GL268258  37.836  19.447   5.636
 5428POPC   C1A68259  37.849  19.117   6.129
 5428POPC   D2A68260  37.874  18.873   6.495
 5428POPC   C3A68261  37.745  19.084   6.844
 5428POPC   C4A68262  37.833  18.906   7.232
 5428POPC   C1B68263  37.551  19.534   6.026
 5428POPC   C2B68264  37.526  19.370   6.462
 5428POPC   C3B68265  37.411  19.492   6.889
 5428POPC   C4B68266  37.666  19.404   7.239
 5429POPC   NC368267  11.880   8.591   5.381
 5429POPC   PO468268  12.352   8.999   5.210
 5429POPC   GL168269  12.267   9.030   5.672
 5429POPC   GL268270  12.146   8.719   5.801
 5429POPC   C1A68271  12.165   9.189   6.125
 5429POPC   D2A68272  12.205   9.062   6.550
 5429POPC   C3A68273  12.179   9.237   6.986
 5429POPC   C4A68274  12.089   8.861   7.213
 5429POPC   C1B68275  12.133   8.471   6.191
 5429POPC   C2B68276  12.208   8.566   6.623
 5429POPC   C3B68277  12.277   8.437   7.035
 5429POPC   C4B68278  12.299   8.525   7.524
 5430POPC   NC368279  37.984   7.286   5.313
 5430POPC   PO468280  38.518   7.674   5.449
 5430POPC   GL168281  38.370   7.553   5.824
 5430POPC   GL268282  38.299   7.172   5.879
 5430POPC   C1A68283  38.537   7.630   6.240
 5430POPC   D2A68284  38.425   7.409   6.618
 5430POPC   C3A68285  38.651   7.501   6.974
 5430POPC   C4A68286  38.801   7.480   7.369
 5430POPC   C1B68287  38.001   6.962   6.180
 5430POPC   C2B68288  38.104   6.934   6.617
 5430POPC   C3B68289  38.014   7.106   7.028
 5430POPC   C4B68290  38.338   7.258   7.300
 5431POPC   NC368291  32.800  17.890   5.500
 5431POPC   PO468292  33.066  17.305   5.332
 5431POPC   GL168293  33.099  17.493   5.735
 5431POPC   GL268294  33.221  17.817   5.815
 5431POPC   C1A68295  33.098  17.438   6.165
 5431POPC   D2A68296  33.073  17.527   6.591
 5431POPC   C3A68297  32.949  17.299   6.927
 5431POPC   C4A68298  33.083  17.386   7.333
 5431POPC   C1B68299  32.894  17.903   6.187
 5431POPC   C2B68300  32.755  17.946   6.643
 5431POPC   C3B68301  32.948  17.817   7.060
 5431POPC   C4B68302  32.710  17.717   7.455
 5432POPC   NC368303  39.984  40.758   5.445
 5432POPC   PO468304  40.122  41.347   5.639
 5432POPC   GL168305  40.302  40.967   5.807
 5432POPC   GL268306  40.108  40.637   5.922
 5432POPC   C1A68307  40.467  40.879   6.182
 5432POPC   D2A68308  40.269  40.640   6.488
 5432POPC   C3A68309  40.352  40.774   6.875
 5432POPC   C4A68310  40.130  40.835   7.220
 5432POPC   C1B68311  39.927  40.935   6.224
 5432POPC   C2B68312  39.806  40.835   6.666
 5432POPC   C3B68313  39.769  40.564   7.010
 5432POPC   C4B68314  39.851  40.513   7.464
 5433POPC   NC368315  18.045  12.474   5.616
 5433POPC   PO468316  18.355  11.938   5.392
 5433POPC   GL168317  18.186  11.993   5.793
 5433POPC   GL268318  17.887  11.788   5.766
 5433POPC   C1A68319  18.383  12.198   6.175
 5433POPC   D2A68320  18.411  12.401   6.586
 5433POPC   C3A68321  18.511  12.101   6.895
 5433POPC   C4A68322  18.472  12.255   7.295
 5433POPC   C1B68323  17.859  11.993   6.194
 5433POPC   C2B68324  18.057  11.990   6.608
 5433POPC   C3B68325  18.037  12.288   6.938
 5433POPC   C4B68326  17.948  12.250   7.354
 5434POPC   NC368327  43.344   7.732   5.394
 5434POPC   PO468328  42.810   7.500   5.060
 5434POPC   GL168329  42.886   7.508   5.596
 5434POPC   GL268330  43.046   7.173   5.760
 5434POPC   C1A68331  42.872   7.517   6.089
 5434POPC   D2A68332  42.744   7.545   6.551
 5434POPC   C3A68333  43.068   7.463   6.864
 5434POPC   C4A68334  43.161   7.433   7.297
 5434POPC   C1B68335  43.316   7.196   6.150
 5434POPC   C2B68336  43.457   7.296   6.592
 5434POPC   C3B68337  43.459   7.117   7.023
 5434POPC   C4B68338  43.602   7.022   7.484
 5435POPC   NC368339  12.469  29.427   5.470
 5435POPC   PO468340  13.142  29.422   5.478
 5435POPC   GL168341  12.857  29.308   5.798
 5435POPC   GL268342  12.779  28.951   5.776
 5435POPC   C1A68343  12.800  29.282   6.227
 5435POPC   D2A68344  12.713  29.091   6.595
 5435POPC   C3A68345  12.712  29.312   6.992
 5435POPC   C4A68346  13.043  29.316   7.306
 5435POPC   C1B68347  12.585  28.805   6.151
 5435POPC   C2B68348  12.480  28.638   6.580
 5435POPC   C3B68349  12.697  28.738   6.953
 5435POPC   C4B68350  12.720  28.912   7.324
 5436POPC   NC368351  25.350  41.511   5.402
 5436POPC   PO468352  24.711  41.534   5.514
 5436POPC   GL168353  25.054  41.314   5.804
 5436POPC   GL268354  25.454  41.319   5.848
 5436POPC   C1A68355  25.157  41.463   6.234
 5436POPC   D2A68356  25.192  41.809   6.536
 5436POPC   C3A68357  25.263  41.676   6.963
 5436POPC   C4A68358  25.062  41.604   7.348
 5436POPC   C1B68359  25.652  41.549   6.182
 5436POPC   C2B68360  25.612  41.464   6.605
 5436POPC   C3B68361  25.793  41.526   6.990
 5436POPC   C4B68362  25.602  41.676   7.377
 5437POPC   NC368363  19.164  36.534   5.436
 5437POPC   PO468364  19.048  35.846   5.296
 5437POPC   GL168365  18.951  36.048   5.730
 5437POPC   GL268366  19.171  36.255   5.963
 5437POPC   C1A68367  18.762  35.986   6.139
 5437POPC   D2A68368  18.743  36.184   6.555
 5437POPC   C3A68369  18.912  36.013   6.937
 5437POPC   C4A68370  18.722  35.951   7.351
 5437POPC   C1B68371  19.227  35.944   6.328
 5437POPC   C2B68372  19.408  35.625   6.590
 5437POPC   C3B68373  19.453  35.739   7.027
 5437POPC   C4B68374  19.239  36.035   7.327
 5438POPC   NC368375   5.175  39.484   5.309
 5438POPC   PO468376   4.932  40.132   5.272
 5438POPC   GL168377   4.966  40.155   5.766
 5438POPC   GL268378   4.722  40.420   5.855
 5438POPC   C1A68379   5.057  40.019   6.227
 5438POPC   D2A68380   5.132  40.110   6.690
 5438POPC   C3A68381   5.229  39.796   7.001
 5438POPC   C4A68382   5.216  39.786   7.466
 5438POPC   C1B68383   4.695  40.359   6.308
 5438POPC   C2B68384   4.660  39.995   6.577
 5438POPC   C3B68385   4.749  39.964   6.984
 5438POPC   C4B68386   4.994  40.209   7.267
 5439POPC   NC368387  26.821  38.684   5.262
 5439POPC   PO468388  27.276  38.443   5.645
 5439POPC   GL168389  26.867  38.559   5.808
 5439POPC   GL268390  26.722  38.246   6.011
 5439POPC   C1A68391  26.853  38.702   6.224
 5439POPC   D2A68392  26.668  38.461   6.558
 5439POPC   C3A68393  26.763  38.683   6.942
 5439POPC   C4A68394  26.727  38.658   7.371
 5439POPC   C1B68395  27.097  38.240   6.321
 5439POPC   C2B68396  27.100  38.309   6.799
 5439POPC   C3B68397  27.076  38.238   7.267
 5439POPC   C4B68398  27.173  38.001   7.699
 5440POPC   NC368399  12.641  16.312   5.048
 5440POPC   PO468400  12.697  16.765   5.484
 5440POPC   GL168401  12.624  16.701   5.895
 5440POPC   GL268402  12.326  16.852   5.875
 5440POPC   C1A68403  12.801  16.675   6.303
 5440POPC   D2A68404  12.897  16.986   6.624
 5440POPC   C3A68405  13.066  16.803   6.996
 5440POPC   C4A68406  12.918  16.501   7.289
 5440POPC   C1B68407  12.291  16.616   6.283
 5440POPC   C2B68408  12.470  16.687   6.708
 5440POPC   C3B68409  12.552  16.829   7.111
 5440POPC   C4B68410  12.591  16.771   7.566
 5441POPC   NC368411  25.396  11.097   5.525
 5441POPC   PO468412  24.874  10.724   5.247
 5441POPC   GL168413  24.979  10.872   5.759
 5441POPC   GL268414  25.288  10.715   5.888
 5441POPC   C1A68415  25.015  10.890   6.266
 5441POPC   D2A68416  25.135  10.514   6.573
 5441POPC   C3A68417  25.084  10.580   7.002
 5441POPC   C4A68418  24.731  10.708   7.227
 5441POPC   C1B68419  25.477  10.407   6.206
 5441POPC   C2B68420  25.542  10.176   6.627
 5441POPC   C3B68421  25.595  10.290   7.051
 5441POPC   C4B68422  25.547  10.668   7.233
 5442POPC   NC368423   1.195  18.535   5.199
 5442POPC   PO468424   0.788  18.307   5.635
 5442POPC   GL168425   1.200  18.442   5.772
 5442POPC   GL268426   1.002  18.685   5.932
 5442POPC   C1A68427   1.422  18.597   6.188
 5442POPC   D2A68428   1.404  18.360   6.590
 5442POPC   C3A68429   1.469  18.524   7.002
 5442POPC   C4A68430   1.635  18.292   7.339
 5442POPC   C1B68431   0.945  18.375   6.262
 5442POPC   C2B68432   0.873  18.207   6.657
 5442POPC   C3B68433   0.936  18.460   6.991
 5442POPC   C4B68434   1.120  18.405   7.382
 5443POPC   NC368435  35.174  39.595   5.520
 5443POPC   PO468436  35.608  39.104   5.415
 5443POPC   GL168437  35.446  39.210   5.799
 5443POPC   GL268438  35.765  39.265   5.904
 5443POPC   C1A68439  35.169  39.289   6.167
 5443POPC   D2A68440  35.103  39.503   6.563
 5443POPC   C3A68441  35.214  39.256   6.906
 5443POPC   C4A68442  35.106  39.143   7.328
 5443POPC   C1B68443  35.650  39.071   6.260
 5443POPC   C2B68444  35.682  39.251   6.622
 5443POPC   C3B68445  35.699  39.417   6.983
 5443POPC   C4B68446  35.617  39.108   7.254
 5444POPC   NC368447  20.384  15.825   5.529
 5444POPC   PO468448  20.874  16.383   5.412
 5444POPC   GL168449  20.738  16.155   5.808
 5444POPC   GL268450  20.403  15.991   6.002
 5444POPC   C1A68451  20.808  16.163   6.246
 5444POPC   D2A68452  20.486  16.192   6.541
 5444POPC   C3A68453  20.621  16.199   6.917
 5444POPC   C4A68454  20.754  16.320   7.274
 5444POPC   C1B68455  20.421  15.723   6.402
 5444POPC   C2B68456  20.334  15.763   6.855
 5444POPC   C3B68457  20.456  15.860   7.278
 5444POPC   C4B68458  20.317  15.779   7.699
 5445POPC   NC368459  40.419  14.461   5.307
 5445POPC   PO468460  39.798  14.544   5.092
 5445POPC   GL168461  39.972  14.429   5.565
 5445POPC   GL268462  39.792  14.126   5.704
 5445POPC   C1A68463  40.070  14.356   6.067
 5445POPC   D2A68464  40.279  14.457   6.497
 5445POPC   C3A68465  40.025  14.650   6.858
 5445POPC   C4A68466  39.903  14.477   7.295
 5445POPC   C1B68467  39.585  14.187   6.119
 5445POPC   C2B68468  39.784  14.306   6.519
 5445POPC   C3B68469  39.957  14.141   6.901
 5445POPC   C4B68470  39.696  13.999   7.260
 5446POPC   NC368471  14.542  27.149   5.017
 5446POPC   PO468472  14.521  26.611   5.344
 5446POPC   GL168473  14.223  26.620   5.662
 5446POPC   GL268474  14.432  26.824   5.877
 5446POPC   C1A68475  14.172  26.499   6.134
 5446POPC   D2A68476  14.450  26.733   6.436
 5446POPC   C3A68477  14.379  26.716   6.894
 5446POPC   C4A68478  14.108  26.496   7.169
 5446POPC   C1B68479  14.348  27.174   6.187
 5446POPC   C2B68480  14.289  27.188   6.619
 5446POPC   C3B68481  14.386  27.288   7.008
 5446POPC   C4B68482  14.490  27.164   7.394
 5447POPC   NC368483  33.542  38.049   5.388
 5447POPC   PO468484  33.842  37.425   5.593
 5447POPC   GL168485  33.907  37.640   5.882
 5447POPC   GL268486  33.924  37.971   5.722
 5447POPC   C1A68487  33.789  37.566   6.283
 5447POPC   D2A68488  33.968  37.476   6.638
 5447POPC   C3A68489  33.725  37.428   7.016
 5447POPC   C4A68490  34.050  37.574   7.330
 5447POPC   C1B68491  33.825  38.071   6.144
 5447POPC   C2B68492  34.012  38.000   6.538
 5447POPC   C3B68493  33.921  37.896   6.962
 5447POPC   C4B68494  33.586  37.851   7.246
 5448POPC   NC368495  23.435   2.885   5.259
 5448POPC   PO468496  23.884   2.391   5.405
 5448POPC   GL168497  23.716   2.528   5.781
 5448POPC   GL268498  23.539   2.839   5.763
 5448POPC   C1A68499  23.885   2.745   6.153
 5448POPC   D2A68500  23.675   2.881   6.536
 5448POPC   C3A68501  23.832   2.716   6.917
 5448POPC   C4A68502  23.725   2.822   7.316
 5448POPC   C1B68503  23.356   2.670   6.165
 5448POPC   C2B68504  23.141   2.825   6.544
 5448POPC   C3B68505  23.343   2.811   6.951
 5448POPC   C4B68506  23.369   2.470   7.250
 5449POPC   NC368507  41.557   2.083   5.429
 5449POPC   PO468508  41.774   1.432   5.290
 5449POPC   GL168509  41.617   1.571   5.773
 5449POPC   GL268510  41.828   1.465   6.037
 5449POPC   C1A68511  41.614   1.930   6.153
 5449POPC   D2A68512  41.452   2.113   6.550
 5449POPC   C3A68513  41.639   2.264   6.916
 5449POPC   C4A68514  41.453   2.263   7.319
 5449POPC   C1B68515  42.079   1.752   6.212
 5449POPC   C2B68516  41.951   1.920   6.584
 5449POPC   C3B68517  41.895   1.693   6.931
 5449POPC   C4B68518  41.790   1.848   7.267
 5450POPC   NC368519  18.572   6.055   5.278
 5450POPC   PO468520  18.173   5.596   5.525
 5450POPC   GL168521  18.078   5.951   5.796
 5450POPC   GL268522  18.435   6.042   5.813
 5450POPC   C1A68523  18.138   5.914   6.255
 5450POPC   D2A68524  18.365   5.948   6.653
 5450POPC   C3A68525  18.109   5.843   7.014
 5450POPC   C4A68526  18.151   5.983   7.455
 5450POPC   C1B68527  18.603   5.682   6.071
 5450POPC   C2B68528  18.800   5.614   6.491
 5450POPC   C3B68529  18.644   5.562   6.914
 5450POPC   C4B68530  18.589   5.877   7.217
 5451POPC   NC368531  43.411  24.419   5.634
 5451POPC   PO468532  42.831  24.606   5.259
 5451POPC   GL168533  42.905  24.415   5.676
 5451POPC   GL268534  43.009  24.701   5.806
 5451POPC   C1A68535  43.027  24.274   6.119
 5451POPC   D2A68536  43.070  24.228   6.583
 5451POPC   C3A68537  43.375  24.335   6.913
 5451POPC   C4A68538  43.422  24.675   7.191
 5451POPC   C1B68539  43.123  24.747   6.239
 5451POPC   C2B68540  43.292  24.742   6.626
 5451POPC   C3B68541  42.994  24.681   6.930
 5451POPC   C4B68542  42.932  24.823   7.345
 5452POPC   NC368543  11.679  25.044   5.478
 5452POPC   PO468544  12.271  25.174   5.427
 5452POPC   GL168545  12.085  25.101   5.800
 5452POPC   GL268546  11.856  25.369   5.857
 5452POPC   C1A68547  12.166  24.825   6.136
 5452POPC   D2A68548  12.110  24.926   6.550
 5452POPC   C3A68549  12.351  24.946   6.917
 5452POPC   C4A68550  12.066  25.022   7.252
 5452POPC   C1B68551  12.069  25.373   6.235
 5452POPC   C2B68552  12.063  25.558   6.633
 5452POPC   C3B68553  11.924  25.480   7.035
 5452POPC   C4B68554  11.646  25.462   7.379
 5453POPC   NC368555  14.409  19.325   5.361
 5453POPC   PO468556  14.270  18.747   5.556
 5453POPC   GL168557  14.095  19.010   5.904
 5453POPC   GL268558  14.145  19.333   5.797
 5453POPC   C1A68559  14.059  19.059   6.387
 5453POPC   D2A68560  14.269  18.998   6.795
 5453POPC   C3A68561  14.694  18.976   7.033
 5453POPC   C4A68562  14.881  18.745   7.417
 5453POPC   C1B68563  14.436  19.327   6.195
 5453POPC   C2B68564  14.632  19.366   6.625
 5453POPC   C3B68565  14.477  19.444   7.052
 5453POPC   C4B68566  14.254  19.083   7.292
 5454POPC   NC368567  33.161   3.669   5.375
 5454POPC   PO468568  32.608   3.412   5.427
 5454POPC   GL168569  32.953   3.404   5.758
 5454POPC   GL268570  32.707   3.589   5.909
 5454POPC   C1A68571  33.248   3.513   6.111
 5454POPC   D2A68572  33.417   3.413   6.530
 5454POPC   C3A68573  33.214   3.510   6.956
 5454POPC   C4A68574  33.282   3.712   7.362
 5454POPC   C1B68575  32.780   3.516   6.309
 5454POPC   C2B68576  32.555   3.459   6.646
 5454POPC   C3B68577  32.656   3.300   7.015
 5454POPC   C4B68578  32.783   3.516   7.344
 5455POPC   NC368579  39.312   4.207   5.587
 5455POPC   PO468580  39.113   4.738   5.225
 5455POPC   GL168581  39.074   4.620   5.776
 5455POPC   GL268582  39.038   4.296   5.994
 5455POPC   C1A68583  39.187   4.695   6.251
 5455POPC   D2A68584  39.108   4.364   6.603
 5455POPC   C3A68585  39.140   4.535   7.027
 5455POPC   C4A68586  39.210   4.352   7.468
 5455POPC   C1B68587  39.478   4.273   6.244
 5455POPC   C2B68588  39.617   4.304   6.686
 5455POPC   C3B68589  39.388   4.077   7.006
 5455POPC   C4B68590  39.558   3.969   7.372
 5456POPC   NC368591  19.808   2.490   5.292
 5456POPC   PO468592  20.142   3.071   5.409
 5456POPC   GL168593  19.948   2.824   5.809
 5456POPC   GL268594  19.737   2.502   5.813
 5456POPC   C1A68595  19.760   2.857   6.215
 5456POPC   D2A68596  19.917   2.721   6.613
 5456POPC   C3A68597  19.699   2.952   6.940
 5456POPC   C4A68598  19.681   2.883   7.379
 5456POPC   C1B68599  20.070   2.435   6.137
 5456POPC   C2B68600  20.179   2.237   6.527
 5456POPC   C3B68601  20.155   2.380   6.940
 5456POPC   C4B68602  19.881   2.428   7.284
 5457POPC   NC368603   1.997  38.765   5.534
 5457POPC   PO468604   1.783  38.098   5.420
 5457POPC   GL168605   1.995  38.263   5.818
 5457POPC   GL268606   2.358  38.237   5.792
 5457POPC   C1A68607   2.156  38.453   6.237
 5457POPC   D2A68608   2.152  38.769   6.573
 5457POPC   C3A68609   2.034  38.655   6.994
 5457POPC   C4A68610   1.925  38.239   7.180
 5457POPC   C1B68611   2.407  38.001   6.193
 5457POPC   C2B68612   2.219  37.996   6.631
 5457POPC   C3B68613   2.376  38.038   7.081
 5457POPC   C4B68614   2.591  38.274   7.454
 5458POPC   NC368615  38.564   7.211   5.452
 5458POPC   PO468616  39.232   7.198   5.537
 5458POPC   GL168617  39.087   7.131   5.900
 5458POPC   GL268618  38.839   7.377   5.856
 5458POPC   C1A68619  39.220   7.034   6.294
 5458POPC   D2A68620  39.379   7.328   6.591
 5458POPC   C3A68621  39.186   7.357   6.974
 5458POPC   C4A68622  39.309   7.353   7.375
 5458POPC   C1B68623  39.047   7.522   6.231
 5458POPC   C2B68624  38.960   7.705   6.622
 5458POPC   C3B68625  39.056   7.835   7.036
 5458POPC   C4B68626  39.153   7.854   7.451
 5459POPC   NC368627  38.342  19.272   5.444
 5459POPC   PO468628  38.830  18.869   5.321
 5459POPC   GL168629  38.565  18.871   5.684
 5459POPC   GL268630  38.723  19.174   5.792
 5459POPC   C1A68631  38.330  18.943   6.063
 5459POPC   D2A68632  38.388  18.871   6.506
 5459POPC   C3A68633  38.259  19.052   6.919
 5459POPC   C4A68634  38.311  18.831   7.321
 5459POPC   C1B68635  38.842  18.906   6.160
 5459POPC   C2B68636  38.888  18.812   6.604
 5459POPC   C3B68637  38.748  18.917   7.034
 5459POPC   C4B68638  38.783  18.920   7.491
 5460POPC   NC368639  14.645  24.506   5.506
 5460POPC   PO468640  15.217  24.698   5.508
 5460POPC   GL168641  15.271  24.477   5.913
 5460POPC   GL268642  15.596  24.269   5.893
 5460POPC   C1A68643  15.088  24.604   6.344
 5460POPC   D2A68644  15.045  24.925   6.689
 5460POPC   C3A68645  15.096  24.695   7.069
 5460POPC   C4A68646  15.061  24.274   7.063
 5460POPC   C1B68647  15.419  24.077   6.238
 5460POPC   C2B68648  15.384  24.227   6.654
 5460POPC   C3B68649  15.608  24.301   7.030
 5460POPC   C4B68650  15.812  24.131   7.404
 5461POPC   NC368651  12.479   2.992   5.480
 5461POPC   PO468652  13.096   3.149   5.454
 5461POPC   GL168653  12.927   2.788   5.714
 5461POPC   GL268654  13.174   2.528   5.820
 5461POPC   C1A68655  12.648   2.741   6.079
 5461POPC   D2A68656  12.587   2.787   6.524
 5461POPC   C3A68657  12.572   2.648   6.934
 5461POPC   C4A68658  12.766   3.042   7.080
 5461POPC   C1B68659  13.101   2.614   6.279
 5461POPC   C2B68660  13.021   2.485   6.704
 5461POPC   C3B68661  13.043   2.596   7.148
 5461POPC   C4B68662  13.057   2.558   7.617
 5462POPC   NC368663   6.098  15.552   5.623
 5462POPC   PO468664   5.660  15.984   5.458
 5462POPC   GL168665   5.855  15.977   5.877
 5462POPC   GL268666   5.945  16.316   5.916
 5462POPC   C1A68667   5.922  16.039   6.357
 5462POPC   D2A68668   5.606  16.090   6.688
 5462POPC   C3A68669   5.707  15.926   7.106
 5462POPC   C4A68670   6.007  15.733   7.393
 5462POPC   C1B68671   5.690  16.475   6.222
 5462POPC   C2B68672   5.803  16.592   6.644
 5462POPC   C3B68673   5.628  16.451   7.040
 5462POPC   C4B68674   5.801  16.272   7.463
 5463POPC   NC368675  31.596  32.215   5.255
 5463POPC   PO468676  31.091  32.658   5.611
 5463POPC   GL168677  31.203  32.406   5.914
 5463POPC   GL268678  31.285  32.100   5.761
 5463POPC   C1A68679  31.454  32.483   6.287
 5463POPC   D2A68680  31.347  32.603   6.695
 5463POPC   C3A68681  31.562  32.313   6.979
 5463POPC   C4A68682  31.809  32.411   7.350
 5463POPC   C1B68683  31.135  32.040   6.226
 5463POPC   C2B68684  31.258  32.095   6.603
 5463POPC   C3B68685  31.253  31.893   6.990
 5463POPC   C4B68686  31.180  32.163   7.298
 5464POPC   NC368687  34.268  27.138   5.720
 5464POPC   PO468688  34.716  26.847   5.275
 5464POPC   GL168689  34.653  26.701   5.717
 5464POPC   GL268690  34.342  26.531   5.818
 5464POPC   C1A68691  34.855  26.665   6.141
 5464POPC   D2A68692  34.700  26.580   6.584
 5464POPC   C3A68693  34.697  26.935   6.918
 5464POPC   C4A68694  34.679  26.838   7.397
 5464POPC   C1B68695  34.328  26.679   6.251
 5464POPC   C2B68696  34.228  26.766   6.696
 5464POPC   C3B68697  34.213  27.081   7.027
 5464POPC   C4B68698  34.210  27.031   7.518
 5465POPC   NC368699  29.979  22.472   5.412
 5465POPC   PO468700  29.843  23.079   5.174
 5465POPC   GL168701  29.944  22.908   5.708
 5465POPC   GL268702  30.124  22.621   5.884
 5465POPC   C1A68703  29.867  23.148   6.126
 5465POPC   D2A68704  29.951  23.223   6.535
 5465POPC   C3A68705  29.684  23.228   6.862
 5465POPC   C4A68706  29.820  23.231   7.293
 5465POPC   C1B68707  29.728  22.667   6.102
 5465POPC   C2B68708  29.648  22.791   6.491
 5465POPC   C3B68709  29.916  22.777   6.823
 5465POPC   C4B68710  29.862  22.743   7.215
 5466POPC   NC368711  16.969  27.387   5.527
 5466POPC   PO468712  17.269  27.996   5.533
 5466POPC   GL168713  17.180  27.695   5.882
 5466POPC   GL268714  16.804  27.617   5.946
 5466POPC   C1A68715  17.141  27.462   6.281
 5466POPC   D2A68716  16.856  27.512   6.621
 5466POPC   C3A68717  17.009  27.607   7.033
 5466POPC   C4A68718  16.985  27.941   7.336
 5466POPC   C1B68719  16.520  27.404   6.193
 5466POPC   C2B68720  16.392  27.276   6.586
 5466POPC   C3B68721  16.347  27.436   7.007
 5466POPC   C4B68722  16.623  27.490   7.350
 5467POPC   NC368723  17.113  32.362   5.437
 5467POPC   PO468724  16.444  32.197   5.297
 5467POPC   GL168725  16.673  32.185   5.729
 5467POPC   GL268726  16.983  31.977   5.813
 5467POPC   C1A68727  16.531  32.269   6.185
 5467POPC   D2A68728  16.656  32.181   6.615
 5467POPC   C3A68729  16.426  32.246   7.009
 5467POPC   C4A68730  16.411  32.380   7.448
 5467POPC   C1B68731  17.042  32.361   6.099
 5467POPC   C2B68732  17.051  32.525   6.526
 5467POPC   C3B68733  17.019  32.350   6.935
 5467POPC   C4B68734  16.891  32.427   7.318
 5468POPC   NC368735  29.154   3.695   5.449
 5468POPC   PO468736  29.687   3.204   5.530
 5468POPC   GL168737  29.340   3.284   5.836
 5468POPC   GL268738  28.966   3.311   5.790
 5468POPC   C1A68739  29.304   3.474   6.257
 5468POPC   D2A68740  29.363   3.743   6.644
 5468POPC   C3A68741  29.264   3.593   7.090
 5468POPC   C4A68742  29.409   3.333   7.455
 5468POPC   C1B68743  28.875   3.636   6.077
 5468POPC   C2B68744  28.873   3.723   6.515
 5468POPC   C3B68745  28.853   3.951   6.900
 5468POPC   C4B68746  28.790   3.739   7.277
 5469POPC   NC368747  20.436  43.203   5.563
 5469POPC   PO468748  21.015  42.839   5.484
 5469POPC   GL168749  20.821  43.027   5.890
 5469POPC   GL268750  20.543  43.235   6.057
 5469POPC   C1A68751  20.841  42.923   6.352
 5469POPC   D2A68752  20.961  42.685   6.722
 5469POPC   C3A68753  20.824  42.919   7.089
 5469POPC   C4A68754  20.669  43.340   7.243
 5469POPC   C1B68755  20.362  42.875   6.209
 5469POPC   C2B68756  20.434  42.684   6.602
 5469POPC   C3B68757  20.328  42.912   6.965
 5469POPC   C4B68758  20.257  43.042   7.380
 5470POPC   NC368759   9.881  29.492   5.531
 5470POPC   PO468760   9.582  28.875   5.624
 5470POPC   GL168761   9.617  29.239   5.913
 5470POPC   GL268762   9.974  29.332   6.026
 5470POPC   C1A68763   9.576  29.346   6.345
 5470POPC   D2A68764   9.740  29.317   6.748
 5470POPC   C3A68765   9.480  29.273   7.088
 5470POPC   C4A68766   9.421  29.354   7.503
 5470POPC   C1B68767   9.875  28.924   6.251
 5470POPC   C2B68768   9.904  28.809   6.673
 5470POPC   C3B68769  10.022  29.022   7.047
 5470POPC   C4B68770  10.259  29.039   7.444
 5471POPC   NC368771   0.599  41.471   5.357
 5471POPC   PO468772   0.215  41.967   5.411
 5471POPC   GL168773   0.261  41.782   5.816
 5471POPC   GL268774   0.315  41.425   5.795
 5471POPC   C1A68775   0.126  41.658   6.240
 5471POPC   D2A68776   0.468  41.620   6.551
 5471POPC   C3A68777   0.357  41.663   6.966
 5471POPC   C4A68778   0.236  41.869   7.353
 5471POPC   C1B68779   0.397  41.233   6.213
 5471POPC   C2B68780   0.469  41.091   6.618
 5471POPC   C3B68781   0.628  41.184   7.023
 5471POPC   C4B68782   0.554  41.466   7.384
 5472POPC   NC368783  29.681  18.110   5.277
 5472POPC   PO468784  29.090  18.400   5.489
 5472POPC   GL168785  29.200  18.339   5.906
 5472POPC   GL268786  28.903  18.186   5.953
 5472POPC   C1A68787  29.210  18.284   6.370
 5472POPC   D2A68788  29.384  18.592   6.656
 5472POPC   C3A68789  29.158  18.485   6.950
 5472POPC   C4A68790  29.135  18.061   6.940
 5472POPC   C1B68791  28.790  18.521   6.235
 5472POPC   C2B68792  28.715  18.527   6.678
 5472POPC   C3B68793  28.778  18.808   7.048
 5472POPC   C4B68794  28.866  18.760   7.509
 5473POPC   NC368795  43.332  22.783   5.130
 5473POPC   PO468796  43.883  23.179   5.293
 5473POPC   GL168797  43.951  23.144   5.802
 5473POPC   GL268798  44.044  22.773   5.877
 5473POPC   C1A68799  43.787  23.083   6.220
 5473POPC   D2A68800  43.942  23.070   6.646
 5473POPC   C3A68801  43.956  23.382   6.958
 5473POPC   C4A68802  43.803  23.308   7.379
 5473POPC   C1B68803  43.873  22.573   6.278
 5473POPC   C2B68804  43.591  22.669   6.655
 5473POPC   C3B68805  43.683  22.894   7.051
 5473POPC   C4B68806  44.126  22.966   7.167
 5474POPC   NC368807  24.888  17.943   5.639
 5474POPC   PO468808  25.234  18.563   5.583
 5474POPC   GL168809  25.379  18.388   5.925
 5474POPC   GL268810  25.404  18.048   5.802
 5474POPC   C1A68811  25.321  18.544   6.319
 5474POPC   D2A68812  25.145  18.333   6.611
 5474POPC   C3A68813  25.426  18.405   6.906
 5474POPC   C4A68814  25.082  18.592   7.081
 5474POPC   C1B68815  25.213  17.978   6.222
 5474POPC   C2B68816  25.283  17.818   6.640
 5474POPC   C3B68817  25.251  17.968   7.040
 5474POPC   C4B68818  25.608  18.027   7.292
 5475POPC   NC368819  10.839  16.103   5.296
 5475POPC   PO468820  10.241  15.821   5.385
 5475POPC   GL168821  10.400  16.039   5.736
 5475POPC   GL268822  10.728  16.000   5.776
 5475POPC   C1A68823  10.378  16.005   6.193
 5475POPC   D2A68824  10.218  15.778   6.562
 5475POPC   C3A68825  10.291  15.990   6.940
 5475POPC   C4A68826  10.390  15.748   7.269
 5475POPC   C1B68827  10.861  15.822   6.153
 5475POPC   C2B68828  10.766  15.996   6.552
 5475POPC   C3B68829  10.792  15.829   6.941
 5475POPC   C4B68830  10.763  16.098   7.259
 5476POPC   NC368831  23.861  26.325   5.413
 5476POPC   PO468832  23.341  26.795   5.447
 5476POPC   GL168833  23.664  26.899   5.789
 5476POPC   GL268834  23.854  26.601   5.850
 5476POPC   C1A68835  23.830  26.943   6.244
 5476POPC   D2A68836  24.116  27.046   6.608
 5476POPC   C3A68837  23.871  27.061   7.004
 5476POPC   C4A68838  23.447  27.022   7.167
 5476POPC   C1B68839  24.001  26.459   6.261
 5476POPC   C2B68840  23.831  26.603   6.671
 5476POPC   C3B68841  23.750  26.561   7.114
 5476POPC   C4B68842  24.067  26.533   7.412
 5477POPC   NC368843  20.421  39.655   5.596
 5477POPC   PO468844  20.690  40.159   5.422
 5477POPC   GL168845  20.524  40.099   5.820
 5477POPC   GL268846  20.817  39.912   5.864
 5477POPC   C1A68847  20.433  39.919   6.257
 5477POPC   D2A68848  20.390  40.048   6.704
 5477POPC   C3A68849  20.367  39.767   7.051
 5477POPC   C4A68850  20.333  39.748   7.514
 5477POPC   C1B68851  20.938  39.875   6.264
 5477POPC   C2B68852  20.763  39.683   6.603
 5477POPC   C3B68853  20.880  39.748   7.007
 5477POPC   C4B68854  20.724  40.090   7.250
 5478POPC   NC368855  25.514  23.207   5.573
 5478POPC   PO468856  24.896  22.888   5.461
 5478POPC   GL168857  25.182  22.768   5.839
 5478POPC   GL268858  25.547  22.820   5.894
 5478POPC   C1A68859  25.219  22.944   6.288
 5478POPC   D2A68860  25.161  23.227   6.629
 5478POPC   C3A68861  25.203  23.059   7.026
 5478POPC   C4A68862  25.221  22.887   7.446
 5478POPC   C1B68863  25.504  22.547   6.276
 5478POPC   C2B68864  25.312  22.627   6.702
 5478POPC   C3B68865  25.553  22.671   7.107
 5478POPC   C4B68866  25.803  22.473   7.452
 5479POPC   NC368867   3.579  18.155   5.539
 5479POPC   PO468868   3.994  18.658   5.514
 5479POPC   GL168869   3.775  18.500   5.913
 5479POPC   GL268870   3.416  18.373   5.956
 5479POPC   C1A68871   3.764  18.266   6.331
 5479POPC   D2A68872   3.493  18.086   6.671
 5479POPC   C3A68873   3.579  18.207   7.108
 5479POPC   C4A68874   3.662  18.568   7.340
 5479POPC   C1B68875   3.253  18.414   6.346
 5479POPC   C2B68876   3.391  18.659   6.684
 5479POPC   C3B68877   3.158  18.604   7.036
 5479POPC   C4B68878   3.128  18.355   7.348
 5480POPC   NC368879  33.462  18.134   5.481
 5480POPC   PO468880  34.060  18.441   5.536
 5480POPC   GL168881  33.837  18.253   5.823
 5480POPC   GL268882  33.599  18.504   5.878
 5480POPC   C1A68883  33.872  18.166   6.241
 5480POPC   D2A68884  33.799  18.064   6.664
 5480POPC   C3A68885  33.886  18.418   6.946
 5480POPC   C4A68886  33.986  18.178   7.273
 5480POPC   C1B68887  33.350  18.568   6.266
 5480POPC   C2B68888  33.452  18.451   6.653
 5480POPC   C3B68889  33.411  18.615   7.045
 5480POPC   C4B68890  33.548  18.473   7.446
 5481POPC   NC368891  19.219  29.531   5.262
 5481POPC   PO468892  19.531  30.090   5.261
 5481POPC   GL168893  19.377  29.907   5.703
 5481POPC   GL268894  19.099  29.665   5.758
 5481POPC   C1A68895  19.366  29.794   6.185
 5481POPC   D2A68896  19.128  29.875   6.574
 5481POPC   C3A68897  19.339  29.845   6.963
 5481POPC   C4A68898  19.338  30.087   7.349
 5481POPC   C1B68899  18.867  29.874   6.111
 5481POPC   C2B68900  18.605  29.850   6.500
 5481POPC   C3B68901  18.632  29.968   6.920
 5481POPC   C4B68902  18.895  29.821   7.238
 5482POPC   NC368903  24.694   5.183   5.458
 5482POPC   PO468904  24.108   4.749   5.449
 5482POPC   GL168905  24.424   4.909   5.802
 5482POPC   GL268906  24.764   5.135   5.935
 5482POPC   C1A68907  24.400   4.998   6.235
 5482POPC   D2A68908  24.388   5.285   6.539
 5482POPC   C3A68909  24.303   5.035   6.850
 5482POPC   C4A68910  24.496   5.198   7.174
 5482POPC   C1B68911  24.945   4.950   6.259
 5482POPC   C2B68912  24.789   4.894   6.674
 5482POPC   C3B68913  24.961   4.974   7.085
 5482POPC   C4B68914  24.771   4.923   7.500
 5483POPC   NC368915  13.972  19.865   5.338
 5483POPC   PO468916  14.584  19.759   5.391
 5483POPC   GL168917  14.288  19.897   5.725
 5483POPC   GL268918  14.465  19.709   5.890
 5483POPC   C1A68919  14.145  19.964   6.170
 5483POPC   D2A68920  14.083  20.084   6.583
 5483POPC   C3A68921  14.174  19.908   6.989
 5483POPC   C4A68922  14.278  19.991   7.405
 5483POPC   C1B68923  14.633  19.810   6.271
 5483POPC   C2B68924  14.552  19.867   6.661
 5483POPC   C3B68925  14.698  19.929   7.057
 5483POPC   C4B68926  14.731  19.787   7.450
 5484POPC   NC368927  18.726  15.382   5.474
 5484POPC   PO468928  19.284  15.012   5.381
 5484POPC   GL168929  19.161  15.228   5.736
 5484POPC   GL268930  18.883  15.026   5.815
 5484POPC   C1A68931  19.140  15.354   6.161
 5484POPC   D2A68932  19.124  15.158   6.530
 5484POPC   C3A68933  19.246  15.330   6.868
 5484POPC   C4A68934  19.117  15.453   7.230
 5484POPC   C1B68935  18.746  14.996   6.229
 5484POPC   C2B68936  18.857  14.755   6.590
 5484POPC   C3B68937  18.813  15.036   6.937
 5484POPC   C4B68938  18.932  15.007   7.352
 5485POPC   NC368939  32.739  39.172   5.127
 5485POPC   PO468940  33.318  39.192   5.449
 5485POPC   GL168941  33.108  39.320   5.839
 5485POPC   GL268942  33.029  39.045   5.905
 5485POPC   C1A68943  32.986  39.466   6.231
 5485POPC   D2A68944  33.263  39.352   6.570
 5485POPC   C3A68945  33.108  39.277   6.988
 5485POPC   C4A68946  33.104  39.461   7.405
 5485POPC   C1B68947  32.769  38.993   6.243
 5485POPC   C2B68948  32.800  38.728   6.580
 5485POPC   C3B68949  32.810  38.791   6.985
 5485POPC   C4B68950  33.014  38.942   7.353
 5486POPC   NC368951   8.848  18.483   5.395
 5486POPC   PO468952   8.455  18.012   5.284
 5486POPC   GL168953   8.813  18.064   5.681
 5486POPC   GL268954   9.171  18.253   5.724
 5486POPC   C1A68955   8.878  18.263   6.134
 5486POPC   D2A68956   8.862  18.428   6.567
 5486POPC   C3A68957   9.006  18.117   6.885
 5486POPC   C4A68958   8.914  18.000   7.320
 5486POPC   C1B68959   9.281  18.635   6.010
 5486POPC   C2B68960   9.227  18.790   6.444
 5486POPC   C3B68961   9.276  18.556   6.846
 5486POPC   C4B68962   9.317  18.324   7.264
 5487POPC   NC368963  14.404  14.042   5.516
 5487POPC   PO468964  14.208  14.629   5.415
 5487POPC   GL168965  14.239  14.455   5.821
 5487POPC   GL268966  14.038  14.176   5.839
 5487POPC   C1A68967  14.413  14.353   6.232
 5487POPC   D2A68968  14.632  14.467   6.626
 5487POPC   C3A68969  14.457  14.606   7.010
 5487POPC   C4A68970  14.552  14.350   7.372
 5487POPC   C1B68971  13.907  14.257   6.237
 5487POPC   C2B68972  14.110  14.146   6.595
 5487POPC   C3B68973  14.292  14.128   6.962
 5487POPC   C4B68974  14.095  14.067   7.329
 5488POPC   NC368975  10.287   1.726   5.465
 5488POPC   PO468976  10.829   2.077   5.218
 5488POPC   GL168977  10.727   1.857   5.647
 5488POPC   GL268978  10.410   2.022   5.866
 5488POPC   C1A68979  10.786   1.775   6.117
 5488POPC   D2A68980  10.651   2.031   6.464
 5488POPC   C3A68981  10.535   1.846   6.868
 5488POPC   C4A68982  10.657   1.975   7.267
 5488POPC   C1B68983  10.132   2.162   6.247
 5488POPC   C2B68984  10.107   2.096   6.699
 5488POPC   C3B68985  10.122   2.175   7.161
 5488POPC   C4B68986  10.028   2.126   7.625
 5489POPC   NC368987  36.347  43.944   5.436
 5489POPC   PO468988  35.746  43.492   5.575
 5489POPC   GL168989  36.116  43.654   5.842
 5489POPC   GL268990  36.198  44.016   5.909
 5489POPC   C1A68991  36.216  43.675   6.275
 5489POPC   D2A68992  36.104  43.939   6.560
 5489POPC   C3A68993  36.005  43.811   6.957
 5489POPC   C4A68994  35.862  44.099   7.241
 5489POPC   C1B68995  36.547  44.102   6.203
 5489POPC   C2B68996  36.478  44.299   6.620
 5489POPC   C3B68997  36.359  44.193   7.033
 5489POPC   C4B68998  36.323  43.959   7.401
 5490POPC   NC368999  43.466  32.193   5.445
 5490POPC   PO469000  43.023  32.642   5.470
 5490POPC   GL169001  43.225  32.483   5.845
 5490POPC   GL269002  43.194  32.118   5.879
 5490POPC   C1A69003  43.092  32.413   6.283
 5490POPC   D2A69004  43.291  32.384   6.681
 5490POPC   C3A69005  42.984  32.337   6.974
 5490POPC   C4A69006  42.981  32.143   7.360
 5490POPC   C1B69007  43.383  31.964   6.259
 5490POPC   C2B69008  43.568  31.967   6.647
 5490POPC   C3B69009  43.373  32.005   7.023
 5490POPC   C4B69010  43.471  32.190   7.362
 5491POPC   NC369011   9.967  28.584   5.591
 5491POPC   PO469012   9.653  28.130   5.301
 5491POPC   GL169013   9.634  28.222   5.745
 5491POPC   GL269014   9.982  28.095   5.790
 5491POPC   C1A69015   9.674  28.407   6.184
 5491POPC   D2A69016   9.531  28.435   6.620
 5491POPC   C3A69017   9.730  28.479   7.013
 5491POPC   C4A69018  10.035  28.592   7.301
 5491POPC   C1B69019  10.107  28.161   6.216
 5491POPC   C2B69020  10.053  28.316   6.651
 5491POPC   C3B69021  10.120  28.144   7.074
 5491POPC   C4B69022  10.166  28.212   7.582
 5492POPC   NC369023  42.698   4.304   5.367
 5492POPC   PO469024  42.125   4.344   5.775
 5492POPC   GL169025  42.451   4.232   5.999
 5492POPC   GL269026  42.651   4.014   5.790
 5492POPC   C1A69027  42.366   4.143   6.442
 5492POPC   D2A69028  41.979   4.029   6.637
 5492POPC   C3A69029  42.062   4.340   6.946
 5492POPC   C4A69030  42.459   4.547   7.049
 5492POPC   C1B69031  42.708   3.853   6.218
 5492POPC   C2B69032  42.789   3.874   6.658
 5492POPC   C3B69033  42.490   4.022   6.962
 5492POPC   C4B69034  42.130   3.831   7.082
 5493POPC   NC369035   5.265  35.449   5.291
 5493POPC   PO469036   4.876  35.114   5.714
 5493POPC   GL169037   5.060  35.429   5.984
 5493POPC   GL269038   5.326  35.518   5.786
 5493POPC   C1A69039   5.082  35.448   6.444
 5493POPC   D2A69040   4.788  35.175   6.704
 5493POPC   C3A69041   4.853  35.189   7.119
 5493POPC   C4A69042   5.100  35.492   7.305
 5493POPC   C1B69043   5.476  35.725   6.142
 5493POPC   C2B69044   5.637  35.612   6.534
 5493POPC   C3B69045   5.413  35.542   6.905
 5493POPC   C4B69046   5.571  35.622   7.354
 5494POPC   NC369047   3.475  25.337   5.388
 5494POPC   PO469048   3.656  24.807   5.706
 5494POPC   GL169049   3.530  25.245   5.887
 5494POPC   GL269050   3.679  25.577   5.787
 5494POPC   C1A69051   3.441  25.522   6.255
 5494POPC   D2A69052   3.523  25.331   6.654
 5494POPC   C3A69053   3.216  25.249   7.001
 5494POPC   C4A69054   3.042  25.003   7.352
 5494POPC   C1B69055   3.902  25.733   6.151
 5494POPC   C2B69056   3.977  25.684   6.596
 5494POPC   C3B69057   3.769  25.559   7.009
 5494POPC   C4B69058   3.597  25.267   7.341
 5495POPC   NC369059   8.977   4.053   5.620
 5495POPC   PO469060   9.417   4.474   5.342
 5495POPC   GL169061   9.166   4.620   5.722
 5495POPC   GL269062   8.807   4.509   5.807
 5495POPC   C1A69063   9.169   4.667   6.192
 5495POPC   D2A69064   9.036   4.690   6.631
 5495POPC   C3A69065   9.217   4.412   6.969
 5495POPC   C4A69066   8.813   4.385   7.075
 5495POPC   C1B69067   8.796   4.287   6.233
 5495POPC   C2B69068   9.020   4.138   6.593
 5495POPC   C3B69069   8.919   3.887   6.957
 5495POPC   C4B69070   8.716   3.751   7.365
 5496POPC   NC369071  35.234   9.987   5.522
 5496POPC   PO469072  35.534   9.384   5.399
 5496POPC   GL169073  35.463   9.457   5.840
 5496POPC   GL269074  35.181   9.274   5.969
 5496POPC   C1A69075  35.483   9.800   6.156
 5496POPC   D2A69076  35.422  10.081   6.539
 5496POPC   C3A69077  35.457   9.917   6.966
 5496POPC   C4A69078  35.144   9.947   7.293
 5496POPC   C1B69079  35.136   9.447   6.323
 5496POPC   C2B69080  35.346   9.501   6.662
 5496POPC   C3B69081  35.155   9.481   7.025
 5496POPC   C4B69082  35.349   9.488   7.396
 5497POPC   NC369083  42.393  31.104   5.667
 5497POPC   PO469084  42.262  30.520   5.325
 5497POPC   GL169085  42.370  30.604   5.790
 5497POPC   GL269086  42.689  30.492   5.860
 5497POPC   C1A69087  42.424  30.742   6.253
 5497POPC   D2A69088  42.578  30.807   6.673
 5497POPC   C3A69089  42.364  30.650   6.990
 5497POPC   C4A69090  42.224  30.731   7.382
 5497POPC   C1B69091  42.666  30.286   6.228
 5497POPC   C2B69092  42.432  30.271   6.599
 5497POPC   C3B69093  42.628  30.215   6.977
 5497POPC   C4B69094  42.714  30.461   7.333
 5498POPC   NC369095  27.705  41.138   5.500
 5498POPC   PO469096  27.191  40.667   5.371
 5498POPC   GL169097  27.492  40.625   5.764
 5498POPC   GL269098  27.447  40.936   5.895
 5498POPC   C1A69099  27.602  40.574   6.239
 5498POPC   D2A69100  27.794  40.379   6.637
 5498POPC   C3A69101  27.862  40.632   7.023
 5498POPC   C4A69102  27.603  40.769   7.374
 5498POPC   C1B69103  27.832  41.044   6.157
 5498POPC   C2B69104  27.909  40.917   6.592
 5498POPC   C3B69105  27.732  41.113   6.989
 5498POPC   C4B69106  27.892  41.186   7.393
 5499POPC   NC369107  37.707  34.086   5.577
 5499POPC   PO469108  37.582  33.337   5.720
 5499POPC   GL169109  37.724  33.705   5.919
 5499POPC   GL269110  38.023  33.921   5.966
 5499POPC   C1A69111  37.533  33.949   6.211
 5499POPC   D2A69112  37.356  33.818   6.614
 5499POPC   C3A69113  37.444  33.986   7.019
 5499POPC   C4A69114  37.551  33.573   7.196
 5499POPC   C1B69115  38.140  33.541   6.189
 5499POPC   C2B69116  38.066  33.470   6.620
 5499POPC   C3B69117  37.879  33.755   6.867
 5499POPC   C4B69118  37.929  33.916   7.288
 5500POPC   NC369119   4.351  40.298   4.891
 5500POPC   PO469120   4.300  40.904   5.212
 5500POPC   GL169121   4.307  40.702   5.664
 5500POPC   GL269122   4.543  40.909   5.869
 5500POPC   C1A69123   4.255  40.515   6.073
 5500POPC   D2A69124   4.236  40.695   6.483
 5500POPC   C3A69125   4.530  40.506   6.776
 5500POPC   C4A69126   4.521  40.443   7.206
 5500POPC   C1B69127   4.682  40.867   6.279
 5500POPC   C2B69128   4.589  41.036   6.670
 5500POPC   C3B69129   4.433  40.937   7.040
 5500POPC   C4B69130   4.044  40.906   7.218
 5501POPC   NC369131  25.061  30.330   5.411
 5501POPC   PO469132  25.480  30.777   5.242
 5501POPC   GL169133  25.245  30.745   5.652
 5501POPC   GL269134  25.307  31.060   5.764
 5501POPC   C1A69135  25.125  30.718   6.125
 5501POPC   D2A69136  25.058  30.622   6.566
 5501POPC   C3A69137  25.320  30.650   6.918
 5501POPC   C4A69138  25.127  30.675   7.293
 5501POPC   C1B69139  25.492  31.112   6.149
 5501POPC   C2B69140  25.432  31.024   6.573
 5501POPC   C3B69141  25.523  31.166   6.997
 5501POPC   C4B69142  25.417  31.090   7.429
 5502POPC   NC369143  27.373  29.544   5.472
 5502POPC   PO469144  27.724  30.154   5.325
 5502POPC   GL169145  27.793  29.849   5.669
 5502POPC   GL269146  27.472  29.942   5.783
 5502POPC   C1A69147  27.805  29.670   6.090
 5502POPC   D2A69148  27.787  29.813   6.501
 5502POPC   C3A69149  27.972  29.646   6.799
 5502POPC   C4A69150  27.869  29.745   7.201
 5502POPC   C1B69151  27.424  29.998   6.201
 5502POPC   C2B69152  27.285  29.827   6.576
 5502POPC   C3B69153  27.468  29.961   6.951
 5502POPC   C4B69154  27.330  30.015   7.362
 5503POPC   NC369155  42.757   8.298   5.461
 5503POPC   PO469156  43.351   8.165   5.575
 5503POPC   GL169157  43.179   8.097   5.929
 5503POPC   GL269158  42.883   7.975   5.840
 5503POPC   C1A69159  43.157   7.913   6.326
 5503POPC   D2A69160  43.534   7.889   6.589
 5503POPC   C3A69161  43.363   7.866   6.984
 5503POPC   C4A69162  42.976   7.915   7.174
 5503POPC   C1B69163  42.798   8.358   6.122
 5503POPC   C2B69164  43.092   8.423   6.438
 5503POPC   C3B69165  43.066   8.319   6.850
 5503POPC   C4B69166  42.957   8.568   7.173
 5504POPC   NC369167  23.594  32.587   5.228
 5504POPC   PO469168  23.589  31.988   5.514
 5504POPC   GL169169  23.876  32.220   5.743
 5504POPC   GL269170  23.951  31.926   5.902
 5504POPC   C1A69171  23.965  32.335   6.191
 5504POPC   D2A69172  23.929  32.144   6.579
 5504POPC   C3A69173  23.744  32.347   6.927
 5504POPC   C4A69174  24.105  32.435   7.160
 5504POPC   C1B69175  23.605  31.903   6.227
 5504POPC   C2B69176  23.427  32.018   6.652
 5504POPC   C3B69177  23.599  31.874   7.067
 5504POPC   C4B69178  23.452  31.869   7.514
 5505POPC   NC369179  20.163  10.715   5.575
 5505POPC   PO469180  19.965  10.177   5.175
 5505POPC   GL169181  19.724  10.291   5.613
 5505POPC   GL269182  19.713  10.626   5.800
 5505POPC   C1A69183  19.732  10.193   6.100
 5505POPC   D2A69184  19.877  10.397   6.494
 5505POPC   C3A69185  19.650  10.369   6.872
 5505POPC   C4A69186  19.803  10.432   7.266
 5505POPC   C1B69187  19.898  10.808   6.183
 5505POPC   C2B69188  19.766  10.903   6.624
 5505POPC   C3B69189  19.765  10.885   7.071
 5505POPC   C4B69190  19.962  10.899   7.468
 5506POPC   NC369191  10.326  18.188   5.481
 5506POPC   PO469192  10.897  18.698   5.538
 5506POPC   GL169193  10.742  18.375   5.794
 5506POPC   GL269194  10.404  18.479   5.875
 5506POPC   C1A69195  10.747  18.020   6.109
 5506POPC   D2A69196  10.542  18.012   6.522
 5506POPC   C3A69197  10.762  17.961   6.908
 5506POPC   C4A69198  10.615  17.980   7.315
 5506POPC   C1B69199  10.648  18.500   6.280
 5506POPC   C2B69200  10.618  18.495   6.730
 5506POPC   C3B69201  10.724  18.463   7.159
 5506POPC   C4B69202  10.823  18.421   7.591
 5507POPC   NC369203   9.824   5.667   5.190
 5507POPC   PO469204   9.496   6.137   5.423
 5507POPC   GL169205   9.714   5.992   5.775
 5507POPC   GL269206   9.967   5.758   5.696
 5507POPC   C1A69207   9.881   5.978   6.207
 5507POPC   D2A69208   9.986   6.104   6.617
 5507POPC   C3A69209   9.726   6.076   6.974
 5507POPC   C4A69210   9.809   6.157   7.398
 5507POPC   C1B69211  10.081   5.518   6.088
 5507POPC   C2B69212  10.191   5.610   6.535
 5507POPC   C3B69213  10.026   5.634   6.953
 5507POPC   C4B69214  10.075   5.438   7.360
 5508POPC   NC369215  37.996  38.824   5.398
 5508POPC   PO469216  38.055  38.078   5.342
 5508POPC   GL169217  37.759  38.370   5.627
 5508POPC   GL269218  37.953  38.539   5.831
 5508POPC   C1A69219  37.460  38.511   6.012
 5508POPC   D2A69220  37.435  38.717   6.452
 5508POPC   C3A69221  37.304  38.506   6.813
 5508POPC   C4A69222  37.498  38.441   7.195
 5508POPC   C1B69223  37.884  38.703   6.225
 5508POPC   C2B69224  37.987  38.640   6.632
 5508POPC   C3B69225  37.949  38.800   7.024
 5508POPC   C4B69226  38.095  38.529   7.364
 5509POPC   NC369227   7.898  19.044   5.474
 5509POPC   PO469228   8.581  19.296   5.426
 5509POPC   GL169229   8.502  19.306   5.881
 5509POPC   GL269230   8.149  19.194   5.931
 5509POPC   C1A69231   8.440  19.286   6.351
 5509POPC   D2A69232   8.114  19.250   6.673
 5509POPC   C3A69233   8.196  19.005   7.036
 5509POPC   C4A69234   8.179  19.199   7.416
 5509POPC   C1B69235   8.128  18.881   6.306
 5509POPC   C2B69236   7.835  18.799   6.652
 5509POPC   C3B69237   7.704  18.913   7.089
 5509POPC   C4B69238   7.779  18.851   7.564
 5510POPC   NC369239  42.322  41.035   4.981
 5510POPC   PO469240  42.046  40.587   5.441
 5510POPC   GL169241  42.363  40.658   5.749
 5510POPC   GL269242  42.230  40.995   5.844
 5510POPC   C1A69243  42.478  40.469   6.145
 5510POPC   D2A69244  42.165  40.507   6.495
 5510POPC   C3A69245  42.286  40.638   6.874
 5510POPC   C4A69246  42.620  40.552   7.141
 5510POPC   C1B69247  42.336  40.942   6.280
 5510POPC   C2B69248  42.608  40.979   6.659
 5510POPC   C3B69249  42.512  41.056   7.087
 5510POPC   C4B69250  42.118  40.965   7.336
 5511POPC   NC369251   9.583  18.855   5.430
 5511POPC   PO469252   9.679  19.508   5.408
 5511POPC   GL169253   9.747  19.191   5.750
 5511POPC   GL269254  10.053  18.997   5.728
 5511POPC   C1A69255   9.636  19.000   6.143
 5511POPC   D2A69256   9.768  19.135   6.521
 5511POPC   C3A69257   9.567  18.990   6.838
 5511POPC   C4A69258   9.440  18.864   7.223
 5511POPC   C1B69259  10.099  19.264   6.116
 5511POPC   C2B69260  10.154  19.452   6.527
 5511POPC   C3B69261  10.269  19.304   6.933
 5511POPC   C4B69262   9.965  19.070   7.168
 5512POPC   NC369263  32.259  23.269   5.424
 5512POPC   PO469264  32.154  22.567   5.345
 5512POPC   GL169265  32.279  22.851   5.702
 5512POPC   GL269266  32.548  23.019   5.791
 5512POPC   C1A69267  32.148  23.125   6.082
 5512POPC   D2A69268  32.000  23.125   6.517
 5512POPC   C3A69269  32.194  23.275   6.907
 5512POPC   C4A69270  32.198  23.036   7.317
 5512POPC   C1B69271  32.676  23.181   6.176
 5512POPC   C2B69272  32.628  23.250   6.605
 5512POPC   C3B69273  32.658  23.047   6.997
 5512POPC   C4B69274  32.567  23.366   7.267
 5513POPC   NC369275  39.433  21.630   5.230
 5513POPC   PO469276  39.343  21.058   5.599
 5513POPC   GL169277  39.198  21.335   5.912
 5513POPC   GL269278  38.909  21.555   5.814
 5513POPC   C1A69279  39.127  21.093   6.304
 5513POPC   D2A69280  38.921  21.132   6.709
 5513POPC   C3A69281  39.278  21.301   6.962
 5513POPC   C4A69282  39.558  21.100   7.233
 5513POPC   C1B69283  38.810  21.477   6.243
 5513POPC   C2B69284  39.051  21.613   6.575
 5513POPC   C3B69285  38.880  21.600   6.978
 5513POPC   C4B69286  39.119  21.664   7.305
 5514POPC   NC369287  31.764  25.771   5.465
 5514POPC   PO469288  31.127  26.002   5.359
 5514POPC   GL169289  31.372  25.973   5.763
 5514POPC   GL269290  31.279  25.651   5.722
 5514POPC   C1A69291  31.554  26.055   6.188
 5514POPC   D2A69292  31.552  25.785   6.561
 5514POPC   C3A69293  31.582  26.016   6.918
 5514POPC   C4A69294  31.635  26.172   7.317
 5514POPC   C1B69295  31.272  25.611   6.151
 5514POPC   C2B69296  31.045  25.802   6.477
 5514POPC   C3B69297  31.083  25.863   6.892
 5514POPC   C4B69298  31.189  25.958   7.282
 5515POPC   NC369299  30.864   3.870   5.332
 5515POPC   PO469300  30.356   3.358   5.465
 5515POPC   GL169301  30.575   3.445   5.824
 5515POPC   GL269302  30.869   3.629   5.780
 5515POPC   C1A69303  30.685   3.317   6.234
 5515POPC   D2A69304  30.556   3.256   6.643
 5515POPC   C3A69305  30.719   3.462   6.961
 5515POPC   C4A69306  30.646   3.768   7.264
 5515POPC   C1B69307  30.752   3.817   6.164
 5515POPC   C2B69308  30.946   3.674   6.547
 5515POPC   C3B69309  31.088   3.798   6.939
 5515POPC   C4B69310  31.093   3.569   7.330
 5516POPC   NC369311  35.847  42.107   5.557
 5516POPC   PO469312  36.239  41.632   5.374
 5516POPC   GL169313  36.299  41.543   5.756
 5516POPC   GL269314  35.958  41.666   5.826
 5516POPC   C1A69315  36.208  41.353   6.156
 5516POPC   D2A69316  36.333  41.521   6.535
 5516POPC   C3A69317  36.093  41.420   6.910
 5516POPC   C4A69318  36.288  41.436   7.299
 5516POPC   C1B69319  35.945  41.802   6.254
 5516POPC   C2B69320  36.003  41.893   6.691
 5516POPC   C3B69321  35.925  41.896   7.114
 5516POPC   C4B69322  35.864  41.719   7.496
 5517POPC   NC369323   4.203  16.839   5.191
 5517POPC   PO469324   3.476  16.764   5.366
 5517POPC   GL169325   3.372  16.726   5.761
 5517POPC   GL269326   3.200  16.410   5.757
 5517POPC   C1A69327   3.578  16.771   6.164
 5517POPC   D2A69328   3.429  16.579   6.532
 5517POPC   C3A69329   3.469  16.796   6.920
 5517POPC   C4A69330   3.591  16.856   7.353
 5517POPC   C1B69331   3.628  16.292   5.936
 5517POPC   C2B69332   3.855  16.368   6.308
 5517POPC   C3B69333   3.822  16.384   6.774
 5517POPC   C4B69334   3.675  16.344   7.196
 5518POPC   NC369335  37.794  39.772   5.149
 5518POPC   PO469336  37.714  40.496   5.074
 5518POPC   GL169337  37.664  40.187   5.493
 5518POPC   GL269338  37.968  40.004   5.618
 5518POPC   C1A69339  37.574  39.988   5.967
 5518POPC   D2A69340  37.660  39.646   6.332
 5518POPC   C3A69341  37.655  39.683   6.822
 5518POPC   C4A69342  37.695  40.034   7.120
 5518POPC   C1B69343  38.051  40.138   6.068
 5518POPC   C2B69344  37.903  40.103   6.513
 5518POPC   C3B69345  38.077  40.313   6.863
 5518POPC   C4B69346  38.108  40.282   7.288
 5519POPC   NC369347  36.334  35.022   5.348
 5519POPC   PO469348  36.041  35.639   5.367
 5519POPC   GL169349  36.102  35.442   5.776
 5519POPC   GL269350  36.446  35.325   5.756
 5519POPC   C1A69351  35.973  35.674   6.191
 5519POPC   D2A69352  35.859  35.681   6.650
 5519POPC   C3A69353  35.965  35.250   6.762
 5519POPC   C4A69354  36.155  35.057   7.107
 5519POPC   C1B69355  36.468  35.515   6.140
 5519POPC   C2B69356  36.357  35.516   6.565
 5519POPC   C3B69357  36.283  35.580   7.000
 5519POPC   C4B69358  36.428  35.731   7.396
 5520POPC   NC369359  31.253  10.383   5.678
 5520POPC   PO469360  30.630  10.584   5.410
 5520POPC   GL169361  30.689  10.238   5.733
 5520POPC   GL269362  30.828  10.478   5.949
 5520POPC   C1A69363  30.625  10.092   6.200
 5520POPC   D2A69364  30.710  10.355   6.571
 5520POPC   C3A69365  30.620  10.265   6.991
 5520POPC   C4A69366  30.705  10.533   7.391
 5520POPC   C1B69367  30.426  10.570   6.202
 5520POPC   C2B69368  30.283  10.782   6.581
 5520POPC   C3B69369  30.359  10.714   7.022
 5520POPC   C4B69370  30.493  11.005   7.360
 5521POPC   NC369371  25.398   5.815   5.336
 5521POPC   PO469372  25.041   6.428   5.191
 5521POPC   GL169373  25.321   6.230   5.614
 5521POPC   GL269374  25.136   5.891   5.757
 5521POPC   C1A69375  25.366   6.159   6.122
 5521POPC   D2A69376  25.372   6.364   6.580
 5521POPC   C3A69377  25.237   6.193   6.991
 5521POPC   C4A69378  25.297   5.768   7.116
 5521POPC   C1B69379  24.968   5.767   6.169
 5521POPC   C2B69380  25.071   5.679   6.619
 5521POPC   C3B69381  24.890   5.471   6.983
 5521POPC   C4B69382  25.030   5.368   7.427
 5522POPC   NC369383  41.075  36.350   5.482
 5522POPC   PO469384  40.657  35.869   5.510
 5522POPC   GL169385  40.703  36.024   5.878
 5522POPC   GL269386  40.444  36.250   5.869
 5522POPC   C1A69387  41.024  36.080   6.180
 5522POPC   D2A69388  41.046  36.183   6.616
 5522POPC   C3A69389  41.165  35.872   6.919
 5522POPC   C4A69390  41.256  36.201   7.148
 5522POPC   C1B69391  40.590  36.338   6.280
 5522POPC   C2B69392  40.528  36.171   6.682
 5522POPC   C3B69393  40.720  36.220   7.101
 5522POPC   C4B69394  40.488  36.197   7.514
 5523POPC   NC369395   1.911  29.352   5.598
 5523POPC   PO469396   1.838  28.681   5.741
 5523POPC   GL169397   1.799  28.879   6.073
 5523POPC   GL269398   2.125  29.041   5.989
 5523POPC   C1A69399   1.805  29.156   6.384
 5523POPC   D2A69400   2.163  29.045   6.579
 5523POPC   C3A69401   2.016  28.900   6.917
 5523POPC   C4A69402   1.758  29.135   7.175
 5523POPC   C1B69403   2.223  29.429   6.225
 5523POPC   C2B69404   2.371  29.500   6.644
 5523POPC   C3B69405   2.225  29.357   7.029
 5523POPC   C4B69406   2.143  29.598   7.365
 5524POPC   NC369407  19.471   0.722   5.420
 5524POPC   PO469408  18.933   0.342   5.310
 5524POPC   GL169409  19.002   0.455   5.762
 5524POPC   GL269410  19.216   0.718   5.856
 5524POPC   C1A69411  18.860   0.595   6.195
 5524POPC   D2A69412  18.981   0.439   6.575
 5524POPC   C3A69413  18.751   0.605   6.892
 5524POPC   C4A69414  19.020   0.562   7.163
 5524POPC   C1B69415  19.392   0.655   6.297
 5524POPC   C2B69416  19.418   0.636   6.784
 5524POPC   C3B69417  19.501   0.483   7.238
 5524POPC   C4B69418  19.460   0.474   7.721
 5525POPC   NC369419  28.752  22.095   5.444
 5525POPC   PO469420  29.439  22.256   5.438
 5525POPC   GL169421  29.171  22.176   5.783
 5525POPC   GL269422  28.873  22.388   5.862
 5525POPC   C1A69423  29.253  22.261   6.215
 5525POPC   D2A69424  29.510  22.162   6.591
 5525POPC   C3A69425  29.452  22.505   6.883
 5525POPC   C4A69426  29.397  22.557   7.299
 5525POPC   C1B69427  28.718  22.275   6.263
 5525POPC   C2B69428  28.948  22.049   6.566
 5525POPC   C3B69429  29.138  22.082   6.957
 5525POPC   C4B69430  28.988  21.762   7.197
 5526POPC   NC369431   1.132   8.823   5.373
 5526POPC   PO469432   0.749   9.371   5.333
 5526POPC   GL169433   1.089   9.186   5.715
 5526POPC   GL269434   1.036   8.797   5.864
 5526POPC   C1A69435   1.390   9.080   6.105
 5526POPC   D2A69436   1.257   8.954   6.551
 5526POPC   C3A69437   1.432   9.103   6.965
 5526POPC   C4A69438   1.659   9.209   7.371
 5526POPC   C1B69439   1.321   8.578   6.182
 5526POPC   C2B69440   1.475   8.496   6.607
 5526POPC   C3B69441   1.263   8.628   6.983
 5526POPC   C4B69442   1.069   8.542   7.358
 5527POPC   NC369443   5.083  22.963   5.469
 5527POPC   PO469444   5.706  22.964   5.286
 5527POPC   GL169445   5.506  23.057   5.765
 5527POPC   GL269446   5.488  22.737   6.025
 5527POPC   C1A69447   5.233  23.144   6.180
 5527POPC   D2A69448   5.218  22.902   6.636
 5527POPC   C3A69449   5.016  23.115   7.020
 5527POPC   C4A69450   4.740  23.378   7.331
 5527POPC   C1B69451   5.078  22.631   6.202
 5527POPC   C2B69452   4.812  22.591   6.582
 5527POPC   C3B69453   4.871  22.579   7.038
 5527POPC   C4B69454   4.958  22.803   7.425
 5528POPC   NC369455  10.919   0.971   5.485
 5528POPC   PO469456  10.308   1.266   5.484
 5528POPC   GL169457  10.494   1.434   5.858
 5528POPC   GL269458  10.858   1.389   5.790
 5528POPC   C1A69459  10.422   1.399   6.317
 5528POPC   D2A69460  10.188   1.162   6.632
 5528POPC   C3A69461  10.391   1.161   7.038
 5528POPC   C4A69462  10.651   1.462   7.254
 5528POPC   C1B69463  10.877   1.178   6.209
 5528POPC   C2B69464  10.755   1.114   6.659
 5528POPC   C3B69465  10.970   1.130   7.062
 5528POPC   C4B69466  10.983   1.161   7.525
 5529POPC   NC369467   0.109  29.064   5.524
 5529POPC   PO469468   0.648  29.316   5.472
 5529POPC   GL169469   0.523  29.054   5.861
 5529POPC   GL269470   0.176  28.973   6.026
 5529POPC   C1A69471   0.665  29.046   6.305
 5529POPC   D2A69472   0.854  29.365   6.606
 5529POPC   C3A69473   0.679  29.391   7.007
 5529POPC   C4A69474   0.647  29.064   7.315
 5529POPC   C1B69475   0.249  29.433   6.105
 5529POPC   C2B69476   0.378  29.603   6.506
 5529POPC   C3B69477   0.203  29.605   6.902
 5529POPC   C4B69478   0.189  29.273   7.204
 5530POPC   NC369479  12.548  22.666   5.398
 5530POPC   PO469480  12.006  23.162   5.406
 5530POPC   GL169481  12.093  22.865   5.694
 5530POPC   GL269482  12.426  22.946   5.814
 5530POPC   C1A69483  12.052  22.815   6.139
 5530POPC   D2A69484  12.250  22.914   6.509
 5530POPC   C3A69485  11.952  22.837   6.838
 5530POPC   C4A69486  11.921  22.899   7.281
 5530POPC   C1B69487  12.233  23.311   6.060
 5530POPC   C2B69488  12.268  23.447   6.498
 5530POPC   C3B69489  12.162  23.296   6.897
 5530POPC   C4B69490  12.311  23.280   7.293
 5531POPC   NC369491  23.056  14.696   5.270
 5531POPC   PO469492  22.958  15.375   5.432
 5531POPC   GL169493  22.949  15.233   5.899
 5531POPC   GL269494  23.279  15.240   6.055
 5531POPC   C1A69495  22.866  15.032   6.312
 5531POPC   D2A69496  22.655  14.877   6.720
 5531POPC   C3A69497  22.720  15.140   7.071
 5531POPC   C4A69498  23.098  15.394   7.168
 5531POPC   C1B69499  23.385  15.334   6.431
 5531POPC   C2B69500  23.117  15.198   6.719
 5531POPC   C3B69501  23.137  14.856   7.000
 5531POPC   C4B69502  23.224  14.679   7.432
 5532POPC   NC369503  24.497  13.000   5.071
 5532POPC   PO469504  24.551  12.567   5.586
 5532POPC   GL169505  24.475  12.716   5.958
 5532POPC   GL269506  24.830  12.658   6.026
 5532POPC   C1A69507  24.222  12.822   6.325
 5532POPC   D2A69508  24.407  12.858   6.727
 5532POPC   C3A69509  24.290  12.783   7.137
 5532POPC   C4A69510  24.368  13.089   7.463
 5532POPC   C1B69511  24.732  13.011   6.306
 5532POPC   C2B69512  24.809  13.176   6.722
 5532POPC   C3B69513  24.750  13.008   7.141
 5532POPC   C4B69514  24.670  12.659   7.450
 5533POPC   NC369515  35.703  13.331   5.529
 5533POPC   PO469516  35.463  13.897   5.220
 5533POPC   GL169517  35.371  13.748   5.677
 5533POPC   GL269518  35.583  13.612   5.940
 5533POPC   C1A69519  35.105  13.731   6.097
 5533POPC   D2A69520  35.113  13.841   6.561
 5533POPC   C3A69521  35.237  13.528   6.881
 5533POPC   C4A69522  35.142  13.456   7.319
 5533POPC   C1B69523  35.528  13.536   6.396
 5533POPC   C2B69524  35.746  13.475   6.796
 5533POPC   C3B69525  35.635  13.411   7.221
 5533POPC   C4B69526  35.654  13.325   7.674
 5534POPC   NC369527  43.787  13.812   5.453
 5534POPC   PO469528  44.268  13.543   5.130
 5534POPC   GL169529  44.146  13.527   5.668
 5534POPC   GL269530  44.082  13.823   5.894
 5534POPC   C1A69531  43.763  13.478   6.051
 5534POPC   D2A69532  43.469  13.560   6.421
 5534POPC   C3A69533  43.697  13.659   6.801
 5534POPC   C4A69534  43.837  13.449   7.175
 5534POPC   C1B69535  43.964  13.866   6.370
 5534POPC   C2B69536  44.038  14.063   6.805
 5534POPC   C3B69537  44.019  13.920   7.246
 5534POPC   C4B69538  44.047  14.036   7.710
 5535POPC   NC369539  33.005  40.175   5.248
 5535POPC   PO469540  33.012  40.830   5.354
 5535POPC   GL169541  32.937  40.757   5.801
 5535POPC   GL269542  32.620  40.610   5.968
 5535POPC   C1A69543  33.101  40.789   6.209
 5535POPC   D2A69544  33.069  41.044   6.576
 5535POPC   C3A69545  33.255  40.921   6.932
 5535POPC   C4A69546  33.035  41.046   7.249
 5535POPC   C1B69547  32.830  40.364   6.285
 5535POPC   C2B69548  33.061  40.508   6.661
 5535POPC   C3B69549  32.954  40.544   7.121
 5535POPC   C4B69550  32.835  40.413   7.547
 5536POPC   NC369551  18.634  27.579   5.298
 5536POPC   PO469552  19.253  27.720   5.380
 5536POPC   GL169553  19.199  27.827   5.827
 5536POPC   GL269554  18.844  27.897   5.782
 5536POPC   C1A69555  19.134  27.777   6.286
 5536POPC   D2A69556  18.943  27.420   6.494
 5536POPC   C3A69557  19.096  27.258   6.899
 5536POPC   C4A69558  19.047  27.389   7.281
 5536POPC   C1B69559  18.636  27.796   6.153
 5536POPC   C2B69560  18.696  27.917   6.581
 5536POPC   C3B69561  18.860  27.726   6.920
 5536POPC   C4B69562  18.638  27.697   7.280
 5537POPC   NC369563  35.100  36.764   5.341
 5537POPC   PO469564  34.489  36.946   5.239
 5537POPC   GL169565  34.568  37.008   5.681
 5537POPC   GL269566  34.820  36.782   5.769
 5537POPC   C1A69567  34.725  37.204   6.098
 5537POPC   D2A69568  34.616  37.148   6.547
 5537POPC   C3A69569  34.719  37.144   6.997
 5537POPC   C4A69570  34.479  36.850   7.233
 5537POPC   C1B69571  34.878  36.683   6.201
 5537POPC   C2B69572  35.027  36.815   6.592
 5537POPC   C3B69573  34.929  36.670   7.003
 5537POPC   C4B69574  34.936  36.841   7.429
 5538POPC   NC369575  41.010  23.915   5.563
 5538POPC   PO469576  40.495  23.451   5.372
 5538POPC   GL169577  40.791  23.499   5.735
 5538POPC   GL269578  40.946  23.190   5.883
 5538POPC   C1A69579  40.898  23.710   6.162
 5538POPC   D2A69580  40.858  24.002   6.521
 5538POPC   C3A69581  40.879  23.861   6.983
 5538POPC   C4A69582  40.895  23.981   7.424
 5538POPC   C1B69583  40.552  23.331   6.130
 5538POPC   C2B69584  40.549  23.558   6.531
 5538POPC   C3B69585  40.486  23.541   6.940
 5538POPC   C4B69586  40.433  23.329   7.290
 5539POPC   NC369587   2.787  38.458   5.597
 5539POPC   PO469588   3.354  38.450   5.326
 5539POPC   GL169589   3.549  38.513   5.729
 5539POPC   GL269590   3.218  38.578   5.850
 5539POPC   C1A69591   3.693  38.514   6.178
 5539POPC   D2A69592   3.538  38.417   6.608
 5539POPC   C3A69593   3.827  38.349   6.961
 5539POPC   C4A69594   3.878  38.505   7.355
 5539POPC   C1B69595   3.182  38.647   6.286
 5539POPC   C2B69596   3.253  38.865   6.694
 5539POPC   C3B69597   3.483  38.729   7.078
 5539POPC   C4B69598   3.395  38.354   7.360
 5540POPC   NC369599   5.083   5.788   5.282
 5540POPC   PO469600   5.607   5.619   5.796
 5540POPC   GL169601   5.173   5.810   5.873
 5540POPC   GL269602   4.854   5.623   5.957
 5540POPC   C1A69603   5.102   6.060   6.271
 5540POPC   D2A69604   4.969   5.995   6.720
 5540POPC   C3A69605   5.261   6.156   7.054
 5540POPC   C4A69606   5.408   6.124   7.454
 5540POPC   C1B69607   4.888   5.613   6.382
 5540POPC   C2B69608   5.212   5.548   6.651
 5540POPC   C3B69609   5.202   5.667   7.053
 5540POPC   C4B69610   4.968   5.880   7.374
 5541POPC   NC369611  14.692   7.182   5.100
 5541POPC   PO469612  14.272   7.577   5.498
 5541POPC   GL169613  14.215   7.433   5.897
 5541POPC   GL269614  14.508   7.228   5.926
 5541POPC   C1A69615  14.403   7.532   6.326
 5541POPC   D2A69616  14.788   7.563   6.574
 5541POPC   C3A69617  14.641   7.571   7.005
 5541POPC   C4A69618  14.218   7.497   7.151
 5541POPC   C1B69619  14.173   7.083   6.263
 5541POPC   C2B69620  14.011   7.194   6.685
 5541POPC   C3B69621  14.019   7.019   7.116
 5541POPC   C4B69622  14.274   7.091   7.490
 5542POPC   NC369623  13.148  28.223   5.410
 5542POPC   PO469624  12.558  28.167   5.600
 5542POPC   GL169625  12.813  28.370   5.938
 5542POPC   GL269626  13.136  28.524   5.836
 5542POPC   C1A69627  12.995  28.569   6.333
 5542POPC   D2A69628  13.129  28.536   6.747
 5542POPC   C3A69629  12.864  28.261   6.966
 5542POPC   C4A69630  12.656  28.355   7.298
 5542POPC   C1B69631  13.254  28.164   6.128
 5542POPC   C2B69632  13.088  28.046   6.543
 5542POPC   C3B69633  13.328  28.104   6.954
 5542POPC   C4B69634  13.173  28.188   7.388
 5543POPC   NC369635  42.600  24.209   5.088
 5543POPC   PO469636  42.008  24.416   5.467
 5543POPC   GL169637  42.163  24.635   5.797
 5543POPC   GL269638  42.493  24.708   5.690
 5543POPC   C1A69639  42.095  24.573   6.234
 5543POPC   D2A69640  42.231  24.347   6.598
 5543POPC   C3A69641  42.033  24.420   6.997
 5543POPC   C4A69642  42.118  24.619   7.373
 5543POPC   C1B69643  42.611  24.575   6.125
 5543POPC   C2B69644  42.593  24.724   6.559
 5543POPC   C3B69645  42.504  24.600   6.993
 5543POPC   C4B69646  42.745  24.355   7.296
 5544POPC   NC369647  14.697  14.859   5.410
 5544POPC   PO469648  14.309  15.307   5.595
 5544POPC   GL169649  14.381  14.959   5.869
 5544POPC   GL269650  14.716  15.074   5.938
 5544POPC   C1A69651  14.476  14.846   6.308
 5544POPC   D2A69652  14.754  14.963   6.679
 5544POPC   C3A69653  14.620  15.072   7.098
 5544POPC   C4A69654  14.739  14.845   7.459
 5544POPC   C1B69655  14.647  15.331   6.332
 5544POPC   C2B69656  14.623  15.486   6.780
 5544POPC   C3B69657  14.442  15.580   7.159
 5544POPC   C4B69658  14.549  15.799   7.511
 5545POPC   NC369659  23.817  38.772   5.160
 5545POPC   PO469660  24.021  39.227   5.600
 5545POPC   GL169661  23.791  39.183   5.965
 5545POPC   GL269662  23.594  38.941   5.897
 5545POPC   C1A69663  23.530  39.027   6.364
 5545POPC   D2A69664  23.405  38.735   6.651
 5545POPC   C3A69665  23.539  38.968   6.981
 5545POPC   C4A69666  23.613  39.355   7.189
 5545POPC   C1B69667  23.993  38.848   6.269
 5545POPC   C2B69668  24.079  38.792   6.707
 5545POPC   C3B69669  24.037  39.030   7.067
 5545POPC   C4B69670  23.812  38.950   7.443
 5546POPC   NC369671  39.033  17.819   5.504
 5546POPC   PO469672  39.363  17.345   5.203
 5546POPC   GL169673  39.397  17.425   5.673
 5546POPC   GL269674  39.463  17.776   5.798
 5546POPC   C1A69675  39.333  17.380   6.137
 5546POPC   D2A69676  38.932  17.472   6.389
 5546POPC   C3A69677  38.883  17.480   6.872
 5546POPC   C4A69678  39.118  17.544   7.281
 5546POPC   C1B69679  39.340  17.883   6.231
 5546POPC   C2B69680  39.338  17.686   6.638
 5546POPC   C3B69681  39.548  17.695   7.040
 5546POPC   C4B69682  39.496  17.936   7.406
 5547POPC   NC369683   4.256   3.907   5.413
 5547POPC   PO469684   4.011   4.464   5.303
 5547POPC   GL169685   4.020   4.449   5.763
 5547POPC   GL269686   4.325   4.308   5.806
 5547POPC   C1A69687   4.067   4.452   6.234
 5547POPC   D2A69688   4.340   4.198   6.546
 5547POPC   C3A69689   4.204   4.280   6.958
 5547POPC   C4A69690   3.887   4.511   7.152
 5547POPC   C1B69691   4.584   4.467   6.157
 5547POPC   C2B69692   4.836   4.356   6.507
 5547POPC   C3B69693   4.748   4.223   6.894
 5547POPC   C4B69694   4.588   4.368   7.293
 5548POPC   NC369695  37.102  39.037   5.310
 5548POPC   PO469696  37.459  39.599   5.432
 5548POPC   GL169697  37.223  39.293   5.782
 5548POPC   GL269698  36.882  39.093   5.768
 5548POPC   C1A69699  36.952  39.364   6.185
 5548POPC   D2A69700  36.581  39.485   6.457
 5548POPC   C3A69701  36.679  39.522   6.893
 5548POPC   C4A69702  37.059  39.386   7.088
 5548POPC   C1B69703  37.067  38.862   6.115
 5548POPC   C2B69704  36.914  38.701   6.533
 5548POPC   C3B69705  36.884  38.889   6.964
 5548POPC   C4B69706  36.520  39.121   7.187
 5549POPC   NC369707  20.953   8.419   5.293
 5549POPC   PO469708  21.525   8.192   5.454
 5549POPC   GL169709  21.410   8.365   5.871
 5549POPC   GL269710  21.062   8.517   5.795
 5549POPC   C1A69711  21.399   8.201   6.323
 5549POPC   D2A69712  21.388   8.337   6.781
 5549POPC   C3A69713  21.583   8.190   7.173
 5549POPC   C4A69714  21.659   8.291   7.624
 5549POPC   C1B69715  20.922   8.322   6.182
 5549POPC   C2B69716  20.950   8.103   6.606
 5549POPC   C3B69717  21.070   8.016   7.045
 5549POPC   C4B69718  21.138   8.168   7.473
 5550POPC   NC369719  33.390   2.696   5.354
 5550POPC   PO469720  33.975   2.873   5.328
 5550POPC   GL169721  33.853   2.937   5.744
 5550POPC   GL269722  33.501   2.954   5.776
 5550POPC   C1A69723  34.057   2.849   6.151
 5550POPC   D2A69724  34.308   2.788   6.547
 5550POPC   C3A69725  34.054   2.762   6.929
 5550POPC   C4A69726  33.941   2.993   7.278
 5550POPC   C1B69727  33.437   2.922   6.231
 5550POPC   C2B69728  33.516   2.790   6.650
 5550POPC   C3B69729  33.434   2.845   7.079
 5550POPC   C4B69730  33.564   2.725   7.481
 5551POPC   NC369731   7.562  13.142   4.985
 5551POPC   PO469732   7.108  13.522   5.382
 5551POPC   GL169733   7.275  13.540   5.796
 5551POPC   GL269734   7.577  13.699   5.717
 5551POPC   C1A69735   7.164  13.472   6.227
 5551POPC   D2A69736   7.219  13.790   6.576
 5551POPC   C3A69737   7.253  13.589   6.981
 5551POPC   C4A69738   7.173  13.542   7.434
 5551POPC   C1B69739   7.489  13.868   6.125
 5551POPC   C2B69740   7.722  13.779   6.497
 5551POPC   C3B69741   7.819  13.798   6.907
 5551POPC   C4B69742   7.640  13.748   7.319
 5552POPC   NC369743  29.441  25.715   5.553
 5552POPC   PO469744  28.877  25.945   5.528
 5552POPC   GL169745  29.034  25.959   5.885
 5552POPC   GL269746  28.944  26.286   5.925
 5552POPC   C1A69747  29.218  25.732   6.196
 5552POPC   D2A69748  29.438  25.754   6.546
 5552POPC   C3A69749  29.280  25.846   6.938
 5552POPC   C4A69750  29.088  25.931   7.301
 5552POPC   C1B69751  29.130  26.227   6.321
 5552POPC   C2B69752  29.196  26.311   6.729
 5552POPC   C3B69753  28.947  26.522   7.019
 5552POPC   C4B69754  28.864  26.360   7.420
 5553POPC   NC369755   1.839  40.614   5.513
 5553POPC   PO469756   2.576  40.684   5.357
 5553POPC   GL169757   2.354  40.848   5.752
 5553POPC   GL269758   2.053  41.046   5.750
 5553POPC   C1A69759   2.199  40.735   6.195
 5553POPC   D2A69760   1.964  40.880   6.581
 5553POPC   C3A69761   2.126  40.813   7.026
 5553POPC   C4A69762   2.264  40.425   7.222
 5553POPC   C1B69763   1.763  41.100   6.109
 5553POPC   C2B69764   1.635  41.303   6.499
 5553POPC   C3B69765   1.752  41.183   6.927
 5553POPC   C4B69766   1.605  40.807   7.113
 5554POPC   NC369767  31.902  36.024   5.581
 5554POPC   PO469768  32.329  36.459   5.414
 5554POPC   GL169769  32.359  36.253   5.829
 5554POPC   GL269770  32.595  35.973   5.923
 5554POPC   C1A69771  32.271  36.168   6.279
 5554POPC   D2A69772  31.985  35.992   6.597
 5554POPC   C3A69773  32.019  36.204   6.967
 5554POPC   C4A69774  32.385  36.233   7.211
 5554POPC   C1B69775  32.422  35.670   6.238
 5554POPC   C2B69776  32.515  35.507   6.648
 5554POPC   C3B69777  32.333  35.769   6.968
 5554POPC   C4B69778  32.370  35.776   7.446
 5555POPC   NC369779   8.690  44.693   5.417
 5555POPC   PO469780   9.278  44.285   5.374
 5555POPC   GL169781   9.034  44.481   5.732
 5555POPC   GL269782   9.042  44.811   5.805
 5555POPC   C1A69783   8.903  44.481   6.181
 5555POPC   D2A69784   8.800  44.546   6.616
 5555POPC   C3A69785   8.826  44.915   6.861
 5555POPC   C4A69786   8.849  44.870   7.279
 5555POPC   C1B69787   9.361  44.919   6.088
 5555POPC   C2B69788   9.196  44.942   6.492
 5555POPC   C3B69789   9.365   0.066   6.846
 5555POPC   C4B69790   9.308   0.106   7.240
 5556POPC   NC369791  17.445   8.611   5.598
 5556POPC   PO469792  17.669   9.218   5.271
 5556POPC   GL169793  17.668   9.124   5.715
 5556POPC   GL269794  17.857   9.406   5.829
 5556POPC   C1A69795  17.433   9.147   6.123
 5556POPC   D2A69796  17.236   8.988   6.523
 5556POPC   C3A69797  17.389   8.878   6.948
 5556POPC   C4A69798  17.203   8.720   7.348
 5556POPC   C1B69799  17.934   9.255   6.260
 5556POPC   C2B69800  18.022   9.371   6.686
 5556POPC   C3B69801  17.859   9.250   7.086
 5556POPC   C4B69802  17.418   9.299   7.244
 5557POPC   NC369803  24.372  21.073   5.647
 5557POPC   PO469804  24.462  20.412   5.414
 5557POPC   GL169805  24.555  20.524   5.830
 5557POPC   GL269806  24.810  20.261   5.800
 5557POPC   C1A69807  24.610  20.839   6.205
 5557POPC   D2A69808  24.410  20.954   6.597
 5557POPC   C3A69809  24.584  20.873   7.022
 5557POPC   C4A69810  24.443  20.730   7.440
 5557POPC   C1B69811  24.807  20.375   6.269
 5557POPC   C2B69812  24.642  20.464   6.678
 5557POPC   C3B69813  24.724  20.383   7.117
 5557POPC   C4B69814  24.564  20.198   7.477
 5558POPC   NC369815  10.441   2.291   5.414
 5558POPC   PO469816  10.554   2.908   5.279
 5558POPC   GL169817  10.379   3.006   5.712
 5558POPC   GL269818  10.466   2.674   5.810
 5558POPC   C1A69819  10.455   3.009   6.190
 5558POPC   D2A69820  10.696   3.069   6.576
 5558POPC   C3A69821  10.459   2.919   6.937
 5558POPC   C4A69822  10.503   2.864   7.411
 5558POPC   C1B69823  10.502   2.500   6.234
 5558POPC   C2B69824  10.476   2.457   6.703
 5558POPC   C3B69825  10.549   2.447   7.141
 5558POPC   C4B69826  10.467   2.370   7.592
 5559POPC   NC369827  24.091  14.482   5.405
 5559POPC   PO469828  23.425  14.492   5.470
 5559POPC   GL169829  23.430  14.308   5.820
 5559POPC   GL269830  23.795  14.360   5.857
 5559POPC   C1A69831  23.441  14.445   6.250
 5559POPC   D2A69832  23.457  14.795   6.577
 5559POPC   C3A69833  23.602  14.651   6.998
 5559POPC   C4A69834  23.658  14.356   7.343
 5559POPC   C1B69835  23.945  14.545   6.264
 5559POPC   C2B69836  24.049  14.394   6.696
 5559POPC   C3B69837  24.096  14.542   7.124
 5559POPC   C4B69838  24.166  14.524   7.582
 5560POPC   NC369839   8.129  44.237   5.060
 5560POPC   PO469840   8.227  43.713   5.447
 5560POPC   GL169841   8.360  43.860   5.828
 5560POPC   GL269842   8.022  43.807   5.907
 5560POPC   C1A69843   8.397  43.744   6.227
 5560POPC   D2A69844   8.173  43.699   6.592
 5560POPC   C3A69845   8.406  43.817   6.949
 5560POPC   C4A69846   8.333  44.049   7.305
 5560POPC   C1B69847   7.961  44.056   6.235
 5560POPC   C2B69848   7.990  44.236   6.608
 5560POPC   C3B69849   7.955  44.250   7.020
 5560POPC   C4B69850   7.990  44.549   7.332
 5561POPC   NC369851  28.711  18.104   5.493
 5561POPC   PO469852  28.198  18.506   5.493
 5561POPC   GL169853  28.348  18.252   5.833
 5561POPC   GL269854  28.031  18.129   5.973
 5561POPC   C1A69855  28.456  18.141   6.254
 5561POPC   D2A69856  28.234  18.329   6.607
 5561POPC   C3A69857  28.445  18.221   6.968
 5561POPC   C4A69858  28.767  18.327   7.243
 5561POPC   C1B69859  28.031  17.901   6.391
 5561POPC   C2B69860  28.243  17.806   6.770
 5561POPC   C3B69861  28.090  17.896   7.186
 5561POPC   C4B69862  28.105  17.856   7.638
 5562POPC   NC369863  17.471  14.040   5.276
 5562POPC   PO469864  17.690  13.402   5.234
 5562POPC   GL169865  17.706  13.457   5.731
 5562POPC   GL269866  17.357  13.454   5.849
 5562POPC   C1A69867  17.704  13.470   6.220
 5562POPC   D2A69868  17.509  13.624   6.622
 5562POPC   C3A69869  17.676  13.644   7.067
 5562POPC   C4A69870  17.543  13.615   7.513
 5562POPC   C1B69871  17.206  13.742   6.172
 5562POPC   C2B69872  17.084  13.898   6.574
 5562POPC   C3B69873  17.241  13.923   7.010
 5562POPC   C4B69874  17.210  13.992   7.449
 5563POPC   NC369875  27.362   8.405   5.491
 5563POPC   PO469876  27.820   7.891   5.467
 5563POPC   GL169877  27.549   8.028   5.826
 5563POPC   GL269878  27.707   8.379   5.891
 5563POPC   C1A69879  27.504   8.145   6.290
 5563POPC   D2A69880  27.736   8.383   6.607
 5563POPC   C3A69881  27.666   8.239   7.010
 5563POPC   C4A69882  27.772   8.295   7.460
 5563POPC   C1B69883  27.341   8.592   6.111
 5563POPC   C2B69884  27.227   8.526   6.531
 5563POPC   C3B69885  27.178   8.353   6.927
 5563POPC   C4B69886  27.304   8.457   7.349
 5564POPC   NC369887   0.675  25.432   5.463
 5564POPC   PO469888   0.148  25.099   5.496
 5564POPC   GL169889   0.309  25.320   5.870
 5564POPC   GL269890   0.685  25.272   5.948
 5564POPC   C1A69891   0.237  25.309   6.330
 5564POPC   D2A69892   0.228  25.032   6.670
 5564POPC   C3A69893   0.262  25.161   7.111
 5564POPC   C4A69894   0.560  24.906   7.336
 5564POPC   C1B69895   0.605  25.635   6.180
 5564POPC   C2B69896   0.571  25.857   6.552
 5564POPC   C3B69897   0.723  25.820   6.949
 5564POPC   C4B69898   0.496  25.650   7.244
 5565POPC   NC369899   2.289  16.964   5.571
 5565POPC   PO469900   1.697  16.542   5.502
 5565POPC   GL169901   1.739  16.710   5.882
 5565POPC   GL269902   2.055  16.594   5.895
 5565POPC   C1A69903   1.795  16.649   6.351
 5565POPC   D2A69904   2.040  16.864   6.708
 5565POPC   C3A69905   1.882  16.882   7.145
 5565POPC   C4A69906   1.743  16.989   7.617
 5565POPC   C1B69907   2.233  16.313   6.165
 5565POPC   C2B69908   2.211  16.390   6.552
 5565POPC   C3B69909   2.458  16.434   6.852
 5565POPC   C4B69910   2.196  16.466   7.185
 5566POPC   NC369911  11.161  18.317   5.464
 5566POPC   PO469912  11.612  17.791   5.431
 5566POPC   GL169913  11.544  18.135   5.745
 5566POPC   GL269914  11.546  18.487   5.761
 5566POPC   C1A69915  11.197  18.293   6.102
 5566POPC   D2A69916  11.074  18.100   6.502
 5566POPC   C3A69917  11.136  18.301   6.879
 5566POPC   C4A69918  11.115  18.124   7.267
 5566POPC   C1B69919  11.533  18.662   6.199
 5566POPC   C2B69920  11.552  18.515   6.650
 5566POPC   C3B69921  11.586  18.658   7.107
 5566POPC   C4B69922  11.350  18.532   7.512
 5567POPC   NC369923  24.929  22.397   5.529
 5567POPC   PO469924  24.246  22.042   5.455
 5567POPC   GL169925  24.453  22.120   5.813
 5567POPC   GL269926  24.757  21.968   5.855
 5567POPC   C1A69927  24.633  22.323   6.183
 5567POPC   D2A69928  24.792  22.489   6.563
 5567POPC   C3A69929  24.445  22.470   6.827
 5567POPC   C4A69930  24.364  22.143   7.154
 5567POPC   C1B69931  24.754  21.810   6.285
 5567POPC   C2B69932  24.535  21.940   6.696
 5567POPC   C3B69933  24.686  21.741   7.111
 5567POPC   C4B69934  25.056  21.919   7.367
 5568POPC   NC369935  28.257  13.292   5.290
 5568POPC   PO469936  28.579  12.764   5.371
 5568POPC   GL169937  28.513  12.822   5.835
 5568POPC   GL269938  28.240  12.601   5.883
 5568POPC   C1A69939  28.422  12.871   6.322
 5568POPC   D2A69940  28.242  12.600   6.696
 5568POPC   C3A69941  28.250  12.819   7.120
 5568POPC   C4A69942  28.573  13.114   7.304
 5568POPC   C1B69943  28.541  12.417   6.177
 5568POPC   C2B69944  28.746  12.540   6.603
 5568POPC   C3B69945  28.649  12.509   7.068
 5568POPC   C4B69946  28.559  12.637   7.531
 5569POPC   NC369947  38.414  15.130   5.292
 5569POPC   PO469948  38.766  15.626   5.614
 5569POPC   GL169949  38.705  15.211   5.764
 5569POPC   GL269950  38.359  15.176   5.815
 5569POPC   C1A69951  38.790  15.201   6.206
 5569POPC   D2A69952  38.749  15.317   6.626
 5569POPC   C3A69953  38.733  15.032   6.988
 5569POPC   C4A69954  38.588  15.068   7.454
 5569POPC   C1B69955  38.279  15.103   6.248
 5569POPC   C2B69956  38.241  15.267   6.656
 5569POPC   C3B69957  38.264  15.168   7.073
 5569POPC   C4B69958  38.085  15.186   7.448
 5570POPC   NC369959   8.007  10.812   5.741
 5570POPC   PO469960   8.043  10.284   5.431
 5570POPC   GL169961   8.089  10.254   5.868
 5570POPC   GL269962   8.440  10.397   5.846
 5570POPC   C1A69963   8.302  10.167   6.280
 5570POPC   D2A69964   8.361  10.389   6.684
 5570POPC   C3A69965   8.070  10.368   7.025
 5570POPC   C4A69966   7.763  10.627   7.234
 5570POPC   C1B69967   8.432  10.675   6.234
 5570POPC   C2B69968   8.352  10.927   6.608
 5570POPC   C3B69969   8.372  10.825   7.034
 5570POPC   C4B69970   8.727  10.869   7.291
 5571POPC   NC369971   8.484  31.690   5.435
 5571POPC   PO469972   8.409  31.001   5.371
 5571POPC   GL169973   8.214  31.243   5.719
 5571POPC   GL269974   7.875  31.367   5.598
 5571POPC   C1A69975   8.328  31.262   6.198
 5571POPC   D2A69976   8.659  31.457   6.522
 5571POPC   C3A69977   8.483  31.658   6.906
 5571POPC   C4A69978   8.271  31.472   7.243
 5571POPC   C1B69979   7.804  31.237   6.037
 5571POPC   C2B69980   7.820  31.374   6.463
 5571POPC   C3B69981   7.852  31.412   6.915
 5571POPC   C4B69982   7.944  31.084   7.194
 5572POPC   NC369983  43.841  39.262   5.299
 5572POPC   PO469984  44.400  39.056   5.660
 5572POPC   GL169985  44.214  39.429   5.880
 5572POPC   GL269986  43.868  39.458   5.784
 5572POPC   C1A69987  44.131  39.461   6.332
 5572POPC   D2A69988  43.904  39.284   6.697
 5572POPC   C3A69989  44.126  39.259   7.083
 5572POPC   C4A69990  44.088  38.938   7.401
 5572POPC   C1B69991  43.656  39.554   6.186
 5572POPC   C2B69992  43.555  39.653   6.651
 5572POPC   C3B69993  43.714  39.587   7.085
 5572POPC   C4B69994  43.646  39.206   7.298
 5573POPC   NC369995  15.422  33.146   5.417
 5573POPC   PO469996  14.994  32.514   5.352
 5573POPC   GL169997  14.985  32.762   5.750
 5573POPC   GL269998  15.089  33.112   5.819
 5573POPC   C1A69999  15.129  32.818   6.199
 5573POPC   D2A70000  15.271  33.013   6.559
 5573POPC   C3A70001  15.138  32.875   6.899
 5573POPC   C4A70002  15.082  32.845   7.276
 5573POPC   C1B70003  15.214  33.379   6.206
 5573POPC   C2B70004  15.036  33.451   6.660
 5573POPC   C3B70005  15.149  33.335   7.128
 5573POPC   C4B70006  14.824  33.295   7.491
 5574POPC   NC370007  18.081  15.380   5.413
 5574POPC   PO470008  18.572  14.942   5.422
 5574POPC   GL170009  18.367  15.193   5.799
 5574POPC   GL270010  18.070  15.469   5.892
 5574POPC   C1A70011  18.227  15.108   6.210
 5574POPC   D2A70012  18.411  15.223   6.585
 5574POPC   C3A70013  18.292  15.036   6.942
 5574POPC   C4A70014  18.441  15.121   7.300
 5574POPC   C1B70015  18.090  15.619   6.303
 5574POPC   C2B70016  17.978  15.487   6.722
 5574POPC   C3B70017  18.118  15.513   7.134
 5574POPC   C4B70018  17.864  15.682   7.449
 5575POPC   NC370019  17.271  21.948   5.409
 5575POPC   PO470020  17.838  22.323   5.475
 5575POPC   GL170021  17.649  22.079   5.806
 5575POPC   GL270022  17.328  22.176   5.848
 5575POPC   C1A70023  17.639  22.096   6.268
 5575POPC   D2A70024  17.797  22.331   6.626
 5575POPC   C3A70025  17.713  22.219   7.051
 5575POPC   C4A70026  17.434  21.904   7.233
 5575POPC   C1B70027  17.150  21.957   6.149
 5575POPC   C2B70028  17.071  22.065   6.582
 5575POPC   C3B70029  17.232  22.296   6.918
 5575POPC   C4B70030  17.173  22.392   7.343
 5576POPC   NC370031  23.239  15.675   5.179
 5576POPC   PO470032  23.889  16.003   5.446
 5576POPC   GL170033  23.738  15.976   5.861
 5576POPC   GL270034  23.397  16.058   5.890
 5576POPC   C1A70035  23.845  16.113   6.265
 5576POPC   D2A70036  23.720  15.947   6.667
 5576POPC   C3A70037  24.004  15.919   7.040
 5576POPC   C4A70038  24.067  15.963   7.512
 5576POPC   C1B70039  23.331  15.829   6.316
 5576POPC   C2B70040  23.237  15.783   6.781
 5576POPC   C3B70041  23.436  16.051   7.125
 5576POPC   C4B70042  23.450  16.504   7.271
 5577POPC   NC370043  23.600  17.175   5.512
 5577POPC   PO470044  24.028  17.555   5.091
 5577POPC   GL170045  23.942  17.654   5.579
 5577POPC   GL270046  23.579  17.741   5.690
 5577POPC   C1A70047  23.970  17.597   6.059
 5577POPC   D2A70048  23.917  17.646   6.527
 5577POPC   C3A70049  23.801  17.365   6.884
 5577POPC   C4A70050  23.809  17.509   7.347
 5577POPC   C1B70051  23.518  17.805   6.149
 5577POPC   C2B70052  23.381  17.698   6.575
 5577POPC   C3B70053  23.502  17.761   7.022
 5577POPC   C4B70054  23.377  17.725   7.533
 5578POPC   NC370055  25.189   9.622   5.456
 5578POPC   PO470056  24.709   9.989   5.722
 5578POPC   GL170057  25.051   9.796   5.918
 5578POPC   GL270058  25.108   9.393   5.900
 5578POPC   C1A70059  25.182   9.989   6.294
 5578POPC   D2A70060  25.100   9.798   6.678
 5578POPC   C3A70061  25.133  10.071   7.000
 5578POPC   C4A70062  25.324   9.999   7.379
 5578POPC   C1B70063  25.248   9.493   6.287
 5578POPC   C2B70064  25.596   9.677   6.514
 5578POPC   C3B70065  25.549   9.736   6.949
 5578POPC   C4B70066  25.524   9.478   7.315
 5579POPC   NC370067  37.611  25.701   5.299
 5579POPC   PO470068  37.655  25.076   5.542
 5579POPC   GL170069  37.807  25.399   5.765
 5579POPC   GL270070  38.096  25.200   5.775
 5579POPC   C1A70071  37.694  25.329   6.209
 5579POPC   D2A70072  37.677  25.158   6.623
 5579POPC   C3A70073  37.606  25.480   6.930
 5579POPC   C4A70074  37.479  25.451   7.347
 5579POPC   C1B70075  38.041  24.939   6.123
 5579POPC   C2B70076  37.966  24.756   6.508
 5579POPC   C3B70077  38.070  24.926   6.903
 5579POPC   C4B70078  37.866  24.792   7.246
 5580POPC   NC370079  18.376  24.550   5.636
 5580POPC   PO470080  17.866  24.158   5.574
 5580POPC   GL170081  18.060  24.338   5.980
 5580POPC   GL270082  18.245  24.679   6.094
 5580POPC   C1A70083  18.382  24.251   6.290
 5580POPC   D2A70084  18.232  24.490   6.618
 5580POPC   C3A70085  18.396  24.363   6.988
 5580POPC   C4A70086  18.153  24.416   7.320
 5580POPC   C1B70087  18.429  24.932   6.415
 5580POPC   C2B70088  18.545  24.849   6.821
 5580POPC   C3B70089  18.376  24.856   7.192
 5580POPC   C4B70090  18.220  24.889   7.663
 5581POPC   NC370091   7.306  14.618   5.351
 5581POPC   PO470092   7.467  15.272   5.370
 5581POPC   GL170093   7.417  15.132   5.804
 5581POPC   GL270094   7.176  14.836   5.813
 5581POPC   C1A70095   7.476  15.329   6.230
 5581POPC   D2A70096   7.340  15.314   6.665
 5581POPC   C3A70097   7.626  15.118   6.951
 5581POPC   C4A70098   7.641  15.450   7.230
 5581POPC   C1B70099   6.980  14.814   6.236
 5581POPC   C2B70100   7.162  14.841   6.653
 5581POPC   C3B70101   7.162  14.971   7.096
 5581POPC   C4B70102   7.034  15.073   7.510
 5582POPC   NC370103  44.958  42.197   5.107
 5582POPC   PO470104  44.416  42.341   5.500
 5582POPC   GL170105  44.686  42.435   5.899
 5582POPC   GL270106  44.968  42.739   5.885
 5582POPC   C1A70107  44.475  42.398   6.323
 5582POPC   D2A70108  44.463  42.557   6.769
 5582POPC   C3A70109  44.479  42.216   7.121
 5582POPC   C4A70110  44.273  42.165   7.557
 5582POPC   C1B70111  44.980  42.576   6.305
 5582POPC   C2B70112  44.957  42.465   6.742
 5582POPC   C3B70113  44.816  42.623   7.147
 5582POPC   C4B70114  44.811  42.599   7.607
 5583POPC   NC370115  24.076   3.629   5.449
 5583POPC   PO470116  24.699   3.945   5.395
 5583POPC   GL170117  24.603   3.881   5.858
 5583POPC   GL270118  24.339   3.613   5.887
 5583POPC   C1A70119  24.561   3.780   6.323
 5583POPC   D2A70120  24.447   3.397   6.547
 5583POPC   C3A70121  24.462   3.340   7.012
 5583POPC   C4A70122  24.609   3.718   7.227
 5583POPC   C1B70123  24.015   3.765   6.167
 5583POPC   C2B70124  24.002   3.706   6.615
 5583POPC   C3B70125  24.082   3.680   7.060
 5583POPC   C4B70126  24.204   3.614   7.509
 5584POPC   NC370127  28.053  43.064   5.199
 5584POPC   PO470128  28.657  42.824   5.414
 5584POPC   GL170129  28.527  43.067   5.790
 5584POPC   GL270130  28.292  43.331   5.685
 5584POPC   C1A70131  28.417  43.019   6.238
 5584POPC   D2A70132  28.424  43.265   6.623
 5584POPC   C3A70133  28.465  43.083   7.037
 5584POPC   C4A70134  28.466  43.388   7.373
 5584POPC   C1B70135  28.090  43.390   6.113
 5584POPC   C2B70136  27.917  43.237   6.540
 5584POPC   C3B70137  28.031  43.346   6.994
 5584POPC   C4B70138  28.066  43.088   7.390
 5585POPC   NC370139  33.836  22.868   5.490
 5585POPC   PO470140  33.453  23.454   5.432
 5585POPC   GL170141  33.496  23.168   5.787
 5585POPC   GL270142  33.823  23.247   5.828
 5585POPC   C1A70143  33.627  22.844   6.141
 5585POPC   D2A70144  33.917  22.792   6.465
 5585POPC   C3A70145  33.722  22.688   6.862
 5585POPC   C4A70146  33.981  22.662   7.220
 5585POPC   C1B70147  33.687  23.327   6.246
 5585POPC   C2B70148  33.601  23.153   6.635
 5585POPC   C3B70149  33.805  23.162   7.031
 5585POPC   C4B70150  33.500  22.946   7.265
 5586POPC   NC370151  19.707  14.835   5.396
 5586POPC   PO470152  20.057  15.433   5.291
 5586POPC   GL170153  19.991  15.361   5.724
 5586POPC   GL270154  20.042  14.997   5.770
 5586POPC   C1A70155  19.638  15.344   6.021
 5586POPC   D2A70156  19.603  15.154   6.429
 5586POPC   C3A70157  19.718  15.152   6.875
 5586POPC   C4A70158  19.632  15.380   7.251
 5586POPC   C1B70159  20.063  15.131   6.198
 5586POPC   C2B70160  20.092  15.359   6.574
 5586POPC   C3B70161  20.208  15.270   7.002
 5586POPC   C4B70162  20.170  15.359   7.436
 5587POPC   NC370163  32.942   5.453   5.498
 5587POPC   PO470164  32.682   6.040   5.624
 5587POPC   GL170165  32.981   5.820   5.864
 5587POPC   GL270166  33.344   5.738   5.749
 5587POPC   C1A70167  32.886   5.742   6.279
 5587POPC   D2A70168  32.711   5.525   6.637
 5587POPC   C3A70169  32.693   5.866   6.905
 5587POPC   C4A70170  32.840   6.018   7.294
 5587POPC   C1B70171  33.377   6.001   6.147
 5587POPC   C2B70172  33.421   5.888   6.576
 5587POPC   C3B70173  33.197   5.852   6.936
 5587POPC   C4B70174  33.229   5.670   7.332
 5588POPC   NC370175  37.559  26.321   5.414
 5588POPC   PO470176  38.056  25.890   5.316
 5588POPC   GL170177  37.816  25.967   5.714
 5588POPC   GL270178  37.665  26.292   5.901
 5588POPC   C1A70179  37.716  25.842   6.126
 5588POPC   D2A70180  37.625  26.163   6.428
 5588POPC   C3A70181  37.560  26.036   6.856
 5588POPC   C4A70182  37.701  25.908   7.270
 5588POPC   C1B70183  37.966  26.522   6.152
 5588POPC   C2B70184  38.089  26.397   6.542
 5588POPC   C3B70185  37.966  26.504   6.942
 5588POPC   C4B70186  38.016  26.347   7.329
 5589POPC   NC370187  32.374  35.160   5.406
 5589POPC   PO470188  32.398  35.807   5.499
 5589POPC   GL170189  32.303  35.472   5.800
 5589POPC   GL270190  31.951  35.420   5.708
 5589POPC   C1A70191  32.158  35.127   6.114
 5589POPC   D2A70192  31.975  34.956   6.525
 5589POPC   C3A70193  32.204  35.138   6.878
 5589POPC   C4A70194  32.185  35.335   7.261
 5589POPC   C1B70195  31.917  35.589   6.130
 5589POPC   C2B70196  32.010  35.473   6.522
 5589POPC   C3B70197  31.871  35.544   6.910
 5589POPC   C4B70198  31.912  35.789   7.244
 5590POPC   NC370199  10.854  33.841   5.620
 5590POPC   PO470200  10.228  33.634   5.405
 5590POPC   GL170201  10.344  33.900   5.719
 5590POPC   GL270202  10.441  33.605   5.900
 5590POPC   C1A70203  10.267  34.013   6.146
 5590POPC   D2A70204  10.472  34.139   6.545
 5590POPC   C3A70205  10.343  33.928   6.928
 5590POPC   C4A70206  10.441  33.926   7.384
 5590POPC   C1B70207  10.624  33.681   6.309
 5590POPC   C2B70208  10.762  33.725   6.724
 5590POPC   C3B70209  10.577  33.499   7.064
 5590POPC   C4B70210  10.398  33.444   7.491
 5591POPC   NC370211  24.054  11.034   5.439
 5591POPC   PO470212  23.665  11.507   5.350
 5591POPC   GL170213  23.861  11.537   5.765
 5591POPC   GL270214  23.841  11.219   5.859
 5591POPC   C1A70215  23.708  11.559   6.240
 5591POPC   D2A70216  23.594  11.352   6.670
 5591POPC   C3A70217  23.562  11.451   7.126
 5591POPC   C4A70218  23.791  11.617   7.493
 5591POPC   C1B70219  23.936  10.952   6.200
 5591POPC   C2B70220  23.790  10.872   6.584
 5591POPC   C3B70221  23.879  10.790   6.994
 5591POPC   C4B70222  23.706  10.959   7.320
 5592POPC   NC370223   8.455  22.224   5.498
 5592POPC   PO470224   7.795  22.199   5.383
 5592POPC   GL170225   8.026  22.147   5.811
 5592POPC   GL270226   8.306  22.393   5.966
 5592POPC   C1A70227   8.046  22.110   6.284
 5592POPC   D2A70228   8.245  22.404   6.584
 5592POPC   C3A70229   8.218  22.266   7.016
 5592POPC   C4A70230   7.881  22.264   7.297
 5592POPC   C1B70231   8.640  22.533   6.261
 5592POPC   C2B70232   8.758  22.527   6.647
 5592POPC   C3B70233   8.736  22.395   7.031
 5592POPC   C4B70234   8.521  22.584   7.336
 5593POPC   NC370235  36.048  32.078   5.438
 5593POPC   PO470236  35.995  32.627   5.103
 5593POPC   GL170237  36.158  32.541   5.597
 5593POPC   GL270238  35.918  32.654   5.775
 5593POPC   C1A70239  36.137  32.317   6.069
 5593POPC   D2A70240  35.955  32.009   6.411
 5593POPC   C3A70241  36.067  32.129   6.860
 5593POPC   C4A70242  35.992  31.971   7.302
 5593POPC   C1B70243  35.763  32.697   6.158
 5593POPC   C2B70244  35.898  32.529   6.530
 5593POPC   C3B70245  35.990  32.698   6.911
 5593POPC   C4B70246  36.074  32.466   7.251
 5594POPC   NC370247  39.296  25.533   5.407
 5594POPC   PO470248  38.753  25.210   5.080
 5594POPC   GL170249  38.891  25.136   5.551
 5594POPC   GL270250  39.237  25.012   5.603
 5594POPC   C1A70251  38.985  25.271   6.012
 5594POPC   D2A70252  39.149  25.473   6.427
 5594POPC   C3A70253  38.998  25.404   6.885
 5594POPC   C4A70254  39.223  25.302   7.268
 5594POPC   C1B70255  39.436  25.029   6.019
 5594POPC   C2B70256  39.411  25.033   6.449
 5594POPC   C3B70257  39.488  25.169   6.855
 5594POPC   C4B70258  39.649  24.994   7.248
 5595POPC   NC370259   5.600  11.921   5.416
 5595POPC   PO470260   5.917  12.507   5.352
 5595POPC   GL170261   5.967  12.199   5.708
 5595POPC   GL270262   6.248  12.003   5.819
 5595POPC   C1A70263   5.838  12.059   6.138
 5595POPC   D2A70264   5.977  12.113   6.577
 5595POPC   C3A70265   5.744  11.948   6.952
 5595POPC   C4A70266   5.607  12.079   7.371
 5595POPC   C1B70267   6.306  11.870   6.221
 5595POPC   C2B70268   6.228  11.650   6.589
 5595POPC   C3B70269   6.281  11.900   6.931
 5595POPC   C4B70270   6.145  12.058   7.313
 5596POPC   NC370271   5.967  27.200   5.462
 5596POPC   PO470272   5.441  27.746   5.531
 5596POPC   GL170273   5.790  27.605   5.789
 5596POPC   GL270274   5.673  27.273   5.905
 5596POPC   C1A70275   5.956  27.690   6.202
 5596POPC   D2A70276   5.946  27.554   6.645
 5596POPC   C3A70277   6.135  27.772   6.978
 5596POPC   C4A70278   5.973  27.843   7.368
 5596POPC   C1B70279   5.441  27.469   6.260
 5596POPC   C2B70280   5.437  27.546   6.712
 5596POPC   C3B70281   5.589  27.572   7.106
 5596POPC   C4B70282   5.923  27.345   7.264
 5597POPC   NC370283  16.125  35.328   5.395
 5597POPC   PO470284  15.404  35.200   5.258
 5597POPC   GL170285  15.643  35.222   5.676
 5597POPC   GL270286  15.729  34.873   5.743
 5597POPC   C1A70287  15.938  35.332   6.046
 5597POPC   D2A70288  15.888  35.394   6.510
 5597POPC   C3A70289  16.224  35.622   6.749
 5597POPC   C4A70290  16.371  35.620   7.183
 5597POPC   C1B70291  15.609  34.952   6.192
 5597POPC   C2B70292  15.428  35.141   6.567
 5597POPC   C3B70293  15.607  35.082   6.969
 5597POPC   C4B70294  15.991  35.224   7.167
 5598POPC   NC370295  16.272  33.671   5.372
 5598POPC   PO470296  15.807  34.021   5.311
 5598POPC   GL170297  15.844  33.864   5.734
 5598POPC   GL270298  16.190  34.013   5.752
 5598POPC   C1A70299  15.770  33.550   6.095
 5598POPC   D2A70300  15.987  33.426   6.500
 5598POPC   C3A70301  15.811  33.456   6.956
 5598POPC   C4A70302  15.690  33.845   7.231
 5598POPC   C1B70303  16.268  33.705   6.068
 5598POPC   C2B70304  16.363  33.817   6.483
 5598POPC   C3B70305  16.258  33.685   6.877
 5598POPC   C4B70306  16.157  33.659   7.300
 5599POPC   NC370307   0.953  34.873   5.448
 5599POPC   PO470308   1.446  34.397   5.419
 5599POPC   GL170309   1.245  34.458   5.808
 5599POPC   GL270310   1.348  34.806   5.819
 5599POPC   C1A70311   1.214  34.288   6.250
 5599POPC   D2A70312   1.384  34.145   6.642
 5599POPC   C3A70313   1.225  34.296   6.994
 5599POPC   C4A70314   1.152  34.508   7.370
 5599POPC   C1B70315   1.563  34.665   6.199
 5599POPC   C2B70316   1.357  34.667   6.611
 5599POPC   C3B70317   1.217  34.837   7.000
 5599POPC   C4B70318   1.353  35.158   7.296
 5600POPC   NC370319  18.413  22.743   5.436
 5600POPC   PO470320  18.056  23.275   5.484
 5600POPC   GL170321  18.471  23.134   5.779
 5600POPC   GL270322  18.641  22.773   5.877
 5600POPC   C1A70323  18.392  23.036   6.233
 5600POPC   D2A70324  18.123  22.696   6.415
 5600POPC   C3A70325  18.099  22.682   6.865
 5600POPC   C4A70326  18.068  22.965   7.217
 5600POPC   C1B70327  18.622  22.540   6.275
 5600POPC   C2B70328  18.565  22.757   6.677
 5600POPC   C3B70329  18.550  22.789   7.152
 5600POPC   C4B70330  18.682  22.481   7.447
 5601POPC   NC370331   6.805  28.527   5.505
 5601POPC   PO470332   6.411  27.961   5.645
 5601POPC   GL170333   6.442  28.295   5.889
 5601POPC   GL270334   6.772  28.257   5.928
 5601POPC   C1A70335   6.466  28.373   6.329
 5601POPC   D2A70336   6.337  28.363   6.737
 5601POPC   C3A70337   6.497  28.161   7.073
 5601POPC   C4A70338   6.551  28.519   7.309
 5601POPC   C1B70339   6.969  28.448   6.263
 5601POPC   C2B70340   6.884  28.330   6.689
 5601POPC   C3B70341   6.950  28.645   6.981
 5601POPC   C4B70342   7.005  28.709   7.440
 5602POPC   NC370343  12.502  35.002   5.470
 5602POPC   PO470344  12.987  35.544   5.436
 5602POPC   GL170345  12.765  35.351   5.751
 5602POPC   GL270346  13.019  35.151   5.931
 5602POPC   C1A70347  12.698  35.492   6.158
 5602POPC   D2A70348  12.765  35.297   6.558
 5602POPC   C3A70349  12.593  35.388   6.975
 5602POPC   C4A70350  12.669  34.977   7.230
 5602POPC   C1B70351  13.228  35.546   6.105
 5602POPC   C2B70352  13.249  35.758   6.502
 5602POPC   C3B70353  13.068  35.614   6.868
 5602POPC   C4B70354  13.018  35.354   7.245
 5603POPC   NC370355  36.394  20.921   5.421
 5603POPC   PO470356  35.903  20.470   5.530
 5603POPC   GL170357  36.055  20.704   5.848
 5603POPC   GL270358  36.398  20.626   5.836
 5603POPC   C1A70359  36.010  20.745   6.281
 5603POPC   D2A70360  35.829  20.948   6.633
 5603POPC   C3A70361  36.023  20.822   6.981
 5603POPC   C4A70362  35.964  20.693   7.382
 5603POPC   C1B70363  36.386  20.417   6.230
 5603POPC   C2B70364  36.357  20.607   6.646
 5603POPC   C3B70365  36.447  20.537   7.092
 5603POPC   C4B70366  36.189  20.254   7.301
 5604POPC   NC370367  15.017  40.443   5.464
 5604POPC   PO470368  15.233  41.152   5.539
 5604POPC   GL170369  15.075  40.846   5.805
 5604POPC   GL270370  15.348  40.573   5.837
 5604POPC   C1A70371  15.003  40.971   6.235
 5604POPC   D2A70372  15.340  41.106   6.501
 5604POPC   C3A70373  15.321  40.942   6.902
 5604POPC   C4A70374  14.876  40.856   7.007
 5604POPC   C1B70375  15.019  40.458   6.151
 5604POPC   C2B70376  15.081  40.588   6.597
 5604POPC   C3B70377  15.313  40.436   6.970
 5604POPC   C4B70378  15.471  40.414   7.399
 5605POPC   NC370379  12.203  28.483   5.535
 5605POPC   PO470380  11.659  28.826   5.260
 5605POPC   GL170381  11.787  28.778   5.764
 5605POPC   GL270382  12.090  28.780   6.001
 5605POPC   C1A70383  11.746  28.475   6.167
 5605POPC   D2A70384  11.949  28.204   6.502
 5605POPC   C3A70385  11.928  28.435   6.879
 5605POPC   C4A70386  12.246  28.603   7.159
 5605POPC   C1B70387  12.297  28.384   6.167
 5605POPC   C2B70388  12.542  28.132   6.454
 5605POPC   C3B70389  12.383  28.176   6.862
 5605POPC   C4B70390  12.407  27.923   7.217
 5606POPC   NC370391  16.482  21.939   5.524
 5606POPC   PO470392  17.008  22.373   5.434
 5606POPC   GL170393  16.807  22.205   5.812
 5606POPC   GL270394  16.467  22.363   5.818
 5606POPC   C1A70395  16.806  22.351   6.236
 5606POPC   D2A70396  16.908  22.585   6.613
 5606POPC   C3A70397  16.742  22.438   7.019
 5606POPC   C4A70398  16.837  22.020   7.185
 5606POPC   C1B70399  16.356  22.121   6.210
 5606POPC   C2B70400  16.543  22.151   6.649
 5606POPC   C3B70401  16.333  22.119   7.080
 5606POPC   C4B70402  16.245  22.076   7.528
 5607POPC   NC370403  16.878   8.167   5.084
 5607POPC   PO470404  16.687   7.952   5.649
 5607POPC   GL170405  16.718   8.302   5.892
 5607POPC   GL270406  16.403   8.212   6.043
 5607POPC   C1A70407  16.810   8.344   6.336
 5607POPC   D2A70408  16.684   8.086   6.720
 5607POPC   C3A70409  16.625   8.240   7.142
 5607POPC   C4A70410  16.924   8.283   7.482
 5607POPC   C1B70411  16.560   7.831   6.283
 5607POPC   C2B70412  16.437   7.645   6.688
 5607POPC   C3B70413  16.429   7.694   7.171
 5607POPC   C4B70414  16.452   7.984   7.550
 5608POPC   NC370415  38.131   2.110   5.466
 5608POPC   PO470416  38.546   1.620   5.173
 5608POPC   GL170417  38.638   1.937   5.588
 5608POPC   GL270418  38.454   2.210   5.831
 5608POPC   C1A70419  38.672   1.866   6.084
 5608POPC   D2A70420  38.480   1.934   6.505
 5608POPC   C3A70421  38.706   1.779   6.876
 5608POPC   C4A70422  38.554   1.573   7.243
 5608POPC   C1B70423  38.681   2.362   6.205
 5608POPC   C2B70424  38.737   2.362   6.667
 5608POPC   C3B70425  38.496   2.212   7.019
 5608POPC   C4B70426  38.613   2.117   7.422
 5609POPC   NC370427  42.378  18.266   5.305
 5609POPC   PO470428  42.979  18.155   5.604
 5609POPC   GL170429  42.693  18.411   5.867
 5609POPC   GL270430  42.334  18.369   5.831
 5609POPC   C1A70431  42.600  18.432   6.303
 5609POPC   D2A70432  42.256  18.381   6.577
 5609POPC   C3A70433  42.211  18.080   6.903
 5609POPC   C4A70434  42.568  18.015   7.180
 5609POPC   C1B70435  42.055  18.599   6.131
 5609POPC   C2B70436  41.783  18.562   6.510
 5609POPC   C3B70437  41.937  18.558   6.931
 5609POPC   C4B70438  42.343  18.506   7.157
 5610POPC   NC370439  13.940  28.154   5.315
 5610POPC   PO470440  13.389  28.507   5.161
 5610POPC   GL170441  13.596  28.464   5.610
 5610POPC   GL270442  13.763  28.187   5.788
 5610POPC   C1A70443  13.603  28.557   6.088
 5610POPC   D2A70444  13.860  28.565   6.483
 5610POPC   C3A70445  13.629  28.614   6.867
 5610POPC   C4A70446  13.611  28.423   7.270
 5610POPC   C1B70447  14.017  28.173   6.148
 5610POPC   C2B70448  13.992  28.047   6.576
 5610POPC   C3B70449  13.997  28.246   6.961
 5610POPC   C4B70450  14.037  28.133   7.377
 5611POPC   NC370451  44.878  17.248   5.503
 5611POPC   PO470452  44.593  16.620   5.512
 5611POPC   GL170453  44.628  16.946   5.875
 5611POPC   GL270454  44.958  17.142   5.993
 5611POPC   C1A70455  44.632  16.841   6.338
 5611POPC   D2A70456  44.521  16.464   6.621
 5611POPC   C3A70457  44.455  16.621   7.037
 5611POPC   C4A70458  44.674  16.992   7.207
 5611POPC   C1B70459   0.040  16.692   6.050
 5611POPC   C2B70460   0.019  16.491   6.476
 5611POPC   C3B70461  44.955  16.681   6.880
 5611POPC   C4B70462  44.891  16.541   7.304
 5612POPC   NC370463  31.769  16.736   5.532
 5612POPC   PO470464  31.118  16.665   5.348
 5612POPC   GL170465  31.292  16.789   5.751
 5612POPC   GL270466  31.398  16.449   5.819
 5612POPC   C1A70467  31.517  16.808   6.166
 5612POPC   D2A70468  31.724  16.850   6.576
 5612POPC   C3A70469  31.397  16.853   6.870
 5612POPC   C4A70470  31.287  16.874   7.266
 5612POPC   C1B70471  31.601  16.297   6.201
 5612POPC   C2B70472  31.461  16.413   6.588
 5612POPC   C3B70473  31.631  16.348   6.977
 5612POPC   C4B70474  31.589  16.490   7.409
 5613POPC   NC370475   5.652  23.406   5.390
 5613POPC   PO470476   6.101  23.853   5.517
 5613POPC   GL170477   5.876  23.812   5.900
 5613POPC   GL270478   5.589  23.581   5.869
 5613POPC   C1A70479   5.981  23.579   6.277
 5613POPC   D2A70480   6.006  23.339   6.636
 5613POPC   C3A70481   6.100  23.589   6.964
 5613POPC   C4A70482   6.104  23.560   7.366
 5613POPC   C1B70483   5.510  23.711   6.281
 5613POPC   C2B70484   5.669  23.749   6.760
 5613POPC   C3B70485   5.579  23.791   7.233
 5613POPC   C4B70486   5.424  23.953   7.712
 5614POPC   NC370487  37.862   6.579   5.484
 5614POPC   PO470488  37.303   7.006   5.620
 5614POPC   GL170489  37.498   6.696   5.871
 5614POPC   GL270490  37.603   6.342   5.848
 5614POPC   C1A70491  37.506   6.765   6.299
 5614POPC   D2A70492  37.602   7.011   6.617
 5614POPC   C3A70493  37.674   6.740   6.902
 5614POPC   C4A70494  37.523   6.985   7.213
 5614POPC   C1B70495  37.887   6.449   6.161
 5614POPC   C2B70496  37.982   6.415   6.578
 5614POPC   C3B70497  38.053   6.316   6.995
 5614POPC   C4B70498  37.970   6.638   7.299
 5615POPC   NC370499  33.606   9.886   5.487
 5615POPC   PO470500  34.027   9.395   5.455
 5615POPC   GL170501  33.935   9.647   5.814
 5615POPC   GL270502  33.587   9.500   5.837
 5615POPC   C1A70503  33.750   9.917   6.172
 5615POPC   D2A70504  33.534   9.787   6.579
 5615POPC   C3A70505  33.727   9.869   7.033
 5615POPC   C4A70506  33.727   9.957   7.492
 5615POPC   C1B70507  33.777   9.414   6.248
 5615POPC   C2B70508  34.009   9.606   6.580
 5615POPC   C3B70509  33.926   9.405   6.965
 5615POPC   C4B70510  34.023   9.560   7.381
 5616POPC   NC370511  40.788  32.573   5.497
 5616POPC   PO470512  40.948  32.008   5.157
 5616POPC   GL170513  40.836  32.070   5.694
 5616POPC   GL270514  41.140  32.094   5.943
 5616POPC   C1A70515  40.672  32.224   6.100
 5616POPC   D2A70516  40.644  32.083   6.520
 5616POPC   C3A70517  40.680  32.357   6.877
 5616POPC   C4A70518  40.578  32.279   7.310
 5616POPC   C1B70519  41.004  31.791   6.256
 5616POPC   C2B70520  40.939  31.682   6.683
 5616POPC   C3B70521  40.948  31.957   7.032
 5616POPC   C4B70522  41.078  32.354   7.220
 5617POPC   NC370523  15.961  24.970   5.487
 5617POPC   PO470524  16.255  25.555   5.420
 5617POPC   GL170525  16.208  25.344   5.792
 5617POPC   GL270526  15.861  25.360   5.819
 5617POPC   C1A70527  16.163  25.157   6.205
 5617POPC   D2A70528  15.863  24.990   6.469
 5617POPC   C3A70529  15.980  24.969   6.866
 5617POPC   C4A70530  16.080  24.984   7.278
 5617POPC   C1B70531  15.708  25.414   6.222
 5617POPC   C2B70532  15.910  25.518   6.608
 5617POPC   C3B70533  16.035  25.471   7.037
 5617POPC   C4B70534  15.692  25.404   7.328
 5618POPC   NC370535  12.543  17.222   5.447
 5618POPC   PO470536  13.123  17.661   5.357
 5618POPC   GL170537  12.802  17.586   5.716
 5618POPC   GL270538  12.776  17.211   5.886
 5618POPC   C1A70539  12.757  17.633   6.167
 5618POPC   D2A70540  12.703  17.668   6.617
 5618POPC   C3A70541  13.035  17.738   6.898
 5618POPC   C4A70542  13.192  17.518   7.262
 5618POPC   C1B70543  12.531  17.110   6.264
 5618POPC   C2B70544  12.437  17.219   6.690
 5618POPC   C3B70545  12.765  17.280   7.026
 5618POPC   C4B70546  12.960  17.073   7.410
 5619POPC   NC370547   8.413  34.448   5.612
 5619POPC   PO470548   7.799  34.388   5.426
 5619POPC   GL170549   7.931  34.471   5.874
 5619POPC   GL270550   8.157  34.785   5.932
 5619POPC   C1A70551   8.212  34.397   6.257
 5619POPC   D2A70552   8.541  34.419   6.539
 5619POPC   C3A70553   8.351  34.579   6.856
 5619POPC   C4A70554   8.020  34.385   7.078
 5619POPC   C1B70555   8.521  34.847   6.238
 5619POPC   C2B70556   8.795  34.891   6.622
 5619POPC   C3B70557   8.650  34.946   7.052
 5619POPC   C4B70558   8.274  34.782   7.309
 5620POPC   NC370559  28.129  24.271   5.598
 5620POPC   PO470560  27.826  24.757   5.234
 5620POPC   GL170561  27.701  24.698   5.730
 5620POPC   GL270562  27.435  24.960   5.723
 5620POPC   C1A70563  27.736  24.420   6.174
 5620POPC   D2A70564  27.765  24.210   6.644
 5620POPC   C3A70565  27.726  24.358   7.094
 5620POPC   C4A70566  27.468  24.230   7.460
 5620POPC   C1B70567  27.541  24.898   6.171
 5620POPC   C2B70568  27.672  24.802   6.568
 5620POPC   C3B70569  27.415  24.729   6.906
 5620POPC   C4B70570  27.469  24.738   7.333
 5621POPC   NC370571  27.163  41.834   5.380
 5621POPC   PO470572  26.735  41.374   5.029
 5621POPC   GL170573  26.851  41.470   5.593
 5621POPC   GL270574  26.627  41.443   5.909
 5621POPC   C1A70575  26.987  41.699   6.105
 5621POPC   D2A70576  26.809  41.698   6.570
 5621POPC   C3A70577  26.953  41.644   7.032
 5621POPC   C4A70578  26.707  41.710   7.409
 5621POPC   C1B70579  26.724  41.247   6.311
 5621POPC   C2B70580  26.631  41.200   6.751
 5621POPC   C3B70581  26.608  41.265   7.200
 5621POPC   C4B70582  26.450  41.331   7.632
 5622POPC   NC370583  32.448  11.762   5.494
 5622POPC   PO470584  33.144  11.909   5.420
 5622POPC   GL170585  33.104  12.102   5.794
 5622POPC   GL270586  32.733  12.122   5.794
 5622POPC   C1A70587  33.310  12.162   6.180
 5622POPC   D2A70588  33.103  12.079   6.558
 5622POPC   C3A70589  33.342  11.965   6.882
 5622POPC   C4A70590  33.337  12.211   7.231
 5622POPC   C1B70591  32.729  11.869   6.178
 5622POPC   C2B70592  32.624  11.901   6.621
 5622POPC   C3B70593  32.842  11.958   7.022
 5622POPC   C4B70594  33.074  11.614   7.183
 5623POPC   NC370595  44.725   2.328   5.435
 5623POPC   PO470596  44.490   1.740   5.599
 5623POPC   GL170597  44.803   1.923   5.880
 5623POPC   GL270598  44.505   2.004   6.076
 5623POPC   C1A70599  44.943   1.917   6.339
 5623POPC   D2A70600  44.697   1.762   6.701
 5623POPC   C3A70601  44.770   1.920   7.125
 5623POPC   C4A70602  44.995   2.011   7.566
 5623POPC   C1B70603  44.686   2.395   6.239
 5623POPC   C2B70604  44.690   2.573   6.666
 5623POPC   C3B70605  44.683   2.435   7.103
 5623POPC   C4B70606  44.528   2.175   7.479
 5624POPC   NC370607  12.217  41.702   5.304
 5624POPC   PO470608  11.984  41.016   5.436
 5624POPC   GL170609  12.154  41.363   5.684
 5624POPC   GL270610  12.486  41.357   5.797
 5624POPC   C1A70611  12.094  41.581   6.085
 5624POPC   D2A70612  12.112  41.866   6.469
 5624POPC   C3A70613  12.051  41.619   6.836
 5624POPC   C4A70614  12.098  41.678   7.245
 5624POPC   C1B70615  12.496  41.268   6.230
 5624POPC   C2B70616  12.362  41.215   6.660
 5624POPC   C3B70617  12.479  41.377   7.065
 5624POPC   C4B70618  12.398  41.360   7.509
 5625POPC   NC370619  16.574  20.464   5.638
 5625POPC   PO470620  16.832  20.968   5.278
 5625POPC   GL170621  16.854  20.911   5.747
 5625POPC   GL270622  16.965  20.609   5.918
 5625POPC   C1A70623  16.624  20.866   6.179
 5625POPC   D2A70624  16.810  20.856   6.589
 5625POPC   C3A70625  16.652  20.727   6.969
 5625POPC   C4A70626  16.476  20.353   7.147
 5625POPC   C1B70627  16.830  20.406   6.285
 5625POPC   C2B70628  16.800  20.298   6.720
 5625POPC   C3B70629  16.990  20.351   7.136
 5625POPC   C4B70630  16.799  20.320   7.559
 5626POPC   NC370631  27.220   0.074   5.361
 5626POPC   PO470632  26.564   0.224   5.166
 5626POPC   GL170633  26.532   0.194   5.662
 5626POPC   GL270634  26.884   0.196   5.788
 5626POPC   C1A70635  26.513   0.303   6.151
 5626POPC   D2A70636  26.800   0.448   6.515
 5626POPC   C3A70637  26.727   0.324   6.956
 5626POPC   C4A70638  26.547   0.037   7.272
 5626POPC   C1B70639  26.936   0.593   6.026
 5626POPC   C2B70640  27.061   0.878   6.345
 5626POPC   C3B70641  27.084   0.812   6.800
 5626POPC   C4B70642  27.064   0.604   7.208
 5627POPC   NC370643   0.333   9.369   5.121
 5627POPC   PO470644   0.642   8.855   5.451
 5627POPC   GL170645   0.506   8.786   5.866
 5627POPC   GL270646   0.623   9.103   5.903
 5627POPC   C1A70647   0.251   8.925   6.217
 5627POPC   D2A70648   0.239   9.180   6.591
 5627POPC   C3A70649   0.391   8.985   6.955
 5627POPC   C4A70650   0.270   9.224   7.306
 5627POPC   C1B70651   0.770   8.937   6.283
 5627POPC   C2B70652   0.787   9.127   6.647
 5627POPC   C3B70653   0.903   9.003   7.023
 5627POPC   C4B70654   0.660   8.855   7.386
 5628POPC   NC370655  37.324  24.760   5.530
 5628POPC   PO470656  36.780  24.286   5.459
 5628POPC   GL170657  37.062  24.361   5.756
 5628POPC   GL270658  36.808  24.562   5.925
 5628POPC   C1A70659  37.238  24.318   6.154
 5628POPC   D2A70660  37.048  24.241   6.555
 5628POPC   C3A70661  36.795  24.548   6.726
 5628POPC   C4A70662  36.994  24.831   7.006
 5628POPC   C1B70663  36.702  24.156   6.143
 5628POPC   C2B70664  36.497  24.114   6.564
 5628POPC   C3B70665  36.680  24.084   6.978
 5628POPC   C4B70666  37.019  24.318   7.140
 5629POPC   NC370667  38.861  38.712   5.533
 5629POPC   PO470668  38.293  39.179   5.485
 5629POPC   GL170669  38.466  38.962   5.789
 5629POPC   GL270670  38.754  39.036   5.935
 5629POPC   C1A70671  38.383  38.842   6.228
 5629POPC   D2A70672  38.324  39.027   6.639
 5629POPC   C3A70673  38.517  39.092   7.037
 5629POPC   C4A70674  38.190  39.081   7.400
 5629POPC   C1B70675  38.608  39.295   6.294
 5629POPC   C2B70676  38.567  39.496   6.698
 5629POPC   C3B70677  38.631  39.604   7.104
 5629POPC   C4B70678  38.612  39.372   7.501
 5630POPC   NC370679  24.805  11.830   5.541
 5630POPC   PO470680  24.320  12.212   5.252
 5630POPC   GL170681  24.317  12.130   5.735
 5630POPC   GL270682  24.652  12.169   5.912
 5630POPC   C1A70683  24.231  12.322   6.158
 5630POPC   D2A70684  24.584  12.448   6.417
 5630POPC   C3A70685  24.583  12.384   6.853
 5630POPC   C4A70686  24.347  12.267   7.205
 5630POPC   C1B70687  24.438  11.850   6.162
 5630POPC   C2B70688  24.463  11.674   6.571
 5630POPC   C3B70689  24.523  11.836   6.987
 5630POPC   C4B70690  24.597  11.775   7.431
 5631POPC   NC370691  41.123  42.057   5.646
 5631POPC   PO470692  41.555  42.495   5.349
 5631POPC   GL170693  41.403  42.468   5.796
 5631POPC   GL270694  41.714  42.396   5.926
 5631POPC   C1A70695  41.344  42.237   6.222
 5631POPC   D2A70696  41.320  42.121   6.663
 5631POPC   C3A70697  41.443  42.375   7.025
 5631POPC   C4A70698  41.742  42.260   7.344
 5631POPC   C1B70699  41.657  42.633   6.326
 5631POPC   C2B70700  41.823  42.600   6.733
 5631POPC   C3B70701  41.759  42.782   7.131
 5631POPC   C4B70702  41.737  42.881   7.557
 5632POPC   NC370703  25.398  17.128   5.363
 5632POPC   PO470704  24.875  17.483   5.589
 5632POPC   GL170705  25.225  17.560   5.841
 5632POPC   GL270706  25.322  17.226   5.865
 5632POPC   C1A70707  25.421  17.487   6.269
 5632POPC   D2A70708  25.587  17.365   6.658
 5632POPC   C3A70709  25.274  17.389   6.961
 5632POPC   C4A70710  25.306  17.570   7.341
 5632POPC   C1B70711  24.942  17.341   6.198
 5632POPC   C2B70712  24.897  17.460   6.614
 5632POPC   C3B70713  24.765  17.207   6.941
 5632POPC   C4B70714  24.948  17.167   7.329
 5633POPC   NC370715  14.375   9.520   5.398
 5633POPC   PO470716  14.138  10.117   5.540
 5633POPC   GL170717  14.471   9.954   5.797
 5633POPC   GL270718  14.435   9.607   5.895
 5633POPC   C1A70719  14.624   9.960   6.215
 5633POPC   D2A70720  14.360   9.739   6.493
 5633POPC   C3A70721  14.514   9.749   6.895
 5633POPC   C4A70722  14.633   9.782   7.309
 5633POPC   C1B70723  14.710   9.451   6.214
 5633POPC   C2B70724  14.586   9.295   6.604
 5633POPC   C3B70725  14.202   9.332   6.838
 5633POPC   C4B70726  14.222   9.486   7.244
 5634POPC   NC370727  43.414  23.707   5.381
 5634POPC   PO470728  42.838  23.996   5.418
 5634POPC   GL170729  43.165  23.931   5.774
 5634POPC   GL270730  43.143  23.569   5.807
 5634POPC   C1A70731  43.080  23.799   6.256
 5634POPC   D2A70732  43.162  23.690   6.668
 5634POPC   C3A70733  43.053  23.945   7.048
 5634POPC   C4A70734  42.941  23.935   7.502
 5634POPC   C1B70735  43.355  23.352   6.157
 5634POPC   C2B70736  43.595  23.442   6.555
 5634POPC   C3B70737  43.456  23.377   6.979
 5634POPC   C4B70738  43.318  23.606   7.346
 5635POPC   NC370739  35.115   9.134   5.502
 5635POPC   PO470740  35.675   8.658   5.456
 5635POPC   GL170741  35.514   8.879   5.854
 5635POPC   GL270742  35.142   8.768   5.889
 5635POPC   C1A70743  35.583   9.162   6.253
 5635POPC   D2A70744  35.803   9.225   6.649
 5635POPC   C3A70745  35.647   9.194   7.081
 5635POPC   C4A70746  35.614   9.073   7.535
 5635POPC   C1B70747  35.162   8.902   6.336
 5635POPC   C2B70748  35.328   8.973   6.743
 5635POPC   C3B70749  35.189   8.991   7.188
 5635POPC   C4B70750  35.255   8.718   7.557
 5636POPC   NC370751  41.081  13.440   5.534
 5636POPC   PO470752  41.738  13.343   5.326
 5636POPC   GL170753  41.717  13.609   5.704
 5636POPC   GL270754  41.400  13.731   5.855
 5636POPC   C1A70755  41.782  13.575   6.159
 5636POPC   D2A70756  41.832  13.750   6.589
 5636POPC   C3A70757  41.581  13.716   6.945
 5636POPC   C4A70758  41.624  13.515   7.329
 5636POPC   C1B70759  41.506  14.006   6.206
 5636POPC   C2B70760  41.435  14.109   6.618
 5636POPC   C3B70761  41.279  14.134   7.023
 5636POPC   C4B70762  41.440  13.980   7.384
 5637POPC   NC370763  24.454   6.087   5.521
 5637POPC   PO470764  24.391   5.426   5.724
 5637POPC   GL170765  24.286   5.742   6.012
 5637POPC   GL270766  24.258   6.107   5.972
 5637POPC   C1A70767  24.491   5.803   6.402
 5637POPC   D2A70768  24.654   5.947   6.813
 5637POPC   C3A70769  24.426   5.732   7.117
 5637POPC   C4A70770  24.136   5.809   7.470
 5637POPC   C1B70771  24.301   6.304   6.329
 5637POPC   C2B70772  24.164   6.092   6.663
 5637POPC   C3B70773  24.003   5.993   7.018
 5637POPC   C4B70774  24.291   6.242   7.247
 5638POPC   NC370775  40.314  29.318   5.737
 5638POPC   PO470776  40.920  29.196   5.368
 5638POPC   GL170777  40.820  29.332   5.770
 5638POPC   GL270778  41.050  29.607   5.766
 5638POPC   C1A70779  40.748  29.126   6.198
 5638POPC   D2A70780  41.031  28.878   6.453
 5638POPC   C3A70781  40.983  28.993   6.891
 5638POPC   C4A70782  40.555  29.025   7.087
 5638POPC   C1B70783  40.855  29.646   6.173
 5638POPC   C2B70784  40.879  29.448   6.596
 5638POPC   C3B70785  40.801  29.466   7.053
 5638POPC   C4B70786  40.928  29.462   7.490
 5639POPC   NC370787  39.667   5.137   5.681
 5639POPC   PO470788  40.176   4.767   5.425
 5639POPC   GL170789  40.156   4.962   5.839
 5639POPC   GL270790  40.163   5.301   5.829
 5639POPC   C1A70791  39.975   5.059   6.275
 5639POPC   D2A70792  39.642   4.810   6.473
 5639POPC   C3A70793  39.675   4.829   6.903
 5639POPC   C4A70794  39.783   5.005   7.301
 5639POPC   C1B70795  40.238   5.543   6.171
 5639POPC   C2B70796  40.233   5.453   6.564
 5639POPC   C3B70797  39.994   5.256   6.881
 5639POPC   C4B70798  40.154   5.349   7.327
 5640POPC   NC370799  10.865  34.695   5.531
 5640POPC   PO470800  10.336  35.012   5.388
 5640POPC   GL170801  10.383  34.802   5.809
 5640POPC   GL270802  10.226  34.458   5.880
 5640POPC   C1A70803  10.533  34.813   6.267
 5640POPC   D2A70804  10.480  34.835   6.732
 5640POPC   C3A70805  10.607  34.463   6.966
 5640POPC   C4A70806  10.693  34.384   7.400
 5640POPC   C1B70807  10.100  34.460   6.335
 5640POPC   C2B70808  10.109  34.421   6.792
 5640POPC   C3B70809  10.171  34.300   7.208
 5640POPC   C4B70810  10.242  34.321   7.657
 5641POPC   NC370811  10.671  14.551   5.421
 5641POPC   PO470812   9.979  14.633   5.388
 5641POPC   GL170813  10.313  14.516   5.762
 5641POPC   GL270814  10.568  14.227   5.826
 5641POPC   C1A70815  10.528  14.611   6.186
 5641POPC   D2A70816  10.321  14.653   6.595
 5641POPC   C3A70817  10.503  14.619   7.003
 5641POPC   C4A70818  10.320  14.309   7.241
 5641POPC   C1B70819  10.658  14.103   6.253
 5641POPC   C2B70820  10.572  14.221   6.675
 5641POPC   C3B70821  10.757  14.112   7.076
 5641POPC   C4B70822  10.783  14.317   7.466
 5642POPC   NC370823  40.033  43.598   5.273
 5642POPC   PO470824  39.526  43.658   5.720
 5642POPC   GL170825  39.979  43.791   5.821
 5642POPC   GL270826  40.278  43.962   5.616
 5642POPC   C1A70827  39.994  44.006   6.223
 5642POPC   D2A70828  39.914  44.268   6.588
 5642POPC   C3A70829  39.667  43.988   6.862
 5642POPC   C4A70830  39.786  43.752   7.247
 5642POPC   C1B70831  40.463  43.908   6.050
 5642POPC   C2B70832  40.426  44.023   6.488
 5642POPC   C3B70833  40.213  43.953   6.885
 5642POPC   C4B70834  40.339  43.736   7.249
 5643POPC   NC370835   4.686   7.577   5.173
 5643POPC   PO470836   4.211   7.252   5.510
 5643POPC   GL170837   4.253   7.316   5.905
 5643POPC   GL270838   4.599   7.166   5.858
 5643POPC   C1A70839   4.365   7.441   6.297
 5643POPC   D2A70840   4.174   7.295   6.641
 5643POPC   C3A70841   4.242   7.491   7.031
 5643POPC   C4A70842   4.254   7.543   7.497
 5643POPC   C1B70843   4.437   6.927   6.203
 5643POPC   C2B70844   4.522   6.901   6.602
 5643POPC   C3B70845   4.649   7.210   6.868
 5643POPC   C4B70846   4.470   7.099   7.260
 5644POPC   NC370847   9.227  44.733   5.337
 5644POPC   PO470848   9.901  44.855   5.340
 5644POPC   GL170849   9.808  44.770   5.747
 5644POPC   GL270850   9.597  44.492   5.712
 5644POPC   C1A70851   9.844  44.652   6.167
 5644POPC   D2A70852   9.646  44.725   6.535
 5644POPC   C3A70853   9.794  44.566   6.904
 5644POPC   C4A70854   9.678  44.755   7.270
 5644POPC   C1B70855   9.403  44.413   6.104
 5644POPC   C2B70856   9.273  44.394   6.537
 5644POPC   C3B70857   9.271  44.557   6.965
 5644POPC   C4B70858   9.453  44.316   7.330
 5645POPC   NC370859  17.664   4.595   5.422
 5645POPC   PO470860  17.343   5.247   5.358
 5645POPC   GL170861  17.465   5.171   5.791
 5645POPC   GL270862  17.791   4.967   5.786
 5645POPC   C1A70863  17.523   5.113   6.235
 5645POPC   D2A70864  17.632   5.246   6.644
 5645POPC   C3A70865  17.452   5.052   6.990
 5645POPC   C4A70866  17.125   5.233   7.205
 5645POPC   C1B70867  17.765   4.678   6.144
 5645POPC   C2B70868  17.657   4.738   6.572
 5645POPC   C3B70869  17.887   4.776   6.948
 5645POPC   C4B70870  17.829   4.736   7.415
 5646POPC   NC370871  35.983  20.011   5.440
 5646POPC   PO470872  35.973  19.471   5.655
 5646POPC   GL170873  36.205  19.767   5.852
 5646POPC   GL270874  36.379  20.096   5.773
 5646POPC   C1A70875  36.030  20.048   6.161
 5646POPC   D2A70876  35.785  19.897   6.514
 5646POPC   C3A70877  35.974  19.998   6.912
 5646POPC   C4A70878  35.920  19.823   7.308
 5646POPC   C1B70879  36.536  19.935   6.185
 5646POPC   C2B70880  36.362  20.007   6.566
 5646POPC   C3B70881  36.495  20.007   6.957
 5646POPC   C4B70882  36.422  19.734   7.274
 5647POPC   NC370883  18.260   2.200   5.365
 5647POPC   PO470884  18.636   1.581   5.296
 5647POPC   GL170885  18.379   1.802   5.659
 5647POPC   GL270886  18.466   2.150   5.835
 5647POPC   C1A70887  18.107   1.829   6.050
 5647POPC   D2A70888  18.199   2.000   6.472
 5647POPC   C3A70889  18.066   1.873   6.883
 5647POPC   C4A70890  18.210   1.711   7.255
 5647POPC   C1B70891  18.258   2.400   6.148
 5647POPC   C2B70892  18.307   2.503   6.590
 5647POPC   C3B70893  18.280   2.329   7.016
 5647POPC   C4B70894  18.040   2.215   7.397
 5648POPC   NC370895  32.568  36.809   5.549
 5648POPC   PO470896  32.224  37.264   5.362
 5648POPC   GL170897  32.188  37.075   5.797
 5648POPC   GL270898  32.080  36.724   5.784
 5648POPC   C1A70899  32.147  36.984   6.252
 5648POPC   D2A70900  31.935  37.149   6.635
 5648POPC   C3A70901  32.173  37.066   7.000
 5648POPC   C4A70902  32.398  36.737   7.191
 5648POPC   C1B70903  31.930  36.525   6.160
 5648POPC   C2B70904  32.010  36.570   6.575
 5648POPC   C3B70905  31.825  36.686   6.934
 5648POPC   C4B70906  31.927  36.581   7.324
 5649POPC   NC370907  18.108   8.030   5.518
 5649POPC   PO470908  17.857   8.599   5.792
 5649POPC   GL170909  18.083   8.256   6.004
 5649POPC   GL270910  18.416   8.119   5.912
 5649POPC   C1A70911  18.358   8.282   6.366
 5649POPC   D2A70912  18.514   8.543   6.656
 5649POPC   C3A70913  18.368   8.197   6.940
 5649POPC   C4A70914  18.026   8.272   7.242
 5649POPC   C1B70915  18.673   7.882   6.196
 5649POPC   C2B70916  18.503   7.805   6.603
 5649POPC   C3B70917  18.552   7.693   7.009
 5649POPC   C4B70918  18.310   7.860   7.339
 5650POPC   NC370919  16.330   3.716   5.493
 5650POPC   PO470920  17.024   3.641   5.372
 5650POPC   GL170921  16.761   3.507   5.698
 5650POPC   GL270922  16.695   3.841   5.847
 5650POPC   C1A70923  16.579   3.374   6.105
 5650POPC   D2A70924  16.463   3.309   6.554
 5650POPC   C3A70925  16.765   3.501   6.829
 5650POPC   C4A70926  16.868   3.455   7.244
 5650POPC   C1B70927  16.615   3.854   6.306
 5650POPC   C2B70928  16.547   4.067   6.711
 5650POPC   C3B70929  16.554   3.884   7.114
 5650POPC   C4B70930  16.328   3.471   7.077
 5651POPC   NC370931  18.176  40.882   5.140
 5651POPC   PO470932  18.794  40.671   5.368
 5651POPC   GL170933  18.457  40.723   5.706
 5651POPC   GL270934  18.157  40.944   5.813
 5651POPC   C1A70935  18.388  40.603   6.132
 5651POPC   D2A70936  18.643  40.762   6.460
 5651POPC   C3A70937  18.609  40.523   6.842
 5651POPC   C4A70938  18.679  40.735   7.218
 5651POPC   C1B70939  18.154  41.031   6.296
 5651POPC   C2B70940  18.223  40.829   6.713
 5651POPC   C3B70941  18.285  41.009   7.068
 5651POPC   C4B70942  18.361  41.273   7.420
 5652POPC   NC370943  17.726  40.030   5.248
 5652POPC   PO470944  17.246  39.551   5.320
 5652POPC   GL170945  17.467  39.696   5.714
 5652POPC   GL270946  17.654  40.021   5.752
 5652POPC   C1A70947  17.555  39.694   6.160
 5652POPC   D2A70948  17.388  39.784   6.571
 5652POPC   C3A70949  17.490  39.671   6.971
 5652POPC   C4A70950  17.294  39.917   7.280
 5652POPC   C1B70951  17.705  40.214   6.153
 5652POPC   C2B70952  17.470  40.286   6.526
 5652POPC   C3B70953  17.586  40.169   6.942
 5652POPC   C4B70954  17.881  40.065   7.281
 5653POPC   NC370955   7.117  43.856   5.401
 5653POPC   PO470956   7.723  44.135   5.268
 5653POPC   GL170957   7.591  43.898   5.644
 5653POPC   GL270958   7.327  44.084   5.801
 5653POPC   C1A70959   7.558  43.731   6.090
 5653POPC   D2A70960   7.531  43.905   6.511
 5653POPC   C3A70961   7.746  43.777   6.871
 5653POPC   C4A70962   7.674  43.927   7.273
 5653POPC   C1B70963   7.144  44.063   6.192
 5653POPC   C2B70964   7.099  44.225   6.583
 5653POPC   C3B70965   7.279  44.084   6.943
 5653POPC   C4B70966   7.203  44.102   7.362
 5654POPC   NC370967  23.054  38.740   5.393
 5654POPC   PO470968  22.780  38.107   5.385
 5654POPC   GL170969  22.848  38.278   5.768
 5654POPC   GL270970  23.077  38.563   5.873
 5654POPC   C1A70971  22.688  38.383   6.148
 5654POPC   D2A70972  22.942  38.524   6.488
 5654POPC   C3A70973  22.772  38.362   6.839
 5654POPC   C4A70974  22.794  38.503   7.220
 5654POPC   C1B70975  23.218  38.214   6.134
 5654POPC   C2B70976  23.321  38.139   6.577
 5654POPC   C3B70977  23.270  38.354   6.983
 5654POPC   C4B70978  23.273  38.684   7.304
 5655POPC   NC370979   9.869  14.179   5.404
 5655POPC   PO470980   9.526  13.548   5.460
 5655POPC   GL170981   9.797  13.618   5.801
 5655POPC   GL270982   9.942  13.942   5.839
 5655POPC   C1A70983   9.807  13.552   6.226
 5655POPC   D2A70984   9.602  13.364   6.564
 5655POPC   C3A70985   9.775  13.531   6.933
 5655POPC   C4A70986   9.779  13.335   7.315
 5655POPC   C1B70987  10.213  13.864   6.167
 5655POPC   C2B70988  10.367  13.751   6.553
 5655POPC   C3B70989  10.291  13.883   6.944
 5655POPC   C4B70990   9.924  13.997   7.146
 5656POPC   NC370991   3.937   2.976   5.237
 5656POPC   PO470992   3.346   2.705   5.308
 5656POPC   GL170993   3.574   2.821   5.682
 5656POPC   GL270994   3.776   2.545   5.786
 5656POPC   C1A70995   3.519   2.878   6.146
 5656POPC   D2A70996   3.323   3.021   6.548
 5656POPC   C3A70997   3.651   3.017   6.849
 5656POPC   C4A70998   3.836   2.903   7.222
 5656POPC   C1B70999   3.581   2.360   6.162
 5656POPC   C2B71000   3.466   2.526   6.554
 5656POPC   C3B71001   3.608   2.519   6.965
 5656POPC   C4B71002   3.522   2.505   7.377
 5657POPC   NC371003  32.981  19.159   5.003
 5657POPC   PO471004  32.392  19.183   5.355
 5657POPC   GL171005  32.695  19.317   5.710
 5657POPC   GL271006  33.059  19.232   5.771
 5657POPC   C1A71007  32.717  19.268   6.169
 5657POPC   D2A71008  32.907  19.385   6.573
 5657POPC   C3A71009  33.138  19.157   6.897
 5657POPC   C4A71010  33.074  19.352   7.240
 5657POPC   C1B71011  33.248  19.158   6.200
 5657POPC   C2B71012  33.414  19.431   6.551
 5657POPC   C3B71013  33.495  19.519   6.985
 5657POPC   C4B71014  33.544  19.234   7.339
 5658POPC   NC371015   2.440   3.356   5.475
 5658POPC   PO471016   3.037   3.639   5.501
 5658POPC   GL171017   2.794   3.417   5.862
 5658POPC   GL271018   2.422   3.297   5.968
 5658POPC   C1A71019   2.721   3.652   6.236
 5658POPC   D2A71020   2.521   3.827   6.583
 5658POPC   C3A71021   2.774   3.747   6.956
 5658POPC   C4A71022   2.668   3.591   7.373
 5658POPC   C1B71023   2.357   3.331   6.406
 5658POPC   C2B71024   2.538   3.249   6.792
 5658POPC   C3B71025   2.388   3.176   7.190
 5658POPC   C4B71026   2.461   3.204   7.635
 5659POPC   NC371027  33.997   3.998   5.289
 5659POPC   PO471028  33.406   4.421   5.301
 5659POPC   GL171029  33.537   4.183   5.684
 5659POPC   GL271030  33.922   4.153   5.764
 5659POPC   C1A71031  33.555   4.277   6.149
 5659POPC   D2A71032  33.673   4.587   6.480
 5659POPC   C3A71033  33.478   4.511   6.892
 5659POPC   C4A71034  33.657   4.249   7.250
 5659POPC   C1B71035  34.089   4.100   6.174
 5659POPC   C2B71036  33.887   4.144   6.584
 5659POPC   C3B71037  34.007   4.441   6.908
 5659POPC   C4B71038  34.228   4.383   7.328
 5660POPC   NC371039  18.159  32.861   5.052
 5660POPC   PO471040  18.270  33.213   5.633
 5660POPC   GL171041  18.340  33.083   5.976
 5660POPC   GL271042  18.294  32.739   5.939
 5660POPC   C1A71043  18.571  32.968   6.304
 5660POPC   D2A71044  18.364  32.861   6.673
 5660POPC   C3A71045  18.365  33.038   7.049
 5660POPC   C4A71046  18.014  33.319   7.171
 5660POPC   C1B71047  18.007  32.806   6.268
 5660POPC   C2B71048  17.900  32.618   6.617
 5660POPC   C3B71049  17.961  32.746   6.990
 5660POPC   C4B71050  17.779  32.830   7.347
 5661POPC   NC371051  28.259  40.573   5.469
 5661POPC   PO471052  28.837  40.777   5.324
 5661POPC   GL171053  28.610  40.844   5.747
 5661POPC   GL271054  28.256  40.799   5.938
 5661POPC   C1A71055  28.683  40.688   6.168
 5661POPC   D2A71056  28.469  40.607   6.547
 5661POPC   C3A71057  28.688  40.692   6.917
 5661POPC   C4A71058  28.552  40.611   7.366
 5661POPC   C1B71059  28.362  41.075   6.297
 5661POPC   C2B71060  28.394  41.115   6.738
 5661POPC   C3B71061  28.303  40.992   7.138
 5661POPC   C4B71062  28.396  41.109   7.578
 5662POPC   NC371063  23.634  42.930   5.455
 5662POPC   PO471064  24.150  43.294   5.447
 5662POPC   GL171065  23.913  43.184   5.793
 5662POPC   GL271066  23.984  42.833   5.824
 5662POPC   C1A71067  23.547  43.199   6.076
 5662POPC   D2A71068  23.699  43.242   6.483
 5662POPC   C3A71069  23.480  43.211   6.851
 5662POPC   C4A71070  23.502  43.110   7.310
 5662POPC   C1B71071  23.774  42.754   6.195
 5662POPC   C2B71072  23.606  42.739   6.607
 5662POPC   C3B71073  23.723  42.779   7.007
 5662POPC   C4B71074  23.496  42.561   7.295
 5663POPC   NC371075  26.932  44.275   5.489
 5663POPC   PO471076  26.986  43.662   5.561
 5663POPC   GL171077  26.669  43.759   5.847
 5663POPC   GL271078  26.560  44.117   5.811
 5663POPC   C1A71079  26.549  43.601   6.246
 5663POPC   D2A71080  26.382  43.608   6.661
 5663POPC   C3A71081  26.731  43.686   6.923
 5663POPC   C4A71082  26.789  43.635   7.337
 5663POPC   C1B71083  26.858  44.082   6.193
 5663POPC   C2B71084  26.796  44.111   6.655
 5663POPC   C3B71085  26.809  44.148   7.134
 5663POPC   C4B71086  26.590  44.152   7.539
 5664POPC   NC371087   2.341  11.359   5.436
 5664POPC   PO471088   1.702  11.117   5.251
 5664POPC   GL171089   1.809  11.297   5.664
 5664POPC   GL271090   1.919  10.994   5.861
 5664POPC   C1A71091   2.052  11.477   6.030
 5664POPC   D2A71092   2.108  11.543   6.482
 5664POPC   C3A71093   1.887  11.316   6.785
 5664POPC   C4A71094   1.950  11.355   7.225
 5664POPC   C1B71095   2.043  11.045   6.306
 5664POPC   C2B71096   2.314  11.043   6.679
 5664POPC   C3B71097   2.110  10.911   7.059
 5664POPC   C4B71098   2.193  11.003   7.539
 5665POPC   NC371099  16.691  14.197   5.316
 5665POPC   PO471100  16.823  14.916   5.244
 5665POPC   GL171101  16.746  14.587   5.624
 5665POPC   GL271102  16.552  14.244   5.793
 5665POPC   C1A71103  16.866  14.522   6.055
 5665POPC   D2A71104  16.717  14.494   6.471
 5665POPC   C3A71105  16.969  14.502   6.828
 5665POPC   C4A71106  16.988  14.802   7.175
 5665POPC   C1B71107  16.646  14.042   6.240
 5665POPC   C2B71108  16.639  14.057   6.729
 5665POPC   C3B71109  16.774  14.113   7.164
 5665POPC   C4B71110  16.502  14.154   7.523
 5666POPC   NC371111  10.965  41.946   5.457
 5666POPC   PO471112  10.498  41.485   5.319
 5666POPC   GL171113  10.452  41.398   5.766
 5666POPC   GL271114  10.601  41.733   5.790
 5666POPC   C1A71115  10.388  41.506   6.263
 5666POPC   D2A71116  10.591  41.676   6.654
 5666POPC   C3A71117  10.678  41.432   7.055
 5666POPC   C4A71118  10.637  41.123   7.421
 5666POPC   C1B71119  10.586  41.958   6.168
 5666POPC   C2B71120  10.288  42.068   6.466
 5666POPC   C3B71121  10.293  42.006   6.914
 5666POPC   C4B71122  10.397  41.786   7.290
 5667POPC   NC371123  21.073  27.106   5.567
 5667POPC   PO471124  21.299  26.625   5.214
 5667POPC   GL171125  21.197  26.642   5.743
 5667POPC   GL271126  21.410  26.472   6.047
 5667POPC   C1A71127  21.145  26.878   6.164
 5667POPC   D2A71128  21.363  26.992   6.538
 5667POPC   C3A71129  21.191  26.786   6.891
 5667POPC   C4A71130  21.144  26.998   7.271
 5667POPC   C1B71131  21.699  26.617   6.377
 5667POPC   C2B71132  21.680  26.585   6.830
 5667POPC   C3B71133  21.592  26.728   7.249
 5667POPC   C4B71134  21.534  26.592   7.678
 5668POPC   NC371135   9.508   8.211   5.385
 5668POPC   PO471136  10.031   7.913   5.755
 5668POPC   GL171137   9.732   8.156   5.890
 5668POPC   GL271138   9.978   8.390   5.946
 5668POPC   C1A71139   9.661   8.191   6.342
 5668POPC   D2A71140   9.754   7.944   6.707
 5668POPC   C3A71141   9.969   8.184   7.003
 5668POPC   C4A71142   9.627   8.405   7.211
 5668POPC   C1B71143   9.965   8.623   6.319
 5668POPC   C2B71144   9.816   8.613   6.752
 5668POPC   C3B71145  10.036   8.706   7.151
 5668POPC   C4B71146   9.909   8.661   7.611
 5669POPC   NC371147   0.839  44.653   5.530
 5669POPC   PO471148   0.292  44.259   5.407
 5669POPC   GL171149   0.380  44.491   5.800
 5669POPC   GL271150   0.413  44.854   5.811
 5669POPC   C1A71151   0.431  44.599   6.253
 5669POPC   D2A71152   0.432  44.390   6.624
 5669POPC   C3A71153   0.511  44.605   6.992
 5669POPC   C4A71154   0.385  44.450   7.350
 5669POPC   C1B71155   0.541   0.096   6.207
 5669POPC   C2B71156   0.508   0.025   6.675
 5669POPC   C3B71157   0.701   0.079   7.103
 5669POPC   C4B71158   0.712  44.805   7.480
 5670POPC   NC371159  24.100  12.539   5.517
 5670POPC   PO471160  23.461  12.418   5.651
 5670POPC   GL171161  23.792  12.604   5.958
 5670POPC   GL271162  24.001  12.929   5.849
 5670POPC   C1A71163  23.809  12.515   6.422
 5670POPC   D2A71164  24.025  12.457   6.835
 5670POPC   C3A71165  23.812  12.511   7.265
 5670POPC   C4A71166  23.355  12.490   7.503
 5670POPC   C1B71167  23.787  13.113   6.199
 5670POPC   C2B71168  23.716  13.006   6.629
 5670POPC   C3B71169  23.898  13.060   7.022
 5670POPC   C4B71170  23.887  12.982   7.458
 5671POPC   NC371171   4.650  21.205   5.416
 5671POPC   PO471172   4.204  21.687   5.457
 5671POPC   GL171173   4.163  21.350   5.825
 5671POPC   GL271174   4.475  21.105   5.879
 5671POPC   C1A71175   4.206  21.248   6.298
 5671POPC   D2A71176   4.111  21.036   6.715
 5671POPC   C3A71177   4.047  21.344   7.047
 5671POPC   C4A71178   4.186  21.785   7.130
 5671POPC   C1B71179   4.658  20.968   6.263
 5671POPC   C2B71180   4.692  21.142   6.697
 5671POPC   C3B71181   4.506  21.152   7.120
 5671POPC   C4B71182   4.123  20.898   7.291
 5672POPC   NC371183   4.993  10.979   5.151
 5672POPC   PO471184   5.392  11.482   5.367
 5672POPC   GL171185   5.283  11.316   5.780
 5672POPC   GL271186   4.956  11.205   5.865
 5672POPC   C1A71187   5.502  11.217   6.173
 5672POPC   D2A71188   5.559  11.117   6.613
 5672POPC   C3A71189   5.333  11.405   6.903
 5672POPC   C4A71190   5.512  11.573   7.274
 5672POPC   C1B71191   4.708  11.295   6.258
 5672POPC   C2B71192   4.816  11.354   6.721
 5672POPC   C3B71193   4.869  11.275   7.181
 5672POPC   C4B71194   4.624  11.230   7.597
 5673POPC   NC371195   6.488  13.324   5.587
 5673POPC   PO471196   6.786  12.634   5.598
 5673POPC   GL171197   6.623  12.911   5.841
 5673POPC   GL271198   6.904  13.172   5.845
 5673POPC   C1A71199   6.381  12.976   6.179
 5673POPC   D2A71200   6.430  13.157   6.566
 5673POPC   C3A71201   6.545  12.888   6.902
 5673POPC   C4A71202   6.259  12.819   7.254
 5673POPC   C1B71203   6.869  13.050   6.282
 5673POPC   C2B71204   7.034  12.997   6.681
 5673POPC   C3B71205   6.959  13.190   7.072
 5673POPC   C4B71206   6.654  13.108   7.359
 5674POPC   NC371207  35.343  34.417   5.452
 5674POPC   PO471208  35.247  35.054   5.534
 5674POPC   GL171209  35.188  34.750   5.885
 5674POPC   GL271210  35.070  34.393   5.883
 5674POPC   C1A71211  35.475  34.701   6.248
 5674POPC   D2A71212  35.509  34.867   6.674
 5674POPC   C3A71213  35.307  34.766   7.085
 5674POPC   C4A71214  35.620  34.803   7.421
 5674POPC   C1B71215  35.174  34.291   6.271
 5674POPC   C2B71216  35.273  34.412   6.680
 5674POPC   C3B71217  35.134  34.283   7.074
 5674POPC   C4B71218  35.393  34.350   7.409
 5675POPC   NC371219  30.333  21.540   5.489
 5675POPC   PO471220  29.702  21.297   5.417
 5675POPC   GL171221  29.953  21.215   5.753
 5675POPC   GL271222  29.737  20.950   5.828
 5675POPC   C1A71223  29.855  21.306   6.184
 5675POPC   D2A71224  29.881  21.061   6.545
 5675POPC   C3A71225  29.844  21.319   6.903
 5675POPC   C4A71226  29.905  21.250   7.335
 5675POPC   C1B71227  29.476  20.965   6.205
 5675POPC   C2B71228  29.478  20.750   6.614
 5675POPC   C3B71229  29.674  20.864   7.058
 5675POPC   C4B71230  29.577  20.872   7.533
 5676POPC   NC371231  25.045  42.625   5.310
 5676POPC   PO471232  25.295  42.040   5.477
 5676POPC   GL171233  25.213  42.386   5.745
 5676POPC   GL271234  25.517  42.605   5.763
 5676POPC   C1A71235  25.211  42.385   6.200
 5676POPC   D2A71236  25.025  42.309   6.613
 5676POPC   C3A71237  25.229  42.391   6.993
 5676POPC   C4A71238  25.354  42.101   7.296
 5676POPC   C1B71239  25.687  42.559   6.187
 5676POPC   C2B71240  25.548  42.522   6.596
 5676POPC   C3B71241  25.733  42.473   6.977
 5676POPC   C4B71242  25.585  42.554   7.349
 5677POPC   NC371243  30.866  41.381   5.505
 5677POPC   PO471244  31.459  41.287   5.400
 5677POPC   GL171245  31.458  41.363   5.825
 5677POPC   GL271246  31.200  41.097   5.828
 5677POPC   C1A71247  31.651  41.548   6.221
 5677POPC   D2A71248  31.464  41.564   6.643
 5677POPC   C3A71249  31.738  41.523   7.003
 5677POPC   C4A71250  31.614  41.547   7.448
 5677POPC   C1B71251  31.194  41.270   6.251
 5677POPC   C2B71252  31.125  41.091   6.637
 5677POPC   C3B71253  31.336  41.180   7.001
 5677POPC   C4B71254  31.174  41.263   7.386
 5678POPC   NC371255   8.463  13.486   5.252
 5678POPC   PO471256   7.778  13.462   5.261
 5678POPC   GL171257   8.072  13.594   5.682
 5678POPC   GL271258   8.348  13.895   5.745
 5678POPC   C1A71259   8.142  13.482   6.174
 5678POPC   D2A71260   8.097  13.459   6.628
 5678POPC   C3A71261   8.323  13.304   6.989
 5678POPC   C4A71262   8.091  13.525   7.246
 5678POPC   C1B71263   8.532  14.101   6.112
 5678POPC   C2B71264   8.438  14.009   6.534
 5678POPC   C3B71265   8.331  13.884   6.942
 5678POPC   C4B71266   8.531  13.877   7.347
 5679POPC   NC371267  19.256   8.222   5.365
 5679POPC   PO471268  18.585   7.951   5.480
 5679POPC   GL171269  18.935   8.153   5.796
 5679POPC   GL271270  19.315   8.303   5.841
 5679POPC   C1A71271  18.959   8.333   6.224
 5679POPC   D2A71272  18.826   8.178   6.624
 5679POPC   C3A71273  18.881   8.331   7.017
 5679POPC   C4A71274  18.921   8.050   7.369
 5679POPC   C1B71275  19.502   8.370   6.231
 5679POPC   C2B71276  19.317   8.264   6.592
 5679POPC   C3B71277  19.397   8.172   6.981
 5679POPC   C4B71278  19.313   8.369   7.316
 5680POPC   NC371279   4.351  31.754   5.407
 5680POPC   PO471280   4.254  31.085   5.260
 5680POPC   GL171281   4.266  31.308   5.705
 5680POPC   GL271282   4.030  31.577   5.768
 5680POPC   C1A71283   4.379  31.322   6.174
 5680POPC   D2A71284   4.578  31.201   6.599
 5680POPC   C3A71285   4.348  31.247   6.982
 5680POPC   C4A71286   4.467  31.399   7.407
 5680POPC   C1B71287   4.120  31.781   6.164
 5680POPC   C2B71288   4.375  31.700   6.559
 5680POPC   C3B71289   4.449  31.736   6.986
 5680POPC   C4B71290   4.068  31.654   7.215
 5681POPC   NC371291  19.136   1.760   5.166
 5681POPC   PO471292  18.797   2.185   5.459
 5681POPC   GL171293  19.075   2.035   5.744
 5681POPC   GL271294  18.855   1.796   5.822
 5681POPC   C1A71295  19.049   2.115   6.197
 5681POPC   D2A71296  19.206   2.222   6.601
 5681POPC   C3A71297  19.138   1.966   6.952
 5681POPC   C4A71298  18.980   2.087   7.329
 5681POPC   C1B71299  18.622   1.818   6.191
 5681POPC   C2B71300  18.705   2.041   6.582
 5681POPC   C3B71301  18.609   1.930   6.988
 5681POPC   C4B71302  18.727   1.615   7.260
 5682POPC   NC371303  16.998  13.400   5.035
 5682POPC   PO471304  16.417  13.575   5.354
 5682POPC   GL171305  16.534  13.512   5.791
 5682POPC   GL271306  16.257  13.332   5.916
 5682POPC   C1A71307  16.795  13.371   6.174
 5682POPC   D2A71308  16.869  13.242   6.622
 5682POPC   C3A71309  16.883  13.570   6.952
 5682POPC   C4A71310  17.069  13.527   7.342
 5682POPC   C1B71311  16.345  13.600   6.272
 5682POPC   C2B71312  16.452  13.572   6.694
 5682POPC   C3B71313  16.375  13.790   7.083
 5682POPC   C4B71314  16.506  13.662   7.488
 5683POPC   NC371315  41.101  21.642   5.497
 5683POPC   PO471316  40.473  21.432   5.576
 5683POPC   GL171317  40.616  21.307   5.934
 5683POPC   GL271318  40.915  21.419   5.939
 5683POPC   C1A71319  40.658  21.371   6.370
 5683POPC   D2A71320  40.840  21.705   6.565
 5683POPC   C3A71321  40.631  21.605   6.901
 5683POPC   C4A71322  40.647  21.566   7.305
 5683POPC   C1B71323  41.074  21.125   6.267
 5683POPC   C2B71324  41.144  21.249   6.658
 5683POPC   C3B71325  41.145  21.543   6.975
 5683POPC   C4B71326  41.123  21.363   7.369
 5684POPC   NC371327  25.510  32.150   5.318
 5684POPC   PO471328  25.066  32.649   5.390
 5684POPC   GL171329  25.220  32.376   5.703
 5684POPC   GL271330  25.560  32.372   5.774
 5684POPC   C1A71331  25.179  32.203   6.121
 5684POPC   D2A71332  25.151  32.444   6.476
 5684POPC   C3A71333  24.990  32.273   6.810
 5684POPC   C4A71334  25.134  32.190   7.221
 5684POPC   C1B71335  25.508  32.613   6.127
 5684POPC   C2B71336  25.655  32.513   6.529
 5684POPC   C3B71337  25.431  32.495   6.904
 5684POPC   C4B71338  25.517  32.548   7.298
 5685POPC   NC371339   0.343  29.653   5.393
 5685POPC   PO471340   0.706  30.178   5.219
 5685POPC   GL171341   0.582  30.165   5.698
 5685POPC   GL271342   0.298  29.930   5.827
 5685POPC   C1A71343   0.683  30.168   6.174
 5685POPC   D2A71344   0.811  29.880   6.551
 5685POPC   C3A71345   0.696  29.905   7.012
 5685POPC   C4A71346   0.645  30.031   7.460
 5685POPC   C1B71347   0.188  30.009   6.261
 5685POPC   C2B71348   0.354  30.099   6.689
 5685POPC   C3B71349   0.213  30.042   7.144
 5685POPC   C4B71350   0.228  29.710   7.444
 5686POPC   NC371351  36.809  15.509   5.433
 5686POPC   PO471352  37.115  14.778   5.418
 5686POPC   GL171353  36.790  15.018   5.682
 5686POPC   GL271354  37.000  15.254   5.828
 5686POPC   C1A71355  36.562  15.151   6.103
 5686POPC   D2A71356  36.666  15.042   6.568
 5686POPC   C3A71357  36.840  15.271   6.885
 5686POPC   C4A71358  36.890  15.184   7.333
 5686POPC   C1B71359  37.071  15.148   6.233
 5686POPC   C2B71360  37.210  14.978   6.600
 5686POPC   C3B71361  37.312  15.167   6.993
 5686POPC   C4B71362  37.448  15.040   7.383
 5687POPC   NC371363  35.561  24.013   5.483
 5687POPC   PO471364  35.082  23.454   5.466
 5687POPC   GL171365  35.299  23.613   5.840
 5687POPC   GL271366  35.295  23.994   5.926
 5687POPC   C1A71367  35.281  23.395   6.253
 5687POPC   D2A71368  35.041  23.226   6.594
 5687POPC   C3A71369  35.292  23.344   6.936
 5687POPC   C4A71370  35.333  23.452   7.361
 5687POPC   C1B71371  35.601  23.799   6.226
 5687POPC   C2B71372  35.665  23.569   6.611
 5687POPC   C3B71373  35.709  23.775   7.009
 5687POPC   C4B71374  35.456  24.018   7.282
 5688POPC   NC371375  42.659  12.310   5.469
 5688POPC   PO471376  42.201  11.794   5.422
 5688POPC   GL171377  42.323  12.009   5.795
 5688POPC   GL271378  42.604  11.788   5.851
 5688POPC   C1A71379  42.120  12.242   6.162
 5688POPC   D2A71380  42.308  12.388   6.546
 5688POPC   C3A71381  42.145  12.309   6.952
 5688POPC   C4A71382  42.489  12.308   7.269
 5688POPC   C1B71383  42.515  11.922   6.287
 5688POPC   C2B71384  42.257  11.888   6.651
 5688POPC   C3B71385  42.297  11.853   7.105
 5688POPC   C4B71386  42.033  11.646   7.382
 5689POPC   NC371387  23.977  38.741   5.647
 5689POPC   PO471388  23.456  38.478   5.184
 5689POPC   GL171389  23.531  38.483   5.660
 5689POPC   GL271390  23.605  38.165   5.785
 5689POPC   C1A71391  23.602  38.527   6.171
 5689POPC   D2A71392  23.793  38.383   6.577
 5689POPC   C3A71393  23.764  38.518   7.015
 5689POPC   C4A71394  23.610  38.312   7.391
 5689POPC   C1B71395  23.762  38.027   6.192
 5689POPC   C2B71396  24.133  38.021   6.464
 5689POPC   C3B71397  24.236  38.256   6.837
 5689POPC   C4B71398  24.073  38.176   7.241
 5690POPC   NC371399   0.855  19.666   5.336
 5690POPC   PO471400   0.174  19.507   5.336
 5690POPC   GL171401   0.428  19.693   5.675
 5690POPC   GL271402   0.479  20.056   5.639
 5690POPC   C1A71403   0.430  19.605   6.119
 5690POPC   D2A71404   0.220  19.718   6.499
 5690POPC   C3A71405   0.416  19.602   6.910
 5690POPC   C4A71406   0.332  19.526   7.348
 5690POPC   C1B71407   0.203  20.065   6.036
 5690POPC   C2B71408   0.317  20.271   6.422
 5690POPC   C3B71409   0.288  20.104   6.846
 5690POPC   C4B71410   0.470  20.015   7.247
 5691POPC   NC371411  16.910  35.782   5.373
 5691POPC   PO471412  16.488  36.255   5.366
 5691POPC   GL171413  16.574  36.036   5.766
 5691POPC   GL271414  16.919  35.993   5.853
 5691POPC   C1A71415  16.561  35.894   6.219
 5691POPC   D2A71416  16.640  36.111   6.626
 5691POPC   C3A71417  16.912  36.129   7.008
 5691POPC   C4A71418  16.788  36.130   7.474
 5691POPC   C1B71419  16.931  36.301   6.202
 5691POPC   C2B71420  16.950  36.538   6.605
 5691POPC   C3B71421  16.797  36.616   7.027
 5691POPC   C4B71422  17.149  36.495   7.305
 5692POPC   NC371423  35.908  39.512   5.464
 5692POPC   PO471424  36.593  39.274   5.394
 5692POPC   GL171425  36.285  39.252   5.752
 5692POPC   GL271426  36.075  38.985   5.628
 5692POPC   C1A71427  36.138  39.481   6.168
 5692POPC   D2A71428  36.087  39.647   6.622
 5692POPC   C3A71429  36.197  39.519   7.053
 5692POPC   C4A71430  35.944  39.473   7.413
 5692POPC   C1B71431  36.103  38.900   6.096
 5692POPC   C2B71432  36.179  39.097   6.519
 5692POPC   C3B71433  36.036  39.047   6.949
 5692POPC   C4B71434  36.054  38.791   7.292
 5693POPC   NC371435  26.202  10.812   5.604
 5693POPC   PO471436  25.768  11.171   5.240
 5693POPC   GL171437  26.020  11.298   5.692
 5693POPC   GL271438  26.048  11.603   5.913
 5693POPC   C1A71439  26.217  11.187   6.138
 5693POPC   D2A71440  26.072  10.986   6.507
 5693POPC   C3A71441  26.196  11.103   6.912
 5693POPC   C4A71442  25.865  11.098   7.217
 5693POPC   C1B71443  25.982  11.580   6.360
 5693POPC   C2B71444  25.872  11.806   6.714
 5693POPC   C3B71445  25.938  11.560   7.059
 5693POPC   C4B71446  26.070  11.507   7.504
 5694POPC   NC371447  13.268  23.166   5.427
 5694POPC   PO471448  13.897  22.793   5.421
 5694POPC   GL171449  13.577  22.798   5.743
 5694POPC   GL271450  13.539  23.134   5.860
 5694POPC   C1A71451  13.512  22.754   6.201
 5694POPC   D2A71452  13.245  22.649   6.544
 5694POPC   C3A71453  13.491  22.616   6.915
 5694POPC   C4A71454  13.556  22.707   7.349
 5694POPC   C1B71455  13.645  23.260   6.307
 5694POPC   C2B71456  13.738  23.013   6.689
 5694POPC   C3B71457  13.918  22.992   7.112
 5694POPC   C4B71458  13.726  23.173   7.512
 5695POPC   NC371459  22.308  42.012   5.118
 5695POPC   PO471460  21.789  42.422   5.341
 5695POPC   GL171461  22.085  42.463   5.686
 5695POPC   GL271462  22.224  42.122   5.723
 5695POPC   C1A71463  22.249  42.569   6.103
 5695POPC   D2A71464  22.107  42.732   6.480
 5695POPC   C3A71465  22.247  42.471   6.847
 5695POPC   C4A71466  22.157  42.568   7.269
 5695POPC   C1B71467  21.952  42.156   6.112
 5695POPC   C2B71468  21.875  42.246   6.541
 5695POPC   C3B71469  21.823  42.152   6.975
 5695POPC   C4B71470  22.193  42.049   7.231
 5696POPC   NC371471  20.022  19.555   5.391
 5696POPC   PO471472  20.362  18.997   5.397
 5696POPC   GL171473  20.172  19.104   5.856
 5696POPC   GL271474  19.871  19.320   5.842
 5696POPC   C1A71475  20.005  18.960   6.342
 5696POPC   D2A71476  19.640  18.891   6.678
 5696POPC   C3A71477  19.602  18.923   7.145
 5696POPC   C4A71478  19.847  18.847   7.531
 5696POPC   C1B71479  20.046  19.455   6.238
 5696POPC   C2B71480  19.856  19.368   6.697
 5696POPC   C3B71481  19.916  19.332   7.175
 5696POPC   C4B71482  20.061  19.283   7.652
 5697POPC   NC371483  40.128  34.163   5.164
 5697POPC   PO471484  40.138  34.831   5.305
 5697POPC   GL171485  40.068  34.565   5.663
 5697POPC   GL271486  39.758  34.615   5.858
 5697POPC   C1A71487  40.242  34.490   6.078
 5697POPC   D2A71488  40.381  34.759   6.422
 5697POPC   C3A71489  40.485  34.641   6.841
 5697POPC   C4A71490  40.352  34.353   7.175
 5697POPC   C1B71491  39.871  34.764   6.300
 5697POPC   C2B71492  40.012  34.417   6.609
 5697POPC   C3B71493  39.848  34.281   7.019
 5697POPC   C4B71494  39.915  34.642   7.304
 5698POPC   NC371495  12.218  20.532   5.340
 5698POPC   PO471496  11.606  20.492   5.612
 5698POPC   GL171497  12.005  20.621   5.808
 5698POPC   GL271498  12.321  20.457   5.836
 5698POPC   C1A71499  11.991  20.567   6.235
 5698POPC   D2A71500  12.165  20.422   6.614
 5698POPC   C3A71501  11.966  20.588   6.976
 5698POPC   C4A71502  11.955  20.437   7.378
 5698POPC   C1B71503  12.469  20.742   6.146
 5698POPC   C2B71504  12.621  20.705   6.561
 5698POPC   C3B71505  12.454  20.744   6.967
 5698POPC   C4B71506  12.407  20.657   7.399
 5699POPC   NC371507  42.350  17.267   5.320
 5699POPC   PO471508  42.102  17.895   5.210
 5699POPC   GL171509  42.158  17.757   5.660
 5699POPC   GL271510  42.059  17.393   5.739
 5699POPC   C1A71511  42.365  17.891   6.083
 5699POPC   D2A71512  42.553  17.933   6.515
 5699POPC   C3A71513  42.467  17.628   6.839
 5699POPC   C4A71514  42.205  17.639   7.194
 5699POPC   C1B71515  42.234  17.391   6.192
 5699POPC   C2B71516  42.214  17.233   6.633
 5699POPC   C3B71517  42.262  17.110   7.085
 5699POPC   C4B71518  42.258  17.251   7.525
 5700POPC   NC371519  38.953  20.203   5.426
 5700POPC   PO471520  38.354  19.744   5.407
 5700POPC   GL171521  38.208  19.773   5.806
 5700POPC   GL271522  38.263  19.448   5.936
 5700POPC   C1A71523  38.326  19.938   6.181
 5700POPC   D2A71524  38.411  19.749   6.573
 5700POPC   C3A71525  38.546  20.024   6.894
 5700POPC   C4A71526  38.507  20.042   7.324
 5700POPC   C1B71527  38.580  19.362   6.243
 5700POPC   C2B71528  38.680  19.284   6.648
 5700POPC   C3B71529  38.585  19.505   7.006
 5700POPC   C4B71530  38.494  19.302   7.352
 5701POPC   NC371531  32.548  20.673   5.402
 5701POPC   PO471532  31.901  21.003   5.452
 5701POPC   GL171533  31.995  20.611   5.724
 5701POPC   GL271534  32.353  20.576   5.859
 5701POPC   C1A71535  31.965  20.582   6.204
 5701POPC   D2A71536  31.839  20.728   6.644
 5701POPC   C3A71537  32.134  20.732   7.007
 5701POPC   C4A71538  32.252  20.728   7.449
 5701POPC   C1B71539  32.423  20.327   6.247
 5701POPC   C2B71540  32.166  20.290   6.609
 5701POPC   C3B71541  31.894  20.278   6.959
 5701POPC   C4B71542  32.184  20.252   7.240
 5702POPC   NC371543   6.787  44.852   5.102
 5702POPC   PO471544   6.966  44.310   5.488
 5702POPC   GL171545   6.836  44.689   5.662
 5702POPC   GL271546   6.471  44.725   5.702
 5702POPC   C1A71547   6.912  44.663   6.103
 5702POPC   D2A71548   6.680  44.539   6.486
 5702POPC   C3A71549   6.794  44.724   6.867
 5702POPC   C4A71550   6.969  44.518   7.208
 5702POPC   C1B71551   6.444  44.842   6.132
 5702POPC   C2B71552   6.475  44.992   6.568
 5702POPC   C3B71553   6.386  44.995   7.015
 5702POPC   C4B71554   6.427  44.596   7.205
 5703POPC   NC371555   9.415  23.455   5.568
 5703POPC   PO471556   9.300  24.132   5.411
 5703POPC   GL171557   9.246  23.922   5.806
 5703POPC   GL271558   8.976  23.647   5.811
 5703POPC   C1A71559   9.069  23.937   6.229
 5703POPC   D2A71560   8.853  23.873   6.605
 5703POPC   C3A71561   9.096  23.984   6.936
 5703POPC   C4A71562   8.883  23.973   7.286
 5703POPC   C1B71563   9.072  23.421   6.217
 5703POPC   C2B71564   9.201  23.510   6.647
 5703POPC   C3B71565   8.981  23.428   7.042
 5703POPC   C4B71566   9.116  23.219   7.449
 5704POPC   NC371567   0.106  34.735   5.670
 5704POPC   PO471568  44.861  34.200   5.467
 5704POPC   GL171569  44.657  34.325   5.830
 5704POPC   GL271570  44.969  34.378   5.998
 5704POPC   C1A71571  44.546  34.431   6.282
 5704POPC   D2A71572  44.745  34.456   6.713
 5704POPC   C3A71573  44.442  34.263   7.026
 5704POPC   C4A71574  44.269  34.435   7.425
 5704POPC   C1B71575  44.957  34.741   6.316
 5704POPC   C2B71576   0.068  35.024   6.670
 5704POPC   C3B71577   0.054  34.910   7.101
 5704POPC   C4B71578  44.744  34.632   7.220
 5705POPC   NC371579  42.391  22.694   5.226
 5705POPC   PO471580  42.468  22.014   5.314
 5705POPC   GL171581  42.425  22.238   5.693
 5705POPC   GL271582  42.135  22.448   5.626
 5705POPC   C1A71583  42.409  22.099   6.139
 5705POPC   D2A71584  42.595  22.118   6.539
 5705POPC   C3A71585  42.375  21.998   6.916
 5705POPC   C4A71586  42.243  21.799   7.261
 5705POPC   C1B71587  41.927  22.308   6.027
 5705POPC   C2B71588  42.019  22.269   6.482
 5705POPC   C3B71589  41.916  22.218   6.924
 5705POPC   C4B71590  42.012  22.503   7.231
 5706POPC   NC371591  41.127  33.919   5.563
 5706POPC   PO471592  40.443  33.880   5.360
 5706POPC   GL171593  40.655  33.852   5.756
 5706POPC   GL271594  40.654  33.497   5.762
 5706POPC   C1A71595  40.854  33.908   6.177
 5706POPC   D2A71596  40.661  33.869   6.582
 5706POPC   C3A71597  40.782  33.944   7.019
 5706POPC   C4A71598  40.512  33.921   7.395
 5706POPC   C1B71599  41.005  33.424   6.060
 5706POPC   C2B71600  41.112  33.284   6.489
 5706POPC   C3B71601  40.958  33.365   6.904
 5706POPC   C4B71602  40.847  33.530   7.295
 5707POPC   NC371603  34.898  24.985   5.521
 5707POPC   PO471604  35.546  25.269   5.458
 5707POPC   GL171605  35.380  25.063   5.809
 5707POPC   GL271606  35.134  25.334   5.880
 5707POPC   C1A71607  35.367  25.095   6.268
 5707POPC   D2A71608  35.184  24.843   6.582
 5707POPC   C3A71609  35.208  24.965   6.992
 5707POPC   C4A71610  35.577  25.027   7.251
 5707POPC   C1B71611  35.033  25.515   6.295
 5707POPC   C2B71612  35.245  25.422   6.694
 5707POPC   C3B71613  35.286  25.431   7.144
 5707POPC   C4B71614  35.022  25.581   7.477
 5708POPC   NC371615  24.944   8.660   5.338
 5708POPC   PO471616  25.311   9.153   5.484
 5708POPC   GL171617  25.176   8.848   5.809
 5708POPC   GL271618  25.493   8.751   5.885
 5708POPC   C1A71619  25.029   8.646   6.241
 5708POPC   D2A71620  24.761   8.770   6.611
 5708POPC   C3A71621  24.917   8.694   7.014
 5708POPC   C4A71622  25.224   8.377   7.149
 5708POPC   C1B71623  25.375   9.013   6.255
 5708POPC   C2B71624  25.432   9.208   6.683
 5708POPC   C3B71625  25.229   9.120   7.066
 5708POPC   C4B71626  25.245   8.828   7.395
 5709POPC   NC371627  10.749  24.030   5.609
 5709POPC   PO471628  11.390  23.747   5.418
 5709POPC   GL171629  11.168  23.805   5.827
 5709POPC   GL271630  10.888  23.563   5.818
 5709POPC   C1A71631  11.160  23.834   6.304
 5709POPC   D2A71632  11.562  23.798   6.521
 5709POPC   C3A71633  11.549  23.980   6.930
 5709POPC   C4A71634  11.224  24.050   7.245
 5709POPC   C1B71635  11.156  23.374   6.131
 5709POPC   C2B71636  11.263  23.365   6.552
 5709POPC   C3B71637  11.174  23.628   6.878
 5709POPC   C4B71638  11.298  23.537   7.270
 5710POPC   NC371639  39.629   8.619   5.474
 5710POPC   PO471640  40.267   8.652   5.620
 5710POPC   GL171641  39.940   8.881   5.796
 5710POPC   GL271642  39.780   8.609   5.952
 5710POPC   C1A71643  39.874   9.070   6.185
 5710POPC   D2A71644  39.664   9.195   6.564
 5710POPC   C3A71645  39.944   9.218   6.873
 5710POPC   C4A71646  39.912   9.036   7.243
 5710POPC   C1B71647  40.002   8.568   6.318
 5710POPC   C2B71648  40.191   8.776   6.654
 5710POPC   C3B71649  40.258   8.693   7.064
 5710POPC   C4B71650  40.198   8.742   7.508
 5711POPC   NC371651  38.984   1.630   5.304
 5711POPC   PO471652  39.282   2.216   5.461
 5711POPC   GL171653  39.045   2.160   5.824
 5711POPC   GL271654  39.112   1.822   5.805
 5711POPC   C1A71655  39.106   2.077   6.261
 5711POPC   D2A71656  39.335   2.199   6.597
 5711POPC   C3A71657  39.131   2.101   6.942
 5711POPC   C4A71658  39.410   2.058   7.262
 5711POPC   C1B71659  39.379   1.648   6.153
 5711POPC   C2B71660  39.292   1.688   6.574
 5711POPC   C3B71661  39.269   1.616   6.985
 5711POPC   C4B71662  39.018   1.748   7.317
 5712POPC   NC371663  36.677  29.769   5.258
 5712POPC   PO471664  36.016  29.788   5.275
 5712POPC   GL171665  36.143  29.788   5.703
 5712POPC   GL271666  35.869  30.043   5.756
 5712POPC   C1A71667  36.138  29.841   6.162
 5712POPC   D2A71668  35.938  29.763   6.569
 5712POPC   C3A71669  36.216  29.694   6.941
 5712POPC   C4A71670  36.270  29.747   7.394
 5712POPC   C1B71671  36.070  30.322   6.054
 5712POPC   C2B71672  35.920  30.321   6.487
 5712POPC   C3B71673  36.020  30.164   6.882
 5712POPC   C4B71674  36.156  30.225   7.283
 5713POPC   NC371675   6.591  23.207   5.355
 5713POPC   PO471676   6.948  23.783   5.241
 5713POPC   GL171677   6.803  23.792   5.755
 5713POPC   GL271678   6.486  23.550   5.735
 5713POPC   C1A71679   6.872  23.824   6.253
 5713POPC   D2A71680   6.801  23.959   6.707
 5713POPC   C3A71681   6.607  23.684   7.022
 5713POPC   C4A71682   6.574  23.612   7.465
 5713POPC   C1B71683   6.402  23.769   6.091
 5713POPC   C2B71684   6.390  23.731   6.528
 5713POPC   C3B71685   6.298  24.063   6.807
 5713POPC   C4B71686   6.273  24.021   7.235
 5714POPC   NC371687  43.669   2.492   5.289
 5714POPC   PO471688  43.828   3.142   5.241
 5714POPC   GL171689  43.843   2.836   5.618
 5714POPC   GL271690  43.556   2.682   5.753
 5714POPC   C1A71691  43.993   2.800   6.041
 5714POPC   D2A71692  44.023   2.881   6.475
 5714POPC   C3A71693  44.178   2.607   6.730
 5714POPC   C4A71694  44.054   2.667   7.125
 5714POPC   C1B71695  43.617   2.427   6.107
 5714POPC   C2B71696  43.706   2.463   6.537
 5714POPC   C3B71697  43.608   2.487   6.976
 5714POPC   C4B71698  43.674   2.577   7.457
 5715POPC   NC371699   1.925   9.332   5.417
 5715POPC   PO471700   1.585   8.739   5.266
 5715POPC   GL171701   1.880   8.806   5.691
 5715POPC   GL271702   2.043   9.130   5.861
 5715POPC   C1A71703   1.987   8.738   6.167
 5715POPC   D2A71704   1.780   8.940   6.530
 5715POPC   C3A71705   1.811   8.752   6.941
 5715POPC   C4A71706   1.612   8.702   7.339
 5715POPC   C1B71707   2.305   9.309   6.202
 5715POPC   C2B71708   2.087   9.459   6.569
 5715POPC   C3B71709   1.912   9.273   6.914
 5715POPC   C4B71710   2.126   9.066   7.223
 5716POPC   NC371711  20.565  24.721   5.196
 5716POPC   PO471712  20.706  24.112   5.184
 5716POPC   GL171713  20.501  24.428   5.648
 5716POPC   GL271714  20.674  24.669   5.927
 5716POPC   C1A71715  20.404  24.299   6.163
 5716POPC   D2A71716  20.442  24.119   6.636
 5716POPC   C3A71717  20.472  24.396   7.032
 5716POPC   C4A71718  20.497  24.269   7.508
 5716POPC   C1B71719  20.934  24.413   6.223
 5716POPC   C2B71720  21.025  24.225   6.633
 5716POPC   C3B71721  20.966  24.304   7.091
 5716POPC   C4B71722  20.748  24.671   7.357
 5717POPC   NC371723  43.724  18.553   5.284
 5717POPC   PO471724  44.156  18.172   5.495
 5717POPC   GL171725  43.985  18.228   5.855
 5717POPC   GL271726  43.932  18.570   5.776
 5717POPC   C1A71727  44.112  18.332   6.269
 5717POPC   D2A71728  43.933  18.241   6.666
 5717POPC   C3A71729  43.825  18.565   6.935
 5717POPC   C4A71730  44.036  18.498   7.288
 5717POPC   C1B71731  43.670  18.533   6.130
 5717POPC   C2B71732  43.488  18.343   6.451
 5717POPC   C3B71733  43.358  18.372   6.846
 5717POPC   C4B71734  43.367  18.376   7.243
 5718POPC   NC371735  15.176   8.476   5.498
 5718POPC   PO471736  15.153   7.737   5.440
 5718POPC   GL171737  15.295   8.030   5.744
 5718POPC   GL271738  14.933   8.128   5.814
 5718POPC   C1A71739  15.393   8.307   6.122
 5718POPC   D2A71740  15.192   8.491   6.475
 5718POPC   C3A71741  15.308   8.289   6.841
 5718POPC   C4A71742  15.185   8.285   7.218
 5718POPC   C1B71743  15.046   7.940   6.201
 5718POPC   C2B71744  14.956   8.037   6.596
 5718POPC   C3B71745  15.071   7.850   6.950
 5718POPC   C4B71746  14.918   7.850   7.340
 5719POPC   NC371747  35.938  42.973   5.495
 5719POPC   PO471748  36.375  43.480   5.397
 5719POPC   GL171749  36.371  43.230   5.785
 5719POPC   GL271750  36.354  42.886   5.825
 5719POPC   C1A71751  36.057  43.203   6.156
 5719POPC   D2A71752  35.918  43.397   6.588
 5719POPC   C3A71753  36.046  43.285   7.022
 5719POPC   C4A71754  35.950  43.112   7.472
 5719POPC   C1B71755  36.266  42.752   6.264
 5719POPC   C2B71756  36.027  42.879   6.660
 5719POPC   C3B71757  36.093  42.785   7.115
 5719POPC   C4B71758  36.406  42.770   7.470
 5720POPC   NC371759  21.373  11.663   5.510
 5720POPC   PO471760  21.698  12.220   5.441
 5720POPC   GL171761  21.711  12.119   5.868
 5720POPC   GL271762  21.718  11.766   5.865
 5720POPC   C1A71763  21.471  12.323   6.228
 5720POPC   D2A71764  21.134  12.167   6.542
 5720POPC   C3A71765  21.241  11.923   6.912
 5720POPC   C4A71766  21.496  12.189   7.185
 5720POPC   C1B71767  21.501  11.811   6.246
 5720POPC   C2B71768  21.660  12.006   6.598
 5720POPC   C3B71769  21.738  11.802   6.938
 5720POPC   C4B71770  21.605  11.702   7.290
 5721POPC   NC371771  44.770  15.296   5.354
 5721POPC   PO471772  44.173  15.055   5.501
 5721POPC   GL171773  44.548  15.118   5.820
 5721POPC   GL271774  44.962  15.167   5.836
 5721POPC   C1A71775  44.672  15.097   6.263
 5721POPC   D2A71776  44.692  14.849   6.641
 5721POPC   C3A71777  44.618  15.083   7.026
 5721POPC   C4A71778  44.552  14.850   7.390
 5721POPC   C1B71779   0.126  15.312   6.250
 5721POPC   C2B71780   0.015  15.228   6.681
 5721POPC   C3B71781   0.099  14.923   7.003
 5721POPC   C4B71782   0.074  14.890   7.472
 5722POPC   NC371783  34.500   5.275   5.545
 5722POPC   PO471784  34.926   4.780   5.697
 5722POPC   GL171785  34.727   5.043   5.964
 5722POPC   GL271786  34.369   4.997   5.956
 5722POPC   C1A71787  34.713   5.404   6.231
 5722POPC   D2A71788  34.525   5.444   6.650
 5722POPC   C3A71789  34.731   5.126   6.923
 5722POPC   C4A71790  34.743   5.006   7.333
 5722POPC   C1B71791  34.200   4.742   6.300
 5722POPC   C2B71792  34.403   4.775   6.717
 5722POPC   C3B71793  34.291   4.860   7.122
 5722POPC   C4B71794  34.306   4.864   7.565
 5723POPC   NC371795  17.159  21.253   5.448
 5723POPC   PO471796  17.678  21.710   5.443
 5723POPC   GL171797  17.419  21.601   5.803
 5723POPC   GL271798  17.531  21.247   5.825
 5723POPC   C1A71799  17.490  21.592   6.270
 5723POPC   D2A71800  17.517  21.806   6.689
 5723POPC   C3A71801  17.750  21.511   6.954
 5723POPC   C4A71802  17.665  21.415   7.357
 5723POPC   C1B71803  17.166  21.199   6.119
 5723POPC   C2B71804  17.258  21.063   6.540
 5723POPC   C3B71805  17.167  20.947   6.993
 5723POPC   C4B71806  17.265  21.119   7.434
 5724POPC   NC371807  39.684   5.843   5.407
 5724POPC   PO471808  40.355   5.669   5.518
 5724POPC   GL171809  40.014   5.857   5.827
 5724POPC   GL271810  39.765   5.617   5.901
 5724POPC   C1A71811  39.779   6.032   6.230
 5724POPC   D2A71812  39.637   6.295   6.630
 5724POPC   C3A71813  39.674   6.141   7.059
 5724POPC   C4A71814  40.029   6.098   7.363
 5724POPC   C1B71815  39.741   5.521   6.339
 5724POPC   C2B71816  39.876   5.798   6.667
 5724POPC   C3B71817  39.969   5.725   7.046
 5724POPC   C4B71818  39.733   5.604   7.393
 5725POPC   NC371819  35.847  15.787   5.429
 5725POPC   PO471820  36.355  16.106   5.520
 5725POPC   GL171821  36.123  15.960   5.848
 5725POPC   GL271822  35.807  16.083   5.832
 5725POPC   C1A71823  36.142  16.065   6.273
 5725POPC   D2A71824  36.292  15.837   6.611
 5725POPC   C3A71825  36.189  16.033   6.983
 5725POPC   C4A71826  36.243  15.892   7.389
 5725POPC   C1B71827  35.664  15.888   6.216
 5725POPC   C2B71828  35.769  15.949   6.668
 5725POPC   C3B71829  35.706  15.900   7.122
 5725POPC   C4B71830  35.791  16.099   7.536
 5726POPC   NC371831  26.912  10.673   5.148
 5726POPC   PO471832  26.272  10.418   5.369
 5726POPC   GL171833  26.641  10.521   5.696
 5726POPC   GL271834  26.673  10.180   5.825
 5726POPC   C1A71835  26.878  10.624   6.135
 5726POPC   D2A71836  27.092  10.873   6.471
 5726POPC   C3A71837  27.018  10.756   6.882
 5726POPC   C4A71838  26.969  10.571   7.283
 5726POPC   C1B71839  26.557  10.250   6.251
 5726POPC   C2B71840  26.654  10.369   6.669
 5726POPC   C3B71841  26.496  10.210   7.066
 5726POPC   C4B71842  26.712  10.144   7.461
 5727POPC   NC371843  39.303  34.118   5.402
 5727POPC   PO471844  39.038  33.546   5.303
 5727POPC   GL171845  39.059  33.767   5.715
 5727POPC   GL271846  38.877  34.065   5.776
 5727POPC   C1A71847  39.044  33.747   6.170
 5727POPC   D2A71848  39.296  33.593   6.508
 5727POPC   C3A71849  39.126  33.729   6.852
 5727POPC   C4A71850  39.112  33.560   7.196
 5727POPC   C1B71851  38.948  34.258   6.171
 5727POPC   C2B71852  39.169  34.150   6.543
 5727POPC   C3B71853  39.312  34.187   6.974
 5727POPC   C4B71854  39.090  34.048   7.355
 5728POPC   NC371855  10.564  10.676   5.328
 5728POPC   PO471856  11.045  10.331   5.627
 5728POPC   GL171857  10.597  10.258   5.703
 5728POPC   GL271858  10.336  10.528   5.775
 5728POPC   C1A71859  10.514  10.199   6.146
 5728POPC   D2A71860  10.697  10.395   6.514
 5728POPC   C3A71861  10.592  10.253   6.912
 5728POPC   C4A71862  10.732  10.431   7.302
 5728POPC   C1B71863  10.172  10.568   6.222
 5728POPC   C2B71864  10.202  10.582   6.670
 5728POPC   C3B71865  10.184  10.508   7.097
 5728POPC   C4B71866  10.293  10.106   7.316
 5729POPC   NC371867  41.787  23.291   5.479
 5729POPC   PO471868  41.237  22.849   5.311
 5729POPC   GL171869  41.390  22.840   5.727
 5729POPC   GL271870  41.742  22.749   5.814
 5729POPC   C1A71871  41.435  23.048   6.121
 5729POPC   D2A71872  41.506  22.936   6.554
 5729POPC   C3A71873  41.609  23.187   6.907
 5729POPC   C4A71874  41.456  23.119   7.318
 5729POPC   C1B71875  41.929  22.794   6.258
 5729POPC   C2B71876  41.968  22.772   6.729
 5729POPC   C3B71877  42.020  22.994   7.151
 5729POPC   C4B71878  41.869  22.941   7.573
 5730POPC   NC371879  29.849  37.356   5.369
 5730POPC   PO471880  30.100  36.744   5.367
 5730POPC   GL171881  29.970  36.867   5.807
 5730POPC   GL271882  29.694  36.673   5.966
 5730POPC   C1A71883  29.972  36.948   6.264
 5730POPC   D2A71884  29.912  36.793   6.687
 5730POPC   C3A71885  29.873  37.034   7.029
 5730POPC   C4A71886  30.014  36.767   7.300
 5730POPC   C1B71887  29.874  36.456   6.318
 5730POPC   C2B71888  29.657  36.313   6.686
 5730POPC   C3B71889  29.674  36.424   7.100
 5730POPC   C4B71890  29.488  36.653   7.424
 5731POPC   NC371891  17.970  16.249   5.545
 5731POPC   PO471892  18.410  15.705   5.551
 5731POPC   GL171893  18.506  16.021   5.861
 5731POPC   GL271894  18.198  16.003   5.942
 5731POPC   C1A71895  18.585  15.985   6.320
 5731POPC   D2A71896  18.381  15.794   6.686
 5731POPC   C3A71897  18.416  16.018   7.058
 5731POPC   C4A71898  18.506  16.270   7.473
 5731POPC   C1B71899  18.204  16.307   6.247
 5731POPC   C2B71900  18.077  16.201   6.640
 5731POPC   C3B71901  17.915  15.961   6.960
 5731POPC   C4B71902  18.019  16.143   7.356
 5732POPC   NC371903  10.330  27.316   5.584
 5732POPC   PO471904  10.785  27.849   5.758
 5732POPC   GL171905  10.559  27.582   5.959
 5732POPC   GL271906  10.780  27.304   5.870
 5732POPC   C1A71907  10.185  27.639   6.193
 5732POPC   D2A71908  10.192  27.830   6.595
 5732POPC   C3A71909  10.435  27.748   6.936
 5732POPC   C4A71910  10.433  27.852   7.349
 5732POPC   C1B71911  10.504  27.127   6.203
 5732POPC   C2B71912  10.439  27.367   6.539
 5732POPC   C3B71913  10.375  27.261   6.934
 5732POPC   C4B71914  10.612  27.381   7.273
 5733POPC   NC371915  12.973  10.384   5.342
 5733POPC   PO471916  12.627  10.970   5.303
 5733POPC   GL171917  12.534  10.780   5.737
 5733POPC   GL271918  12.613  10.422   5.790
 5733POPC   C1A71919  12.663  10.758   6.191
 5733POPC   D2A71920  12.568  10.794   6.638
 5733POPC   C3A71921  12.929  10.813   6.900
 5733POPC   C4A71922  12.925  10.589   7.258
 5733POPC   C1B71923  12.531  10.263   6.240
 5733POPC   C2B71924  12.710  10.285   6.674
 5733POPC   C3B71925  12.518  10.354   7.085
 5733POPC   C4B71926  12.585  10.338   7.549
 5734POPC   NC371927  15.224  34.938   5.586
 5734POPC   PO471928  14.860  35.386   5.391
 5734POPC   GL171929  15.122  35.399   5.787
 5734POPC   GL271930  15.132  35.108   6.037
 5734POPC   C1A71931  15.448  35.484   6.107
 5734POPC   D2A71932  15.396  35.656   6.506
 5734POPC   C3A71933  15.225  35.500   6.903
 5734POPC   C4A71934  15.045  35.604   7.300
 5734POPC   C1B71935  14.798  35.208   6.285
 5734POPC   C2B71936  14.855  35.205   6.705
 5734POPC   C3B71937  14.831  35.173   7.111
 5734POPC   C4B71938  15.164  35.099   7.237
 5735POPC   NC371939  38.921   7.849   5.597
 5735POPC   PO471940  39.397   8.254   5.331
 5735POPC   GL171941  39.328   8.392   5.803
 5735POPC   GL271942  39.289   8.086   5.848
 5735POPC   C1A71943  39.453   8.414   6.280
 5735POPC   D2A71944  39.617   8.330   6.730
 5735POPC   C3A71945  39.312   8.285   7.090
 5735POPC   C4A71946  39.225   8.460   7.485
 5735POPC   C1B71947  39.098   8.044   6.239
 5735POPC   C2B71948  39.100   8.234   6.618
 5735POPC   C3B71949  38.822   8.257   6.923
 5735POPC   C4B71950  38.802   8.215   7.365
 5736POPC   NC371951  34.409  36.536   5.425
 5736POPC   PO471952  34.392  35.921   5.470
 5736POPC   GL171953  34.337  36.109   5.869
 5736POPC   GL271954  34.506  36.407   5.908
 5736POPC   C1A71955  34.158  36.067   6.305
 5736POPC   D2A71956  34.123  35.805   6.721
 5736POPC   C3A71957  34.208  36.059   7.077
 5736POPC   C4A71958  34.503  36.369   7.118
 5736POPC   C1B71959  34.678  36.181   6.254
 5736POPC   C2B71960  34.757  36.256   6.670
 5736POPC   C3B71961  34.954  36.122   7.036
 5736POPC   C4B71962  34.948  36.337   7.388
 5737POPC   NC371963  14.380  27.200   5.546
 5737POPC   PO471964  14.310  27.845   5.355
 5737POPC   GL171965  14.206  27.857   5.800
 5737POPC   GL271966  14.401  27.586   5.864
 5737POPC   C1A71967  14.152  27.672   6.273
 5737POPC   D2A71968  14.412  27.691   6.656
 5737POPC   C3A71969  14.246  27.779   7.057
 5737POPC   C4A71970  14.009  27.510   7.307
 5737POPC   C1B71971  14.674  27.599   6.227
 5737POPC   C2B71972  14.950  27.596   6.600
 5737POPC   C3B71973  14.880  27.482   7.018
 5737POPC   C4B71974  14.692  27.617   7.372
 5738POPC   NC371975  38.892  41.040   5.446
 5738POPC   PO471976  39.561  40.953   5.579
 5738POPC   GL171977  39.197  40.739   5.792
 5738POPC   GL271978  39.386  40.414   5.831
 5738POPC   C1A71979  39.003  40.812   6.228
 5738POPC   D2A71980  39.198  40.951   6.649
 5738POPC   C3A71981  38.920  40.979   7.020
 5738POPC   C4A71982  38.897  40.656   7.334
 5738POPC   C1B71983  39.492  40.639   6.217
 5738POPC   C2B71984  39.504  40.423   6.592
 5738POPC   C3B71985  39.267  40.429   6.972
 5738POPC   C4B71986  39.360  40.809   7.142
 5739POPC   NC371987   5.141  28.150   5.468
 5739POPC   PO471988   4.997  28.823   5.530
 5739POPC   GL171989   5.144  28.549   5.814
 5739POPC   GL271990   5.496  28.660   5.739
 5739POPC   C1A71991   4.991  28.281   6.177
 5739POPC   D2A71992   4.795  28.343   6.582
 5739POPC   C3A71993   4.977  28.250   6.949
 5739POPC   C4A71994   5.183  28.391   7.276
 5739POPC   C1B71995   5.472  28.473   6.183
 5739POPC   C2B71996   5.330  28.431   6.600
 5739POPC   C3B71997   5.515  28.593   6.962
 5739POPC   C4B71998   5.653  28.654   7.403
 5740POPC   NC371999   5.666  21.564   5.219
 5740POPC   PO472000   6.018  20.992   5.345
 5740POPC   GL172001   5.847  21.291   5.694
 5740POPC   GL272002   5.583  21.601   5.713
 5740POPC   C1A72003   6.014  21.276   6.141
 5740POPC   D2A72004   6.163  21.496   6.512
 5740POPC   C3A72005   6.173  21.248   6.888
 5740POPC   C4A72006   5.917  21.321   7.211
 5740POPC   C1B72007   5.775  21.738   6.080
 5740POPC   C2B72008   5.696  21.726   6.513
 5740POPC   C3B72009   5.507  21.602   6.884
 5740POPC   C4B72010   5.444  21.588   7.292
 5741POPC   NC372011  17.777  19.242   5.470
 5741POPC   PO472012  17.114  19.285   5.468
 5741POPC   GL172013  17.376  19.154   5.844
 5741POPC   GL272014  17.703  18.932   5.899
 5741POPC   C1A72015  17.402  19.103   6.310
 5741POPC   D2A72016  17.484  18.879   6.712
 5741POPC   C3A72017  17.208  19.030   7.057
 5741POPC   C4A72018  17.321  19.226   7.451
 5741POPC   C1B72019  17.886  18.940   6.356
 5741POPC   C2B72020  17.868  19.213   6.748
 5741POPC   C3B72021  17.714  19.031   7.158
 5741POPC   C4B72022  17.672  18.870   7.612
 5742POPC   NC372023  32.022  31.745   5.448
 5742POPC   PO472024  32.452  31.249   5.452
 5742POPC   GL172025  32.303  31.417   5.842
 5742POPC   GL272026  32.424  31.710   5.797
 5742POPC   C1A72027  32.202  31.346   6.300
 5742POPC   D2A72028  31.985  31.444   6.697
 5742POPC   C3A72029  32.125  31.357   7.126
 5742POPC   C4A72030  32.023  31.527   7.545
 5742POPC   C1B72031  32.116  31.813   6.119
 5742POPC   C2B72032  32.202  31.893   6.539
 5742POPC   C3B72033  32.279  31.805   6.964
 5742POPC   C4B72034  32.119  31.982   7.341
 5743POPC   NC372035  21.077  10.310   5.565
 5743POPC   PO472036  21.737  10.477   5.490
 5743POPC   GL172037  21.447  10.617   5.761
 5743POPC   GL272038  21.498  10.318   5.947
 5743POPC   C1A72039  21.444  10.821   6.152
 5743POPC   D2A72040  21.317  11.013   6.554
 5743POPC   C3A72041  21.290  10.701   6.876
 5743POPC   C4A72042  21.560  10.802   7.232
 5743POPC   C1B72043  21.377  10.371   6.380
 5743POPC   C2B72044  21.021  10.290   6.629
 5743POPC   C3B72045  21.081  10.177   7.027
 5743POPC   C4B72046  21.495  10.300   7.174
 5744POPC   NC372047  15.842  25.726   5.287
 5744POPC   PO472048  16.336  26.194   5.374
 5744POPC   GL172049  16.120  26.202   5.783
 5744POPC   GL272050  15.978  25.873   5.780
 5744POPC   C1A72051  15.965  26.336   6.197
 5744POPC   D2A72052  15.891  26.098   6.576
 5744POPC   C3A72053  15.901  26.372   6.903
 5744POPC   C4A72054  15.695  26.257   7.246
 5744POPC   C1B72055  15.681  25.904   6.137
 5744POPC   C2B72056  15.479  25.809   6.560
 5744POPC   C3B72057  15.654  25.819   6.990
 5744POPC   C4B72058  15.457  25.848   7.426
 5745POPC   NC372059  22.533   2.060   5.494
 5745POPC   PO472060  21.880   1.864   5.593
 5745POPC   GL172061  22.178   1.947   5.901
 5745POPC   GL272062  22.396   2.241   5.939
 5745POPC   C1A72063  22.071   1.904   6.312
 5745POPC   D2A72064  21.771   1.964   6.580
 5745POPC   C3A72065  21.960   1.833   6.906
 5745POPC   C4A72066  22.149   1.997   7.221
 5745POPC   C1B72067  22.537   2.077   6.305
 5745POPC   C2B72068  22.376   2.080   6.725
 5745POPC   C3B72069  22.552   2.254   7.078
 5745POPC   C4B72070  22.484   2.679   7.070
 5746POPC   NC372071  25.112  43.439   5.381
 5746POPC   PO472072  25.476  42.804   5.280
 5746POPC   GL172073  25.250  43.003   5.590
 5746POPC   GL272074  25.418  43.272   5.775
 5746POPC   C1A72075  25.137  42.860   5.982
 5746POPC   D2A72076  25.272  42.911   6.393
 5746POPC   C3A72077  25.061  42.841   6.773
 5746POPC   C4A72078  25.195  42.868   7.202
 5746POPC   C1B72079  25.404  43.439   6.234
 5746POPC   C2B72080  25.296  43.409   6.706
 5746POPC   C3B72081  25.416  43.362   7.160
 5746POPC   C4B72082  25.406  43.394   7.645
 5747POPC   NC372083  10.175  36.806   5.540
 5747POPC   PO472084   9.546  37.212   5.383
 5747POPC   GL172085   9.724  37.013   5.756
 5747POPC   GL272086   9.989  37.251   5.840
 5747POPC   C1A72087   9.545  36.842   6.166
 5747POPC   D2A72088   9.690  36.781   6.604
 5747POPC   C3A72089   9.508  36.888   7.008
 5747POPC   C4A72090   9.528  36.594   7.347
 5747POPC   C1B72091  10.014  37.052   6.278
 5747POPC   C2B72092  10.015  37.156   6.750
 5747POPC   C3B72093   9.989  36.973   7.190
 5747POPC   C4B72094  10.055  37.049   7.655
 5748POPC   NC372095   5.739  22.637   5.610
 5748POPC   PO472096   6.253  22.883   5.321
 5748POPC   GL172097   6.065  22.981   5.755
 5748POPC   GL272098   6.018  23.302   5.838
 5748POPC   C1A72099   6.087  22.764   6.184
 5748POPC   D2A72100   5.860  22.615   6.562
 5748POPC   C3A72101   5.872  22.902   6.912
 5748POPC   C4A72102   5.913  23.123   7.282
 5748POPC   C1B72103   5.745  23.150   6.207
 5748POPC   C2B72104   5.502  23.310   6.586
 5748POPC   C3B72105   5.511  23.299   7.032
 5748POPC   C4B72106   5.454  22.905   7.270
 5749POPC   NC372107  35.169  27.411   5.381
 5749POPC   PO472108  35.587  27.977   5.245
 5749POPC   GL172109  35.564  27.668   5.651
 5749POPC   GL272110  35.223  27.632   5.843
 5749POPC   C1A72111  35.651  27.508   6.088
 5749POPC   D2A72112  35.635  27.695   6.510
 5749POPC   C3A72113  35.481  27.557   6.881
 5749POPC   C4A72114  35.794  27.504   7.199
 5749POPC   C1B72115  35.185  27.554   6.313
 5749POPC   C2B72116  35.046  27.286   6.660
 5749POPC   C3B72117  35.050  27.318   7.108
 5749POPC   C4B72118  35.058  27.151   7.521
 5750POPC   NC372119   7.654  28.311   5.487
 5750POPC   PO472120   7.037  28.132   5.197
 5750POPC   GL172121   7.166  28.137   5.641
 5750POPC   GL272122   7.326  28.413   5.868
 5750POPC   C1A72123   7.177  28.003   6.093
 5750POPC   D2A72124   7.396  28.221   6.426
 5750POPC   C3A72125   7.337  28.120   6.837
 5750POPC   C4A72126   7.454  28.057   7.241
 5750POPC   C1B72127   7.494  28.674   6.204
 5750POPC   C2B72128   7.442  28.697   6.672
 5750POPC   C3B72129   7.450  28.564   7.126
 5750POPC   C4B72130   7.678  28.522   7.524
 5751POPC   NC372131   7.818  22.891   5.501
 5751POPC   PO472132   7.194  22.813   5.333
 5751POPC   GL172133   7.397  22.793   5.762
 5751POPC   GL272134   7.670  22.516   5.790
 5751POPC   C1A72135   7.461  22.961   6.194
 5751POPC   D2A72136   7.259  23.071   6.578
 5751POPC   C3A72137   7.458  23.131   6.947
 5751POPC   C4A72138   7.224  23.097   7.291
 5751POPC   C1B72139   7.792  22.560   6.212
 5751POPC   C2B72140   7.826  22.829   6.594
 5751POPC   C3B72141   7.706  22.684   6.999
 5751POPC   C4B72142   7.514  22.631   7.419
 5752POPC   NC372143  33.319   4.089   4.986
 5752POPC   PO472144  32.650   4.114   5.099
 5752POPC   GL172145  32.985   4.167   5.497
 5752POPC   GL272146  33.091   3.924   5.787
 5752POPC   C1A72147  33.079   4.404   5.930
 5752POPC   D2A72148  33.152   4.564   6.369
 5752POPC   C3A72149  32.939   4.395   6.742
 5752POPC   C4A72150  33.016   4.463   7.171
 5752POPC   C1B72151  33.017   3.981   6.220
 5752POPC   C2B72152  33.340   3.998   6.540
 5752POPC   C3B72153  33.269   4.044   6.971
 5752POPC   C4B72154  32.893   3.977   7.170
 5753POPC   NC372155  20.942   5.554   5.486
 5753POPC   PO472156  20.534   6.220   5.349
 5753POPC   GL172157  20.630   6.069   5.790
 5753POPC   GL272158  20.589   5.710   5.861
 5753POPC   C1A72159  20.808   5.968   6.225
 5753POPC   D2A72160  20.591   5.796   6.578
 5753POPC   C3A72161  20.599   6.071   6.938
 5753POPC   C4A72162  20.780   5.960   7.308
 5753POPC   C1B72163  20.313   5.515   6.187
 5753POPC   C2B72164  20.277   5.376   6.640
 5753POPC   C3B72165  20.434   5.565   7.049
 5753POPC   C4B72166  20.385   5.336   7.439
 5754POPC   NC372167  41.286  20.270   5.514
 5754POPC   PO472168  41.795  20.695   5.451
 5754POPC   GL172169  41.483  20.683   5.780
 5754POPC   GL272170  41.614  20.376   5.921
 5754POPC   C1A72171  41.340  20.685   6.219
 5754POPC   D2A72172  41.600  20.534   6.574
 5754POPC   C3A72173  41.576  20.724   6.975
 5754POPC   C4A72174  41.246  20.823   7.264
 5754POPC   C1B72175  41.679  20.115   6.293
 5754POPC   C2B72176  41.848  20.009   6.668
 5754POPC   C3B72177  41.874  20.299   6.960
 5754POPC   C4B72178  41.642  20.353   7.341
 5755POPC   NC372179  28.786  44.257   5.320
 5755POPC   PO472180  29.102  43.653   5.232
 5755POPC   GL172181  28.917  43.809   5.619
 5755POPC   GL272182  28.794  43.505   5.694
 5755POPC   C1A72183  29.015  43.901   6.063
 5755POPC   D2A72184  29.036  44.083   6.503
 5755POPC   C3A72185  29.146  43.821   6.879
 5755POPC   C4A72186  29.298  43.938   7.292
 5755POPC   C1B72187  28.719  43.433   6.132
 5755POPC   C2B72188  28.862  43.518   6.543
 5755POPC   C3B72189  28.807  43.454   6.987
 5755POPC   C4B72190  28.939  43.599   7.407
 5756POPC   NC372191   5.927   0.051   5.099
 5756POPC   PO472192   6.057  44.462   5.419
 5756POPC   GL172193   6.073  44.374   5.808
 5756POPC   GL272194   5.918  44.083   5.816
 5756POPC   C1A72195   6.151  44.441   6.220
 5756POPC   D2A72196   6.013  44.823   6.421
 5756POPC   C3A72197   5.993  44.741   6.840
 5756POPC   C4A72198   5.864  44.920   7.224
 5756POPC   C1B72199   5.657  44.336   6.110
 5756POPC   C2B72200   5.668  44.428   6.562
 5756POPC   C3B72201   5.602  44.450   7.022
 5756POPC   C4B72202   5.968  44.396   7.230
 5757POPC   NC372203  22.801  43.477   5.373
 5757POPC   PO472204  23.184  42.981   5.433
 5757POPC   GL172205  23.071  42.914   5.831
 5757POPC   GL272206  23.171  42.570   5.774
 5757POPC   C1A72207  22.948  43.143   6.205
 5757POPC   D2A72208  23.023  43.357   6.599
 5757POPC   C3A72209  22.791  43.148   6.916
 5757POPC   C4A72210  22.592  43.052   7.291
 5757POPC   C1B72211  23.269  42.667   6.220
 5757POPC   C2B72212  23.112  42.842   6.599
 5757POPC   C3B72213  23.185  42.847   7.017
 5757POPC   C4B72214  23.053  42.847   7.425
 5758POPC   NC372215  33.356  22.159   5.576
 5758POPC   PO472216  33.923  22.435   5.325
 5758POPC   GL172217  33.848  22.140   5.688
 5758POPC   GL272218  34.122  21.991   5.821
 5758POPC   C1A72219  33.673  22.124   6.125
 5758POPC   D2A72220  33.660  22.345   6.490
 5758POPC   C3A72221  33.699  22.180   6.902
 5758POPC   C4A72222  33.614  22.313   7.279
 5758POPC   C1B72223  34.119  22.348   6.107
 5758POPC   C2B72224  34.201  22.369   6.530
 5758POPC   C3B72225  34.231  22.311   6.944
 5758POPC   C4B72226  34.078  22.064   7.251
 5759POPC   NC372227   1.430  30.987   5.390
 5759POPC   PO472228   0.900  30.559   5.576
 5759POPC   GL172229   1.080  30.526   5.910
 5759POPC   GL272230   1.340  30.747   5.854
 5759POPC   C1A72231   1.052  30.540   6.317
 5759POPC   D2A72232   1.101  30.815   6.630
 5759POPC   C3A72233   1.209  30.638   6.994
 5759POPC   C4A72234   0.977  30.310   7.187
 5759POPC   C1B72235   1.497  30.807   6.246
 5759POPC   C2B72236   1.639  30.783   6.662
 5759POPC   C3B72237   1.461  31.091   6.921
 5759POPC   C4B72238   1.349  31.062   7.316
 5760POPC   NC372239  16.660  25.755   5.388
 5760POPC   PO472240  17.070  26.258   5.271
 5760POPC   GL172241  16.976  26.104   5.687
 5760POPC   GL272242  16.626  26.098   5.784
 5760POPC   C1A72243  16.979  26.224   6.137
 5760POPC   D2A72244  16.845  26.326   6.562
 5760POPC   C3A72245  16.704  26.039   6.864
 5760POPC   C4A72246  16.831  26.095   7.246
 5760POPC   C1B72247  16.399  25.912   6.161
 5760POPC   C2B72248  16.347  25.778   6.610
 5760POPC   C3B72249  16.217  25.981   7.021
 5760POPC   C4B72250  16.349  26.253   7.391
 5761POPC   NC372251  23.206  11.622   5.330
 5761POPC   PO472252  22.891  11.046   5.196
 5761POPC   GL172253  23.028  11.164   5.693
 5761POPC   GL272254  23.344  11.379   5.759
 5761POPC   C1A72255  22.983  11.388   6.144
 5761POPC   D2A72256  23.127  11.521   6.569
 5761POPC   C3A72257  23.017  11.379   6.980
 5761POPC   C4A72258  23.019  11.557   7.395
 5761POPC   C1B72259  23.426  11.125   6.132
 5761POPC   C2B72260  23.258  11.009   6.509
 5761POPC   C3B72261  23.348  10.972   6.933
 5761POPC   C4B72262  23.216  10.840   7.346
 5762POPC   NC372263  18.099  18.520   5.024
 5762POPC   PO472264  18.475  18.187   5.449
 5762POPC   GL172265  18.402  18.409   5.777
 5762POPC   GL272266  18.063  18.506   5.695
 5762POPC   C1A72267  18.452  18.200   6.183
 5762POPC   D2A72268  18.590  18.098   6.574
 5762POPC   C3A72269  18.388  18.318   6.909
 5762POPC   C4A72270  18.224  18.124   7.274
 5762POPC   C1B72271  18.017  18.475   6.147
 5762POPC   C2B72272  18.058  18.206   6.530
 5762POPC   C3B72273  17.870  18.277   6.948
 5762POPC   C4B72274  17.957  18.589   7.269
 5763POPC   NC372275  44.084   7.674   5.325
 5763POPC   PO472276  43.486   7.254   5.469
 5763POPC   GL172277  43.727   7.420   5.817
 5763POPC   GL272278  44.079   7.329   5.814
 5763POPC   C1A72279  43.822   7.243   6.240
 5763POPC   D2A72280  43.983   7.308   6.629
 5763POPC   C3A72281  43.783   7.568   6.908
 5763POPC   C4A72282  43.654   7.511   7.311
 5763POPC   C1B72283  44.299   7.445   6.198
 5763POPC   C2B72284  44.476   7.362   6.577
 5763POPC   C3B72285  44.323   7.517   6.951
 5763POPC   C4B72286  44.140   7.663   7.275
 5764POPC   NC372287  16.191   9.941   5.311
 5764POPC   PO472288  15.850   9.398   5.450
 5764POPC   GL172289  15.982   9.742   5.734
 5764POPC   GL272290  15.901   9.523   5.990
 5764POPC   C1A72291  16.013   9.983   6.138
 5764POPC   D2A72292  16.035   9.850   6.566
 5764POPC   C3A72293  16.032  10.057   6.988
 5764POPC   C4A72294  15.906   9.689   7.264
 5764POPC   C1B72295  15.704   9.336   6.347
 5764POPC   C2B72296  15.769   9.411   6.775
 5764POPC   C3B72297  15.483   9.479   7.108
 5764POPC   C4B72298  15.570   9.422   7.600
 5765POPC   NC372299  41.205  10.445   5.382
 5765POPC   PO472300  41.837  10.778   5.269
 5765POPC   GL172301  41.662  10.761   5.730
 5765POPC   GL272302  41.541  10.434   5.803
 5765POPC   C1A72303  41.844  10.602   6.168
 5765POPC   D2A72304  41.961  10.565   6.592
 5765POPC   C3A72305  41.593  10.483   6.855
 5765POPC   C4A72306  41.621  10.423   7.284
 5765POPC   C1B72307  41.361  10.361   6.212
 5765POPC   C2B72308  41.076  10.314   6.554
 5765POPC   C3B72309  41.108  10.083   6.942
 5765POPC   C4B72310  41.200  10.153   7.363
 5766POPC   NC372311  33.941  33.708   5.087
 5766POPC   PO472312  33.435  33.397   5.502
 5766POPC   GL172313  33.784  33.493   5.777
 5766POPC   GL272314  34.036  33.791   5.701
 5766POPC   C1A72315  33.809  33.695   6.187
 5766POPC   D2A72316  33.827  33.900   6.593
 5766POPC   C3A72317  33.802  33.557   6.905
 5766POPC   C4A72318  33.740  33.514   7.346
 5766POPC   C1B72319  34.217  34.003   6.111
 5766POPC   C2B72320  34.294  34.094   6.608
 5766POPC   C3B72321  34.129  33.941   7.066
 5766POPC   C4B72322  34.077  33.814   7.542
 5767POPC   NC372323  22.598  33.854   5.505
 5767POPC   PO472324  23.171  33.589   5.443
 5767POPC   GL172325  22.942  33.648   5.815
 5767POPC   GL272326  22.999  33.982   5.860
 5767POPC   C1A72327  23.012  33.619   6.244
 5767POPC   D2A72328  22.990  33.406   6.611
 5767POPC   C3A72329  23.007  33.698   6.910
 5767POPC   C4A72330  23.092  33.529   7.295
 5767POPC   C1B72331  22.739  34.091   6.201
 5767POPC   C2B72332  22.630  34.286   6.564
 5767POPC   C3B72333  22.704  34.144   6.941
 5767POPC   C4B72334  22.938  34.200   7.294
 5768POPC   NC372335  41.637  19.442   5.181
 5768POPC   PO472336  41.165  19.804   5.500
 5768POPC   GL172337  41.502  19.558   5.690
 5768POPC   GL272338  41.474  19.840   5.933
 5768POPC   C1A72339  41.688  19.401   6.088
 5768POPC   D2A72340  41.606  19.581   6.473
 5768POPC   C3A72341  41.672  19.539   6.889
 5768POPC   C4A72342  41.689  19.863   7.163
 5768POPC   C1B72343  41.193  20.182   6.151
 5768POPC   C2B72344  41.123  20.349   6.579
 5768POPC   C3B72345  41.351  20.227   6.931
 5768POPC   C4B72346  41.222  20.019   7.295
 5769POPC   NC372347  30.034   3.963   5.664
 5769POPC   PO472348  29.910   4.628   5.590
 5769POPC   GL172349  29.789   4.374   5.896
 5769POPC   GL272350  30.087   4.308   6.055
 5769POPC   C1A72351  29.608   4.286   6.287
 5769POPC   D2A72352  29.742   4.090   6.652
 5769POPC   C3A72353  29.898   4.261   7.042
 5769POPC   C4A72354  30.062   4.556   7.395
 5769POPC   C1B72355  30.255   3.924   6.268
 5769POPC   C2B72356  30.459   3.788   6.639
 5769POPC   C3B72357  30.240   3.882   7.012
 5769POPC   C4B72358  30.402   4.209   7.257
 5770POPC   NC372359  34.745   1.904   5.361
 5770POPC   PO472360  34.213   1.678   5.459
 5770POPC   GL172361  34.419   2.072   5.729
 5770POPC   GL272362  34.798   2.166   5.792
 5770POPC   C1A72363  34.442   2.189   6.207
 5770POPC   D2A72364  34.386   2.070   6.661
 5770POPC   C3A72365  34.300   2.223   7.115
 5770POPC   C4A72366  34.254   2.063   7.573
 5770POPC   C1B72367  34.838   1.862   6.134
 5770POPC   C2B72368  34.907   1.922   6.597
 5770POPC   C3B72369  34.788   2.155   6.961
 5770POPC   C4B72370  34.993   2.421   7.205
 5771POPC   NC372371  42.624  33.547   5.540
 5771POPC   PO472372  42.214  34.024   5.577
 5771POPC   GL172373  42.409  33.806   5.932
 5771POPC   GL272374  42.384  33.449   5.966
 5771POPC   C1A72375  42.325  33.838   6.389
 5771POPC   D2A72376  42.341  34.136   6.739
 5771POPC   C3A72377  42.442  33.929   7.103
 5771POPC   C4A72378  42.198  33.563   7.197
 5771POPC   C1B72379  42.722  33.558   6.256
 5771POPC   C2B72380  42.724  33.648   6.684
 5771POPC   C3B72381  42.748  33.523   7.102
 5771POPC   C4B72382  42.590  33.591   7.536
 5772POPC   NC372383  19.107  10.958   5.540
 5772POPC   PO472384  19.305  11.714   5.497
 5772POPC   GL172385  19.168  11.395   5.853
 5772POPC   GL272386  19.325  11.055   5.999
 5772POPC   C1A72387  19.109  11.393   6.314
 5772POPC   D2A72388  19.073  11.144   6.676
 5772POPC   C3A72389  19.212  11.255   7.103
 5772POPC   C4A72390  19.139  11.442   7.500
 5772POPC   C1B72391  18.969  10.850   6.244
 5772POPC   C2B72392  18.801  10.696   6.668
 5772POPC   C3B72393  18.767  10.978   7.048
 5772POPC   C4B72394  18.858  11.041   7.465
 5773POPC   NC372395   6.838  24.844   5.511
 5773POPC   PO472396   6.514  25.441   5.429
 5773POPC   GL172397   6.648  25.272   5.806
 5773POPC   GL272398   6.439  24.987   5.827
 5773POPC   C1A72399   6.687  25.461   6.231
 5773POPC   D2A72400   6.922  25.534   6.630
 5773POPC   C3A72401   6.757  25.536   7.063
 5773POPC   C4A72402   6.941  25.437   7.457
 5773POPC   C1B72403   6.299  25.121   6.203
 5773POPC   C2B72404   6.470  25.173   6.596
 5773POPC   C3B72405   6.333  25.276   6.977
 5773POPC   C4B72406   6.532  25.156   7.340
 5774POPC   NC372407  23.696  10.226   5.308
 5774POPC   PO472408  24.029  10.623   5.642
 5774POPC   GL172409  23.823  10.336   5.849
 5774POPC   GL272410  23.500  10.461   5.794
 5774POPC   C1A72411  23.853  10.350   6.283
 5774POPC   D2A72412  24.060  10.398   6.677
 5774POPC   C3A72413  23.858  10.194   7.034
 5774POPC   C4A72414  23.846  10.444   7.439
 5774POPC   C1B72415  23.416  10.602   6.239
 5774POPC   C2B72416  23.515  10.464   6.669
 5774POPC   C3B72417  23.478  10.511   7.099
 5774POPC   C4B72418  23.296  10.311   7.446
 5775POPC   NC372419  40.664   6.024   5.490
 5775POPC   PO472420  41.284   5.940   5.262
 5775POPC   GL172421  41.101   5.822   5.711
 5775POPC   GL272422  40.857   5.520   5.661
 5775POPC   C1A72423  40.908   6.021   6.130
 5775POPC   D2A72424  40.863   6.205   6.584
 5775POPC   C3A72425  40.788   5.957   6.968
 5775POPC   C4A72426  40.445   5.797   7.230
 5775POPC   C1B72427  40.753   5.513   6.107
 5775POPC   C2B72428  40.743   5.659   6.536
 5775POPC   C3B72429  41.059   5.534   6.854
 5775POPC   C4B72430  40.909   5.526   7.228
 5776POPC   NC372431   9.676   4.767   5.594
 5776POPC   PO472432  10.025   5.267   5.293
 5776POPC   GL172433   9.789   5.270   5.707
 5776POPC   GL272434   9.506   5.512   5.600
 5776POPC   C1A72435   9.842   5.057   6.149
 5776POPC   D2A72436   9.937   4.825   6.533
 5776POPC   C3A72437   9.914   5.137   6.836
 5776POPC   C4A72438   9.701   5.134   7.208
 5776POPC   C1B72439   9.553   5.607   6.051
 5776POPC   C2B72440   9.688   5.461   6.460
 5776POPC   C3B72441   9.519   5.476   6.875
 5776POPC   C4B72442   9.618   5.675   7.262
 5777POPC   NC372443  13.439  24.911   5.385
 5777POPC   PO472444  13.556  24.277   5.401
 5777POPC   GL172445  13.653  24.473   5.771
 5777POPC   GL272446  13.800  24.799   5.753
 5777POPC   C1A72447  13.471  24.465   6.169
 5777POPC   D2A72448  13.433  24.208   6.528
 5777POPC   C3A72449  13.657  24.401   6.846
 5777POPC   C4A72450  13.552  24.388   7.285
 5777POPC   C1B72451  13.948  24.653   6.186
 5777POPC   C2B72452  14.065  24.644   6.645
 5777POPC   C3B72453  14.006  24.685   7.120
 5777POPC   C4B72454  13.913  24.915   7.525
 5778POPC   NC372455  26.408  26.280   5.488
 5778POPC   PO472456  25.955  25.838   5.330
 5778POPC   GL172457  26.122  25.865   5.750
 5778POPC   GL272458  26.474  25.801   5.775
 5778POPC   C1A72459  26.127  25.713   6.181
 5778POPC   D2A72460  25.959  25.945   6.513
 5778POPC   C3A72461  26.080  25.935   6.936
 5778POPC   C4A72462  25.899  26.129   7.299
 5778POPC   C1B72463  26.395  26.137   6.135
 5778POPC   C2B72464  26.313  26.340   6.564
 5778POPC   C3B72465  26.500  26.273   6.966
 5778POPC   C4B72466  26.392  26.086   7.323
 5779POPC   NC372467  16.602  38.268   5.301
 5779POPC   PO472468  16.503  38.923   5.552
 5779POPC   GL172469  16.610  38.510   5.821
 5779POPC   GL272470  16.796  38.190   5.783
 5779POPC   C1A72471  16.494  38.247   6.219
 5779POPC   D2A72472  16.364  38.299   6.653
 5779POPC   C3A72473  16.499  38.611   6.952
 5779POPC   C4A72474  16.555  38.218   7.200
 5779POPC   C1B72475  16.968  38.407   6.171
 5779POPC   C2B72476  16.801  38.546   6.530
 5779POPC   C3B72477  16.942  38.336   6.885
 5779POPC   C4B72478  16.916  38.557   7.246
 5780POPC   NC372479  12.651  39.307   5.370
 5780POPC   PO472480  13.177  38.860   5.292
 5780POPC   GL172481  13.015  39.106   5.704
 5780POPC   GL272482  12.682  38.957   5.781
 5780POPC   C1A72483  12.874  39.507   6.001
 5780POPC   D2A72484  12.725  39.712   6.423
 5780POPC   C3A72485  12.921  39.696   6.856
 5780POPC   C4A72486  12.804  39.639   7.303
 5780POPC   C1B72487  12.635  39.101   6.218
 5780POPC   C2B72488  12.877  39.098   6.601
 5780POPC   C3B72489  12.791  39.207   7.023
 5780POPC   C4B72490  12.688  38.975   7.382
 5781POPC   NC372491  42.157  15.375   5.270
 5781POPC   PO472492  42.603  14.867   5.472
 5781POPC   GL172493  42.459  15.182   5.784
 5781POPC   GL272494  42.093  15.245   5.764
 5781POPC   C1A72495  42.408  15.216   6.235
 5781POPC   D2A72496  42.448  15.270   6.685
 5781POPC   C3A72497  42.446  14.957   6.972
 5781POPC   C4A72498  42.696  15.197   7.283
 5781POPC   C1B72499  41.917  15.066   6.156
 5781POPC   C2B72500  42.079  14.940   6.556
 5781POPC   C3B72501  41.905  14.958   6.961
 5781POPC   C4B72502  42.109  15.271   7.182
 5782POPC   NC372503  33.757  14.357   5.166
 5782POPC   PO472504  33.456  14.570   5.699
 5782POPC   GL172505  33.640  14.398   6.069
 5782POPC   GL272506  33.981  14.259   5.975
 5782POPC   C1A72507  33.867  14.533   6.401
 5782POPC   D2A72508  34.016  14.793   6.709
 5782POPC   C3A72509  33.719  14.833   7.042
 5782POPC   C4A72510  33.788  14.624   7.426
 5782POPC   C1B72511  34.064  13.999   6.289
 5782POPC   C2B72512  33.853  14.081   6.629
 5782POPC   C3B72513  33.825  14.344   6.938
 5782POPC   C4B72514  33.819  14.137   7.311
 5783POPC   NC372515  25.947  33.551   5.087
 5783POPC   PO472516  26.241  34.012   5.476
 5783POPC   GL172517  26.050  33.986   5.843
 5783POPC   GL272518  25.737  34.135   5.790
 5783POPC   C1A72519  26.123  33.769   6.254
 5783POPC   D2A72520  26.319  33.653   6.635
 5783POPC   C3A72521  26.098  33.737   6.995
 5783POPC   C4A72522  25.687  33.566   7.122
 5783POPC   C1B72523  25.655  33.944   6.185
 5783POPC   C2B72524  25.712  33.808   6.603
 5783POPC   C3B72525  25.649  34.041   6.942
 5783POPC   C4B72526  25.839  34.013   7.333
 5784POPC   NC372527   2.034  42.788   5.502
 5784POPC   PO472528   1.784  42.160   5.478
 5784POPC   GL172529   1.755  42.337   5.868
 5784POPC   GL272530   2.113  42.396   5.884
 5784POPC   C1A72531   1.829  42.191   6.310
 5784POPC   D2A72532   1.664  42.046   6.721
 5784POPC   C3A72533   1.889  42.283   7.080
 5784POPC   C4A72534   1.885  42.759   7.141
 5784POPC   C1B72535   2.277  42.471   6.301
 5784POPC   C2B72536   2.173  42.545   6.736
 5784POPC   C3B72537   2.419  42.629   7.096
 5784POPC   C4B72538   2.651  42.495   7.467
 5785POPC   NC372539  15.935   0.201   5.407
 5785POPC   PO472540  15.465   0.705   5.396
 5785POPC   GL172541  15.627   0.620   5.811
 5785POPC   GL272542  15.783   0.280   5.879
 5785POPC   C1A72543  15.776   0.630   6.249
 5785POPC   D2A72544  15.728   0.540   6.705
 5785POPC   C3A72545  16.073   0.551   6.998
 5785POPC   C4A72546  15.880   0.204   7.135
 5785POPC   C1B72547  16.179   0.330   6.133
 5785POPC   C2B72548  16.308   0.386   6.568
 5785POPC   C3B72549  16.325   0.098   6.918
 5785POPC   C4B72550  16.353   0.181   7.344
 5786POPC   NC372551  35.390  44.538   5.283
 5786POPC   PO472552  35.952  44.369   5.570
 5786POPC   GL172553  35.721  44.663   5.804
 5786POPC   GL272554  35.367  44.666   5.778
 5786POPC   C1A72555  35.655  44.753   6.239
 5786POPC   D2A72556  35.463  44.558   6.606
 5786POPC   C3A72557  35.581  44.754   6.987
 5786POPC   C4A72558  35.382  44.781   7.365
 5786POPC   C1B72559  35.157  44.533   6.172
 5786POPC   C2B72560  34.997  44.752   6.561
 5786POPC   C3B72561  35.087  44.639   6.978
 5786POPC   C4B72562  35.031  44.363   7.320
 5787POPC   NC372563  23.484   9.480   5.492
 5787POPC   PO472564  24.012   9.886   5.309
 5787POPC   GL172565  23.807   9.850   5.691
 5787POPC   GL272566  23.471   9.944   5.729
 5787POPC   C1A72567  23.830   9.848   6.130
 5787POPC   D2A72568  23.666   9.950   6.546
 5787POPC   C3A72569  23.502   9.603   6.779
 5787POPC   C4A72570  23.772   9.659   7.116
 5787POPC   C1B72571  23.358  10.095   6.133
 5787POPC   C2B72572  23.173  10.099   6.546
 5787POPC   C3B72573  23.355  10.058   6.952
 5787POPC   C4B72574  23.304   9.788   7.244
 5788POPC   NC372575  10.340  24.439   5.377
 5788POPC   PO472576  10.694  24.878   5.215
 5788POPC   GL172577  10.408  24.818   5.709
 5788POPC   GL272578  10.270  24.419   5.862
 5788POPC   C1A72579  10.506  24.709   6.193
 5788POPC   D2A72580  10.862  24.529   6.479
 5788POPC   C3A72581  10.967  24.724   6.886
 5788POPC   C4A72582  10.661  24.740   7.243
 5788POPC   C1B72583  10.528  24.194   6.196
 5788POPC   C2B72584  10.481  24.184   6.639
 5788POPC   C3B72585  10.298  24.431   6.989
 5788POPC   C4B72586  10.391  24.355   7.424
 5789POPC   NC372587  13.103  14.521   5.572
 5789POPC   PO472588  12.774  13.928   5.429
 5789POPC   GL172589  12.727  14.208   5.786
 5789POPC   GL272590  12.399  14.247   5.883
 5789POPC   C1A72591  12.765  14.380   6.231
 5789POPC   D2A72592  13.083  14.395   6.564
 5789POPC   C3A72593  12.941  14.587   6.946
 5789POPC   C4A72594  12.882  14.413   7.324
 5789POPC   C1B72595  12.548  13.923   6.216
 5789POPC   C2B72596  12.621  14.036   6.663
 5789POPC   C3B72597  12.574  13.901   7.108
 5789POPC   C4B72598  12.450  14.170   7.468
 5790POPC   NC372599  21.181  25.024   5.341
 5790POPC   PO472600  21.197  25.657   5.442
 5790POPC   GL172601  21.361  25.320   5.754
 5790POPC   GL272602  21.165  25.022   5.848
 5790POPC   C1A72603  21.538  25.168   6.177
 5790POPC   D2A72604  21.771  25.107   6.565
 5790POPC   C3A72605  21.507  25.025   6.911
 5790POPC   C4A72606  21.295  25.316   7.190
 5790POPC   C1B72607  21.035  24.973   6.259
 5790POPC   C2B72608  21.039  24.869   6.690
 5790POPC   C3B72609  20.891  25.051   7.071
 5790POPC   C4B72610  21.052  25.042   7.539
 5791POPC   NC372611  20.653  23.665   5.099
 5791POPC   PO472612  20.332  23.948   5.613
 5791POPC   GL172613  20.482  23.726   5.920
 5791POPC   GL272614  20.390  23.427   5.782
 5791POPC   C1A72615  20.678  23.842   6.261
 5791POPC   D2A72616  20.738  23.612   6.575
 5791POPC   C3A72617  20.925  23.805   6.903
 5791POPC   C4A72618  20.635  23.913   7.190
 5791POPC   C1B72619  20.172  23.352   6.190
 5791POPC   C2B72620  20.236  23.467   6.618
 5791POPC   C3B72621  20.267  23.569   7.048
 5791POPC   C4B72622  20.163  23.333   7.398
 5792POPC   NC372623  38.556  27.995   5.439
 5792POPC   PO472624  38.422  28.614   5.248
 5792POPC   GL172625  38.367  28.349   5.705
 5792POPC   GL272626  38.763  28.201   5.831
 5792POPC   C1A72627  38.385  28.293   6.151
 5792POPC   D2A72628  38.248  28.268   6.556
 5792POPC   C3A72629  38.493  28.545   6.799
 5792POPC   C4A72630  38.468  28.509   7.217
 5792POPC   C1B72631  38.777  27.933   6.192
 5792POPC   C2B72632  38.717  28.106   6.575
 5792POPC   C3B72633  38.569  28.062   6.968
 5792POPC   C4B72634  38.767  27.992   7.356
 5793POPC   NC372635  36.846   6.950   5.579
 5793POPC   PO472636  37.007   7.619   5.625
 5793POPC   GL172637  37.148   7.543   6.019
 5793POPC   GL272638  37.039   7.212   5.996
 5793POPC   C1A72639  36.898   7.641   6.365
 5793POPC   D2A72640  36.544   7.695   6.662
 5793POPC   C3A72641  36.657   7.628   7.108
 5793POPC   C4A72642  37.001   7.744   7.379
 5793POPC   C1B72643  37.102   7.110   6.398
 5793POPC   C2B72644  36.976   7.345   6.763
 5793POPC   C3B72645  37.073   7.294   7.141
 5793POPC   C4B72646  36.811   7.009   7.220
 5794POPC   NC372647  27.560  20.847   5.512
 5794POPC   PO472648  27.423  21.484   5.287
 5794POPC   GL172649  27.453  21.308   5.697
 5794POPC   GL272650  27.221  21.031   5.863
 5794POPC   C1A72651  27.484  21.488   6.090
 5794POPC   D2A72652  27.357  21.754   6.403
 5794POPC   C3A72653  27.446  21.632   6.817
 5794POPC   C4A72654  27.346  21.334   7.151
 5794POPC   C1B72655  27.448  21.013   6.287
 5794POPC   C2B72656  27.566  21.076   6.740
 5794POPC   C3B72657  27.752  21.042   7.169
 5794POPC   C4B72658  27.927  21.063   7.599
 5795POPC   NC372659  21.375   9.357   5.634
 5795POPC   PO472660  21.888   9.044   5.454
 5795POPC   GL172661  21.724   8.802   5.823
 5795POPC   GL272662  21.374   8.916   5.914
 5795POPC   C1A72663  21.651   8.646   6.260
 5795POPC   D2A72664  21.381   8.813   6.610
 5795POPC   C3A72665  21.516   9.011   7.013
 5795POPC   C4A72666  21.254   9.320   7.227
 5795POPC   C1B72667  21.010   8.870   6.205
 5795POPC   C2B72668  20.903   8.649   6.563
 5795POPC   C3B72669  20.983   8.629   6.992
 5795POPC   C4B72670  21.317   8.608   7.264
 5796POPC   NC372671  28.155  22.575   5.544
 5796POPC   PO472672  28.325  21.870   5.485
 5796POPC   GL172673  28.444  22.067   5.875
 5796POPC   GL272674  28.769  21.870   5.914
 5796POPC   C1A72675  28.203  22.297   6.233
 5796POPC   D2A72676  28.319  22.476   6.656
 5796POPC   C3A72677  28.134  22.340   7.036
 5796POPC   C4A72678  28.194  21.906   7.120
 5796POPC   C1B72679  28.589  21.757   6.295
 5796POPC   C2B72680  28.400  21.980   6.611
 5796POPC   C3B72681  28.621  22.149   6.949
 5796POPC   C4B72682  28.639  22.305   7.335
 5797POPC   NC372683  35.987   8.963   5.239
 5797POPC   PO472684  36.491   9.259   5.640
 5797POPC   GL172685  36.096   9.089   5.760
 5797POPC   GL272686  36.115   8.711   5.711
 5797POPC   C1A72687  36.067   9.027   6.204
 5797POPC   D2A72688  36.226   8.953   6.613
 5797POPC   C3A72689  36.199   9.116   7.018
 5797POPC   C4A72690  36.321   8.707   7.185
 5797POPC   C1B72691  35.904   8.546   6.093
 5797POPC   C2B72692  35.761   8.725   6.492
 5797POPC   C3B72693  35.837   8.738   6.907
 5797POPC   C4B72694  35.830   8.645   7.318
 5798POPC   NC372695  42.282  42.486   5.113
 5798POPC   PO472696  41.978  42.119   5.509
 5798POPC   GL172697  42.179  42.242   5.892
 5798POPC   GL272698  42.490  42.259   6.030
 5798POPC   C1A72699  42.066  42.281   6.340
 5798POPC   D2A72700  42.318  42.451   6.678
 5798POPC   C3A72701  42.156  42.419   7.105
 5798POPC   C4A72702  42.149  42.506   7.547
 5798POPC   C1B72703  42.611  42.662   6.262
 5798POPC   C2B72704  42.709  42.801   6.681
 5798POPC   C3B72705  42.644  42.590   7.096
 5798POPC   C4B72706  42.627  42.780   7.529
 5799POPC   NC372707  28.250  37.940   5.244
 5799POPC   PO472708  28.668  37.461   5.439
 5799POPC   GL172709  28.428  37.782   5.708
 5799POPC   GL272710  28.063  37.766   5.697
 5799POPC   C1A72711  28.331  37.677   6.152
 5799POPC   D2A72712  28.526  37.618   6.545
 5799POPC   C3A72713  28.324  37.661   6.918
 5799POPC   C4A72714  28.480  37.744   7.309
 5799POPC   C1B72715  27.858  37.595   6.055
 5799POPC   C2B72716  27.918  37.679   6.488
 5799POPC   C3B72717  27.919  37.947   6.835
 5799POPC   C4B72718  27.924  37.776   7.260
 5800POPC   NC372719  16.327  13.126   5.443
 5800POPC   PO472720  16.991  12.972   5.347
 5800POPC   GL172721  16.765  12.884   5.751
 5800POPC   GL272722  16.443  12.687   5.669
 5800POPC   C1A72723  16.870  12.842   6.214
 5800POPC   D2A72724  16.668  12.580   6.564
 5800POPC   C3A72725  16.857  12.642   6.992
 5800POPC   C4A72726  16.974  13.070   7.122
 5800POPC   C1B72727  16.375  12.723   6.098
 5800POPC   C2B72728  16.436  13.029   6.425
 5800POPC   C3B72729  16.453  12.979   6.873
 5800POPC   C4B72730  16.511  13.286   7.162
 5801POPC   NC372731  14.610  23.716   5.342
 5801POPC   PO472732  15.235  23.874   5.298
 5801POPC   GL172733  15.159  23.936   5.749
 5801POPC   GL272734  14.778  24.018   5.757
 5801POPC   C1A72735  15.101  23.659   6.120
 5801POPC   D2A72736  14.966  23.407   6.490
 5801POPC   C3A72737  15.234  23.487   6.854
 5801POPC   C4A72738  15.373  23.854   7.075
 5801POPC   C1B72739  14.890  24.129   6.190
 5801POPC   C2B72740  14.956  23.919   6.593
 5801POPC   C3B72741  14.861  23.813   7.018
 5801POPC   C4B72742  14.931  24.006   7.473
 5802POPC   NC372743  21.979  10.242   5.170
 5802POPC   PO472744  22.432   9.794   5.389
 5802POPC   GL172745  22.367   9.681   5.832
 5802POPC   GL272746  22.017   9.703   5.959
 5802POPC   C1A72747  22.365   9.580   6.299
 5802POPC   D2A72748  22.114   9.789   6.640
 5802POPC   C3A72749  22.370   9.908   6.984
 5802POPC   C4A72750  22.580   9.619   7.272
 5802POPC   C1B72751  21.771   9.996   6.274
 5802POPC   C2B72752  21.628  10.041   6.717
 5802POPC   C3B72753  21.876   9.984   7.091
 5802POPC   C4B72754  22.051   9.666   7.303
 5803POPC   NC372755  18.504  16.186   5.376
 5803POPC   PO472756  19.186  15.924   5.330
 5803POPC   GL172757  19.035  16.001   5.770
 5803POPC   GL272758  18.879  15.677   5.836
 5803POPC   C1A72759  19.095  15.863   6.242
 5803POPC   D2A72760  19.419  15.656   6.511
 5803POPC   C3A72761  19.325  15.823   6.941
 5803POPC   C4A72762  19.111  16.208   7.048
 5803POPC   C1B72763  18.638  15.497   6.181
 5803POPC   C2B72764  18.809  15.533   6.612
 5803POPC   C3B72765  18.648  15.533   7.044
 5803POPC   C4B72766  18.822  15.869   7.309
 5804POPC   NC372767  11.734  38.868   5.604
 5804POPC   PO472768  12.176  39.242   5.250
 5804POPC   GL172769  12.048  39.282   5.686
 5804POPC   GL272770  12.172  38.986   5.841
 5804POPC   C1A72771  11.875  39.358   6.131
 5804POPC   D2A72772  11.819  39.205   6.587
 5804POPC   C3A72773  11.908  39.475   6.977
 5804POPC   C4A72774  11.905  39.413   7.458
 5804POPC   C1B72775  12.150  38.925   6.296
 5804POPC   C2B72776  12.339  39.101   6.703
 5804POPC   C3B72777  12.260  39.141   7.166
 5804POPC   C4B72778  12.160  38.986   7.606
 5805POPC   NC372779  17.409  10.948   5.418
 5805POPC   PO472780  17.673  11.599   5.323
 5805POPC   GL172781  17.478  11.451   5.687
 5805POPC   GL272782  17.382  11.148   5.886
 5805POPC   C1A72783  17.553  11.592   6.094
 5805POPC   D2A72784  17.637  11.657   6.550
 5805POPC   C3A72785  17.295  11.661   6.812
 5805POPC   C4A72786  17.296  11.364   7.136
 5805POPC   C1B72787  17.595  11.139   6.302
 5805POPC   C2B72788  17.443  11.105   6.708
 5805POPC   C3B72789  17.681  10.996   7.063
 5805POPC   C4B72790  17.772  11.143   7.445
 5806POPC   NC372791  42.575   3.398   5.513
 5806POPC   PO472792  42.355   3.972   5.321
 5806POPC   GL172793  42.208   3.766   5.732
 5806POPC   GL272794  42.148   3.395   5.782
 5806POPC   C1A72795  42.197   3.726   6.196
 5806POPC   D2A72796  42.472   3.438   6.470
 5806POPC   C3A72797  42.476   3.463   6.935
 5806POPC   C4A72798  42.435   3.568   7.388
 5806POPC   C1B72799  42.051   3.240   6.196
 5806POPC   C2B72800  41.926   3.408   6.606
 5806POPC   C3B72801  41.974   3.350   7.040
 5806POPC   C4B72802  42.265   3.113   7.303
 5807POPC   NC372803  30.644  18.106   4.959
 5807POPC   PO472804  30.884  18.545   5.486
 5807POPC   GL172805  30.639  18.420   5.870
 5807POPC   GL272806  30.594  18.060   5.739
 5807POPC   C1A72807  30.619  18.633   6.308
 5807POPC   D2A72808  30.502  18.615   6.778
 5807POPC   C3A72809  30.854  18.425   6.992
 5807POPC   C4A72810  31.056  18.577   7.319
 5807POPC   C1B72811  30.475  17.949   6.163
 5807POPC   C2B72812  30.574  18.144   6.577
 5807POPC   C3B72813  30.456  18.123   7.022
 5807POPC   C4B72814  30.619  18.070   7.451
 5808POPC   NC372815  16.427   7.323   5.376
 5808POPC   PO472816  16.944   7.720   5.201
 5808POPC   GL172817  16.849   7.484   5.674
 5808POPC   GL272818  16.507   7.533   5.841
 5808POPC   C1A72819  16.956   7.488   6.145
 5808POPC   D2A72820  17.094   7.434   6.601
 5808POPC   C3A72821  16.890   7.567   6.981
 5808POPC   C4A72822  16.868   7.754   7.405
 5808POPC   C1B72823  16.573   7.165   6.049
 5808POPC   C2B72824  16.635   7.212   6.491
 5808POPC   C3B72825  16.476   7.204   6.926
 5808POPC   C4B72826  16.600   7.244   7.334
 5809POPC   NC372827  37.965  33.471   5.523
 5809POPC   PO472828  38.470  32.982   5.458
 5809POPC   GL172829  38.606  32.970   5.868
 5809POPC   GL272830  38.872  32.776   5.840
 5809POPC   C1A72831  38.403  32.973   6.246
 5809POPC   D2A72832  38.474  33.179   6.609
 5809POPC   C3A72833  38.363  33.000   6.964
 5809POPC   C4A72834  38.430  33.013   7.369
 5809POPC   C1B72835  38.724  32.579   6.255
 5809POPC   C2B72836  38.818  32.706   6.695
 5809POPC   C3B72837  38.652  32.602   7.114
 5809POPC   C4B72838  38.731  32.650   7.578
 5810POPC   NC372839  36.367  24.075   5.392
 5810POPC   PO472840  35.941  23.515   5.498
 5810POPC   GL172841  35.971  23.664   5.912
 5810POPC   GL272842  36.010  23.964   5.769
 5810POPC   C1A72843  36.320  23.746   6.236
 5810POPC   D2A72844  36.468  23.481   6.534
 5810POPC   C3A72845  36.167  23.539   6.801
 5810POPC   C4A72846  36.185  23.565   7.214
 5810POPC   C1B72847  36.010  24.139   6.170
 5810POPC   C2B72848  36.006  23.966   6.580
 5810POPC   C3B72849  36.165  24.034   6.998
 5810POPC   C4B72850  35.962  24.112   7.405
 5811POPC   NC372851  35.740  40.400   5.698
 5811POPC   PO472852  35.229  40.051   5.458
 5811POPC   GL172853  35.410  40.023   5.837
 5811POPC   GL272854  35.565  39.727   5.845
 5811POPC   C1A72855  35.415  40.092   6.271
 5811POPC   D2A72856  35.181  40.120   6.644
 5811POPC   C3A72857  35.428  40.202   7.010
 5811POPC   C4A72858  35.288  40.062   7.413
 5811POPC   C1B72859  35.580  39.593   6.250
 5811POPC   C2B72860  35.552  39.758   6.642
 5811POPC   C3B72861  35.311  39.734   7.002
 5811POPC   C4B72862  35.411  39.563   7.399
 5812POPC   NC372863   4.551   9.185   4.885
 5812POPC   PO472864   4.188   8.870   5.309
 5812POPC   GL172865   4.094   9.061   5.729
 5812POPC   GL272866   3.821   8.878   5.856
 5812POPC   C1A72867   4.340   9.227   6.109
 5812POPC   D2A72868   4.543   9.023   6.476
 5812POPC   C3A72869   4.485   9.232   6.880
 5812POPC   C4A72870   4.335   9.153   7.300
 5812POPC   C1B72871   3.984   8.881   6.234
 5812POPC   C2B72872   4.043   9.083   6.614
 5812POPC   C3B72873   4.146   8.836   6.953
 5812POPC   C4B72874   3.992   8.602   7.288
 5813POPC   NC372875   2.525  12.918   5.488
 5813POPC   PO472876   3.121  12.498   5.504
 5813POPC   GL172877   2.794  12.622   5.814
 5813POPC   GL272878   2.739  12.963   5.967
 5813POPC   C1A72879   2.553  12.551   6.203
 5813POPC   D2A72880   2.645  12.578   6.654
 5813POPC   C3A72881   2.778  13.009   6.812
 5813POPC   C4A72882   2.700  13.119   7.234
 5813POPC   C1B72883   3.060  13.090   6.272
 5813POPC   C2B72884   3.266  12.870   6.626
 5813POPC   C3B72885   3.078  12.622   6.972
 5813POPC   C4B72886   2.988  12.682   7.410
 5814POPC   NC372887  11.208  17.522   5.317
 5814POPC   PO472888  10.758  18.011   5.434
 5814POPC   GL172889  11.144  17.831   5.728
 5814POPC   GL272890  11.346  17.453   5.791
 5814POPC   C1A72891  11.326  17.802   6.155
 5814POPC   D2A72892  11.358  17.533   6.516
 5814POPC   C3A72893  11.249  17.739   6.890
 5814POPC   C4A72894  11.445  17.713   7.293
 5814POPC   C1B72895  11.394  17.156   6.154
 5814POPC   C2B72896  11.533  17.031   6.559
 5814POPC   C3B72897  11.508  17.266   6.963
 5814POPC   C4B72898  11.398  17.199   7.401
 5815POPC   NC372899  24.916  29.791   5.543
 5815POPC   PO472900  25.504  30.126   5.451
 5815POPC   GL172901  25.363  29.948   5.796
 5815POPC   GL272902  25.089  30.169   5.897
 5815POPC   C1A72903  25.492  29.806   6.188
 5815POPC   D2A72904  25.166  29.727   6.510
 5815POPC   C3A72905  25.244  29.715   6.952
 5815POPC   C4A72906  25.537  29.704   7.287
 5815POPC   C1B72907  25.278  30.239   6.314
 5815POPC   C2B72908  25.356  30.171   6.770
 5815POPC   C3B72909  25.075  30.168   7.154
 5815POPC   C4B72910  25.090  30.239   7.626
 5816POPC   NC372911  20.378  28.555   5.293
 5816POPC   PO472912  20.805  28.195   5.475
 5816POPC   GL172913  20.429  28.303   5.766
 5816POPC   GL272914  20.196  28.636   5.761
 5816POPC   C1A72915  20.457  28.311   6.216
 5816POPC   D2A72916  20.665  28.358   6.620
 5816POPC   C3A72917  20.461  28.260   6.977
 5816POPC   C4A72918  20.652  28.156   7.354
 5816POPC   C1B72919  20.283  28.801   6.163
 5816POPC   C2B72920  20.229  28.639   6.580
 5816POPC   C3B72921  20.400  28.762   6.948
 5816POPC   C4B72922  20.487  28.640   7.340
 5817POPC   NC372923  26.605  34.318   5.446
 5817POPC   PO472924  27.302  34.505   5.381
 5817POPC   GL172925  27.001  34.421   5.761
 5817POPC   GL272926  26.748  34.670   5.826
 5817POPC   C1A72927  26.943  34.468   6.246
 5817POPC   D2A72928  27.083  34.587   6.698
 5817POPC   C3A72929  26.798  34.398   7.009
 5817POPC   C4A72930  26.785  34.364   7.457
 5817POPC   C1B72931  26.437  34.762   6.178
 5817POPC   C2B72932  26.287  34.618   6.614
 5817POPC   C3B72933  26.388  34.703   7.082
 5817POPC   C4B72934  26.318  34.648   7.550
 5818POPC   NC372935   4.890   9.371   5.556
 5818POPC   PO472936   5.435   8.910   5.449
 5818POPC   GL172937   5.175   8.979   5.770
 5818POPC   GL272938   5.358   9.268   5.859
 5818POPC   C1A72939   5.078   8.967   6.207
 5818POPC   D2A72940   5.283   8.865   6.574
 5818POPC   C3A72941   4.944   8.877   6.814
 5818POPC   C4A72942   4.783   8.897   7.165
 5818POPC   C1B72943   5.355   9.408   6.288
 5818POPC   C2B72944   5.412   9.336   6.745
 5818POPC   C3B72945   5.252   9.144   7.137
 5818POPC   C4B72946   5.400   9.139   7.598
 5819POPC   NC372947  40.425   5.171   5.413
 5819POPC   PO472948  41.128   5.053   5.365
 5819POPC   GL172949  40.979   4.916   5.754
 5819POPC   GL272950  40.668   5.052   5.828
 5819POPC   C1A72951  41.028   5.070   6.178
 5819POPC   D2A72952  40.861   5.168   6.565
 5819POPC   C3A72953  40.983   5.036   6.983
 5819POPC   C4A72954  40.953   4.799   7.360
 5819POPC   C1B72955  40.487   5.073   6.218
 5819POPC   C2B72956  40.395   4.981   6.631
 5819POPC   C3B72957  40.528   5.291   6.950
 5819POPC   C4B72958  40.601   5.149   7.348
 5820POPC   NC372959  15.118   2.314   5.372
 5820POPC   PO472960  15.243   1.661   5.592
 5820POPC   GL172961  15.077   1.782   5.932
 5820POPC   GL272962  14.956   2.063   5.771
 5820POPC   C1A72963  15.299   1.927   6.280
 5820POPC   D2A72964  15.434   1.806   6.669
 5820POPC   C3A72965  15.338   1.952   7.077
 5820POPC   C4A72966  14.970   1.903   7.337
 5820POPC   C1B72967  14.885   2.207   6.172
 5820POPC   C2B72968  14.910   2.054   6.588
 5820POPC   C3B72969  14.874   2.238   6.975
 5820POPC   C4B72970  15.178   2.424   7.216
 5821POPC   NC372971  41.222  31.244   5.508
 5821POPC   PO472972  41.970  31.299   5.530
 5821POPC   GL172973  41.689  31.198   5.856
 5821POPC   GL272974  41.500  31.480   5.898
 5821POPC   C1A72975  41.750  31.289   6.313
 5821POPC   D2A72976  41.851  31.576   6.657
 5821POPC   C3A72977  41.828  31.366   7.070
 5821POPC   C4A72978  41.433  31.141   7.231
 5821POPC   C1B72979  41.228  31.304   6.230
 5821POPC   C2B72980  41.236  31.262   6.699
 5821POPC   C3B72981  41.379  31.597   6.980
 5821POPC   C4B72982  41.357  31.910   7.308
 5822POPC   NC372983  29.385  31.444   5.489
 5822POPC   PO472984  28.798  31.276   5.277
 5822POPC   GL172985  28.952  31.545   5.759
 5822POPC   GL272986  29.215  31.425   5.968
 5822POPC   C1A72987  29.001  31.802   6.177
 5822POPC   D2A72988  29.117  31.636   6.580
 5822POPC   C3A72989  29.103  31.855   6.965
 5822POPC   C4A72990  29.036  31.726   7.383
 5822POPC   C1B72991  29.484  31.388   6.309
 5822POPC   C2B72992  29.582  31.468   6.737
 5822POPC   C3B72993  29.358  31.390   7.126
 5822POPC   C4B72994  29.597  31.120   7.418
 5823POPC   NC372995  31.633  33.752   5.442
 5823POPC   PO472996  31.058  33.647   5.653
 5823POPC   GL172997  31.369  33.934   5.868
 5823POPC   GL272998  31.726  33.816   5.930
 5823POPC   C1A72999  31.502  34.161   6.242
 5823POPC   D2A73000  31.739  33.945   6.584
 5823POPC   C3A73001  31.674  34.124   6.998
 5823POPC   C4A73002  31.701  33.941   7.412
 5823POPC   C1B73003  31.598  33.487   6.183
 5823POPC   C2B73004  31.504  33.455   6.600
 5823POPC   C3B73005  31.527  33.619   7.015
 5823POPC   C4B73006  31.247  33.730   7.309
 5824POPC   NC373007  40.449  15.366   5.485
 5824POPC   PO473008  40.754  14.799   5.244
 5824POPC   GL173009  40.836  14.922   5.693
 5824POPC   GL273010  40.938  15.279   5.687
 5824POPC   C1A73011  40.658  15.070   6.114
 5824POPC   D2A73012  40.725  15.272   6.530
 5824POPC   C3A73013  40.818  15.071   6.921
 5824POPC   C4A73014  40.693  15.332   7.264
 5824POPC   C1B73015  40.986  15.481   6.103
 5824POPC   C2B73016  41.141  15.575   6.534
 5824POPC   C3B73017  41.130  15.476   6.966
 5824POPC   C4B73018  41.132  15.539   7.399
 5825POPC   NC373019  12.147  34.191   5.005
 5825POPC   PO473020  12.255  34.602   5.524
 5825POPC   GL173021  12.036  34.807   5.893
 5825POPC   GL273022  11.759  34.571   5.982
 5825POPC   C1A73023  11.974  34.846   6.381
 5825POPC   D2A73024  11.942  34.635   6.802
 5825POPC   C3A73025  11.730  34.843   7.159
 5825POPC   C4A73026  11.682  34.874   7.633
 5825POPC   C1B73027  11.975  34.305   6.288
 5825POPC   C2B73028  11.885  34.118   6.699
 5825POPC   C3B73029  11.909  34.200   7.162
 5825POPC   C4B73030  11.756  34.002   7.585
 5826POPC   NC373031  42.657  30.275   5.404
 5826POPC   PO473032  42.639  29.573   5.440
 5826POPC   GL173033  42.431  29.718   5.802
 5826POPC   GL273034  42.316  30.082   5.778
 5826POPC   C1A73035  42.416  29.844   6.226
 5826POPC   D2A73036  42.406  29.696   6.611
 5826POPC   C3A73037  42.213  29.894   6.911
 5826POPC   C4A73038  42.228  29.716   7.300
 5826POPC   C1B73039  42.129  30.287   6.164
 5826POPC   C2B73040  41.901  30.187   6.563
 5826POPC   C3B73041  41.958  30.342   6.979
 5826POPC   C4B73042  42.255  30.231   7.310
 5827POPC   NC373043  27.439  42.828   5.548
 5827POPC   PO473044  27.836  43.395   5.429
 5827POPC   GL173045  27.744  43.204   5.778
 5827POPC   GL273046  27.976  42.960   5.834
 5827POPC   C1A73047  27.556  43.318   6.154
 5827POPC   D2A73048  27.381  43.234   6.542
 5827POPC   C3A73049  27.549  43.496   6.849
 5827POPC   C4A73050  27.595  43.344   7.266
 5827POPC   C1B73051  27.719  42.840   6.171
 5827POPC   C2B73052  27.720  42.757   6.579
 5827POPC   C3B73053  27.653  42.958   6.945
 5827POPC   C4B73054  27.650  42.823   7.369
 5828POPC   NC373055   6.239   9.851   5.245
 5828POPC   PO473056   5.564   9.887   5.275
 5828POPC   GL173057   5.853   9.798   5.622
 5828POPC   GL273058   6.057  10.065   5.706
 5828POPC   C1A73059   5.814   9.728   6.077
 5828POPC   D2A73060   5.683   9.721   6.507
 5828POPC   C3A73061   5.845   9.639   6.901
 5828POPC   C4A73062   5.695   9.369   7.207
 5828POPC   C1B73063   6.207  10.050   6.135
 5828POPC   C2B73064   6.106  10.014   6.574
 5828POPC   C3B73065   6.238   9.947   7.003
 5828POPC   C4B73066   6.157  10.132   7.385
 5829POPC   NC373067  35.619  28.738   5.566
 5829POPC   PO473068  36.108  28.245   5.411
 5829POPC   GL173069  36.259  28.411   5.804
 5829POPC   GL273070  35.962  28.541   5.895
 5829POPC   C1A73071  36.365  28.554   6.234
 5829POPC   D2A73072  36.096  28.562   6.584
 5829POPC   C3A73073  36.284  28.392   6.914
 5829POPC   C4A73074  36.226  28.398   7.295
 5829POPC   C1B73075  35.708  28.449   6.239
 5829POPC   C2B73076  35.579  28.421   6.662
 5829POPC   C3B73077  35.780  28.391   7.032
 5829POPC   C4B73078  35.778  28.649   7.375
 5830POPC   NC373079  14.611  33.539   5.617
 5830POPC   PO473080  14.201  34.051   5.617
 5830POPC   GL173081  14.458  33.903   5.917
 5830POPC   GL273082  14.821  33.982   5.817
 5830POPC   C1A73083  14.342  33.659   6.261
 5830POPC   D2A73084  14.151  33.828   6.625
 5830POPC   C3A73085  14.360  33.648   6.971
 5830POPC   C4A73086  14.350  33.579   7.409
 5830POPC   C1B73087  14.868  33.767   6.224
 5830POPC   C2B73088  14.750  33.921   6.631
 5830POPC   C3B73089  14.473  34.168   6.892
 5830POPC   C4B73090  14.462  34.085   7.314
 5831POPC   NC373091  24.906  33.129   5.393
 5831POPC   PO473092  24.229  32.810   5.322
 5831POPC   GL173093  24.473  32.896   5.757
 5831POPC   GL273094  24.760  33.132   5.887
 5831POPC   C1A73095  24.420  32.976   6.226
 5831POPC   D2A73096  24.275  33.135   6.645
 5831POPC   C3A73097  24.408  32.851   6.972
 5831POPC   C4A73098  24.610  32.947   7.361
 5831POPC   C1B73099  24.992  33.129   6.298
 5831POPC   C2B73100  24.905  33.235   6.739
 5831POPC   C3B73101  24.637  33.389   7.088
 5831POPC   C4B73102  24.537  33.440   7.523
 5832POPC   NC373103   2.349  31.686   5.244
 5832POPC   PO473104   2.997  31.391   5.367
 5832POPC   GL173105   2.779  31.367   5.760
 5832POPC   GL273106   2.436  31.411   5.704
 5832POPC   C1A73107   2.763  31.250   6.181
 5832POPC   D2A73108   2.821  31.153   6.576
 5832POPC   C3A73109   2.830  31.431   6.902
 5832POPC   C4A73110   3.030  31.466   7.295
 5832POPC   C1B73111   2.341  31.561   6.104
 5832POPC   C2B73112   2.444  31.522   6.539
 5832POPC   C3B73113   2.301  31.587   6.958
 5832POPC   C4B73114   2.503  31.500   7.322
 5833POPC   NC373115  10.994  16.788   5.330
 5833POPC   PO473116  10.441  16.358   5.336
 5833POPC   GL173117  10.603  16.561   5.731
 5833POPC   GL273118  10.958  16.459   5.723
 5833POPC   C1A73119  10.465  16.852   6.128
 5833POPC   D2A73120  10.530  17.070   6.575
 5833POPC   C3A73121  10.568  16.882   7.020
 5833POPC   C4A73122  10.468  16.509   7.345
 5833POPC   C1B73123  10.827  16.358   6.145
 5833POPC   C2B73124  10.668  16.546   6.503
 5833POPC   C3B73125  10.793  16.447   6.891
 5833POPC   C4B73126  10.951  16.582   7.279
 5834POPC   NC373127  32.611  25.485   5.307
 5834POPC   PO473128  33.090  25.114   5.610
 5834POPC   GL173129  33.036  25.440   5.906
 5834POPC   GL273130  32.705  25.631   5.861
 5834POPC   C1A73131  32.923  25.404   6.314
 5834POPC   D2A73132  32.766  25.048   6.509
 5834POPC   C3A73133  33.088  24.915   6.754
 5834POPC   C4A73134  33.134  24.981   7.163
 5834POPC   C1B73135  32.799  25.911   6.212
 5834POPC   C2B73136  32.953  25.793   6.631
 5834POPC   C3B73137  33.058  25.439   6.886
 5834POPC   C4B73138  33.121  25.446   7.334
 5835POPC   NC373139  13.689  21.347   5.380
 5835POPC   PO473140  13.212  21.541   5.602
 5835POPC   GL173141  13.541  21.346   5.879
 5835POPC   GL273142  13.858  21.529   5.838
 5835POPC   C1A73143  13.656  21.351   6.330
 5835POPC   D2A73144  13.393  21.158   6.651
 5835POPC   C3A73145  13.507  21.226   7.088
 5835POPC   C4A73146  13.202  21.315   7.399
 5835POPC   C1B73147  14.070  21.187   6.057
 5835POPC   C2B73148  14.147  21.118   6.498
 5835POPC   C3B73149  14.103  21.273   6.936
 5835POPC   C4B73150  13.961  21.210   7.357
 5836POPC   NC373151  39.917  14.947   5.306
 5836POPC   PO473152  40.112  15.566   5.238
 5836POPC   GL173153  39.979  15.335   5.668
 5836POPC   GL273154  39.860  14.988   5.805
 5836POPC   C1A73155  39.982  15.385   6.122
 5836POPC   D2A73156  39.769  15.148   6.390
 5836POPC   C3A73157  39.813  15.149   6.839
 5836POPC   C4A73158  39.624  15.081   7.246
 5836POPC   C1B73159  40.153  14.868   6.160
 5836POPC   C2B73160  40.283  15.010   6.548
 5836POPC   C3B73161  40.315  15.141   6.962
 5836POPC   C4B73162  40.121  14.943   7.279
 5837POPC   NC373163   4.486  18.643   5.540
 5837POPC   PO473164   4.271  18.078   5.217
 5837POPC   GL173165   4.228  18.197   5.638
 5837POPC   GL273166   4.585  18.183   5.727
 5837POPC   C1A73167   4.221  18.289   6.076
 5837POPC   D2A73168   4.278  18.103   6.471
 5837POPC   C3A73169   4.004  18.211   6.798
 5837POPC   C4A73170   4.100  18.259   7.222
 5837POPC   C1B73171   4.685  18.067   6.144
 5837POPC   C2B73172   4.785  17.995   6.557
 5837POPC   C3B73173   4.516  18.049   6.911
 5837POPC   C4B73174   4.645  18.150   7.266
 5838POPC   NC373175  12.256  43.868   5.249
 5838POPC   PO473176  11.824  44.269   5.176
 5838POPC   GL173177  12.136  44.106   5.692
 5838POPC   GL273178  12.094  43.772   5.891
 5838POPC   C1A73179  11.923  44.112   6.208
 5838POPC   D2A73180  12.039  44.149   6.632
 5838POPC   C3A73181  11.834  44.016   7.016
 5838POPC   C4A73182  11.924  43.624   7.210
 5838POPC   C1B73183  12.382  43.923   6.261
 5838POPC   C2B73184  12.539  43.928   6.710
 5838POPC   C3B73185  12.339  44.108   7.057
 5838POPC   C4B73186  12.203  43.974   7.467
 5839POPC   NC373187   5.559  30.718   5.571
 5839POPC   PO473188   6.107  30.961   5.338
 5839POPC   GL173189   5.983  30.900   5.789
 5839POPC   GL273190   5.985  30.532   5.867
 5839POPC   C1A73191   5.741  30.817   6.203
 5839POPC   D2A73192   5.894  30.616   6.555
 5839POPC   C3A73193   5.723  30.755   6.933
 5839POPC   C4A73194   5.737  31.016   7.288
 5839POPC   C1B73195   6.213  30.273   6.172
 5839POPC   C2B73196   6.088  30.139   6.568
 5839POPC   C3B73197   5.888  30.252   6.933
 5839POPC   C4B73198   6.126  30.155   7.272
 5840POPC   NC373199   2.595  27.088   5.320
 5840POPC   PO473200   3.092  27.597   5.207
 5840POPC   GL173201   2.984  27.560   5.711
 5840POPC   GL273202   2.599  27.569   5.691
 5840POPC   C1A73203   2.860  27.537   6.140
 5840POPC   D2A73204   3.010  27.446   6.539
 5840POPC   C3A73205   2.779  27.573   6.878
 5840POPC   C4A73206   2.947  27.490   7.272
 5840POPC   C1B73207   2.564  27.938   6.021
 5840POPC   C2B73208   2.674  27.929   6.469
 5840POPC   C3B73209   2.513  28.030   6.857
 5840POPC   C4B73210   2.599  27.874   7.274
 5841POPC   NC373211   5.856  39.292   5.374
 5841POPC   PO473212   6.390  38.835   5.477
 5841POPC   GL173213   6.079  38.866   5.845
 5841POPC   GL273214   5.727  38.997   5.788
 5841POPC   C1A73215   6.037  39.078   6.264
 5841POPC   D2A73216   5.874  39.449   6.519
 5841POPC   C3A73217   5.917  39.362   6.967
 5841POPC   C4A73218   6.096  38.956   7.039
 5841POPC   C1B73219   5.545  39.143   6.196
 5841POPC   C2B73220   5.580  38.968   6.633
 5841POPC   C3B73221   5.555  39.009   7.065
 5841POPC   C4B73222   5.363  39.357   7.228
 5842POPC   NC373223  28.427  12.327   5.463
 5842POPC   PO473224  28.354  11.723   5.507
 5842POPC   GL173225  28.284  11.750   5.924
 5842POPC   GL273226  28.249  12.088   5.906
 5842POPC   C1A73227  28.228  11.816   6.355
 5842POPC   D2A73228  28.442  12.132   6.587
 5842POPC   C3A73229  28.382  12.051   6.986
 5842POPC   C4A73230  28.338  11.669   7.200
 5842POPC   C1B73231  28.038  12.278   6.270
 5842POPC   C2B73232  27.928  12.164   6.706
 5842POPC   C3B73233  27.889  12.420   7.056
 5842POPC   C4B73234  28.191  12.357   7.341
 5843POPC   NC373235  12.559  35.715   5.333
 5843POPC   PO473236  12.109  35.249   5.332
 5843POPC   GL173237  12.214  35.334   5.755
 5843POPC   GL273238  11.900  35.534   5.802
 5843POPC   C1A73239  12.356  35.125   6.145
 5843POPC   D2A73240  12.247  35.302   6.542
 5843POPC   C3A73241  12.256  35.027   6.870
 5843POPC   C4A73242  12.192  35.162   7.281
 5843POPC   C1B73243  11.876  35.308   6.153
 5843POPC   C2B73244  11.744  35.459   6.533
 5843POPC   C3B73245  11.821  35.303   6.927
 5843POPC   C4B73246  11.716  35.333   7.357
 5844POPC   NC373247   4.716  40.828   5.412
 5844POPC   PO473248   5.268  41.133   5.320
 5844POPC   GL173249   5.076  40.983   5.730
 5844POPC   GL273250   5.162  40.642   5.686
 5844POPC   C1A73251   5.173  40.933   6.168
 5844POPC   D2A73252   5.102  41.043   6.591
 5844POPC   C3A73253   4.990  40.778   6.952
 5844POPC   C4A73254   5.054  41.049   7.304
 5844POPC   C1B73255   5.297  40.450   6.098
 5844POPC   C2B73256   5.288  40.560   6.565
 5844POPC   C3B73257   5.398  40.411   7.025
 5844POPC   C4B73258   5.289  40.619   7.448
 5845POPC   NC373259  15.885  26.384   5.360
 5845POPC   PO473260  16.326  26.904   5.369
 5845POPC   GL173261  16.157  26.725   5.760
 5845POPC   GL273262  15.769  26.619   5.795
 5845POPC   C1A73263  16.302  26.925   6.150
 5845POPC   D2A73264  16.214  26.771   6.539
 5845POPC   C3A73265  16.224  26.935   6.934
 5845POPC   C4A73266  16.106  26.672   7.273
 5845POPC   C1B73267  15.791  26.847   6.189
 5845POPC   C2B73268  15.712  26.736   6.600
 5845POPC   C3B73269  15.723  26.913   7.013
 5845POPC   C4B73270  15.617  26.720   7.397
 5846POPC   NC373271  10.452  17.616   5.387
 5846POPC   PO473272  10.858  17.230   5.351
 5846POPC   GL173273  10.625  17.268   5.762
 5846POPC   GL273274  10.711  17.599   5.811
 5846POPC   C1A73275  10.424  17.412   6.197
 5846POPC   D2A73276  10.169  17.644   6.540
 5846POPC   C3A73277  10.360  17.647   6.942
 5846POPC   C4A73278  10.483  17.449   7.322
 5846POPC   C1B73279  10.949  17.456   6.143
 5846POPC   C2B73280  10.838  17.586   6.543
 5846POPC   C3B73281  10.836  17.422   6.944
 5846POPC   C4B73282  10.958  17.616   7.320
 5847POPC   NC373283  36.288  22.438   5.482
 5847POPC   PO473284  35.751  22.049   5.250
 5847POPC   GL173285  36.018  21.941   5.659
 5847POPC   GL273286  36.349  22.062   5.849
 5847POPC   C1A73287  35.927  22.023   6.119
 5847POPC   D2A73288  35.801  21.975   6.558
 5847POPC   C3A73289  36.128  21.980   6.840
 5847POPC   C4A73290  36.163  22.224   7.219
 5847POPC   C1B73291  36.258  22.421   6.148
 5847POPC   C2B73292  36.129  22.432   6.577
 5847POPC   C3B73293  35.984  22.621   6.938
 5847POPC   C4B73294  36.085  22.720   7.337
 5848POPC   NC373295   9.256  16.584   5.443
 5848POPC   PO473296   9.021  17.241   5.355
 5848POPC   GL173297   8.852  16.910   5.629
 5848POPC   GL273298   9.167  16.936   5.806
 5848POPC   C1A73299   8.747  16.819   6.089
 5848POPC   D2A73300   8.923  16.723   6.504
 5848POPC   C3A73301   8.719  16.741   6.895
 5848POPC   C4A73302   8.825  16.666   7.316
 5848POPC   C1B73303   9.309  16.714   6.157
 5848POPC   C2B73304   9.437  16.764   6.580
 5848POPC   C3B73305   9.248  16.720   6.977
 5848POPC   C4B73306   9.301  16.502   7.361
 5849POPC   NC373307  38.080  29.618   5.242
 5849POPC   PO473308  38.316  30.198   5.491
 5849POPC   GL173309  38.448  30.102   5.921
 5849POPC   GL273310  38.632  29.764   5.905
 5849POPC   C1A73311  38.328  29.928   6.340
 5849POPC   D2A73312  38.039  29.750   6.677
 5849POPC   C3A73313  38.299  29.721   7.021
 5849POPC   C4A73314  38.706  29.569   7.055
 5849POPC   C1B73315  38.856  30.009   6.219
 5849POPC   C2B73316  38.710  30.124   6.626
 5849POPC   C3B73317  38.672  30.165   7.060
 5849POPC   C4B73318  38.750  29.929   7.417
 5850POPC   NC373319  40.295   4.180   5.423
 5850POPC   PO473320  39.669   3.940   5.669
 5850POPC   GL173321  40.045   4.068   5.896
 5850POPC   GL273322  40.126   4.428   5.834
 5850POPC   C1A73323  40.080   4.152   6.356
 5850POPC   D2A73324  40.293   4.130   6.780
 5850POPC   C3A73325  39.938   4.106   7.075
 5850POPC   C4A73326  39.650   4.460   7.239
 5850POPC   C1B73327  40.230   4.620   6.216
 5850POPC   C2B73328  40.070   4.579   6.627
 5850POPC   C3B73329  40.120   4.567   7.027
 5850POPC   C4B73330  40.252   4.894   7.113
 5851POPC   NC373331   7.143  12.411   5.363
 5851POPC   PO473332   7.420  11.825   5.559
 5851POPC   GL173333   7.313  12.124   5.864
 5851POPC   GL273334   7.603  12.371   5.827
 5851POPC   C1A73335   7.267  11.990   6.301
 5851POPC   D2A73336   7.534  12.034   6.647
 5851POPC   C3A73337   7.287  11.877   6.947
 5851POPC   C4A73338   7.287  11.949   7.400
 5851POPC   C1B73339   7.565  12.390   6.288
 5851POPC   C2B73340   7.177  12.384   6.631
 5851POPC   C3B73341   7.258  12.354   7.090
 5851POPC   C4B73342   7.326  12.490   7.546
 5852POPC   NC373343  22.555   6.110   5.570
 5852POPC   PO473344  22.109   5.735   5.183
 5852POPC   GL173345  22.171   5.686   5.630
 5852POPC   GL273346  22.045   5.994   5.766
 5852POPC   C1A73347  22.112   5.556   6.068
 5852POPC   D2A73348  22.086   5.791   6.463
 5852POPC   C3A73349  22.168   5.584   6.855
 5852POPC   C4A73350  22.215   5.750   7.261
 5852POPC   C1B73351  22.201   6.237   6.134
 5852POPC   C2B73352  22.146   6.355   6.563
 5852POPC   C3B73353  21.989   6.103   6.888
 5852POPC   C4B73354  22.156   6.234   7.234
 5853POPC   NC373355  19.079  22.592   5.343
 5853POPC   PO473356  19.012  23.259   5.192
 5853POPC   GL173357  19.014  23.065   5.650
 5853POPC   GL273358  19.333  22.895   5.735
 5853POPC   C1A73359  18.909  23.123   6.132
 5853POPC   D2A73360  18.737  23.257   6.548
 5853POPC   C3A73361  18.908  23.060   6.897
 5853POPC   C4A73362  18.965  23.214   7.293
 5853POPC   C1B73363  19.109  22.670   6.059
 5853POPC   C2B73364  19.096  22.562   6.514
 5853POPC   C3B73365  18.923  22.504   6.935
 5853POPC   C4B73366  19.091  22.738   7.271
 5854POPC   NC373367  30.750  12.720   5.506
 5854POPC   PO473368  30.312  13.234   5.684
 5854POPC   GL173369  30.641  13.015   5.880
 5854POPC   GL273370  31.038  13.056   5.777
 5854POPC   C1A73371  30.529  12.869   6.265
 5854POPC   D2A73372  30.443  13.048   6.694
 5854POPC   C3A73373  30.547  12.785   7.047
 5854POPC   C4A73374  30.626  12.981   7.423
 5854POPC   C1B73375  31.038  12.796   6.154
 5854POPC   C2B73376  30.920  12.945   6.555
 5854POPC   C3B73377  30.962  13.055   6.964
 5854POPC   C4B73378  31.169  12.946   7.347
 5855POPC   NC373379  10.917   2.584   5.284
 5855POPC   PO473380  11.548   2.586   5.056
 5855POPC   GL173381  11.378   2.651   5.562
 5855POPC   GL273382  11.075   2.826   5.725
 5855POPC   C1A73383  11.383   2.552   6.061
 5855POPC   D2A73384  11.353   2.745   6.505
 5855POPC   C3A73385  11.389   2.481   6.856
 5855POPC   C4A73386  11.505   2.707   7.228
 5855POPC   C1B73387  10.932   2.811   6.151
 5855POPC   C2B73388  10.933   2.502   6.485
 5855POPC   C3B73389  10.929   2.703   6.885
 5855POPC   C4B73390  11.000   2.634   7.310
 5856POPC   NC373391   3.475  16.285   5.289
 5856POPC   PO473392   3.772  15.733   5.377
 5856POPC   GL173393   3.384  15.908   5.640
 5856POPC   GL273394   3.561  15.741   5.857
 5856POPC   C1A73395   3.255  16.015   6.122
 5856POPC   D2A73396   3.491  16.065   6.537
 5856POPC   C3A73397   3.346  15.978   6.968
 5856POPC   C4A73398   3.191  16.228   7.297
 5856POPC   C1B73399   3.798  15.837   6.205
 5856POPC   C2B73400   4.050  15.975   6.555
 5856POPC   C3B73401   3.860  15.912   6.941
 5856POPC   C4B73402   3.732  15.790   7.318
 5857POPC   NC373403  16.511  40.718   5.124
 5857POPC   PO473404  16.828  41.323   5.217
 5857POPC   GL173405  16.751  40.939   5.605
 5857POPC   GL273406  16.401  40.832   5.639
 5857POPC   C1A73407  16.690  40.649   6.073
 5857POPC   D2A73408  16.618  40.433   6.552
 5857POPC   C3A73409  16.731  40.499   7.054
 5857POPC   C4A73410  16.936  40.800   7.363
 5857POPC   C1B73411  16.221  40.845   6.048
 5857POPC   C2B73412  16.214  40.766   6.456
 5857POPC   C3B73413  16.319  40.732   6.850
 5857POPC   C4B73414  16.244  40.661   7.232
 5858POPC   NC373415  44.156  16.138   5.352
 5858POPC   PO473416  43.530  15.781   5.356
 5858POPC   GL173417  43.763  15.967   5.690
 5858POPC   GL273418  44.077  15.767   5.692
 5858POPC   C1A73419  43.903  16.027   6.132
 5858POPC   D2A73420  43.727  16.016   6.541
 5858POPC   C3A73421  43.898  16.021   6.936
 5858POPC   C4A73422  43.811  16.074   7.366
 5858POPC   C1B73423  44.239  15.627   6.104
 5858POPC   C2B73424  44.153  15.713   6.533
 5858POPC   C3B73425  44.290  15.675   6.952
 5858POPC   C4B73426  44.078  15.639   7.334
 5859POPC   NC373427  18.297   9.560   5.276
 5859POPC   PO473428  18.156  10.192   5.352
 5859POPC   GL173429  18.087   9.862   5.689
 5859POPC   GL273430  18.412   9.773   5.795
 5859POPC   C1A73431  18.060   9.750   6.156
 5859POPC   D2A73432  17.931   9.865   6.573
 5859POPC   C3A73433  18.137   9.817   6.991
 5859POPC   C4A73434  18.170   9.901   7.436
 5859POPC   C1B73435  18.523   9.941   6.205
 5859POPC   C2B73436  18.432   9.672   6.578
 5859POPC   C3B73437  18.469   9.438   6.978
 5859POPC   C4B73438  18.591   9.694   7.310
 5860POPC   NC373439  39.185  44.036   5.573
 5860POPC   PO473440  39.475  43.509   5.203
 5860POPC   GL173441  39.064  43.510   5.619
 5860POPC   GL273442  38.753  43.388   5.831
 5860POPC   C1A73443  38.982  43.763   6.100
 5860POPC   D2A73444  39.249  43.960   6.460
 5860POPC   C3A73445  39.137  44.072   6.890
 5860POPC   C4A73446  39.394  44.100   7.287
 5860POPC   C1B73447  39.001  43.290   6.238
 5860POPC   C2B73448  39.226  43.435   6.624
 5860POPC   C3B73449  39.305  43.617   7.049
 5860POPC   C4B73450  38.955  43.583   7.309
 5861POPC   NC373451  13.057  38.407   5.405
 5861POPC   PO473452  12.396  38.618   5.476
 5861POPC   GL173453  12.729  38.402   5.810
 5861POPC   GL273454  13.054  38.590   5.878
 5861POPC   C1A73455  12.911  38.142   6.206
 5861POPC   D2A73456  12.817  38.276   6.691
 5861POPC   C3A73457  12.866  38.273   7.167
 5861POPC   C4A73458  13.208  38.037   7.397
 5861POPC   C1B73459  12.879  38.647   6.278
 5861POPC   C2B73460  12.520  38.655   6.531
 5861POPC   C3B73461  12.614  38.704   6.946
 5861POPC   C4B73462  13.065  38.763   7.032
 5862POPC   NC373463  32.893  20.126   5.239
 5862POPC   PO473464  33.448  19.905   5.343
 5862POPC   GL173465  33.165  19.778   5.716
 5862POPC   GL273466  32.863  19.998   5.778
 5862POPC   C1A73467  33.142  19.656   6.178
 5862POPC   D2A73468  33.234  19.909   6.599
 5862POPC   C3A73469  33.093  19.835   7.048
 5862POPC   C4A73470  33.200  19.763   7.525
 5862POPC   C1B73471  32.859  20.056   6.249
 5862POPC   C2B73472  32.710  19.912   6.662
 5862POPC   C3B73473  32.572  19.933   7.087
 5862POPC   C4B73474  32.836  20.097   7.404
 5863POPC   NC373475  40.541  31.890   5.339
 5863POPC   PO473476  41.231  31.754   5.575
 5863POPC   GL173477  40.926  31.539   5.830
 5863POPC   GL273478  40.589  31.558   5.718
 5863POPC   C1A73479  40.708  31.281   6.165
 5863POPC   D2A73480  40.609  31.059   6.556
 5863POPC   C3A73481  40.682  31.302   6.949
 5863POPC   C4A73482  40.963  31.495   7.256
 5863POPC   C1B73483  40.475  31.746   6.112
 5863POPC   C2B73484  40.433  31.581   6.536
 5863POPC   C3B73485  40.491  31.786   6.928
 5863POPC   C4B73486  40.524  31.770   7.340
 5864POPC   NC373487  36.425   1.647   5.620
 5864POPC   PO473488  36.077   2.154   5.352
 5864POPC   GL173489  36.071   1.970   5.797
 5864POPC   GL273490  35.821   1.688   5.823
 5864POPC   C1A73491  36.201   2.131   6.212
 5864POPC   D2A73492  36.499   2.204   6.547
 5864POPC   C3A73493  36.328   2.184   6.939
 5864POPC   C4A73494  36.516   1.980   7.258
 5864POPC   C1B73495  36.030   1.665   6.246
 5864POPC   C2B73496  36.000   1.881   6.640
 5864POPC   C3B73497  36.094   1.733   7.065
 5864POPC   C4B73498  36.100   1.815   7.539
 5865POPC   NC373499  28.007   6.649   5.558
 5865POPC   PO473500  27.388   6.431   5.277
 5865POPC   GL173501  27.509   6.694   5.648
 5865POPC   GL273502  27.586   6.358   5.785
 5865POPC   C1A73503  27.573   6.932   6.071
 5865POPC   D2A73504  27.382   6.986   6.515
 5865POPC   C3A73505  27.648   6.952   6.920
 5865POPC   C4A73506  27.917   6.870   7.311
 5865POPC   C1B73507  27.576   6.448   6.229
 5865POPC   C2B73508  27.600   6.490   6.657
 5865POPC   C3B73509  27.640   6.449   7.083
 5865POPC   C4B73510  27.865   6.372   7.400
 5866POPC   NC373511  31.815  37.009   5.435
 5866POPC   PO473512  31.150  36.893   5.405
 5866POPC   GL173513  31.408  37.093   5.758
 5866POPC   GL273514  31.408  36.788   5.883
 5866POPC   C1A73515  31.626  37.046   6.222
 5866POPC   D2A73516  31.450  36.906   6.641
 5866POPC   C3A73517  31.564  37.119   7.046
 5866POPC   C4A73518  31.574  37.142   7.499
 5866POPC   C1B73519  31.431  36.553   6.249
 5866POPC   C2B73520  31.537  36.346   6.605
 5866POPC   C3B73521  31.341  36.480   6.947
 5866POPC   C4B73522  31.434  36.683   7.309
 5867POPC   NC373523   2.175  19.301   5.353
 5867POPC   PO473524   1.713  18.796   5.523
 5867POPC   GL173525   1.997  18.949   5.835
 5867POPC   GL273526   2.046  19.314   5.859
 5867POPC   C1A73527   1.901  18.855   6.260
 5867POPC   D2A73528   1.832  18.671   6.656
 5867POPC   C3A73529   2.024  18.901   7.014
 5867POPC   C4A73530   1.954  18.859   7.459
 5867POPC   C1B73531   2.017  19.352   6.304
 5867POPC   C2B73532   2.027  19.374   6.760
 5867POPC   C3B73533   2.100  19.524   7.176
 5867POPC   C4B73534   2.112  19.311   7.576
 5868POPC   NC373535   8.352  10.221   5.096
 5868POPC   PO473536   8.996  10.452   5.261
 5868POPC   GL173537   9.010  10.393   5.705
 5868POPC   GL273538   9.310  10.571   5.744
 5868POPC   C1A73539   8.928  10.572   6.126
 5868POPC   D2A73540   8.853  10.786   6.535
 5868POPC   C3A73541   8.797  10.561   6.889
 5868POPC   C4A73542   8.842  10.386   7.281
 5868POPC   C1B73543   9.428  10.456   6.144
 5868POPC   C2B73544   9.257  10.484   6.535
 5868POPC   C3B73545   9.300  10.501   6.936
 5868POPC   C4B73546   9.327  10.232   7.254
 5869POPC   NC373547  23.285  22.704   5.409
 5869POPC   PO473548  23.905  23.000   5.429
 5869POPC   GL173549  23.603  22.908   5.770
 5869POPC   GL273550  23.547  22.539   5.846
 5869POPC   C1A73551  23.427  23.155   6.135
 5869POPC   D2A73552  23.441  23.075   6.570
 5869POPC   C3A73553  23.759  23.094   6.882
 5869POPC   C4A73554  23.670  22.993   7.326
 5869POPC   C1B73555  23.710  22.711   6.241
 5869POPC   C2B73556  23.911  22.667   6.626
 5869POPC   C3B73557  23.738  22.586   7.013
 5869POPC   C4B73558  24.002  22.610   7.347
 5870POPC   NC373559  19.745  11.602   5.375
 5870POPC   PO473560  19.792  10.926   5.399
 5870POPC   GL173561  19.754  11.222   5.784
 5870POPC   GL273562  19.632  11.587   5.873
 5870POPC   C1A73563  19.743  11.291   6.253
 5870POPC   D2A73564  20.042  11.348   6.561
 5870POPC   C3A73565  19.850  11.357   6.931
 5870POPC   C4A73566  20.041  11.364   7.295
 5870POPC   C1B73567  19.482  11.745   6.303
 5870POPC   C2B73568  19.392  11.580   6.745
 5870POPC   C3B73569  19.540  11.659   7.197
 5870POPC   C4B73570  19.565  11.652   7.709
 5871POPC   NC373571   0.080  11.266   5.426
 5871POPC   PO473572   0.520  11.662   5.520
 5871POPC   GL173573   0.536  11.297   5.778
 5871POPC   GL273574   0.199  11.297   5.925
 5871POPC   C1A73575   0.627  11.236   6.218
 5871POPC   D2A73576   0.438  11.047   6.578
 5871POPC   C3A73577   0.584  11.123   6.990
 5871POPC   C4A73578   0.765  11.021   7.393
 5871POPC   C1B73579  44.891  11.252   6.253
 5871POPC   C2B73580  44.904  11.285   6.690
 5871POPC   C3B73581   0.163  11.453   7.011
 5871POPC   C4B73582   0.291  11.230   7.382
 5872POPC   NC373583   5.340  41.598   5.284
 5872POPC   PO473584   4.735  41.293   5.486
 5872POPC   GL173585   5.028  41.497   5.789
 5872POPC   GL273586   5.388  41.441   5.840
 5872POPC   C1A73587   5.022  41.502   6.259
 5872POPC   D2A73588   4.788  41.510   6.657
 5872POPC   C3A73589   4.976  41.657   7.024
 5872POPC   C4A73590   4.937  41.891   7.377
 5872POPC   C1B73591   5.491  41.319   6.292
 5872POPC   C2B73592   5.347  41.467   6.710
 5872POPC   C3B73593   5.413  41.412   7.164
 5872POPC   C4B73594   5.287  41.385   7.615
 5873POPC   NC373595   8.445   3.580   5.598
 5873POPC   PO473596   9.075   3.591   5.478
 5873POPC   GL173597   8.920   3.552   5.840
 5873POPC   GL273598   9.043   3.232   5.961
 5873POPC   C1A73599   8.930   3.750   6.240
 5873POPC   D2A73600   9.177   3.634   6.585
 5873POPC   C3A73601   9.219   3.328   6.888
 5873POPC   C4A73602   9.137   3.513   7.233
 5873POPC   C1B73603   8.637   3.333   6.189
 5873POPC   C2B73604   8.619   3.543   6.601
 5873POPC   C3B73605   8.696   3.408   6.997
 5873POPC   C4B73606   8.670   3.251   7.434
 5874POPC   NC373607  40.647  16.487   5.494
 5874POPC   PO473608  40.752  15.782   5.457
 5874POPC   GL173609  40.781  15.957   5.861
 5874POPC   GL273610  40.509  16.213   5.899
 5874POPC   C1A73611  40.982  16.248   6.163
 5874POPC   D2A73612  40.856  16.339   6.592
 5874POPC   C3A73613  40.833  15.943   6.807
 5874POPC   C4A73614  40.789  15.875   7.224
 5874POPC   C1B73615  40.534  16.031   6.317
 5874POPC   C2B73616  40.341  16.097   6.707
 5874POPC   C3B73617  40.412  16.243   7.126
 5874POPC   C4B73618  40.384  16.054   7.543
 5875POPC   NC373619  20.690  15.013   5.423
 5875POPC   PO473620  20.534  15.488   5.808
 5875POPC   GL173621  20.527  15.086   5.997
 5875POPC   GL273622  20.808  14.885   5.956
 5875POPC   C1A73623  20.499  15.034   6.463
 5875POPC   D2A73624  20.666  15.395   6.717
 5875POPC   C3A73625  20.690  15.415   7.162
 5875POPC   C4A73626  20.555  15.030   7.328
 5875POPC   C1B73627  20.958  15.190   6.316
 5875POPC   C2B73628  21.032  15.034   6.749
 5875POPC   C3B73629  21.068  15.074   7.215
 5875POPC   C4B73630  21.084  15.299   7.611
 5876POPC   NC373631  41.853  35.664   5.215
 5876POPC   PO473632  41.468  35.297   5.390
 5876POPC   GL173633  41.177  35.245   5.791
 5876POPC   GL273634  41.249  35.577   5.966
 5876POPC   C1A73635  41.242  35.161   6.262
 5876POPC   D2A73636  41.565  35.292   6.597
 5876POPC   C3A73637  41.438  35.395   7.037
 5876POPC   C4A73638  41.463  35.317   7.505
 5876POPC   C1B73639  41.297  35.698   6.437
 5876POPC   C2B73640  41.685  35.773   6.746
 5876POPC   C3B73641  41.865  35.726   7.160
 5876POPC   C4B73642  41.508  35.810   7.376
 5877POPC   NC373643  41.915   4.099   5.443
 5877POPC   PO473644  41.510   3.502   5.477
 5877POPC   GL173645  41.690   3.617   5.862
 5877POPC   GL273646  41.778   3.971   5.924
 5877POPC   C1A73647  41.559   3.378   6.212
 5877POPC   D2A73648  41.440   3.074   6.514
 5877POPC   C3A73649  41.463   3.269   6.883
 5877POPC   C4A73650  41.518   3.405   7.263
 5877POPC   C1B73651  41.434   3.918   6.203
 5877POPC   C2B73652  41.506   3.720   6.582
 5877POPC   C3B73653  41.628   3.776   6.954
 5877POPC   C4B73654  41.281   3.859   7.223
 5878POPC   NC373655  19.451  20.375   5.443
 5878POPC   PO473656  20.096  20.684   5.418
 5878POPC   GL173657  19.951  20.625   5.800
 5878POPC   GL273658  19.809  20.299   5.810
 5878POPC   C1A73659  19.939  20.765   6.213
 5878POPC   D2A73660  19.717  20.741   6.594
 5878POPC   C3A73661  19.864  20.597   6.990
 5878POPC   C4A73662  20.140  20.634   7.343
 5878POPC   C1B73663  19.525  20.399   6.169
 5878POPC   C2B73664  19.313  20.431   6.585
 5878POPC   C3B73665  19.412  20.281   7.035
 5878POPC   C4B73666  19.356  20.231   7.508
 5879POPC   NC373667  26.895  40.945   5.139
 5879POPC   PO473668  26.390  41.129   5.594
 5879POPC   GL173669  26.740  40.939   5.910
 5879POPC   GL273670  26.980  40.626   5.847
 5879POPC   C1A73671  26.622  40.589   6.196
 5879POPC   D2A73672  26.781  40.346   6.485
 5879POPC   C3A73673  26.844  40.619   6.783
 5879POPC   C4A73674  26.546  40.782   7.075
 5879POPC   C1B73675  27.122  40.777   6.295
 5879POPC   C2B73676  27.350  40.823   6.740
 5879POPC   C3B73677  27.148  40.756   7.158
 5879POPC   C4B73678  26.844  40.431   7.295
 5880POPC   NC373679   5.577  17.437   5.320
 5880POPC   PO473680   6.245  17.525   5.381
 5880POPC   GL173681   6.072  17.451   5.798
 5880POPC   GL273682   5.823  17.707   5.874
 5880POPC   C1A73683   6.179  17.614   6.231
 5880POPC   D2A73684   6.021  17.829   6.606
 5880POPC   C3A73685   6.113  17.611   6.971
 5880POPC   C4A73686   6.034  17.256   7.218
 5880POPC   C1B73687   5.686  17.550   6.289
 5880POPC   C2B73688   5.539  17.676   6.691
 5880POPC   C3B73689   5.683  17.868   7.048
 5880POPC   C4B73690   5.799  17.669   7.434
 5881POPC   NC373691  20.562  18.544   5.392
 5881POPC   PO473692  21.072  18.116   5.241
 5881POPC   GL173693  20.904  18.237   5.672
 5881POPC   GL273694  20.612  18.019   5.722
 5881POPC   C1A73695  20.941  18.468   6.101
 5881POPC   D2A73696  20.959  18.312   6.539
 5881POPC   C3A73697  20.882  18.542   6.921
 5881POPC   C4A73698  20.968  18.330   7.262
 5881POPC   C1B73699  20.491  18.192   6.132
 5881POPC   C2B73700  20.448  18.006   6.563
 5881POPC   C3B73701  20.581  18.143   6.962
 5881POPC   C4B73702  20.395  18.491   7.169
 5882POPC   NC373703  34.056  35.607   5.549
 5882POPC   PO473704  33.590  35.128   5.330
 5882POPC   GL173705  33.637  35.174   5.757
 5882POPC   GL273706  33.998  35.147   5.763
 5882POPC   C1A73707  33.720  35.341   6.186
 5882POPC   D2A73708  33.517  35.335   6.595
 5882POPC   C3A73709  33.825  35.373   6.928
 5882POPC   C4A73710  33.770  35.250   7.344
 5882POPC   C1B73711  34.080  34.983   6.171
 5882POPC   C2B73712  33.885  34.950   6.592
 5882POPC   C3B73713  33.885  34.859   7.029
 5882POPC   C4B73714  34.217  35.048   7.225
 5883POPC   NC373715  16.892   0.492   5.398
 5883POPC   PO473716  16.311   0.489   5.447
 5883POPC   GL173717  16.595   0.526   5.819
 5883POPC   GL273718  16.779   0.214   5.825
 5883POPC   C1A73719  16.591   0.696   6.238
 5883POPC   D2A73720  16.824   0.592   6.598
 5883POPC   C3A73721  16.629   0.521   6.988
 5883POPC   C4A73722  16.791   0.466   7.397
 5883POPC   C1B73723  16.689   0.193   6.272
 5883POPC   C2B73724  16.786   0.094   6.707
 5883POPC   C3B73725  16.807   0.021   7.152
 5883POPC   C4B73726  16.861   0.013   7.611
 5884POPC   NC373727  41.656  17.837   5.304
 5884POPC   PO473728  41.512  17.152   5.364
 5884POPC   GL173729  41.529  17.432   5.791
 5884POPC   GL273730  41.486  17.807   5.800
 5884POPC   C1A73731  41.382  17.566   6.253
 5884POPC   D2A73732  41.278  17.740   6.684
 5884POPC   C3A73733  41.277  17.439   7.018
 5884POPC   C4A73734  41.291  17.311   7.455
 5884POPC   C1B73735  41.857  17.718   6.077
 5884POPC   C2B73736  42.051  17.762   6.499
 5884POPC   C3B73737  41.799  17.658   6.841
 5884POPC   C4B73738  41.708  17.549   7.264
 5885POPC   NC373739  23.277  29.505   5.383
 5885POPC   PO473740  22.781  29.940   5.416
 5885POPC   GL173741  22.899  29.697   5.785
 5885POPC   GL273742  23.225  29.855   5.791
 5885POPC   C1A73743  22.870  29.791   6.249
 5885POPC   D2A73744  22.968  30.025   6.648
 5885POPC   C3A73745  22.677  30.054   7.004
 5885POPC   C4A73746  22.562  30.170   7.454
 5885POPC   C1B73747  23.313  29.561   6.144
 5885POPC   C2B73748  23.184  29.534   6.596
 5885POPC   C3B73749  23.071  29.679   7.013
 5885POPC   C4B73750  23.270  29.627   7.420
 5886POPC   NC373751  31.903  26.761   5.421
 5886POPC   PO473752  32.551  26.669   5.523
 5886POPC   GL173753  32.299  26.877   5.818
 5886POPC   GL273754  32.122  26.593   5.874
 5886POPC   C1A73755  32.285  26.860   6.296
 5886POPC   D2A73756  32.368  26.611   6.686
 5886POPC   C3A73757  32.283  26.884   7.054
 5886POPC   C4A73758  32.182  26.928   7.512
 5886POPC   C1B73759  31.922  26.480   6.270
 5886POPC   C2B73760  31.958  26.286   6.679
 5886POPC   C3B73761  31.983  26.457   7.099
 5886POPC   C4B73762  31.782  26.614   7.506
 5887POPC   NC373763  14.728  43.968   5.457
 5887POPC   PO473764  14.135  43.634   5.285
 5887POPC   GL173765  14.303  43.813   5.676
 5887POPC   GL273766  14.518  43.564   5.805
 5887POPC   C1A73767  14.427  43.918   6.148
 5887POPC   D2A73768  14.457  43.665   6.546
 5887POPC   C3A73769  14.346  43.840   6.935
 5887POPC   C4A73770  14.595  44.057   7.271
 5887POPC   C1B73771  14.776  43.465   6.168
 5887POPC   C2B73772  14.766  43.249   6.582
 5887POPC   C3B73773  14.632  43.380   6.989
 5887POPC   C4B73774  14.766  43.591   7.346
 5888POPC   NC373775  10.399   4.103   5.484
 5888POPC   PO473776  10.807   4.653   5.394
 5888POPC   GL173777  10.551   4.523   5.757
 5888POPC   GL273778  10.736   4.201   5.852
 5888POPC   C1A73779  10.364   4.417   6.175
 5888POPC   D2A73780  10.440   4.571   6.602
 5888POPC   C3A73781  10.347   4.378   6.980
 5888POPC   C4A73782  10.631   4.400   7.304
 5888POPC   C1B73783  10.531   3.915   6.169
 5888POPC   C2B73784  10.432   3.971   6.640
 5888POPC   C3B73785  10.592   3.918   7.087
 5888POPC   C4B73786  10.837   3.981   7.524
 5889POPC   NC373787  37.210  32.621   5.642
 5889POPC   PO473788  36.836  33.109   5.280
 5889POPC   GL173789  36.835  33.001   5.751
 5889POPC   GL273790  36.717  32.664   5.846
 5889POPC   C1A73791  36.784  33.182   6.199
 5889POPC   D2A73792  36.964  33.389   6.582
 5889POPC   C3A73793  36.843  33.231   6.981
 5889POPC   C4A73794  37.008  33.010   7.335
 5889POPC   C1B73795  36.945  32.692   6.237
 5889POPC   C2B73796  37.040  32.877   6.626
 5889POPC   C3B73797  37.115  32.643   6.987
 5889POPC   C4B73798  36.882  32.451   7.306
 5890POPC   NC373799  44.405   0.108   5.517
 5890POPC   PO473800  44.426  44.441   5.585
 5890POPC   GL173801  44.544  44.760   5.855
 5890POPC   GL273802  44.879  44.857   5.725
 5890POPC   C1A73803  44.573  44.855   6.286
 5890POPC   D2A73804  44.440  44.608   6.618
 5890POPC   C3A73805  44.559  44.775   7.002
 5890POPC   C4A73806  44.456  44.512   7.326
 5890POPC   C1B73807  44.953  44.559   6.066
 5890POPC   C2B73808  44.953  44.553   6.496
 5890POPC   C3B73809   0.004  44.525   6.923
 5890POPC   C4B73810   0.046  44.833   7.212
 5891POPC   NC373811  43.954  25.355   5.441
 5891POPC   PO473812  43.681  24.734   5.416
 5891POPC   GL173813  43.799  24.979   5.773
 5891POPC   GL273814  44.150  24.921   5.841
 5891POPC   C1A73815  43.858  25.202   6.182
 5891POPC   D2A73816  43.720  25.039   6.576
 5891POPC   C3A73817  43.860  25.261   6.920
 5891POPC   C4A73818  44.083  25.610   7.016
 5891POPC   C1B73819  44.345  25.103   6.230
 5891POPC   C2B73820  44.339  25.280   6.660
 5891POPC   C3B73821  44.345  25.187   7.117
 5891POPC   C4B73822  44.321  24.948   7.474
 5892POPC   NC373823  16.947  38.844   5.627
 5892POPC   PO473824  16.651  39.380   5.211
 5892POPC   GL173825  16.785  39.363   5.648
 5892POPC   GL273826  16.957  39.667   5.826
 5892POPC   C1A73827  16.662  39.304   6.081
 5892POPC   D2A73828  16.463  39.429   6.463
 5892POPC   C3A73829  16.406  39.127   6.796
 5892POPC   C4A73830  16.348  39.074   7.242
 5892POPC   C1B73831  17.046  39.575   6.267
 5892POPC   C2B73832  16.920  39.597   6.714
 5892POPC   C3B73833  16.999  39.510   7.155
 5892POPC   C4B73834  16.961  39.334   7.614
 5893POPC   NC373835   7.730  27.479   5.329
 5893POPC   PO473836   7.127  27.283   5.474
 5893POPC   GL173837   7.237  27.590   5.798
 5893POPC   GL273838   7.519  27.794   5.734
 5893POPC   C1A73839   7.371  27.563   6.253
 5893POPC   D2A73840   7.555  27.397   6.647
 5893POPC   C3A73841   7.361  27.601   6.975
 5893POPC   C4A73842   7.218  27.539   7.407
 5893POPC   C1B73843   7.709  27.945   6.100
 5893POPC   C2B73844   7.742  27.858   6.535
 5893POPC   C3B73845   7.832  27.823   6.967
 5893POPC   C4B73846   7.715  27.602   7.337
 5894POPC   NC373847  40.284  41.743   5.469
 5894POPC   PO473848  39.702  41.910   5.757
 5894POPC   GL173849  39.955  41.708   6.001
 5894POPC   GL273850  40.275  41.761   5.983
 5894POPC   C1A73851  39.944  41.697   6.418
 5894POPC   D2A73852  40.157  41.779   6.784
 5894POPC   C3A73853  39.942  41.711   7.152
 5894POPC   C4A73854  40.168  41.774   7.562
 5894POPC   C1B73855  40.288  41.365   6.243
 5894POPC   C2B73856  40.193  41.172   6.603
 5894POPC   C3B73857  40.252  41.293   7.013
 5894POPC   C4B73858  40.068  41.288   7.414
 5895POPC   NC373859  44.133  17.722   5.454
 5895POPC   PO473860  43.799  17.228   5.500
 5895POPC   GL173861  43.941  17.375   5.893
 5895POPC   GL273862  43.849  17.716   5.888
 5895POPC   C1A73863  44.031  17.472   6.342
 5895POPC   D2A73864  43.992  17.743   6.712
 5895POPC   C3A73865  43.955  17.527   7.068
 5895POPC   C4A73866  44.304  17.317   7.100
 5895POPC   C1B73867  43.758  17.927   6.276
 5895POPC   C2B73868  43.508  17.896   6.668
 5895POPC   C3B73869  43.670  18.009   7.060
 5895POPC   C4B73870  44.045  18.001   7.255
 5896POPC   NC373871  33.196  30.271   5.579
 5896POPC   PO473872  32.907  29.738   5.416
 5896POPC   GL173873  33.097  29.827   5.826
 5896POPC   GL273874  33.445  29.772   5.787
 5896POPC   C1A73875  32.978  30.006   6.274
 5896POPC   D2A73876  32.648  30.004   6.635
 5896POPC   C3A73877  32.804  29.937   7.084
 5896POPC   C4A73878  32.919  29.635   7.425
 5896POPC   C1B73879  33.488  29.899   6.208
 5896POPC   C2B73880  33.384  29.737   6.628
 5896POPC   C3B73881  33.319  29.844   7.093
 5896POPC   C4B73882  33.208  30.274   7.156
 5897POPC   NC373883  43.465  11.659   5.306
 5897POPC   PO473884  43.079  12.170   5.296
 5897POPC   GL173885  43.023  12.084   5.733
 5897POPC   GL273886  43.099  11.714   5.693
 5897POPC   C1A73887  42.994  12.289   6.169
 5897POPC   D2A73888  43.334  12.285   6.477
 5897POPC   C3A73889  43.222  12.209   6.898
 5897POPC   C4A73890  43.395  12.303   7.288
 5897POPC   C1B73891  43.278  11.869   6.110
 5897POPC   C2B73892  42.996  11.852   6.485
 5897POPC   C3B73893  42.737  12.008   6.842
 5897POPC   C4B73894  42.905  12.012   7.266
 5898POPC   NC373895  11.201  11.059   5.483
 5898POPC   PO473896  10.549  11.189   5.330
 5898POPC   GL173897  10.611  11.076   5.741
 5898POPC   GL273898  10.846  10.796   5.735
 5898POPC   C1A73899  10.668  11.275   6.183
 5898POPC   D2A73900  10.438  11.427   6.558
 5898POPC   C3A73901  10.571  11.606   6.964
 5898POPC   C4A73902  10.363  11.640   7.398
 5898POPC   C1B73903  10.648  10.738   6.125
 5898POPC   C2B73904  10.570  10.900   6.533
 5898POPC   C3B73905  10.553  10.844   6.983
 5898POPC   C4B73906  10.532  11.184   7.253
 5899POPC   NC373907  29.350  35.859   5.513
 5899POPC   PO473908  29.379  35.196   5.435
 5899POPC   GL173909  29.452  35.317   5.851
 5899POPC   GL273910  29.133  35.509   5.857
 5899POPC   C1A73911  29.238  35.252   6.279
 5899POPC   D2A73912  29.075  35.536   6.563
 5899POPC   C3A73913  28.862  35.378   6.909
 5899POPC   C4A73914  29.015  35.323   7.299
 5899POPC   C1B73915  29.420  35.731   6.177
 5899POPC   C2B73916  29.595  35.694   6.612
 5899POPC   C3B73917  29.375  35.552   6.994
 5899POPC   C4B73918  29.390  35.676   7.427
 5900POPC   NC373919  38.032  40.837   5.097
 5900POPC   PO473920  37.669  40.711   5.679
 5900POPC   GL173921  37.963  40.688   6.038
 5900POPC   GL273922  38.107  41.035   6.089
 5900POPC   C1A73923  37.844  40.625   6.482
 5900POPC   D2A73924  37.596  40.488   6.862
 5900POPC   C3A73925  37.454  40.805   7.155
 5900POPC   C4A73926  37.354  40.899   7.601
 5900POPC   C1B73927  38.184  41.201   6.476
 5900POPC   C2B73928  37.950  41.111   6.804
 5900POPC   C3B73929  37.986  40.774   7.095
 5900POPC   C4B73930  37.850  40.833   7.498
 5901POPC   NC373931  16.048  36.266   5.223
 5901POPC   PO473932  15.795  35.670   5.451
 5901POPC   GL173933  16.046  35.866   5.794
 5901POPC   GL273934  16.090  36.231   5.734
 5901POPC   C1A73935  16.023  35.866   6.277
 5901POPC   D2A73936  15.776  35.919   6.685
 5901POPC   C3A73937  15.978  35.928   7.093
 5901POPC   C4A73938  16.408  36.125   7.093
 5901POPC   C1B73939  15.742  36.289   6.030
 5901POPC   C2B73940  15.759  36.403   6.473
 5901POPC   C3B73941  16.041  36.348   6.803
 5901POPC   C4B73942  15.876  36.405   7.218
 5902POPC   NC373943  14.718  42.373   5.032
 5902POPC   PO473944  15.261  42.362   5.426
 5902POPC   GL173945  15.106  42.594   5.828
 5902POPC   GL273946  14.870  42.401   6.045
 5902POPC   C1A73947  15.287  42.587   6.266
 5902POPC   D2A73948  15.189  42.371   6.664
 5902POPC   C3A73949  15.133  42.591   7.078
 5902POPC   C4A73950  14.799  42.583   7.409
 5902POPC   C1B73951  15.186  42.070   6.203
 5902POPC   C2B73952  15.247  41.850   6.624
 5902POPC   C3B73953  15.345  42.050   7.030
 5902POPC   C4B73954  15.024  42.130   7.301
 5903POPC   NC373955  28.655  10.653   5.431
 5903POPC   PO473956  28.199  10.168   5.381
 5903POPC   GL173957  28.285  10.473   5.742
 5903POPC   GL273958  28.623  10.407   5.896
 5903POPC   C1A73959  28.252  10.670   6.169
 5903POPC   D2A73960  28.070  10.623   6.590
 5903POPC   C3A73961  28.231  10.786   6.988
 5903POPC   C4A73962  28.367  10.531   7.324
 5903POPC   C1B73963  28.757  10.708   6.229
 5903POPC   C2B73964  28.629  10.654   6.664
 5903POPC   C3B73965  28.795  10.749   7.074
 5903POPC   C4B73966  28.749  10.803   7.529
 5904POPC   NC373967  38.021  32.096   5.398
 5904POPC   PO473968  37.397  32.198   5.585
 5904POPC   GL173969  37.727  32.071   5.847
 5904POPC   GL273970  37.896  32.375   5.825
 5904POPC   C1A73971  37.842  32.011   6.291
 5904POPC   D2A73972  37.948  32.076   6.746
 5904POPC   C3A73973  37.690  31.864   7.074
 5904POPC   C4A73974  37.671  31.830   7.560
 5904POPC   C1B73975  37.642  32.492   6.209
 5904POPC   C2B73976  37.513  32.671   6.627
 5904POPC   C3B73977  37.634  32.651   7.058
 5904POPC   C4B73978  37.754  32.306   7.339
 5905POPC   NC373979  36.933  30.913   5.305
 5905POPC   PO473980  36.887  30.191   5.202
 5905POPC   GL173981  37.012  30.516   5.671
 5905POPC   GL273982  36.792  30.828   5.786
 5905POPC   C1A73983  37.117  30.766   6.157
 5905POPC   D2A73984  36.887  30.801   6.560
 5905POPC   C3A73985  37.148  30.851   6.913
 5905POPC   C4A73986  37.033  30.716   7.298
 5905POPC   C1B73987  36.625  31.030   6.176
 5905POPC   C2B73988  36.447  31.098   6.619
 5905POPC   C3B73989  36.609  30.899   7.025
 5905POPC   C4B73990  36.614  30.936   7.492
 5906POPC   NC373991  44.756  10.791   5.197
 5906POPC   PO473992  44.488  10.216   5.399
 5906POPC   GL173993  44.782  10.531   5.663
 5906POPC   GL273994  44.889  10.904   5.745
 5906POPC   C1A73995  44.665  10.631   6.104
 5906POPC   D2A73996  44.647  10.389   6.472
 5906POPC   C3A73997  44.590  10.562   6.866
 5906POPC   C4A73998  44.359  10.541   7.222
 5906POPC   C1B73999   0.148  10.814   6.141
 5906POPC   C2B74000   0.021  10.758   6.571
 5906POPC   C3B74001   0.132  10.816   7.012
 5906POPC   C4B74002  44.834  10.685   7.309
 5907POPC   NC374003   6.205  25.053   5.398
 5907POPC   PO474004   5.566  25.125   5.514
 5907POPC   GL174005   5.804  25.272   5.830
 5907POPC   GL274006   6.033  25.538   5.671
 5907POPC   C1A74007   5.813  24.977   6.200
 5907POPC   D2A74008   6.004  24.943   6.638
 5907POPC   C3A74009   5.845  25.163   7.031
 5907POPC   C4A74010   6.028  25.290   7.441
 5907POPC   C1B74011   6.083  25.580   6.131
 5907POPC   C2B74012   6.025  25.487   6.575
 5907POPC   C3B74013   5.669  25.603   6.819
 5907POPC   C4B74014   5.611  25.566   7.251
 5908POPC   NC374015  17.782  34.824   5.684
 5908POPC   PO474016  17.255  34.583   5.298
 5908POPC   GL174017  17.434  34.425   5.694
 5908POPC   GL274018  17.186  34.207   5.858
 5908POPC   C1A74019  17.576  34.394   6.144
 5908POPC   D2A74020  17.441  34.488   6.582
 5908POPC   C3A74021  17.665  34.562   6.991
 5908POPC   C4A74022  17.380  34.757   7.280
 5908POPC   C1B74023  17.023  34.365   6.256
 5908POPC   C2B74024  16.946  34.389   6.703
 5908POPC   C3B74025  17.203  34.336   7.054
 5908POPC   C4B74026  17.298  34.219   7.536
 5909POPC   NC374027   7.470  34.701   5.392
 5909POPC   PO474028   7.042  34.147   5.324
 5909POPC   GL174029   7.308  34.317   5.704
 5909POPC   GL274030   7.279  34.702   5.856
 5909POPC   C1A74031   7.476  34.339   6.145
 5909POPC   D2A74032   7.289  34.675   6.417
 5909POPC   C3A74033   7.271  34.648   6.870
 5909POPC   C4A74034   7.517  34.369   7.147
 5909POPC   C1B74035   7.658  34.854   6.096
 5909POPC   C2B74036   7.897  34.741   6.489
 5909POPC   C3B74037   7.893  34.851   6.937
 5909POPC   C4B74038   7.564  34.913   7.225
 5910POPC   NC374039  42.109   7.124   5.540
 5910POPC   PO474040  41.528   6.798   5.317
 5910POPC   GL174041  41.463   6.655   5.739
 5910POPC   GL274042  41.610   6.955   5.824
 5910POPC   C1A74043  41.572   6.552   6.175
 5910POPC   D2A74044  41.530   6.371   6.607
 5910POPC   C3A74045  41.473   6.472   7.053
 5910POPC   C4A74046  41.557   6.423   7.484
 5910POPC   C1B74047  41.666   7.080   6.213
 5910POPC   C2B74048  41.576   6.901   6.572
 5910POPC   C3B74049  41.569   7.004   6.957
 5910POPC   C4B74050  41.720   6.849   7.290
 5911POPC   NC374051  38.122  43.208   5.458
 5911POPC   PO474052  38.752  43.101   5.418
 5911POPC   GL174053  38.441  42.876   5.754
 5911POPC   GL274054  38.287  43.114   5.907
 5911POPC   C1A74055  38.235  42.708   6.182
 5911POPC   D2A74056  38.462  42.737   6.571
 5911POPC   C3A74057  38.299  42.942   6.895
 5911POPC   C4A74058  38.140  43.033   7.244
 5911POPC   C1B74059  38.511  43.170   6.268
 5911POPC   C2B74060  38.683  43.232   6.693
 5911POPC   C3B74061  38.530  43.343   7.112
 5911POPC   C4B74062  38.509  43.432   7.555
 5912POPC   NC374063   4.633  39.837   5.520
 5912POPC   PO474064   4.138  40.295   5.319
 5912POPC   GL174065   4.213  40.089   5.730
 5912POPC   GL274066   4.040  39.758   5.778
 5912POPC   C1A74067   4.374  39.992   6.141
 5912POPC   D2A74068   4.222  40.200   6.500
 5912POPC   C3A74069   4.245  40.050   6.921
 5912POPC   C4A74070   4.414  39.942   7.336
 5912POPC   C1B74071   4.034  39.621   6.212
 5912POPC   C2B74072   4.284  39.639   6.591
 5912POPC   C3B74073   4.357  39.557   7.019
 5912POPC   C4B74074   4.080  39.479   7.373
 5913POPC   NC374075  23.678  24.445   5.235
 5913POPC   PO474076  23.456  24.852   5.770
 5913POPC   GL174077  23.645  24.502   5.966
 5913POPC   GL274078  23.918  24.303   5.834
 5913POPC   C1A74079  23.866  24.544   6.341
 5913POPC   D2A74080  23.889  24.537   6.771
 5913POPC   C3A74081  23.620  24.728   7.049
 5913POPC   C4A74082  23.694  24.611   7.462
 5913POPC   C1B74083  23.850  24.050   6.224
 5913POPC   C2B74084  23.891  24.026   6.686
 5913POPC   C3B74085  23.924  24.175   7.134
 5913POPC   C4B74086  23.967  24.220   7.609
 5914POPC   NC374087  38.455  36.153   5.136
 5914POPC   PO474088  38.178  36.244   5.733
 5914POPC   GL174089  38.490  36.087   6.006
 5914POPC   GL274090  38.676  35.837   5.832
 5914POPC   C1A74091  38.565  36.172   6.425
 5914POPC   D2A74092  38.312  36.073   6.772
 5914POPC   C3A74093  38.324  36.302   7.154
 5914POPC   C4A74094  38.255  36.247   7.619
 5914POPC   C1B74095  38.646  35.678   6.268
 5914POPC   C2B74096  38.594  35.661   6.716
 5914POPC   C3B74097  38.571  35.803   7.131
 5914POPC   C4B74098  38.583  35.835   7.550
 5915POPC   NC374099  37.062   4.185   5.473
 5915POPC   PO474100  36.770   4.784   5.471
 5915POPC   GL174101  37.030   4.558   5.831
 5915POPC   GL274102  37.033   4.149   5.972
 5915POPC   C1A74103  36.824   4.522   6.239
 5915POPC   D2A74104  36.590   4.483   6.626
 5915POPC   C3A74105  36.915   4.385   6.932
 5915POPC   C4A74106  37.191   4.655   7.136
 5915POPC   C1B74107  36.636   3.969   6.190
 5915POPC   C2B74108  36.377   4.010   6.584
 5915POPC   C3B74109  36.526   4.061   7.017
 5915POPC   C4B74110  36.743   3.950   7.417
 5916POPC   NC374111   6.949  25.697   5.573
 5916POPC   PO474112   6.660  26.244   5.523
 5916POPC   GL174113   6.715  26.039   5.877
 5916POPC   GL274114   6.493  25.767   5.848
 5916POPC   C1A74115   6.959  25.916   6.249
 5916POPC   D2A74116   6.842  26.059   6.640
 5916POPC   C3A74117   6.994  25.979   7.027
 5916POPC   C4A74118   6.872  26.324   7.267
 5916POPC   C1B74119   6.435  25.912   6.286
 5916POPC   C2B74120   6.444  25.761   6.717
 5916POPC   C3B74121   6.469  26.034   7.099
 5916POPC   C4B74122   6.353  26.134   7.549
 5917POPC   NC374123   8.590  25.121   5.348
 5917POPC   PO474124   9.234  25.317   5.550
 5917POPC   GL174125   9.128  25.151   5.907
 5917POPC   GL274126   8.793  25.035   5.839
 5917POPC   C1A74127   8.892  25.308   6.294
 5917POPC   D2A74128   8.971  25.501   6.716
 5917POPC   C3A74129   8.749  25.316   7.014
 5917POPC   C4A74130   8.979  24.998   7.218
 5917POPC   C1B74131   8.958  24.800   6.209
 5917POPC   C2B74132   8.838  24.888   6.582
 5917POPC   C3B74133   8.635  24.806   6.900
 5917POPC   C4B74134   8.416  24.986   7.227
 5918POPC   NC374135   7.679  20.780   5.296
 5918POPC   PO474136   7.267  20.298   5.544
 5918POPC   GL174137   7.498  20.405   5.874
 5918POPC   GL274138   7.652  20.713   5.799
 5918POPC   C1A74139   7.359  20.472   6.303
 5918POPC   D2A74140   7.600  20.412   6.690
 5918POPC   C3A74141   7.363  20.250   7.039
 5918POPC   C4A74142   6.967  20.432   7.211
 5918POPC   C1B74143   7.789  20.702   6.214
 5918POPC   C2B74144   7.564  20.922   6.556
 5918POPC   C3B74145   7.368  20.835   6.945
 5918POPC   C4B74146   7.445  20.654   7.340
 5919POPC   NC374147   5.146  24.919   5.468
 5919POPC   PO474148   4.767  24.347   5.527
 5919POPC   GL174149   5.136  24.390   5.771
 5919POPC   GL274150   5.399  24.095   5.783
 5919POPC   C1A74151   5.240  24.619   6.154
 5919POPC   D2A74152   5.535  24.668   6.502
 5919POPC   C3A74153   5.329  24.550   6.844
 5919POPC   C4A74154   4.996  24.672   7.095
 5919POPC   C1B74155   5.192  24.107   6.188
 5919POPC   C2B74156   4.997  24.307   6.556
 5919POPC   C3B74157   5.007  24.169   7.007
 5919POPC   C4B74158   5.347  24.241   7.263
 5920POPC   NC374159  17.745  36.327   5.441
 5920POPC   PO474160  17.378  35.809   5.189
 5920POPC   GL174161  17.431  35.926   5.674
 5920POPC   GL274162  17.336  36.292   5.758
 5920POPC   C1A74163  17.333  35.953   6.160
 5920POPC   D2A74164  17.243  36.128   6.597
 5920POPC   C3A74165  17.386  35.951   7.020
 5920POPC   C4A74166  17.321  36.043   7.482
 5920POPC   C1B74167  17.467  36.463   6.147
 5920POPC   C2B74168  17.513  36.612   6.559
 5920POPC   C3B74169  17.523  36.434   6.936
 5920POPC   C4B74170  17.745  36.270   7.276
 5921POPC   NC374171   1.466  17.061   5.510
 5921POPC   PO474172   1.022  16.643   5.302
 5921POPC   GL174173   1.152  16.698   5.718
 5921POPC   GL274174   0.976  16.949   5.808
 5921POPC   C1A74175   1.307  16.591   6.113
 5921POPC   D2A74176   1.183  16.686   6.500
 5921POPC   C3A74177   1.480  16.835   6.795
 5921POPC   C4A74178   1.428  16.644   7.195
 5921POPC   C1B74179   1.023  17.092   6.188
 5921POPC   C2B74180   0.774  17.115   6.525
 5921POPC   C3B74181   0.975  16.960   6.875
 5921POPC   C4B74182   0.881  16.884   7.245
 5922POPC   NC374183  15.784  22.508   5.487
 5922POPC   PO474184  16.024  21.835   5.575
 5922POPC   GL174185  15.970  22.176   5.854
 5922POPC   GL274186  15.621  22.192   5.890
 5922POPC   C1A74187  15.904  22.374   6.275
 5922POPC   D2A74188  16.039  22.233   6.661
 5922POPC   C3A74189  15.801  22.257   7.029
 5922POPC   C4A74190  15.789  22.618   7.272
 5922POPC   C1B74191  15.746  21.894   6.261
 5922POPC   C2B74192  15.577  21.926   6.666
 5922POPC   C3B74193  15.494  21.794   7.094
 5922POPC   C4B74194  15.792  21.903   7.405
 5923POPC   NC374195  28.114   1.502   5.516
 5923POPC   PO474196  28.781   1.275   5.405
 5923POPC   GL174197  28.574   1.357   5.830
 5923POPC   GL274198  28.245   1.176   5.898
 5923POPC   C1A74199  28.579   1.244   6.289
 5923POPC   D2A74200  28.244   1.265   6.562
 5923POPC   C3A74201  28.179   1.383   6.958
 5923POPC   C4A74202  28.360   1.243   7.307
 5923POPC   C1B74203  28.051   0.925   6.245
 5923POPC   C2B74204  27.957   0.843   6.706
 5923POPC   C3B74205  27.967   0.911   7.184
 5923POPC   C4B74206  28.112   0.974   7.651
 5924POPC   NC374207  38.380  25.135   5.367
 5924POPC   PO474208  38.833  25.622   5.412
 5924POPC   GL174209  38.538  25.468   5.736
 5924POPC   GL274210  38.267  25.694   5.734
 5924POPC   C1A74211  38.505  25.145   6.097
 5924POPC   D2A74212  38.696  25.246   6.491
 5924POPC   C3A74213  38.546  25.144   6.919
 5924POPC   C4A74214  38.562  25.449   7.262
 5924POPC   C1B74215  38.163  25.534   6.143
 5924POPC   C2B74216  38.178  25.289   6.517
 5924POPC   C3B74217  38.140  25.465   6.927
 5924POPC   C4B74218  37.972  25.292   7.285
 5925POPC   NC374219  19.118  41.097   5.398
 5925POPC   PO474220  19.511  40.661   5.549
 5925POPC   GL174221  19.314  40.727   5.901
 5925POPC   GL274222  18.978  40.831   5.824
 5925POPC   C1A74223  19.489  40.918   6.252
 5925POPC   D2A74224  19.544  40.799   6.670
 5925POPC   C3A74225  19.383  41.054   6.996
 5925POPC   C4A74226  19.112  40.987   7.354
 5925POPC   C1B74227  18.903  40.483   6.090
 5925POPC   C2B74228  19.052  40.454   6.522
 5925POPC   C3B74229  19.099  40.642   6.908
 5925POPC   C4B74230  19.121  40.496   7.268
 5926POPC   NC374231  44.243  40.289   5.259
 5926POPC   PO474232  43.837  40.899   5.272
 5926POPC   GL174233  43.883  40.702   5.718
 5926POPC   GL274234  43.688  40.355   5.689
 5926POPC   C1A74235  43.955  40.887   6.165
 5926POPC   D2A74236  43.806  41.184   6.519
 5926POPC   C3A74237  43.970  41.044   6.946
 5926POPC   C4A74238  44.185  40.923   7.336
 5926POPC   C1B74239  43.739  40.420   6.142
 5926POPC   C2B74240  43.776  40.627   6.568
 5926POPC   C3B74241  43.493  40.570   6.907
 5926POPC   C4B74242  43.629  40.406   7.308
 5927POPC   NC374243  27.054  28.597   5.424
 5927POPC   PO474244  26.607  28.048   5.344
 5927POPC   GL174245  26.779  28.274   5.730
 5927POPC   GL274246  27.131  28.188   5.789
 5927POPC   C1A74247  26.619  28.434   6.151
 5927POPC   D2A74248  26.577  28.708   6.513
 5927POPC   C3A74249  26.793  28.482   6.799
 5927POPC   C4A74250  26.845  28.297   7.199
 5927POPC   C1B74251  27.108  28.279   6.280
 5927POPC   C2B74252  27.097  28.095   6.706
 5927POPC   C3B74253  27.199  27.968   7.119
 5927POPC   C4B74254  27.314  28.258   7.483
 5928POPC   NC374255  17.733  20.439   5.357
 5928POPC   PO474256  18.371  20.650   5.394
 5928POPC   GL174257  18.231  20.529   5.757
 5928POPC   GL274258  17.901  20.706   5.788
 5928POPC   C1A74259  18.446  20.618   6.147
 5928POPC   D2A74260  18.459  20.864   6.541
 5928POPC   C3A74261  18.453  20.614   6.937
 5928POPC   C4A74262  18.559  20.833   7.276
 5928POPC   C1B74263  17.942  20.464   6.148
 5928POPC   C2B74264  18.152  20.458   6.538
 5928POPC   C3B74265  17.956  20.541   6.919
 5928POPC   C4B74266  18.061  20.621   7.326
 5929POPC   NC374267  25.182  13.729   5.075
 5929POPC   PO474268  25.585  13.433   5.495
 5929POPC   GL174269  25.461  13.457   5.910
 5929POPC   GL274270  25.145  13.625   5.895
 5929POPC   C1A74271  25.239  13.238   6.246
 5929POPC   D2A74272  25.361  13.232   6.677
 5929POPC   C3A74273  25.117  13.416   7.054
 5929POPC   C4A74274  25.233  13.610   7.491
 5929POPC   C1B74275  25.323  13.739   6.326
 5929POPC   C2B74276  25.216  13.994   6.690
 5929POPC   C3B74277  25.309  13.906   7.090
 5929POPC   C4B74278  25.680  13.864   7.319
 5930POPC   NC374279  20.996  39.001   5.581
 5930POPC   PO474280  20.463  38.545   5.390
 5930POPC   GL174281  20.681  38.480   5.758
 5930POPC   GL274282  20.496  38.198   5.792
 5930POPC   C1A74283  20.570  38.507   6.213
 5930POPC   D2A74284  20.756  38.648   6.611
 5930POPC   C3A74285  20.525  38.674   6.990
 5930POPC   C4A74286  20.756  38.670   7.333
 5930POPC   C1B74287  20.841  38.100   6.073
 5930POPC   C2B74288  20.935  38.082   6.503
 5930POPC   C3B74289  20.813  38.229   6.895
 5930POPC   C4B74290  20.626  38.162   7.249
 5931POPC   NC374291  10.029  32.462   5.377
 5931POPC   PO474292   9.673  31.841   5.401
 5931POPC   GL174293   9.807  32.098   5.730
 5931POPC   GL274294   9.675  32.404   5.727
 5931POPC   C1A74295   9.849  32.105   6.173
 5931POPC   D2A74296  10.031  32.015   6.559
 5931POPC   C3A74297   9.760  31.930   6.901
 5931POPC   C4A74298   9.709  32.142   7.256
 5931POPC   C1B74299   9.897  32.613   6.045
 5931POPC   C2B74300   9.747  32.569   6.441
 5931POPC   C3B74301   9.762  32.464   6.857
 5931POPC   C4B74302   9.958  32.577   7.219
 5932POPC   NC374303  23.443   2.084   5.679
 5932POPC   PO474304  23.890   1.613   5.487
 5932POPC   GL174305  24.036   1.738   5.878
 5932POPC   GL274306  24.105   2.050   5.719
 5932POPC   C1A74307  23.855   1.763   6.336
 5932POPC   D2A74308  23.504   1.752   6.666
 5932POPC   C3A74309  23.620   1.801   7.133
 5932POPC   C4A74310  23.479   2.018   7.525
 5932POPC   C1B74311  23.979   2.222   6.093
 5932POPC   C2B74312  23.829   2.360   6.488
 5932POPC   C3B74313  23.656   2.240   6.860
 5932POPC   C4B74314  23.835   2.294   7.249
 5933POPC   NC374315  21.049  41.481   5.555
 5933POPC   PO474316  21.732  41.458   5.598
 5933POPC   GL174317  21.508  41.533   5.926
 5933POPC   GL274318  21.552  41.853   6.006
 5933POPC   C1A74319  21.577  41.514   6.370
 5933POPC   D2A74320  21.270  41.427   6.664
 5933POPC   C3A74321  21.508  41.306   6.969
 5933POPC   C4A74322  21.449  41.369   7.361
 5933POPC   C1B74323  21.143  41.796   6.197
 5933POPC   C2B74324  20.899  41.753   6.571
 5933POPC   C3B74325  20.999  41.828   6.977
 5933POPC   C4B74326  21.406  41.832   7.108
 5934POPC   NC374327  38.036   4.502   5.094
 5934POPC   PO474328  37.465   4.511   5.451
 5934POPC   GL174329  37.533   4.305   5.801
 5934POPC   GL274330  37.881   4.166   5.707
 5934POPC   C1A74331  37.409   4.420   6.207
 5934POPC   D2A74332  37.718   4.370   6.513
 5934POPC   C3A74333  37.555   4.398   6.896
 5934POPC   C4A74334  37.753   4.449   7.250
 5934POPC   C1B74335  38.038   4.207   6.127
 5934POPC   C2B74336  38.093   4.012   6.525
 5934POPC   C3B74337  37.947   4.061   6.919
 5934POPC   C4B74338  38.143   4.007   7.286
 5935POPC   NC374339  16.051  11.640   5.407
 5935POPC   PO474340  15.809  11.018   5.471
 5935POPC   GL174341  15.900  11.317   5.787
 5935POPC   GL274342  15.658  11.589   5.731
 5935POPC   C1A74343  16.055  11.323   6.203
 5935POPC   D2A74344  15.845  11.145   6.555
 5935POPC   C3A74345  16.029  11.112   6.938
 5935POPC   C4A74346  15.766  11.007   7.282
 5935POPC   C1B74347  15.590  11.519   6.168
 5935POPC   C2B74348  15.751  11.656   6.554
 5935POPC   C3B74349  15.666  11.494   6.945
 5935POPC   C4B74350  15.898  11.490   7.300
 5936POPC   NC374351  40.020   2.611   5.392
 5936POPC   PO474352  39.692   3.106   5.657
 5936POPC   GL174353  39.943   2.786   5.879
 5936POPC   GL274354  40.288   2.862   5.742
 5936POPC   C1A74355  40.032   2.575   6.289
 5936POPC   D2A74356  40.223   2.653   6.707
 5936POPC   C3A74357  39.890   2.770   7.015
 5936POPC   C4A74358  39.563   2.531   7.175
 5936POPC   C1B74359  40.392   2.933   6.191
 5936POPC   C2B74360  40.213   3.146   6.570
 5936POPC   C3B74361  40.188   3.165   7.038
 5936POPC   C4B74362  40.296   2.935   7.451
 5937POPC   NC374363  29.781  30.583   5.169
 5937POPC   PO474364  30.235  30.716   5.442
 5937POPC   GL174365  29.930  30.889   5.748
 5937POPC   GL274366  29.755  30.580   5.897
 5937POPC   C1A74367  29.913  31.074   6.191
 5937POPC   D2A74368  30.007  30.876   6.599
 5937POPC   C3A74369  29.914  30.983   7.028
 5937POPC   C4A74370  29.993  30.693   7.375
 5937POPC   C1B74371  29.593  30.681   6.338
 5937POPC   C2B74372  29.514  30.737   6.788
 5937POPC   C3B74373  29.710  30.417   7.054
 5937POPC   C4B74374  29.790  30.184   7.459
 5938POPC   NC374375  21.190   0.507   5.239
 5938POPC   PO474376  20.575   0.144   5.403
 5938POPC   GL174377  20.692   0.285   5.857
 5938POPC   GL274378  20.494   0.564   5.994
 5938POPC   C1A74379  20.607   0.213   6.315
 5938POPC   D2A74380  20.564   0.566   6.622
 5938POPC   C3A74381  20.432   0.464   7.014
 5938POPC   C4A74382  20.668   0.479   7.319
 5938POPC   C1B74383  20.420   0.899   6.252
 5938POPC   C2B74384  20.170   0.901   6.614
 5938POPC   C3B74385  20.288   0.995   7.006
 5938POPC   C4B74386  20.256   0.819   7.362
 5939POPC   NC374387  25.947   4.002   5.440
 5939POPC   PO474388  26.290   4.585   5.488
 5939POPC   GL174389  26.258   4.334   5.829
 5939POPC   GL274390  25.915   4.317   5.854
 5939POPC   C1A74391  26.272   4.445   6.256
 5939POPC   D2A74392  26.491   4.422   6.632
 5939POPC   C3A74393  26.197   4.231   6.930
 5939POPC   C4A74394  25.944   4.023   7.231
 5939POPC   C1B74395  25.757   4.310   6.239
 5939POPC   C2B74396  25.818   4.078   6.611
 5939POPC   C3B74397  25.704   4.355   6.920
 5939POPC   C4B74398  25.568   4.367   7.314
 5940POPC   NC374399   5.609  12.919   5.345
 5940POPC   PO474400   6.331  13.031   5.271
 5940POPC   GL174401   6.094  12.992   5.706
 5940POPC   GL274402   6.103  12.684   5.829
 5940POPC   C1A74403   5.883  13.008   6.192
 5940POPC   D2A74404   5.925  13.254   6.619
 5940POPC   C3A74405   5.862  13.050   7.018
 5940POPC   C4A74406   5.577  12.759   7.174
 5940POPC   C1B74407   6.134  12.510   6.239
 5940POPC   C2B74408   6.139  12.687   6.646
 5940POPC   C3B74409   5.991  12.449   6.998
 5940POPC   C4B74410   5.920  12.484   7.433
 5941POPC   NC374411  44.207   3.156   5.510
 5941POPC   PO474412  43.898   3.799   5.510
 5941POPC   GL174413  44.001   3.646   5.869
 5941POPC   GL274414  43.844   3.319   5.831
 5941POPC   C1A74415  43.780   3.709   6.275
 5941POPC   D2A74416  43.722   3.885   6.701
 5941POPC   C3A74417  43.946   3.716   7.056
 5941POPC   C4A74418  44.273   3.885   7.322
 5941POPC   C1B74419  44.123   3.287   6.197
 5941POPC   C2B74420  43.988   3.388   6.620
 5941POPC   C3B74421  44.027   3.195   7.019
 5941POPC   C4B74422  43.646   3.121   7.239
 5942POPC   NC374423  13.439  34.671   5.585
 5942POPC   PO474424  13.727  34.193   5.304
 5942POPC   GL174425  13.714  34.249   5.763
 5942POPC   GL274426  13.353  34.183   5.828
 5942POPC   C1A74427  13.873  34.477   6.157
 5942POPC   D2A74428  13.728  34.710   6.555
 5942POPC   C3A74429  13.771  34.494   6.958
 5942POPC   C4A74430  13.589  34.437   7.374
 5942POPC   C1B74431  13.374  34.329   6.247
 5942POPC   C2B74432  13.282  34.388   6.680
 5942POPC   C3B74433  13.338  34.734   6.935
 5942POPC   C4B74434  13.220  34.874   7.300
 5943POPC   NC374435  11.521  20.081   5.415
 5943POPC   PO474436  12.186  19.867   5.351
 5943POPC   GL174437  12.027  19.813   5.757
 5943POPC   GL274438  11.667  19.786   5.803
 5943POPC   C1A74439  11.991  20.070   6.132
 5943POPC   D2A74440  11.918  19.943   6.564
 5943POPC   C3A74441  12.196  19.973   6.931
 5943POPC   C4A74442  12.082  19.957   7.381
 5943POPC   C1B74443  11.819  19.583   6.184
 5943POPC   C2B74444  11.921  19.404   6.590
 5943POPC   C3B74445  11.837  19.605   6.956
 5943POPC   C4B74446  11.713  19.595   7.359
 5944POPC   NC374447  16.118  10.566   5.428
 5944POPC   PO474448  15.633  10.036   5.446
 5944POPC   GL174449  15.823  10.332   5.790
 5944POPC   GL274450  15.896  10.733   5.867
 5944POPC   C1A74451  15.845  10.429   6.233
 5944POPC   D2A74452  16.017  10.373   6.575
 5944POPC   C3A74453  15.854  10.655   6.805
 5944POPC   C4A74454  15.782  10.501   7.178
 5944POPC   C1B74455  16.139  10.828   6.276
 5944POPC   C2B74456  16.391  10.700   6.608
 5944POPC   C3B74457  16.295  10.534   6.993
 5944POPC   C4B74458  16.224  10.794   7.319
 5945POPC   NC374459   1.694  34.831   5.411
 5945POPC   PO474460   2.187  34.441   5.450
 5945POPC   GL174461   2.233  34.242   5.817
 5945POPC   GL274462   2.030  34.528   5.969
 5945POPC   C1A74463   2.244  34.115   6.227
 5945POPC   D2A74464   2.165  34.405   6.570
 5945POPC   C3A74465   2.226  34.272   6.980
 5945POPC   C4A74466   2.130  34.140   7.383
 5945POPC   C1B74467   2.098  34.849   6.305
 5945POPC   C2B74468   1.855  34.778   6.668
 5945POPC   C3B74469   1.677  34.579   7.017
 5945POPC   C4B74470   1.820  34.586   7.414
 5946POPC   NC374471   9.192  12.716   5.358
 5946POPC   PO474472   8.673  13.070   5.254
 5946POPC   GL174473   8.896  13.054   5.678
 5946POPC   GL274474   9.206  13.236   5.743
 5946POPC   C1A74475   8.805  13.018   6.135
 5946POPC   D2A74476   8.844  12.749   6.473
 5946POPC   C3A74477   8.883  12.906   6.894
 5946POPC   C4A74478   8.863  12.611   7.252
 5946POPC   C1B74479   9.229  13.300   6.195
 5946POPC   C2B74480   9.079  13.324   6.624
 5946POPC   C3B74481   9.296  13.278   7.041
 5946POPC   C4B74482   9.387  13.009   7.415
 5947POPC   NC374483  17.407  13.122   5.456
 5947POPC   PO474484  17.814  12.584   5.224
 5947POPC   GL174485  17.789  12.928   5.696
 5947POPC   GL274486  17.345  12.911   5.888
 5947POPC   C1A74487  17.728  12.910   6.180
 5947POPC   D2A74488  17.379  12.663   6.390
 5947POPC   C3A74489  17.344  12.752   6.813
 5947POPC   C4A74490  17.726  12.685   7.089
 5947POPC   C1B74491  17.295  13.165   6.285
 5947POPC   C2B74492  17.609  13.136   6.634
 5947POPC   C3B74493  17.489  13.175   7.067
 5947POPC   C4B74494  17.713  13.144   7.420
 5948POPC   NC374495  44.265  22.973   5.437
 5948POPC   PO474496  44.859  23.390   5.339
 5948POPC   GL174497  44.795  23.261   5.834
 5948POPC   GL274498  44.524  22.981   5.908
 5948POPC   C1A74499  44.576  23.334   6.298
 5948POPC   D2A74500  44.450  23.113   6.739
 5948POPC   C3A74501  44.755  23.058   7.083
 5948POPC   C4A74502  44.704  23.045   7.524
 5948POPC   C1B74503  44.278  22.904   6.303
 5948POPC   C2B74504  44.198  22.633   6.692
 5948POPC   C3B74505  44.480  22.645   7.051
 5948POPC   C4B74506  44.401  22.640   7.534
 5949POPC   NC374507  25.013  29.106   5.304
 5949POPC   PO474508  24.420  29.050   5.549
 5949POPC   GL174509  24.453  29.340   5.857
 5949POPC   GL274510  24.820  29.372   5.816
 5949POPC   C1A74511  24.470  29.310   6.293
 5949POPC   D2A74512  24.770  29.394   6.608
 5949POPC   C3A74513  24.547  29.179   6.881
 5949POPC   C4A74514  24.452  29.323   7.220
 5949POPC   C1B74515  24.933  29.143   6.180
 5949POPC   C2B74516  24.742  28.878   6.498
 5949POPC   C3B74517  24.818  28.744   6.905
 5949POPC   C4B74518  24.700  28.889   7.297
 5950POPC   NC374519  12.032   9.867   5.119
 5950POPC   PO474520  11.373   9.759   5.372
 5950POPC   GL174521  11.464   9.782   5.798
 5950POPC   GL274522  11.447   9.461   5.886
 5950POPC   C1A74523  11.496   9.981   6.203
 5950POPC   D2A74524  11.266  10.071   6.574
 5950POPC   C3A74525  11.452   9.983   6.996
 5950POPC   C4A74526  11.248   9.776   7.370
 5950POPC   C1B74527  11.296   9.519   6.271
 5950POPC   C2B74528  11.510   9.590   6.628
 5950POPC   C3B74529  11.296   9.480   6.960
 5950POPC   C4B74530  11.350   9.254   7.308
 5951POPC   NC374531  24.697  10.273   5.352
 5951POPC   PO474532  24.361  10.813   5.167
 5951POPC   GL174533  24.511  10.702   5.651
 5951POPC   GL274534  24.529  10.457   5.833
 5951POPC   C1A74535  24.514  10.841   6.144
 5951POPC   D2A74536  24.638  10.668   6.569
 5951POPC   C3A74537  24.372  10.798   6.890
 5951POPC   C4A74538  24.267  10.467   7.150
 5951POPC   C1B74539  24.836  10.416   6.164
 5951POPC   C2B74540  24.752  10.150   6.525
 5951POPC   C3B74541  24.665  10.265   6.926
 5951POPC   C4B74542  24.737  10.171   7.355
 5952POPC   NC374543   6.193  35.131   5.607
 5952POPC   PO474544   5.567  35.099   5.324
 5952POPC   GL174545   5.693  35.171   5.760
 5952POPC   GL274546   5.862  35.512   5.795
 5952POPC   C1A74547   5.514  35.211   6.199
 5952POPC   D2A74548   5.662  35.082   6.643
 5952POPC   C3A74549   5.752  35.227   7.081
 5952POPC   C4A74550   5.450  35.146   7.439
 5952POPC   C1B74551   6.002  35.335   6.208
 5952POPC   C2B74552   6.112  35.340   6.636
 5952POPC   C3B74553   6.242  35.341   7.042
 5952POPC   C4B74554   6.082  35.618   7.315
 5953POPC   NC374555  37.256  16.539   5.070
 5953POPC   PO474556  36.630  16.628   5.385
 5953POPC   GL174557  36.741  16.756   5.817
 5953POPC   GL274558  36.489  16.960   5.971
 5953POPC   C1A74559  36.901  16.734   6.262
 5953POPC   D2A74560  37.160  16.849   6.638
 5953POPC   C3A74561  36.997  16.671   7.029
 5953POPC   C4A74562  37.026  16.857   7.402
 5953POPC   C1B74563  36.583  17.126   6.381
 5953POPC   C2B74564  36.661  16.967   6.782
 5953POPC   C3B74565  36.546  16.916   7.216
 5953POPC   C4B74566  36.561  16.851   7.650
 5954POPC   NC374567   8.428  38.173   5.200
 5954POPC   PO474568   7.993  37.620   5.480
 5954POPC   GL174569   8.128  37.545   5.896
 5954POPC   GL274570   8.463  37.575   5.784
 5954POPC   C1A74571   7.898  37.647   6.289
 5954POPC   D2A74572   7.807  37.975   6.570
 5954POPC   C3A74573   8.122  37.831   6.855
 5954POPC   C4A74574   8.101  37.693   7.284
 5954POPC   C1B74575   8.603  37.720   6.168
 5954POPC   C2B74576   8.409  37.588   6.518
 5954POPC   C3B74577   8.312  37.347   6.857
 5954POPC   C4B74578   8.044  37.208   7.171
 5955POPC   NC374579   3.729  10.493   5.380
 5955POPC   PO474580   3.687  11.156   5.434
 5955POPC   GL174581   3.569  10.787   5.783
 5955POPC   GL274582   3.374  10.460   5.738
 5955POPC   C1A74583   3.425  10.741   6.186
 5955POPC   D2A74584   3.540  10.660   6.587
 5955POPC   C3A74585   3.233  10.742   6.870
 5955POPC   C4A74586   3.324  10.719   7.288
 5955POPC   C1B74587   3.614  10.256   6.080
 5955POPC   C2B74588   3.586  10.139   6.528
 5955POPC   C3B74589   3.525  10.310   6.971
 5955POPC   C4B74590   3.374  10.103   7.338
 5956POPC   NC374591   6.138  19.588   5.476
 5956POPC   PO474592   6.221  18.862   5.496
 5956POPC   GL174593   5.938  19.048   5.831
 5956POPC   GL274594   5.755  19.349   5.742
 5956POPC   C1A74595   5.677  18.889   6.177
 5956POPC   D2A74596   5.537  18.704   6.565
 5956POPC   C3A74597   5.818  18.776   6.911
 5956POPC   C4A74598   5.795  19.027   7.245
 5956POPC   C1B74599   5.766  19.408   6.181
 5956POPC   C2B74600   5.794  19.205   6.597
 5956POPC   C3B74601   6.096  19.269   6.929
 5956POPC   C4B74602   6.225  19.276   7.346
 5957POPC   NC374603  16.229   6.353   5.488
 5957POPC   PO474604  15.902   6.820   5.423
 5957POPC   GL174605  15.989   6.671   5.830
 5957POPC   GL274606  15.621   6.690   5.885
 5957POPC   C1A74607  16.246   6.800   6.198
 5957POPC   D2A74608  16.147   7.042   6.568
 5957POPC   C3A74609  16.112   6.830   6.952
 5957POPC   C4A74610  15.742   6.850   7.193
 5957POPC   C1B74611  15.745   6.759   6.330
 5957POPC   C2B74612  15.681   6.596   6.753
 5957POPC   C3B74613  15.832   6.348   7.130
 5957POPC   C4B74614  16.116   6.326   7.482
 5958POPC   NC374615  28.415  18.940   5.351
 5958POPC   PO474616  28.388  19.634   5.545
 5958POPC   GL174617  28.469  19.254   5.771
 5958POPC   GL274618  28.156  19.044   5.777
 5958POPC   C1A74619  28.535  18.948   6.130
 5958POPC   D2A74620  28.391  18.978   6.587
 5958POPC   C3A74621  28.280  18.715   6.967
 5958POPC   C4A74622  28.384  18.840   7.388
 5958POPC   C1B74623  28.131  19.259   6.179
 5958POPC   C2B74624  27.935  19.285   6.582
 5958POPC   C3B74625  28.148  19.224   6.990
 5958POPC   C4B74626  28.401  19.460   7.301
 5959POPC   NC374627  44.172  11.615   5.573
 5959POPC   PO474628  44.670  11.236   5.210
 5959POPC   GL174629  44.479  11.207   5.616
 5959POPC   GL274630  44.705  11.448   5.787
 5959POPC   C1A74631  44.430  11.108   6.069
 5959POPC   D2A74632  44.522  10.928   6.499
 5959POPC   C3A74633  44.495  11.054   6.946
 5959POPC   C4A74634  44.802  11.174   7.231
 5959POPC   C1B74635  44.512  11.614   6.177
 5959POPC   C2B74636  44.416  11.464   6.594
 5959POPC   C3B74637  44.586  11.562   6.986
 5959POPC   C4B74638  44.394  11.422   7.385
 5960POPC   NC374639  21.336  42.526   5.406
 5960POPC   PO474640  21.010  41.948   5.538
 5960POPC   GL174641  21.239  42.228   5.845
 5960POPC   GL274642  21.588  42.343   5.801
 5960POPC   C1A74643  21.423  42.250   6.267
 5960POPC   D2A74644  21.431  41.964   6.591
 5960POPC   C3A74645  21.281  42.262   6.820
 5960POPC   C4A74646  21.352  42.344   7.217
 5960POPC   C1B74647  21.746  42.620   6.099
 5960POPC   C2B74648  21.601  42.667   6.535
 5960POPC   C3B74649  21.791  42.687   6.923
 5960POPC   C4B74650  21.672  42.714   7.335
 5961POPC   NC374651  29.668  23.472   5.344
 5961POPC   PO474652  29.286  24.061   5.361
 5961POPC   GL174653  29.299  23.706   5.698
 5961POPC   GL274654  29.595  23.550   5.872
 5961POPC   C1A74655  29.078  23.501   6.058
 5961POPC   D2A74656  28.925  23.529   6.480
 5961POPC   C3A74657  29.208  23.474   6.825
 5961POPC   C4A74658  29.064  23.622   7.192
 5961POPC   C1B74659  29.457  23.818   6.212
 5961POPC   C2B74660  29.257  23.931   6.585
 5961POPC   C3B74661  29.392  23.958   6.993
 5961POPC   C4B74662  29.581  23.646   7.173
 5962POPC   NC374663   6.564  10.788   5.409
 5962POPC   PO474664   6.513  10.134   5.468
 5962POPC   GL174665   6.492  10.378   5.816
 5962POPC   GL274666   6.785  10.559   5.812
 5962POPC   C1A74667   6.632  10.346   6.250
 5962POPC   D2A74668   6.540  10.253   6.672
 5962POPC   C3A74669   6.293  10.449   6.985
 5962POPC   C4A74670   6.622  10.272   7.210
 5962POPC   C1B74671   6.586  10.858   6.118
 5962POPC   C2B74672   6.497  10.753   6.558
 5962POPC   C3B74673   6.706  10.728   6.961
 5962POPC   C4B74674   6.616  10.752   7.411
 5963POPC   NC374675   7.641  37.244   5.484
 5963POPC   PO474676   7.437  37.798   5.026
 5963POPC   GL174677   7.428  37.714   5.540
 5963POPC   GL274678   7.197  37.497   5.693
 5963POPC   C1A74679   7.450  37.738   6.054
 5963POPC   D2A74680   7.389  37.575   6.507
 5963POPC   C3A74681   7.644  37.633   6.911
 5963POPC   C4A74682   7.776  38.052   7.126
 5963POPC   C1B74683   7.040  37.399   6.120
 5963POPC   C2B74684   6.974  37.266   6.545
 5963POPC   C3B74685   7.151  37.436   6.952
 5963POPC   C4B74686   7.134  37.340   7.383
 5964POPC   NC374687  19.286   9.869   5.542
 5964POPC   PO474688  18.723   9.629   5.429
 5964POPC   GL174689  18.849   9.462   5.835
 5964POPC   GL274690  19.207   9.456   5.876
 5964POPC   C1A74691  18.888   9.606   6.281
 5964POPC   D2A74692  18.880   9.922   6.589
 5964POPC   C3A74693  18.919   9.680   6.936
 5964POPC   C4A74694  18.917   9.326   7.231
 5964POPC   C1B74695  19.393   9.682   6.204
 5964POPC   C2B74696  19.309   9.618   6.618
 5964POPC   C3B74697  19.400   9.849   6.945
 5964POPC   C4B74698  19.648   9.955   7.234
 5965POPC   NC374699  29.396   2.676   5.430
 5965POPC   PO474700  28.771   2.804   5.582
 5965POPC   GL174701  29.112   2.824   5.827
 5965POPC   GL274702  29.110   2.511   5.921
 5965POPC   C1A74703  29.262   2.949   6.242
 5965POPC   D2A74704  29.121   3.099   6.652
 5965POPC   C3A74705  29.272   2.810   6.962
 5965POPC   C4A74706  29.419   2.844   7.379
 5965POPC   C1B74707  28.797   2.728   6.227
 5965POPC   C2B74708  28.864   2.639   6.658
 5965POPC   C3B74709  28.853   2.514   7.058
 5965POPC   C4B74710  28.907   2.645   7.455
 5966POPC   NC374711  15.655  41.200   5.317
 5966POPC   PO474712  16.067  40.675   5.261
 5966POPC   GL174713  15.888  40.651   5.722
 5966POPC   GL274714  16.166  40.385   5.825
 5966POPC   C1A74715  15.717  40.892   6.139
 5966POPC   D2A74716  15.854  41.121   6.552
 5966POPC   C3A74717  15.876  40.963   6.952
 5966POPC   C4A74718  15.707  40.834   7.297
 5966POPC   C1B74719  15.925  40.447   6.206
 5966POPC   C2B74720  15.724  40.622   6.603
 5966POPC   C3B74721  15.829  40.436   7.027
 5966POPC   C4B74722  15.958  40.356   7.483
 5967POPC   NC374723   2.439  17.632   5.455
 5967POPC   PO474724   2.869  17.162   5.454
 5967POPC   GL174725   2.812  17.430   5.807
 5967POPC   GL274726   2.555  17.251   5.908
 5967POPC   C1A74727   2.719  17.624   6.241
 5967POPC   D2A74728   2.754  17.463   6.671
 5967POPC   C3A74729   2.729  17.677   7.075
 5967POPC   C4A74730   2.514  17.770   7.499
 5967POPC   C1B74731   2.744  17.102   6.287
 5967POPC   C2B74732   2.549  16.986   6.691
 5967POPC   C3B74733   2.351  17.163   7.023
 5967POPC   C4B74734   2.635  17.252   7.337
 5968POPC   NC374735   5.711  13.911   5.201
 5968POPC   PO474736   5.419  13.357   5.521
 5968POPC   GL174737   5.772  13.384   5.875
 5968POPC   GL274738   6.150  13.406   6.010
 5968POPC   C1A74739   5.765  13.599   6.290
 5968POPC   D2A74740   5.583  13.693   6.673
 5968POPC   C3A74741   5.781  13.567   7.042
 5968POPC   C4A74742   5.466  13.721   7.254
 5968POPC   C1B74743   6.238  13.774   6.306
 5968POPC   C2B74744   6.155  13.763   6.743
 5968POPC   C3B74745   6.249  13.825   7.179
 5968POPC   C4B74746   6.442  13.891   7.626
 5969POPC   NC374747   2.951  29.062   5.430
 5969POPC   PO474748   2.295  29.154   5.437
 5969POPC   GL174749   2.589  29.202   5.779
 5969POPC   GL274750   2.592  28.850   5.845
 5969POPC   C1A74751   2.739  29.335   6.203
 5969POPC   D2A74752   2.686  29.119   6.593
 5969POPC   C3A74753   2.748  29.328   6.994
 5969POPC   C4A74754   2.584  29.304   7.409
 5969POPC   C1B74755   2.947  28.864   6.087
 5969POPC   C2B74756   3.103  28.859   6.504
 5969POPC   C3B74757   2.963  28.824   6.910
 5969POPC   C4B74758   2.925  28.893   7.334
 5970POPC   NC374759  33.313  35.505   5.404
 5970POPC   PO474760  32.835  35.009   5.379
 5970POPC   GL174761  33.063  35.200   5.750
 5970POPC   GL274762  32.862  35.529   5.807
 5970POPC   C1A74763  33.212  35.381   6.171
 5970POPC   D2A74764  33.029  35.605   6.557
 5970POPC   C3A74765  33.161  35.506   6.970
 5970POPC   C4A74766  33.360  35.122   7.043
 5970POPC   C1B74767  32.724  35.272   6.182
 5970POPC   C2B74768  32.927  35.106   6.566
 5970POPC   C3B74769  32.792  35.129   6.952
 5970POPC   C4B74770  32.674  35.465   7.160
 5971POPC   NC374771  41.990  28.573   5.602
 5971POPC   PO474772  41.515  28.442   5.092
 5971POPC   GL174773  41.514  28.357   5.589
 5971POPC   GL274774  41.542  28.663   5.780
 5971POPC   C1A74775  41.611  28.261   6.080
 5971POPC   D2A74776  41.670  28.012   6.485
 5971POPC   C3A74777  41.512  28.231   6.857
 5971POPC   C4A74778  41.594  28.239   7.275
 5971POPC   C1B74779  41.543  28.789   6.226
 5971POPC   C2B74780  41.460  28.731   6.682
 5971POPC   C3B74781  41.361  28.699   7.128
 5971POPC   C4B74782  41.243  28.517   7.523
 5972POPC   NC374783  22.569  40.833   5.299
 5972POPC   PO474784  23.099  40.505   5.323
 5972POPC   GL174785  23.036  40.596   5.762
 5972POPC   GL274786  22.727  40.728   5.771
 5972POPC   C1A74787  23.260  40.493   6.163
 5972POPC   D2A74788  23.421  40.691   6.543
 5972POPC   C3A74789  23.306  40.609   6.957
 5972POPC   C4A74790  23.045  40.714   7.288
 5972POPC   C1B74791  22.865  40.858   6.178
 5972POPC   C2B74792  22.930  40.850   6.607
 5972POPC   C3B74793  22.725  40.930   6.969
 5972POPC   C4B74794  22.667  41.094   7.361
 5973POPC   NC374795  26.770   4.614   5.461
 5973POPC   PO474796  27.089   4.036   5.574
 5973POPC   GL174797  26.840   4.250   5.856
 5973POPC   GL274798  27.112   4.499   5.857
 5973POPC   C1A74799  26.673   4.111   6.264
 5973POPC   D2A74800  26.897   4.118   6.696
 5973POPC   C3A74801  26.676   4.232   7.079
 5973POPC   C4A74802  26.374   4.261   7.425
 5973POPC   C1B74803  27.021   4.479   6.281
 5973POPC   C2B74804  26.927   4.707   6.605
 5973POPC   C3B74805  27.030   4.598   6.990
 5973POPC   C4B74806  27.195   4.238   7.215
 5974POPC   NC374807  16.928  23.551   5.319
 5974POPC   PO474808  16.390  23.912   5.545
 5974POPC   GL174809  16.575  23.597   5.783
 5974POPC   GL274810  16.877  23.366   5.808
 5974POPC   C1A74811  16.555  23.631   6.199
 5974POPC   D2A74812  16.387  23.791   6.593
 5974POPC   C3A74813  16.659  23.718   6.932
 5974POPC   C4A74814  16.631  23.481   7.274
 5974POPC   C1B74815  17.037  23.724   6.070
 5974POPC   C2B74816  16.937  23.748   6.512
 5974POPC   C3B74817  17.168  23.613   6.879
 5974POPC   C4B74818  17.103  23.278   7.176
 5975POPC   NC374819  41.733  41.748   5.364
 5975POPC   PO474820  41.125  41.611   5.504
 5975POPC   GL174821  41.358  41.642   5.877
 5975POPC   GL274822  41.576  41.921   5.823
 5975POPC   C1A74823  41.228  41.737   6.303
 5975POPC   D2A74824  41.048  41.696   6.712
 5975POPC   C3A74825  41.304  41.648   7.109
 5975POPC   C4A74826  41.276  41.504   7.543
 5975POPC   C1B74827  41.737  41.853   6.224
 5975POPC   C2B74828  41.931  41.729   6.607
 5975POPC   C3B74829  41.923  41.854   7.043
 5975POPC   C4B74830  41.730  41.740   7.457
 5976POPC   NC374831  10.474  18.736   5.375
 5976POPC   PO474832  10.649  19.341   5.233
 5976POPC   GL174833  10.471  19.294   5.699
 5976POPC   GL274834  10.554  18.960   5.882
 5976POPC   C1A74835  10.586  19.377   6.169
 5976POPC   D2A74836  10.575  19.080   6.548
 5976POPC   C3A74837  10.820  19.235   6.921
 5976POPC   C4A74838  10.749  19.348   7.354
 5976POPC   C1B74839  10.231  18.799   6.232
 5976POPC   C2B74840  10.124  18.811   6.676
 5976POPC   C3B74841  10.245  18.664   7.052
 5976POPC   C4B74842  10.510  18.931   7.207
 5977POPC   NC374843  32.847  26.517   5.200
 5977POPC   PO474844  32.811  25.883   5.450
 5977POPC   GL174845  33.159  25.896   5.763
 5977POPC   GL274846  33.171  26.171   5.925
 5977POPC   C1A74847  33.292  25.791   6.242
 5977POPC   D2A74848  33.335  26.108   6.636
 5977POPC   C3A74849  33.160  26.004   7.047
 5977POPC   C4A74850  32.775  25.800   7.137
 5977POPC   C1B74851  33.055  26.359   6.291
 5977POPC   C2B74852  33.093  26.584   6.681
 5977POPC   C3B74853  33.230  26.518   7.103
 5977POPC   C4B74854  32.900  26.351   7.413
 5978POPC   NC374855  39.615  24.594   5.241
 5978POPC   PO474856  39.056  24.257   5.357
 5978POPC   GL174857  39.153  24.492   5.736
 5978POPC   GL274858  38.889  24.710   5.846
 5978POPC   C1A74859  39.329  24.483   6.168
 5978POPC   D2A74860  39.348  24.552   6.609
 5978POPC   C3A74861  39.191  24.296   6.927
 5978POPC   C4A74862  39.187  24.364   7.346
 5978POPC   C1B74863  38.949  24.823   6.290
 5978POPC   C2B74864  38.988  24.904   6.739
 5978POPC   C3B74865  39.206  24.805   7.102
 5978POPC   C4B74866  39.224  24.803   7.583
 5979POPC   NC374867  19.628  27.592   5.158
 5979POPC   PO474868  19.733  26.930   5.257
 5979POPC   GL174869  19.845  26.834   5.683
 5979POPC   GL274870  20.192  26.658   5.653
 5979POPC   C1A74871  19.806  27.042   6.099
 5979POPC   D2A74872  19.703  26.961   6.541
 5979POPC   C3A74873  19.615  27.145   6.946
 5979POPC   C4A74874  19.798  27.011   7.344
 5979POPC   C1B74875  20.113  26.587   6.106
 5979POPC   C2B74876  19.942  26.506   6.525
 5979POPC   C3B74877  20.037  26.551   6.941
 5979POPC   C4B74878  19.890  26.517   7.360
 5980POPC   NC374879  34.989  18.433   5.483
 5980POPC   PO474880  35.566  18.705   5.220
 5980POPC   GL174881  35.584  18.572   5.753
 5980POPC   GL274882  35.362  18.290   5.800
 5980POPC   C1A74883  35.387  18.546   6.233
 5980POPC   D2A74884  35.258  18.326   6.610
 5980POPC   C3A74885  35.448  18.387   7.017
 5980POPC   C4A74886  35.427  18.573   7.458
 5980POPC   C1B74887  35.375  18.037   6.193
 5980POPC   C2B74888  35.162  17.841   6.580
 5980POPC   C3B74889  35.263  17.919   6.979
 5980POPC   C4B74890  35.371  18.075   7.410
 5981POPC   NC374891  17.773   5.390   5.429
 5981POPC   PO474892  17.336   6.025   5.365
 5981POPC   GL174893  17.508   6.025   5.781
 5981POPC   GL274894  17.591   5.682   5.817
 5981POPC   C1A74895  17.352   5.974   6.217
 5981POPC   D2A74896  17.139   5.928   6.629
 5981POPC   C3A74897  17.368   6.104   6.979
 5981POPC   C4A74898  17.698   6.048   7.233
 5981POPC   C1B74899  17.707   5.601   6.242
 5981POPC   C2B74900  17.620   5.760   6.657
 5981POPC   C3B74901  17.552   5.582   7.062
 5981POPC   C4B74902  17.832   5.608   7.423
 5982POPC   NC374903  34.109  32.358   5.523
 5982POPC   PO474904  34.706  31.961   5.509
 5982POPC   GL174905  34.587  32.283   5.805
 5982POPC   GL274906  34.623  31.992   6.034
 5982POPC   C1A74907  34.414  32.406   6.228
 5982POPC   D2A74908  34.588  32.218   6.596
 5982POPC   C3A74909  34.552  32.406   7.009
 5982POPC   C4A74910  34.433  32.439   7.433
 5982POPC   C1B74911  35.005  31.850   6.238
 5982POPC   C2B74912  35.075  32.037   6.617
 5982POPC   C3B74913  34.824  31.959   6.978
 5982POPC   C4B74914  34.761  31.956   7.421
 5983POPC   NC374915  38.714  16.041   5.389
 5983POPC   PO474916  38.044  16.253   5.294
 5983POPC   GL174917  38.228  16.223   5.692
 5983POPC   GL274918  37.869  16.271   5.794
 5983POPC   C1A74919  38.520  16.072   6.056
 5983POPC   D2A74920  38.511  15.709   6.367
 5983POPC   C3A74921  38.579  15.789   6.819
 5983POPC   C4A74922  38.619  15.534   7.209
 5983POPC   C1B74923  38.021  16.096   6.156
 5983POPC   C2B74924  38.260  16.166   6.512
 5983POPC   C3B74925  38.121  16.133   6.912
 5983POPC   C4B74926  38.396  16.042   7.254
 5984POPC   NC374927  25.041   7.875   5.627
 5984POPC   PO474928  25.322   7.292   5.321
 5984POPC   GL174929  25.336   7.144   5.754
 5984POPC   GL274930  25.014   7.311   5.828
 5984POPC   C1A74931  25.405   7.274   6.206
 5984POPC   D2A74932  25.274   7.623   6.515
 5984POPC   C3A74933  25.526   7.677   6.900
 5984POPC   C4A74934  25.480   7.465   7.324
 5984POPC   C1B74935  24.893   7.183   6.245
 5984POPC   C2B74936  25.108   7.142   6.655
 5984POPC   C3B74937  25.076   7.436   6.996
 5984POPC   C4B74938  24.976   7.371   7.432
 5985POPC   NC374939  23.382  44.269   5.182
 5985POPC   PO474940  23.798  44.818   5.383
 5985POPC   GL174941  23.738  44.955   5.833
 5985POPC   GL274942  23.603  44.657   5.861
 5985POPC   C1A74943  23.494  44.918   6.280
 5985POPC   D2A74944  23.353   0.186   6.609
 5985POPC   C3A74945  23.388  44.981   7.021
 5985POPC   C4A74946  23.737  44.896   7.276
 5985POPC   C1B74947  23.904  44.625   6.230
 5985POPC   C2B74948  23.797  44.731   6.677
 5985POPC   C3B74949  23.864  44.485   7.036
 5985POPC   C4B74950  23.630  44.402   7.409
 5986POPC   NC374951   3.473  12.253   5.306
 5986POPC   PO474952   3.166  11.614   5.522
 5986POPC   GL174953   3.302  11.836   5.905
 5986POPC   GL274954   3.478  12.135   5.811
 5986POPC   C1A74955   3.322  12.016   6.317
 5986POPC   D2A74956   3.349  12.343   6.634
 5986POPC   C3A74957   3.328  12.152   7.050
 5986POPC   C4A74958   3.616  12.083   7.426
 5986POPC   C1B74959   3.792  11.962   6.118
 5986POPC   C2B74960   3.774  12.065   6.554
 5986POPC   C3B74961   3.835  12.135   6.974
 5986POPC   C4B74962   3.957  12.443   7.311
 5987POPC   NC374963  26.979  17.854   4.977
 5987POPC   PO474964  26.982  17.471   5.537
 5987POPC   GL174965  26.740  17.523   5.925
 5987POPC   GL274966  26.576  17.814   5.784
 5987POPC   C1A74967  26.808  17.479   6.410
 5987POPC   D2A74968  26.906  17.621   6.845
 5987POPC   C3A74969  26.945  17.305   7.162
 5987POPC   C4A74970  27.114  16.959   7.402
 5987POPC   C1B74971  26.654  17.947   6.225
 5987POPC   C2B74972  26.486  17.884   6.661
 5987POPC   C3B74973  26.472  17.720   7.104
 5987POPC   C4B74974  26.731  17.668   7.455
 5988POPC   NC374975  12.460  21.938   5.423
 5988POPC   PO474976  12.894  22.400   5.569
 5988POPC   GL174977  12.902  22.234   5.935
 5988POPC   GL274978  12.625  22.065   5.895
 5988POPC   C1A74979  12.895  22.233   6.369
 5988POPC   D2A74980  13.182  22.124   6.687
 5988POPC   C3A74981  12.907  22.067   6.990
 5988POPC   C4A74982  12.672  22.413   7.124
 5988POPC   C1B74983  12.485  21.906   6.257
 5988POPC   C2B74984  12.715  21.750   6.571
 5988POPC   C3B74985  12.531  21.686   6.872
 5988POPC   C4B74986  12.420  21.961   7.155
 5989POPC   NC374987  15.046  39.684   5.434
 5989POPC   PO474988  15.412  40.193   5.465
 5989POPC   GL174989  15.209  40.040   5.786
 5989POPC   GL274990  15.409  39.730   5.812
 5989POPC   C1A74991  15.033  39.933   6.144
 5989POPC   D2A74992  15.065  40.087   6.558
 5989POPC   C3A74993  14.831  40.191   6.910
 5989POPC   C4A74994  14.988  40.292   7.328
 5989POPC   C1B74995  15.504  39.755   6.247
 5989POPC   C2B74996  15.370  39.691   6.662
 5989POPC   C3B74997  15.226  39.877   7.051
 5989POPC   C4B74998  15.130  39.760   7.479
 5990POPC   NC374999  29.470  26.925   5.436
 5990POPC   PO475000  30.023  26.701   5.526
 5990POPC   GL175001  29.857  26.771   5.930
 5990POPC   GL275002  29.584  27.012   5.946
 5990POPC   C1A75003  29.993  26.562   6.327
 5990POPC   D2A75004  30.126  26.380   6.734
 5990POPC   C3A75005  29.954  26.610   7.085
 5990POPC   C4A75006  30.095  26.850   7.487
 5990POPC   C1B75007  29.821  27.049   6.371
 5990POPC   C2B75008  29.966  27.075   6.811
 5990POPC   C3B75009  29.747  27.053   7.181
 5990POPC   C4B75010  29.360  27.167   7.319
 5991POPC   NC375011   7.927  30.861   5.479
 5991POPC   PO475012   8.342  30.402   5.652
 5991POPC   GL175013   8.006  30.426   5.896
 5991POPC   GL275014   8.072  30.801   5.952
 5991POPC   C1A75015   8.037  30.502   6.329
 5991POPC   D2A75016   8.071  30.884   6.518
 5991POPC   C3A75017   8.067  30.694   6.892
 5991POPC   C4A75018   8.092  30.600   7.303
 5991POPC   C1B75019   8.469  30.759   6.187
 5991POPC   C2B75020   8.596  30.955   6.544
 5991POPC   C3B75021   8.385  31.102   6.894
 5991POPC   C4B75022   8.531  30.772   7.145
 5992POPC   NC375023   0.589  27.279   5.223
 5992POPC   PO475024   0.562  26.693   5.458
 5992POPC   GL175025   0.354  26.837   5.799
 5992POPC   GL275026   0.610  27.085   5.819
 5992POPC   C1A75027   0.216  26.613   6.185
 5992POPC   D2A75028   0.059  26.602   6.621
 5992POPC   C3A75029   0.399  26.742   6.890
 5992POPC   C4A75030   0.484  26.687   7.277
 5992POPC   C1B75031   0.779  27.194   6.229
 5992POPC   C2B75032   0.809  27.290   6.664
 5992POPC   C3B75033   0.774  27.071   7.085
 5992POPC   C4B75034   0.664  27.078   7.560
 5993POPC   NC375035  34.133  33.165   5.516
 5993POPC   PO475036  33.663  32.644   5.299
 5993POPC   GL175037  33.699  32.941   5.701
 5993POPC   GL275038  33.421  32.972   5.873
 5993POPC   C1A75039  33.812  33.084   6.174
 5993POPC   D2A75040  34.168  33.079   6.508
 5993POPC   C3A75041  34.027  33.098   6.938
 5993POPC   C4A75042  33.647  33.052   7.154
 5993POPC   C1B75043  33.330  32.879   6.303
 5993POPC   C2B75044  33.575  32.884   6.667
 5993POPC   C3B75045  33.504  32.582   6.983
 5993POPC   C4B75046  33.541  32.516   7.419
 5994POPC   NC375047  39.378  26.465   5.513
 5994POPC   PO475048  39.511  27.193   5.456
 5994POPC   GL175049  39.426  26.908   5.788
 5994POPC   GL275050  39.078  26.767   5.859
 5994POPC   C1A75051  39.510  26.922   6.215
 5994POPC   D2A75052  39.262  26.779   6.552
 5994POPC   C3A75053  39.333  26.815   6.984
 5994POPC   C4A75054  39.474  27.132   7.232
 5994POPC   C1B75055  38.810  26.946   6.197
 5994POPC   C2B75056  38.870  27.091   6.625
 5994POPC   C3B75057  38.825  26.864   7.025
 5994POPC   C4B75058  38.955  27.055   7.460
 5995POPC   NC375059   5.475  37.207   5.516
 5995POPC   PO475060   6.142  37.131   5.540
 5995POPC   GL175061   5.999  36.771   5.761
 5995POPC   GL275062   5.644  36.639   5.672
 5995POPC   C1A75063   6.152  36.838   6.171
 5995POPC   D2A75064   5.971  36.966   6.536
 5995POPC   C3A75065   6.163  36.844   6.895
 5995POPC   C4A75066   5.926  36.857   7.227
 5995POPC   C1B75067   5.612  36.779   6.101
 5995POPC   C2B75068   5.510  36.654   6.512
 5995POPC   C3B75069   5.503  36.834   6.923
 5995POPC   C4B75070   5.550  37.234   7.161
 5996POPC   NC375071  31.308  24.605   5.256
 5996POPC   PO475072  31.799  24.093   5.487
 5996POPC   GL175073  31.508  24.395   5.666
 5996POPC   GL275074  31.165  24.367   5.754
 5996POPC   C1A75075  31.488  24.670   6.014
 5996POPC   D2A75076  31.352  24.628   6.454
 5996POPC   C3A75077  31.360  24.469   6.850
 5996POPC   C4A75078  31.676  24.619   7.181
 5996POPC   C1B75079  30.982  24.674   6.117
 5996POPC   C2B75080  30.887  24.880   6.531
 5996POPC   C3B75081  31.166  24.923   6.878
 5996POPC   C4B75082  31.185  24.711   7.273
 5997POPC   NC375083   1.714   1.426   5.531
 5997POPC   PO475084   1.138   1.181   5.524
 5997POPC   GL175085   1.096   1.437   5.905
 5997POPC   GL275086   1.317   1.200   6.074
 5997POPC   C1A75087   0.992   1.562   6.334
 5997POPC   D2A75088   1.276   1.355   6.594
 5997POPC   C3A75089   1.260   1.169   6.997
 5997POPC   C4A75090   1.257   1.204   7.426
 5997POPC   C1B75091   1.713   1.234   6.357
 5997POPC   C2B75092   1.741   1.292   6.808
 5997POPC   C3B75093   1.725   0.981   7.159
 5997POPC   C4B75094   1.671   0.984   7.621
 5998POPC   NC375095   3.232  28.456   5.407
 5998POPC   PO475096   3.872  28.256   5.172
 5998POPC   GL175097   3.737  28.344   5.640
 5998POPC   GL275098   3.564  28.624   5.738
 5998POPC   C1A75099   3.639  28.261   6.108
 5998POPC   D2A75100   3.847  28.218   6.520
 5998POPC   C3A75101   3.557  28.178   6.858
 5998POPC   C4A75102   3.648  28.166   7.265
 5998POPC   C1B75103   3.446  28.752   6.139
 5998POPC   C2B75104   3.530  28.599   6.557
 5998POPC   C3B75105   3.574  28.698   6.999
 5998POPC   C4B75106   3.243  28.490   7.220
 5999POPC   NC375107  44.641  32.972   5.415
 5999POPC   PO475108   0.249  33.290   5.323
 5999POPC   GL175109  44.999  33.220   5.717
 5999POPC   GL275110   0.022  32.831   5.708
 5999POPC   C1A75111  44.827  33.225   6.161
 5999POPC   D2A75112  44.522  33.053   6.484
 5999POPC   C3A75113  44.581  33.044   6.958
 5999POPC   C4A75114  44.443  32.970   7.357
 5999POPC   C1B75115  44.714  32.732   6.053
 5999POPC   C2B75116  44.770  32.595   6.487
 5999POPC   C3B75117  44.743  32.575   6.950
 5999POPC   C4B75118  44.801  32.606   7.407
 6000POPC   NC375119  12.802  36.621   5.362
 6000POPC   PO475120  13.088  37.210   5.431
 6000POPC   GL175121  13.075  36.876   5.755
 6000POPC   GL275122  12.711  36.843   5.814
 6000POPC   C1A75123  13.017  36.677   6.174
 6000POPC   D2A75124  12.835  36.731   6.563
 6000POPC   C3A75125  13.145  36.910   6.864
 6000POPC   C4A75126  13.228  36.916   7.314
 6000POPC   C1B75127  12.529  36.517   6.104
 6000POPC   C2B75128  12.467  36.302   6.531
 6000POPC   C3B75129  12.605  36.462   6.923
 6000POPC   C4B75130  12.753  36.799   7.168
 6001POPC   NC375131  30.396   0.297   5.424
 6001POPC   PO475132  31.024   0.297   5.503
 6001POPC   GL175133  30.706   0.340   5.899
 6001POPC   GL275134  30.330   0.461   5.929
 6001POPC   C1A75135  30.716   0.364   6.390
 6001POPC   D2A75136  30.833   0.174   6.811
 6001POPC   C3A75137  30.695   0.369   7.184
 6001POPC   C4A75138  30.862   0.771   7.344
 6001POPC   C1B75139  30.228   0.251   6.347
 6001POPC   C2B75140  30.389  44.962   6.678
 6001POPC   C3B75141  30.413  44.917   7.138
 6001POPC   C4B75142  30.584   0.032   7.576
 6002POPC   NC375143   3.561  34.075   5.421
 6002POPC   PO475144   3.771  33.441   5.454
 6002POPC   GL175145   3.505  33.647   5.798
 6002POPC   GL275146   3.248  33.947   5.814
 6002POPC   C1A75147   3.549  33.799   6.254
 6002POPC   D2A75148   3.604  34.058   6.639
 6002POPC   C3A75149   3.617  33.889   7.048
 6002POPC   C4A75150   3.653  33.471   7.201
 6002POPC   C1B75151   3.065  33.646   6.121
 6002POPC   C2B75152   3.186  33.412   6.517
 6002POPC   C3B75153   3.188  33.589   6.962
 6002POPC   C4B75154   3.139  34.038   7.144
 6003POPC   NC375155   9.643  40.835   5.481
 6003POPC   PO475156   9.746  40.284   5.164
 6003POPC   GL175157   9.651  40.386   5.699
 6003POPC   GL275158   9.898  40.418   5.936
 6003POPC   C1A75159   9.506  40.721   6.093
 6003POPC   D2A75160   9.587  40.857   6.548
 6003POPC   C3A75161   9.435  41.092   6.899
 6003POPC   C4A75162   9.432  40.936   7.287
 6003POPC   C1B75163   9.992  40.722   6.258
 6003POPC   C2B75164  10.068  40.728   6.719
 6003POPC   C3B75165   9.903  40.991   7.092
 6003POPC   C4B75166   9.792  41.073   7.581
 6004POPC   NC375167  38.228  14.219   5.449
 6004POPC   PO475168  38.663  14.704   5.240
 6004POPC   GL175169  38.505  14.704   5.679
 6004POPC   GL275170  38.153  14.664   5.853
 6004POPC   C1A75171  38.643  14.721   6.124
 6004POPC   D2A75172  38.728  14.465   6.505
 6004POPC   C3A75173  38.461  14.272   6.841
 6004POPC   C4A75174  38.621  14.173   7.262
 6004POPC   C1B75175  38.194  14.599   6.335
 6004POPC   C2B75176  38.368  14.782   6.708
 6004POPC   C3B75177  38.388  14.677   7.136
 6004POPC   C4B75178  38.161  14.345   7.293
 6005POPC   NC375179  25.865   4.737   5.601
 6005POPC   PO475180  25.741   5.391   5.520
 6005POPC   GL175181  26.062   5.207   5.841
 6005POPC   GL275182  26.193   4.869   5.944
 6005POPC   C1A75183  26.181   5.336   6.266
 6005POPC   D2A75184  25.928   5.452   6.645
 6005POPC   C3A75185  25.869   5.111   6.950
 6005POPC   C4A75186  26.039   5.121   7.345
 6005POPC   C1B75187  25.973   4.857   6.323
 6005POPC   C2B75188  26.073   4.696   6.707
 6005POPC   C3B75189  26.364   4.701   7.051
 6005POPC   C4B75190  25.989   4.626   7.242
 6006POPC   NC375191  15.616   1.139   5.365
 6006POPC   PO475192  14.899   0.902   5.353
 6006POPC   GL175193  15.148   0.937   5.727
 6006POPC   GL275194  15.045   1.249   5.835
 6006POPC   C1A75195  15.414   1.008   6.106
 6006POPC   D2A75196  15.538   0.982   6.535
 6006POPC   C3A75197  15.338   1.016   6.929
 6006POPC   C4A75198  15.451   1.158   7.337
 6006POPC   C1B75199  14.948   1.175   6.271
 6006POPC   C2B75200  15.171   1.374   6.601
 6006POPC   C3B75201  15.108   1.487   7.037
 6006POPC   C4B75202  15.051   1.440   7.497
 6007POPC   NC375203  28.669  26.328   5.383
 6007POPC   PO475204  29.110  26.840   5.145
 6007POPC   GL175205  29.036  26.695   5.612
 6007POPC   GL275206  29.364  26.555   5.788
 6007POPC   C1A75207  29.034  26.793   6.093
 6007POPC   D2A75208  29.131  26.781   6.556
 6007POPC   C3A75209  29.009  27.056   6.880
 6007POPC   C4A75210  28.861  27.063   7.265
 6007POPC   C1B75211  29.492  26.594   6.242
 6007POPC   C2B75212  29.624  26.699   6.676
 6007POPC   C3B75213  29.411  26.719   7.033
 6007POPC   C4B75214  29.376  26.350   7.214
 6008POPC   NC375215  41.288   8.846   5.378
 6008POPC   PO475216  40.633   9.089   5.177
 6008POPC   GL175217  40.812   8.917   5.568
 6008POPC   GL275218  41.028   9.196   5.692
 6008POPC   C1A75219  40.853   8.860   6.048
 6008POPC   D2A75220  41.023   8.869   6.497
 6008POPC   C3A75221  40.756   8.758   6.886
 6008POPC   C4A75222  40.685   8.653   7.333
 6008POPC   C1B75223  41.236   9.262   6.109
 6008POPC   C2B75224  41.304   9.309   6.557
 6008POPC   C3B75225  41.132   9.141   6.923
 6008POPC   C4B75226  40.971   9.048   7.321
 6009POPC   NC375227   9.439   7.501   5.514
 6009POPC   PO475228   9.851   7.924   5.242
 6009POPC   GL175229   9.936   7.467   5.587
 6009POPC   GL275230   9.701   7.563   5.925
 6009POPC   C1A75231  10.090   7.300   6.057
 6009POPC   D2A75232   9.841   7.507   6.437
 6009POPC   C3A75233   9.708   7.452   6.897
 6009POPC   C4A75234   9.566   7.095   7.142
 6009POPC   C1B75235   9.382   7.770   6.182
 6009POPC   C2B75236   9.223   7.830   6.604
 6009POPC   C3B75237   9.366   7.857   7.018
 6009POPC   C4B75238   9.722   7.805   7.268
 6010POPC   NC375239   1.013  15.339   5.526
 6010POPC   PO475240   0.410  15.419   5.276
 6010POPC   GL175241   0.490  15.263   5.725
 6010POPC   GL275242   0.716  15.465   5.893
 6010POPC   C1A75243   0.528  15.038   6.146
 6010POPC   D2A75244   0.389  14.889   6.553
 6010POPC   C3A75245   0.681  14.879   6.919
 6010POPC   C4A75246   0.456  14.626   7.189
 6010POPC   C1B75247   0.626  15.539   6.264
 6010POPC   C2B75248   0.670  15.308   6.594
 6010POPC   C3B75249   0.448  15.318   6.944
 6010POPC   C4B75250   0.487  15.160   7.320
 6011POPC   NC375251  27.896  33.231   5.308
 6011POPC   PO475252  27.661  32.657   5.469
 6011POPC   GL175253  27.620  32.949   5.847
 6011POPC   GL275254  27.263  33.019   5.942
 6011POPC   C1A75255  27.671  32.960   6.325
 6011POPC   D2A75256  27.939  33.023   6.709
 6011POPC   C3A75257  27.710  33.248   6.992
 6011POPC   C4A75258  27.316  33.086   7.112
 6011POPC   C1B75259  27.197  32.706   6.278
 6011POPC   C2B75260  27.482  32.503   6.529
 6011POPC   C3B75261  27.595  32.665   6.928
 6011POPC   C4B75262  27.410  32.589   7.320
 6012POPC   NC375263  40.355  42.669   5.456
 6012POPC   PO475264  40.059  42.120   5.259
 6012POPC   GL175265  40.201  42.198   5.686
 6012POPC   GL275266  39.921  42.398   5.732
 6012POPC   C1A75267  40.246  42.232   6.148
 6012POPC   D2A75268  39.974  42.200   6.492
 6012POPC   C3A75269  40.174  42.336   6.844
 6012POPC   C4A75270  40.084  42.198   7.226
 6012POPC   C1B75271  39.878  42.596   6.123
 6012POPC   C2B75272  39.827  42.679   6.547
 6012POPC   C3B75273  39.764  42.606   6.990
 6012POPC   C4B75274  40.120  42.709   7.238
 6013POPC   NC375275  34.320  10.584   5.425
 6013POPC   PO475276  34.965  10.346   5.404
 6013POPC   GL175277  34.689  10.384   5.736
 6013POPC   GL275278  34.733  10.732   5.727
 6013POPC   C1A75279  34.383  10.471   6.078
 6013POPC   D2A75280  34.336  10.533   6.526
 6013POPC   C3A75281  34.701  10.403   6.755
 6013POPC   C4A75282  34.648  10.281   7.159
 6013POPC   C1B75283  34.606  10.944   6.098
 6013POPC   C2B75284  34.720  10.981   6.510
 6013POPC   C3B75285  34.590  10.874   6.917
 6013POPC   C4B75286  34.633  10.763   7.348
 6014POPC   NC375287   8.750  26.124   4.948
 6014POPC   PO475288   8.977  25.906   5.520
 6014POPC   GL175289   9.218  25.747   5.871
 6014POPC   GL275290   9.202  26.079   5.958
 6014POPC   C1A75291   9.121  25.763   6.319
 6014POPC   D2A75292   9.046  26.021   6.695
 6014POPC   C3A75293   9.185  25.843   7.072
 6014POPC   C4A75294   8.965  25.598   7.380
 6014POPC   C1B75295   8.859  26.231   6.268
 6014POPC   C2B75296   8.722  26.447   6.634
 6014POPC   C3B75297   8.870  26.361   7.059
 6014POPC   C4B75298   8.911  26.128   7.431
 6015POPC   NC375299  26.881  33.375   5.144
 6015POPC   PO475300  26.901  33.964   5.521
 6015POPC   GL175301  26.960  33.950   5.949
 6015POPC   GL275302  27.312  33.845   5.985
 6015POPC   C1A75303  26.622  33.949   6.260
 6015POPC   D2A75304  26.461  34.136   6.641
 6015POPC   C3A75305  26.611  33.888   6.996
 6015POPC   C4A75306  26.964  33.925   7.256
 6015POPC   C1B75307  27.039  33.510   6.200
 6015POPC   C2B75308  26.834  33.573   6.607
 6015POPC   C3B75309  27.056  33.503   6.998
 6015POPC   C4B75310  27.141  33.473   7.467
 6016POPC   NC375311  36.750   7.924   5.374
 6016POPC   PO475312  37.189   8.294   5.127
 6016POPC   GL175313  37.061   8.188   5.654
 6016POPC   GL275314  36.711   8.045   5.853
 6016POPC   C1A75315  37.110   8.092   6.122
 6016POPC   D2A75316  37.274   7.976   6.492
 6016POPC   C3A75317  37.116   7.887   6.898
 6016POPC   C4A75318  37.078   8.215   7.239
 6016POPC   C1B75319  36.695   8.395   6.182
 6016POPC   C2B75320  36.797   8.428   6.637
 6016POPC   C3B75321  36.634   8.163   6.970
 6016POPC   C4B75322  36.539   8.253   7.389
 6017POPC   NC375323  31.737   2.870   5.353
 6017POPC   PO475324  31.157   2.760   5.486
 6017POPC   GL175325  31.450   2.889   5.821
 6017POPC   GL275326  31.748   3.124   5.808
 6017POPC   C1A75327  31.399   2.800   6.259
 6017POPC   D2A75328  31.245   2.646   6.664
 6017POPC   C3A75329  31.451   2.738   7.063
 6017POPC   C4A75330  31.611   2.740   7.499
 6017POPC   C1B75331  31.652   3.274   6.208
 6017POPC   C2B75332  31.588   3.083   6.638
 6017POPC   C3B75333  31.721   3.176   7.055
 6017POPC   C4B75334  31.782   3.209   7.483
 6018POPC   NC375335  43.022  31.298   5.392
 6018POPC   PO475336  43.499  31.742   5.427
 6018POPC   GL175337  43.248  31.609   5.796
 6018POPC   GL275338  43.219  31.259   5.852
 6018POPC   C1A75339  43.038  31.587   6.210
 6018POPC   D2A75340  43.294  31.539   6.596
 6018POPC   C3A75341  43.048  31.603   6.951
 6018POPC   C4A75342  43.119  31.673   7.373
 6018POPC   C1B75343  43.276  31.132   6.271
 6018POPC   C2B75344  42.936  31.174   6.554
 6018POPC   C3B75345  42.896  31.106   6.961
 6018POPC   C4B75346  43.145  31.181   7.319
 6019POPC   NC375347  33.611  38.783   5.424
 6019POPC   PO475348  34.037  39.338   5.246
 6019POPC   GL175349  33.894  39.345   5.713
 6019POPC   GL275350  33.605  39.205   5.871
 6019POPC   C1A75351  33.944  39.512   6.136
 6019POPC   D2A75352  34.061  39.359   6.545
 6019POPC   C3A75353  33.727  39.322   6.846
 6019POPC   C4A75354  33.878  39.630   7.149
 6019POPC   C1B75355  33.708  39.079   6.290
 6019POPC   C2B75356  33.871  38.862   6.648
 6019POPC   C3B75357  33.730  38.822   7.068
 6019POPC   C4B75358  33.486  39.099   7.261
 6020POPC   NC375359   0.886  33.352   5.585
 6020POPC   PO475360   1.028  33.026   4.985
 6020POPC   GL175361   1.203  32.953   5.546
 6020POPC   GL275362   1.218  33.188   5.915
 6020POPC   C1A75363   1.262  32.723   6.021
 6020POPC   D2A75364   1.188  32.948   6.430
 6020POPC   C3A75365   1.230  32.829   6.900
 6020POPC   C4A75366   1.584  32.893   7.167
 6020POPC   C1B75367   0.999  33.438   6.240
 6020POPC   C2B75368   1.065  33.595   6.642
 6020POPC   C3B75369   1.211  33.338   6.959
 6020POPC   C4B75370   0.963  33.310   7.266
 6021POPC   NC375371  22.873  26.978   5.402
 6021POPC   PO475372  22.838  26.315   5.154
 6021POPC   GL175373  22.941  26.587   5.696
 6021POPC   GL275374  23.100  26.945   5.854
 6021POPC   C1A75375  22.718  26.808   6.144
 6021POPC   D2A75376  22.612  27.029   6.538
 6021POPC   C3A75377  22.879  26.904   6.873
 6021POPC   C4A75378  22.818  27.028   7.285
 6021POPC   C1B75379  23.354  26.606   6.060
 6021POPC   C2B75380  23.360  26.429   6.445
 6021POPC   C3B75381  23.332  26.675   6.818
 6021POPC   C4B75382  23.213  26.579   7.261
 6022POPC   NC375383  44.831  38.990   5.547
 6022POPC   PO475384  44.944  39.736   5.555
 6022POPC   GL175385  44.725  39.461   5.829
 6022POPC   GL275386  44.909  39.272   5.959
 6022POPC   C1A75387  44.641  39.506   6.294
 6022POPC   D2A75388  44.907  39.381   6.660
 6022POPC   C3A75389  44.756  39.462   7.107
 6022POPC   C4A75390  44.481  39.264   7.465
 6022POPC   C1B75391  44.847  39.004   6.302
 6022POPC   C2B75392  44.926  38.853   6.731
 6022POPC   C3B75393  44.779  38.950   7.167
 6022POPC   C4B75394  44.733  38.818   7.609
 6023POPC   NC375395   1.722  14.636   5.585
 6023POPC   PO475396   1.984  14.080   5.190
 6023POPC   GL175397   2.039  14.191   5.732
 6023POPC   GL275398   2.212  14.532   5.890
 6023POPC   C1A75399   1.863  14.328   6.197
 6023POPC   D2A75400   1.915  14.539   6.603
 6023POPC   C3A75401   1.848  14.405   7.041
 6023POPC   C4A75402   2.004  14.185   7.470
 6023POPC   C1B75403   2.236  14.851   6.288
 6023POPC   C2B75404   2.274  14.847   6.779
 6023POPC   C3B75405   2.064  14.878   7.209
 6023POPC   C4B75406   2.198  14.733   7.673
 6024POPC   NC375407  27.023  25.514   5.301
 6024POPC   PO475408  26.546  25.153   5.411
 6024POPC   GL175409  26.779  25.237   5.803
 6024POPC   GL275410  26.968  25.542   5.806
 6024POPC   C1A75411  26.832  25.065   6.257
 6024POPC   D2A75412  26.756  25.003   6.753
 6024POPC   C3A75413  27.014  24.917   7.180
 6024POPC   C4A75414  27.183  25.007   7.657
 6024POPC   C1B75415  26.732  25.600   6.168
 6024POPC   C2B75416  26.845  25.489   6.579
 6024POPC   C3B75417  27.043  25.372   6.963
 6024POPC   C4B75418  26.985  25.369   7.394
 6025POPC   NC375419  12.758  27.818   5.377
 6025POPC   PO475420  13.159  27.272   5.444
 6025POPC   GL175421  12.907  27.511   5.754
 6025POPC   GL275422  13.080  27.852   5.770
 6025POPC   C1A75423  12.717  27.701   6.127
 6025POPC   D2A75424  12.540  27.532   6.494
 6025POPC   C3A75425  12.723  27.760   6.840
 6025POPC   C4A75426  12.892  27.798   7.251
 6025POPC   C1B75427  13.220  27.617   6.139
 6025POPC   C2B75428  13.074  27.510   6.544
 6025POPC   C3B75429  13.234  27.591   6.959
 6025POPC   C4B75430  13.316  27.504   7.420
 6026POPC   NC375431  42.245  20.770   5.428
 6026POPC   PO475432  42.746  20.385   5.488
 6026POPC   GL175433  42.430  20.481   5.818
 6026POPC   GL275434  42.404  20.862   5.902
 6026POPC   C1A75435  42.157  20.304   6.152
 6026POPC   D2A75436  42.291  20.277   6.581
 6026POPC   C3A75437  42.577  20.627   6.685
 6026POPC   C4A75438  42.660  20.599   7.116
 6026POPC   C1B75439  41.983  20.777   6.091
 6026POPC   C2B75440  42.064  20.714   6.516
 6026POPC   C3B75441  42.164  20.706   6.958
 6026POPC   C4B75442  41.960  20.768   7.320
 6027POPC   NC375443  23.597   8.748   5.349
 6027POPC   PO475444  23.919   9.368   5.571
 6027POPC   GL175445  23.865   9.143   5.919
 6027POPC   GL275446  23.874   8.833   5.782
 6027POPC   C1A75447  23.833   9.061   6.354
 6027POPC   D2A75448  23.823   8.951   6.762
 6027POPC   C3A75449  23.545   9.131   7.025
 6027POPC   C4A75450  23.849   9.210   7.316
 6027POPC   C1B75451  23.621   8.655   6.106
 6027POPC   C2B75452  23.742   8.557   6.478
 6027POPC   C3B75453  23.683   8.472   6.913
 6027POPC   C4B75454  23.874   8.720   7.222
 6028POPC   NC375455  35.683  29.596   5.552
 6028POPC   PO475456  35.454  28.966   5.183
 6028POPC   GL175457  35.311  29.141   5.643
 6028POPC   GL275458  35.101  29.442   5.695
 6028POPC   C1A75459  35.271  28.965   6.102
 6028POPC   D2A75460  35.546  28.885   6.472
 6028POPC   C3A75461  35.520  28.874   6.946
 6028POPC   C4A75462  35.706  29.193   7.240
 6028POPC   C1B75463  35.316  29.480   6.120
 6028POPC   C2B75464  35.198  29.278   6.532
 6028POPC   C3B75465  35.242  29.359   6.977
 6028POPC   C4B75466  35.100  29.357   7.384
 6029POPC   NC375467  35.058  30.352   5.357
 6029POPC   PO475468  35.613  30.757   5.184
 6029POPC   GL175469  35.408  30.743   5.617
 6029POPC   GL275470  35.490  30.392   5.640
 6029POPC   C1A75471  35.293  30.909   6.069
 6029POPC   D2A75472  35.041  30.737   6.422
 6029POPC   C3A75473  35.161  30.644   6.843
 6029POPC   C4A75474  35.257  30.889   7.168
 6029POPC   C1B75475  35.305  30.379   6.039
 6029POPC   C2B75476  35.426  30.407   6.455
 6029POPC   C3B75477  35.505  30.226   6.849
 6029POPC   C4B75478  35.316  30.352   7.270
 6030POPC   NC375479  30.537  32.604   5.408
 6030POPC   PO475480  31.148  32.304   5.246
 6030POPC   GL175481  30.804  32.236   5.639
 6030POPC   GL275482  30.435  32.076   5.697
 6030POPC   C1A75483  30.697  32.234   6.087
 6030POPC   D2A75484  30.715  32.219   6.542
 6030POPC   C3A75485  30.950  32.354   6.897
 6030POPC   C4A75486  30.810  32.492   7.291
 6030POPC   C1B75487  30.268  31.965   6.168
 6030POPC   C2B75488  30.375  31.859   6.651
 6030POPC   C3B75489  30.499  32.153   7.023
 6030POPC   C4B75490  30.354  32.615   7.125
 6031POPC   NC375491  20.995  33.043   5.331
 6031POPC   PO475492  21.643  33.088   5.466
 6031POPC   GL175493  21.408  32.874   5.787
 6031POPC   GL275494  21.064  32.755   5.733
 6031POPC   C1A75495  21.361  33.068   6.202
 6031POPC   D2A75496  21.497  33.348   6.538
 6031POPC   C3A75497  21.315  33.334   6.933
 6031POPC   C4A75498  21.558  33.194   7.285
 6031POPC   C1B75499  21.056  32.660   6.159
 6031POPC   C2B75500  21.311  32.704   6.562
 6031POPC   C3B75501  21.185  32.850   6.986
 6031POPC   C4B75502  21.069  33.089   7.382
 6032POPC   NC375503  42.385   7.507   5.221
 6032POPC   PO475504  42.539   7.003   5.668
 6032POPC   GL175505  42.405   7.306   5.948
 6032POPC   GL275506  42.273   7.572   5.738
 6032POPC   C1A75507  42.155   7.219   6.334
 6032POPC   D2A75508  42.078   7.035   6.758
 6032POPC   C3A75509  42.398   7.202   7.010
 6032POPC   C4A75510  42.644   7.520   7.125
 6032POPC   C1B75511  42.124   7.712   6.139
 6032POPC   C2B75512  42.240   7.715   6.591
 6032POPC   C3B75513  42.086   7.677   7.018
 6032POPC   C4B75514  41.924   7.307   7.196
 6033POPC   NC375515   4.537   7.660   5.661
 6033POPC   PO475516   4.956   7.195   5.328
 6033POPC   GL175517   5.127   7.341   5.772
 6033POPC   GL275518   5.532   7.428   5.781
 6033POPC   C1A75519   4.884   7.462   6.167
 6033POPC   D2A75520   4.755   7.642   6.564
 6033POPC   C3A75521   4.977   7.603   6.920
 6033POPC   C4A75522   4.869   7.427   7.306
 6033POPC   C1B75523   5.390   7.513   6.205
 6033POPC   C2B75524   5.187   7.306   6.564
 6033POPC   C3B75525   5.191   7.145   7.009
 6033POPC   C4B75526   5.372   7.356   7.342
 6034POPC   NC375527  28.874  38.014   5.438
 6034POPC   PO475528  29.491  37.684   5.346
 6034POPC   GL175529  29.269  37.810   5.784
 6034POPC   GL275530  28.913  37.698   5.830
 6034POPC   C1A75531  29.143  37.697   6.259
 6034POPC   D2A75532  29.016  37.447   6.599
 6034POPC   C3A75533  29.304  37.520   6.911
 6034POPC   C4A75534  29.344  37.840   7.204
 6034POPC   C1B75535  28.730  37.974   6.142
 6034POPC   C2B75536  28.836  38.031   6.589
 6034POPC   C3B75537  28.862  37.785   6.977
 6034POPC   C4B75538  28.939  37.394   7.252
 6035POPC   NC375539  43.945  31.667   5.497
 6035POPC   PO475540  43.537  31.095   5.361
 6035POPC   GL175541  43.697  31.332   5.763
 6035POPC   GL275542  44.036  31.318   5.863
 6035POPC   C1A75543  43.663  31.497   6.219
 6035POPC   D2A75544  43.860  31.549   6.671
 6035POPC   C3A75545  43.566  31.546   7.055
 6035POPC   C4A75546  43.645  31.721   7.495
 6035POPC   C1B75547  44.190  31.478   6.248
 6035POPC   C2B75548  44.412  31.641   6.599
 6035POPC   C3B75549  44.297  31.700   7.014
 6035POPC   C4B75550  44.024  31.429   7.213
 6036POPC   NC375551  22.127  24.942   5.251
 6036POPC   PO475552  22.025  25.586   5.392
 6036POPC   GL175553  22.068  25.320   5.765
 6036POPC   GL275554  22.288  25.028   5.812
 6036POPC   C1A75555  22.090  25.345   6.229
 6036POPC   D2A75556  22.366  25.403   6.614
 6036POPC   C3A75557  22.168  25.604   6.989
 6036POPC   C4A75558  21.802  25.378   7.127
 6036POPC   C1B75559  22.496  24.960   6.243
 6036POPC   C2B75560  22.505  24.894   6.700
 6036POPC   C3B75561  22.375  25.128   7.065
 6036POPC   C4B75562  22.523  25.035   7.506
 6037POPC   NC375563  14.840   9.194   4.976
 6037POPC   PO475564  15.268   8.915   5.370
 6037POPC   GL175565  15.374   8.858   5.801
 6037POPC   GL275566  15.560   9.163   5.842
 6037POPC   C1A75567  15.550   8.806   6.212
 6037POPC   D2A75568  15.429   8.964   6.611
 6037POPC   C3A75569  15.377   8.765   7.006
 6037POPC   C4A75570  15.380   9.041   7.329
 6037POPC   C1B75571  15.222   9.251   6.135
 6037POPC   C2B75572  15.092   9.327   6.544
 6037POPC   C3B75573  15.056   9.199   6.948
 6037POPC   C4B75574  14.686   9.310   7.112
 6038POPC   NC375575  36.037  30.479   5.217
 6038POPC   PO475576  36.477  30.918   5.390
 6038POPC   GL175577  36.193  30.984   5.723
 6038POPC   GL275578  35.926  30.740   5.647
 6038POPC   C1A75579  36.119  31.017   6.166
 6038POPC   D2A75580  36.293  30.658   6.408
 6038POPC   C3A75581  36.191  30.664   6.840
 6038POPC   C4A75582  36.064  31.068   7.000
 6038POPC   C1B75583  35.732  30.679   6.043
 6038POPC   C2B75584  35.713  30.858   6.437
 6038POPC   C3B75585  35.658  30.748   6.821
 6038POPC   C4B75586  35.775  30.543   7.124
 6039POPC   NC375587  31.026  22.992   5.544
 6039POPC   PO475588  30.402  22.684   5.451
 6039POPC   GL175589  30.642  22.727   5.818
 6039POPC   GL275590  30.576  23.079   5.782
 6039POPC   C1A75591  30.852  22.926   6.199
 6039POPC   D2A75592  30.766  23.156   6.597
 6039POPC   C3A75593  30.756  22.845   6.926
 6039POPC   C4A75594  30.980  22.843   7.302
 6039POPC   C1B75595  30.353  23.045   6.144
 6039POPC   C2B75596  30.333  22.881   6.534
 6039POPC   C3B75597  30.301  23.120   6.901
 6039POPC   C4B75598  30.351  22.925   7.253
 6040POPC   NC375599   3.379  33.208   5.368
 6040POPC   PO475600   3.936  32.822   5.390
 6040POPC   GL175601   3.667  33.003   5.733
 6040POPC   GL275602   3.399  32.787   5.734
 6040POPC   C1A75603   3.471  33.098   6.151
 6040POPC   D2A75604   3.468  32.882   6.562
 6040POPC   C3A75605   3.416  33.089   6.945
 6040POPC   C4A75606   3.727  32.965   7.209
 6040POPC   C1B75607   3.378  32.573   6.165
 6040POPC   C2B75608   3.195  32.426   6.569
 6040POPC   C3B75609   3.124  32.669   6.920
 6040POPC   C4B75610   3.296  32.706   7.298
 6041POPC   NC375611  38.119  43.967   5.260
 6041POPC   PO475612  38.720  44.098   5.492
 6041POPC   GL175613  38.315  44.021   5.734
 6041POPC   GL275614  38.214  43.665   5.724
 6041POPC   C1A75615  38.076  44.029   6.121
 6041POPC   D2A75616  38.063  44.210   6.535
 6041POPC   C3A75617  38.218  43.953   6.850
 6041POPC   C4A75618  38.067  44.050   7.237
 6041POPC   C1B75619  38.471  43.701   6.100
 6041POPC   C2B75620  38.442  43.644   6.516
 6041POPC   C3B75621  38.717  43.746   6.858
 6041POPC   C4B75622  38.532  43.854   7.241
 6042POPC   NC375623  33.764  41.442   5.324
 6042POPC   PO475624  33.990  42.017   5.467
 6042POPC   GL175625  33.687  41.741   5.722
 6042POPC   GL275626  33.893  41.459   5.823
 6042POPC   C1A75627  33.444  41.653   6.113
 6042POPC   D2A75628  33.631  41.488   6.507
 6042POPC   C3A75629  33.768  41.617   6.906
 6042POPC   C4A75630  33.882  41.569   7.317
 6042POPC   C1B75631  33.911  41.804   6.160
 6042POPC   C2B75632  33.937  41.977   6.544
 6042POPC   C3B75633  34.157  41.940   6.917
 6042POPC   C4B75634  34.265  42.025   7.310
 6043POPC   NC375635  35.864  33.686   5.475
 6043POPC   PO475636  36.459  34.017   5.460
 6043POPC   GL175637  36.233  33.883   5.787
 6043POPC   GL275638  36.257  33.529   5.777
 6043POPC   C1A75639  36.175  34.055   6.177
 6043POPC   D2A75640  36.367  33.984   6.544
 6043POPC   C3A75641  36.179  34.188   6.852
 6043POPC   C4A75642  36.381  34.055   7.228
 6043POPC   C1B75643  35.981  33.588   6.169
 6043POPC   C2B75644  35.887  33.811   6.576
 6043POPC   C3B75645  35.965  33.765   7.028
 6043POPC   C4B75646  35.816  33.468   7.265
 6044POPC   NC375647  42.074   2.284   5.379
 6044POPC   PO475648  42.339   2.985   5.483
 6044POPC   GL175649  42.287   2.890   5.861
 6044POPC   GL275650  42.554   3.059   6.026
 6044POPC   C1A75651  42.159   2.752   6.230
 6044POPC   D2A75652  42.376   2.910   6.517
 6044POPC   C3A75653  42.146   2.915   6.839
 6044POPC   C4A75654  42.092   2.637   7.149
 6044POPC   C1B75655  42.642   2.612   6.170
 6044POPC   C2B75656  42.653   2.441   6.545
 6044POPC   C3B75657  42.568   2.583   6.966
 6044POPC   C4B75658  42.552   2.723   7.412
 6045POPC   NC375659  32.674  36.164   5.397
 6045POPC   PO475660  33.263  35.940   5.220
 6045POPC   GL175661  33.125  35.997   5.683
 6045POPC   GL275662  33.191  36.322   5.860
 6045POPC   C1A75663  33.038  35.919   6.151
 6045POPC   D2A75664  32.703  35.990   6.504
 6045POPC   C3A75665  32.824  35.943   6.943
 6045POPC   C4A75666  33.231  36.016   7.129
 6045POPC   C1B75667  32.813  36.392   6.097
 6045POPC   C2B75668  32.798  36.484   6.514
 6045POPC   C3B75669  32.767  36.474   6.937
 6045POPC   C4B75670  32.866  36.358   7.339
 6046POPC   NC375671  37.536  27.054   5.326
 6046POPC   PO475672  37.970  26.476   5.506
 6046POPC   GL175673  37.708  26.791   5.737
 6046POPC   GL275674  37.378  26.775   5.859
 6046POPC   C1A75675  37.758  27.051   6.121
 6046POPC   D2A75676  37.902  26.895   6.548
 6046POPC   C3A75677  37.698  26.984   6.963
 6046POPC   C4A75678  37.797  26.832   7.375
 6046POPC   C1B75679  37.497  26.656   6.301
 6046POPC   C2B75680  37.499  26.557   6.751
 6046POPC   C3B75681  37.532  26.419   7.212
 6046POPC   C4B75682  37.594  26.449   7.663
 6047POPC   NC375683  19.725  38.950   5.732
 6047POPC   PO475684  20.206  39.284   5.419
 6047POPC   GL175685  20.039  39.333   5.857
 6047POPC   GL275686  19.691  39.473   5.826
 6047POPC   C1A75687  20.025  39.134   6.290
 6047POPC   D2A75688  20.278  38.923   6.615
 6047POPC   C3A75689  20.029  38.916   7.027
 6047POPC   C4A75690  19.552  38.912   7.107
 6047POPC   C1B75691  19.517  39.374   6.240
 6047POPC   C2B75692  19.489  39.276   6.686
 6047POPC   C3B75693  19.595  39.415   7.100
 6047POPC   C4B75694  20.026  39.409   7.202
 6048POPC   NC375695  18.437   4.367   5.402
 6048POPC   PO475696  17.825   4.064   5.513
 6048POPC   GL175697  18.072   4.359   5.822
 6048POPC   GL275698  18.477   4.351   5.901
 6048POPC   C1A75699  18.148   4.337   6.284
 6048POPC   D2A75700  18.304   4.597   6.614
 6048POPC   C3A75701  18.367   4.447   7.011
 6048POPC   C4A75702  18.010   4.326   7.178
 6048POPC   C1B75703  18.502   3.978   6.175
 6048POPC   C2B75704  18.318   3.876   6.544
 6048POPC   C3B75705  18.466   3.930   6.932
 6048POPC   C4B75706  18.209   3.887   7.269
 6049POPC   NC375707  44.042  22.081   5.191
 6049POPC   PO475708  44.705  21.927   5.123
 6049POPC   GL175709  44.517  21.974   5.579
 6049POPC   GL275710  44.358  22.299   5.704
 6049POPC   C1A75711  44.529  21.915   6.061
 6049POPC   D2A75712  44.433  22.079   6.505
 6049POPC   C3A75713  44.678  22.107   6.879
 6049POPC   C4A75714  44.482  22.199   7.244
 6049POPC   C1B75715  44.424  22.447   6.148
 6049POPC   C2B75716  44.681  22.561   6.558
 6049POPC   C3B75717  44.965  22.558   6.954
 6049POPC   C4B75718  44.907  22.576   7.406
 6050POPC   NC375719  16.792  29.288   5.389
 6050POPC   PO475720  16.623  28.612   5.407
 6050POPC   GL175721  16.582  28.931   5.723
 6050POPC   GL275722  16.949  28.898   5.699
 6050POPC   C1A75723  16.558  29.233   6.092
 6050POPC   D2A75724  16.442  29.319   6.534
 6050POPC   C3A75725  16.605  29.176   6.958
 6050POPC   C4A75726  16.566  29.065   7.401
 6050POPC   C1B75727  16.930  28.873   6.118
 6050POPC   C2B75728  16.810  28.926   6.517
 6050POPC   C3B75729  16.871  28.762   6.876
 6050POPC   C4B75730  17.035  28.824   7.266
 6051POPC   NC375731  44.017  23.604   5.432
 6051POPC   PO475732  43.403  23.246   5.475
 6051POPC   GL175733  43.660  23.565   5.803
 6051POPC   GL275734  43.959  23.834   5.868
 6051POPC   C1A75735  43.572  23.798   6.180
 6051POPC   D2A75736  43.561  24.054   6.520
 6051POPC   C3A75737  43.571  23.869   6.915
 6051POPC   C4A75738  43.787  23.786   7.243
 6051POPC   C1B75739  44.011  23.554   6.240
 6051POPC   C2B75740  44.005  23.771   6.648
 6051POPC   C3B75741  44.257  23.796   7.068
 6051POPC   C4B75742  44.388  23.395   7.253
 6052POPC   NC375743  40.639  30.444   5.367
 6052POPC   PO475744  40.739  31.096   5.509
 6052POPC   GL175745  40.678  30.758   5.756
 6052POPC   GL275746  41.012  30.567   5.707
 6052POPC   C1A75747  40.522  30.546   6.094
 6052POPC   D2A75748  40.449  30.419   6.491
 6052POPC   C3A75749  40.536  30.646   6.864
 6052POPC   C4A75750  40.569  30.509   7.259
 6052POPC   C1B75751  41.037  30.776   6.116
 6052POPC   C2B75752  40.928  30.607   6.514
 6052POPC   C3B75753  41.004  30.434   6.927
 6052POPC   C4B75754  41.034  30.805   7.190
 6053POPC   NC375755  24.503  17.171   5.591
 6053POPC   PO475756  24.710  16.548   5.275
 6053POPC   GL175757  24.504  16.663   5.704
 6053POPC   GL275758  24.169  16.510   5.783
 6053POPC   C1A75759  24.574  16.794   6.160
 6053POPC   D2A75760  24.738  16.783   6.600
 6053POPC   C3A75761  24.537  16.751   7.032
 6053POPC   C4A75762  24.625  16.729   7.502
 6053POPC   C1B75763  24.095  16.682   6.177
 6053POPC   C2B75764  24.226  16.824   6.559
 6053POPC   C3B75765  24.036  16.833   6.932
 6053POPC   C4B75766  24.146  16.808   7.375
 6054POPC   NC375767   2.608  34.232   5.418
 6054POPC   PO475768   2.968  34.757   5.578
 6054POPC   GL175769   2.826  34.721   5.917
 6054POPC   GL275770   2.477  34.735   5.800
 6054POPC   C1A75771   2.977  34.489   6.308
 6054POPC   D2A75772   3.129  34.220   6.618
 6054POPC   C3A75773   3.009  34.484   6.916
 6054POPC   C4A75774   2.671  34.506   7.110
 6054POPC   C1B75775   2.491  34.541   6.213
 6054POPC   C2B75776   2.560  34.698   6.628
 6054POPC   C3B75777   2.249  34.781   6.990
 6054POPC   C4B75778   2.310  34.636   7.420
 6055POPC   NC375779  16.763  39.795   5.383
 6055POPC   PO475780  16.903  40.487   5.238
 6055POPC   GL175781  17.042  40.193   5.602
 6055POPC   GL275782  16.718  40.130   5.802
 6055POPC   C1A75783  17.204  40.079   6.039
 6055POPC   D2A75784  16.983  40.081   6.438
 6055POPC   C3A75785  17.048  40.103   6.873
 6055POPC   C4A75786  16.742  39.986   7.202
 6055POPC   C1B75787  16.596  39.868   6.180
 6055POPC   C2B75788  16.504  39.915   6.634
 6055POPC   C3B75789  16.453  39.619   6.973
 6055POPC   C4B75790  16.554  39.517   7.388
 6056POPC   NC375791  20.894  26.422   5.381
 6056POPC   PO475792  21.559  26.325   5.592
 6056POPC   GL175793  21.240  26.078   5.766
 6056POPC   GL275794  21.443  25.812   5.878
 6056POPC   C1A75795  21.150  26.016   6.223
 6056POPC   D2A75796  21.126  25.885   6.640
 6056POPC   C3A75797  21.279  26.223   6.912
 6056POPC   C4A75798  21.195  26.416   7.275
 6056POPC   C1B75799  21.635  25.671   6.242
 6056POPC   C2B75800  21.660  25.615   6.673
 6056POPC   C3B75801  21.448  25.755   7.017
 6056POPC   C4B75802  21.575  25.744   7.414
 6057POPC   NC375803  33.515  25.377   5.574
 6057POPC   PO475804  34.070  24.990   5.453
 6057POPC   GL175805  33.855  25.001   5.810
 6057POPC   GL275806  33.933  25.348   5.866
 6057POPC   C1A75807  33.662  25.078   6.206
 6057POPC   D2A75808  33.828  25.059   6.596
 6057POPC   C3A75809  33.555  25.148   6.914
 6057POPC   C4A75810  33.646  25.235   7.324
 6057POPC   C1B75811  34.082  25.391   6.277
 6057POPC   C2B75812  33.943  25.563   6.646
 6057POPC   C3B75813  33.554  25.670   6.838
 6057POPC   C4B75814  33.535  25.738   7.262
 6058POPC   NC375815  41.912  12.161   5.518
 6058POPC   PO475816  41.479  12.434   5.118
 6058POPC   GL175817  41.435  12.087   5.560
 6058POPC   GL275818  41.462  12.219   5.845
 6058POPC   C1A75819  41.690  11.844   6.031
 6058POPC   D2A75820  41.635  11.891   6.503
 6058POPC   C3A75821  41.822  11.831   6.913
 6058POPC   C4A75822  41.638  11.930   7.307
 6058POPC   C1B75823  41.505  12.330   6.249
 6058POPC   C2B75824  41.766  12.387   6.595
 6058POPC   C3B75825  41.534  12.245   6.929
 6058POPC   C4B75826  41.326  12.366   7.284
 6059POPC   NC375827  43.078  25.821   5.189
 6059POPC   PO475828  43.201  26.321   5.603
 6059POPC   GL175829  42.923  26.035   5.833
 6059POPC   GL275830  42.853  25.698   5.666
 6059POPC   C1A75831  42.868  26.063   6.303
 6059POPC   D2A75832  42.882  26.411   6.640
 6059POPC   C3A75833  43.024  26.217   7.020
 6059POPC   C4A75834  43.463  26.174   7.161
 6059POPC   C1B75835  43.055  25.614   6.086
 6059POPC   C2B75836  42.896  25.597   6.510
 6059POPC   C3B75837  43.036  25.610   6.929
 6059POPC   C4B75838  43.145  25.789   7.302
 6060POPC   NC375839  32.620   3.026   5.689
 6060POPC   PO475840  32.140   2.672   5.323
 6060POPC   GL175841  32.170   2.834   5.786
 6060POPC   GL275842  31.932   2.641   5.915
 6060POPC   C1A75843  32.420   2.843   6.249
 6060POPC   D2A75844  32.678   2.692   6.604
 6060POPC   C3A75845  32.452   2.644   6.960
 6060POPC   C4A75846  32.463   2.649   7.388
 6060POPC   C1B75847  31.928   2.875   6.307
 6060POPC   C2B75848  32.086   2.943   6.746
 6060POPC   C3B75849  31.986   2.745   7.158
 6060POPC   C4B75850  31.996   2.391   7.461
 6061POPC   NC375851  11.576  34.664   5.301
 6061POPC   PO475852  11.041  34.251   5.503
 6061POPC   GL175853  11.272  34.446   5.813
 6061POPC   GL275854  11.323  34.798   5.769
 6061POPC   C1A75855  11.263  34.615   6.238
 6061POPC   D2A75856  11.572  34.521   6.497
 6061POPC   C3A75857  11.486  34.415   6.907
 6061POPC   C4A75858  11.105  34.310   7.103
 6061POPC   C1B75859  10.972  35.011   6.051
 6061POPC   C2B75860  10.983  35.039   6.483
 6061POPC   C3B75861  11.086  34.734   6.777
 6061POPC   C4B75862  10.954  34.796   7.187
 6062POPC   NC375863  28.004  31.948   5.596
 6062POPC   PO475864  28.576  32.254   5.462
 6062POPC   GL175865  28.385  32.166   5.839
 6062POPC   GL275866  28.588  31.908   5.856
 6062POPC   C1A75867  28.129  32.105   6.207
 6062POPC   D2A75868  28.277  32.143   6.617
 6062POPC   C3A75869  28.140  31.978   7.012
 6062POPC   C4A75870  28.366  32.226   7.306
 6062POPC   C1B75871  28.519  31.803   6.310
 6062POPC   C2B75872  28.656  31.835   6.729
 6062POPC   C3B75873  28.608  31.819   7.149
 6062POPC   C4B75874  28.608  31.908   7.616
 6063POPC   NC375875   8.474  39.589   5.453
 6063POPC   PO475876   8.219  40.297   5.443
 6063POPC   GL175877   8.162  40.037   5.749
 6063POPC   GL275878   8.523  40.008   5.770
 6063POPC   C1A75879   8.169  40.022   6.177
 6063POPC   D2A75880   8.311  39.944   6.584
 6063POPC   C3A75881   7.982  39.828   6.881
 6063POPC   C4A75882   7.643  39.915   7.196
 6063POPC   C1B75883   8.592  40.308   6.121
 6063POPC   C2B75884   8.753  40.225   6.512
 6063POPC   C3B75885   8.478  40.390   6.769
 6063POPC   C4B75886   8.357  40.147   7.063
 6064POPC   NC375887  36.960  39.603   5.473
 6064POPC   PO475888  36.805  40.252   5.411
 6064POPC   GL175889  36.741  40.008   5.800
 6064POPC   GL275890  36.534  39.705   5.819
 6064POPC   C1A75891  36.944  39.875   6.204
 6064POPC   D2A75892  37.084  39.666   6.610
 6064POPC   C3A75893  37.000  39.915   7.002
 6064POPC   C4A75894  37.213  40.281   7.174
 6064POPC   C1B75895  36.435  39.930   6.218
 6064POPC   C2B75896  36.619  39.990   6.612
 6064POPC   C3B75897  36.424  39.984   7.000
 6064POPC   C4B75898  36.543  39.761   7.372
 6065POPC   NC375899  43.197  17.787   5.428
 6065POPC   PO475900  42.812  17.205   5.342
 6065POPC   GL175901  42.899  17.459   5.747
 6065POPC   GL275902  43.271  17.556   5.876
 6065POPC   C1A75903  42.833  17.573   6.189
 6065POPC   D2A75904  43.124  17.539   6.533
 6065POPC   C3A75905  42.951  17.468   6.911
 6065POPC   C4A75906  42.864  17.619   7.303
 6065POPC   C1B75907  43.537  17.448   6.234
 6065POPC   C2B75908  43.600  17.405   6.684
 6065POPC   C3B75909  43.436  17.559   7.057
 6065POPC   C4B75910  43.302  17.372   7.411
 6066POPC   NC375911  27.084  39.732   5.325
 6066POPC   PO475912  26.753  39.104   5.478
 6066POPC   GL175913  26.689  39.225   5.898
 6066POPC   GL275914  26.801  39.587   5.819
 6066POPC   C1A75915  26.476  39.104   6.289
 6066POPC   D2A75916  26.345  39.273   6.704
 6066POPC   C3A75917  26.706  39.382   6.927
 6066POPC   C4A75918  27.014  39.131   7.102
 6066POPC   C1B75919  27.082  39.493   6.161
 6066POPC   C2B75920  27.125  39.384   6.604
 6066POPC   C3B75921  27.183  39.614   6.987
 6066POPC   C4B75922  27.232  39.474   7.419
 6067POPC   NC375923  22.777  16.861   5.532
 6067POPC   PO475924  23.426  16.768   5.621
 6067POPC   GL175925  23.115  16.579   5.892
 6067POPC   GL275926  23.074  16.929   5.953
 6067POPC   C1A75927  22.747  16.612   6.214
 6067POPC   D2A75928  22.493  16.830   6.573
 6067POPC   C3A75929  22.545  16.578   6.991
 6067POPC   C4A75930  22.672  16.589   7.465
 6067POPC   C1B75931  23.239  16.826   6.346
 6067POPC   C2B75932  22.976  16.733   6.687
 6067POPC   C3B75933  23.019  16.681   7.107
 6067POPC   C4B75934  23.189  16.900   7.454
 6068POPC   NC375935  23.583  39.469   5.583
 6068POPC   PO475936  23.716  40.167   5.445
 6068POPC   GL175937  23.654  39.945   5.840
 6068POPC   GL275938  23.916  39.689   5.920
 6068POPC   C1A75939  23.585  40.061   6.272
 6068POPC   D2A75940  23.737  39.939   6.717
 6068POPC   C3A75941  23.655  40.240   7.070
 6068POPC   C4A75942  23.532  40.239   7.545
 6068POPC   C1B75943  23.651  39.541   6.291
 6068POPC   C2B75944  23.800  39.333   6.680
 6068POPC   C3B75945  24.039  39.555   6.985
 6068POPC   C4B75946  23.817  39.820   7.265
 6069POPC   NC375947  24.397  16.214   5.405
 6069POPC   PO475948  24.499  15.595   5.492
 6069POPC   GL175949  24.209  15.680   5.878
 6069POPC   GL275950  24.245  16.023   5.898
 6069POPC   C1A75951  24.279  15.750   6.354
 6069POPC   D2A75952  24.598  15.957   6.632
 6069POPC   C3A75953  24.733  15.826   7.046
 6069POPC   C4A75954  24.509  15.763   7.420
 6069POPC   C1B75955  24.348  16.267   6.286
 6069POPC   C2B75956  24.258  16.337   6.743
 6069POPC   C3B75957  24.408  16.241   7.174
 6069POPC   C4B75958  24.550  16.241   7.609
 6070POPC   NC375959  41.652  25.459   5.174
 6070POPC   PO475960  41.239  25.063   5.520
 6070POPC   GL175961  41.533  25.172   5.865
 6070POPC   GL275962  41.806  25.352   5.754
 6070POPC   C1A75963  41.459  25.308   6.298
 6070POPC   D2A75964  41.089  25.344   6.563
 6070POPC   C3A75965  41.218  25.331   7.002
 6070POPC   C4A75966  41.250  25.345   7.471
 6070POPC   C1B75967  41.967  25.339   6.202
 6070POPC   C2B75968  41.977  25.001   6.538
 6070POPC   C3B75969  41.856  24.923   6.977
 6070POPC   C4B75970  41.696  25.310   7.206
 6071POPC   NC375971  38.330  30.586   5.229
 6071POPC   PO475972  38.729  31.100   5.363
 6071POPC   GL175973  38.417  30.934   5.637
 6071POPC   GL275974  38.520  30.604   5.760
 6071POPC   C1A75975  38.192  30.877   6.039
 6071POPC   D2A75976  38.129  30.657   6.431
 6071POPC   C3A75977  38.078  30.949   6.756
 6071POPC   C4A75978  38.186  31.075   7.151
 6071POPC   C1B75979  38.611  30.558   6.231
 6071POPC   C2B75980  38.736  30.633   6.692
 6071POPC   C3B75981  38.592  30.675   7.142
 6071POPC   C4B75982  38.645  30.435   7.531
 6072POPC   NC375983   5.646  13.848   5.713
 6072POPC   PO475984   5.903  14.333   5.287
 6072POPC   GL175985   5.939  14.462   5.731
 6072POPC   GL275986   6.140  14.177   5.817
 6072POPC   C1A75987   5.740  14.452   6.208
 6072POPC   D2A75988   5.847  14.098   6.498
 6072POPC   C3A75989   5.784  14.091   6.960
 6072POPC   C4A75990   5.795  14.492   7.123
 6072POPC   C1B75991   6.219  14.569   6.110
 6072POPC   C2B75992   6.093  14.646   6.531
 6072POPC   C3B75993   6.288  14.814   6.868
 6072POPC   C4B75994   6.251  14.706   7.275
 6073POPC   NC375995   1.098  32.447   5.394
 6073POPC   PO475996   1.180  31.743   5.533
 6073POPC   GL175997   1.001  32.055   5.804
 6073POPC   GL275998   0.909  32.406   5.848
 6073POPC   C1A75999   1.139  32.142   6.212
 6073POPC   D2A76000   1.496  32.259   6.455
 6073POPC   C3A76001   1.438  32.129   6.872
 6073POPC   C4A76002   1.078  32.118   7.104
 6073POPC   C1B76003   0.833  32.563   6.242
 6073POPC   C2B76004   1.042  32.449   6.621
 6073POPC   C3B76005   0.805  32.518   6.966
 6073POPC   C4B76006   0.852  32.690   7.361
 6074POPC   NC376007  30.478  38.054   5.548
 6074POPC   PO476008  30.916  38.527   5.278
 6074POPC   GL176009  30.821  38.475   5.771
 6074POPC   GL276010  30.483  38.432   5.866
 6074POPC   C1A76011  30.722  38.645   6.242
 6074POPC   D2A76012  30.486  38.519   6.638
 6074POPC   C3A76013  30.628  38.685   7.044
 6074POPC   C4A76014  31.029  38.876   7.197
 6074POPC   C1B76015  30.736  38.120   6.151
 6074POPC   C2B76016  30.816  37.980   6.591
 6074POPC   C3B76017  30.701  38.159   6.997
 6074POPC   C4B76018  30.836  38.335   7.364
 6075POPC   NC376019   3.309  11.279   5.198
 6075POPC   PO476020   3.701  11.850   5.422
 6075POPC   GL176021   3.683  11.540   5.785
 6075POPC   GL276022   3.837  11.209   5.902
 6075POPC   C1A76023   3.545  11.507   6.221
 6075POPC   D2A76024   3.836  11.561   6.528
 6075POPC   C3A76025   3.643  11.664   6.891
 6075POPC   C4A76026   3.798  11.640   7.281
 6075POPC   C1B76027   3.812  11.066   6.349
 6075POPC   C2B76028   3.532  11.167   6.726
 6075POPC   C3B76029   3.543  11.200   7.195
 6075POPC   C4B76030   3.314  11.142   7.597
 6076POPC   NC376031  40.921  40.438   5.301
 6076POPC   PO476032  40.527  40.946   5.322
 6076POPC   GL176033  40.789  40.789   5.684
 6076POPC   GL276034  40.600  40.506   5.779
 6076POPC   C1A76035  40.968  40.789   6.107
 6076POPC   D2A76036  40.797  40.729   6.533
 6076POPC   C3A76037  41.136  40.771   6.825
 6076POPC   C4A76038  41.117  40.666   7.217
 6076POPC   C1B76039  40.440  40.292   6.145
 6076POPC   C2B76040  40.571  40.233   6.570
 6076POPC   C3B76041  40.700  40.409   6.932
 6076POPC   C4B76042  40.614  40.578   7.286
 6077POPC   NC376043  19.306   6.021   5.282
 6077POPC   PO476044  18.772   5.659   5.135
 6077POPC   GL176045  18.902   5.878   5.613
 6077POPC   GL276046  19.242   5.828   5.750
 6077POPC   C1A76047  18.928   6.067   6.074
 6077POPC   D2A76048  19.114   6.030   6.499
 6077POPC   C3A76049  18.859   6.099   6.850
 6077POPC   C4A76050  18.805   6.335   7.250
 6077POPC   C1B76051  19.255   5.642   6.148
 6077POPC   C2B76052  19.373   5.578   6.545
 6077POPC   C3B76053  19.163   5.637   6.908
 6077POPC   C4B76054  19.167   5.935   7.238
 6078POPC   NC376055   2.272  36.899   5.413
 6078POPC   PO476056   1.632  37.050   5.262
 6078POPC   GL176057   1.846  36.865   5.692
 6078POPC   GL276058   2.019  36.612   5.788
 6078POPC   C1A76059   1.856  36.942   6.137
 6078POPC   D2A76060   2.055  37.102   6.485
 6078POPC   C3A76061   1.875  36.989   6.868
 6078POPC   C4A76062   2.020  37.132   7.258
 6078POPC   C1B76063   2.059  36.436   6.158
 6078POPC   C2B76064   1.945  36.599   6.520
 6078POPC   C3B76065   1.932  36.468   6.900
 6078POPC   C4B76066   1.981  36.621   7.289
 6079POPC   NC376067  28.042  43.793   5.525
 6079POPC   PO476068  28.438  44.262   5.619
 6079POPC   GL176069  28.286  44.093   5.917
 6079POPC   GL276070  28.404  43.776   5.914
 6079POPC   C1A76071  28.070  43.989   6.255
 6079POPC   D2A76072  28.144  43.691   6.520
 6079POPC   C3A76073  28.100  43.855   6.850
 6079POPC   C4A76074  28.299  43.830   7.199
 6079POPC   C1B76075  28.573  43.905   6.326
 6079POPC   C2B76076  28.612  43.895   6.776
 6079POPC   C3B76077  28.777  44.016   7.168
 6079POPC   C4B76078  28.863  44.054   7.607
 6080POPC   NC376079  17.889   8.797   5.358
 6080POPC   PO476080  18.459   9.133   5.229
 6080POPC   GL176081  18.371   9.261   5.686
 6080POPC   GL276082  18.179   9.001   5.870
 6080POPC   C1A76083  18.429   9.371   6.141
 6080POPC   D2A76084  18.550   9.174   6.538
 6080POPC   C3A76085  18.300   8.973   6.848
 6080POPC   C4A76086  18.382   8.655   7.118
 6080POPC   C1B76087  18.219   8.815   6.318
 6080POPC   C2B76088  18.009   8.561   6.660
 6080POPC   C3B76089  17.890   8.728   7.047
 6080POPC   C4B76090  17.687   8.869   7.381
 6081POPC   NC376091  17.563  29.580   5.528
 6081POPC   PO476092  17.597  30.224   5.470
 6081POPC   GL176093  17.492  29.980   5.868
 6081POPC   GL276094  17.730  29.698   5.987
 6081POPC   C1A76095  17.493  30.063   6.315
 6081POPC   D2A76096  17.672  30.139   6.740
 6081POPC   C3A76097  17.697  30.040   7.170
 6081POPC   C4A76098  17.966  30.210   7.547
 6081POPC   C1B76099  17.377  29.567   6.219
 6081POPC   C2B76100  17.312  29.715   6.639
 6081POPC   C3B76101  17.546  29.550   6.943
 6081POPC   C4B76102  17.361  29.604   7.274
 6082POPC   NC376103  38.035  35.017   5.412
 6082POPC   PO476104  38.481  35.601   5.324
 6082POPC   GL176105  38.340  35.414   5.742
 6082POPC   GL276106  38.216  35.645   6.001
 6082POPC   C1A76107  38.511  35.178   6.090
 6082POPC   D2A76108  38.587  35.216   6.482
 6082POPC   C3A76109  38.780  35.098   6.828
 6082POPC   C4A76110  38.518  35.277   7.118
 6082POPC   C1B76111  38.075  35.370   6.348
 6082POPC   C2B76112  37.857  35.122   6.682
 6082POPC   C3B76113  37.928  34.845   7.065
 6082POPC   C4B76114  38.282  34.891   7.360
 6083POPC   NC376115  19.349  13.899   5.433
 6083POPC   PO476116  19.305  13.171   5.301
 6083POPC   GL176117  19.076  13.387   5.653
 6083POPC   GL276118  18.762  13.543   5.764
 6083POPC   C1A76119  19.117  13.375   6.108
 6083POPC   D2A76120  18.889  13.226   6.462
 6083POPC   C3A76121  19.075  13.314   6.872
 6083POPC   C4A76122  19.245  13.459   7.272
 6083POPC   C1B76123  18.930  13.837   6.140
 6083POPC   C2B76124  19.114  13.709   6.545
 6083POPC   C3B76125  19.016  13.844   6.982
 6083POPC   C4B76126  18.652  14.013   7.225
 6084POPC   NC376127  31.152   7.241   5.444
 6084POPC   PO476128  31.760   7.545   5.401
 6084POPC   GL176129  31.677   7.258   5.808
 6084POPC   GL276130  31.352   7.146   5.887
 6084POPC   C1A76131  31.621   7.237   6.304
 6084POPC   D2A76132  31.598   7.200   6.780
 6084POPC   C3A76133  31.775   7.398   7.197
 6084POPC   C4A76134  31.516   7.345   7.624
 6084POPC   C1B76135  31.152   7.429   6.181
 6084POPC   C2B76136  31.250   7.583   6.607
 6084POPC   C3B76137  31.320   7.575   7.057
 6084POPC   C4B76138  31.161   7.668   7.473
 6085POPC   NC376139  14.158  13.431   5.441
 6085POPC   PO476140  14.766  13.738   5.469
 6085POPC   GL176141  14.435  13.655   5.823
 6085POPC   GL276142  14.285  13.343   5.921
 6085POPC   C1A76143  14.325  13.829   6.215
 6085POPC   D2A76144  14.603  13.967   6.538
 6085POPC   C3A76145  14.650  13.780   6.924
 6085POPC   C4A76146  14.547  13.821   7.339
 6085POPC   C1B76147  14.621  13.389   6.225
 6085POPC   C2B76148  14.529  13.365   6.656
 6085POPC   C3B76149  14.287  13.439   7.050
 6085POPC   C4B76150  14.417  13.325   7.459
 6086POPC   NC376151  17.796  32.010   5.431
 6086POPC   PO476152  17.525  32.640   5.446
 6086POPC   GL176153  17.630  32.497   5.834
 6086POPC   GL276154  17.538  32.156   5.876
 6086POPC   C1A76155  17.514  32.543   6.251
 6086POPC   D2A76156  17.520  32.287   6.615
 6086POPC   C3A76157  17.494  32.536   6.972
 6086POPC   C4A76158  17.430  32.319   7.317
 6086POPC   C1B76159  17.323  31.924   6.206
 6086POPC   C2B76160  17.117  31.980   6.588
 6086POPC   C3B76161  17.247  31.905   7.026
 6086POPC   C4B76162  17.052  31.949   7.404
 6087POPC   NC376163  35.691   3.987   5.620
 6087POPC   PO476164  36.011   4.442   5.264
 6087POPC   GL176165  36.296   4.339   5.642
 6087POPC   GL276166  36.294   3.998   5.779
 6087POPC   C1A76167  36.327   4.394   6.125
 6087POPC   D2A76168  36.041   4.423   6.485
 6087POPC   C3A76169  36.157   4.438   6.919
 6087POPC   C4A76170  35.951   4.459   7.319
 6087POPC   C1B76171  36.032   3.952   6.191
 6087POPC   C2B76172  35.856   3.955   6.626
 6087POPC   C3B76173  36.029   3.968   7.050
 6087POPC   C4B76174  36.254   4.089   7.461
 6088POPC   NC376175  12.892  18.786   5.620
 6088POPC   PO476176  12.452  19.237   5.320
 6088POPC   GL176177  12.480  19.131   5.748
 6088POPC   GL276178  12.437  19.499   5.759
 6088POPC   C1A76179  12.610  18.950   6.195
 6088POPC   D2A76180  12.616  18.711   6.606
 6088POPC   C3A76181  12.735  18.905   6.999
 6088POPC   C4A76182  12.876  18.875   7.431
 6088POPC   C1B76183  12.767  19.430   6.051
 6088POPC   C2B76184  12.837  19.376   6.499
 6088POPC   C3B76185  13.014  19.354   6.916
 6088POPC   C4B76186  12.862  19.368   7.304
 6089POPC   NC376187  22.024  10.133   5.675
 6089POPC   PO476188  22.337  10.705   5.394
 6089POPC   GL176189  22.246  10.567   5.780
 6089POPC   GL276190  21.940  10.673   5.921
 6089POPC   C1A76191  22.421  10.558   6.184
 6089POPC   D2A76192  22.345  10.729   6.572
 6089POPC   C3A76193  22.477  10.541   6.958
 6089POPC   C4A76194  22.400  10.786   7.334
 6089POPC   C1B76195  21.899  10.499   6.331
 6089POPC   C2B76196  22.059  10.325   6.738
 6089POPC   C3B76197  21.996  10.479   7.187
 6089POPC   C4B76198  21.992  10.314   7.625
 6090POPC   NC376199  30.970  34.096   5.581
 6090POPC   PO476200  30.285  33.958   5.561
 6090POPC   GL176201  30.592  33.821   5.858
 6090POPC   GL276202  30.663  33.473   5.924
 6090POPC   C1A76203  30.681  33.813   6.304
 6090POPC   D2A76204  30.651  34.011   6.685
 6090POPC   C3A76205  30.812  33.902   7.086
 6090POPC   C4A76206  30.477  33.965   7.356
 6090POPC   C1B76207  31.072  33.502   6.260
 6090POPC   C2B76208  31.046  33.643   6.685
 6090POPC   C3B76209  30.911  33.398   7.018
 6090POPC   C4B76210  30.813  33.513   7.457
 6091POPC   NC376211  13.708  31.330   5.402
 6091POPC   PO476212  13.400  31.742   5.791
 6091POPC   GL176213  13.497  31.292   5.875
 6091POPC   GL276214  13.880  31.190   5.864
 6091POPC   C1A76215  13.575  31.074   6.278
 6091POPC   D2A76216  13.489  31.162   6.696
 6091POPC   C3A76217  13.625  31.376   7.060
 6091POPC   C4A76218  13.365  31.758   7.053
 6091POPC   C1B76219  13.856  31.499   6.216
 6091POPC   C2B76220  13.822  31.649   6.648
 6091POPC   C3B76221  13.877  31.839   7.059
 6091POPC   C4B76222  13.845  31.633   7.476
 6092POPC   NC376223   5.993  27.946   5.448
 6092POPC   PO476224   5.922  28.567   5.299
 6092POPC   GL176225   5.937  28.384   5.735
 6092POPC   GL276226   5.639  28.158   5.778
 6092POPC   C1A76227   5.957  28.266   6.185
 6092POPC   D2A76228   5.858  28.472   6.580
 6092POPC   C3A76229   5.917  28.264   6.993
 6092POPC   C4A76230   6.086  28.332   7.374
 6092POPC   C1B76231   5.508  27.969   6.173
 6092POPC   C2B76232   5.660  27.996   6.596
 6092POPC   C3B76233   5.464  28.060   6.999
 6092POPC   C4B76234   5.591  28.146   7.438
 6093POPC   NC376235   0.263   9.137   5.555
 6093POPC   PO476236   0.340   9.796   5.296
 6093POPC   GL176237   0.298   9.691   5.732
 6093POPC   GL276238   0.165   9.412   5.960
 6093POPC   C1A76239   0.380   9.887   6.127
 6093POPC   D2A76240   0.206   9.719   6.513
 6093POPC   C3A76241   0.392   9.962   6.809
 6093POPC   C4A76242   0.422   9.898   7.221
 6093POPC   C1B76243   0.512   9.421   6.245
 6093POPC   C2B76244   0.708   9.627   6.571
 6093POPC   C3B76245   0.580   9.485   6.969
 6093POPC   C4B76246   0.750   9.355   7.368
 6094POPC   NC376247  23.541  37.251   5.416
 6094POPC   PO476248  23.957  36.782   5.159
 6094POPC   GL176249  23.754  36.566   5.563
 6094POPC   GL276250  23.557  36.814   5.789
 6094POPC   C1A76251  23.838  36.467   6.042
 6094POPC   D2A76252  23.875  36.680   6.477
 6094POPC   C3A76253  23.520  36.741   6.769
 6094POPC   C4A76254  23.688  36.653   7.159
 6094POPC   C1B76255  23.671  37.074   6.183
 6094POPC   C2B76256  23.713  37.194   6.635
 6094POPC   C3B76257  23.695  37.175   7.098
 6094POPC   C4B76258  23.512  37.402   7.438
 6095POPC   NC376259  10.196  25.940   5.393
 6095POPC   PO476260  10.829  26.222   5.488
 6095POPC   GL176261  10.550  25.998   5.784
 6095POPC   GL276262  10.228  26.192   5.830
 6095POPC   C1A76263  10.547  26.084   6.224
 6095POPC   D2A76264  10.604  25.964   6.624
 6095POPC   C3A76265  10.770  26.277   6.882
 6095POPC   C4A76266  10.585  26.128   7.230
 6095POPC   C1B76267  10.037  26.099   6.225
 6095POPC   C2B76268  10.076  25.881   6.604
 6095POPC   C3B76269  10.157  26.011   7.009
 6095POPC   C4B76270  10.110  26.089   7.461
 6096POPC   NC376271  25.536  39.632   5.524
 6096POPC   PO476272  25.027  39.266   5.341
 6096POPC   GL176273  25.164  39.228   5.782
 6096POPC   GL276274  25.524  39.244   5.851
 6096POPC   C1A76275  25.021  39.152   6.223
 6096POPC   D2A76276  24.880  39.216   6.653
 6096POPC   C3A76277  25.157  39.123   6.998
 6096POPC   C4A76278  25.505  39.060   7.274
 6096POPC   C1B76279  25.518  39.076   6.253
 6096POPC   C2B76280  25.448  39.307   6.613
 6096POPC   C3B76281  25.534  39.551   6.960
 6096POPC   C4B76282  25.738  39.528   7.341
 6097POPC   NC376283  22.780  10.609   5.226
 6097POPC   PO476284  23.232  10.114   5.317
 6097POPC   GL176285  22.999  10.365   5.698
 6097POPC   GL276286  22.765  10.690   5.742
 6097POPC   C1A76287  22.935  10.393   6.180
 6097POPC   D2A76288  23.001  10.581   6.614
 6097POPC   C3A76289  22.978  10.418   7.041
 6097POPC   C4A76290  22.830  10.535   7.471
 6097POPC   C1B76291  22.831  10.900   6.163
 6097POPC   C2B76292  22.758  11.032   6.604
 6097POPC   C3B76293  22.833  10.900   7.031
 6097POPC   C4B76294  22.806  11.098   7.460
 6098POPC   NC376295  22.207  35.940   5.405
 6098POPC   PO476296  21.903  36.479   5.174
 6098POPC   GL176297  22.008  36.348   5.667
 6098POPC   GL276298  22.370  36.229   5.791
 6098POPC   C1A76299  21.886  36.165   6.109
 6098POPC   D2A76300  21.795  36.163   6.565
 6098POPC   C3A76301  22.105  36.042   6.888
 6098POPC   C4A76302  22.072  36.219   7.306
 6098POPC   C1B76303  22.250  36.505   6.127
 6098POPC   C2B76304  22.248  36.412   6.540
 6098POPC   C3B76305  22.240  36.546   6.939
 6098POPC   C4B76306  22.386  36.666   7.324
 6099POPC   NC376307  43.815  10.525   4.990
 6099POPC   PO476308  44.036  11.053   5.274
 6099POPC   GL176309  44.083  10.806   5.695
 6099POPC   GL276310  43.774  10.633   5.784
 6099POPC   C1A76311  44.062  10.767   6.189
 6099POPC   D2A76312  44.142  10.518   6.585
 6099POPC   C3A76313  43.934  10.662   6.972
 6099POPC   C4A76314  43.940  10.589   7.485
 6099POPC   C1B76315  43.544  10.623   6.171
 6099POPC   C2B76316  43.625  10.485   6.573
 6099POPC   C3B76317  43.489  10.373   6.957
 6099POPC   C4B76318  43.518  10.702   7.255
 6100POPC   NC376319   9.874  11.384   5.184
 6100POPC   PO476320   9.441  10.994   5.511
 6100POPC   GL176321   9.720  11.241   5.767
 6100POPC   GL276322  10.071  11.126   5.632
 6100POPC   C1A76323   9.682  11.272   6.252
 6100POPC   D2A76324   9.707  11.392   6.713
 6100POPC   C3A76325   9.630  11.239   7.152
 6100POPC   C4A76326   9.393  11.403   7.529
 6100POPC   C1B76327  10.209  11.068   6.077
 6100POPC   C2B76328  10.081  11.061   6.509
 6100POPC   C3B76329  10.135  11.194   6.941
 6100POPC   C4B76330  10.060  10.982   7.336
 6101POPC   NC376331  26.972  23.968   5.339
 6101POPC   PO476332  27.289  23.336   5.499
 6101POPC   GL176333  27.060  23.686   5.761
 6101POPC   GL276334  27.233  24.043   5.771
 6101POPC   C1A76335  26.731  23.643   6.122
 6101POPC   D2A76336  26.531  23.782   6.504
 6101POPC   C3A76337  26.595  23.546   6.840
 6101POPC   C4A76338  26.678  23.613   7.276
 6101POPC   C1B76339  26.927  24.113   6.103
 6101POPC   C2B76340  26.962  24.040   6.548
 6101POPC   C3B76341  26.773  24.013   6.949
 6101POPC   C4B76342  26.538  24.185   7.270
 6102POPC   NC376343  33.285  22.203   5.075
 6102POPC   PO476344  33.387  22.672   5.590
 6102POPC   GL176345  33.258  22.448   5.969
 6102POPC   GL276346  32.950  22.210   5.891
 6102POPC   C1A76347  33.189  22.204   6.337
 6102POPC   D2A76348  33.199  22.322   6.771
 6102POPC   C3A76349  33.223  22.030   7.064
 6102POPC   C4A76350  33.149  22.190   7.430
 6102POPC   C1B76351  32.613  22.176   6.209
 6102POPC   C2B76352  32.620  22.322   6.635
 6102POPC   C3B76353  32.732  22.196   7.054
 6102POPC   C4B76354  32.708  21.919   7.396
 6103POPC   NC376355  41.452   7.878   5.506
 6103POPC   PO476356  41.692   8.575   5.452
 6103POPC   GL176357  41.555   8.300   5.806
 6103POPC   GL276358  41.814   8.014   5.862
 6103POPC   C1A76359  41.399   8.038   6.187
 6103POPC   D2A76360  41.563   7.955   6.628
 6103POPC   C3A76361  41.273   7.960   7.014
 6103POPC   C4A76362  41.378   8.140   7.452
 6103POPC   C1B76363  41.848   8.282   6.232
 6103POPC   C2B76364  41.683   8.482   6.617
 6103POPC   C3B76365  41.627   8.320   7.038
 6103POPC   C4B76366  41.730   8.501   7.486
 6104POPC   NC376367  20.499  13.153   5.446
 6104POPC   PO476368  20.472  13.816   5.428
 6104POPC   GL176369  20.383  13.593   5.854
 6104POPC   GL276370  20.729  13.645   5.961
 6104POPC   C1A76371  20.464  13.508   6.352
 6104POPC   D2A76372  20.914  13.593   6.460
 6104POPC   C3A76373  20.883  13.597   6.891
 6104POPC   C4A76374  20.489  13.449   7.057
 6104POPC   C1B76375  20.447  13.978   6.197
 6104POPC   C2B76376  20.176  13.951   6.546
 6104POPC   C3B76377  20.337  13.943   6.962
 6104POPC   C4B76378  20.239  14.142   7.320
 6105POPC   NC376379  19.184  21.749   5.178
 6105POPC   PO476380  19.214  21.051   5.036
 6105POPC   GL176381  19.125  21.219   5.552
 6105POPC   GL276382  19.369  21.243   5.851
 6105POPC   C1A76383  18.908  21.346   6.014
 6105POPC   D2A76384  18.927  21.635   6.403
 6105POPC   C3A76385  18.894  21.396   6.806
 6105POPC   C4A76386  18.862  21.491   7.240
 6105POPC   C1B76387  19.406  21.533   6.233
 6105POPC   C2B76388  19.380  21.541   6.721
 6105POPC   C3B76389  19.363  21.335   7.150
 6105POPC   C4B76390  19.164  21.272   7.591
 6106POPC   NC376391   2.906   4.810   5.413
 6106POPC   PO476392   2.972   5.465   5.264
 6106POPC   GL176393   2.713   5.202   5.673
 6106POPC   GL276394   2.525   4.861   5.767
 6106POPC   C1A76395   2.767   5.161   6.152
 6106POPC   D2A76396   2.656   5.133   6.612
 6106POPC   C3A76397   2.932   5.324   6.945
 6106POPC   C4A76398   3.102   5.090   7.320
 6106POPC   C1B76399   2.672   4.665   6.176
 6106POPC   C2B76400   2.940   4.577   6.548
 6106POPC   C3B76401   2.881   4.731   6.980
 6106POPC   C4B76402   2.555   5.046   7.123
 6107POPC   NC376403  34.695  44.122   5.563
 6107POPC   PO476404  34.748  43.463   5.531
 6107POPC   GL176405  34.815  43.714   5.898
 6107POPC   GL276406  34.618  43.478   6.035
 6107POPC   C1A76407  34.846  44.072   6.223
 6107POPC   D2A76408  35.036  44.241   6.617
 6107POPC   C3A76409  34.709  44.261   6.941
 6107POPC   C4A76410  34.607  43.982   7.286
 6107POPC   C1B76411  34.424  43.768   6.283
 6107POPC   C2B76412  34.477  43.874   6.706
 6107POPC   C3B76413  34.216  43.725   7.026
 6107POPC   C4B76414  34.182  43.761   7.476
 6108POPC   NC376415   3.037   7.177   5.095
 6108POPC   PO476416   2.590   7.463   5.477
 6108POPC   GL176417   2.620   7.467   5.871
 6108POPC   GL276418   2.896   7.703   5.870
 6108POPC   C1A76419   2.820   7.356   6.273
 6108POPC   D2A76420   2.955   7.570   6.653
 6108POPC   C3A76421   2.777   7.345   6.973
 6108POPC   C4A76422   2.983   6.987   7.128
 6108POPC   C1B76423   2.611   7.825   6.218
 6108POPC   C2B76424   2.450   7.591   6.586
 6108POPC   C3B76425   2.346   7.638   6.996
 6108POPC   C4B76426   2.571   7.645   7.372
 6109POPC   NC376427  18.506  38.002   5.450
 6109POPC   PO476428  18.249  37.441   5.258
 6109POPC   GL176429  18.156  37.575   5.706
 6109POPC   GL276430  18.200  37.918   5.866
 6109POPC   C1A76431  18.101  37.390   6.136
 6109POPC   D2A76432  18.124  37.622   6.527
 6109POPC   C3A76433  18.177  37.410   6.913
 6109POPC   C4A76434  18.323  37.678   7.227
 6109POPC   C1B76435  18.503  38.146   6.131
 6109POPC   C2B76436  18.788  38.076   6.495
 6109POPC   C3B76437  18.779  37.948   6.941
 6109POPC   C4B76438  18.540  38.151   7.245
 6110POPC   NC376439  29.833  14.779   5.386
 6110POPC   PO476440  29.968  15.420   5.483
 6110POPC   GL176441  30.116  15.279   5.851
 6110POPC   GL276442  30.430  15.488   5.899
 6110POPC   C1A76443  29.866  15.173   6.251
 6110POPC   D2A76444  29.789  14.936   6.651
 6110POPC   C3A76445  29.807  15.156   7.063
 6110POPC   C4A76446  30.051  15.061   7.412
 6110POPC   C1B76447  30.353  15.242   6.280
 6110POPC   C2B76448  30.160  15.311   6.705
 6110POPC   C3B76449  30.252  15.441   7.114
 6110POPC   C4B76450  30.208  15.540   7.568
 6111POPC   NC376451  36.678  14.630   5.297
 6111POPC   PO476452  36.929  13.992   5.478
 6111POPC   GL176453  36.682  14.270   5.701
 6111POPC   GL276454  36.861  14.528   5.792
 6111POPC   C1A76455  36.563  14.272   6.151
 6111POPC   D2A76456  36.630  13.994   6.501
 6111POPC   C3A76457  36.481  14.084   6.914
 6111POPC   C4A76458  36.662  14.379   7.198
 6111POPC   C1B76459  36.805  14.719   6.176
 6111POPC   C2B76460  36.808  14.554   6.589
 6111POPC   C3B76461  36.976  14.726   6.973
 6111POPC   C4B76462  37.423  14.681   7.036
 6112POPC   NC376463  24.544  35.399   5.321
 6112POPC   PO476464  24.142  35.897   5.585
 6112POPC   GL176465  24.471  35.604   5.792
 6112POPC   GL276466  24.285  35.318   5.815
 6112POPC   C1A76467  24.576  35.400   6.238
 6112POPC   D2A76468  24.640  35.365   6.686
 6112POPC   C3A76469  24.586  35.591   7.073
 6112POPC   C4A76470  24.615  35.291   7.455
 6112POPC   C1B76471  24.072  35.444   6.239
 6112POPC   C2B76472  24.061  35.313   6.692
 6112POPC   C3B76473  24.170  35.332   7.128
 6112POPC   C4B76474  24.174  35.518   7.551
 6113POPC   NC376475   9.513  26.662   5.281
 6113POPC   PO476476   9.949  27.067   5.467
 6113POPC   GL176477   9.816  26.995   5.842
 6113POPC   GL276478   9.615  26.698   5.788
 6113POPC   C1A76479  10.011  26.956   6.226
 6113POPC   D2A76480  10.250  26.882   6.608
 6113POPC   C3A76481  10.001  26.919   6.983
 6113POPC   C4A76482   9.878  26.564   7.248
 6113POPC   C1B76483   9.365  26.995   6.072
 6113POPC   C2B76484   9.514  27.006   6.492
 6113POPC   C3B76485   9.540  26.756   6.860
 6113POPC   C4B76486   9.555  26.971   7.259
 6114POPC   NC376487   9.210  39.356   5.489
 6114POPC   PO476488   8.650  39.155   5.558
 6114POPC   GL176489   8.928  39.251   5.904
 6114POPC   GL276490   9.262  39.080   5.929
 6114POPC   C1A76491   8.900  39.355   6.326
 6114POPC   D2A76492   8.747  39.113   6.676
 6114POPC   C3A76493   8.750  39.237   7.115
 6114POPC   C4A76494   8.651  39.086   7.534
 6114POPC   C1B76495   9.384  39.443   6.202
 6114POPC   C2B76496   9.303  39.509   6.685
 6114POPC   C3B76497   9.228  39.555   7.139
 6114POPC   C4B76498   9.364  39.563   7.585
 6115POPC   NC376499  20.810  44.105   5.367
 6115POPC   PO476500  20.750  43.536   5.711
 6115POPC   GL176501  20.646  43.949   5.847
 6115POPC   GL276502  20.961  44.127   5.852
 6115POPC   C1A76503  20.476  43.952   6.287
 6115POPC   D2A76504  20.517  43.651   6.673
 6115POPC   C3A76505  20.363  43.795   7.107
 6115POPC   C4A76506  20.246  43.850   7.566
 6115POPC   C1B76507  20.975  44.026   6.260
 6115POPC   C2B76508  20.825  44.066   6.655
 6115POPC   C3B76509  20.879  43.804   7.004
 6115POPC   C4B76510  20.741  43.801   7.451
 6116POPC   NC376511  38.735  44.551   5.456
 6116POPC   PO476512  38.413   0.065   5.336
 6116POPC   GL176513  38.341  44.891   5.756
 6116POPC   GL276514  38.289  44.532   5.827
 6116POPC   C1A76515  38.397  44.892   6.218
 6116POPC   D2A76516  38.374  44.673   6.626
 6116POPC   C3A76517  38.775  44.693   6.901
 6116POPC   C4A76518  38.656  44.733   7.347
 6116POPC   C1B76519  38.483  44.330   6.215
 6116POPC   C2B76520  38.618  44.224   6.663
 6116POPC   C3B76521  38.436  44.358   7.072
 6116POPC   C4B76522  38.453  44.277   7.520
 6117POPC   NC376523   1.223  37.224   5.140
 6117POPC   PO476524   1.382  36.716   5.622
 6117POPC   GL176525   1.368  36.868   5.991
 6117POPC   GL276526   1.416  37.199   6.020
 6117POPC   C1A76527   1.475  36.766   6.403
 6117POPC   D2A76528   1.438  36.467   6.704
 6117POPC   C3A76529   1.225  36.718   7.000
 6117POPC   C4A76530   1.537  36.907   7.273
 6117POPC   C1B76531   1.629  37.383   6.399
 6117POPC   C2B76532   1.563  37.383   6.870
 6117POPC   C3B76533   1.183  37.223   7.092
 6117POPC   C4B76534   0.870  36.966   7.324
 6118POPC   NC376535  23.042  20.403   5.530
 6118POPC   PO476536  22.948  19.725   5.352
 6118POPC   GL176537  23.190  19.593   5.738
 6118POPC   GL276538  23.187  19.931   5.782
 6118POPC   C1A76539  23.114  19.521   6.173
 6118POPC   D2A76540  22.882  19.816   6.430
 6118POPC   C3A76541  22.929  19.820   6.890
 6118POPC   C4A76542  22.727  20.018   7.269
 6118POPC   C1B76543  23.355  19.985   6.184
 6118POPC   C2B76544  23.395  19.754   6.560
 6118POPC   C3B76545  23.450  19.747   6.971
 6118POPC   C4B76546  23.218  19.815   7.329
 6119POPC   NC376547  44.939  16.281   5.395
 6119POPC   PO476548  44.518  15.823   5.359
 6119POPC   GL176549  44.593  16.019   5.757
 6119POPC   GL276550  44.929  15.894   5.754
 6119POPC   C1A76551  44.761  16.104   6.210
 6119POPC   D2A76552  44.929  16.026   6.644
 6119POPC   C3A76553  44.707  16.152   7.012
 6119POPC   C4A76554  44.312  16.151   7.227
 6119POPC   C1B76555  44.746  15.594   6.046
 6119POPC   C2B76556  44.667  15.582   6.496
 6119POPC   C3B76557  44.796  15.620   6.934
 6119POPC   C4B76558   0.021  15.384   7.217
 6120POPC   NC376559  16.956  33.273   5.515
 6120POPC   PO476560  16.711  32.655   5.464
 6120POPC   GL176561  16.699  32.877   5.842
 6120POPC   GL276562  16.497  33.174   5.819
 6120POPC   C1A76563  16.618  32.768   6.262
 6120POPC   D2A76564  16.360  32.593   6.593
 6120POPC   C3A76565  16.621  32.697   6.937
 6120POPC   C4A76566  16.649  32.876   7.334
 6120POPC   C1B76567  16.647  33.362   6.219
 6120POPC   C2B76568  16.716  33.481   6.671
 6120POPC   C3B76569  16.555  33.309   7.056
 6120POPC   C4B76570  16.486  33.337   7.516
 6121POPC   NC376571  34.562  30.797   5.643
 6121POPC   PO476572  34.608  30.216   5.273
 6121POPC   GL176573  34.813  30.325   5.793
 6121POPC   GL276574  34.889  30.642   5.959
 6121POPC   C1A76575  34.672  30.345   6.299
 6121POPC   D2A76576  34.666  30.581   6.725
 6121POPC   C3A76577  34.356  30.596   7.051
 6121POPC   C4A76578  34.331  30.469   7.486
 6121POPC   C1B76579  34.549  30.844   6.282
 6121POPC   C2B76580  34.480  31.065   6.709
 6121POPC   C3B76581  34.677  31.006   7.135
 6121POPC   C4B76582  34.528  30.932   7.570
 6122POPC   NC376583  24.321  27.862   5.555
 6122POPC   PO476584  24.784  27.451   5.395
 6122POPC   GL176585  24.599  27.430   5.828
 6122POPC   GL276586  24.521  27.744   6.001
 6122POPC   C1A76587  24.445  27.294   6.228
 6122POPC   D2A76588  24.457  27.597   6.538
 6122POPC   C3A76589  24.331  27.428   6.908
 6122POPC   C4A76590  24.434  27.543   7.284
 6122POPC   C1B76591  24.642  28.059   6.311
 6122POPC   C2B76592  24.894  27.974   6.627
 6122POPC   C3B76593  24.692  27.835   6.963
 6122POPC   C4B76594  24.652  28.011   7.329
 6123POPC   NC376595  29.761  31.899   5.295
 6123POPC   PO476596  30.159  32.340   5.355
 6123POPC   GL176597  29.882  32.257   5.728
 6123POPC   GL276598  29.863  31.908   5.808
 6123POPC   C1A76599  29.856  32.293   6.191
 6123POPC   D2A76600  30.175  32.337   6.535
 6123POPC   C3A76601  30.024  32.254   6.936
 6123POPC   C4A76602  29.912  32.183   7.350
 6123POPC   C1B76603  29.503  31.924   6.115
 6123POPC   C2B76604  29.413  32.117   6.534
 6123POPC   C3B76605  29.562  32.056   6.962
 6123POPC   C4B76606  29.453  31.977   7.392
 6124POPC   NC376607  13.029  33.811   5.282
 6124POPC   PO476608  12.636  33.336   5.525
 6124POPC   GL176609  12.762  33.738   5.738
 6124POPC   GL276610  13.107  33.721   5.786
 6124POPC   C1A76611  12.886  34.016   6.113
 6124POPC   D2A76612  12.805  33.828   6.487
 6124POPC   C3A76613  12.820  34.078   6.824
 6124POPC   C4A76614  12.726  33.880   7.189
 6124POPC   C1B76615  13.316  33.706   6.207
 6124POPC   C2B76616  13.434  33.724   6.662
 6124POPC   C3B76617  13.219  33.717   7.115
 6124POPC   C4B76618  13.071  33.578   7.547
 6125POPC   NC376619  11.753  22.444   5.674
 6125POPC   PO476620  11.240  22.191   5.247
 6125POPC   GL176621  11.223  22.156   5.726
 6125POPC   GL276622  11.077  22.428   5.915
 6125POPC   C1A76623  11.229  21.989   6.191
 6125POPC   D2A76624  11.513  21.861   6.591
 6125POPC   C3A76625  11.389  22.094   6.974
 6125POPC   C4A76626  10.990  22.107   7.172
 6125POPC   C1B76627  11.017  22.540   6.359
 6125POPC   C2B76628  10.817  22.481   6.785
 6125POPC   C3B76629  11.149  22.623   7.067
 6125POPC   C4B76630  11.603  22.550   7.095
 6126POPC   NC376631  40.241  25.395   5.243
 6126POPC   PO476632  39.734  24.986   5.451
 6126POPC   GL176633  39.917  25.249   5.767
 6126POPC   GL276634  40.264  25.218   5.865
 6126POPC   C1A76635  39.892  25.375   6.201
 6126POPC   D2A76636  39.997  25.245   6.627
 6126POPC   C3A76637  39.902  25.458   7.017
 6126POPC   C4A76638  39.913  25.340   7.465
 6126POPC   C1B76639  40.257  24.954   6.239
 6126POPC   C2B76640  40.347  24.871   6.665
 6126POPC   C3B76641  40.147  24.966   7.056
 6126POPC   C4B76642  40.430  25.125   7.337
 6127POPC   NC376643   9.918   3.202   5.184
 6127POPC   PO476644  10.090   3.758   5.528
 6127POPC   GL176645   9.863   3.391   5.720
 6127POPC   GL276646   9.485   3.442   5.762
 6127POPC   C1A76647   9.766   3.277   6.169
 6127POPC   D2A76648   9.654   3.429   6.604
 6127POPC   C3A76649   9.931   3.669   6.878
 6127POPC   C4A76650  10.095   3.581   7.285
 6127POPC   C1B76651   9.501   3.745   6.163
 6127POPC   C2B76652   9.566   3.968   6.599
 6127POPC   C3B76653   9.457   3.873   7.064
 6127POPC   C4B76654   9.477   3.740   7.549
 6128POPC   NC376655   1.558  41.736   5.449
 6128POPC   PO476656   1.004  41.436   5.102
 6128POPC   GL176657   1.075  41.458   5.633
 6128POPC   GL276658   0.792  41.683   5.797
 6128POPC   C1A76659   1.275  41.658   6.054
 6128POPC   D2A76660   1.186  41.782   6.511
 6128POPC   C3A76661   1.415  41.585   6.866
 6128POPC   C4A76662   1.547  41.450   7.285
 6128POPC   C1B76663   0.825  41.491   6.193
 6128POPC   C2B76664   0.921  41.338   6.579
 6128POPC   C3B76665   0.899  41.593   6.925
 6128POPC   C4B76666   1.051  41.479   7.292
 6129POPC   NC376667  43.674  32.828   5.624
 6129POPC   PO476668  44.220  32.915   5.246
 6129POPC   GL176669  44.183  32.882   5.740
 6129POPC   GL276670  44.040  33.185   5.754
 6129POPC   C1A76671  43.948  32.910   6.219
 6129POPC   D2A76672  43.628  33.086   6.551
 6129POPC   C3A76673  43.675  32.976   7.001
 6129POPC   C4A76674  43.671  33.208   7.386
 6129POPC   C1B76675  44.261  33.298   6.095
 6129POPC   C2B76676  44.098  33.341   6.505
 6129POPC   C3B76677  44.112  33.130   6.844
 6129POPC   C4B76678  44.139  33.368   7.221
 6130POPC   NC376679   9.542  30.432   5.508
 6130POPC   PO476680   9.426  29.672   5.448
 6130POPC   GL176681   9.630  29.944   5.739
 6130POPC   GL276682   9.966  29.986   5.719
 6130POPC   C1A76683   9.744  29.790   6.133
 6130POPC   D2A76684   9.984  29.671   6.470
 6130POPC   C3A76685   9.746  29.837   6.827
 6130POPC   C4A76686   9.547  29.772   7.225
 6130POPC   C1B76687  10.138  30.103   6.109
 6130POPC   C2B76688  10.109  30.163   6.545
 6130POPC   C3B76689  10.029  30.244   6.950
 6130POPC   C4B76690   9.973  30.436   7.308
 6131POPC   NC376691   9.202  28.155   5.357
 6131POPC   PO476692   8.560  28.080   5.484
 6131POPC   GL176693   8.795  28.301   5.787
 6131POPC   GL276694   9.121  28.148   5.864
 6131POPC   C1A76695   8.864  28.492   6.196
 6131POPC   D2A76696   9.031  28.505   6.614
 6131POPC   C3A76697   8.834  28.655   6.965
 6131POPC   C4A76698   8.646  28.551   7.338
 6131POPC   C1B76699   9.238  28.126   6.286
 6131POPC   C2B76700   9.221  28.043   6.715
 6131POPC   C3B76701   9.236  28.291   7.124
 6131POPC   C4B76702   9.558  28.452   7.489
 6132POPC   NC376703  36.167  10.335   5.427
 6132POPC   PO476704  36.430  10.886   5.444
 6132POPC   GL176705  36.347  10.572   5.833
 6132POPC   GL276706  35.967  10.512   5.862
 6132POPC   C1A76707  36.261  10.491   6.293
 6132POPC   D2A76708  36.105  10.716   6.673
 6132POPC   C3A76709  36.323  10.665   7.072
 6132POPC   C4A76710  36.279  10.348   7.403
 6132POPC   C1B76711  35.804  10.234   6.204
 6132POPC   C2B76712  35.976  10.198   6.612
 6132POPC   C3B76713  35.941  10.322   6.989
 6132POPC   C4B76714  35.879  10.035   7.248
 6133POPC   NC376715   9.515  23.138   5.074
 6133POPC   PO476716   8.933  23.002   5.360
 6133POPC   GL176717   9.013  22.911   5.784
 6133POPC   GL276718   8.686  22.750   5.793
 6133POPC   C1A76719   9.211  22.851   6.220
 6133POPC   D2A76720   9.255  22.601   6.633
 6133POPC   C3A76721   9.252  22.777   7.053
 6133POPC   C4A76722   9.004  22.718   7.432
 6133POPC   C1B76723   8.710  23.042   6.182
 6133POPC   C2B76724   8.933  23.036   6.611
 6133POPC   C3B76725   8.773  22.916   7.005
 6133POPC   C4B76726   8.641  23.078   7.388
 6134POPC   NC376727  38.080  20.825   5.487
 6134POPC   PO476728  38.726  20.765   5.444
 6134POPC   GL176729  38.502  20.652   5.824
 6134POPC   GL276730  38.278  20.350   5.740
 6134POPC   C1A76731  38.672  20.787   6.243
 6134POPC   D2A76732  38.548  20.657   6.647
 6134POPC   C3A76733  38.639  20.832   7.048
 6134POPC   C4A76734  38.773  20.474   7.270
 6134POPC   C1B76735  38.100  20.407   6.156
 6134POPC   C2B76736  38.209  20.268   6.587
 6134POPC   C3B76737  38.248  20.442   7.010
 6134POPC   C4B76738  37.941  20.660   7.231
 6135POPC   NC376739  23.022  28.696   5.189
 6135POPC   PO476740  22.831  29.272   5.469
 6135POPC   GL176741  23.067  29.183   5.788
 6135POPC   GL276742  23.171  28.841   5.678
 6135POPC   C1A76743  22.904  29.270   6.200
 6135POPC   D2A76744  22.628  29.180   6.513
 6135POPC   C3A76745  22.807  29.269   6.869
 6135POPC   C4A76746  22.888  29.297   7.289
 6135POPC   C1B76747  23.107  28.806   6.137
 6135POPC   C2B76748  23.225  29.028   6.527
 6135POPC   C3B76749  23.157  28.907   6.952
 6135POPC   C4B76750  23.231  28.935   7.374
 6136POPC   NC376751  39.836   1.514   5.175
 6136POPC   PO476752  40.137   0.938   5.339
 6136POPC   GL176753  40.190   1.116   5.751
 6136POPC   GL276754  40.429   1.388   5.639
 6136POPC   C1A76755  39.975   1.167   6.190
 6136POPC   D2A76756  40.035   1.142   6.652
 6136POPC   C3A76757  39.803   1.256   7.040
 6136POPC   C4A76758  39.857   1.320   7.556
 6136POPC   C1B76759  40.348   1.499   6.051
 6136POPC   C2B76760  40.275   1.558   6.495
 6136POPC   C3B76761  40.230   1.534   6.954
 6136POPC   C4B76762  40.281   1.573   7.408
 6137POPC   NC376763  40.395  17.271   5.451
 6137POPC   PO476764  39.872  17.564   5.559
 6137POPC   GL176765  39.850  17.359   5.948
 6137POPC   GL276766  40.226  17.267   5.960
 6137POPC   C1A76767  39.840  17.455   6.396
 6137POPC   D2A76768  40.170  17.736   6.573
 6137POPC   C3A76769  40.337  17.716   7.000
 6137POPC   C4A76770  40.210  17.673   7.418
 6137POPC   C1B76771  40.315  17.049   6.346
 6137POPC   C2B76772  40.357  17.146   6.786
 6137POPC   C3B76773  40.304  17.182   7.240
 6137POPC   C4B76774  40.371  17.254   7.698
 6138POPC   NC376775  11.760  43.853   5.427
 6138POPC   PO476776  11.062  43.690   5.464
 6138POPC   GL176777  11.261  43.950   5.763
 6138POPC   GL276778  11.568  43.805   5.899
 6138POPC   C1A76779  11.234  44.104   6.175
 6138POPC   D2A76780  11.513  44.084   6.546
 6138POPC   C3A76781  11.329  44.016   6.930
 6138POPC   C4A76782  11.413  43.790   7.261
 6138POPC   C1B76783  11.656  43.654   6.294
 6138POPC   C2B76784  11.758  43.566   6.718
 6138POPC   C3B76785  11.533  43.358   7.047
 6138POPC   C4B76786  11.530  43.383   7.522
 6139POPC   NC376787  21.878  42.884   5.353
 6139POPC   PO476788  22.458  43.161   5.422
 6139POPC   GL176789  22.325  42.933   5.747
 6139POPC   GL276790  21.991  43.030   5.856
 6139POPC   C1A76791  22.420  43.052   6.165
 6139POPC   D2A76792  22.458  43.227   6.553
 6139POPC   C3A76793  22.285  42.991   6.881
 6139POPC   C4A76794  22.072  43.063   7.232
 6139POPC   C1B76795  21.698  43.116   6.217
 6139POPC   C2B76796  21.807  43.146   6.669
 6139POPC   C3B76797  21.640  43.315   7.067
 6139POPC   C4B76798  21.669  43.178   7.506
 6140POPC   NC376799  18.539  10.521   5.412
 6140POPC   PO476800  17.893  10.876   5.528
 6140POPC   GL176801  18.241  10.640   5.818
 6140POPC   GL276802  18.344  10.291   5.835
 6140POPC   C1A76803  18.499  10.601   6.228
 6140POPC   D2A76804  18.247  10.679   6.623
 6140POPC   C3A76805  18.412  10.600   7.003
 6140POPC   C4A76806  18.176  10.304   7.165
 6140POPC   C1B76807  18.122  10.261   6.245
 6140POPC   C2B76808  18.342  10.179   6.649
 6140POPC   C3B76809  18.622  10.110   6.994
 6140POPC   C4B76810  18.685  10.165   7.437
 6141POPC   NC376811  43.236   6.052   5.381
 6141POPC   PO476812  42.829   5.544   5.510
 6141POPC   GL176813  43.068   5.812   5.825
 6141POPC   GL276814  43.350   6.051   5.875
 6141POPC   C1A76815  43.237   5.758   6.269
 6141POPC   D2A76816  43.194   6.028   6.613
 6141POPC   C3A76817  43.210   5.868   7.038
 6141POPC   C4A76818  43.326   6.171   7.351
 6141POPC   C1B76819  42.956   6.204   6.099
 6141POPC   C2B76820  42.842   6.400   6.478
 6141POPC   C3B76821  42.781   6.199   6.891
 6141POPC   C4B76822  42.626   6.401   7.258
 6142POPC   NC376823   6.317  26.475   5.732
 6142POPC   PO476824   5.667  26.774   5.588
 6142POPC   GL176825   5.918  26.789   5.928
 6142POPC   GL276826   6.146  27.054   5.923
 6142POPC   C1A76827   5.778  26.688   6.345
 6142POPC   D2A76828   5.681  26.422   6.683
 6142POPC   C3A76829   5.723  26.650   7.044
 6142POPC   C4A76830   5.953  26.685   7.448
 6142POPC   C1B76831   5.966  27.160   6.322
 6142POPC   C2B76832   5.911  27.052   6.762
 6142POPC   C3B76833   6.162  26.951   7.075
 6142POPC   C4B76834   6.419  27.091   7.380
 6143POPC   NC376835   0.264  26.343   5.426
 6143POPC   PO476836   0.759  25.878   5.442
 6143POPC   GL176837   0.369  25.829   5.748
 6143POPC   GL276838   0.183  26.153   5.874
 6143POPC   C1A76839   0.130  25.778   6.171
 6143POPC   D2A76840   0.094  26.045   6.534
 6143POPC   C3A76841   0.161  25.810   6.899
 6143POPC   C4A76842   0.061  25.895   7.324
 6143POPC   C1B76843   0.537  26.175   6.146
 6143POPC   C2B76844   0.503  26.367   6.550
 6143POPC   C3B76845   0.419  26.245   6.979
 6143POPC   C4B76846   0.733  26.234   7.291
 6144POPC   NC376847  34.511  38.269   5.499
 6144POPC   PO476848  33.881  38.381   5.346
 6144POPC   GL176849  33.944  38.499   5.772
 6144POPC   GL276850  33.988  38.854   5.799
 6144POPC   C1A76851  33.882  38.570   6.212
 6144POPC   D2A76852  33.598  38.449   6.491
 6144POPC   C3A76853  33.799  38.372   6.860
 6144POPC   C4A76854  33.648  38.331   7.272
 6144POPC   C1B76855  34.217  38.945   6.196
 6144POPC   C2B76856  34.359  38.686   6.545
 6144POPC   C3B76857  34.250  38.725   6.974
 6144POPC   C4B76858  34.097  38.508   7.293
 6145POPC   NC376859  35.270   6.640   5.379
 6145POPC   PO476860  35.827   6.891   5.409
 6145POPC   GL176861  35.537   6.796   5.791
 6145POPC   GL276862  35.232   7.015   5.738
 6145POPC   C1A76863  35.520   6.554   6.216
 6145POPC   D2A76864  35.663   6.640   6.673
 6145POPC   C3A76865  35.691   6.299   6.986
 6145POPC   C4A76866  35.551   6.246   7.427
 6145POPC   C1B76867  35.175   6.951   6.177
 6145POPC   C2B76868  35.151   6.729   6.579
 6145POPC   C3B76869  35.211   6.507   6.980
 6145POPC   C4B76870  35.168   6.639   7.398
 6146POPC   NC376871   7.270   9.414   5.307
 6146POPC   PO476872   7.512  10.102   5.425
 6146POPC   GL176873   7.281   9.845   5.711
 6146POPC   GL276874   7.547   9.969   5.938
 6146POPC   C1A76875   7.193   9.688   6.153
 6146POPC   D2A76876   7.409   9.928   6.506
 6146POPC   C3A76877   7.623   9.614   6.760
 6146POPC   C4A76878   7.513   9.401   7.123
 6146POPC   C1B76879   7.142  10.196   6.111
 6146POPC   C2B76880   7.074  10.395   6.510
 6146POPC   C3B76881   7.030  10.237   6.907
 6146POPC   C4B76882   7.301   9.914   7.034
 6147POPC   NC376883  18.113  21.922   5.480
 6147POPC   PO476884  18.689  22.384   5.542
 6147POPC   GL176885  18.464  22.118   5.822
 6147POPC   GL276886  18.134  22.219   5.921
 6147POPC   C1A76887  18.497  21.982   6.237
 6147POPC   D2A76888  18.302  22.200   6.588
 6147POPC   C3A76889  18.464  22.264   7.006
 6147POPC   C4A76890  18.166  22.432   7.309
 6147POPC   C1B76891  18.034  21.800   6.118
 6147POPC   C2B76892  18.011  21.737   6.558
 6147POPC   C3B76893  18.098  21.895   6.991
 6147POPC   C4B76894  17.939  21.966   7.429
 6148POPC   NC376895   4.254  15.667   5.396
 6148POPC   PO476896   4.380  16.396   5.235
 6148POPC   GL176897   4.397  16.132   5.664
 6148POPC   GL276898   4.065  15.964   5.784
 6148POPC   C1A76899   4.345  16.194   6.156
 6148POPC   D2A76900   4.284  16.452   6.558
 6148POPC   C3A76901   4.298  16.277   6.976
 6148POPC   C4A76902   4.136  16.111   7.330
 6148POPC   C1B76903   4.280  15.695   6.125
 6148POPC   C2B76904   4.398  15.606   6.564
 6148POPC   C3B76905   4.338  15.745   6.998
 6148POPC   C4B76906   4.348  15.504   7.396
 6149POPC   NC376907  39.666  41.439   5.671
 6149POPC   PO476908  39.023  41.499   5.393
 6149POPC   GL176909  39.183  41.551   5.821
 6149POPC   GL276910  39.085  41.237   5.944
 6149POPC   C1A76911  39.356  41.680   6.246
 6149POPC   D2A76912  39.491  41.931   6.592
 6149POPC   C3A76913  39.434  41.677   6.948
 6149POPC   C4A76914  39.277  41.798   7.349
 6149POPC   C1B76915  39.436  41.169   6.243
 6149POPC   C2B76916  39.673  41.320   6.609
 6149POPC   C3B76917  39.685  41.233   7.044
 6149POPC   C4B76918  39.265  41.291   7.249
 6150POPC   NC376919  33.660  15.327   5.392
 6150POPC   PO476920  34.058  14.778   5.272
 6150POPC   GL176921  34.010  14.997   5.728
 6150POPC   GL276922  33.658  15.048   5.823
 6150POPC   C1A76923  33.955  15.011   6.226
 6150POPC   D2A76924  33.759  15.220   6.603
 6150POPC   C3A76925  33.976  15.273   6.998
 6150POPC   C4A76926  34.220  14.927   7.159
 6150POPC   C1B76927  33.479  15.320   6.157
 6150POPC   C2B76928  33.315  15.444   6.573
 6150POPC   C3B76929  33.387  15.313   7.001
 6150POPC   C4B76930  33.537  15.357   7.410
 6151POPC   NC376931  42.818   7.113   5.306
 6151POPC   PO476932  43.248   6.532   5.307
 6151POPC   GL176933  43.181   6.519   5.735
 6151POPC   GL276934  42.879   6.674   5.871
 6151POPC   C1A76935  43.282   6.597   6.170
 6151POPC   D2A76936  43.257   6.819   6.551
 6151POPC   C3A76937  43.076   6.627   6.906
 6151POPC   C4A76938  43.288   6.688   7.282
 6151POPC   C1B76939  42.876   6.960   6.240
 6151POPC   C2B76940  42.806   7.039   6.702
 6151POPC   C3B76941  42.866   7.024   7.166
 6151POPC   C4B76942  42.652   6.859   7.533
 6152POPC   NC376943   0.089  14.407   5.538
 6152POPC   PO476944   0.701  14.265   5.371
 6152POPC   GL176945   0.644  14.468   5.759
 6152POPC   GL276946   0.400  14.750   5.753
 6152POPC   C1A76947   0.790  14.458   6.176
 6152POPC   D2A76948   0.744  14.511   6.598
 6152POPC   C3A76949   0.688  14.236   6.947
 6152POPC   C4A76950   0.699  14.257   7.434
 6152POPC   C1B76951   0.279  14.560   6.154
 6152POPC   C2B76952   0.270  14.301   6.513
 6152POPC   C3B76953   0.156  14.286   6.927
 6152POPC   C4B76954  44.851  14.500   7.177
 6153POPC   NC376955   4.814  26.582   5.453
 6153POPC   PO476956   4.328  26.142   5.466
 6153POPC   GL176957   4.294  26.054   5.894
 6153POPC   GL276958   4.625  26.139   5.924
 6153POPC   C1A76959   4.267  26.032   6.352
 6153POPC   D2A76960   4.383  26.070   6.777
 6153POPC   C3A76961   4.210  25.779   7.035
 6153POPC   C4A76962   3.901  25.880   7.380
 6153POPC   C1B76963   4.753  26.183   6.361
 6153POPC   C2B76964   4.863  25.913   6.709
 6153POPC   C3B76965   4.708  25.850   7.129
 6153POPC   C4B76966   4.421  25.790   7.481
 6154POPC   NC376967  20.175  29.267   5.389
 6154POPC   PO476968  19.479  29.047   5.269
 6154POPC   GL176969  19.725  28.928   5.681
 6154POPC   GL276970  19.985  29.170   5.852
 6154POPC   C1A76971  19.756  28.836   6.143
 6154POPC   D2A76972  19.943  29.080   6.482
 6154POPC   C3A76973  19.928  28.930   6.897
 6154POPC   C4A76974  20.128  29.001   7.319
 6154POPC   C1B76975  19.715  29.405   6.158
 6154POPC   C2B76976  19.549  29.491   6.595
 6154POPC   C3B76977  19.810  29.513   6.970
 6154POPC   C4B76978  19.657  29.195   7.213
 6155POPC   NC376979  39.641  17.029   5.425
 6155POPC   PO476980  40.159  16.416   5.524
 6155POPC   GL176981  39.970  16.512   5.911
 6155POPC   GL276982  39.941  16.865   5.822
 6155POPC   C1A76983  39.853  16.361   6.328
 6155POPC   D2A76984  39.827  16.113   6.726
 6155POPC   C3A76985  39.874  16.428   6.996
 6155POPC   C4A76986  40.137  16.715   7.185
 6155POPC   C1B76987  39.829  16.907   6.264
 6155POPC   C2B76988  39.894  16.911   6.732
 6155POPC   C3B76989  39.794  17.127   7.133
 6155POPC   C4B76990  39.445  17.156   7.431
 6156POPC   NC376991  36.805  16.177   5.449
 6156POPC   PO476992  37.238  15.639   5.569
 6156POPC   GL176993  36.987  15.881   5.832
 6156POPC   GL276994  36.645  15.819   5.802
 6156POPC   C1A76995  36.875  16.054   6.236
 6156POPC   D2A76996  37.180  16.026   6.577
 6156POPC   C3A76997  37.063  16.169   6.955
 6156POPC   C4A76998  36.666  16.143   7.134
 6156POPC   C1B76999  36.435  15.647   6.124
 6156POPC   C2B77000  36.698  15.545   6.445
 6156POPC   C3B77001  36.776  15.766   6.804
 6156POPC   C4B77002  36.724  15.654   7.227
 6157POPC   NC377003  42.565  32.625   5.439
 6157POPC   PO477004  42.109  32.230   5.658
 6157POPC   GL177005  42.383  32.395   5.915
 6157POPC   GL277006  42.702  32.256   5.780
 6157POPC   C1A77007  42.221  32.318   6.322
 6157POPC   D2A77008  42.040  32.058   6.609
 6157POPC   C3A77009  42.187  32.208   6.953
 6157POPC   C4A77010  42.027  32.347   7.339
 6157POPC   C1B77011  42.689  32.077   6.196
 6157POPC   C2B77012  42.629  32.191   6.627
 6157POPC   C3B77013  42.641  31.965   7.026
 6157POPC   C4B77014  42.501  32.219   7.348
 6158POPC   NC377015   7.095  31.505   5.386
 6158POPC   PO477016   6.528  31.723   5.410
 6158POPC   GL177017   6.678  31.555   5.798
 6158POPC   GL277018   6.946  31.776   5.818
 6158POPC   C1A77019   6.538  31.328   6.199
 6158POPC   D2A77020   6.381  31.384   6.639
 6158POPC   C3A77021   6.587  31.336   7.076
 6158POPC   C4A77022   6.523  31.235   7.569
 6158POPC   C1B77023   6.989  31.581   6.226
 6158POPC   C2B77024   6.851  31.637   6.656
 6158POPC   C3B77025   6.518  31.825   6.877
 6158POPC   C4B77026   6.204  31.850   7.172
 6159POPC   NC377027  43.835  44.286   5.511
 6159POPC   PO477028  43.941  44.980   5.553
 6159POPC   GL177029  43.770  44.684   5.859
 6159POPC   GL277030  44.082  44.522   5.970
 6159POPC   C1A77031  43.657  44.571   6.295
 6159POPC   D2A77032  43.839  44.735   6.699
 6159POPC   C3A77033  43.893  44.475   7.063
 6159POPC   C4A77034  43.601  44.514   7.380
 6159POPC   C1B77035  44.070  44.881   6.263
 6159POPC   C2B77036  44.221   0.070   6.689
 6159POPC   C3B77037  44.083  44.951   7.118
 6159POPC   C4B77038  44.225  44.928   7.553
 6160POPC   NC377039  33.521  16.434   5.447
 6160POPC   PO477040  33.861  15.745   5.452
 6160POPC   GL177041  33.842  15.838   5.857
 6160POPC   GL277042  33.976  16.188   5.858
 6160POPC   C1A77043  33.722  15.978   6.257
 6160POPC   D2A77044  33.871  16.134   6.613
 6160POPC   C3A77045  33.453  16.157   6.792
 6160POPC   C4A77046  33.216  16.300   7.119
 6160POPC   C1B77047  34.227  15.925   6.189
 6160POPC   C2B77048  34.022  15.643   6.512
 6160POPC   C3B77049  33.709  15.705   6.856
 6160POPC   C4B77050  33.807  16.068   7.155
 6161POPC   NC377051  14.356  35.398   5.402
 6161POPC   PO477052  13.790  34.961   5.559
 6161POPC   GL177053  14.146  35.166   5.838
 6161POPC   GL277054  14.534  35.295   5.854
 6161POPC   C1A77055  14.218  35.257   6.281
 6161POPC   D2A77056  14.393  35.040   6.588
 6161POPC   C3A77057  14.370  35.238   6.951
 6161POPC   C4A77058  14.402  35.042   7.388
 6161POPC   C1B77059  14.492  35.669   6.128
 6161POPC   C2B77060  14.540  35.584   6.557
 6161POPC   C3B77061  14.670  35.670   6.962
 6161POPC   C4B77062  14.499  35.545   7.331
 6162POPC   NC377063   0.343  32.554   5.325
 6162POPC   PO477064   0.719  32.033   5.246
 6162POPC   GL177065   0.501  32.158   5.665
 6162POPC   GL277066   0.408  32.499   5.846
 6162POPC   C1A77067   0.604  32.093   6.131
 6162POPC   D2A77068   0.581  32.258   6.558
 6162POPC   C3A77069   0.556  32.039   6.940
 6162POPC   C4A77070   0.626  32.224   7.342
 6162POPC   C1B77071   0.177  32.377   6.245
 6162POPC   C2B77072   0.102  32.281   6.713
 6162POPC   C3B77073   0.257  32.482   7.107
 6162POPC   C4B77074   0.236  32.405   7.602
 6163POPC   NC377075  13.968  38.704   5.693
 6163POPC   PO477076  14.601  38.585   5.503
 6163POPC   GL177077  14.401  38.433   5.868
 6163POPC   GL277078  14.103  38.202   5.822
 6163POPC   C1A77079  14.324  38.715   6.240
 6163POPC   D2A77080  14.237  38.935   6.625
 6163POPC   C3A77081  14.543  38.722   6.924
 6163POPC   C4A77082  14.548  38.324   7.115
 6163POPC   C1B77083  14.144  38.227   6.269
 6163POPC   C2B77084  14.079  38.446   6.663
 6163POPC   C3B77085  14.057  38.456   7.112
 6163POPC   C4B77086  14.025  38.407   7.570
 6164POPC   NC377087   6.792  34.994   5.337
 6164POPC   PO477088   6.354  35.546   5.439
 6164POPC   GL177089   6.527  35.494   5.827
 6164POPC   GL277090   6.317  35.789   5.878
 6164POPC   C1A77091   6.635  35.203   6.210
 6164POPC   D2A77092   6.538  35.043   6.640
 6164POPC   C3A77093   6.725  35.241   6.997
 6164POPC   C4A77094   6.659  35.192   7.431
 6164POPC   C1B77095   6.403  35.640   6.285
 6164POPC   C2B77096   6.589  35.571   6.631
 6164POPC   C3B77097   6.501  35.772   6.963
 6164POPC   C4B77098   6.588  35.674   7.325
 6165POPC   NC377099  33.930  42.428   5.292
 6165POPC   PO477100  33.365  42.657   5.443
 6165POPC   GL177101  33.745  42.542   5.765
 6165POPC   GL277102  33.702  42.231   5.826
 6165POPC   C1A77103  33.968  42.420   6.218
 6165POPC   D2A77104  33.785  42.460   6.633
 6165POPC   C3A77105  33.979  42.405   7.052
 6165POPC   C4A77106  33.641  42.544   7.296
 6165POPC   C1B77107  33.524  42.162   6.225
 6165POPC   C2B77108  33.395  41.954   6.577
 6165POPC   C3B77109  33.592  42.082   6.925
 6165POPC   C4B77110  33.738  42.035   7.318
 6166POPC   NC377111  22.201  18.244   5.125
 6166POPC   PO477112  22.333  17.946   5.727
 6166POPC   GL177113  22.209  18.277   5.963
 6166POPC   GL277114  21.902  18.283   5.761
 6166POPC   C1A77115  22.096  18.591   6.265
 6166POPC   D2A77116  22.162  18.672   6.705
 6166POPC   C3A77117  21.954  18.598   7.089
 6166POPC   C4A77118  22.288  18.425   7.351
 6166POPC   C1B77119  21.829  17.999   6.162
 6166POPC   C2B77120  21.982  18.148   6.535
 6166POPC   C3B77121  22.163  18.169   6.917
 6166POPC   C4B77122  21.875  18.070   7.231
 6167POPC   NC377123  40.285   6.502   5.853
 6167POPC   PO477124  39.761   6.762   5.596
 6167POPC   GL177125  39.803   6.677   5.962
 6167POPC   GL277126  39.638   6.356   5.889
 6167POPC   C1A77127  39.912   6.685   6.386
 6167POPC   D2A77128  40.280   6.693   6.620
 6167POPC   C3A77129  40.206   6.446   6.998
 6167POPC   C4A77130  40.237   6.562   7.423
 6167POPC   C1B77131  39.421   6.559   6.247
 6167POPC   C2B77132  39.491   6.801   6.672
 6167POPC   C3B77133  39.758   6.697   7.032
 6167POPC   C4B77134  39.722   6.494   7.448
 6168POPC   NC377135  25.175  13.203   5.550
 6168POPC   PO477136  25.204  12.522   5.339
 6168POPC   GL177137  25.401  12.616   5.773
 6168POPC   GL277138  25.541  12.957   5.823
 6168POPC   C1A77139  25.289  12.732   6.218
 6168POPC   D2A77140  25.020  12.682   6.569
 6168POPC   C3A77141  25.170  12.842   6.927
 6168POPC   C4A77142  25.137  12.682   7.287
 6168POPC   C1B77143  25.716  12.992   6.263
 6168POPC   C2B77144  25.598  12.770   6.655
 6168POPC   C3B77145  25.655  12.899   7.093
 6168POPC   C4B77146  25.565  13.324   7.235
 6169POPC   NC377147   2.244  14.434   5.336
 6169POPC   PO477148   2.919  14.122   5.435
 6169POPC   GL177149   2.593  14.232   5.681
 6169POPC   GL277150   2.759  14.540   5.769
 6169POPC   C1A77151   2.575  14.206   6.121
 6169POPC   D2A77152   2.358  14.379   6.420
 6169POPC   C3A77153   2.458  14.369   6.815
 6169POPC   C4A77154   2.338  14.462   7.202
 6169POPC   C1B77155   2.731  14.686   6.201
 6169POPC   C2B77156   2.842  14.685   6.639
 6169POPC   C3B77157   2.845  14.599   7.082
 6169POPC   C4B77158   2.615  14.819   7.393
 6170POPC   NC377159   9.878  35.008   5.320
 6170POPC   PO477160   9.565  34.380   5.468
 6170POPC   GL177161   9.694  34.476   5.847
 6170POPC   GL277162   9.832  34.783   5.794
 6170POPC   C1A77163   9.595  34.638   6.240
 6170POPC   D2A77164   9.647  34.416   6.583
 6170POPC   C3A77165   9.608  34.617   6.915
 6170POPC   C4A77166   9.693  34.394   7.232
 6170POPC   C1B77167  10.049  34.938   6.173
 6170POPC   C2B77168   9.917  34.892   6.599
 6170POPC   C3B77169  10.032  34.863   7.042
 6170POPC   C4B77170  10.330  34.744   7.328
 6171POPC   NC377171  42.267  43.961   5.437
 6171POPC   PO477172  42.782  43.582   5.505
 6171POPC   GL177173  42.423  43.623   5.824
 6171POPC   GL277174  42.097  43.834   5.901
 6171POPC   C1A77175  42.410  43.674   6.277
 6171POPC   D2A77176  42.621  43.807   6.647
 6171POPC   C3A77177  42.292  43.736   6.936
 6171POPC   C4A77178  42.315  43.429   7.226
 6171POPC   C1B77179  42.143  44.141   6.274
 6171POPC   C2B77180  41.971  44.268   6.700
 6171POPC   C3B77181  42.197  44.200   7.097
 6171POPC   C4B77182  42.653  44.130   7.126
 6172POPC   NC377183  27.061   6.090   5.286
 6172POPC   PO477184  26.604   5.652   5.550
 6172POPC   GL177185  26.841   5.810   5.887
 6172POPC   GL277186  27.149   5.931   5.760
 6172POPC   C1A77187  26.883   5.829   6.327
 6172POPC   D2A77188  26.776   6.171   6.605
 6172POPC   C3A77189  26.648   6.009   6.931
 6172POPC   C4A77190  26.733   5.568   7.064
 6172POPC   C1B77191  27.159   6.183   6.102
 6172POPC   C2B77192  27.300   6.072   6.495
 6172POPC   C3B77193  27.112   5.836   6.803
 6172POPC   C4B77194  27.064   5.941   7.201
 6173POPC   NC377195   3.297   6.320   5.406
 6173POPC   PO477196   3.493   7.063   5.325
 6173POPC   GL177197   3.600   6.901   5.731
 6173POPC   GL277198   3.705   6.554   5.680
 6173POPC   C1A77199   3.369   6.743   6.066
 6173POPC   D2A77200   3.544   6.752   6.457
 6173POPC   C3A77201   3.373   6.795   6.855
 6173POPC   C4A77202   3.594   6.794   7.215
 6173POPC   C1B77203   3.811   6.476   6.100
 6173POPC   C2B77204   3.767   6.274   6.478
 6173POPC   C3B77205   3.794   6.429   6.894
 6173POPC   C4B77206   3.685   6.301   7.301
 6174POPC   NC377207  20.206  24.978   5.558
 6174POPC   PO477208  20.762  25.135   5.196
 6174POPC   GL177209  20.701  25.139   5.667
 6174POPC   GL277210  20.867  25.446   5.848
 6174POPC   C1A77211  20.569  25.150   6.125
 6174POPC   D2A77212  20.701  25.287   6.535
 6174POPC   C3A77213  20.355  25.262   6.830
 6174POPC   C4A77214  20.395  25.041   7.207
 6174POPC   C1B77215  21.130  25.490   6.217
 6174POPC   C2B77216  21.196  25.375   6.656
 6174POPC   C3B77217  20.896  25.541   6.971
 6174POPC   C4B77218  20.758  25.448   7.418
 6175POPC   NC377219   6.889   3.229   5.596
 6175POPC   PO477220   6.524   3.770   5.583
 6175POPC   GL177221   6.619   3.626   5.932
 6175POPC   GL277222   6.469   3.315   5.885
 6175POPC   C1A77223   6.692   3.802   6.338
 6175POPC   D2A77224   6.889   3.645   6.699
 6175POPC   C3A77225   6.598   3.674   7.026
 6175POPC   C4A77226   6.612   3.577   7.470
 6175POPC   C1B77227   6.728   3.271   6.264
 6175POPC   C2B77228   6.519   3.306   6.635
 6175POPC   C3B77229   6.522   3.179   7.041
 6175POPC   C4B77230   6.198   3.341   7.282
 6176POPC   NC377231  22.999  19.270   5.410
 6176POPC   PO477232  22.758  18.701   5.593
 6176POPC   GL177233  22.829  19.051   5.822
 6176POPC   GL277234  22.591  19.336   5.729
 6176POPC   C1A77235  23.053  18.998   6.171
 6176POPC   D2A77236  23.075  18.643   6.433
 6176POPC   C3A77237  23.080  18.784   6.837
 6176POPC   C4A77238  22.893  19.032   7.183
 6176POPC   C1B77239  22.629  19.291   6.209
 6176POPC   C2B77240  22.838  19.344   6.608
 6176POPC   C3B77241  22.609  19.407   6.986
 6176POPC   C4B77242  22.813  19.518   7.359
 6177POPC   NC377243  33.116  24.462   5.524
 6177POPC   PO477244  32.486  24.757   5.581
 6177POPC   GL177245  32.661  24.417   5.817
 6177POPC   GL277246  32.875  24.670   5.958
 6177POPC   C1A77247  32.783  24.221   6.215
 6177POPC   D2A77248  33.029  24.420   6.561
 6177POPC   C3A77249  32.757  24.539   6.897
 6177POPC   C4A77250  32.551  24.259   7.183
 6177POPC   C1B77251  33.219  24.801   6.228
 6177POPC   C2B77252  33.497  24.665   6.560
 6177POPC   C3B77253  33.375  24.524   6.955
 6177POPC   C4B77254  33.484  24.676   7.329
 6178POPC   NC377255   8.717  40.458   5.505
 6178POPC   PO477256   8.943  39.754   5.436
 6178POPC   GL177257   9.081  39.754   5.879
 6178POPC   GL277258   9.012  40.107   5.930
 6178POPC   C1A77259   9.153  39.877   6.358
 6178POPC   D2A77260   9.246  40.205   6.690
 6178POPC   C3A77261   9.351  40.094   7.126
 6178POPC   C4A77262   9.567  40.118   7.562
 6178POPC   C1B77263   8.678  39.808   6.208
 6178POPC   C2B77264   8.769  39.691   6.670
 6178POPC   C3B77265   8.783  39.820   7.072
 6178POPC   C4B77266   8.854  40.254   7.120
 6179POPC   NC377267  23.900  25.456   5.216
 6179POPC   PO477268  23.551  24.919   5.255
 6179POPC   GL177269  23.689  25.281   5.660
 6179POPC   GL277270  24.049  25.254   5.811
 6179POPC   C1A77271  23.616  25.416   6.158
 6179POPC   D2A77272  23.655  25.623   6.612
 6179POPC   C3A77273  23.391  25.580   6.995
 6179POPC   C4A77274  23.274  25.155   7.067
 6179POPC   C1B77275  23.966  25.024   6.216
 6179POPC   C2B77276  23.709  25.032   6.596
 6179POPC   C3B77277  23.770  25.229   6.996
 6179POPC   C4B77278  23.881  25.057   7.386
 6180POPC   NC377279  43.602  26.994   5.380
 6180POPC   PO477280  44.081  26.546   5.512
 6180POPC   GL177281  43.898  26.889   5.771
 6180POPC   GL277282  43.550  26.817   5.868
 6180POPC   C1A77283  43.848  27.126   6.153
 6180POPC   D2A77284  43.989  26.940   6.545
 6180POPC   C3A77285  43.918  27.153   6.918
 6180POPC   C4A77286  43.874  27.072   7.324
 6180POPC   C1B77287  43.727  26.619   6.219
 6180POPC   C2B77288  43.682  26.333   6.542
 6180POPC   C3B77289  43.805  26.557   6.906
 6180POPC   C4B77290  43.689  26.609   7.306
 6181POPC   NC377291  24.269  10.082   5.641
 6181POPC   PO477292  24.701   9.772   5.237
 6181POPC   GL177293  24.651   9.502   5.698
 6181POPC   GL277294  24.313   9.599   5.830
 6181POPC   C1A77295  24.686   9.576   6.213
 6181POPC   D2A77296  24.473   9.672   6.622
 6181POPC   C3A77297  24.697   9.750   7.002
 6181POPC   C4A77298  25.058   9.595   7.164
 6181POPC   C1B77299  24.160   9.450   6.243
 6181POPC   C2B77300  24.003   9.433   6.695
 6181POPC   C3B77301  24.249   9.499   7.074
 6181POPC   C4B77302  24.272   9.947   7.246
 6182POPC   NC377303  31.659   6.290   5.336
 6182POPC   PO477304  31.282   6.826   5.276
 6182POPC   GL177305  31.561   6.747   5.639
 6182POPC   GL277306  31.404   6.485   5.766
 6182POPC   C1A77307  31.652   6.757   6.126
 6182POPC   D2A77308  31.780   6.672   6.593
 6182POPC   C3A77309  31.502   6.662   6.973
 6182POPC   C4A77310  31.413   7.027   7.237
 6182POPC   C1B77311  31.175   6.287   6.091
 6182POPC   C2B77312  31.165   6.359   6.515
 6182POPC   C3B77313  30.952   6.347   6.899
 6182POPC   C4B77314  31.195   6.257   7.235
 6183POPC   NC377315  39.450   9.452   5.740
 6183POPC   PO477316  38.943   9.143   5.369
 6183POPC   GL177317  38.953   9.440   5.807
 6183POPC   GL277318  39.094   9.789   5.875
 6183POPC   C1A77319  39.137   9.473   6.299
 6183POPC   D2A77320  39.396   9.615   6.692
 6183POPC   C3A77321  39.156   9.705   7.101
 6183POPC   C4A77322  38.974   9.907   7.504
 6183POPC   C1B77323  39.447   9.902   6.212
 6183POPC   C2B77324  39.703  10.153   6.505
 6183POPC   C3B77325  39.635  10.109   6.946
 6183POPC   C4B77326  39.665   9.712   7.142
 6184POPC   NC377327  32.080  15.460   5.586
 6184POPC   PO477328  32.565  15.022   5.692
 6184POPC   GL177329  32.483  15.422   5.945
 6184POPC   GL277330  32.136  15.514   6.069
 6184POPC   C1A77331  32.467  15.330   6.410
 6184POPC   D2A77332  32.486  14.879   6.552
 6184POPC   C3A77333  32.577  14.858   6.979
 6184POPC   C4A77334  32.449  15.232   7.204
 6184POPC   C1B77335  31.982  15.164   6.291
 6184POPC   C2B77336  32.031  15.122   6.716
 6184POPC   C3B77337  31.818  15.249   7.065
 6184POPC   C4B77338  32.002  14.964   7.285
 6185POPC   NC377339   1.060  14.577   5.383
 6185POPC   PO477340   1.531  14.226   5.645
 6185POPC   GL177341   1.179  14.373   5.825
 6185POPC   GL277342   0.978  14.048   5.745
 6185POPC   C1A77343   1.290  14.593   6.191
 6185POPC   D2A77344   1.421  14.637   6.621
 6185POPC   C3A77345   1.145  14.519   6.977
 6185POPC   C4A77346   1.393  14.275   7.290
 6185POPC   C1B77347   1.088  14.027   6.162
 6185POPC   C2B77348   1.151  14.216   6.524
 6185POPC   C3B77349   1.410  14.102   6.815
 6185POPC   C4B77350   1.274  13.787   7.119
 6186POPC   NC377351  13.971  15.016   5.543
 6186POPC   PO477352  13.329  14.910   5.435
 6186POPC   GL177353  13.500  15.017   5.859
 6186POPC   GL277354  13.800  15.234   5.957
 6186POPC   C1A77355  13.515  14.999   6.304
 6186POPC   D2A77356  13.772  15.095   6.654
 6186POPC   C3A77357  13.646  15.327   7.039
 6186POPC   C4A77358  13.726  15.005   7.331
 6186POPC   C1B77359  14.132  15.234   6.262
 6186POPC   C2B77360  14.276  15.151   6.662
 6186POPC   C3B77361  14.129  15.175   7.035
 6186POPC   C4B77362  14.044  15.388   7.404
 6187POPC   NC377363  17.046  39.159   5.160
 6187POPC   PO477364  17.496  38.916   5.580
 6187POPC   GL177365  17.519  39.178   5.933
 6187POPC   GL277366  17.207  39.236   5.903
 6187POPC   C1A77367  17.481  39.236   6.381
 6187POPC   D2A77368  17.647  38.985   6.707
 6187POPC   C3A77369  17.578  39.183   7.099
 6187POPC   C4A77370  17.408  39.430   7.437
 6187POPC   C1B77371  17.061  38.977   6.247
 6187POPC   C2B77372  17.049  39.068   6.673
 6187POPC   C3B77373  16.852  39.027   7.051
 6187POPC   C4B77374  17.162  38.982   7.329
 6188POPC   NC377375   6.977   2.184   5.522
 6188POPC   PO477376   6.278   1.997   5.405
 6188POPC   GL177377   6.543   2.039   5.759
 6188POPC   GL277378   6.782   1.745   5.725
 6188POPC   C1A77379   6.682   2.150   6.178
 6188POPC   D2A77380   6.480   1.988   6.548
 6188POPC   C3A77381   6.775   1.963   6.864
 6188POPC   C4A77382   6.814   2.269   7.165
 6188POPC   C1B77383   6.620   1.654   6.140
 6188POPC   C2B77384   6.559   1.482   6.558
 6188POPC   C3B77385   6.369   1.640   6.939
 6188POPC   C4B77386   6.570   1.810   7.317
 6189POPC   NC377387  30.775  25.630   5.496
 6189POPC   PO477388  31.188  25.010   5.464
 6189POPC   GL177389  30.976  25.271   5.857
 6189POPC   GL277390  30.620  25.339   5.874
 6189POPC   C1A77391  30.839  25.366   6.318
 6189POPC   D2A77392  30.724  25.504   6.749
 6189POPC   C3A77393  30.737  25.158   6.996
 6189POPC   C4A77394  30.460  24.897   7.127
 6189POPC   C1B77395  30.512  24.993   6.180
 6189POPC   C2B77396  30.373  25.012   6.613
 6189POPC   C3B77397  30.240  25.315   6.912
 6189POPC   C4B77398  30.424  25.489   7.233
 6190POPC   NC377399  32.262   6.185   5.513
 6190POPC   PO477400  31.738   5.827   5.294
 6190POPC   GL177401  32.066   5.733   5.660
 6190POPC   GL277402  32.426   5.578   5.629
 6190POPC   C1A77403  32.137   5.924   6.102
 6190POPC   D2A77404  32.452   6.029   6.444
 6190POPC   C3A77405  32.237   6.059   6.860
 6190POPC   C4A77406  32.348   6.199   7.259
 6190POPC   C1B77407  32.436   5.476   6.096
 6190POPC   C2B77408  32.212   5.588   6.501
 6190POPC   C3B77409  32.200   5.557   6.934
 6190POPC   C4B77410  32.451   5.680   7.306
 6191POPC   NC377411  15.512  44.578   5.349
 6191POPC   PO477412  16.046  44.792   5.236
 6191POPC   GL177413  15.839  44.766   5.724
 6191POPC   GL277414  16.085  44.819   5.983
 6191POPC   C1A77415  15.624  44.909   6.176
 6191POPC   D2A77416  15.900   0.025   6.563
 6191POPC   C3A77417  15.927  44.742   6.951
 6191POPC   C4A77418  15.985  44.807   7.430
 6191POPC   C1B77419  15.901  44.489   6.307
 6191POPC   C2B77420  15.890  44.265   6.749
 6191POPC   C3B77421  16.040  44.306   7.213
 6191POPC   C4B77422  16.128  44.400   7.690
 6192POPC   NC377423  15.338  10.953   5.495
 6192POPC   PO477424  14.975  11.551   5.327
 6192POPC   GL177425  15.128  11.403   5.723
 6192POPC   GL277426  14.932  11.082   5.792
 6192POPC   C1A77427  15.065  11.497   6.170
 6192POPC   D2A77428  15.232  11.637   6.582
 6192POPC   C3A77429  15.106  11.535   6.985
 6192POPC   C4A77430  15.296  11.222   7.235
 6192POPC   C1B77431  15.008  10.914   6.220
 6192POPC   C2B77432  15.058  10.952   6.673
 6192POPC   C3B77433  14.917  10.758   7.040
 6192POPC   C4B77434  14.902  10.967   7.412
 6193POPC   NC377435  31.985  19.150   5.089
 6193POPC   PO477436  32.427  18.647   5.273
 6193POPC   GL177437  32.424  18.870   5.771
 6193POPC   GL277438  32.187  19.190   5.820
 6193POPC   C1A77439  32.391  18.815   6.186
 6193POPC   D2A77440  32.542  18.995   6.580
 6193POPC   C3A77441  32.317  18.962   6.957
 6193POPC   C4A77442  32.344  18.844   7.378
 6193POPC   C1B77443  32.185  19.274   6.270
 6193POPC   C2B77444  31.953  19.257   6.669
 6193POPC   C3B77445  32.028  19.361   7.113
 6193POPC   C4B77446  32.272  19.321   7.514
 6194POPC   NC377447   6.322   2.452   5.484
 6194POPC   PO477448   6.924   2.745   5.532
 6194POPC   GL177449   6.716   2.552   5.849
 6194POPC   GL277450   6.488   2.809   5.853
 6194POPC   C1A77451   6.717   2.646   6.299
 6194POPC   D2A77452   6.672   2.447   6.686
 6194POPC   C3A77453   6.974   2.690   6.931
 6194POPC   C4A77454   6.932   2.897   7.289
 6194POPC   C1B77455   6.316   2.969   6.250
 6194POPC   C2B77456   6.340   2.830   6.689
 6194POPC   C3B77457   6.483   2.678   7.108
 6194POPC   C4B77458   6.264   2.660   7.461
 6195POPC   NC377459  10.175  21.251   5.505
 6195POPC   PO477460  10.524  21.814   5.385
 6195POPC   GL177461  10.621  21.449   5.681
 6195POPC   GL277462  10.817  21.120   5.657
 6195POPC   C1A77463  10.476  21.308   6.097
 6195POPC   D2A77464  10.359  21.208   6.511
 6195POPC   C3A77465  10.523  21.460   6.822
 6195POPC   C4A77466  10.454  21.428   7.252
 6195POPC   C1B77467  10.809  20.920   6.070
 6195POPC   C2B77468  10.700  20.767   6.472
 6195POPC   C3B77469  10.618  20.911   6.846
 6195POPC   C4B77470  10.878  21.176   7.072
 6196POPC   NC377471  38.340  34.370   5.494
 6196POPC   PO477472  38.523  35.032   5.448
 6196POPC   GL177473  38.336  34.796   5.799
 6196POPC   GL277474  38.627  34.566   5.878
 6196POPC   C1A77475  38.119  34.851   6.222
 6196POPC   D2A77476  38.289  34.854   6.655
 6196POPC   C3A77477  38.424  34.535   6.919
 6196POPC   C4A77478  38.222  34.384   7.279
 6196POPC   C1B77479  38.433  34.437   6.267
 6196POPC   C2B77480  38.649  34.212   6.580
 6196POPC   C3B77481  38.800  34.128   6.954
 6196POPC   C4B77482  38.757  34.420   7.304
 6197POPC   NC377483  30.095   2.966   5.626
 6197POPC   PO477484  29.777   2.591   5.191
 6197POPC   GL177485  29.840   2.542   5.716
 6197POPC   GL277486  29.629   2.823   5.872
 6197POPC   C1A77487  29.930   2.627   6.220
 6197POPC   D2A77488  29.684   2.790   6.610
 6197POPC   C3A77489  29.768   2.609   7.042
 6197POPC   C4A77490  30.124   2.553   7.326
 6197POPC   C1B77491  29.726   3.151   6.205
 6197POPC   C2B77492  29.594   3.297   6.624
 6197POPC   C3B77493  29.651   3.174   7.023
 6197POPC   C4B77494  29.961   3.025   7.295
 6198POPC   NC377495  18.436  13.821   5.423
 6198POPC   PO477496  17.896  14.254   5.499
 6198POPC   GL177497  18.030  13.877   5.826
 6198POPC   GL277498  18.236  13.542   5.835
 6198POPC   C1A77499  18.107  13.764   6.284
 6198POPC   D2A77500  17.976  13.865   6.693
 6198POPC   C3A77501  18.175  13.782   7.097
 6198POPC   C4A77502  18.044  13.542   7.454
 6198POPC   C1B77503  18.538  13.516   6.218
 6198POPC   C2B77504  18.592  13.614   6.651
 6198POPC   C3B77505  18.616  13.523   7.074
 6198POPC   C4B77506  18.567  13.547   7.522
 6199POPC   NC377507  17.201  40.820   5.355
 6199POPC   PO477508  17.868  40.545   5.206
 6199POPC   GL177509  17.668  40.714   5.614
 6199POPC   GL277510  17.348  40.579   5.798
 6199POPC   C1A77511  17.641  40.930   6.049
 6199POPC   D2A77512  17.403  40.935   6.473
 6199POPC   C3A77513  17.560  40.681   6.838
 6199POPC   C4A77514  17.300  40.527   7.161
 6199POPC   C1B77515  17.102  40.936   6.059
 6199POPC   C2B77516  16.853  41.012   6.491
 6199POPC   C3B77517  16.725  41.032   6.963
 6199POPC   C4B77518  16.811  41.292   7.384
 6200POPC   NC377519  12.737  26.158   5.404
 6200POPC   PO477520  13.261  26.457   5.685
 6200POPC   GL177521  12.946  26.209   5.878
 6200POPC   GL277522  12.769  25.878   5.812
 6200POPC   C1A77523  12.790  26.147   6.283
 6200POPC   D2A77524  12.516  26.359   6.559
 6200POPC   C3A77525  12.729  26.162   6.888
 6200POPC   C4A77526  12.896  26.238   7.279
 6200POPC   C1B77527  12.731  25.649   6.165
 6200POPC   C2B77528  12.938  25.688   6.554
 6200POPC   C3B77529  13.004  25.697   6.982
 6200POPC   C4B77530  12.757  25.761   7.349
 6201POPC   NC377531  32.136  11.669   5.052
 6201POPC   PO477532  32.319  12.218   5.488
 6201POPC   GL177533  32.224  12.022   5.870
 6201POPC   GL277534  31.911  11.965   5.862
 6201POPC   C1A77535  32.211  11.936   6.301
 6201POPC   D2A77536  32.157  12.108   6.717
 6201POPC   C3A77537  32.344  11.842   7.052
 6201POPC   C4A77538  32.512  11.926   7.470
 6201POPC   C1B77539  31.876  12.315   6.184
 6201POPC   C2B77540  31.860  12.550   6.604
 6201POPC   C3B77541  31.890  12.414   7.037
 6201POPC   C4B77542  31.867  11.974   7.148
 6202POPC   NC377543  37.345  40.583   5.364
 6202POPC   PO477544  37.027  41.201   5.294
 6202POPC   GL177545  36.823  41.016   5.687
 6202POPC   GL277546  36.655  40.659   5.715
 6202POPC   C1A77547  36.966  40.868   6.107
 6202POPC   D2A77548  37.196  40.844   6.518
 6202POPC   C3A77549  36.964  40.911   6.899
 6202POPC   C4A77550  36.963  40.720   7.288
 6202POPC   C1B77551  36.675  40.429   6.104
 6202POPC   C2B77552  36.720  40.610   6.513
 6202POPC   C3B77553  36.772  40.410   6.906
 6202POPC   C4B77554  36.714  40.270   7.306
 6203POPC   NC377555  29.295  17.343   5.309
 6203POPC   PO477556  28.688  17.637   5.423
 6203POPC   GL177557  29.056  17.652   5.710
 6203POPC   GL277558  29.313  17.906   5.620
 6203POPC   C1A77559  29.263  17.414   6.072
 6203POPC   D2A77560  29.374  17.258   6.526
 6203POPC   C3A77561  29.124  17.411   6.901
 6203POPC   C4A77562  29.238  17.281   7.313
 6203POPC   C1B77563  29.424  17.909   6.070
 6203POPC   C2B77564  29.314  17.763   6.488
 6203POPC   C3B77565  29.530  17.702   6.870
 6203POPC   C4B77566  29.357  17.775   7.277
 6204POPC   NC377567  39.819  32.748   5.324
 6204POPC   PO477568  40.166  33.293   5.457
 6204POPC   GL177569  40.003  33.002   5.802
 6204POPC   GL277570  40.114  32.654   5.800
 6204POPC   C1A77571  39.945  32.898   6.261
 6204POPC   D2A77572  40.154  33.010   6.668
 6204POPC   C3A77573  39.897  32.991   7.049
 6204POPC   C4A77574  39.790  33.378   7.267
 6204POPC   C1B77575  40.389  32.659   6.177
 6204POPC   C2B77576  40.284  32.529   6.612
 6204POPC   C3B77577  40.364  32.712   7.082
 6204POPC   C4B77578  40.369  32.637   7.595
 6205POPC   NC377579  10.579  28.081   5.418
 6205POPC   PO477580  10.407  28.749   5.524
 6205POPC   GL177581  10.369  28.550   5.920
 6205POPC   GL277582  10.512  28.243   5.909
 6205POPC   C1A77583  10.394  28.561   6.354
 6205POPC   D2A77584  10.584  28.813   6.629
 6205POPC   C3A77585  10.399  28.662   6.964
 6205POPC   C4A77586  10.541  28.364   7.253
 6205POPC   C1B77587  10.600  28.091   6.335
 6205POPC   C2B77588  10.546  28.204   6.759
 6205POPC   C3B77589  10.865  28.029   7.034
 6205POPC   C4B77590  11.029  28.004   7.436
 6206POPC   NC377591  17.227  30.522   5.501
 6206POPC   PO477592  17.413  31.194   5.555
 6206POPC   GL177593  17.637  30.896   5.832
 6206POPC   GL277594  17.582  30.527   5.877
 6206POPC   C1A77595  17.811  30.803   6.230
 6206POPC   D2A77596  17.910  31.059   6.531
 6206POPC   C3A77597  17.888  30.956   6.965
 6206POPC   C4A77598  17.916  30.587   7.215
 6206POPC   C1B77599  17.357  30.573   6.268
 6206POPC   C2B77600  17.567  30.632   6.661
 6206POPC   C3B77601  17.435  30.518   7.073
 6206POPC   C4B77602  17.480  30.373   7.506
 6207POPC   NC377603  37.416   9.305   5.544
 6207POPC   PO477604  37.290   8.642   5.591
 6207POPC   GL177605  37.409   8.910   5.894
 6207POPC   GL277606  37.772   8.905   5.833
 6207POPC   C1A77607  37.557   8.873   6.305
 6207POPC   D2A77608  37.825   8.901   6.634
 6207POPC   C3A77609  37.749   8.734   7.014
 6207POPC   C4A77610  37.309   8.763   7.150
 6207POPC   C1B77611  38.034   9.085   6.194
 6207POPC   C2B77612  38.212   9.215   6.616
 6207POPC   C3B77613  38.034   9.175   7.036
 6207POPC   C4B77614  38.182   8.990   7.422
 6208POPC   NC377615  21.830   6.786   5.439
 6208POPC   PO477616  22.456   6.553   5.488
 6208POPC   GL177617  22.250   6.679   5.870
 6208POPC   GL277618  21.988   6.929   5.902
 6208POPC   C1A77619  22.294   6.848   6.291
 6208POPC   D2A77620  22.172   6.896   6.696
 6208POPC   C3A77621  22.389   6.646   6.983
 6208POPC   C4A77622  22.297   6.674   7.403
 6208POPC   C1B77623  21.827   6.618   6.179
 6208POPC   C2B77624  21.700   6.622   6.594
 6208POPC   C3B77625  21.849   6.608   7.002
 6208POPC   C4B77626  21.689   6.334   7.301
 6209POPC   NC377627  16.648  26.538   5.281
 6209POPC   PO477628  17.089  27.061   5.229
 6209POPC   GL177629  16.974  26.871   5.664
 6209POPC   GL277630  16.685  26.630   5.781
 6209POPC   C1A77631  16.855  27.003   6.112
 6209POPC   D2A77632  16.983  27.010   6.562
 6209POPC   C3A77633  16.756  27.129   6.954
 6209POPC   C4A77634  16.973  27.113   7.350
 6209POPC   C1B77635  16.476  26.432   6.148
 6209POPC   C2B77636  16.347  26.288   6.567
 6209POPC   C3B77637  16.470  26.481   6.948
 6209POPC   C4B77638  16.880  26.646   7.056
 6210POPC   NC377639  42.994  18.607   5.504
 6210POPC   PO477640  43.473  18.145   5.270
 6210POPC   GL177641  43.430  18.376   5.705
 6210POPC   GL277642  43.471  18.080   5.866
 6210POPC   C1A77643  43.141  18.492   6.130
 6210POPC   D2A77644  43.003  18.593   6.573
 6210POPC   C3A77645  42.739  18.383   6.845
 6210POPC   C4A77646  42.858  18.437   7.267
 6210POPC   C1B77647  43.232  17.946   6.210
 6210POPC   C2B77648  43.037  18.067   6.575
 6210POPC   C3B77649  43.077  17.984   7.020
 6210POPC   C4B77650  43.300  17.911   7.411
 6211POPC   NC377651  19.206  24.590   5.410
 6211POPC   PO477652  18.571  24.819   5.293
 6211POPC   GL177653  18.823  24.735   5.765
 6211POPC   GL277654  19.044  24.404   5.852
 6211POPC   C1A77655  18.783  24.575   6.235
 6211POPC   D2A77656  19.108  24.329   6.485
 6211POPC   C3A77657  19.017  24.322   6.910
 6211POPC   C4A77658  18.827  24.596   7.186
 6211POPC   C1B77659  19.295  24.681   6.156
 6211POPC   C2B77660  19.515  24.673   6.593
 6211POPC   C3B77661  19.394  24.656   7.064
 6211POPC   C4B77662  19.224  24.337   7.402
 6212POPC   NC377663   9.977  16.347   5.454
 6212POPC   PO477664   9.589  16.920   5.490
 6212POPC   GL177665   9.722  16.666   5.832
 6212POPC   GL277666  10.095  16.647   5.860
 6212POPC   C1A77667   9.814  16.825   6.243
 6212POPC   D2A77668  10.004  16.937   6.621
 6212POPC   C3A77669   9.706  17.030   6.930
 6212POPC   C4A77670   9.630  16.873   7.326
 6212POPC   C1B77671  10.178  16.470   6.320
 6212POPC   C2B77672  10.231  16.509   6.805
 6212POPC   C3B77673  10.092  16.776   7.174
 6212POPC   C4B77674  10.062  16.666   7.660
 6213POPC   NC377675   9.463  17.383   5.425
 6213POPC   PO477676  10.039  17.804   5.364
 6213POPC   GL177677   9.799  17.568   5.787
 6213POPC   GL277678   9.471  17.345   5.927
 6213POPC   C1A77679   9.851  17.367   6.241
 6213POPC   D2A77680   9.594  17.443   6.627
 6213POPC   C3A77681   9.838  17.559   6.983
 6213POPC   C4A77682   9.986  17.286   7.312
 6213POPC   C1B77683   9.466  17.736   6.211
 6213POPC   C2B77684   9.505  17.977   6.646
 6213POPC   C3B77685   9.387  17.826   7.076
 6213POPC   C4B77686   9.639  17.725   7.429
 6214POPC   NC377687  28.402  29.181   5.448
 6214POPC   PO477688  27.765  29.296   5.542
 6214POPC   GL177689  28.060  29.318   5.832
 6214POPC   GL277690  28.105  28.984   5.836
 6214POPC   C1A77691  28.150  29.325   6.290
 6214POPC   D2A77692  28.116  29.147   6.719
 6214POPC   C3A77693  28.286  29.394   7.104
 6214POPC   C4A77694  28.044  29.366   7.485
 6214POPC   C1B77695  28.338  28.780   6.152
 6214POPC   C2B77696  28.322  28.681   6.597
 6214POPC   C3B77697  28.595  28.812   6.968
 6214POPC   C4B77698  28.742  28.930   7.412
 6215POPC   NC377699  37.577  18.327   5.282
 6215POPC   PO477700  37.877  17.817   5.220
 6215POPC   GL177701  37.884  18.111   5.648
 6215POPC   GL277702  37.776  18.512   5.721
 6215POPC   C1A77703  37.689  18.182   6.095
 6215POPC   D2A77704  37.445  18.305   6.496
 6215POPC   C3A77705  37.603  18.116   6.899
 6215POPC   C4A77706  37.857  18.001   7.219
 6215POPC   C1B77707  37.544  18.684   6.124
 6215POPC   C2B77708  37.368  18.820   6.544
 6215POPC   C3B77709  37.556  18.615   6.910
 6215POPC   C4B77710  37.629  18.455   7.337
 6216POPC   NC377711  30.408  15.319   5.396
 6216POPC   PO477712  30.909  15.043   5.331
 6216POPC   GL177713  30.783  15.139   5.750
 6216POPC   GL277714  30.516  14.949   5.843
 6216POPC   C1A77715  30.855  15.231   6.196
 6216POPC   D2A77716  30.679  15.261   6.639
 6216POPC   C3A77717  30.814  15.416   6.996
 6216POPC   C4A77718  30.673  15.637   7.325
 6216POPC   C1B77719  30.639  14.766   6.243
 6216POPC   C2B77720  30.779  14.762   6.656
 6216POPC   C3B77721  30.617  14.940   7.051
 6216POPC   C4B77722  30.534  15.158   7.449
 6217POPC   NC377723  29.219  33.978   5.414
 6217POPC   PO477724  29.294  33.320   5.614
 6217POPC   GL177725  29.282  33.715   5.867
 6217POPC   GL277726  29.475  34.076   5.823
 6217POPC   C1A77727  29.005  33.711   6.250
 6217POPC   D2A77728  28.997  33.951   6.663
 6217POPC   C3A77729  29.103  33.678   7.013
 6217POPC   C4A77730  29.046  33.670   7.443
 6217POPC   C1B77731  29.287  34.116   6.200
 6217POPC   C2B77732  29.460  34.242   6.570
 6217POPC   C3B77733  29.503  34.023   6.961
 6217POPC   C4B77734  29.522  33.807   7.363
 6218POPC   NC377735  20.243  33.880   5.161
 6218POPC   PO477736  20.711  33.447   5.432
 6218POPC   GL177737  20.567  33.650   5.825
 6218POPC   GL277738  20.201  33.793   5.795
 6218POPC   C1A77739  20.762  33.666   6.243
 6218POPC   D2A77740  20.788  34.008   6.544
 6218POPC   C3A77741  20.662  33.909   6.952
 6218POPC   C4A77742  20.884  33.577   7.144
 6218POPC   C1B77743  20.327  33.927   6.216
 6218POPC   C2B77744  20.335  33.687   6.596
 6218POPC   C3B77745  20.310  33.562   7.036
 6218POPC   C4B77746  20.482  33.733   7.423
 6219POPC   NC377747  43.272  14.602   5.512
 6219POPC   PO477748  42.926  14.085   5.427
 6219POPC   GL177749  42.968  14.313   5.823
 6219POPC   GL277750  43.299  14.430   5.980
 6219POPC   C1A77751  42.861  14.369   6.235
 6219POPC   D2A77752  42.999  14.452   6.617
 6219POPC   C3A77753  43.066  14.196   6.961
 6219POPC   C4A77754  42.939  14.406   7.297
 6219POPC   C1B77755  43.271  14.754   6.292
 6219POPC   C2B77756  43.389  14.749   6.728
 6219POPC   C3B77757  43.390  14.564   7.102
 6219POPC   C4B77758  43.567  14.766   7.406
 6220POPC   NC377759  43.181  42.175   5.420
 6220POPC   PO477760  42.542  42.384   5.468
 6220POPC   GL177761  42.903  42.397   5.791
 6220POPC   GL277762  43.265  42.488   5.818
 6220POPC   C1A77763  42.983  42.320   6.232
 6220POPC   D2A77764  42.802  42.280   6.647
 6220POPC   C3A77765  43.014  42.238   7.033
 6220POPC   C4A77766  43.046  42.468   7.423
 6220POPC   C1B77767  43.460  42.183   6.125
 6220POPC   C2B77768  43.339  42.120   6.569
 6220POPC   C3B77769  43.509  42.324   6.944
 6220POPC   C4B77770  43.506  42.192   7.398
 6221POPC   NC377771  11.469  30.827   5.440
 6221POPC   PO477772  10.970  30.453   5.229
 6221POPC   GL177773  11.214  30.570   5.767
 6221POPC   GL277774  11.495  30.427   5.858
 6221POPC   C1A77775  11.165  30.526   6.244
 6221POPC   D2A77776  11.027  30.516   6.677
 6221POPC   C3A77777  11.007  30.878   6.925
 6221POPC   C4A77778  11.200  30.840   7.319
 6221POPC   C1B77779  11.550  30.842   6.107
 6221POPC   C2B77780  11.730  30.889   6.529
 6221POPC   C3B77781  11.551  30.821   6.920
 6221POPC   C4B77782  11.753  30.884   7.286
 6222POPC   NC377783  18.852  11.909   5.442
 6222POPC   PO477784  19.264  12.378   5.281
 6222POPC   GL177785  19.128  12.351   5.760
 6222POPC   GL277786  19.265  12.013   5.913
 6222POPC   C1A77787  19.193  12.410   6.239
 6222POPC   D2A77788  18.915  12.280   6.602
 6222POPC   C3A77789  18.985  12.182   7.051
 6222POPC   C4A77790  18.966  12.355   7.453
 6222POPC   C1B77791  18.979  11.909   6.238
 6222POPC   C2B77792  18.920  11.765   6.669
 6222POPC   C3B77793  18.910  11.681   7.105
 6222POPC   C4B77794  18.722  11.865   7.498
 6223POPC   NC377795   3.350  13.905   5.470
 6223POPC   PO477796   3.671  13.330   5.569
 6223POPC   GL177797   3.669  13.672   5.840
 6223POPC   GL277798   3.317  13.591   5.888
 6223POPC   C1A77799   3.727  13.761   6.284
 6223POPC   D2A77800   3.883  13.705   6.696
 6223POPC   C3A77801   3.664  13.716   7.090
 6223POPC   C4A77802   3.632  13.338   7.341
 6223POPC   C1B77803   3.313  13.995   6.130
 6223POPC   C2B77804   3.307  13.898   6.582
 6223POPC   C3B77805   3.323  14.104   6.979
 6223POPC   C4B77806   3.218  13.910   7.352
 6224POPC   NC377807  20.370   6.650   5.271
 6224POPC   PO477808  19.781   6.894   5.177
 6224POPC   GL177809  19.817   6.661   5.598
 6224POPC   GL277810  19.967   6.309   5.523
 6224POPC   C1A77811  19.608   6.741   6.055
 6224POPC   D2A77812  19.678   6.973   6.468
 6224POPC   C3A77813  19.642   6.910   6.916
 6224POPC   C4A77814  20.010   6.944   7.199
 6224POPC   C1B77815  19.910   6.336   5.994
 6224POPC   C2B77816  19.840   6.454   6.433
 6224POPC   C3B77817  19.796   6.431   6.904
 6224POPC   C4B77818  19.623   6.174   7.212
 6225POPC   NC377819  15.901  29.650   5.381
 6225POPC   PO477820  15.919  30.275   5.218
 6225POPC   GL177821  15.799  30.100   5.650
 6225POPC   GL277822  16.095  29.921   5.794
 6225POPC   C1A77823  15.772  30.128   6.129
 6225POPC   D2A77824  16.027  30.176   6.519
 6225POPC   C3A77825  15.841  30.149   6.932
 6225POPC   C4A77826  15.624  29.959   7.290
 6225POPC   C1B77827  16.237  29.710   6.213
 6225POPC   C2B77828  16.195  29.707   6.706
 6225POPC   C3B77829  16.161  29.763   7.147
 6225POPC   C4B77830  16.270  30.175   7.195
 6226POPC   NC377831  21.668  25.893   5.431
 6226POPC   PO477832  22.387  25.991   5.275
 6226POPC   GL177833  22.271  25.999   5.754
 6226POPC   GL277834  21.978  25.824   5.857
 6226POPC   C1A77835  22.435  26.070   6.207
 6226POPC   D2A77836  22.579  25.885   6.641
 6226POPC   C3A77837  22.441  26.078   7.038
 6226POPC   C4A77838  22.099  26.015   7.337
 6226POPC   C1B77839  21.844  26.146   6.146
 6226POPC   C2B77840  21.619  26.126   6.525
 6226POPC   C3B77841  21.814  26.087   6.916
 6226POPC   C4B77842  21.650  26.229   7.300
 6227W        W77843  39.306  15.123   1.012
 6228W        W77844  33.034  29.143  12.798
 6229W        W77845  16.784  16.808   3.709
 6230W        W77846  15.940   3.648   5.135
 6231W        W77847  36.037  20.114   0.459
 6232W        W77848  41.817  22.162   1.184
 6233W        W77849  44.782  16.165  10.535
 6234W        W77850  34.985  18.724  14.155
 6235W        W77851  16.325  15.247   2.732
 6236W        W77852  35.615  32.567   1.521
 6237W        W77853  16.656  25.698   1.756
 6238W        W77854  26.728   8.340   0.727
 6239W        W77855   4.472  44.697  11.638
 6240W        W77856   8.396  27.548  13.556
 6241W        W77857  14.158  29.127  14.796
 6242W        W77858  30.811  33.465   0.352
 6243W        W77859  42.124   2.119   2.710
 6244W        W77860  25.198   9.137   0.371
 6245W        W77861  40.462  12.160   3.528
 6246W        W77862  21.062   2.383   4.152
 6247W        W77863  26.050  18.843   4.856
 6248W        W77864   1.513  27.651   4.589
 6249W        W77865   2.733  11.759  11.431
 6250W        W77866  26.503  42.056   3.329
 6251W        W77867   8.270  15.300  12.885
 6252W        W77868  27.566  26.255  13.353
 6253W        W77869  25.739  41.868  13.387
 6254W        W77870  14.614  36.846  13.818
 6255W        W77871  27.340   8.406   1.736
 6256W        W77872  23.683  26.205   4.831
 6257W        W77873   6.580   5.188  14.367
 6258W        W77874  36.141   7.235  12.507
 6259W        W77875   4.907  11.090  14.757
 6260W        W77876  28.692  31.190   4.128
 6261W        W77877  10.053   6.182   4.610
 6262W        W77878   4.849  36.485   2.153
 6263W        W77879   5.708  43.836  10.921
 6264W        W77880   4.698  24.072  10.015
 6265W        W77881  20.378   8.489   0.335
 6266W        W77882  37.035  34.101  10.680
 6267W        W77883  10.226   1.456   4.142
 6268W        W77884   4.455   6.699  14.828
 6269W        W77885  13.111   9.226   0.883
 6270W        W77886  13.324  30.736  14.540
 6271W        W77887   3.128   1.859  14.404
 6272W        W77888  44.225   2.007   0.640
 6273W        W77889  20.062  32.345   1.246
 6274W        W77890  11.043  40.946  10.601
 6275W        W77891  38.051  31.389   4.244
 6276W        W77892  30.909   8.908  12.874
 6277W        W77893  13.430  39.502   3.258
 6278W        W77894  19.203  23.668   4.546
 6279W        W77895  39.052   9.241  13.438
 6280W        W77896  36.532  20.851   0.357
 6281W        W77897  12.088   5.845  14.702
 6282W        W77898  13.683   6.710  10.009
 6283W        W77899  42.810  17.195  14.804
 6284W        W77900   0.225  32.583  11.255
 6285W        W77901  31.673  44.436   0.306
 6286W        W77902  24.595  34.087   0.214
 6287W        W77903  28.044   7.128  13.306
 6288W        W77904  32.392  13.111   4.149
 6289W        W77905  40.716  27.847  11.682
 6290W        W77906  24.231  14.265  13.670
 6291W        W77907  29.415  15.598   3.075
 6292W        W77908  16.037   0.892   4.480
 6293W        W77909  43.399  16.215   1.707
 6294W        W77910  39.419  37.222  11.209
 6295W        W77911  15.623   3.767  12.792
 6296W        W77912  16.315  12.849  12.482
 6297W        W77913   0.136  19.708   3.613
 6298W        W77914  39.410  30.159   0.995
 6299W        W77915  38.794   2.321   4.430
 6300W        W77916   6.562  22.068   2.202
 6301W        W77917  10.371   3.743  14.906
 6302W        W77918  28.694  36.900  14.434
 6303W        W77919  29.645   7.850   3.250
 6304W        W77920  20.775   7.861   1.994
 6305W        W77921  44.876  30.176  11.538
 6306W        W77922   2.841  31.185   2.600
 6307W        W77923  18.582  24.132  14.201
 6308W        W77924  33.415  27.713  13.830
 6309W        W77925  11.868  34.220   1.784
 6310W        W77926   4.297  42.212   3.158
 6311W        W77927   2.396  37.897   0.302
 6312W        W77928  34.128  25.657   4.201
 6313W        W77929  39.575  22.229   0.234
 6314W        W77930  15.636  37.867  14.768
 6315W        W77931  32.334  19.239  14.498
 6316W        W77932   5.826   2.837  10.783
 6317W        W77933  35.945  18.294   4.469
 6318W        W77934  33.600  14.664  13.820
 6319W        W77935  26.517  43.014   1.281
 6320W        W77936  11.092  35.460   4.592
 6321W        W77937   8.285   3.104   4.125
 6322W        W77938   4.769   6.409  14.508
 6323W        W77939  31.500   6.925  12.034
 6324W        W77940   7.526  19.781   1.295
 6325W        W77941   4.770   8.160  11.662
 6326W        W77942   7.416  44.014  14.748
 6327W        W77943  23.266  15.257   1.799
 6328W        W77944  29.588  11.184   9.569
 6329W        W77945  11.503   0.609   2.631
 6330W        W77946   2.849  30.396  10.351
 6331W        W77947  23.764  19.519  13.861
 6332W        W77948   1.979  25.599   0.365
 6333W        W77949  32.829  19.767   2.259
 6334W        W77950   0.532  28.574  12.920
 6335W        W77951  26.930  18.355  14.391
 6336W        W77952   3.345   6.377   4.608
 6337W        W77953  13.554  43.811   1.559
 6338W        W77954  25.003  25.082  12.875
 6339W        W77955  12.000  28.094  11.742
 6340W        W77956  25.120  13.290   1.408
 6341W        W77957  16.389  20.594   2.637
 6342W        W77958  37.994  34.365  10.633
 6343W        W77959  24.332  36.233  11.763
 6344W        W77960  19.542  44.310  14.212
 6345W        W77961   9.280  33.632  13.357
 6346W        W77962  20.949  34.173  11.163
 6347W        W77963   4.745  18.978  14.070
 6348W        W77964  20.539  30.642  12.759
 6349W        W77965  42.545  36.574   3.759
 6350W        W77966  38.650  28.396  14.021
 6351W        W77967  30.221  44.536   3.749
 6352W        W77968  28.383  18.930   0.860
 6353W        W77969  13.168  38.421   2.766
 6354W        W77970  44.586  19.648   5.099
 6355W        W77971  43.242  28.545   1.545
 6356W        W77972  36.406  25.240  11.903
 6357W        W77973  33.470   6.697   0.576
 6358W        W77974   0.576  44.745   1.328
 6359W        W77975   0.842   8.867  10.240
 6360W        W77976  14.201  29.039  14.290
 6361W        W77977  23.033  18.944   0.175
 6362W        W77978  44.321  26.625   0.020
 6363W        W77979  23.028  37.348   1.781
 6364W        W77980  13.781  25.946  12.722
 6365W        W77981  24.174  13.708  10.867
 6366W        W77982  10.875  17.594  13.874
 6367W        W77983  33.912  41.468   0.441
 6368W        W77984  13.321  42.789   4.553
 6369W        W77985  28.915  17.169   2.210
 6370W        W77986  43.404  38.472  14.387
 6371W        W77987  26.463   5.624   1.315
 6372W        W77988  19.533   5.534   0.513
 6373W        W77989  31.509  27.293   9.793
 6374W        W77990  37.024  42.851  13.166
 6375W        W77991  36.018  27.671  14.352
 6376W        W77992   0.416  30.261  13.569
 6377W        W77993   1.501  35.030  10.974
 6378W        W77994   5.986  29.578  14.356
 6379W        W77995  10.104  37.581   0.037
 6380W        W77996  26.400  35.533   1.948
 6381W        W77997  16.641  18.515   1.884
 6382W        W77998  34.604  39.529   1.726
 6383W        W77999  19.892  31.484   4.387
 6384W        W78000  12.679  18.871  11.207
 6385W        W78001  18.696  13.293  14.582
 6386W        W78002   1.803  34.110  14.951
 6387W        W78003   5.919  17.737  14.291
 6388W        W78004  22.074  31.182   1.307
 6389W        W78005   2.326  35.215  11.921
 6390W        W78006   5.734  29.818  14.769
 6391W        W78007  23.103  41.790  14.404
 6392W        W78008  36.076  39.388  13.142
 6393W        W78009   6.272  41.467  14.385
 6394W        W78010  34.979  18.804  11.666
 6395W        W78011  33.076  37.564  11.860
 6396W        W78012  29.613  10.326   2.862
 6397W        W78013  20.362  29.200   4.831
 6398W        W78014  21.072  44.779   4.301
 6399W        W78015   3.972  41.000   1.425
 6400W        W78016  18.188  21.883   2.707
 6401W        W78017  21.477  20.683   1.291
 6402W        W78018  38.022  18.494  11.629
 6403W        W78019  33.931  43.928  13.523
 6404W        W78020   3.434  13.663   3.858
 6405W        W78021  44.696  35.570   2.214
 6406W        W78022   9.732   9.202  11.706
 6407W        W78023  43.536   6.714   2.759
 6408W        W78024  37.347  40.118   3.998
 6409W        W78025  33.878  23.157  10.631
 6410W        W78026  10.105  34.737  10.279
 6411W        W78027  20.225  37.870   4.618
 6412W        W78028  41.696  34.965  14.786
 6413W        W78029  36.904   7.443   0.176
 6414W        W78030  36.565  32.333   0.930
 6415W        W78031  32.921  35.333   2.691
 6416W        W78032  37.966  43.422   0.413
 6417W        W78033  21.460   0.885   3.232
 6418W        W78034  29.905  32.475   4.617
 6419W        W78035   3.676  34.679   9.890
 6420W        W78036  33.386  16.053  13.829
 6421W        W78037   6.849   7.316   0.288
 6422W        W78038  37.433  21.975  13.945
 6423W        W78039  24.277   8.818   3.197
 6424W        W78040   6.390  38.259   2.385
 6425W        W78041  11.151   3.201   0.594
 6426W        W78042  21.130  39.323   1.406
 6427W        W78043  27.413  13.752  13.299
 6428W        W78044  40.963  19.579   2.730
 6429W        W78045  23.984  25.214  12.011
 6430W        W78046  30.491   6.540   0.864
 6431W        W78047  10.439  40.484  10.838
 6432W        W78048  31.482  25.027   4.595
 6433W        W78049  19.295   3.818   3.424
 6434W        W78050  34.973  24.116   4.413
 6435W        W78051  29.663  25.463   0.738
 6436W        W78052   2.038  41.609  11.130
 6437W        W78053  10.746  11.835  12.046
 6438W        W78054  39.361  11.874  12.395
 6439W        W78055  11.775   3.549  13.899
 6440W        W78056   8.611  40.928  12.134
 6441W        W78057  32.709  40.014   3.102
 6442W        W78058  25.120  24.620   4.373
 6443W        W78059  41.072  16.231  10.674
 6444W        W78060  22.059  19.489   2.408
 6445W        W78061  37.426  21.168  12.141
 6446W        W78062  17.654  15.561   2.227
 6447W        W78063  17.771   6.946   2.245
 6448W        W78064   4.616  23.920  11.907
 6449W        W78065  16.120  13.336   2.819
 6450W        W78066  24.639  12.187  14.301
 6451W        W78067  23.671  31.440  12.994
 6452W        W78068  18.090   6.806   4.250
 6453W        W78069  19.633  14.047  14.396
 6454W        W78070  16.721  32.630  13.986
 6455W        W78071  26.571  27.902  13.936
 6456W        W78072   2.476  21.010   1.891
 6457W        W78073  35.968  16.793   0.030
 6458W        W78074   2.181  20.451  14.347
 6459W        W78075  30.403   3.265  13.462
 6460W        W78076   2.454  32.291   3.927
 6461W        W78077  24.041  25.752  10.654
 6462W        W78078   6.858  42.506  11.680
 6463W        W78079  40.316  23.067   1.577
 6464W        W78080  44.710  35.274   3.567
 6465W        W78081   0.891  37.391   4.785
 6466W        W78082  33.347  30.455   2.134
 6467W        W78083  30.865  22.053  14.858
 6468W        W78084  12.631  20.609  14.734
 6469W        W78085  29.040  40.971  12.611
 6470W        W78086  25.446  14.076   3.855
 6471W        W78087  44.768   6.678  12.158
 6472W        W78088  25.460   2.436   4.873
 6473W        W78089  32.409  17.866  11.469
 6474W        W78090  29.727   7.138   0.044
 6475W        W78091  17.789  43.465  13.879
 6476W        W78092   7.398  33.950  14.844
 6477W        W78093  32.043  37.179   4.285
 6478W        W78094  11.558  20.284  13.598
 6479W        W78095   2.466  32.686  12.574
 6480W        W78096  39.159   4.034   4.495
 6481W        W78097  27.059  18.231  12.554
 6482W        W78098   7.644  11.564  12.920
 6483W        W78099   6.581  33.032  12.466
 6484W        W78100  40.524  13.585   2.339
 6485W        W78101  29.418  16.105   1.744
 6486W        W78102  34.929   8.461  13.785
 6487W        W78103  21.193   5.084  14.328
 6488W        W78104   8.724  36.393   2.048
 6489W        W78105  34.847  19.633   0.454
 6490W        W78106   4.234  18.381  11.159
 6491W        W78107   1.372  17.796   2.255
 6492W        W78108  37.353  14.289  10.534
 6493W        W78109   4.171  19.193  12.908
 6494W        W78110  43.971   3.691  13.983
 6495W        W78111  44.387  25.500  12.477
 6496W        W78112  25.137  40.836   1.403
 6497W        W78113  11.824   5.447  10.974
 6498W        W78114  17.194   1.575   1.277
 6499W        W78115   1.020  42.614  11.075
 6500W        W78116  21.632  11.847  11.531
 6501W        W78117  19.521   9.608   1.491
 6502W        W78118   1.969  32.378  14.305
 6503W        W78119  23.120  33.150   4.252
 6504W        W78120  23.162  28.670   4.704
 6505W        W78121   3.509  40.504  14.988
 6506W        W78122  41.319  34.844  12.963
 6507W        W78123  14.873   0.061   2.757
 6508W        W78124  37.485  19.013  14.958
 6509W        W78125  14.719   1.178  11.426
 6510W        W78126  19.288  19.271   0.376
 6511W        W78127  23.695  19.499  12.030
 6512W        W78128  18.573  20.034   3.451
 6513W        W78129  10.825   0.289  14.876
 6514W        W78130   6.215  29.999   1.133
 6515W        W78131   5.711  42.442   2.943
 6516W        W78132  14.677  39.920   2.998
 6517W        W78133  19.469  44.545  13.479
 6518W        W78134   9.159   4.665   1.936
 6519W        W78135  31.420   6.730   1.001
 6520W        W78136  36.431  30.379  14.436
 6521W        W78137  28.844  32.959   1.627
 6522W        W78138  17.850   5.877  13.903
 6523W        W78139   0.868  21.669  13.330
 6524W        W78140  17.531  38.662   4.615
 6525W        W78141   8.434  37.645   2.691
 6526W        W78142  21.590  39.898  12.524
 6527W        W78143  19.260  41.355   4.190
 6528W        W78144  13.754   4.611  14.946
 6529W        W78145  18.236   0.033   5.660
 6530W        W78146  13.089  32.038   2.297
 6531W        W78147  12.098  24.419  11.086
 6532W        W78148  11.292  24.205   1.254
 6533W        W78149   4.412   0.338  12.641
 6534W        W78150  22.460  35.501  10.386
 6535W        W78151  28.474  28.598  11.581
 6536W        W78152  43.033  11.648  14.725
 6537W        W78153   5.930  36.287   3.867
 6538W        W78154  21.187  36.172   2.162
 6539W        W78155  40.066  18.462   0.937
 6540W        W78156  12.374   2.004  13.125
 6541W        W78157  35.272  17.914  11.566
 6542W        W78158  29.412  36.574   0.330
 6543W        W78159   7.737  11.718   2.880
 6544W        W78160  39.813   0.847   1.319
 6545W        W78161  22.512   3.433   3.769
 6546W        W78162  39.950   4.244   0.685
 6547W        W78163  42.354  39.796   4.581
 6548W        W78164   7.860  17.208  14.455
 6549W        W78165  11.780   8.913   2.268
 6550W        W78166  29.742  18.333   0.889
 6551W        W78167  38.530  44.101  14.874
 6552W        W78168  32.687  24.013   2.379
 6553W        W78169  34.577  13.838   3.882
 6554W        W78170  15.023  33.316   0.880
 6555W        W78171   2.104   0.416   5.483
 6556W        W78172  32.781  31.848   1.896
 6557W        W78173  26.671  40.948  10.659
 6558W        W78174   0.019   9.118  12.020
 6559W        W78175  25.252   0.731   4.119
 6560W        W78176  12.257  41.483  10.710
 6561W        W78177  32.892  10.677  12.926
 6562W        W78178  37.320  39.481  11.612
 6563W        W78179  28.378  40.899  10.295
 6564W        W78180  19.149  42.101  10.270
 6565W        W78181  38.378  33.378  13.454
 6566W        W78182  18.672  20.989  11.703
 6567W        W78183  21.261  22.383  11.425
 6568W        W78184  18.828  14.974  10.398
 6569W        W78185  40.854   5.707  11.992
 6570W        W78186  30.456  39.721  14.428
 6571W        W78187  18.581  16.302   0.284
 6572W        W78188  42.298  42.250   1.642
 6573W        W78189  34.616  23.695  12.053
 6574W        W78190  14.711  16.279   5.448
 6575W        W78191   7.507  27.206   0.225
 6576W        W78192  21.534  24.346  12.031
 6577W        W78193  16.991  11.402  10.694
 6578W        W78194  19.393  30.105  11.137
 6579W        W78195   6.168  17.383  11.540
 6580W        W78196  23.223  40.109   0.800
 6581W        W78197   6.737  43.815   0.324
 6582W        W78198   6.860   4.551   2.141
 6583W        W78199  31.412   1.935   4.176
 6584W        W78200  42.820  43.155  13.388
 6585W        W78201  31.622  41.737   0.490
 6586W        W78202  21.013   7.098  14.460
 6587W        W78203  30.519  40.368   1.229
 6588W        W78204  31.618  23.655  14.316
 6589W        W78205   9.865  38.049  14.785
 6590W        W78206   4.326   4.688   2.844
 6591W        W78207  44.506  29.685   4.287
 6592W        W78208  25.626   1.345   3.968
 6593W        W78209  41.691  15.681  14.943
 6594W        W78210   0.088  11.552   3.797
 6595W        W78211   3.255  35.310  12.861
 6596W        W78212   4.633  11.689   0.659
 6597W        W78213  30.863  33.195  13.777
 6598W        W78214   5.030   1.922  14.412
 6599W        W78215  35.966   4.086  14.746
 6600W        W78216   9.863  44.010   1.469
 6601W        W78217   0.584  18.867   4.064
 6602W        W78218  42.763   2.215  13.483
 6603W        W78219  25.433  38.464  14.920
 6604W        W78220  23.117   1.787  14.810
 6605W        W78221   2.351  35.380  11.096
 6606W        W78222   8.154  19.686   3.226
 6607W        W78223   9.348   2.886  13.067
 6608W        W78224  31.001  38.989  13.069
 6609W        W78225   9.896  30.931   1.834
 6610W        W78226   4.978  43.504   1.646
 6611W        W78227   6.721  44.171   3.220
 6612W        W78228  30.320  34.829  11.580
 6613W        W78229  41.065  28.958  12.423
 6614W        W78230  35.671   0.209  14.090
 6615W        W78231  33.393  33.678  11.588
 6616W        W78232  26.753  28.592   4.252
 6617W        W78233  37.712   5.080  12.051
 6618W        W78234  21.662  43.268   3.796
 6619W        W78235   5.626  40.380  10.911
 6620W        W78236   4.365   9.231  11.230
 6621W        W78237  29.178  39.948  11.439
 6622W        W78238  43.418   4.593   4.189
 6623W        W78239  37.259  13.086  10.299
 6624W        W78240  20.787  29.888  11.094
 6625W        W78241  20.485  38.015   4.160
 6626W        W78242  15.834  19.000   2.751
 6627W        W78243  12.174  31.609  12.088
 6628W        W78244  16.542  32.855   2.823
 6629W        W78245  33.170  20.968  14.761
 6630W        W78246  43.946   4.244  12.891
 6631W        W78247  37.732  15.144  11.901
 6632W        W78248  25.764  14.852  10.271
 6633W        W78249  12.092  34.579   2.847
 6634W        W78250  38.587   6.949   0.537
 6635W        W78251   0.090   3.694   0.740
 6636W        W78252  17.233  13.837   1.991
 6637W        W78253  30.385  38.539  13.361
 6638W        W78254  33.168  24.074   1.212
 6639W        W78255  12.164  36.125  14.007
 6640W        W78256  42.247  41.544  12.498
 6641W        W78257  29.034  40.362  11.164
 6642W        W78258   8.498   4.302   0.423
 6643W        W78259  19.338  20.163  14.847
 6644W        W78260  31.930   2.832  11.049
 6645W        W78261  25.772  40.999   3.529
 6646W        W78262  24.758  24.791  13.991
 6647W        W78263  11.215  23.057   4.627
 6648W        W78264  12.595  19.785  13.029
 6649W        W78265  10.206   3.155  10.492
 6650W        W78266  20.589  13.668  12.350
 6651W        W78267   7.775   1.316   0.939
 6652W        W78268  39.253  29.619   0.104
 6653W        W78269  35.841  31.656   0.947
 6654W        W78270  21.161   5.418   2.882
 6655W        W78271  36.535  34.248   4.964
 6656W        W78272  19.848  39.322  13.925
 6657W        W78273  11.212  19.633   3.362
 6658W        W78274   6.245  38.634   4.125
 6659W        W78275  41.972  42.751  10.113
 6660W        W78276  44.389  21.440   0.789
 6661W        W78277  13.408   1.750   4.119
 6662W        W78278  28.442  28.200   2.262
 6663W        W78279   6.222  31.150   4.618
 6664W        W78280   1.454  12.211  13.613
 6665W        W78281  40.382  40.071   4.584
 6666W        W78282  27.829   7.140  10.206
 6667W        W78283  27.002  14.084   0.859
 6668W        W78284  19.503  38.960  14.075
 6669W        W78285  23.998  38.884   1.818
 6670W        W78286  41.887  30.096  12.163
 6671W        W78287  18.223  29.264  11.582
 6672W        W78288  32.631  42.015   2.701
 6673W        W78289   2.385  35.672   3.207
 6674W        W78290  29.555   5.177  12.858
 6675W        W78291   6.499  24.210   1.697
 6676W        W78292  36.399  20.185   2.983
 6677W        W78293  28.165  24.478  11.204
 6678W        W78294   8.758   3.003  12.558
 6679W        W78295  26.766   2.253  10.888
 6680W        W78296   2.894  16.513   4.073
 6681W        W78297  11.475  44.934  10.648
 6682W        W78298  15.575   4.408  13.902
 6683W        W78299   7.230   3.243   2.720
 6684W        W78300  20.613   0.021   4.166
 6685W        W78301  17.085  21.245  12.956
 6686W        W78302  20.324  19.688   3.581
 6687W        W78303  35.809  17.106   1.424
 6688W        W78304  28.942  17.285   0.257
 6689W        W78305  10.629  20.810  11.426
 6690W        W78306   8.898  21.474  10.530
 6691W        W78307  17.220  38.021   2.969
 6692W        W78308  20.060  41.070  13.563
 6693W        W78309   4.377  20.725   4.264
 6694W        W78310  29.435  34.378  14.766
 6695W        W78311  34.565  25.865   3.089
 6696W        W78312  11.710  37.359  14.527
 6697W        W78313  20.775  19.542   3.774
 6698W        W78314  23.117  43.872   4.077
 6699W        W78315  17.235  23.432  11.337
 6700W        W78316   2.243   6.695   0.827
 6701W        W78317   5.149   0.400   2.982
 6702W        W78318  44.242  30.716   2.513
 6703W        W78319  32.507   1.992  12.361
 6704W        W78320  24.265   5.184   1.452
 6705W        W78321  13.641   2.875   3.454
 6706W        W78322   9.912  24.800  14.900
 6707W        W78323  16.239  37.283  13.984
 6708W        W78324   7.219  13.838   3.657
 6709W        W78325   0.961  34.784   4.121
 6710W        W78326  31.492  14.621   0.246
 6711W        W78327  34.977   3.209  11.064
 6712W        W78328  36.630   4.492  11.039
 6713W        W78329  19.022  17.437  13.954
 6714W        W78330  31.890   6.729   0.127
 6715W        W78331  14.211  30.024  10.600
 6716W        W78332  35.434  25.803   2.602
 6717W        W78333  16.698  27.495   1.815
 6718W        W78334  14.653  34.315  14.899
 6719W        W78335  24.182  21.574  10.945
 6720W        W78336   2.173  19.230  10.741
 6721W        W78337   2.053  40.224  13.032
 6722W        W78338  10.342  35.885  13.890
 6723W        W78339   6.638  35.411  11.454
 6724W        W78340  18.550   2.848   3.649
 6725W        W78341   7.100  26.972  11.190
 6726W        W78342  31.061  33.429   2.275
 6727W        W78343  37.613  37.919   4.650
 6728W        W78344   2.382  40.936  12.104
 6729W        W78345  25.432  37.380  12.918
 6730W        W78346  33.941  23.604  14.806
 6731W        W78347  33.094  31.136   1.234
 6732W        W78348  37.795  18.700   2.473
 6733W        W78349   4.861  41.590   1.893
 6734W        W78350  35.283  11.605  13.473
 6735W        W78351  39.562  27.391   0.462
 6736W        W78352  31.892   7.527   3.724
 6737W        W78353   3.329  31.129  13.880
 6738W        W78354  15.570  39.466  11.995
 6739W        W78355  43.385   8.718   4.645
 6740W        W78356  10.299   8.151  11.643
 6741W        W78357  17.043   9.779   4.709
 6742W        W78358  41.795  27.885   0.515
 6743W        W78359   9.810  35.614  12.944
 6744W        W78360  36.927  31.797  12.361
 6745W        W78361  33.301  15.770  12.893
 6746W        W78362  42.404  26.566   4.704
 6747W        W78363  30.570  15.286   2.998
 6748W        W78364  33.457  17.529   3.732
 6749W        W78365  23.215  37.898  10.681
 6750W        W78366  39.743   4.745  14.783
 6751W        W78367  22.685  37.240  11.010
 6752W        W78368  44.904  29.633  14.144
 6753W        W78369   7.775   9.383  10.398
 6754W        W78370  20.071   9.619   1.408
 6755W        W78371  32.055  30.640  13.918
 6756W        W78372   6.265  18.196  12.838
 6757W        W78373  14.495  41.497   4.183
 6758W        W78374  35.897  10.365  13.858
 6759W        W78375  14.626  34.413  12.924
 6760W        W78376  13.646  23.774  14.071
 6761W        W78377  26.014  15.118   1.264
 6762W        W78378  37.000  26.923  14.023
 6763W        W78379  31.031  17.260  13.523
 6764W        W78380   0.766  21.982   1.852
 6765W        W78381  10.815  22.054   3.760
 6766W        W78382  34.039  22.023  13.488
 6767W        W78383  44.153  15.161   1.344
 6768W        W78384  27.157  17.406   1.228
 6769W        W78385   1.601  40.403   2.076
 6770W        W78386  18.024   7.298  10.521
 6771W        W78387  38.944  13.634  11.514
 6772W        W78388  41.906  35.380  13.374
 6773W        W78389  31.684  29.593  13.468
 6774W        W78390  27.371  42.995  14.377
 6775W        W78391  18.774  34.516   2.747
 6776W        W78392  28.545  31.052   3.656
 6777W        W78393  37.915  44.978  13.072
 6778W        W78394  26.200   0.043  13.977
 6779W        W78395   0.186  32.006   5.121
 6780W        W78396  14.711  44.096   4.192
 6781W        W78397  33.342  44.898  13.465
 6782W        W78398  23.301   7.911  11.590
 6783W        W78399  21.823  12.512   1.582
 6784W        W78400  20.308   4.997   5.013
 6785W        W78401  11.155  16.153   0.653
 6786W        W78402  13.188   2.492   0.851
 6787W        W78403  23.506  31.705  11.085
 6788W        W78404   3.446   8.431  12.575
 6789W        W78405  30.003  32.982  10.964
 6790W        W78406  11.630   7.407   2.085
 6791W        W78407   7.335  37.451   3.613
 6792W        W78408  33.739  41.677  14.485
 6793W        W78409  36.108   7.848  14.319
 6794W        W78410   6.416  33.184   1.341
 6795W        W78411  13.648   9.200   3.839
 6796W        W78412  21.487  15.841  12.511
 6797W        W78413  39.452  38.610   2.702
 6798W        W78414  10.738   9.663  14.395
 6799W        W78415  24.127   3.641   2.791
 6800W        W78416  17.703  29.355  11.537
 6801W        W78417  38.351  20.125  13.803
 6802W        W78418  22.044  27.933  10.528
 6803W        W78419  43.484  18.244  14.898
 6804W        W78420  21.472  43.600  10.877
 6805W        W78421   2.387  22.711   0.465
 6806W        W78422  19.319  23.004  11.133
 6807W        W78423  33.458   2.263   0.334
 6808W        W78424   6.671  44.948  10.939
 6809W        W78425  11.845  18.579   1.457
 6810W        W78426  24.150  12.537  13.369
 6811W        W78427  21.532  29.184  12.304
 6812W        W78428  40.432  21.566   1.163
 6813W        W78429  39.621  20.365   0.935
 6814W        W78430  27.009  18.019   2.017
 6815W        W78431  26.161  30.398   3.807
 6816W        W78432  13.075  42.793  13.375
 6817W        W78433  28.387  34.584  13.878
 6818W        W78434   6.407  11.619   1.746
 6819W        W78435  15.062  24.652   1.215
 6820W        W78436  38.673  23.006  12.662
 6821W        W78437  28.529  29.016  10.863
 6822W        W78438   3.224   3.995  11.988
 6823W        W78439  23.258  41.895   0.836
 6824W        W78440  22.256  42.382   3.564
 6825W        W78441  25.685  44.230   4.652
 6826W        W78442  30.957  25.211  10.335
 6827W        W78443  38.906  36.115   4.209
 6828W        W78444  23.298  22.438  14.897
 6829W        W78445  15.078  31.507   4.656
 6830W        W78446  37.158  28.560  11.644
 6831W        W78447  18.510  39.016  13.323
 6832W        W78448   2.304  42.095  10.743
 6833W        W78449  21.683  10.332  12.984
 6834W        W78450  12.844  41.543  13.967
 6835W        W78451   2.236  38.113   2.772
 6836W        W78452  18.438  39.459   1.520
 6837W        W78453  44.184   5.537  11.187
 6838W        W78454   1.731  26.878   2.907
 6839W        W78455  36.346  25.891   4.207
 6840W        W78456  15.087  34.034   4.244
 6841W        W78457  42.015  27.594   0.977
 6842W        W78458  34.525   0.472  14.974
 6843W        W78459  39.905  11.071   3.789
 6844W        W78460  15.666  43.917   5.157
 6845W        W78461  41.976  13.977  14.427
 6846W        W78462  37.190  15.931   2.850
 6847W        W78463  29.455  33.433  14.226
 6848W        W78464  29.455   6.779   2.889
 6849W        W78465  19.049  29.191  13.927
 6850W        W78466  37.952  32.845   3.313
 6851W        W78467  42.777  18.708  12.441
 6852W        W78468  11.903  20.335   0.355
 6853W        W78469   5.118   1.715  11.540
 6854W        W78470  24.094   0.470  12.530
 6855W        W78471  28.166   5.146  10.316
 6856W        W78472  20.062   8.719   4.697
 6857W        W78473  22.622  25.933   3.392
 6858W        W78474  23.826  10.623  10.786
 6859W        W78475  22.635  30.950  12.142
 6860W        W78476  27.291  18.822  11.024
 6861W        W78477  41.131  14.083   1.845
 6862W        W78478   6.481   6.500   3.607
 6863W        W78479  29.900  24.993  10.359
 6864W        W78480   9.352  14.308  13.504
 6865W        W78481  44.000  26.135   4.256
 6866W        W78482  19.961   7.788  13.428
 6867W        W78483  19.109  31.834   4.327
 6868W        W78484  20.263  14.655   2.227
 6869W        W78485  34.127  14.648  10.940
 6870W        W78486   3.999   5.875  12.041
 6871W        W78487  15.199  15.398  14.854
 6872W        W78488  36.355   2.006   3.197
 6873W        W78489   5.669   8.704   2.289
 6874W        W78490  18.035  11.819  12.990
 6875W        W78491  22.076  44.729   4.116
 6876W        W78492   3.463  30.894  14.776
 6877W        W78493  26.131  42.843  12.275
 6878W        W78494  38.823   3.907   0.395
 6879W        W78495  25.091  25.636   0.825
 6880W        W78496   8.446   0.490   2.748
 6881W        W78497   4.318  28.845   3.078
 6882W        W78498  13.374   5.341  11.109
 6883W        W78499  30.558  24.557   0.442
 6884W        W78500  44.690  28.957   4.019
 6885W        W78501  35.496   2.455  12.606
 6886W        W78502  10.530  11.646   2.399
 6887W        W78503  19.190   8.956   3.560
 6888W        W78504   2.025  12.324  10.622
 6889W        W78505  17.584   1.293   1.472
 6890W        W78506  42.424   3.017  12.526
 6891W        W78507   5.135  18.106   4.057
 6892W        W78508   0.357   2.298   0.352
 6893W        W78509  30.165  19.805  11.615
 6894W        W78510   1.018  36.594   1.938
 6895W        W78511  26.166  34.152   1.304
 6896W        W78512   2.816   5.693   3.832
 6897W        W78513  41.155  31.612  12.073
 6898W        W78514  16.249  24.208   4.592
 6899W        W78515  29.260  17.593   1.175
 6900W        W78516  31.447  35.444  13.156
 6901W        W78517   0.176  26.732  13.972
 6902W        W78518   6.159  23.960   0.602
 6903W        W78519  44.260  26.620  14.521
 6904W        W78520  27.239  12.941   3.246
 6905W        W78521  29.845  38.919   4.555
 6906W        W78522  13.789  17.471   0.469
 6907W        W78523  32.693  36.990   1.209
 6908W        W78524   4.775  34.955  12.970
 6909W        W78525   3.936   1.755  12.097
 6910W        W78526  36.478  17.731  13.912
 6911W        W78527   5.790  22.280  13.820
 6912W        W78528  18.833  19.514  14.353
 6913W        W78529   0.921  34.427  12.993
 6914W        W78530   8.487  12.700   3.835
 6915W        W78531  17.214  32.828   0.909
 6916W        W78532  43.482   7.191   1.849
 6917W        W78533  27.645  37.898   4.709
 6918W        W78534  13.587  37.389  13.306
 6919W        W78535  42.779   7.662  13.527
 6920W        W78536   3.442  29.150   0.208
 6921W        W78537  17.448  18.110   1.474
 6922W        W78538  40.986   3.049   1.145
 6923W        W78539   3.501  38.883   3.206
 6924W        W78540  19.219  21.252  12.961
 6925W        W78541  31.202   6.702   4.093
 6926W        W78542   8.294  24.230  13.326
 6927W        W78543  13.794   2.951  12.134
 6928W        W78544  16.364  22.631  10.750
 6929W        W78545  33.441  42.522  13.979
 6930W        W78546  33.815   5.331  13.954
 6931W        W78547   2.417  26.332  11.753
 6932W        W78548  19.725  33.111  13.917
 6933W        W78549  38.105  42.458  14.829
 6934W        W78550  12.245  13.992  13.335
 6935W        W78551  33.977  44.458  10.687
 6936W        W78552  41.070  37.363  10.969
 6937W        W78553  13.849  36.465  12.436
 6938W        W78554  21.299   1.403  13.301
 6939W        W78555  27.724  12.961  14.963
 6940W        W78556  33.848  25.101  12.477
 6941W        W78557  41.464  21.748  10.628
 6942W        W78558   0.039  35.704   4.873
 6943W        W78559  10.695   1.512   3.214
 6944W        W78560  11.662  32.408   0.712
 6945W        W78561  18.616  34.377   1.787
 6946W        W78562  43.851  29.159   1.334
 6947W        W78563  18.849   2.579  14.439
 6948W        W78564  32.332  41.746   2.166
 6949W        W78565  22.068  11.951   1.429
 6950W        W78566  41.099  19.070   2.719
 6951W        W78567   6.359   7.230  13.359
 6952W        W78568  37.563  16.940  12.114
 6953W        W78569  39.055  38.250   4.006
 6954W        W78570  30.165  32.704   2.018
 6955W        W78571  43.692  13.158   2.796
 6956W        W78572  40.232   8.729   5.104
 6957W        W78573  29.598  37.779  11.562
 6958W        W78574  19.071  20.537  14.347
 6959W        W78575  41.470  34.550  12.530
 6960W        W78576  37.455  12.369  14.346
 6961W        W78577  28.127  43.363   3.762
 6962W        W78578  24.474  25.084  11.707
 6963W        W78579  40.562  25.711  12.739
 6964W        W78580   3.091  43.316   4.993
 6965W        W78581  43.042  19.155  12.520
 6966W        W78582  11.674  31.061   2.475
 6967W        W78583  21.981  44.222   2.204
 6968W        W78584  41.145  19.113   5.095
 6969W        W78585  39.182  21.835   0.466
 6970W        W78586  15.781  18.052   5.167
 6971W        W78587  25.418  29.025   0.325
 6972W        W78588  25.914   2.514  13.821
 6973W        W78589  19.458  11.503   2.768
 6974W        W78590  26.731   4.960  12.502
 6975W        W78591  43.010  17.223   0.298
 6976W        W78592  28.211  26.060   4.320
 6977W        W78593  27.267   3.309  11.066
 6978W        W78594   9.360  38.873   0.493
 6979W        W78595  23.709  37.322   1.279
 6980W        W78596  26.821  36.884  12.883
 6981W        W78597  39.244   8.919  11.998
 6982W        W78598  14.808  25.885  14.474
 6983W        W78599  21.767   4.711   3.123
 6984W        W78600  28.175  17.086   1.680
 6985W        W78601  42.015  41.065   1.988
 6986W        W78602  43.939  27.153   3.229
 6987W        W78603   4.843  43.946   1.928
 6988W        W78604  32.331  24.109   2.966
 6989W        W78605   2.802  18.062   2.289
 6990W        W78606  13.594  13.816  13.600
 6991W        W78607  22.511   7.151   0.726
 6992W        W78608  42.774  43.838  10.560
 6993W        W78609  19.973  20.350  10.881
 6994W        W78610   2.795   8.721  12.787
 6995W        W78611   8.866  14.518   1.541
 6996W        W78612  41.020  29.341   3.207
 6997W        W78613   9.441  15.743  13.504
 6998W        W78614  41.022  24.771  12.324
 6999W        W78615  29.115  44.807  13.416
 7000W        W78616   6.522  36.805   1.152
 7001W        W78617  18.828   7.715   0.407
 7002W        W78618   8.222   3.447   4.527
 7003W        W78619  27.093  33.604  11.476
 7004W        W78620  36.112  12.841  13.368
 7005W        W78621  25.048  34.807  11.523
 7006W        W78622  38.475   6.226  11.138
 7007W        W78623  29.353   1.430   0.159
 7008W        W78624   0.004  22.034   2.393
 7009W        W78625  43.714  18.735   3.582
 7010W        W78626  34.388  16.077  14.568
 7011W        W78627  10.722   5.105  13.011
 7012W        W78628  21.701  43.700  13.026
 7013W        W78629   9.289  25.197  13.377
 7014W        W78630  23.101  11.139  12.993
 7015W        W78631  18.442  37.798   0.225
 7016W        W78632  42.367   8.880   0.217
 7017W        W78633  22.538  44.749   1.359
 7018W        W78634   4.337  12.114  10.576
 7019W        W78635  27.038  16.336  12.087
 7020W        W78636  39.423  22.833  14.204
 7021W        W78637  10.866   2.425   3.510
 7022W        W78638   4.927   7.403  14.389
 7023W        W78639  19.701  24.726   1.265
 7024W        W78640   9.205  15.357   2.668
 7025W        W78641  37.488  31.461  10.941
 7026W        W78642  23.731  23.810   2.325
 7027W        W78643  42.943   3.339   0.493
 7028W        W78644   4.457   8.219   1.238
 7029W        W78645  29.950  15.995   1.841
 7030W        W78646  22.155  23.157  11.086
 7031W        W78647  28.128  44.833  11.677
 7032W        W78648  17.127  10.826   1.376
 7033W        W78649  19.500   4.776  14.827
 7034W        W78650  29.657  32.443  14.711
 7035W        W78651  42.495  39.225   1.690
 7036W        W78652  38.932  40.529  14.984
 7037W        W78653  30.216  41.723  11.668
 7038W        W78654  11.349  23.491   2.873
 7039W        W78655  43.951  40.391  10.531
 7040W        W78656   3.781  14.357  12.947
 7041W        W78657  29.272  11.653   0.923
 7042W        W78658  17.019  23.126   0.911
 7043W        W78659   8.821  16.740   3.054
 7044W        W78660  38.347  42.039   0.341
 7045W        W78661  14.832  33.098   2.146
 7046W        W78662  21.066  30.845   4.587
 7047W        W78663  41.573   4.762   5.194
 7048W        W78664   5.317  36.026  10.867
 7049W        W78665  38.867  43.857  12.876
 7050W        W78666  22.215  41.420  13.391
 7051W        W78667  36.885  32.376   4.096
 7052W        W78668  22.444  43.601   3.323
 7053W        W78669  36.752   0.512   4.438
 7054W        W78670   7.184  19.569  10.678
 7055W        W78671  20.086  25.113  13.399
 7056W        W78672  40.841   9.590   4.438
 7057W        W78673  21.080  30.703  14.406
 7058W        W78674  40.454  18.890   3.889
 7059W        W78675  22.995  36.841   1.856
 7060W        W78676  35.871  41.777  14.591
 7061W        W78677  10.291  12.684  11.915
 7062W        W78678  35.966  16.413   0.425
 7063W        W78679  17.797  34.020  14.909
 7064W        W78680  17.787  19.253   4.956
 7065W        W78681  42.651  31.679  10.939
 7066W        W78682   5.344  22.727   3.680
 7067W        W78683   3.531  15.203   2.824
 7068W        W78684  26.009  38.971   1.255
 7069W        W78685   6.997  25.010   1.667
 7070W        W78686   4.292  28.556   4.774
 7071W        W78687   6.917  20.702  13.839
 7072W        W78688   2.904   4.406  11.600
 7073W        W78689   2.442  41.019  12.618
 7074W        W78690  31.617   5.509   2.789
 7075W        W78691  17.044  12.621   3.243
 7076W        W78692  13.207   5.415   3.739
 7077W        W78693  14.763  22.085  13.407
 7078W        W78694  37.429  38.987   4.896
 7079W        W78695  39.143  32.592  12.057
 7080W        W78696  31.154   8.163  13.298
 7081W        W78697  39.693  12.093  11.548
 7082W        W78698  16.814   6.598   2.814
 7083W        W78699  41.923  33.205  13.823
 7084W        W78700  35.389  31.421   0.884
 7085W        W78701  25.183  22.170  13.426
 7086W        W78702  43.079  21.090  13.477
 7087W        W78703  29.403  18.266   2.289
 7088W        W78704  29.600  39.886  10.230
 7089W        W78705  14.421  44.758  14.465
 7090W        W78706  14.792  39.738   1.248
 7091W        W78707  25.757  39.807  12.917
 7092W        W78708   1.027  34.359   2.261
 7093W        W78709  27.384  43.435   0.446
 7094W        W78710  37.164  10.157   2.501
 7095W        W78711  19.034   1.810   3.381
 7096W        W78712  38.600  26.700  11.482
 7097W        W78713  19.280  41.345  14.893
 7098W        W78714  17.031   6.161  14.462
 7099W        W78715  25.011   8.315  14.468
 7100W        W78716  15.562   2.836   3.183
 7101W        W78717  26.441   8.832   3.998
 7102W        W78718  25.442  17.820   4.195
 7103W        W78719  16.268  24.588   0.461
 7104W        W78720   9.292   3.727  10.722
 7105W        W78721  11.786  35.922  14.505
 7106W        W78722   4.273   6.968  12.820
 7107W        W78723  13.751  31.465   4.137
 7108W        W78724  40.691  13.133  13.797
 7109W        W78725  29.584  24.250  11.694
 7110W        W78726   6.485  40.441  14.872
 7111W        W78727   1.445  32.993   1.372
 7112W        W78728  13.641  17.270   0.958
 7113W        W78729   9.732  15.356  10.443
 7114W        W78730  14.695  27.374  12.645
 7115W        W78731  35.364   1.477   3.178
 7116W        W78732  31.588  13.744  12.467
 7117W        W78733  29.365   3.306  14.543
 7118W        W78734  33.928  26.141  12.569
 7119W        W78735  42.985   9.169   2.231
 7120W        W78736  35.925  26.467  11.545
 7121W        W78737  22.775   3.977  11.183
 7122W        W78738  39.333  18.574  10.711
 7123W        W78739  19.321   5.425   2.448
 7124W        W78740  14.652   7.165   0.496
 7125W        W78741  37.999  10.831  13.587
 7126W        W78742   1.936   0.308   2.342
 7127W        W78743  11.726  16.932   0.354
 7128W        W78744  42.070  17.375   1.347
 7129W        W78745   0.669  40.610  11.139
 7130W        W78746  16.724   2.389   4.361
 7131W        W78747   6.862  44.277   0.547
 7132W        W78748   6.816  32.201   9.753
 7133W        W78749  28.993   5.927  12.815
 7134W        W78750  29.550   4.265  13.013
 7135W        W78751  38.135  34.207  11.581
 7136W        W78752  16.340  23.658   4.591
 7137W        W78753  32.164  41.569  13.876
 7138W        W78754  35.030   7.827   0.336
 7139W        W78755  20.955  37.595  13.219
 7140W        W78756  19.860  13.519  11.200
 7141W        W78757  22.720  25.122  10.224
 7142W        W78758  43.436  17.139   2.596
 7143W        W78759  26.014  22.677   1.520
 7144W        W78760  16.264  40.791  11.833
 7145W        W78761  11.735  27.919   1.415
 7146W        W78762   0.421  36.320   1.321
 7147W        W78763   3.739   0.895  14.379
 7148W        W78764  44.783  23.193  11.637
 7149W        W78765   0.185   2.218   4.117
 7150W        W78766  14.079  25.146   2.950
 7151W        W78767  40.443   1.669  12.650
 7152W        W78768  17.278   1.604   2.390
 7153W        W78769  34.066   4.330  10.961
 7154W        W78770  39.851   0.419  12.050
 7155W        W78771  16.520   1.812   1.110
 7156W        W78772  19.126  15.276   1.841
 7157W        W78773  38.343  23.716  14.345
 7158W        W78774  13.731  29.524  11.103
 7159W        W78775  25.643   8.296   2.680
 7160W        W78776   3.039  10.257  10.787
 7161W        W78777  42.645  26.215  14.449
 7162W        W78778  43.705  25.966   0.453
 7163W        W78779  28.070  43.934  14.596
 7164W        W78780  34.853   3.667   2.752
 7165W        W78781  28.677   0.996   0.671
 7166W        W78782   4.925  35.205  13.437
 7167W        W78783  12.517  31.460   3.631
 7168W        W78784  20.169  41.048  10.943
 7169W        W78785   9.127  14.731  13.314
 7170W        W78786  20.645   1.720  10.790
 7171W        W78787  39.577  12.320  14.104
 7172W        W78788  38.769  18.319  13.056
 7173W        W78789   6.491   9.119  10.703
 7174W        W78790  15.681   4.260   2.185
 7175W        W78791  15.753   4.128   3.582
 7176W        W78792  28.532  34.399  11.936
 7177W        W78793  25.902   2.669   1.663
 7178W        W78794  34.356   0.874  13.625
 7179W        W78795  14.546   6.900   0.021
 7180W        W78796  44.090  11.831  13.939
 7181W        W78797   3.522  18.787  11.554
 7182W        W78798  35.097  15.260  12.946
 7183W        W78799  13.809   2.399   3.328
 7184W        W78800  29.921  44.329  11.005
 7185W        W78801  36.591  27.481   3.689
 7186W        W78802  43.871  34.894  14.039
 7187W        W78803   5.836  14.090  14.818
 7188W        W78804   6.289  33.126   2.379
 7189W        W78805  36.921  23.168   1.653
 7190W        W78806  30.011  11.114   2.744
 7191W        W78807   5.706  21.048  14.836
 7192W        W78808  42.392  40.416  11.413
 7193W        W78809  11.999  21.198   0.193
 7194W        W78810   2.950   8.988  11.831
 7195W        W78811   5.894  42.793  14.295
 7196W        W78812   1.815  39.372  14.238
 7197W        W78813  24.164  23.148   4.114
 7198W        W78814  33.673  18.942  14.872
 7199W        W78815  27.566  24.860   0.798
 7200W        W78816  37.549  10.381   0.202
 7201W        W78817  27.710   7.180  12.911
 7202W        W78818   3.888  17.231  13.823
 7203W        W78819  20.190   6.003  11.842
 7204W        W78820  44.349   1.707  11.673
 7205W        W78821   0.198  22.505  12.320
 7206W        W78822  37.459  42.007   0.168
 7207W        W78823  28.092  37.804   0.896
 7208W        W78824  25.666  32.238   0.259
 7209W        W78825  37.323  18.586  13.815
 7210W        W78826  13.679  35.489   2.106
 7211W        W78827  27.285  36.074  14.771
 7212W        W78828  31.312  43.140   0.075
 7213W        W78829  36.487  33.131  13.033
 7214W        W78830  18.130  41.635  10.687
 7215W        W78831  26.951  36.816   2.665
 7216W        W78832  10.573  24.986   4.267
 7217W        W78833   0.293  29.773  11.578
 7218W        W78834  35.814   0.239  13.038
 7219W        W78835  36.889  11.844   3.738
 7220W        W78836   9.633  36.391   2.754
 7221W        W78837  12.110  13.765  14.390
 7222W        W78838   5.643   6.260  14.861
 7223W        W78839  23.509   2.941   3.231
 7224W        W78840  26.687   9.595  14.466
 7225W        W78841  16.827  13.772  14.315
 7226W        W78842  32.384  44.368  14.364
 7227W        W78843  12.749   4.308   4.487
 7228W        W78844  20.770   3.734  13.049
 7229W        W78845  33.530   3.211   5.252
 7230W        W78846  37.971  21.496   3.855
 7231W        W78847  20.337   6.386   0.969
 7232W        W78848  39.724  29.763   4.485
 7233W        W78849   1.980  24.228   3.645
 7234W        W78850  32.918  39.083  12.860
 7235W        W78851  41.800   3.216   0.958
 7236W        W78852  40.881  20.664   1.440
 7237W        W78853   9.712  21.586  13.456
 7238W        W78854  23.549  35.963   2.339
 7239W        W78855  25.698   1.728  10.509
 7240W        W78856  37.668  43.906   3.184
 7241W        W78857  13.774  19.024   0.375
 7242W        W78858   1.961  31.189   4.114
 7243W        W78859  21.596  30.980  10.749
 7244W        W78860  38.031   1.769  12.695
 7245W        W78861   3.886  41.285  10.871
 7246W        W78862  36.543  42.803  12.326
 7247W        W78863  33.388  10.255  11.669
 7248W        W78864  40.017  13.718   2.316
 7249W        W78865  39.552  12.204  12.041
 7250W        W78866  12.103  38.010  14.040
 7251W        W78867  21.249  32.023  10.821
 7252W        W78868   2.443  41.789   1.346
 7253W        W78869  37.037  30.782   3.260
 7254W        W78870   0.324  23.287  14.856
 7255W        W78871  38.793  41.636  14.389
 7256W        W78872  20.582  36.166   0.093
 7257W        W78873  15.940  34.518   2.794
 7258W        W78874   6.666   3.317   4.509
 7259W        W78875   2.328  24.117  12.111
 7260W        W78876  15.603  20.571   1.424
 7261W        W78877  34.147   6.177  14.508
 7262W        W78878  29.525  43.420   0.531
 7263W        W78879  32.597  41.659  11.647
 7264W        W78880  23.153   2.089  14.387
 7265W        W78881  37.874  21.733   1.961
 7266W        W78882  11.632   6.397   1.838
 7267W        W78883  23.376   0.110   4.257
 7268W        W78884  28.263  28.519   1.778
 7269W        W78885  42.394  14.893   4.527
 7270W        W78886  44.487  39.481   1.276
 7271W        W78887  12.106  35.370   4.689
 7272W        W78888   3.600  40.924   3.274
 7273W        W78889  30.382  34.339   1.286
 7274W        W78890  24.995  26.543  13.420
 7275W        W78891  25.431  42.349  11.617
 7276W        W78892  22.157  18.202   0.078
 7277W        W78893  16.319   8.713   3.175
 7278W        W78894  31.190   0.047   9.794
 7279W        W78895  16.678   3.804   2.736
 7280W        W78896  13.233  15.795  12.647
 7281W        W78897  44.694   0.726   3.171
 7282W        W78898   8.907  27.892   3.717
 7283W        W78899  10.425  40.447  11.854
 7284W        W78900  39.901   0.305   2.150
 7285W        W78901  38.448  39.250   2.574
 7286W        W78902   1.034  10.983  12.518
 7287W        W78903  10.194   1.626   3.301
 7288W        W78904   2.457   0.778   5.323
 7289W        W78905   7.329   4.898  11.210
 7290W        W78906  40.847  38.360   4.221
 7291W        W78907  35.735  35.529   0.492
 7292W        W78908  32.420  28.272  12.921
 7293W        W78909  35.486  19.594  13.251
 7294W        W78910  29.400  11.596  12.044
 7295W        W78911  37.256  44.125  12.033
 7296W        W78912   5.519  21.515  14.713
 7297W        W78913  20.207  34.274   3.381
 7298W        W78914  11.322  40.807   0.401
 7299W        W78915   0.946  30.075   3.798
 7300W        W78916  29.470  22.962  11.847
 7301W        W78917  42.079  35.356   3.361
 7302W        W78918  13.045  39.952   1.754
 7303W        W78919   9.676  32.551   3.405
 7304W        W78920   5.470  30.565   1.329
 7305W        W78921  34.141  20.214  11.155
 7306W        W78922  25.910   6.022  13.117
 7307W        W78923  23.553  14.114  13.017
 7308W        W78924  16.319  28.699  14.003
 7309W        W78925  21.478  37.508  13.183
 7310W        W78926   7.623  44.848   4.644
 7311W        W78927  12.710  41.730   4.176
 7312W        W78928  14.047  42.544   2.148
 7313W        W78929   5.849  29.466   3.005
 7314W        W78930  20.481   5.488  11.033
 7315W        W78931  29.975  28.754   1.915
 7316W        W78932  36.640  31.644  11.439
 7317W        W78933  32.750  33.100   0.416
 7318W        W78934  28.248   4.044  12.033
 7319W        W78935  10.193  14.710  14.246
 7320W        W78936  12.136  29.918  12.864
 7321W        W78937  18.246  35.507   4.706
 7322W        W78938  19.505  25.533  14.655
 7323W        W78939  21.061  13.698   1.826
 7324W        W78940   9.366  11.736   3.225
 7325W        W78941  20.659   4.416   3.359
 7326W        W78942   5.244  43.008   1.463
 7327W        W78943   4.454  10.875   2.636
 7328W        W78944   2.592  25.368   5.065
 7329W        W78945  43.873  11.363  14.974
 7330W        W78946  18.816   1.745  10.731
 7331W        W78947   8.895  27.271  11.556
 7332W        W78948  16.160   0.092  14.367
 7333W        W78949  37.089   8.560  13.826
 7334W        W78950  29.472  15.050   1.729
 7335W        W78951   1.423  12.790  12.013
 7336W        W78952  16.309   9.273  12.452
 7337W        W78953  39.928  18.184   3.964
 7338W        W78954   6.684   0.719  14.328
 7339W        W78955  43.799  42.265   3.413
 7340W        W78956   1.106   9.375   4.205
 7341W        W78957   3.308  41.715   1.224
 7342W        W78958  21.533   3.352   4.349
 7343W        W78959  39.749  30.982  10.764
 7344W        W78960  27.126  14.739  10.744
 7345W        W78961  10.606  17.818   2.260
 7346W        W78962  32.867  40.471   2.873
 7347W        W78963  10.311  25.663  14.765
 7348W        W78964   0.506  18.647  11.135
 7349W        W78965  31.745   7.413  13.480
 7350W        W78966  13.604  21.232  13.950
 7351W        W78967  35.871  25.931   0.878
 7352W        W78968  30.012   5.105   4.557
 7353W        W78969  24.781  17.229   2.967
 7354W        W78970   5.954  25.146   1.780
 7355W        W78971   1.801  19.487  13.792
 7356W        W78972  13.647  31.176   3.641
 7357W        W78973  36.101  32.271  13.084
 7358W        W78974  30.949   8.378  14.086
 7359W        W78975  27.050  22.240   2.687
 7360W        W78976  37.487  23.681   1.047
 7361W        W78977   6.382  18.251  14.871
 7362W        W78978   9.817  11.800   1.510
 7363W        W78979  13.737  16.041   3.227
 7364W        W78980  13.175  14.080   1.706
 7365W        W78981  36.754  37.436  12.953
 7366W        W78982  35.946  42.516   0.354
 7367W        W78983  21.958  23.678  12.398
 7368W        W78984  16.113   7.931  10.288
 7369W        W78985  35.113  18.313   1.848
 7370W        W78986  16.742  35.178  14.056
 7371W        W78987  35.678   3.238   2.152
 7372W        W78988  40.337  40.380   0.699
 7373W        W78989  40.710  21.460  10.986
 7374W        W78990  30.746  21.655   2.824
 7375W        W78991  38.279  15.728  10.885
 7376W        W78992  39.956  39.823  13.517
 7377W        W78993  15.220   0.680  12.075
 7378W        W78994  21.244  21.654   4.990
 7379W        W78995  39.331  10.372   4.998
 7380W        W78996  15.857  29.610  13.483
 7381W        W78997  35.327  26.669   2.355
 7382W        W78998  40.763  13.270  12.931
 7383W        W78999  26.591  28.418  13.888
 7384W        W79000  28.119  26.738  11.957
 7385W        W79001  36.856   2.280  10.663
 7386W        W79002  11.673  31.455  14.369
 7387W        W79003  33.584  11.785  10.703
 7388W        W79004   9.629   4.935  11.533
 7389W        W79005  10.743  44.281  11.851
 7390W        W79006  20.700  31.574   2.916
 7391W        W79007  40.290  25.080   3.227
 7392W        W79008  32.839  31.675  12.716
 7393W        W79009  28.955  38.326   1.767
 7394W        W79010  24.178   5.922   4.157
 7395W        W79011  14.428   9.683  11.582
 7396W        W79012  18.335  38.083   1.479
 7397W        W79013  18.334  18.863  13.751
 7398W        W79014  26.143  15.230  12.602
 7399W        W79015  24.899   1.061   3.910
 7400W        W79016  27.194   2.091   2.826
 7401W        W79017   2.593  28.921  10.719
 7402W        W79018  12.188  22.521   3.621
 7403W        W79019  33.135  24.767  14.355
 7404W        W79020  18.649   6.964  12.530
 7405W        W79021  18.807  15.639  10.186
 7406W        W79022  41.195  11.098   4.075
 7407W        W79023  42.741  28.820   2.452
 7408W        W79024  37.916  22.479  14.730
 7409W        W79025   2.981  15.586   3.721
 7410W        W79026  22.526  44.326  12.910
 7411W        W79027   9.067  11.211   1.288
 7412W        W79028   7.519  32.024  14.825
 7413W        W79029  14.305  26.934  12.921
 7414W        W79030   0.471  17.655   0.392
 7415W        W79031  43.407  38.962   5.187
 7416W        W79032  37.766  28.212   3.206
 7417W        W79033  12.921  31.089  14.422
 7418W        W79034  34.085  35.523   0.424
 7419W        W79035  34.136  25.365  11.488
 7420W        W79036  30.961  23.782  10.752
 7421W        W79037  17.075  10.898  10.686
 7422W        W79038  27.640  26.533  11.639
 7423W        W79039  14.980  43.937   1.444
 7424W        W79040  10.819  23.923   3.250
 7425W        W79041   4.781  40.893  11.568
 7426W        W79042  19.738   4.180  13.898
 7427W        W79043  29.881  43.161  12.474
 7428W        W79044  11.909  42.532  14.448
 7429W        W79045  10.257  17.978   4.166
 7430W        W79046   1.403  43.101  10.517
 7431W        W79047  38.948  11.586  14.965
 7432W        W79048  38.061  36.538   4.898
 7433W        W79049  24.731  36.881   4.674
 7434W        W79050   4.776  10.582   2.386
 7435W        W79051  42.952  27.974  14.489
 7436W        W79052  16.744  43.465  14.226
 7437W        W79053  43.782  35.894   2.643
 7438W        W79054  14.081  36.358  12.879
 7439W        W79055  37.352  16.790   0.401
 7440W        W79056  28.160  29.198   3.631
 7441W        W79057  36.256   3.118  11.635
 7442W        W79058  36.428  20.316   0.161
 7443W        W79059  34.667  27.038   4.762
 7444W        W79060   0.539   9.209  13.913
 7445W        W79061  33.505  11.451   3.300
 7446W        W79062  29.603  18.532  13.005
 7447W        W79063  10.605  16.671  13.523
 7448W        W79064  28.731  12.204   2.656
 7449W        W79065  24.790  42.633   2.682
 7450W        W79066  36.138  27.052  11.109
 7451W        W79067   4.358  30.448  13.858
 7452W        W79068  24.285  17.191  11.480
 7453W        W79069   8.738  16.117   3.712
 7454W        W79070   2.415  12.203   4.562
 7455W        W79071  28.527  24.569   2.110
 7456W        W79072  28.406  33.403  13.008
 7457W        W79073  18.297   2.668   4.151
 7458W        W79074  10.434   3.959   0.395
 7459W        W79075  25.559  27.917  13.920
 7460W        W79076  30.240  26.038   1.204
 7461W        W79077   2.662  27.181  13.813
 7462W        W79078   4.231  25.930   2.781
 7463W        W79079  15.003  16.377   0.953
 7464W        W79080  17.317  14.670  12.413
 7465W        W79081  27.535  40.591   1.920
 7466W        W79082   1.163   1.332   2.609
 7467W        W79083   8.365   4.886   4.873
 7468W        W79084  20.551  23.190  13.027
 7469W        W79085  25.466  21.100   4.073
 7470W        W79086  34.558  37.091  13.523
 7471W        W79087  35.330   8.527  11.908
 7472W        W79088  25.524   1.914   2.154
 7473W        W79089  41.775  17.075   4.152
 7474W        W79090  39.578   6.779   2.668
 7475W        W79091  10.648  39.043   1.159
 7476W        W79092   0.120  16.756  14.865
 7477W        W79093  43.975  27.793  11.254
 7478W        W79094   9.456   6.342   1.364
 7479W        W79095  15.570  22.367   2.238
 7480W        W79096  44.745  20.997   3.559
 7481W        W79097  11.295  17.188   1.389
 7482W        W79098  37.995   0.273   1.412
 7483W        W79099   7.225  26.752  12.802
 7484W        W79100   7.833  40.248   3.327
 7485W        W79101  34.394  24.743   3.975
 7486W        W79102  18.326   7.308   0.668
 7487W        W79103   9.170  10.627   0.860
 7488W        W79104  18.437   3.795   2.426
 7489W        W79105  11.109  21.590   1.375
 7490W        W79106  38.649  16.254  11.998
 7491W        W79107  16.642   4.756   1.931
 7492W        W79108   3.907  43.985   4.174
 7493W        W79109  17.565  29.504   1.938
 7494W        W79110  43.840  11.311   2.546
 7495W        W79111   6.831  28.960  14.304
 7496W        W79112  20.773  14.345  13.047
 7497W        W79113  10.647  23.413   1.296
 7498W        W79114  44.824  15.243  13.933
 7499W        W79115   4.751  19.545   3.170
 7500W        W79116   2.456  43.498   3.716
 7501W        W79117  27.886  15.820   3.733
 7502W        W79118  11.684   7.364  10.695
 7503W        W79119   7.880  34.485  13.355
 7504W        W79120  43.105   8.224  14.421
 7505W        W79121  18.220  28.947   3.203
 7506W        W79122  43.384  29.549   3.753
 7507W        W79123   7.901  25.897  11.118
 7508W        W79124  29.929  31.257   2.783
 7509W        W79125  44.246  24.328   1.898
 7510W        W79126  16.551  18.327   3.790
 7511W        W79127  42.354  20.215  12.046
 7512W        W79128  44.334  28.154  13.012
 7513W        W79129  41.463  18.447  13.033
 7514W        W79130   4.222  25.666   4.857
 7515W        W79131   6.348   9.616  10.675
 7516W        W79132  25.573  38.213   2.164
 7517W        W79133  16.743   4.810  14.705
 7518W        W79134  21.818  30.831  11.202
 7519W        W79135  32.880  10.316  10.447
 7520W        W79136  40.913   9.137  12.635
 7521W        W79137  30.448   6.402  12.503
 7522W        W79138  15.841  11.840   1.693
 7523W        W79139  11.896  39.789  14.860
 7524W        W79140  37.586  20.148   2.380
 7525W        W79141   9.022  11.314   3.698
 7526W        W79142  22.432  18.241  11.908
 7527W        W79143  40.484  34.096   4.068
 7528W        W79144   5.544   7.114   4.987
 7529W        W79145   2.664   0.430   0.945
 7530W        W79146  14.426  37.136   4.502
 7531W        W79147  16.740   6.218   3.759
 7532W        W79148  41.490  39.624   3.776
 7533W        W79149  39.355   8.692  13.393
 7534W        W79150  18.509  44.858   1.023
 7535W        W79151  34.465  22.144   1.898
 7536W        W79152   2.940  19.230   4.673
 7537W        W79153  25.746  41.967   1.864
 7538W        W79154  33.002  29.389   0.954
 7539W        W79155  39.359  26.188   3.133
 7540W        W79156  40.289   9.316   0.518
 7541W        W79157  35.161  17.523  11.116
 7542W        W79158  16.584  35.912   4.714
 7543W        W79159  33.336  32.420   3.147
 7544W        W79160  19.253  41.471  12.363
 7545W        W79161  14.545  32.552  11.406
 7546W        W79162  14.578  27.050  10.465
 7547W        W79163  44.038  18.401   3.898
 7548W        W79164   8.144  17.359  12.470
 7549W        W79165  40.571  35.688  12.605
 7550W        W79166   2.742  22.191  13.343
 7551W        W79167  21.691  11.426   0.340
 7552W        W79168  22.043  41.457   3.733
 7553W        W79169  40.231  17.028   2.268
 7554W        W79170   0.861  30.435   4.177
 7555W        W79171  35.319  25.116   2.203
 7556W        W79172  42.875  27.875   4.214
 7557W        W79173   4.594  40.446   0.410
 7558W        W79174   0.278  43.005   4.649
 7559W        W79175   6.266   4.769  14.486
 7560W        W79176  10.372  12.026   4.772
 7561W        W79177  41.007  40.871   0.969
 7562W        W79178  17.822  18.584   0.747
 7563W        W79179  29.192  32.347  11.707
 7564W        W79180  12.693  29.340  13.835
 7565W        W79181  25.746  36.587   2.186
 7566W        W79182   4.510   6.418   1.864
 7567W        W79183  24.049  13.806  11.893
 7568W        W79184   6.373  26.410   2.745
 7569W        W79185   3.783  31.731  11.653
 7570W        W79186  40.357  27.847  12.102
 7571W        W79187  17.475  29.524  14.934
 7572W        W79188  15.154  36.478   3.588
 7573W        W79189  10.944   7.869  13.486
 7574W        W79190  23.126  39.495  12.415
 7575W        W79191  28.115  22.545  11.395
 7576W        W79192  43.305  36.315   5.044
 7577W        W79193  33.387  25.495   3.250
 7578W        W79194  21.472  34.695  10.196
 7579W        W79195  42.348  25.360  13.982
 7580W        W79196  36.863   5.614  11.164
 7581W        W79197  35.529   9.623  10.588
 7582W        W79198  19.162  17.227   3.966
 7583W        W79199  37.443  16.802  11.617
 7584W        W79200   0.943  37.365  10.612
 7585W        W79201  36.506   9.636   0.427
 7586W        W79202  28.960  29.128   1.287
 7587W        W79203   0.568  40.745  11.642
 7588W        W79204  43.057  25.431   0.651
 7589W        W79205  29.191  25.066   2.685
 7590W        W79206  33.123  18.649  13.750
 7591W        W79207  11.138  38.924   1.237
 7592W        W79208  19.263  15.066   0.534
 7593W        W79209  30.001  13.790   3.182
 7594W        W79210  17.568  12.537   2.266
 7595W        W79211  43.924  27.765  13.088
 7596W        W79212  11.710   3.795   4.956
 7597W        W79213  42.465  18.776  10.610
 7598W        W79214  38.481  22.459   4.469
 7599W        W79215  43.350   0.580   3.402
 7600W        W79216   3.450  41.755  13.495
 7601W        W79217   0.813  43.407  14.318
 7602W        W79218  24.968  40.098  10.768
 7603W        W79219  38.804  20.479  12.942
 7604W        W79220   7.427  11.571   0.262
 7605W        W79221  43.911   7.561   3.645
 7606W        W79222  39.795   9.841  10.913
 7607W        W79223  25.745   6.460  12.471
 7608W        W79224  27.242  41.477  11.914
 7609W        W79225  26.622  19.268  14.508
 7610W        W79226   4.336  44.363   4.630
 7611W        W79227  30.930   4.732   0.928
 7612W        W79228  43.533  25.979  11.500
 7613W        W79229  20.805  31.405  14.869
 7614W        W79230  19.193   6.825  14.966
 7615W        W79231  27.564  12.920   2.444
 7616W        W79232   8.058  14.635   2.712
 7617W        W79233  10.177   9.956  10.651
 7618W        W79234  30.431  14.431  12.644
 7619W        W79235  28.966  15.019   3.671
 7620W        W79236  27.495  17.313   2.131
 7621W        W79237  42.174  31.023   3.393
 7622W        W79238   2.529  32.931   0.858
 7623W        W79239  22.500  31.695  10.269
 7624W        W79240  24.146  17.712  14.422
 7625W        W79241  43.765  10.429   0.975
 7626W        W79242  40.962  32.186   1.269
 7627W        W79243  28.191  44.593   2.813
 7628W        W79244  38.311  34.172   3.208
 7629W        W79245  31.866  40.481  13.450
 7630W        W79246  30.585  11.186   0.283
 7631W        W79247  40.025  23.616  10.710
 7632W        W79248   1.791  29.992  13.508
 7633W        W79249  17.522  18.582   1.198
 7634W        W79250  24.778  25.617  14.498
 7635W        W79251  13.918  29.470  14.395
 7636W        W79252  37.903  14.979  12.859
 7637W        W79253  29.070   8.938  13.973
 7638W        W79254   3.766   6.666   0.904
 7639W        W79255  15.616  31.998  14.971
 7640W        W79256  24.495  15.297   0.486
 7641W        W79257   1.440  44.368  14.929
 7642W        W79258  29.277  28.152  10.307
 7643W        W79259  30.260   1.756  11.048
 7644W        W79260  17.360  27.738  10.592
 7645W        W79261   3.901  22.690   2.834
 7646W        W79262  39.401  21.820  13.033
 7647W        W79263  42.387  19.251  13.735
 7648W        W79264  24.995  24.279  11.716
 7649W        W79265  36.664  42.925  11.839
 7650W        W79266  33.539  20.036   2.602
 7651W        W79267  12.797  15.010  11.579
 7652W        W79268   2.439  27.757  14.780
 7653W        W79269  14.826  30.623  14.359
 7654W        W79270  20.228   1.018  14.326
 7655W        W79271  18.030  41.355  10.265
 7656W        W79272  22.287  10.607  11.996
 7657W        W79273  39.585   3.370  11.852
 7658W        W79274  33.272   1.577  11.256
 7659W        W79275  13.702   9.431   0.367
 7660W        W79276  24.037  20.175   1.626
 7661W        W79277  39.454   7.199  14.526
 7662W        W79278   4.360  34.306   3.707
 7663W        W79279  29.152   3.304   1.044
 7664W        W79280  21.085   9.113   2.120
 7665W        W79281  19.705  43.340   3.147
 7666W        W79282  38.537  22.833   4.127
 7667W        W79283   2.929  27.141  11.988
 7668W        W79284  27.755  39.573  12.161
 7669W        W79285  16.861   2.317   2.740
 7670W        W79286  13.650  21.788  12.191
 7671W        W79287  17.106   6.309   1.380
 7672W        W79288   0.462   3.764   2.463
 7673W        W79289   1.288  18.092  12.398
 7674W        W79290   2.823  29.395  10.751
 7675W        W79291  23.748  21.780   3.096
 7676W        W79292   4.815   8.184   4.712
 7677W        W79293   5.879  21.257   4.392
 7678W        W79294  28.138  32.372   3.946
 7679W        W79295   5.199   1.431   0.131
 7680W        W79296  38.583  28.008   3.802
 7681W        W79297  15.332  42.530   2.726
 7682W        W79298  42.994  11.222   0.434
 7683W        W79299  18.266  33.069   4.589
 7684W        W79300  40.302   9.756  10.974
 7685W        W79301  10.785  43.149   3.677
 7686W        W79302  40.960   9.974  14.450
 7687W        W79303  31.217  16.175  11.967
 7688W        W79304  22.565  29.646   3.608
 7689W        W79305  11.781  28.654   2.771
 7690W        W79306  35.485  22.938   1.803
 7691W        W79307  22.428  21.503   3.109
 7692W        W79308  35.881  44.738   1.377
 7693W        W79309  20.199  32.008   0.845
 7694W        W79310  15.269  35.318   3.750
 7695W        W79311  41.882  24.240  11.068
 7696W        W79312  38.076  15.729  14.081
 7697W        W79313  11.959  27.264  14.856
 7698W        W79314  12.030   5.402   1.999
 7699W        W79315   5.951  13.849   1.914
 7700W        W79316  17.298   6.672  14.976
 7701W        W79317   9.917  26.592   4.607
 7702W        W79318  28.435   3.008   1.330
 7703W        W79319  33.792  18.106  10.625
 7704W        W79320   8.767  25.507   0.899
 7705W        W79321  19.951  34.494  11.177
 7706W        W79322   5.312  36.007   2.947
 7707W        W79323  27.572   9.638   3.052
 7708W        W79324  18.257  26.174   4.762
 7709W        W79325  17.138  22.303   1.264
 7710W        W79326   6.644   6.103   0.297
 7711W        W79327  38.434   1.438   4.643
 7712W        W79328  11.648  20.318  11.667
 7713W        W79329  32.421  22.933   4.467
 7714W        W79330   9.123  36.514  12.428
 7715W        W79331   1.252   8.300  14.364
 7716W        W79332  24.909  40.905  14.538
 7717W        W79333   9.125   1.028   1.686
 7718W        W79334   7.360   5.322  10.931
 7719W        W79335  43.016  29.908   3.829
 7720W        W79336   8.839   3.110  10.570
 7721W        W79337  12.235  19.130  11.104
 7722W        W79338   1.735  27.182   2.485
 7723W        W79339  36.975   1.483  11.375
 7724W        W79340  43.245  33.582  14.800
 7725W        W79341  17.474  33.013  13.384
 7726W        W79342  15.691  37.546   4.398
 7727W        W79343  28.502  41.382  10.525
 7728W        W79344  37.639  31.585  13.086
 7729W        W79345  25.110   9.473   2.746
 7730W        W79346  22.268   3.753   4.106
 7731W        W79347   3.419  28.539   0.927
 7732W        W79348   1.677  43.609  12.813
 7733W        W79349  35.358  12.161  14.973
 7734W        W79350  10.802   6.087  11.897
 7735W        W79351  23.825  24.729  11.082
 7736W        W79352  42.304   0.659   3.235
 7737W        W79353  44.921  20.059  11.218
 7738W        W79354  36.708   3.679   4.275
 7739W        W79355  19.561   3.315  13.103
 7740W        W79356  33.458  20.765  13.432
 7741W        W79357  12.784   8.467   0.295
 7742W        W79358  16.271  26.615   0.758
 7743W        W79359  31.880  28.430   3.453
 7744W        W79360  39.948   8.680  14.893
 7745W        W79361  13.771   8.692  13.890
 7746W        W79362  13.983   9.095   3.420
 7747W        W79363  33.005  41.857   4.717
 7748W        W79364  24.538  25.924   1.545
 7749W        W79365  36.466  10.842  12.610
 7750W        W79366  23.753  12.562   2.342
 7751W        W79367   0.164   3.711   4.619
 7752W        W79368  35.946  15.990  12.616
 7753W        W79369  29.464  44.897  11.731
 7754W        W79370  42.055   2.394   4.213
 7755W        W79371   3.891   9.769  14.832
 7756W        W79372  28.725  28.587  11.124
 7757W        W79373  24.607  20.091   4.382
 7758W        W79374  43.897  20.925   4.271
 7759W        W79375   0.988   5.196   0.400
 7760W        W79376  20.263  11.758  12.984
 7761W        W79377  36.440  10.378  14.360
 7762W        W79378  29.572  34.951   0.530
 7763W        W79379   7.364   2.875  12.318
 7764W        W79380  12.878  43.451  10.728
 7765W        W79381   8.221  44.398  14.967
 7766W        W79382  26.035  34.041  14.780
 7767W        W79383  20.379  42.895  10.102
 7768W        W79384  14.550  32.978   3.131
 7769W        W79385  30.884  31.737  14.831
 7770W        W79386  13.859  31.890   2.581
 7771W        W79387  21.204   0.830   1.257
 7772W        W79388  26.940  11.329   3.834
 7773W        W79389   1.501  23.270   1.839
 7774W        W79390  38.832  17.066  11.965
 7775W        W79391  12.529  29.411   4.340
 7776W        W79392  12.141  37.134   1.186
 7777W        W79393  11.222  25.497   2.837
 7778W        W79394  19.101  29.123   4.908
 7779W        W79395  30.588  22.827   0.166
 7780W        W79396  43.323  15.838   4.685
 7781W        W79397  10.711  15.243   0.720
 7782W        W79398  21.554  14.371   4.110
 7783W        W79399   8.523   1.365  13.572
 7784W        W79400   9.876   4.975  10.642
 7785W        W79401  31.546  36.436  13.388
 7786W        W79402  25.571  26.641  12.740
 7787W        W79403  10.603  26.132   0.944
 7788W        W79404  19.187  17.118  11.528
 7789W        W79405  35.423  42.736  14.484
 7790W        W79406  25.086   8.592  14.912
 7791W        W79407   7.973  37.572   1.852
 7792W        W79408  41.394  34.828  10.946
 7793W        W79409  31.874   6.572  11.964
 7794W        W79410  20.653  27.686  11.545
 7795W        W79411   9.624  13.094  12.933
 7796W        W79412  17.165  36.318  14.683
 7797W        W79413   4.248  32.484  14.791
 7798W        W79414  16.121   7.778  12.311
 7799W        W79415  30.444  38.067   1.656
 7800W        W79416  40.940  21.741  14.864
 7801W        W79417  18.842  13.652  11.125
 7802W        W79418  11.014   6.708  12.566
 7803W        W79419  24.004  25.557   3.717
 7804W        W79420   5.321  27.599  11.146
 7805W        W79421  18.772  22.232   0.349
 7806W        W79422  36.230   9.141  11.025
 7807W        W79423  18.237   3.756  13.519
 7808W        W79424  15.171  14.021   0.332
 7809W        W79425  37.367  15.075   4.994
 7810W        W79426  37.299  18.691   4.168
 7811W        W79427  13.964  12.806   3.259
 7812W        W79428  42.088   0.468  13.947
 7813W        W79429  30.113  32.927  10.468
 7814W        W79430  38.366   4.873  11.654
 7815W        W79431  22.378  23.693  12.095
 7816W        W79432  30.185  19.436  10.782
 7817W        W79433   9.408  13.677   0.774
 7818W        W79434  14.936  29.026   4.680
 7819W        W79435   9.932  35.930  14.778
 7820W        W79436  43.335  15.231   1.854
 7821W        W79437  44.178  29.262  11.891
 7822W        W79438   6.676  31.907   2.014
 7823W        W79439  29.487  13.590   2.095
 7824W        W79440   7.294  36.906  14.664
 7825W        W79441   4.800  44.111  11.930
 7826W        W79442  11.646   9.847   3.219
 7827W        W79443  43.529   9.817  11.626
 7828W        W79444  19.880  42.476   2.140
 7829W        W79445  37.985  30.846  11.575
 7830W        W79446  37.884   5.475   0.756
 7831W        W79447  38.377   9.253  14.504
 7832W        W79448   5.360  40.023  14.434
 7833W        W79449   3.278  15.350   2.359
 7834W        W79450  20.971   2.253   2.383
 7835W        W79451   1.064  38.265   4.582
 7836W        W79452  24.594  14.610  11.225
 7837W        W79453  16.929  12.722   1.323
 7838W        W79454  32.361  33.232   1.961
 7839W        W79455  35.465  28.113  10.557
 7840W        W79456  24.511  39.543   4.893
 7841W        W79457  29.854   4.729   4.247
 7842W        W79458   4.069   9.922   4.715
 7843W        W79459  37.982  17.004  12.480
 7844W        W79460  42.434   1.001  11.810
 7845W        W79461  42.971  42.551   3.274
 7846W        W79462   6.401  26.147   0.554
 7847W        W79463  10.891  43.326   0.940
 7848W        W79464  10.601   6.982   0.216
 7849W        W79465   2.691  11.609   3.215
 7850W        W79466  19.375  35.995   1.690
 7851W        W79467  35.201  41.025   3.052
 7852W        W79468   8.368  20.614  13.002
 7853W        W79469  40.375  31.082   0.954
 7854W        W79470  15.557  33.197   0.800
 7855W        W79471  25.182  12.864  11.981
 7856W        W79472  27.493  40.267  13.431
 7857W        W79473  20.197  13.107  11.195
 7858W        W79474   0.062  42.205  13.242
 7859W        W79475  21.024  36.051   4.520
 7860W        W79476  21.568  30.442   3.808
 7861W        W79477  35.098  11.237   1.971
 7862W        W79478  13.334  29.654   0.926
 7863W        W79479  14.692  21.241   0.868
 7864W        W79480  20.065  42.484  11.457
 7865W        W79481  42.398  26.937   4.269
 7866W        W79482   4.477  26.062  14.871
 7867W        W79483   5.462  14.777   0.712
 7868W        W79484  17.696  29.209   2.367
 7869W        W79485   5.973  39.554   2.590
 7870W        W79486   0.480  38.926   3.658
 7871W        W79487   4.789   3.742  11.105
 7872W        W79488  26.895   5.930  14.917
 7873W        W79489  20.740  13.881   2.201
 7874W        W79490  13.154   5.053  10.698
 7875W        W79491  11.657  23.044  11.162
 7876W        W79492   9.814  19.367  13.686
 7877W        W79493  33.785   1.339  13.507
 7878W        W79494   6.772  27.851   1.733
 7879W        W79495  34.427   9.212  12.516
 7880W        W79496  30.907  28.598  11.584
 7881W        W79497   9.802  15.350  14.444
 7882W        W79498   5.792   4.135  13.956
 7883W        W79499  23.720   8.817  12.451
 7884W        W79500  40.236  10.736  11.175
 7885W        W79501  11.125  43.476   4.426
 7886W        W79502  14.273  13.214   1.944
 7887W        W79503  16.129   1.708   0.351
 7888W        W79504  34.048  26.724  13.333
 7889W        W79505  38.995   8.718   4.268
 7890W        W79506  25.775  19.729   3.590
 7891W        W79507  44.556  19.745  10.325
 7892W        W79508  20.140  37.346   4.682
 7893W        W79509  43.504   9.402   0.379
 7894W        W79510   7.159  29.070   2.759
 7895W        W79511  16.177   6.140  10.074
 7896W        W79512  26.420  16.074   4.147
 7897W        W79513  22.124  14.770  12.817
 7898W        W79514  27.282   7.788  12.405
 7899W        W79515  16.653  18.128   5.215
 7900W        W79516   6.294  29.148   0.721
 7901W        W79517  15.857   2.840   4.107
 7902W        W79518  35.932  22.755   4.558
 7903W        W79519  17.858   5.246  11.105
 7904W        W79520   6.702  19.406   1.468
 7905W        W79521  18.276   5.794  11.497
 7906W        W79522  22.592  11.653  12.196
 7907W        W79523  29.681   4.048   4.258
 7908W        W79524  25.748  43.987  11.073
 7909W        W79525  40.024   4.986   3.694
 7910W        W79526   9.310  34.213   2.801
 7911W        W79527  32.126  41.499   1.348
 7912W        W79528  37.913   5.918   2.254
 7913W        W79529   5.846  44.401   3.533
 7914W        W79530  41.227  17.654   2.210
 7915W        W79531  13.602  35.400   2.640
 7916W        W79532  19.645  39.396  11.385
 7917W        W79533  17.061  42.421   2.734
 7918W        W79534  26.145  18.813  14.198
 7919W        W79535  37.629   6.816  11.735
 7920W        W79536   6.684  38.271  11.682
 7921W        W79537  39.162  32.162  11.452
 7922W        W79538  10.406  19.373   1.679
 7923W        W79539  31.582   0.265  10.108
 7924W        W79540  25.439  30.979   2.626
 7925W        W79541  22.703  30.431   1.428
 7926W        W79542  32.150  32.418  13.661
 7927W        W79543  37.743   6.701   1.219
 7928W        W79544  28.064  20.004   2.782
 7929W        W79545  26.249  10.259   0.144
 7930W        W79546   9.814  24.505   4.347
 7931W        W79547  42.457   7.083   3.710
 7932W        W79548  28.610  44.872   3.580
 7933W        W79549  15.899  11.658  12.569
 7934W        W79550  31.737  38.379   0.373
 7935W        W79551  43.241  17.620  14.528
 7936W        W79552  24.595  42.528   0.613
 7937W        W79553  41.653  42.961   5.089
 7938W        W79554  31.503  30.302   1.323
 7939W        W79555   3.290  25.214  10.691
 7940W        W79556  43.813   9.257  14.993
 7941W        W79557   4.756  21.596   3.595
 7942W        W79558  32.689  28.087   0.572
 7943W        W79559   3.798  10.243   2.886
 7944W        W79560  28.290   9.826  13.521
 7945W        W79561  39.345  10.477  10.950
 7946W        W79562  21.076   2.631  13.970
 7947W        W79563   9.797   9.226  12.221
 7948W        W79564   3.319   7.569   3.140
 7949W        W79565  27.315   8.718  10.744
 7950W        W79566   5.304  39.426   0.851
 7951W        W79567  12.131  26.687   0.361
 7952W        W79568  29.617  26.918   3.578
 7953W        W79569  36.113  21.675  13.677
 7954W        W79570  29.685  34.708   5.115
 7955W        W79571  26.717  18.553  13.952
 7956W        W79572  20.427  16.311   1.989
 7957W        W79573  31.596  27.155   0.346
 7958W        W79574   3.838  10.894   3.701
 7959W        W79575  14.743  15.615   4.609
 7960W        W79576  27.504  22.550  14.406
 7961W        W79577   3.306  18.786   2.348
 7962W        W79578   0.913  24.941   1.489
 7963W        W79579  12.448  30.604   2.390
 7964W        W79580  21.157  41.276   3.160
 7965W        W79581   1.252  24.958   9.823
 7966W        W79582  26.062   2.978  12.871
 7967W        W79583   7.442  42.821   3.378
 7968W        W79584   0.360  26.062   3.826
 7969W        W79585  40.834  17.154   4.128
 7970W        W79586   2.362  35.056   3.794
 7971W        W79587  25.715  41.525   2.200
 7972W        W79588  15.291  19.125   1.002
 7973W        W79589   9.461   3.429   5.170
 7974W        W79590   6.875   0.788   3.944
 7975W        W79591   8.671  22.393  14.972
 7976W        W79592  40.670  20.537  10.369
 7977W        W79593  42.663  14.363  10.941
 7978W        W79594   8.718  43.967   0.654
 7979W        W79595   6.832  44.034   4.462
 7980W        W79596  14.290  44.534  13.968
 7981W        W79597  28.884  43.362   4.798
 7982W        W79598  27.684  41.164  13.693
 7983W        W79599  14.218  39.439  10.650
 7984W        W79600  36.098  29.699   2.843
 7985W        W79601  36.302   3.939   5.253
 7986W        W79602  31.148  27.674   1.148
 7987W        W79603  15.335  19.433   5.074
 7988W        W79604  19.280  28.616   2.206
 7989W        W79605  24.630  33.741   3.893
 7990W        W79606  33.614  25.142  14.826
 7991W        W79607  44.714  20.089   3.357
 7992W        W79608  33.978  18.661   1.915
 7993W        W79609  18.258  40.552  12.552
 7994W        W79610   3.824  37.849  13.483
 7995W        W79611  26.719  15.628  14.330
 7996W        W79612  11.355  30.720   1.274
 7997W        W79613  26.062  40.753  13.128
 7998W        W79614   5.350   0.075   3.340
 7999W        W79615  18.133   1.481  11.639
 8000W        W79616   5.319  33.366   1.755
 8001W        W79617  17.716  20.002  13.624
 8002W        W79618  28.334  30.481  11.495
 8003W        W79619  17.879  12.600   0.280
 8004W        W79620   2.829  28.118   1.814
 8005W        W79621  39.448  29.316   4.375
 8006W        W79622  17.798   5.884  12.075
 8007W        W79623  40.505   6.900  11.588
 8008W        W79624  15.335  28.481  13.879
 8009W        W79625  27.953   3.633   3.299
 8010W        W79626  22.987   6.444   1.018
 8011W        W79627   9.827  35.583   2.183
 8012W        W79628  27.463  39.475   3.775
 8013W        W79629  11.860   5.307  13.379
 8014W        W79630  18.944  38.467  10.896
 8015W        W79631   7.979  33.990  13.203
 8016W        W79632  20.448   6.166   1.693
 8017W        W79633   0.813  43.801   0.896
 8018W        W79634   7.967  28.114   0.382
 8019W        W79635   5.846  37.407   1.981
 8020W        W79636   5.863  21.457  10.935
 8021W        W79637  36.016   2.222  10.960
 8022W        W79638  16.745  13.423  12.776
 8023W        W79639  27.686   4.240  12.649
 8024W        W79640   0.967   5.777   3.191
 8025W        W79641  31.232  16.503  14.199
 8026W        W79642  25.752  24.077   1.080
 8027W        W79643  29.379  25.653   1.692
 8028W        W79644  38.411  19.179  12.386
 8029W        W79645  12.332  19.653   3.654
 8030W        W79646  13.398  11.690   4.393
 8031W        W79647   6.738   3.737   1.022
 8032W        W79648  23.443  31.490   4.698
 8033W        W79649  17.946  33.785  10.671
 8034W        W79650   1.925  33.771  14.524
 8035W        W79651   1.860   6.676   0.489
 8036W        W79652  12.196   3.192  13.923
 8037W        W79653   2.482  43.285  12.451
 8038W        W79654  38.572   3.506  11.951
 8039W        W79655  27.205   2.908   5.083
 8040W        W79656  44.517  41.474   1.521
 8041W        W79657  30.115  12.708   1.344
 8042W        W79658  31.961  37.661  10.464
 8043W        W79659  41.585  41.030  10.733
 8044W        W79660  10.158  40.770   0.958
 8045W        W79661  27.664  30.480  13.594
 8046W        W79662  43.798  10.590   3.628
 8047W        W79663   2.197  26.669  11.443
 8048W        W79664  16.981  31.618  10.701
 8049W        W79665  18.493  27.042  10.768
 8050W        W79666  16.830  40.275  11.741
 8051W        W79667  30.591  34.980   4.068
 8052W        W79668  18.732  14.793  14.928
 8053W        W79669  15.262   2.273  11.526
 8054W        W79670   1.430   4.997  12.183
 8055W        W79671   3.074  29.262   4.951
 8056W        W79672   7.386  22.369  14.781
 8057W        W79673  18.364  23.677   0.810
 8058W        W79674  33.820  19.007   3.260
 8059W        W79675  38.996  14.381   3.624
 8060W        W79676  23.252  25.013   0.804
 8061W        W79677  23.351  15.609  12.281
 8062W        W79678  41.365  35.882  11.966
 8063W        W79679   2.917  13.654  10.574
 8064W        W79680   0.701  44.911  14.083
 8065W        W79681  26.982  33.945  14.195
 8066W        W79682  23.035  20.616   3.767
 8067W        W79683  26.315  35.330   0.495
 8068W        W79684  41.748  13.099  11.227
 8069W        W79685  14.338  20.237   5.324
 8070W        W79686  32.346   0.049  12.532
 8071W        W79687  15.248   6.781   4.602
 8072W        W79688  36.173  21.604   2.302
 8073W        W79689  25.522  39.633   2.323
 8074W        W79690  43.400   5.278  12.466
 8075W        W79691  20.689  41.042   1.670
 8076W        W79692  38.933   9.275   4.299
 8077W        W79693  33.852  41.593  12.137
 8078W        W79694  37.792  20.196   1.761
 8079W        W79695   0.418  30.901   3.123
 8080W        W79696  30.782   6.419   2.814
 8081W        W79697  27.052  44.502   4.729
 8082W        W79698  16.149  15.834   0.509
 8083W        W79699  15.028  34.881   1.715
 8084W        W79700  12.411  36.452   4.551
 8085W        W79701  13.759   3.661   4.210
 8086W        W79702  16.297  29.152   3.221
 8087W        W79703  33.529  27.720   4.578
 8088W        W79704  43.082  10.657   2.181
 8089W        W79705  36.948  23.031   2.764
 8090W        W79706  34.464   3.837   0.249
 8091W        W79707  33.437  27.116   1.254
 8092W        W79708   8.709  20.949   3.205
 8093W        W79709   2.845  39.323   4.635
 8094W        W79710  20.054  41.484   2.306
 8095W        W79711  25.277   3.224   3.646
 8096W        W79712  35.801  19.293  12.552
 8097W        W79713  29.163   7.416  13.894
 8098W        W79714  25.435   8.596  14.268
 8099W        W79715  37.373  44.861   2.118
 8100W        W79716  17.519  32.615   2.887
 8101W        W79717  31.269  40.616  10.398
 8102W        W79718  42.708  27.643   2.776
 8103W        W79719  43.383  36.264   3.394
 8104W        W79720   1.326  24.923  13.941
 8105W        W79721  24.078  35.937   4.033
 8106W        W79722  34.703  31.647  13.345
 8107W        W79723  37.409  16.646  12.494
 8108W        W79724  13.533   7.144   1.414
 8109W        W79725  12.578  18.851  11.701
 8110W        W79726  43.198  38.496   5.230
 8111W        W79727  39.757  10.628   4.730
 8112W        W79728  38.413  14.197   4.180
 8113W        W79729  27.913   0.122  11.298
 8114W        W79730  42.996   4.791  13.511
 8115W        W79731  31.810  16.190   2.332
 8116W        W79732  23.664  10.690  12.550
 8117W        W79733   3.154  29.199   2.789
 8118W        W79734  31.180  25.921   3.662
 8119W        W79735  42.608  28.580  11.581
 8120W        W79736  24.960  18.084  14.334
 8121W        W79737  37.427  42.322   1.011
 8122W        W79738   5.975  23.664  13.421
 8123W        W79739  13.061   8.180   4.093
 8124W        W79740  13.080  18.998  14.779
 8125W        W79741  18.120  10.325   0.769
 8126W        W79742   9.401  17.304   2.305
 8127W        W79743   4.244   8.893  13.018
 8128W        W79744  34.135  14.313  13.002
 8129W        W79745  30.542  32.096  10.596
 8130W        W79746  12.306  37.971   2.759
 8131W        W79747  40.426   1.718  11.142
 8132W        W79748   3.737  20.492  11.961
 8133W        W79749  38.860  12.190  14.295
 8134W        W79750   4.169  35.561  12.757
 8135W        W79751  32.581   6.952   2.792
 8136W        W79752  44.748  23.123   3.110
 8137W        W79753  27.514  44.073   3.672
 8138W        W79754   6.822  12.659   4.114
 8139W        W79755  37.510  41.097  13.614
 8140W        W79756   8.539   7.310  13.071
 8141W        W79757  43.401  14.583   1.252
 8142W        W79758   9.812  34.601  13.086
 8143W        W79759   9.109   5.889  11.500
 8144W        W79760  15.995  30.620   3.198
 8145W        W79761  25.179   2.427   2.290
 8146W        W79762  14.923   3.187  10.235
 8147W        W79763  20.522  19.182   2.311
 8148W        W79764   2.442  16.363  14.786
 8149W        W79765  12.052  17.288   3.795
 8150W        W79766   4.125  40.692   4.579
 8151W        W79767  33.436  22.098   0.787
 8152W        W79768  34.973  22.775   4.773
 8153W        W79769   9.671  21.490   3.394
 8154W        W79770  39.037   3.604  14.527
 8155W        W79771  12.445  26.444  10.663
 8156W        W79772  26.389  44.758   0.902
 8157W        W79773  31.938  41.478  12.189
 8158W        W79774  29.399  39.344  10.725
 8159W        W79775  10.815   2.234  13.805
 8160W        W79776  43.349  34.006  13.837
 8161W        W79777  15.188  19.589  11.661
 8162W        W79778  44.053  39.581   0.988
 8163W        W79779   0.506  42.994  14.413
 8164W        W79780  40.533   7.225   2.411
 8165W        W79781  15.023  21.731   4.536
 8166W        W79782  18.153  20.256   3.663
 8167W        W79783  10.368  38.516   4.559
 8168W        W79784  27.142  33.956   4.541
 8169W        W79785  23.021   1.438   4.817
 8170W        W79786  23.132   7.236   3.613
 8171W        W79787   7.512  35.313  13.863
 8172W        W79788  15.652   9.455   1.629
 8173W        W79789  40.345  20.215   0.456
 8174W        W79790  26.302  34.236  13.345
 8175W        W79791  31.812   4.735   1.882
 8176W        W79792  20.653  38.689   4.858
 8177W        W79793   1.667   7.793   1.144
 8178W        W79794   1.715  24.188   4.483
 8179W        W79795  40.341  36.407   4.618
 8180W        W79796  11.733   8.165  11.610
 8181W        W79797  41.978  40.405   1.813
 8182W        W79798  29.645  32.898  13.003
 8183W        W79799  30.194  11.401   0.552
 8184W        W79800  33.866  18.462  12.411
 8185W        W79801  38.024  11.020   3.569
 8186W        W79802   7.894  39.149   3.235
 8187W        W79803  29.105  27.371   0.714
 8188W        W79804  23.592  20.078   0.711
 8189W        W79805   3.321  12.150   0.794
 8190W        W79806  14.308  37.648   4.622
 8191W        W79807   9.062   1.295   3.807
 8192W        W79808  14.614  37.605  10.721
 8193W        W79809  11.691  32.489   1.268
 8194W        W79810  10.591  37.420   3.188
 8195W        W79811  41.904  20.758   0.609
 8196W        W79812  39.810   0.905  11.254
 8197W        W79813  16.885  36.620   4.153
 8198W        W79814   2.006  17.391   4.632
 8199W        W79815  17.042  14.018  13.561
 8200W        W79816  29.089  38.463  13.821
 8201W        W79817  23.608  12.104   1.440
 8202W        W79818  32.569  38.598   4.575
 8203W        W79819  44.420  34.952  13.867
 8204W        W79820   9.370  41.258  12.236
 8205W        W79821  25.590  19.553  11.475
 8206W        W79822   2.769  20.169  11.604
 8207W        W79823  28.826  15.208  12.426
 8208W        W79824  38.466  40.495   0.688
 8209W        W79825  22.153  32.145  12.592
 8210W        W79826  14.783  34.644   3.359
 8211W        W79827  35.350   7.393   0.209
 8212W        W79828   1.571  30.214  13.094
 8213W        W79829  33.770  42.968  10.715
 8214W        W79830   2.730   4.763   2.827
 8215W        W79831  12.621  20.596   1.628
 8216W        W79832  44.419  30.638  13.508
 8217W        W79833   4.756  12.361   0.988
 8218W        W79834  22.905  32.850  14.333
 8219W        W79835  17.171  19.956  14.246
 8220W        W79836  43.807  34.365   4.659
 8221W        W79837  27.032  39.481   0.689
 8222W        W79838  23.126  40.036  14.973
 8223W        W79839  34.219   2.344   4.589
 8224W        W79840  17.978  23.901   1.836
 8225W        W79841   5.823  17.645  12.335
 8226W        W79842   3.258   3.247  14.082
 8227W        W79843  41.457   5.655   3.774
 8228W        W79844  27.663  30.993  13.505
 8229W        W79845  20.273   9.707   0.936
 8230W        W79846  29.668  22.661   4.618
 8231W        W79847  31.456  39.475  13.419
 8232W        W79848   5.838  18.807   0.496
 8233W        W79849  38.369  30.912  13.569
 8234W        W79850  39.761  15.083   3.715
 8235W        W79851  39.471  30.226   4.466
 8236W        W79852  13.248   7.340   2.674
 8237W        W79853  43.949  18.144   2.451
 8238W        W79854   9.595  29.079  12.060
 8239W        W79855  29.495  10.452   3.753
 8240W        W79856   8.954   7.794   2.100
 8241W        W79857  20.542  17.072  12.438
 8242W        W79858  42.854  30.811  14.913
 8243W        W79859   2.762  12.573  14.219
 8244W        W79860   2.490  28.731  12.473
 8245W        W79861  21.110   6.731   5.006
 8246W        W79862  15.758  17.232   3.048
 8247W        W79863  36.908  40.894   0.342
 8248W        W79864   9.378  42.966  12.940
 8249W        W79865  11.000   6.872  11.606
 8250W        W79866  25.099  25.586  12.642
 8251W        W79867  14.554  13.754   0.782
 8252W        W79868   3.159  12.784  10.640
 8253W        W79869  18.831  34.603   3.642
 8254W        W79870  27.419  25.634  12.064
 8255W        W79871  14.498  40.039   3.481
 8256W        W79872  18.068  36.524   1.798
 8257W        W79873  13.919  32.241  14.171
 8258W        W79874   2.091   0.806  14.270
 8259W        W79875  19.810  39.304  13.400
 8260W        W79876   9.881  19.520  13.163
 8261W        W79877  18.359  43.149   4.586
 8262W        W79878  14.909  38.018   4.649
 8263W        W79879  16.609  22.749  14.711
 8264W        W79880  41.190  43.314  11.047
 8265W        W79881  11.803  35.507  12.523
 8266W        W79882  19.658   3.426  11.623
 8267W        W79883  29.717  16.979  13.086
 8268W        W79884  20.395  19.494   5.037
 8269W        W79885  28.149  35.327   2.766
 8270W        W79886  27.469  20.143  13.634
 8271W        W79887  23.979   9.346  13.465
 8272W        W79888  24.021  13.660  14.913
 8273W        W79889   0.846  34.528   4.575
 8274W        W79890  22.685  34.950  13.750
 8275W        W79891  17.266   4.274   2.356
 8276W        W79892  34.999  44.743   0.224
 8277W        W79893  41.934  13.858  11.614
 8278W        W79894  41.527  12.554  12.929
 8279W        W79895  28.207   3.952  14.034
 8280W        W79896  11.383  24.998   2.762
 8281W        W79897  36.764   9.432  12.947
 8282W        W79898   9.590  34.230   3.917
 8283W        W79899  21.529  36.019   4.611
 8284W        W79900  36.367   9.185  14.942
 8285W        W79901  44.004  10.670   4.516
 8286W        W79902  23.214  40.896  10.841
 8287W        W79903  24.748  10.306  14.971
 8288W        W79904   7.167  21.137  10.710
 8289W        W79905  27.627   3.134  11.392
 8290W        W79906   5.155  11.122  11.114
 8291W        W79907  31.026  12.372  14.837
 8292W        W79908  25.508  30.383   4.244
 8293W        W79909   6.330  19.022  13.816
 8294W        W79910  34.526  25.318  11.133
 8295W        W79911  42.767  38.039   4.633
 8296W        W79912  20.937  36.436   1.467
 8297W        W79913  32.905  30.279  12.693
 8298W        W79914  20.946  13.848  13.936
 8299W        W79915  41.440  43.306  10.581
 8300W        W79916  27.260  24.705   0.419
 8301W        W79917  16.737  11.437   0.560
 8302W        W79918  29.719  37.542  12.418
 8303W        W79919  15.143  40.229  11.055
 8304W        W79920  44.392  30.971   3.745
 8305W        W79921  14.777  26.431   2.941
 8306W        W79922  28.649  16.733   3.231
 8307W        W79923  17.918   4.767  11.258
 8308W        W79924  24.127   7.127  12.112
 8309W        W79925  40.528  35.390   0.492
 8310W        W79926   4.791   8.725   4.549
 8311W        W79927  28.293  21.106  13.356
 8312W        W79928  29.758  43.652   2.928
 8313W        W79929  44.840  14.956   2.255
 8314W        W79930  38.619  17.133   0.254
 8315W        W79931  14.625  44.586   4.314
 8316W        W79932  10.889  21.389   3.328
 8317W        W79933  26.249  32.979  12.462
 8318W        W79934   7.843  38.092   1.906
 8319W        W79935  44.770  36.018  14.748
 8320W        W79936  42.364  44.783   0.764
 8321W        W79937  16.845  27.899   4.665
 8322W        W79938  14.669  38.486  13.836
 8323W        W79939  34.962   4.690  10.696
 8324W        W79940  30.865  23.534  12.937
 8325W        W79941  14.242  33.511  14.433
 8326W        W79942  13.167  17.789  10.317
 8327W        W79943  41.268  17.023  12.101
 8328W        W79944  34.426   6.369  13.823
 8329W        W79945  33.989  22.169   2.819
 8330W        W79946   8.620  12.928  14.838
 8331W        W79947  10.669  21.531   2.599
 8332W        W79948  23.518  10.235   2.755
 8333W        W79949  25.995  32.916   1.773
 8334W        W79950  15.695  34.323   3.206
 8335W        W79951   4.900   9.747   2.135
 8336W        W79952  32.661   7.232   3.284
 8337W        W79953  35.182  15.032   4.176
 8338W        W79954  22.653  11.714   2.177
 8339W        W79955  22.915  21.800   4.254
 8340W        W79956  22.015  17.179  14.958
 8341W        W79957  24.959  16.023   3.346
 8342W        W79958  38.547   6.772   4.537
 8343W        W79959  13.194   8.181  11.520
 8344W        W79960  19.517  32.817   2.932
 8345W        W79961  42.354  37.079  12.020
 8346W        W79962   1.789  26.395   2.741
 8347W        W79963  21.289  19.643   4.147
 8348W        W79964  24.515  10.911  12.875
 8349W        W79965   9.680   2.021   2.341
 8350W        W79966  44.754  12.163   1.015
 8351W        W79967  22.574  24.994   1.638
 8352W        W79968  11.167   5.903  14.933
 8353W        W79969  17.720  11.345  13.253
 8354W        W79970   1.621   8.269  13.958
 8355W        W79971  37.950   0.196  13.547
 8356W        W79972   2.423   8.774   0.505
 8357W        W79973  35.187  37.890  12.023
 8358W        W79974  11.100  38.626  12.068
 8359W        W79975  38.583  18.469   3.841
 8360W        W79976   8.882  31.456  14.084
 8361W        W79977  12.754  25.218  10.710
 8362W        W79978  32.238  40.621  12.361
 8363W        W79979  32.538   8.690  10.761
 8364W        W79980   9.922  33.360   0.943
 8365W        W79981   0.416  24.031   3.735
 8366W        W79982  17.276  18.747   3.632
 8367W        W79983  29.607  41.274  12.096
 8368W        W79984  30.136  19.416  13.783
 8369W        W79985   1.466  43.916   3.604
 8370W        W79986  36.007  35.878   0.771
 8371W        W79987  37.125   9.417   0.406
 8372W        W79988  20.146  28.642   2.060
 8373W        W79989  43.315  41.062   3.585
 8374W        W79990  35.806   8.691  11.601
 8375W        W79991  16.277  10.813  11.726
 8376W        W79992  24.624  12.532   3.298
 8377W        W79993  10.845   9.524   2.243
 8378W        W79994  41.851   0.056   2.858
 8379W        W79995  37.051  36.393   0.243
 8380W        W79996  31.971  19.546  11.135
 8381W        W79997  32.877  14.312   1.279
 8382W        W79998   2.772  35.678  14.170
 8383W        W79999  24.492  16.315   3.307
 8384W        W80000  44.965  31.502  11.416
 8385W        W80001  37.035  37.511   1.177
 8386W        W80002  28.989   2.253  10.661
 8387W        W80003  27.608  35.101   0.734
 8388W        W80004  42.909  20.454  10.729
 8389W        W80005  18.711  27.098   3.246
 8390W        W80006  13.285  43.998   1.171
 8391W        W80007  13.393  28.669   0.291
 8392W        W80008  25.017  20.771  13.419
 8393W        W80009  37.877  30.498  12.410
 8394W        W80010   2.326  11.670  13.018
 8395W        W80011  23.234  37.380  13.542
 8396W        W80012   1.854  17.553   2.455
 8397W        W80013  44.897  35.492  10.358
 8398W        W80014   5.797  42.960  11.506
 8399W        W80015   0.046  37.569  10.584
 8400W        W80016   7.815  37.306   4.472
 8401W        W80017   7.733  27.592   1.375
 8402W        W80018  37.250  26.593   5.097
 8403W        W80019  23.703  16.424   4.505
 8404W        W80020  23.085   4.286   3.188
 8405W        W80021   4.454  40.490  11.549
 8406W        W80022  24.314  12.599  12.428
 8407W        W80023  44.995   6.835   2.238
 8408W        W80024  27.330   5.870   1.264
 8409W        W80025   1.382  25.409   1.020
 8410W        W80026  30.907   3.826   4.809
 8411W        W80027  29.646  40.451  12.093
 8412W        W80028  10.533  29.114  14.405
 8413W        W80029   6.284  14.921   2.672
 8414W        W80030  26.461   2.600  12.307
 8415W        W80031   5.280  27.946  12.101
 8416W        W80032  31.980   7.617  11.992
 8417W        W80033  33.984  11.362  11.233
 8418W        W80034  44.456  36.577   0.937
 8419W        W80035   6.417   8.940   3.892
 8420W        W80036   4.233   2.407  11.863
 8421W        W80037  36.207  35.331  13.479
 8422W        W80038  28.748  21.483  11.527
 8423W        W80039  44.820   9.684  10.955
 8424W        W80040  23.404   3.518   3.312
 8425W        W80041  16.179  22.018   1.504
 8426W        W80042  15.221  14.867  14.960
 8427W        W80043   4.251   1.119  10.509
 8428W        W80044   1.007  25.585  13.094
 8429W        W80045  36.618  17.817  11.929
 8430W        W80046  22.588  12.156  12.440
 8431W        W80047  15.213  16.127   1.385
 8432W        W80048   4.904  22.425   3.575
 8433W        W80049  21.326   2.516   1.787
 8434W        W80050  34.146  38.929  13.339
 8435W        W80051  33.644  31.161  14.806
 8436W        W80052   2.001  44.291   0.086
 8437W        W80053  44.036   6.903  12.318
 8438W        W80054  23.238   9.840   1.549
 8439W        W80055  29.069  37.239   0.820
 8440W        W80056  16.332   5.906  12.380
 8441W        W80057  32.232   4.277   0.806
 8442W        W80058  31.619  32.484  12.900
 8443W        W80059  21.397  30.988   0.229
 8444W        W80060  40.901  20.158  10.713
 8445W        W80061   3.389  34.948   0.264
 8446W        W80062  19.757  17.947   1.874
 8447W        W80063  22.164  20.623  10.952
 8448W        W80064   3.224   1.336   1.764
 8449W        W80065  40.981  15.331  11.607
 8450W        W80066   9.899  23.007   3.359
 8451W        W80067  15.007   2.745   9.975
 8452W        W80068   4.938   3.462   0.238
 8453W        W80069  24.501  43.983   3.765
 8454W        W80070  17.042   3.982   1.340
 8455W        W80071  20.665  39.505  10.560
 8456W        W80072  36.213   0.002   1.681
 8457W        W80073  24.682   3.714   0.751
 8458W        W80074  17.143  27.936  13.462
 8459W        W80075  43.291   4.844   3.215
 8460W        W80076  24.740  24.957   4.604
 8461W        W80077  31.981   9.850  14.100
 8462W        W80078  11.288  22.980  13.064
 8463W        W80079  16.748  29.710  13.812
 8464W        W80080  10.100  41.612   9.985
 8465W        W80081  26.667  39.314  14.774
 8466W        W80082  30.373  18.533  11.630
 8467W        W80083  20.147  26.143  10.650
 8468W        W80084  14.052  15.138   3.920
 8469W        W80085  21.566  14.964  14.544
 8470W        W80086  30.855  16.349  11.111
 8471W        W80087  11.641  26.749   3.786
 8472W        W80088   7.313  21.755   1.411
 8473W        W80089   7.849  22.217  13.575
 8474W        W80090  10.394   3.591   3.692
 8475W        W80091  37.566  40.548   1.716
 8476W        W80092   0.455   6.452   0.365
 8477W        W80093  11.617  10.607   3.305
 8478W        W80094   5.406  33.371   3.195
 8479W        W80095   0.365  24.028  12.943
 8480W        W80096  20.725  29.661  13.837
 8481W        W80097  25.268  28.017  11.548
 8482W        W80098   3.711  26.312  13.903
 8483W        W80099   3.333  28.625  12.044
 8484W        W80100   5.506  30.396   3.171
 8485W        W80101   9.324  44.414   0.771
 8486W        W80102  30.155  30.074  12.335
 8487W        W80103  35.209  10.747   3.068
 8488W        W80104  30.405  16.095  14.272
 8489W        W80105   1.410   3.293   2.432
 8490W        W80106  31.948  21.190   0.798
 8491W        W80107  34.612  35.147   3.613
 8492W        W80108  20.733  37.973   0.955
 8493W        W80109   1.943  27.419   4.113
 8494W        W80110   8.949  37.802   1.769
 8495W        W80111  40.349   5.338   3.348
 8496W        W80112  12.736  12.129   0.795
 8497W        W80113  40.293  30.526   1.050
 8498W        W80114  32.435  29.694   5.169
 8499W        W80115   6.917  26.292   2.930
 8500W        W80116  36.965  32.143   2.752
 8501W        W80117   8.181   5.667  14.312
 8502W        W80118  18.838   9.207  12.095
 8503W        W80119   1.510  12.337  10.772
 8504W        W80120   9.748  30.647   4.609
 8505W        W80121  18.548  43.447  14.397
 8506W        W80122  25.017  33.067   2.748
 8507W        W80123  34.568   4.194  11.680
 8508W        W80124  19.823  21.395   1.389
 8509W        W80125  29.899   6.407  10.582
 8510W        W80126  19.729  33.796   1.417
 8511W        W80127  17.812  38.887  12.330
 8512W        W80128  28.091  26.229  12.984
 8513W        W80129  23.179  15.714   0.105
 8514W        W80130  22.101  21.280   1.232
 8515W        W80131   3.940   8.814   1.500
 8516W        W80132   1.943  32.116   2.195
 8517W        W80133  12.561  32.320   0.913
 8518W        W80134   1.889  38.033   1.979
 8519W        W80135  34.474  21.492  11.632
 8520W        W80136  10.400  29.047  12.554
 8521W        W80137  15.996  15.610   3.404
 8522W        W80138  13.086   7.831   1.823
 8523W        W80139  20.020  34.184   4.183
 8524W        W80140  31.586  42.078   0.877
 8525W        W80141  18.004  33.535   0.988
 8526W        W80142  41.271  14.274   1.355
 8527W        W80143  37.868   3.285   3.841
 8528W        W80144  31.627  34.997   0.519
 8529W        W80145  28.607  10.179   4.987
 8530W        W80146  19.641  27.376   3.771
 8531W        W80147  37.360   9.277   4.332
 8532W        W80148  32.360  35.886  14.322
 8533W        W80149  27.965  12.089  14.501
 8534W        W80150  36.132  26.649  14.431
 8535W        W80151  18.951  20.107   0.730
 8536W        W80152   5.457  37.815  12.380
 8537W        W80153  22.596  38.783  13.897
 8538W        W80154  35.497   6.413   0.169
 8539W        W80155   4.825  22.543   1.876
 8540W        W80156  11.087  30.357  14.955
 8541W        W80157  23.933  18.167  14.215
 8542W        W80158  15.222  16.899   3.695
 8543W        W80159  22.275  35.783  11.564
 8544W        W80160  18.688  37.173   3.348
 8545W        W80161  24.049  19.879  11.676
 8546W        W80162  38.130   8.912  14.200
 8547W        W80163  15.620  27.983   4.604
 8548W        W80164  44.713  43.426  12.027
 8549W        W80165  22.231  28.737   1.773
 8550W        W80166  24.113  12.443  11.162
 8551W        W80167  40.020  20.499   1.957
 8552W        W80168   5.147  43.098  12.664
 8553W        W80169  35.010   8.291   2.599
 8554W        W80170  22.763  21.198  10.952
 8555W        W80171  11.049  33.093   1.376
 8556W        W80172  15.306  38.011  10.548
 8557W        W80173  28.385   0.460   1.914
 8558W        W80174  44.953  16.724  11.222
 8559W        W80175   3.387  15.850   2.434
 8560W        W80176  22.468  29.201   0.961
 8561W        W80177  16.030  39.440   4.008
 8562W        W80178  13.450  28.902  11.620
 8563W        W80179  41.865  40.309   0.668
 8564W        W80180  42.747  43.396  10.239
 8565W        W80181  35.069  32.069   0.071
 8566W        W80182  41.221  36.793  14.803
 8567W        W80183  34.689  32.266   1.889
 8568W        W80184  19.707  26.560  11.221
 8569W        W80185  32.882   9.080  11.581
 8570W        W80186  26.197   7.834  14.801
 8571W        W80187   5.902  31.052   4.233
 8572W        W80188   9.609  22.099  12.497
 8573W        W80189  29.358   9.226  14.883
 8574W        W80190   8.236  36.896   4.115
 8575W        W80191  19.775  41.410   4.826
 8576W        W80192  23.081  24.280   0.287
 8577W        W80193  41.305  15.294  12.041
 8578W        W80194  23.965  24.992  13.034
 8579W        W80195   9.662   2.216   4.721
 8580W        W80196  13.742   7.307  14.033
 8581W        W80197  37.616  18.557  10.304
 8582W        W80198  23.669   7.776  10.791
 8583W        W80199  44.266   3.495   0.093
 8584W        W80200  36.570  12.534  13.407
 8585W        W80201  12.430  36.559  14.808
 8586W        W80202  17.625  32.683   3.675
 8587W        W80203  38.799  23.645  14.052
 8588W        W80204   3.511   4.491   0.766
 8589W        W80205   0.503  38.385   4.695
 8590W        W80206   8.092  42.663   5.011
 8591W        W80207  43.960   4.875  12.088
 8592W        W80208  29.496  10.076  13.554
 8593W        W80209  19.426  28.408   0.908
 8594W        W80210  21.811  36.007  11.518
 8595W        W80211   5.791  22.557   2.355
 8596W        W80212  14.720  10.889   1.294
 8597W        W80213  17.254  27.023   1.441
 8598W        W80214  34.932  11.865  14.932
 8599W        W80215  35.124  25.243   4.166
 8600W        W80216  44.407   4.286   4.623
 8601W        W80217  25.885  32.165  11.534
 8602W        W80218  37.398  24.236   1.208
 8603W        W80219  33.575  29.234  13.992
 8604W        W80220   3.801  38.040   2.684
 8605W        W80221  15.702  28.481   1.176
 8606W        W80222  25.914  36.116   3.884
 8607W        W80223  10.834  16.141  11.479
 8608W        W80224  24.563  22.669   0.350
 8609W        W80225  24.532  40.418  10.688
 8610W        W80226  28.773  14.309   0.425
 8611W        W80227   3.798  39.776  12.434
 8612W        W80228  18.534  39.406  14.945
 8613W        W80229  22.603  11.419  10.090
 8614W        W80230  29.383  29.191  12.393
 8615W        W80231  27.059  29.529  11.466
 8616W        W80232   0.471  10.870  11.650
 8617W        W80233  34.026   7.973   3.337
 8618W        W80234  34.920  32.329  13.747
 8619W        W80235  40.609  20.067   0.875
 8620W        W80236  10.811  34.660  12.122
 8621W        W80237  12.276  12.201   3.828
 8622W        W80238  17.638  11.854  11.747
 8623W        W80239   1.818  36.442   3.231
 8624W        W80240  18.635  14.102   1.402
 8625W        W80241   4.688  44.978  14.024
 8626W        W80242  31.559  42.862  10.595
 8627W        W80243  27.384  40.456   0.189
 8628W        W80244   0.432  36.647  12.001
 8629W        W80245  27.165  12.328   1.381
 8630W        W80246  15.620  15.568  14.576
 8631W        W80247   7.915  43.509   3.676
 8632W        W80248  30.616  21.336   1.065
 8633W        W80249  44.083   6.386  12.861
 8634W        W80250  38.757  30.324   3.718
 8635W        W80251  12.304  21.340  14.350
 8636W        W80252  25.142  21.564  14.438
 8637W        W80253  29.824  36.639   4.233
 8638W        W80254   2.963  27.430  12.552
 8639W        W80255  16.318  22.974   5.001
 8640W        W80256  10.683  27.764  14.314
 8641W        W80257  37.522  29.064   2.189
 8642W        W80258   9.139  16.206  11.993
 8643W        W80259  39.632  41.076  14.970
 8644W        W80260  36.675  21.524   3.267
 8645W        W80261   9.680  38.889   4.732
 8646W        W80262  41.844  31.891   0.284
 8647W        W80263  30.088   3.235   2.676
 8648W        W80264  31.533  28.649  13.043
 8649W        W80265  21.666   0.026   2.413
 8650W        W80266  29.160  23.538   0.359
 8651W        W80267  20.598  41.314  12.100
 8652W        W80268  16.120   7.221  12.911
 8653W        W80269  19.516  14.929   4.147
 8654W        W80270   5.808  24.684   3.380
 8655W        W80271  26.020  42.789   1.251
 8656W        W80272  17.593  25.973  13.423
 8657W        W80273  31.469  31.482   2.804
 8658W        W80274  32.574  43.948   1.931
 8659W        W80275  14.080  19.603   2.900
 8660W        W80276  36.910  38.993  13.770
 8661W        W80277   8.926  39.397  11.571
 8662W        W80278   2.765  18.626  11.124
 8663W        W80279   9.869  17.074   2.276
 8664W        W80280   6.991  32.200  12.408
 8665W        W80281  23.236  33.871   3.079
 8666W        W80282  39.654   4.730   4.660
 8667W        W80283  28.621  41.013  11.308
 8668W        W80284  43.294  25.066  11.140
 8669W        W80285  39.093  37.459  13.395
 8670W        W80286  42.007  17.233   0.371
 8671W        W80287  30.362  15.649  13.521
 8672W        W80288  37.842  39.416   3.819
 8673W        W80289  23.253  28.611   4.197
 8674W        W80290  27.704  25.945  10.684
 8675W        W80291  14.359  12.061  13.580
 8676W        W80292  21.108   8.611  13.858
 8677W        W80293  41.987  32.083   2.671
 8678W        W80294  20.247  33.329  13.742
 8679W        W80295  33.069  38.270  14.447
 8680W        W80296  36.465   3.670  14.706
 8681W        W80297  13.886  33.463   4.129
 8682W        W80298  25.022  29.454  13.493
 8683W        W80299  23.494  18.643  11.131
 8684W        W80300  36.783   9.431   0.842
 8685W        W80301  12.224   2.265  10.956
 8686W        W80302  35.086  19.718  14.516
 8687W        W80303  33.373  31.413  10.830
 8688W        W80304  10.405  25.182   0.011
 8689W        W80305  43.377  10.368   1.370
 8690W        W80306  20.126  14.615   3.148
 8691W        W80307  30.996  17.974  11.806
 8692W        W80308   8.444   9.940   1.864
 8693W        W80309  30.170  35.108   1.388
 8694W        W80310  33.393   5.581   1.275
 8695W        W80311  22.506  11.170   3.229
 8696W        W80312  18.533  18.539   3.174
 8697W        W80313   1.100  28.178  12.385
 8698W        W80314  44.708  40.427   2.826
 8699W        W80315   0.307   5.327   2.677
 8700W        W80316  44.381   8.304   1.764
 8701W        W80317  39.055   4.469  14.704
 8702W        W80318  41.286  44.257   1.354
 8703W        W80319  22.264  18.037   2.382
 8704W        W80320  21.814  22.720   3.691
 8705W        W80321   5.202  30.125   1.345
 8706W        W80322  36.400   1.269   0.975
 8707W        W80323   4.296  40.938   2.199
 8708W        W80324  15.811  14.670  14.362
 8709W        W80325  13.753  18.114  11.516
 8710W        W80326  34.859  14.107  12.534
 8711W        W80327  32.837  44.775  13.372
 8712W        W80328  10.161  27.955   2.663
 8713W        W80329  42.349  42.304   4.646
 8714W        W80330  34.814   2.441   1.923
 8715W        W80331  38.950   8.517  14.214
 8716W        W80332  13.426   6.162   2.236
 8717W        W80333   9.134  44.905   0.882
 8718W        W80334   5.109   7.938  12.545
 8719W        W80335  15.136  28.196   4.614
 8720W        W80336  35.465   6.758   2.511
 8721W        W80337  26.725   2.895  13.842
 8722W        W80338  41.109  29.914  12.488
 8723W        W80339   2.894   5.087  12.589
 8724W        W80340  29.974  44.879   0.813
 8725W        W80341  27.502  40.329  14.714
 8726W        W80342  43.389  18.671  14.513
 8727W        W80343  25.782  44.359  13.528
 8728W        W80344  43.768  33.526   3.202
 8729W        W80345   9.396   1.700   3.730
 8730W        W80346  17.608  20.912   2.318
 8731W        W80347  40.692  31.961   2.622
 8732W        W80348  21.466  27.419  14.791
 8733W        W80349   5.162  28.981  12.041
 8734W        W80350  34.518  31.033   4.859
 8735W        W80351  42.829  14.708  11.257
 8736W        W80352  20.096   2.538  11.523
 8737W        W80353  23.310   4.744  11.127
 8738W        W80354  19.903  38.533   0.839
 8739W        W80355  18.397  43.440  10.668
 8740W        W80356  16.333   6.769   1.600
 8741W        W80357  35.435  30.390   0.705
 8742W        W80358  21.703  31.227  13.089
 8743W        W80359  13.803  16.276   1.619
 8744W        W80360  32.425  10.446  14.971
 8745W        W80361   0.950  35.429  11.235
 8746W        W80362  25.604  19.143  12.125
 8747W        W80363  12.265  13.537  13.572
 8748W        W80364   4.679  17.189   1.546
 8749W        W80365  30.897   5.375   1.646
 8750W        W80366  28.549  11.274  10.711
 8751W        W80367  30.354   1.898  13.516
 8752W        W80368  44.051  23.776  12.853
 8753W        W80369  30.241  36.681  12.549
 8754W        W80370  21.352   3.963   2.656
 8755W        W80371  26.431  39.801  13.863
 8756W        W80372  12.892   8.238  13.517
 8757W        W80373   0.221  39.120   3.229
 8758W        W80374   8.737  38.460  13.472
 8759W        W80375  18.849   1.816  12.862
 8760W        W80376  19.764  34.320   1.229
 8761W        W80377   3.307  42.933  11.931
 8762W        W80378  36.340  37.104   3.652
 8763W        W80379  13.769  39.814  13.176
 8764W        W80380  29.539   7.145  12.517
 8765W        W80381  13.090   5.509  14.455
 8766W        W80382  19.057   6.374  13.401
 8767W        W80383  33.047   8.903  12.439
 8768W        W80384  20.998  23.498  11.911
 8769W        W80385  16.002  29.161  10.456
 8770W        W80386  11.233  15.217  11.785
 8771W        W80387  42.513  39.950  11.622
 8772W        W80388   3.718  11.818  14.755
 8773W        W80389  29.857  25.242  13.393
 8774W        W80390  20.988   4.590   4.555
 8775W        W80391  19.593  29.102   2.049
 8776W        W80392  16.345  32.982  14.062
 8777W        W80393  28.639  35.874   2.351
 8778W        W80394  17.620  34.489   1.904
 8779W        W80395  29.008  16.268  12.399
 8780W        W80396  44.022  20.070   4.250
 8781W        W80397  37.748  11.559   5.024
 8782W        W80398  44.351   9.633   0.502
 8783W        W80399  18.746  24.435   3.211
 8784W        W80400   9.400  22.116   4.566
 8785W        W80401   6.981  44.960  14.888
 8786W        W80402   1.929  31.347  10.829
 8787W        W80403  16.377  15.700   5.623
 8788W        W80404   5.882   3.215   2.727
 8789W        W80405  21.083  15.119  14.501
 8790W        W80406   0.534  44.003  14.955
 8791W        W80407  12.675  41.797   1.972
 8792W        W80408   2.898  38.455  12.807
 8793W        W80409  40.426  33.695   1.944
 8794W        W80410  30.392  17.340   3.762
 8795W        W80411  39.898  29.995  14.550
 8796W        W80412  34.522  10.748  12.920
 8797W        W80413   4.342  38.583  14.313
 8798W        W80414  31.040  10.749   4.294
 8799W        W80415  25.142   5.271  12.597
 8800W        W80416  24.722  32.202   2.790
 8801W        W80417  16.823  41.208  10.359
 8802W        W80418  38.907  35.606  14.013
 8803W        W80419  41.887  42.054   4.641
 8804W        W80420  13.273   9.016  14.874
 8805W        W80421  19.498  14.351  13.419
 8806W        W80422  21.329  40.248  14.365
 8807W        W80423  36.990  19.419   1.761
 8808W        W80424  40.230  29.359  14.909
 8809W        W80425  33.904  18.610   1.396
 8810W        W80426   2.021  32.997   0.965
 8811W        W80427  33.866  20.307  14.752
 8812W        W80428  12.950   0.789   0.300
 8813W        W80429  35.175  33.777  11.088
 8814W        W80430  36.001  30.173   2.673
 8815W        W80431  40.527  27.658   4.353
 8816W        W80432   6.846  16.775  12.585
 8817W        W80433  40.302  26.682   2.294
 8818W        W80434  37.361  19.978   1.944
 8819W        W80435  15.692  41.601   1.684
 8820W        W80436  37.925   3.467  13.421
 8821W        W80437  14.981  26.734   4.645
 8822W        W80438   2.443  43.774   2.395
 8823W        W80439  40.026  24.526  11.568
 8824W        W80440  10.337   7.421  14.099
 8825W        W80441  12.475  40.427  12.887
 8826W        W80442  17.842  44.484   4.545
 8827W        W80443  28.354  13.205  11.708
 8828W        W80444  20.458  36.994   3.120
 8829W        W80445  22.146   1.751   4.152
 8830W        W80446  13.261  42.156   0.895
 8831W        W80447  36.582  41.292   0.924
 8832W        W80448  17.872  25.980   3.750
 8833W        W80449  26.778  31.445   4.647
 8834W        W80450  16.637   9.348  11.200
 8835W        W80451  17.028  15.379  13.836
 8836W        W80452  15.341  23.349   3.799
 8837W        W80453  34.311  38.815   1.175
 8838W        W80454  37.990   4.874  10.716
 8839W        W80455   3.888   1.755   0.934
 8840W        W80456   7.277  14.214  14.437
 8841W        W80457  21.098  28.396   4.575
 8842W        W80458  37.295  42.803  10.227
 8843W        W80459   3.001  42.022  14.406
 8844W        W80460  25.969  35.926   0.770
 8845W        W80461  22.629  31.651  11.615
 8846W        W80462  10.435  25.242   9.838
 8847W        W80463  41.350  38.350   1.643
 8848W        W80464  44.635  34.496  12.036
 8849W        W80465   8.688  22.830   2.840
 8850W        W80466  42.248  43.294  12.959
 8851W        W80467  44.758   7.129  13.443
 8852W        W80468   4.947  13.541   4.174
 8853W        W80469  24.444  31.559   0.450
 8854W        W80470   0.845  27.601  13.462
 8855W        W80471  10.826   1.368  14.256
 8856W        W80472  21.538  19.715  13.906
 8857W        W80473  26.180   1.723   2.811
 8858W        W80474  29.742  25.495   5.010
 8859W        W80475  43.055  11.668  10.983
 8860W        W80476  30.591  22.893  12.493
 8861W        W80477   0.845  26.962  14.304
 8862W        W80478  17.922   4.174  13.343
 8863W        W80479   1.383  14.150   0.876
 8864W        W80480   7.795  24.556  13.070
 8865W        W80481  36.084  40.876  13.469
 8866W        W80482   8.684  16.041   4.649
 8867W        W80483   7.411  23.712  13.017
 8868W        W80484  25.666  44.973   4.018
 8869W        W80485   6.706  11.884  13.307
 8870W        W80486  43.601  28.070  10.634
 8871W        W80487  37.401   7.043  14.463
 8872W        W80488   4.030  28.555   1.893
 8873W        W80489  36.452   8.107  14.035
 8874W        W80490  20.870  19.651   1.721
 8875W        W80491  29.887   3.321   1.688
 8876W        W80492  20.463  38.062  11.476
 8877W        W80493  31.748  23.489  10.247
 8878W        W80494  14.224  12.404  11.947
 8879W        W80495  31.105   4.944  12.503
 8880W        W80496  15.551  28.027   1.427
 8881W        W80497   9.191  13.691  12.301
 8882W        W80498   5.709  26.768  12.996
 8883W        W80499  26.740  32.971   9.825
 8884W        W80500  11.214  31.277   2.632
 8885W        W80501   4.365   2.578  14.450
 8886W        W80502  36.428  14.327   2.772
 8887W        W80503  42.824  10.932  12.519
 8888W        W80504  41.016  18.562   4.726
 8889W        W80505  35.391  23.724  13.892
 8890W        W80506  29.065  34.351   2.100
 8891W        W80507  33.670  25.387  13.784
 8892W        W80508  19.144  30.109  10.679
 8893W        W80509  32.340  36.963   0.813
 8894W        W80510   0.552  27.368  13.060
 8895W        W80511  28.083   1.356   2.722
 8896W        W80512  43.512   0.656   1.313
 8897W        W80513  17.305  41.427   3.624
 8898W        W80514  40.630  37.117  10.664
 8899W        W80515  39.104   8.326   1.680
 8900W        W80516  41.382  21.254   4.002
 8901W        W80517  39.271   5.731   4.563
 8902W        W80518   3.390  23.148  13.821
 8903W        W80519  24.261   5.978  10.773
 8904W        W80520  21.034  40.578  11.037
 8905W        W80521   9.142  19.954  12.079
 8906W        W80522  11.391   8.862  12.283
 8907W        W80523   7.069   1.891   1.945
 8908W        W80524   4.704  38.925  10.661
 8909W        W80525  18.361  20.411   3.152
 8910W        W80526  38.861  35.953   4.718
 8911W        W80527  24.222  43.960   4.231
 8912W        W80528   4.936  31.973   3.695
 8913W        W80529  10.129  21.506  14.923
 8914W        W80530  16.863  43.580  10.743
 8915W        W80531  35.918   6.956  11.540
 8916W        W80532   0.107  30.578  14.078
 8917W        W80533  17.741   9.125   0.888
 8918W        W80534  11.618   8.152   3.167
 8919W        W80535  14.771  10.615   1.794
 8920W        W80536   3.833  39.245  11.126
 8921W        W80537  42.711  38.319   3.815
 8922W        W80538  26.792  19.088  14.988
 8923W        W80539  37.630  12.973  14.208
 8924W        W80540  23.916   0.632   2.631
 8925W        W80541  11.581  24.479  11.126
 8926W        W80542  16.548  16.542   2.463
 8927W        W80543  17.749   9.924   0.435
 8928W        W80544   6.416  22.252  13.559
 8929W        W80545  15.863  18.097   3.306
 8930W        W80546  11.290  14.927  10.659
 8931W        W80547   4.491  42.565   5.021
 8932W        W80548   0.161   2.833   1.934
 8933W        W80549  25.065   1.332  11.920
 8934W        W80550  26.268   3.433  14.754
 8935W        W80551  36.306  28.514   0.409
 8936W        W80552   2.003   5.846  12.676
 8937W        W80553  35.193   0.008  13.996
 8938W        W80554   2.705  24.005   1.142
 8939W        W80555  15.632  40.427   0.463
 8940W        W80556  14.730   5.000   3.347
 8941W        W80557  38.010  24.949   1.450
 8942W        W80558  38.373  33.092   3.121
 8943W        W80559  22.484  20.871   1.217
 8944W        W80560  12.880  24.498   3.179
 8945W        W80561   7.376  21.779   0.002
 8946W        W80562  42.902  25.764  10.354
 8947W        W80563  32.010  24.595   3.384
 8948W        W80564   6.741  20.697   2.784
 8949W        W80565  16.909  30.924   4.772
 8950W        W80566  25.035  34.442   0.279
 8951W        W80567  22.641   8.777   1.692
 8952W        W80568  28.594  40.846  12.842
 8953W        W80569  27.100  35.586   3.416
 8954W        W80570  10.758  22.122   5.033
 8955W        W80571  28.452  24.525  12.520
 8956W        W80572  34.033  42.257   0.997
 8957W        W80573   0.098  23.720  10.678
 8958W        W80574   3.754  18.129  10.604
 8959W        W80575  44.162  27.001  10.345
 8960W        W80576   0.439  15.376   3.313
 8961W        W80577  36.652  41.297  11.035
 8962W        W80578  30.699  34.986   4.572
 8963W        W80579  10.059  37.054   3.135
 8964W        W80580  11.338  43.980  11.544
 8965W        W80581   9.318   0.009   1.364
 8966W        W80582   9.308  27.816   4.043
 8967W        W80583  42.067  12.436  13.469
 8968W        W80584   1.487   5.304   4.673
 8969W        W80585  10.786  30.575  12.323
 8970W        W80586  13.344  44.508   1.865
 8971W        W80587  26.710  40.547   1.324
 8972W        W80588   8.232  36.926  11.491
 8973W        W80589  27.599   3.441  13.289
 8974W        W80590  23.988  19.776   4.667
 8975W        W80591  40.762  25.276   2.431
 8976W        W80592  26.001   9.818  13.397
 8977W        W80593   0.489   3.694   4.220
 8978W        W80594  28.120  18.556  10.871
 8979W        W80595   0.360  39.854   2.626
 8980W        W80596  27.046  38.993  10.480
 8981W        W80597  32.156   4.149  11.117
 8982W        W80598  29.471  17.456  12.980
 8983W        W80599   2.997  19.249   3.767
 8984W        W80600   3.819  34.014   3.884
 8985W        W80601   8.325  28.893  10.364
 8986W        W80602  14.292  16.340  10.231
 8987W        W80603  11.190  20.994   4.552
 8988W        W80604  15.536  28.950   0.265
 8989W        W80605  26.475   0.869  12.375
 8990W        W80606  40.041   6.258   3.059
 8991W        W80607   3.970  13.633   1.780
 8992W        W80608  35.665  32.554   4.443
 8993W        W80609  43.528  18.584  10.219
 8994W        W80610  18.113  11.903  12.049
 8995W        W80611   1.943  44.997   1.321
 8996W        W80612  16.521  41.593   2.797
 8997W        W80613   8.326  22.253  13.848
 8998W        W80614  39.801  39.007  12.214
 8999W        W80615   8.711  33.970  11.557
 9000W        W80616  25.294  40.034   0.847
 9001W        W80617  43.402  41.913  12.549
 9002W        W80618  24.091  42.541  14.786
 9003W        W80619  43.230  27.998   1.913
 9004W        W80620  20.083  42.021   3.215
 9005W        W80621  10.647  10.418   2.591
 9006W        W80622  17.477  25.732  14.290
 9007W        W80623  12.203  40.934   1.478
 9008W        W80624  30.342  11.098   3.577
 9009W        W80625  24.433  21.079   4.144
 9010W        W80626   3.876  16.185   4.430
 9011W        W80627  23.158  27.562   3.091
 9012W        W80628   5.468   6.012  13.371
 9013W        W80629  17.760  17.227  14.570
 9014W        W80630  13.720  31.012   0.857
 9015W        W80631  20.100  36.991  11.572
 9016W        W80632   7.951   5.054  12.026
 9017W        W80633  43.090  30.357  14.771
 9018W        W80634  24.109  29.754  12.909
 9019W        W80635  14.245   7.690  10.832
 9020W        W80636  20.026   7.445   9.748
 9021W        W80637  27.942   7.417   1.151
 9022W        W80638  39.511  41.498   1.758
 9023W        W80639  39.369  27.250  12.225
 9024W        W80640  39.804  26.072  14.967
 9025W        W80641  25.721   2.262   3.664
 9026W        W80642  38.940  44.691   0.749
 9027W        W80643  11.305   2.017   1.879
 9028W        W80644  18.976   1.701  12.030
 9029W        W80645  18.595  21.356   0.784
 9030W        W80646  32.017  28.171  12.424
 9031W        W80647  43.791  41.831   2.996
 9032W        W80648  15.354  32.079  13.299
 9033W        W80649  19.407   8.592   3.278
 9034W        W80650  11.408   0.364   0.767
 9035W        W80651  31.089  26.172  14.900
 9036W        W80652  20.959   7.148  12.082
 9037W        W80653   1.408  12.661   4.729
 9038W        W80654  28.234  25.180  13.825
 9039W        W80655  18.702   2.990   4.133
 9040W        W80656  36.412   4.250  10.628
 9041W        W80657  39.232  16.019  11.340
 9042W        W80658  43.104  24.713   4.195
 9043W        W80659  36.966   8.741   0.309
 9044W        W80660   0.949  20.067  11.177
 9045W        W80661   4.506  12.616   2.988
 9046W        W80662   7.218   8.851  13.525
 9047W        W80663   6.390   4.032  13.901
 9048W        W80664   8.691  30.143  10.667
 9049W        W80665  44.151  31.559   3.320
 9050W        W80666  20.718  19.825   4.728
 9051W        W80667  12.626  14.933   2.532
 9052W        W80668  40.489  28.729   0.440
 9053W        W80669  39.598  12.492  13.615
 9054W        W80670  44.266   9.839  13.863
 9055W        W80671  28.587  42.741  14.985
 9056W        W80672  11.884  44.360   3.023
 9057W        W80673  15.945   7.920  12.817
 9058W        W80674   5.281  25.489   0.767
 9059W        W80675   4.274  18.543   3.608
 9060W        W80676  24.499   2.126  11.070
 9061W        W80677  35.200  24.673  13.384
 9062W        W80678  13.731   1.664   0.931
 9063W        W80679  41.285  34.713   0.978
 9064W        W80680  35.448  11.896   3.892
 9065W        W80681  13.048  41.495  12.899
 9066W        W80682  30.511  40.517  12.052
 9067W        W80683  44.160  40.837   1.014
 9068W        W80684  38.454  17.312   4.525
 9069W        W80685  10.740  22.688  11.899
 9070W        W80686  32.159  25.625  13.972
 9071W        W80687   0.242  18.636  12.154
 9072W        W80688   6.466   4.276  14.372
 9073W        W80689  17.134   1.919   3.326
 9074W        W80690  32.306   1.957  10.569
 9075W        W80691  16.555  18.116   1.198
 9076W        W80692   2.232  15.564   4.204
 9077W        W80693  36.530  14.371   1.439
 9078W        W80694  11.531  36.883   2.258
 9079W        W80695  18.843  16.066  11.713
 9080W        W80696   1.458  13.337   2.904
 9081W        W80697   5.342  30.487   1.823
 9082W        W80698  19.030  27.096   0.675
 9083W        W80699  44.011   9.799   3.227
 9084W        W80700  22.595  23.990  14.011
 9085W        W80701  13.858  32.234  11.043
 9086W        W80702  30.630  18.514   1.191
 9087W        W80703  26.446  13.288   4.528
 9088W        W80704  35.399  29.470   0.577
 9089W        W80705  11.677   4.971  11.153
 9090W        W80706  34.898  15.801   0.941
 9091W        W80707  26.178  41.702  12.750
 9092W        W80708  37.001   0.108  12.160
 9093W        W80709  35.976  35.326   3.609
 9094W        W80710  31.879  12.598   3.427
 9095W        W80711   4.805  15.355   3.676
 9096W        W80712   2.749   6.834  14.670
 9097W        W80713  26.980   2.824  14.324
 9098W        W80714  19.102   8.557   2.749
 9099W        W80715  37.697  33.359  14.514
 9100W        W80716  12.938  44.191  13.389
 9101W        W80717  18.579  11.687  14.004
 9102W        W80718   7.730  18.716   0.971
 9103W        W80719   0.835  40.997  12.058
 9104W        W80720  32.383  20.831   2.060
 9105W        W80721   7.925  38.812   4.615
 9106W        W80722   7.397  44.608   2.325
 9107W        W80723  27.929  16.018   5.014
 9108W        W80724  25.668   6.665   1.797
 9109W        W80725  28.470  29.379   1.140
 9110W        W80726  40.693  31.617  14.273
 9111W        W80727  41.989  13.342   2.549
 9112W        W80728  34.742  30.445   1.837
 9113W        W80729  26.482  24.289  13.600
 9114W        W80730  22.536  26.121  10.584
 9115W        W80731  22.809  36.920   2.795
 9116W        W80732  18.764  27.665  13.951
 9117W        W80733  31.148  34.931  12.033
 9118W        W80734  21.700  28.533  12.908
 9119W        W80735  13.210   0.899  14.831
 9120W        W80736  17.205  37.711  13.031
 9121W        W80737  35.894  21.662  12.849
 9122W        W80738   8.597  14.797   1.870
 9123W        W80739  30.535  26.498   3.149
 9124W        W80740  18.547   0.068  13.441
 9125W        W80741  21.541  23.837   2.192
 9126W        W80742  13.824  42.225   3.249
 9127W        W80743  17.991  26.601   4.648
 9128W        W80744  11.774  29.650   2.392
 9129W        W80745  19.298   0.407   0.540
 9130W        W80746  26.234  15.016   0.800
 9131W        W80747  28.181  35.708   1.436
 9132W        W80748   4.325   0.025  13.628
 9133W        W80749  38.549  13.090   3.522
 9134W        W80750  42.367  34.605  13.342
 9135W        W80751  28.018  10.585   3.103
 9136W        W80752  29.877  25.141   3.596
 9137W        W80753  27.186   2.350  11.189
 9138W        W80754  16.107  26.623   2.789
 9139W        W80755  28.328   9.185  14.738
 9140W        W80756   2.230  22.972   3.180
 9141W        W80757   9.886  17.003  11.960
 9142W        W80758  26.354  36.010  13.065
 9143W        W80759   1.438   2.189  11.143
 9144W        W80760   3.379  41.694   0.316
 9145W        W80761  24.869   3.934   4.695
 9146W        W80762  15.289  36.171  11.709
 9147W        W80763  15.766  35.498   0.951
 9148W        W80764  17.479   8.462   2.233
 9149W        W80765  33.855  32.417  11.375
 9150W        W80766   8.775  24.030   4.689
 9151W        W80767  33.131   2.668  12.884
 9152W        W80768  42.790  28.545  12.398
 9153W        W80769  24.167   5.702   0.298
 9154W        W80770  12.450  25.107   1.313
 9155W        W80771  11.603   7.220  13.130
 9156W        W80772   9.186  19.893  12.606
 9157W        W80773  14.061  22.315  11.704
 9158W        W80774  19.219  37.978  14.973
 9159W        W80775  26.819   8.893   1.319
 9160W        W80776  34.986  36.542  13.872
 9161W        W80777  24.610  13.991   1.810
 9162W        W80778   6.049  29.271   5.107
 9163W        W80779  40.811  14.333  14.734
 9164W        W80780  42.144   5.715  12.832
 9165W        W80781   7.966   3.676   2.314
 9166W        W80782  38.957  30.049   0.775
 9167W        W80783   2.267  32.157  11.207
 9168W        W80784  42.630  33.111   4.130
 9169W        W80785  10.765   0.724   4.502
 9170W        W80786  27.687  44.794   4.117
 9171W        W80787   6.521  18.704   1.803
 9172W        W80788   4.714  29.954   1.445
 9173W        W80789  30.645  31.643  12.362
 9174W        W80790  13.065  16.748  14.422
 9175W        W80791  41.453  26.547  10.067
 9176W        W80792  33.490  11.931  13.148
 9177W        W80793  31.277  18.210   2.739
 9178W        W80794   7.090   3.375   3.613
 9179W        W80795  15.244   7.469   2.220
 9180W        W80796  38.284   3.675   3.367
 9181W        W80797  44.384  20.122  12.614
 9182W        W80798   5.788  24.734   4.715
 9183W        W80799  40.433  40.585   4.616
 9184W        W80800  17.041   8.171  10.599
 9185W        W80801  36.253  16.750   3.934
 9186W        W80802  25.143  15.750   4.815
 9187W        W80803  11.819  32.062  14.327
 9188W        W80804   5.385  39.255   3.895
 9189W        W80805   2.954  40.933   4.372
 9190W        W80806  40.336   0.598  12.063
 9191W        W80807   4.902  36.826  14.820
 9192W        W80808  36.838  28.811  14.387
 9193W        W80809  40.367  41.586  14.460
 9194W        W80810   0.848  35.449   5.131
 9195W        W80811  34.317  34.153  13.142
 9196W        W80812  14.259  23.337   2.400
 9197W        W80813  29.204  21.758   0.933
 9198W        W80814  33.708  11.186   2.280
 9199W        W80815  32.433   0.533   2.827
 9200W        W80816   1.770  28.654  12.649
 9201W        W80817  27.728  38.489  10.651
 9202W        W80818  13.159  40.085  13.048
 9203W        W80819  38.804  32.083   0.351
 9204W        W80820  38.202  25.215   4.750
 9205W        W80821  23.774  22.086   3.708
 9206W        W80822   0.876   7.211   2.958
 9207W        W80823   2.981   6.899  11.895
 9208W        W80824  10.657  11.218   2.156
 9209W        W80825  18.207  23.481   4.162
 9210W        W80826  24.175   0.142  14.837
 9211W        W80827  44.353  40.497  14.269
 9212W        W80828  35.327  14.551   3.305
 9213W        W80829  31.626  28.693  10.634
 9214W        W80830  33.380  10.736  14.247
 9215W        W80831   6.802  31.713  12.893
 9216W        W80832  25.499  30.662  10.359
 9217W        W80833  14.414  17.584  14.957
 9218W        W80834   9.761  39.089  10.576
 9219W        W80835  12.382  10.251  14.417
 9220W        W80836  36.568   1.198   2.792
 9221W        W80837  15.116  28.424  10.986
 9222W        W80838  32.417  18.321   1.292
 9223W        W80839   0.007   4.350   1.933
 9224W        W80840  22.928  34.988   2.885
 9225W        W80841  15.071  29.047   2.817
 9226W        W80842  29.555  38.857   1.370
 9227W        W80843   0.715   7.880  12.002
 9228W        W80844  16.210  10.365   1.986
 9229W        W80845  17.527  16.260  14.378
 9230W        W80846  28.966  39.205  11.596
 9231W        W80847  27.972  18.692  12.341
 9232W        W80848   9.834  41.483   2.617
 9233W        W80849  44.096   0.245  12.484
 9234W        W80850  37.356  24.104   0.213
 9235W        W80851  18.832  32.560  14.774
 9236W        W80852  30.725  24.977   3.134
 9237W        W80853  24.072   4.729   1.898
 9238W        W80854  43.673  39.990   4.116
 9239W        W80855  34.331   5.654   1.750
 9240W        W80856  37.549  11.326  14.265
 9241W        W80857   1.492  19.956   1.539
 9242W        W80858  29.001   3.327  13.902
 9243W        W80859  25.390  42.702  12.370
 9244W        W80860   9.202  29.961   0.515
 9245W        W80861  27.024  35.447  11.022
 9246W        W80862   3.606  43.865  11.560
 9247W        W80863  18.523  28.437   2.915
 9248W        W80864   5.218  40.514  13.110
 9249W        W80865  26.582  39.766   1.610
 9250W        W80866  32.100  18.722   4.145
 9251W        W80867  25.918   0.885  12.527
 9252W        W80868  38.934  31.900   2.681
 9253W        W80869  16.867   8.121  11.081
 9254W        W80870  27.060  43.780  13.325
 9255W        W80871  14.013  43.781   1.765
 9256W        W80872   1.840   1.932   3.667
 9257W        W80873   2.783  19.002  13.302
 9258W        W80874  25.553  17.126   1.901
 9259W        W80875   1.763   0.398  12.639
 9260W        W80876  44.022  33.668   2.333
 9261W        W80877   3.450  27.608  11.533
 9262W        W80878  25.210  19.345   0.686
 9263W        W80879   6.649  39.386  13.484
 9264W        W80880  13.247  38.406  13.867
 9265W        W80881  29.545  37.436   0.907
 9266W        W80882  10.408  34.602   3.794
 9267W        W80883  42.107  40.227  14.557
 9268W        W80884   0.772  15.362  12.883
 9269W        W80885   8.851   0.811  10.532
 9270W        W80886  38.820   3.805  13.294
 9271W        W80887  17.262  44.712   1.401
 9272W        W80888  12.185  35.651  13.754
 9273W        W80889  41.528  26.751   3.659
 9274W        W80890   8.874  22.467  10.739
 9275W        W80891   2.319  18.626   2.142
 9276W        W80892  33.038   9.742   4.971
 9277W        W80893   4.638  24.898  11.110
 9278W        W80894   4.428  28.665   1.333
 9279W        W80895  37.191  21.711   2.504
 9280W        W80896  14.822  15.291   4.197
 9281W        W80897  34.536  14.628  13.847
 9282W        W80898  10.783  36.319  13.097
 9283W        W80899   2.820  35.000  11.946
 9284W        W80900  15.692  30.030  12.886
 9285W        W80901  34.741  41.467  12.041
 9286W        W80902  33.575  19.052  11.668
 9287W        W80903  27.944  19.460   2.731
 9288W        W80904  32.546   1.741  14.407
 9289W        W80905  14.595  14.202   1.640
 9290W        W80906  13.138  29.565  14.072
 9291W        W80907  31.892  38.729  11.921
 9292W        W80908  34.669  35.772  10.327
 9293W        W80909  34.766  35.164   4.905
 9294W        W80910  39.970  25.714   2.212
 9295W        W80911  33.398   4.421  12.942
 9296W        W80912  30.535   3.837  10.782
 9297W        W80913  26.206  39.301  12.433
 9298W        W80914  25.475  39.873   1.451
 9299W        W80915  35.023  40.213   4.551
 9300W        W80916  27.967  20.336   4.885
 9301W        W80917  44.997  28.487   2.819
 9302W        W80918  32.790  15.553   3.152
 9303W        W80919  37.441  33.800   1.752
 9304W        W80920   7.149  42.531  12.467
 9305W        W80921  23.268   5.501   1.329
 9306W        W80922  37.807  17.732   4.171
 9307W        W80923  12.881  22.775   0.593
 9308W        W80924  25.231  28.904   4.264
 9309W        W80925  24.665   5.924   4.350
 9310W        W80926  17.627  12.677   0.813
 9311W        W80927  35.033  15.312  14.978
 9312W        W80928  21.206  17.833  10.530
 9313W        W80929  27.871  27.133  13.917
 9314W        W80930  16.178   8.226  12.033
 9315W        W80931  35.159   9.281   2.210
 9316W        W80932  25.251  28.965  12.577
 9317W        W80933  30.047  22.180  14.716
 9318W        W80934  11.692  29.048   4.609
 9319W        W80935  41.232   3.885   0.927
 9320W        W80936  22.808   3.821   1.105
 9321W        W80937  26.110  37.037   3.382
 9322W        W80938  11.731  44.818   0.769
 9323W        W80939  36.071  22.322   3.330
 9324W        W80940  13.973   9.259  12.336
 9325W        W80941  26.788  28.801   3.375
 9326W        W80942   3.888   5.893  14.256
 9327W        W80943  23.784  38.992   4.671
 9328W        W80944  30.641   4.305   0.713
 9329W        W80945  21.107   9.818  13.565
 9330W        W80946   9.484  21.436  11.854
 9331W        W80947   6.913   6.336   1.465
 9332W        W80948  39.580  23.246  13.923
 9333W        W80949  41.140  11.520   3.375
 9334W        W80950   3.207  10.137  12.062
 9335W        W80951  11.854   4.663   4.940
 9336W        W80952  10.993  31.055  12.338
 9337W        W80953  43.498   4.801   4.681
 9338W        W80954  41.235  40.939   1.439
 9339W        W80955  17.092  24.963  13.065
 9340W        W80956  10.370  14.539   2.696
 9341W        W80957  18.117  42.053   2.145
 9342W        W80958  27.531  14.283  12.011
 9343W        W80959  13.513   6.771   4.368
 9344W        W80960  22.525  28.245  12.442
 9345W        W80961  11.863  41.318   1.380
 9346W        W80962  14.629   4.525  14.992
 9347W        W80963  37.724  13.189  10.142
 9348W        W80964  27.685  38.279  13.916
 9349W        W80965  24.629  31.953   1.448
 9350W        W80966  36.445  32.842   1.042
 9351W        W80967  30.924  14.313   1.302
 9352W        W80968  16.857  23.617   4.642
 9353W        W80969  38.126  33.060   0.813
 9354W        W80970  42.787  32.530   1.456
 9355W        W80971  20.325  17.290  11.020
 9356W        W80972  40.800  33.184   0.004
 9357W        W80973   3.341  39.526  12.451
 9358W        W80974  30.074   4.140  12.930
 9359W        W80975  15.532  13.209   4.247
 9360W        W80976  32.445  11.564   2.752
 9361W        W80977  13.700  18.720   3.321
 9362W        W80978  19.366  14.173  11.652
 9363W        W80979  28.522  33.342  11.145
 9364W        W80980  31.249  25.213  11.133
 9365W        W80981  29.620  17.527  13.939
 9366W        W80982  11.866  38.840  14.201
 9367W        W80983  43.326  15.824   3.766
 9368W        W80984  34.188  18.718  12.040
 9369W        W80985   0.780  25.215  12.821
 9370W        W80986  13.158  36.495   2.568
 9371W        W80987  42.325  12.660  12.626
 9372W        W80988  10.122  12.747  10.650
 9373W        W80989   4.903  43.061   1.892
 9374W        W80990  17.654  27.495  11.376
 9375W        W80991  38.820  25.048   4.183
 9376W        W80992  32.878  32.474   4.654
 9377W        W80993  34.764  34.807   3.266
 9378W        W80994  27.527  22.272   2.907
 9379W        W80995  12.775  25.035   4.852
 9380W        W80996  39.769  26.118   2.780
 9381W        W80997  19.345  15.550   4.176
 9382W        W80998   7.150  33.993   4.685
 9383W        W80999  12.919  11.157  13.550
 9384W        W81000  40.454   6.968   4.172
 9385W        W81001  11.654  33.360  12.804
 9386W        W81002  28.485   6.880  13.480
 9387W        W81003  11.703  35.654  10.754
 9388W        W81004  19.243  26.465   0.699
 9389W        W81005  25.286  24.097   3.809
 9390W        W81006   5.831  10.156   4.340
 9391W        W81007  40.092  10.885   4.228
 9392W        W81008   9.713  17.623   4.794
 9393W        W81009   4.906  17.779   4.669
 9394W        W81010  43.560  23.223  12.066
 9395W        W81011  34.482  26.591  11.613
 9396W        W81012  18.049  34.476   2.220
 9397W        W81013  31.972   8.961  11.579
 9398W        W81014   7.807   8.351  13.292
 9399W        W81015  32.412  30.673   4.853
 9400W        W81016  43.749   7.514  14.423
 9401W        W81017  12.847   1.785   1.963
 9402W        W81018  40.716  28.429   2.790
 9403W        W81019   1.204   4.875  10.743
 9404W        W81020   7.674  15.018   2.765
 9405W        W81021  18.099  42.115  10.462
 9406W        W81022  20.283  10.707  11.554
 9407W        W81023   8.094  38.973   2.764
 9408W        W81024  18.151  19.011   0.727
 9409W        W81025  33.490   1.467  12.270
 9410W        W81026   4.426  15.640   0.270
 9411W        W81027  25.007  21.899  14.851
 9412W        W81028  38.041  28.229   1.403
 9413W        W81029   8.587  43.684  13.413
 9414W        W81030  44.779   0.481  10.125
 9415W        W81031  14.814   4.882  11.130
 9416W        W81032  34.910  10.728  14.431
 9417W        W81033  22.006   6.147   4.149
 9418W        W81034  39.816   8.453  13.475
 9419W        W81035  25.169   8.696   0.955
 9420W        W81036   2.228  15.593  14.233
 9421W        W81037  44.917  16.171  12.457
 9422W        W81038  39.926  18.838  13.509
 9423W        W81039  30.796  11.366  11.850
 9424W        W81040  30.651  25.084   4.092
 9425W        W81041  28.440  37.403   4.988
 9426W        W81042  22.585   7.773   0.031
 9427W        W81043  37.506  27.333   3.433
 9428W        W81044  12.747  18.627   2.744
 9429W        W81045  25.545  10.161   4.087
 9430W        W81046  29.648  26.494   0.720
 9431W        W81047  29.221  38.036  11.851
 9432W        W81048  12.135  17.212  12.435
 9433W        W81049  20.020  14.774   2.671
 9434W        W81050  38.248  38.554  11.465
 9435W        W81051  16.507  12.407  14.500
 9436W        W81052   4.982   4.480  10.549
 9437W        W81053  16.549  38.115  14.783
 9438W        W81054  20.227   0.421   1.870
 9439W        W81055  40.911  21.713  12.462
 9440W        W81056  24.696  12.889  12.657
 9441W        W81057  22.350  25.064   1.167
 9442W        W81058  25.035  14.832  13.473
 9443W        W81059  29.730   2.890  11.995
 9444W        W81060  33.480   4.436  11.520
 9445W        W81061   5.846  42.918   0.806
 9446W        W81062  30.900  12.733   3.592
 9447W        W81063  12.535  39.020   4.062
 9448W        W81064  28.344  38.329   0.304
 9449W        W81065  12.251  40.310  12.057
 9450W        W81066  14.440  44.764   2.755
 9451W        W81067  13.263   2.005  13.571
 9452W        W81068  29.576  10.850   2.806
 9453W        W81069   4.454  43.516   5.022
 9454W        W81070  27.136  41.299  12.832
 9455W        W81071   7.229  37.923  12.870
 9456W        W81072   0.720   8.306   2.013
 9457W        W81073  35.235  36.456   2.652
 9458W        W81074   6.885   6.080  14.805
 9459W        W81075  26.558  24.165   3.086
 9460W        W81076  40.033  39.801  11.049
 9461W        W81077  34.471  13.648  11.739
 9462W        W81078  20.101  34.319  12.498
 9463W        W81079   7.102  37.079  13.501
 9464W        W81080  44.199  21.371   1.763
 9465W        W81081  25.163   7.778   4.171
 9466W        W81082   6.377  25.781   0.191
 9467W        W81083  32.539  33.565   0.511
 9468W        W81084  15.177  10.234  14.064
 9469W        W81085  33.592   1.282   0.284
 9470W        W81086  12.591  13.137  12.860
 9471W        W81087  44.427   0.271  11.559
 9472W        W81088  11.327   5.300  14.906
 9473W        W81089  37.313  12.754   3.351
 9474W        W81090  41.460  14.866   4.843
 9475W        W81091  11.374  28.761  13.495
 9476W        W81092   8.358  32.817   1.937
 9477W        W81093  34.652  26.203   1.355
 9478W        W81094   6.480   4.769   3.153
 9479W        W81095  30.133   4.153   2.642
 9480W        W81096  43.277   5.148   1.204
 9481W        W81097  33.148  13.370  12.949
 9482W        W81098  23.184  11.684   2.264
 9483W        W81099  12.279  28.483   2.665
 9484W        W81100  15.333   5.407   5.081
 9485W        W81101  24.805  19.662   4.118
 9486W        W81102  29.950  31.570   4.594
 9487W        W81103   6.656  34.565   0.967
 9488W        W81104   0.454  16.341   2.840
 9489W        W81105  21.681  37.360   2.281
 9490W        W81106  24.792  22.490   2.314
 9491W        W81107  26.986  29.060  14.288
 9492W        W81108  27.503   5.784   4.065
 9493W        W81109  14.374  17.627  10.916
 9494W        W81110  24.240   2.842   1.170
 9495W        W81111  10.883  27.003  12.546
 9496W        W81112   9.655  20.526   0.984
 9497W        W81113  19.502  20.888  14.347
 9498W        W81114   7.589  24.928  11.112
 9499W        W81115  23.678  37.604  11.559
 9500W        W81116  31.668  15.436  10.550
 9501W        W81117  43.777  29.988  13.884
 9502W        W81118  21.185  22.077   2.941
 9503W        W81119  38.022   0.382   1.939
 9504W        W81120  25.816  33.740  11.047
 9505W        W81121   6.667  10.817  14.368
 9506W        W81122  19.052  41.421   0.414
 9507W        W81123  41.308  15.303   1.859
 9508W        W81124  13.156  33.909   0.652
 9509W        W81125  30.371   6.428   4.173
 9510W        W81126   8.192  29.561   1.426
 9511W        W81127  22.581  14.662   3.332
 9512W        W81128  20.465  38.054   2.225
 9513W        W81129  34.956  26.434   3.735
 9514W        W81130   3.225  17.387   4.130
 9515W        W81131  13.717   5.420  13.522
 9516W        W81132  19.430   4.059   2.647
 9517W        W81133  12.677   0.665   0.713
 9518W        W81134  10.631   4.135  11.205
 9519W        W81135  12.168   7.177  10.586
 9520W        W81136  22.153  28.401   2.676
 9521W        W81137  16.142  25.601  14.806
 9522W        W81138  16.233  12.190   3.296
 9523W        W81139  31.694  40.802   0.975
 9524W        W81140   0.735  37.458   2.036
 9525W        W81141  35.099  16.770  13.990
 9526W        W81142  40.802   7.363  12.188
 9527W        W81143  28.046  18.638  11.833
 9528W        W81144  18.996  17.423  10.516
 9529W        W81145  37.794  12.042  12.201
 9530W        W81146   7.361  13.446  11.892
 9531W        W81147   5.697  36.122   1.694
 9532W        W81148  18.586  43.888  14.718
 9533W        W81149   7.414  10.217   1.749
 9534W        W81150  25.526  27.417   0.818
 9535W        W81151  12.355  40.799   2.471
 9536W        W81152   2.961  10.430   1.316
 9537W        W81153  16.361  41.511   0.833
 9538W        W81154  18.150  29.035  10.640
 9539W        W81155  29.577  44.970   0.477
 9540W        W81156  42.834  28.380   3.808
 9541W        W81157  27.592  24.713   0.019
 9542W        W81158  17.819  40.944  14.203
 9543W        W81159   8.696  43.760  12.418
 9544W        W81160  10.804   1.240   2.722
 9545W        W81161   4.276   1.903   1.278
 9546W        W81162  28.457  44.993   2.143
 9547W        W81163  37.475  32.849  13.395
 9548W        W81164  33.681  29.874  11.620
 9549W        W81165  36.004  27.310  11.966
 9550W        W81166  41.824  23.579  11.474
 9551W        W81167  30.900  43.165   1.667
 9552W        W81168   2.518  28.545  14.370
 9553W        W81169  30.948   5.584  12.137
 9554W        W81170  40.537  35.103  12.516
 9555W        W81171  30.463  32.886   2.733
 9556W        W81172  25.891   1.766   3.666
 9557W        W81173  12.670  27.550  10.749
 9558W        W81174   7.126  41.396  13.727
 9559W        W81175  41.798  20.121   1.978
 9560W        W81176  12.812  17.244  13.784
 9561W        W81177  43.227   1.011  12.100
 9562W        W81178  18.723  27.981   0.412
 9563W        W81179   5.747   2.435   4.007
 9564W        W81180  15.163  30.064  12.560
 9565W        W81181  20.329  13.485  13.401
 9566W        W81182   8.989   5.405  14.835
 9567W        W81183   8.609  38.350  14.766
 9568W        W81184   6.932   5.633  13.487
 9569W        W81185  13.223   9.143   0.379
 9570W        W81186  15.557  44.278  14.782
 9571W        W81187   5.645  31.356  13.972
 9572W        W81188   3.013  40.340   2.172
 9573W        W81189   6.831  24.684  14.778
 9574W        W81190  28.479  24.640  13.026
 9575W        W81191  26.047  33.788  13.285
 9576W        W81192  15.642  11.487  11.634
 9577W        W81193  14.762  43.969  12.377
 9578W        W81194   9.413  17.145   3.692
 9579W        W81195  14.363  28.581  12.708
 9580W        W81196  30.082   1.692  12.931
 9581W        W81197  21.067  24.564  12.000
 9582W        W81198   3.624  13.101   0.724
 9583W        W81199   9.771   8.318  14.503
 9584W        W81200   8.642  32.464  11.357
 9585W        W81201   5.787  19.351   4.576
 9586W        W81202  23.705   6.421   2.346
 9587W        W81203   6.870  33.109   2.107
 9588W        W81204  13.161  26.539  12.533
 9589W        W81205  33.989  29.395   2.712
 9590W        W81206  22.726  23.266   2.273
 9591W        W81207  14.839  16.782  11.915
 9592W        W81208   4.455  18.031   2.713
 9593W        W81209  40.427  15.138  13.935
 9594W        W81210   3.887  39.485   2.725
 9595W        W81211  10.270  37.781   0.493
 9596W        W81212  10.629  11.313   3.061
 9597W        W81213  32.595  15.697   3.626
 9598W        W81214   6.724  42.265   3.283
 9599W        W81215  26.417  23.900  12.038
 9600W        W81216  12.403  18.664  14.964
 9601W        W81217  17.272  23.306  11.838
 9602W        W81218   6.486  11.252  12.018
 9603W        W81219   8.436   4.504  11.493
 9604W        W81220  30.061  23.697  12.378
 9605W        W81221  22.831  37.297   4.141
 9606W        W81222  17.675  42.422  13.036
 9607W        W81223  15.084  19.992   1.034
 9608W        W81224  14.822  28.571   4.437
 9609W        W81225  26.028  35.623  11.068
 9610W        W81226  44.434  35.512  12.124
 9611W        W81227  40.653  19.253   3.594
 9612W        W81228  10.323  31.498  11.530
 9613W        W81229  25.266  35.372  13.934
 9614W        W81230   7.981  30.149   0.746
 9615W        W81231  40.329  28.539   4.837
 9616W        W81232  28.440  38.291   1.762
 9617W        W81233  37.279   7.627   1.933
 9618W        W81234  32.031  25.234   4.362
 9619W        W81235   3.222   5.852   3.561
 9620W        W81236  38.782   4.874   3.140
 9621W        W81237  40.464  11.651  10.864
 9622W        W81238  32.819   5.021  12.530
 9623W        W81239   5.240  14.262   1.928
 9624W        W81240  11.361  31.094   0.328
 9625W        W81241   5.674  10.210   0.991
 9626W        W81242  30.126  42.873  12.884
 9627W        W81243  16.791  17.557   0.295
 9628W        W81244  21.105   5.442   4.972
 9629W        W81245   6.083  12.512  13.119
 9630W        W81246   0.732  42.527   2.787
 9631W        W81247  28.630  38.454  11.188
 9632W        W81248  17.650  24.408   4.554
 9633W        W81249  16.425  39.759  13.776
 9634W        W81250  18.698  28.452   3.952
 9635W        W81251  26.292  36.559  10.724
 9636W        W81252  10.770   7.303   0.742
 9637W        W81253  18.911   8.124  13.350
 9638W        W81254  16.018   8.941   4.650
 9639W        W81255   6.379   1.972  14.752
 9640W        W81256   9.113   4.622  14.309
 9641W        W81257   7.873   1.683  12.940
 9642W        W81258  17.240  20.613   0.483
 9643W        W81259  25.841  13.148  14.950
 9644W        W81260  17.779  14.333  14.058
 9645W        W81261  15.249   1.707   0.266
 9646W        W81262   0.269  12.145   1.010
 9647W        W81263   7.747  32.732  10.417
 9648W        W81264  16.738   9.166   4.324
 9649W        W81265   3.761  43.439   9.852
 9650W        W81266   7.862  16.559  12.396
 9651W        W81267  14.735  40.307   0.506
 9652W        W81268  10.761   5.951   2.627
 9653W        W81269  40.806  24.477   2.789
 9654W        W81270  24.291  30.175   4.170
 9655W        W81271  28.392  41.455  13.342
 9656W        W81272  15.273  32.329   0.916
 9657W        W81273  33.263   8.987   1.406
 9658W        W81274   9.941  37.602  12.382
 9659W        W81275  15.071  37.020   0.384
 9660W        W81276  22.520  16.196   2.752
 9661W        W81277  19.242  19.548   3.903
 9662W        W81278  21.289  42.213  10.756
 9663W        W81279   6.150  16.389   0.479
 9664W        W81280   6.485  34.619  14.808
 9665W        W81281  11.082   2.915   1.872
 9666W        W81282  24.721  38.787   1.370
 9667W        W81283  16.680  32.289   1.224
 9668W        W81284   7.006  28.387  11.413
 9669W        W81285   0.858  40.433   1.381
 9670W        W81286   3.507  21.558   4.778
 9671W        W81287  13.966   9.585   3.268
 9672W        W81288   5.854   8.682  14.438
 9673W        W81289  32.070  11.376   4.655
 9674W        W81290  36.206  24.540   1.107
 9675W        W81291  26.849  27.063   0.024
 9676W        W81292   2.222  42.531  11.515
 9677W        W81293  19.638  13.672   3.816
 9678W        W81294  37.850  23.930   3.666
 9679W        W81295  35.014   3.859  12.434
 9680W        W81296  20.557  27.203   4.183
 9681W        W81297  20.091   3.950  13.550
 9682W        W81298   9.560  21.953  11.690
 9683W        W81299  17.175  22.501  11.560
 9684W        W81300  11.210  36.055  12.896
 9685W        W81301  11.723   8.876   1.316
 9686W        W81302  23.652   5.362  14.020
 9687W        W81303  38.037  31.681  10.758
 9688W        W81304  28.381  19.009  11.036
 9689W        W81305  40.462  17.173  13.058
 9690W        W81306   1.826  26.476   0.189
 9691W        W81307  39.911  10.566   3.841
 9692W        W81308  39.902  20.169  10.706
 9693W        W81309  30.114  35.950   2.411
 9694W        W81310   6.843  19.581  12.796
 9695W        W81311   9.338  42.652  12.026
 9696W        W81312  32.927   8.537   3.229
 9697W        W81313  43.446  33.886   0.783
 9698W        W81314  41.892   3.697  11.113
 9699W        W81315  28.602  20.442   0.828
 9700W        W81316   3.886  25.535   2.093
 9701W        W81317   6.115  25.190  14.434
 9702W        W81318  39.492  36.406   2.225
 9703W        W81319   4.848  34.672  11.574
 9704W        W81320  43.449  25.228   4.031
 9705W        W81321  29.622   6.624   3.842
 9706W        W81322   4.485   2.438   2.236
 9707W        W81323   7.864  11.856  14.378
 9708W        W81324   7.170  41.725   2.825
 9709W        W81325  36.470  27.712  10.629
 9710W        W81326  22.964  29.620   1.784
 9711W        W81327  12.143  25.047  13.816
 9712W        W81328  14.679  21.992  12.363
 9713W        W81329   1.110  40.279   2.225
 9714W        W81330  27.649  12.416  10.633
 9715W        W81331  31.500   7.189  13.059
 9716W        W81332  24.049  15.124   2.343
 9717W        W81333   4.813   6.301   0.927
 9718W        W81334  33.475  20.515  11.597
 9719W        W81335  33.653   1.736   1.959
 9720W        W81336  20.999  17.649  14.581
 9721W        W81337  39.460  26.490  11.405
 9722W        W81338  25.773  22.155  12.979
 9723W        W81339  21.595  24.613   2.739
 9724W        W81340  26.141   5.986  14.432
 9725W        W81341   6.892  31.049  12.586
 9726W        W81342   4.921  21.397   0.913
 9727W        W81343  15.358  36.806  11.186
 9728W        W81344  22.227   6.635   3.314
 9729W        W81345  13.043  43.090  12.944
 9730W        W81346  40.975   2.751   1.945
 9731W        W81347  43.364  15.515   1.212
 9732W        W81348  36.040  19.017  11.642
 9733W        W81349   6.782  38.976   1.932
 9734W        W81350  21.327  27.230  13.748
 9735W        W81351  42.373  21.524  10.929
 9736W        W81352  27.332  40.459  12.411
 9737W        W81353   6.169  21.050  10.759
 9738W        W81354  42.410  14.302   0.996
 9739W        W81355  34.514  37.974   3.740
 9740W        W81356  30.207  39.884   4.427
 9741W        W81357  21.209  31.500  10.266
 9742W        W81358  30.175  28.726   3.613
 9743W        W81359  35.070  43.045  13.361
 9744W        W81360  15.450  28.051   0.410
 9745W        W81361  35.156  19.800  12.864
 9746W        W81362   5.526  30.495  12.421
 9747W        W81363  27.582  11.330  14.353
 9748W        W81364  17.387  31.940   2.297
 9749W        W81365  32.056  39.559  14.006
 9750W        W81366   9.330   3.694  13.131
 9751W        W81367  35.400  18.164  14.793
 9752W        W81368  39.782  31.374   4.097
 9753W        W81369  34.657  44.999   4.101
 9754W        W81370  13.786  20.692   2.210
 9755W        W81371  42.418  17.281  12.726
 9756W        W81372   5.636   9.310   1.159
 9757W        W81373  35.288  31.021  10.635
 9758W        W81374  33.421  24.632  11.081
 9759W        W81375  17.874  37.856   1.551
 9760W        W81376   1.341  44.482   2.228
 9761W        W81377   0.749  37.649   2.861
 9762W        W81378  41.979  15.495   3.718
 9763W        W81379  10.230   7.988   4.106
 9764W        W81380   7.950   2.189  13.726
 9765W        W81381  42.475  18.580  12.859
 9766W        W81382  17.096   4.693  13.034
 9767W        W81383  22.499  27.200   1.934
 9768W        W81384   2.008  43.754   3.797
 9769W        W81385  29.085  43.052  12.010
 9770W        W81386  13.053  37.174  14.495
 9771W        W81387  32.138  34.881   4.525
 9772W        W81388  27.691  39.795   2.917
 9773W        W81389  16.236   2.806   3.655
 9774W        W81390   1.869  20.963   0.210
 9775W        W81391   3.180   0.070  12.047
 9776W        W81392   5.409  14.046  11.258
 9777W        W81393  11.216  25.124   4.500
 9778W        W81394  37.950   8.643   4.519
 9779W        W81395  17.288  42.375  14.823
 9780W        W81396  24.466  41.422  14.364
 9781W        W81397  32.601  41.144  14.688
 9782W        W81398  16.264   0.590   3.656
 9783W        W81399  34.833   6.876  10.757
 9784W        W81400  20.190  21.962   4.861
 9785W        W81401  31.555  40.071   1.254
 9786W        W81402  15.109   3.815  14.480
 9787W        W81403  24.325  29.686   3.279
 9788W        W81404  19.980   2.457   0.202
 9789W        W81405  44.237  14.682   3.252
 9790W        W81406  29.100  24.281  14.123
 9791W        W81407  28.955  23.721   3.367
 9792W        W81408   2.032   6.708  10.800
 9793W        W81409  28.625   6.321  10.908
 9794W        W81410  39.364  10.613   3.126
 9795W        W81411   7.241  28.000   1.972
 9796W        W81412  38.405   8.365  10.994
 9797W        W81413  23.708  36.605   2.673
 9798W        W81414   9.656   8.692  11.141
 9799W        W81415   3.254  16.173   4.746
 9800W        W81416  15.617  36.575  14.315
 9801W        W81417  39.601  15.835  12.971
 9802W        W81418   9.148  44.848   3.619
 9803W        W81419  28.460  12.621   2.444
 9804W        W81420  17.713  19.768  10.430
 9805W        W81421   5.538   6.347   3.876
 9806W        W81422  18.155  25.846  13.047
 9807W        W81423   0.496   2.907  10.672
 9808W        W81424  32.104  21.493  14.824
 9809W        W81425   3.820  16.141  14.578
 9810W        W81426   2.337  36.138   2.288
 9811W        W81427  32.348  28.763   9.810
 9812W        W81428  33.322  25.787   1.938
 9813W        W81429  28.636  24.672  14.809
 9814W        W81430  25.422  12.595   2.994
 9815W        W81431   7.742  13.247  12.839
 9816W        W81432  37.803  30.029  11.167
 9817W        W81433  18.205  31.038   0.911
 9818W        W81434   3.279  39.308  13.793
 9819W        W81435  20.160   2.959  13.146
 9820W        W81436   8.874  30.406   4.280
 9821W        W81437   3.918  20.278  12.853
 9822W        W81438  28.590  39.311   1.129
 9823W        W81439  32.671   7.052   1.782
 9824W        W81440  44.221  27.055  13.754
 9825W        W81441  30.716   9.317  10.720
 9826W        W81442  32.834  33.412   3.879
 9827W        W81443  33.405   1.311   1.777
 9828W        W81444   2.957   1.838  12.407
 9829W        W81445  23.197  10.236  11.573
 9830W        W81446  20.668  31.603  13.819
 9831W        W81447  10.851   6.368  11.471
 9832W        W81448   2.978  20.782  13.885
 9833W        W81449  14.193  35.052   4.311
 9834W        W81450   6.247  19.188   2.689
 9835W        W81451  39.730  42.807  14.924
 9836W        W81452   7.499  17.153   2.131
 9837W        W81453   4.025  43.529  10.973
 9838W        W81454  36.145  34.578  13.932
 9839W        W81455  11.391  24.621  13.306
 9840W        W81456   5.860  26.402  11.642
 9841W        W81457   0.226  15.095  14.317
 9842W        W81458   4.468  24.540   5.131
 9843W        W81459  25.100   1.565   2.201
 9844W        W81460  29.665  26.754  11.674
 9845W        W81461   0.392  32.214   0.227
 9846W        W81462  28.363   7.817  12.914
 9847W        W81463   1.298  18.683  10.671
 9848W        W81464  26.749  21.920  10.765
 9849W        W81465  39.856  23.160   0.866
 9850W        W81466  35.373  13.560  13.947
 9851W        W81467  34.861  28.239   0.493
 9852W        W81468  44.853  35.827  13.948
 9853W        W81469  18.460   0.917   1.818
 9854W        W81470   8.502  37.406   1.271
 9855W        W81471  37.369  31.712  12.630
 9856W        W81472   1.225  28.943  13.515
 9857W        W81473  19.808  14.678  14.869
 9858W        W81474  39.116  30.708   1.872
 9859W        W81475  32.821  22.929   2.582
 9860W        W81476  18.122  27.368   2.212
 9861W        W81477  32.033   4.040  12.932
 9862W        W81478  25.908   5.785  14.861
 9863W        W81479   5.237  41.524  14.258
 9864W        W81480  10.846  25.568  10.958
 9865W        W81481  28.710  38.384   2.254
 9866W        W81482  11.652   1.066  14.946
 9867W        W81483  39.404  39.485  11.938
 9868W        W81484  36.282  43.606  10.621
 9869W        W81485  43.981  31.846   3.717
 9870W        W81486  19.760  44.241  12.173
 9871W        W81487   3.676  16.249   1.082
 9872W        W81488  27.510  33.262  11.337
 9873W        W81489  34.076  36.574   4.520
 9874W        W81490   0.966  13.524   3.789
 9875W        W81491  26.743  44.546  12.483
 9876W        W81492  10.145  27.055  14.159
 9877W        W81493  26.125  36.175  10.400
 9878W        W81494   1.223  33.472   0.256
 9879W        W81495   2.741   4.922   0.731
 9880W        W81496   6.266  32.674   3.799
 9881W        W81497  19.847  14.318  12.989
 9882W        W81498   4.980  22.557   2.733
 9883W        W81499  16.100  23.573  12.200
 9884W        W81500  22.218  39.232  11.287
 9885W        W81501   2.900  11.187  14.110
 9886W        W81502  17.783  41.956  12.227
 9887W        W81503   0.981  17.280   1.229
 9888W        W81504  20.453  22.716   1.655
 9889W        W81505  10.845  41.114   1.244
 9890W        W81506   6.748  36.073  14.945
 9891W        W81507  33.940  40.051   4.642
 9892W        W81508  43.930   6.061  11.562
 9893W        W81509   5.266  32.958  13.693
 9894W        W81510   8.899  37.308   3.785
 9895W        W81511  23.786  42.789   3.773
 9896W        W81512  36.689  30.922   0.883
 9897W        W81513  30.160   9.350   1.164
 9898W        W81514  34.586  36.461   3.636
 9899W        W81515  14.124  23.287   3.256
 9900W        W81516  39.447   4.399  12.968
 9901W        W81517  35.514  36.803  12.468
 9902W        W81518   1.022  26.589  13.366
 9903W        W81519  23.216  33.958  10.404
 9904W        W81520  41.873  44.885  10.621
 9905W        W81521  41.514  15.230   3.569
 9906W        W81522   4.270  38.160  12.910
 9907W        W81523  27.590   0.090   3.702
 9908W        W81524  30.071  40.587  14.030
 9909W        W81525  35.798  22.963   2.711
 9910W        W81526  40.978  10.754   4.403
 9911W        W81527  35.813  42.290   1.752
 9912W        W81528  32.568   3.585  13.590
 9913W        W81529  21.068   0.297  12.568
 9914W        W81530  41.428   8.260  14.365
 9915W        W81531  11.402  36.078  13.782
 9916W        W81532   8.613  44.057   1.822
 9917W        W81533  37.909  28.131  11.643
 9918W        W81534  26.162  11.391  13.395
 9919W        W81535   9.061  22.129   2.393
 9920W        W81536   8.865  16.519   4.034
 9921W        W81537  33.361  10.146  14.811
 9922W        W81538  11.302  33.459  12.370
 9923W        W81539  10.831   3.764  13.946
 9924W        W81540  40.790  21.666  13.351
 9925W        W81541  38.932  23.272   2.508
 9926W        W81542  42.579  29.919   1.852
 9927W        W81543  21.699   2.353   0.013
 9928W        W81544  11.744  29.889  14.234
 9929W        W81545  36.555   8.682  13.368
 9930W        W81546  32.253  31.964   1.892
 9931W        W81547  36.823  12.395   0.246
 9932W        W81548  39.835  24.535   1.770
 9933W        W81549   9.399  25.121  10.275
 9934W        W81550  28.248   0.588  12.402
 9935W        W81551  19.166  33.660   4.922
 9936W        W81552  16.372   0.359  11.224
 9937W        W81553   5.551  13.427   0.958
 9938W        W81554  29.041  16.317   0.450
 9939W        W81555  37.951   4.806   0.478
 9940W        W81556  24.785   0.302   2.538
 9941W        W81557  28.040  14.060  13.162
 9942W        W81558  16.488  21.585   3.827
 9943W        W81559  13.505   3.232   1.832
 9944W        W81560  40.297  43.562   3.865
 9945W        W81561  11.209  31.669  12.079
 9946W        W81562  27.647  17.310   3.557
 9947W        W81563   2.611  16.592  13.433
 9948W        W81564  19.933  39.983   1.797
 9949W        W81565  32.994  21.165   4.414
 9950W        W81566  16.517   9.277   2.291
 9951W        W81567  36.177  11.272   4.697
 9952W        W81568  19.466  43.421  11.588
 9953W        W81569  23.026  17.394   3.304
 9954W        W81570  31.803  17.494   3.116
 9955W        W81571  35.241  23.402   3.374
 9956W        W81572   7.670  18.097   0.217
 9957W        W81573  41.758  24.944  13.331
 9958W        W81574  41.347  39.832  13.463
 9959W        W81575   9.936   0.535  10.488
 9960W        W81576  35.899  30.941   0.210
 9961W        W81577   7.150  33.836   3.726
 9962W        W81578  19.032  22.238  11.953
 9963W        W81579  24.474  10.864   4.216
 9964W        W81580  36.889  34.085  12.910
 9965W        W81581  25.669  13.640  14.865
 9966W        W81582  35.535  21.572   4.360
 9967W        W81583  32.272  21.638  11.600
 9968W        W81584  41.571  44.384  12.858
 9969W        W81585  17.501  11.140   3.172
 9970W        W81586   3.750  36.081   3.706
 9971W        W81587  19.116  33.953  12.935
 9972W        W81588  32.556   6.464   3.779
 9973W        W81589  19.616  20.908   1.221
 9974W        W81590  13.147   3.193   3.203
 9975W        W81591  43.445  10.822   4.775
 9976W        W81592  22.976   2.705  13.593
 9977W        W81593  31.015   2.856   4.579
 9978W        W81594  28.983   2.744   3.728
 9979W        W81595  25.327  34.517   1.186
 9980W        W81596  36.222  11.436   2.396
 9981W        W81597  31.955  26.644   1.224
 9982W        W81598  40.531  23.077   2.666
 9983W        W81599  26.951  32.445   3.212
 9984W        W81600  35.037   6.417   4.111
 9985W        W81601  17.080  40.107  14.357
 9986W        W81602  24.040  27.027   2.773
 9987W        W81603  44.109  24.579   0.364
 9988W        W81604  39.078   9.766  12.589
 9989W        W81605  43.794  17.815  11.563
 9990W        W81606  22.753   1.283   2.408
 9991W        W81607  28.530   3.819  13.533
 9992W        W81608  21.191  14.600  14.575
 9993W        W81609  37.700  30.047   2.915
 9994W        W81610  22.056  20.167  10.626
 9995W        W81611  31.827   7.969   2.735
 9996W        W81612   3.910  26.193  11.480
 9997W        W81613   6.708  24.239   3.619
 9998W        W81614  20.102  35.858  10.687
 9999W        W81615  12.052  21.586   2.809
10000W        W81616  22.224  36.873  14.285
10001W        W81617  19.803  37.333  12.805
10002W        W81618   6.888  25.559   2.322
10003W        W81619  42.029  19.502  12.529
10004W        W81620   3.755   7.646  12.999
10005W        W81621  20.707  31.419   3.915
10006W        W81622  15.833  14.972   5.029
10007W        W81623  22.518  43.068  11.533
10008W        W81624  35.301  38.626   3.631
10009W        W81625  18.112  38.939   3.759
10010W        W81626   0.657  42.926  12.910
10011W        W81627  27.576   3.999   3.407
10012W        W81628  18.573  15.619   1.572
10013W        W81629  23.792  40.028  12.952
10014W        W81630  42.805  40.211  11.200
10015W        W81631  24.408  44.001   0.016
10016W        W81632  10.187   7.171  11.623
10017W        W81633   6.254  35.847  11.097
10018W        W81634  20.025  31.303   0.246
10019W        W81635  20.889   5.303  14.811
10020W        W81636  24.142  28.479   0.796
10021W        W81637   9.079  25.961   0.948
10022W        W81638  41.789  37.492  10.465
10023W        W81639  30.517  41.309  11.624
10024W        W81640   6.440  39.558  14.009
10025W        W81641   4.392  34.848   1.217
10026W        W81642  26.331  34.678  11.879
10027W        W81643  29.950  37.863   2.806
10028W        W81644  44.790  24.479  14.535
10029W        W81645  17.748  29.740   2.359
10030W        W81646  17.435  39.789  12.079
10031W        W81647   5.130  42.981  14.060
10032W        W81648  19.967  26.675   0.019
10033W        W81649  14.957  37.891   2.445
10034W        W81650   8.845  16.164   2.132
10035W        W81651  15.817  16.533   4.786
10036W        W81652  23.611  27.939   4.625
10037W        W81653  17.077   6.882  11.033
10038W        W81654  44.232   8.943   2.335
10039W        W81655  12.822  36.897   2.457
10040W        W81656   0.051  19.009  13.333
10041W        W81657  21.616  15.356  11.581
10042W        W81658  10.340  11.508   4.975
10043W        W81659  20.105  13.382  12.526
10044W        W81660  14.297  39.013   3.344
10045W        W81661  11.248   5.861   2.966
10046W        W81662  34.883  35.923   1.828
10047W        W81663  11.083  32.942  10.402
10048W        W81664   1.980  18.229   4.707
10049W        W81665  15.493  29.688   5.029
10050W        W81666   5.886  13.622   0.015
10051W        W81667   8.072  25.023   0.012
10052W        W81668  32.327  30.634   4.329
10053W        W81669   7.202  38.535  13.477
10054W        W81670  27.509  33.070   1.866
10055W        W81671  32.148   2.219  13.820
10056W        W81672  27.560  41.155  14.183
10057W        W81673  36.452  25.890   2.797
10058W        W81674  10.290   4.534  12.531
10059W        W81675  32.359  42.464   3.906
10060W        W81676  41.150   9.809  10.751
10061W        W81677   8.643   8.677   1.743
10062W        W81678   7.698  44.446  14.887
10063W        W81679  12.603   6.177   2.759
10064W        W81680  29.075  43.815   3.716
10065W        W81681  38.415  39.084  13.896
10066W        W81682   7.678  33.524   4.742
10067W        W81683  13.433   8.871   1.120
10068W        W81684  30.697  28.946   2.909
10069W        W81685  36.620  19.788   3.299
10070W        W81686  29.064  32.811   4.181
10071W        W81687   2.450   2.620   2.233
10072W        W81688   2.959  12.795   1.200
10073W        W81689  32.147  17.755   1.911
10074W        W81690  10.393   3.714  12.975
10075W        W81691  34.464  34.408  11.137
10076W        W81692  41.733  18.703  14.477
10077W        W81693  19.638  25.489   2.381
10078W        W81694  38.982  42.794  12.430
10079W        W81695  21.319  36.854   1.469
10080W        W81696  42.984  32.955  13.724
10081W        W81697  33.870  10.897   4.096
10082W        W81698  43.440  32.404   3.230
10083W        W81699  16.478  25.671   2.599
10084W        W81700  22.886  24.469   0.872
10085W        W81701  21.931  41.213  14.897
10086W        W81702  11.125   7.136  14.415
10087W        W81703  41.378  43.932  12.667
10088W        W81704   5.702  33.056  13.427
10089W        W81705   2.058  27.586  12.089
10090W        W81706  32.536  14.705   3.320
10091W        W81707   1.258   2.249   2.678
10092W        W81708  17.112  15.105   4.414
10093W        W81709  41.899  17.400   5.094
10094W        W81710  41.810  10.920  13.544
10095W        W81711  40.471  43.000  14.235
10096W        W81712  39.551  26.503  12.896
10097W        W81713  25.168  11.812   0.011
10098W        W81714  10.356  33.529  12.348
10099W        W81715  16.621  19.273  13.454
10100W        W81716  16.499   6.913  14.339
10101W        W81717   8.729  11.360  13.819
10102W        W81718   5.167  10.513  11.914
10103W        W81719   3.882   5.559  13.379
10104W        W81720   6.956  23.531   0.208
10105W        W81721  16.590  38.827  13.387
10106W        W81722  10.162   3.348   2.725
10107W        W81723   8.577  33.623   4.495
10108W        W81724  39.064  14.200   1.834
10109W        W81725  11.671  31.520   0.351
10110W        W81726  43.753   7.763   4.644
10111W        W81727  33.953  34.427  11.205
10112W        W81728  22.466  41.804   3.784
10113W        W81729  15.047  15.870  12.476
10114W        W81730  22.505  31.911   3.188
10115W        W81731  16.010  14.819  10.584
10116W        W81732  27.201   1.403   1.736
10117W        W81733  35.882  42.352  13.960
10118W        W81734  35.149   4.947   4.607
10119W        W81735  29.729  13.386   0.346
10120W        W81736  12.672  37.961  14.940
10121W        W81737  17.590  15.828   1.699
10122W        W81738  35.462  27.590   1.710
10123W        W81739  17.806  21.792   2.353
10124W        W81740  39.141  37.058   2.915
10125W        W81741  14.777  44.904  14.899
10126W        W81742  17.733   3.337   5.061
10127W        W81743  36.397  43.508  14.941
10128W        W81744  22.702  31.899   1.404
10129W        W81745  11.567  38.502   0.467
10130W        W81746  26.284  21.581   2.916
10131W        W81747  33.495   2.782  14.304
10132W        W81748   2.175   5.159  13.075
10133W        W81749   9.639  32.985  14.702
10134W        W81750  42.740  36.073   4.818
10135W        W81751  38.373  35.895  11.460
10136W        W81752   0.170   6.796  13.602
10137W        W81753  13.794  18.495   0.415
10138W        W81754   9.948  23.267  13.849
10139W        W81755   4.087   4.531  13.343
10140W        W81756  29.028  40.281   2.854
10141W        W81757   5.410  34.925   0.778
10142W        W81758   6.789  39.558  14.819
10143W        W81759  14.134  16.020  12.927
10144W        W81760  32.951  24.567   3.213
10145W        W81761  27.632   0.434  13.934
10146W        W81762  12.561  17.566   2.000
10147W        W81763  43.536  13.415  10.686
10148W        W81764   2.773  20.668  11.920
10149W        W81765   2.559   7.895   0.989
10150W        W81766  11.604   0.699  11.094
10151W        W81767  22.732  31.209   0.096
10152W        W81768  28.622  37.914   1.000
10153W        W81769  41.473   8.739   0.729
10154W        W81770  20.461  34.401  11.143
10155W        W81771   7.292  29.344   4.627
10156W        W81772  32.027   3.908  14.752
10157W        W81773  41.953  26.242  13.840
10158W        W81774  39.144   0.974  13.136
10159W        W81775  20.550  31.486   1.194
10160W        W81776  39.141  28.158  14.986
10161W        W81777  39.488  31.491  12.475
10162W        W81778  19.667  42.072  12.969
10163W        W81779  26.147   1.017   3.248
10164W        W81780  18.520  44.367   3.653
10165W        W81781  27.941  18.979   2.924
10166W        W81782  27.595  19.235  13.480
10167W        W81783  29.031  20.638   4.167
10168W        W81784   9.355  11.760   4.153
10169W        W81785  24.055  43.925  12.446
10170W        W81786  27.476  19.488   0.774
10171W        W81787  36.165  38.956   2.233
10172W        W81788  34.920  20.097   2.777
10173W        W81789  33.289  32.628   4.934
10174W        W81790  22.012   6.220  12.514
10175W        W81791  24.261   6.519  10.744
10176W        W81792  21.605  27.337   2.361
10177W        W81793   2.242   9.703   4.357
10178W        W81794   1.455   0.344   4.530
10179W        W81795   8.909   5.938   4.813
10180W        W81796  13.333  33.816   2.009
10181W        W81797  38.416  28.795   3.444
10182W        W81798  22.109   3.208  12.489
10183W        W81799  17.245   4.268   3.384
10184W        W81800  40.566   4.138  14.154
10185W        W81801  20.258  23.805  12.329
10186W        W81802  32.439  17.577  13.310
10187W        W81803  44.003   7.308   4.562
10188W        W81804  16.989   5.697  10.310
10189W        W81805  27.151  43.865   1.338
10190W        W81806  37.250   4.279   4.586
10191W        W81807  16.326  15.831  11.984
10192W        W81808  41.901  15.220   0.225
10193W        W81809   5.350   1.511   1.133
10194W        W81810   6.612   4.142  13.444
10195W        W81811  36.360  17.707   3.762
10196W        W81812  42.977  36.476  12.106
10197W        W81813   6.633  15.338  13.571
10198W        W81814  44.578  15.056  13.512
10199W        W81815  39.337  44.922  14.262
10200W        W81816   3.862  41.839  14.543
10201W        W81817  23.482  15.098   3.251
10202W        W81818  21.552   1.654  14.472
10203W        W81819  41.753  22.870   0.049
10204W        W81820  18.883  41.209  12.602
10205W        W81821  27.000   1.289   3.525
10206W        W81822  43.462  16.220   0.743
10207W        W81823  27.599  27.015  13.122
10208W        W81824  10.108  43.224   3.007
10209W        W81825  11.182   5.942  11.575
10210W        W81826   8.452  15.475  11.956
10211W        W81827  33.524   2.817  10.904
10212W        W81828   5.399  30.099  13.019
10213W        W81829  19.352   4.110   1.368
10214W        W81830   1.723  25.522  14.164
10215W        W81831  16.770  24.494   0.406
10216W        W81832   7.679  43.849  11.528
10217W        W81833  33.910  42.115  11.998
10218W        W81834   1.210  38.733   4.340
10219W        W81835  19.094  36.321   3.618
10220W        W81836  42.401  16.064   3.227
10221W        W81837  26.511  42.815  14.018
10222W        W81838  19.188   1.151   0.483
10223W        W81839   5.984  40.943   1.642
10224W        W81840  29.827  26.736  14.858
10225W        W81841  38.687   6.257   4.187
10226W        W81842  17.321  44.221  11.598
10227W        W81843  42.751  28.025  11.562
10228W        W81844   3.951   9.780  12.872
10229W        W81845  33.778   0.269   0.776
10230W        W81846  28.078  23.207   3.593
10231W        W81847  27.920  33.812   3.869
10232W        W81848  15.221  27.758   0.778
10233W        W81849  18.037   3.418   1.684
10234W        W81850  24.684  32.412   4.860
10235W        W81851  41.281  10.668   4.876
10236W        W81852  37.668   4.643  13.480
10237W        W81853  14.373  37.330   3.164
10238W        W81854  14.317   6.453   2.195
10239W        W81855  25.006  11.630  12.980
10240W        W81856  25.980  36.601   2.645
10241W        W81857  37.429  24.101   0.720
10242W        W81858  24.780  25.356  11.047
10243W        W81859   4.392  10.765  14.428
10244W        W81860  30.733  44.711  14.819
10245W        W81861  10.398   1.009  11.640
10246W        W81862   2.030  18.776  12.468
10247W        W81863  20.602  10.722  13.495
10248W        W81864  33.492  24.926   2.396
10249W        W81865  29.271  24.107  12.266
10250W        W81866  26.858  43.755   1.740
10251W        W81867  39.302   3.132  10.889
10252W        W81868   7.869   2.346   0.010
10253W        W81869  13.119   9.617   2.305
10254W        W81870  14.419  20.152  10.645
10255W        W81871  30.838  24.249  13.390
10256W        W81872  25.725  41.513  12.990
10257W        W81873  38.897  20.571  11.533
10258W        W81874  37.979  38.118  11.589
10259W        W81875  14.585   4.914   2.854
10260W        W81876  40.455  32.114   3.055
10261W        W81877  20.625  42.269   4.621
10262W        W81878  21.057  26.892  11.571
10263W        W81879  35.526  15.897  14.860
10264W        W81880  10.674  38.834  11.356
10265W        W81881   8.149  34.127  13.676
10266W        W81882  22.994  37.429   0.028
10267W        W81883   8.272  29.665  14.533
10268W        W81884   7.646  38.015   1.424
10269W        W81885  16.845  14.358  12.643
10270W        W81886  29.015  23.728   4.627
10271W        W81887  30.580  17.058   2.222
10272W        W81888  33.462  37.920  12.379
10273W        W81889  31.440  30.401  11.441
10274W        W81890  24.262   6.340  11.605
10275W        W81891  30.746   1.826  11.197
10276W        W81892  16.235  43.483  12.924
10277W        W81893  30.919  30.628  12.675
10278W        W81894  13.082  44.453  12.165
10279W        W81895  11.809   0.962   3.551
10280W        W81896  38.886  12.862   4.927
10281W        W81897  43.380   7.761   3.444
10282W        W81898   9.109  33.328  11.072
10283W        W81899  22.781   6.296   4.598
10284W        W81900  24.955  41.380  11.162
10285W        W81901  22.259  36.301   3.697
10286W        W81902   5.328  43.860  11.948
10287W        W81903  19.801  42.035  11.554
10288W        W81904  13.309   0.038  10.895
10289W        W81905  37.254  31.281  11.897
10290W        W81906  32.539  16.727   0.665
10291W        W81907   0.006  39.434   1.361
10292W        W81908  13.033  42.897  14.298
10293W        W81909  40.565  27.133   1.604
10294W        W81910  13.253  28.665   0.793
10295W        W81911  22.958  21.762   0.927
10296W        W81912  11.385  23.764   0.801
10297W        W81913  18.183  33.670  14.952
10298W        W81914  33.311  15.343  13.494
10299W        W81915  40.846   5.869   4.564
10300W        W81916  19.311  26.632   4.612
10301W        W81917   1.972  42.246   0.753
10302W        W81918  38.576   2.925  12.864
10303W        W81919   8.677   2.475   5.053
10304W        W81920   1.846  40.975   0.040
10305W        W81921  19.894  36.980  13.333
10306W        W81922  14.837   8.264  11.153
10307W        W81923  18.848  24.340   2.222
10308W        W81924   9.170   8.163   1.822
10309W        W81925   7.287  13.183  10.732
10310W        W81926  22.085  31.673  14.255
10311W        W81927  21.886  17.553  13.314
10312W        W81928   1.735  12.591  13.336
10313W        W81929  20.266   9.660  14.633
10314W        W81930  18.238  26.345  12.936
10315W        W81931  21.556   0.292  12.280
10316W        W81932  44.244  11.181  11.521
10317W        W81933  39.770   7.678   4.853
10318W        W81934  22.087  19.096   2.808
10319W        W81935  31.902   1.695   0.076
10320W        W81936  26.148   0.401   1.451
10321W        W81937  39.881   7.913  11.990
10322W        W81938  20.173  24.325  10.496
10323W        W81939  40.928  36.172   4.023
10324W        W81940  11.665  43.063   9.944
10325W        W81941  33.923  15.693   1.832
10326W        W81942   0.383   0.898   2.676
10327W        W81943  21.135   9.836  14.452
10328W        W81944  34.154   4.397  14.339
10329W        W81945  28.922  19.846  13.449
10330W        W81946  41.381  22.666  13.741
10331W        W81947   2.299   7.682  11.937
10332W        W81948  43.629  37.058   2.472
10333W        W81949  35.662  14.737   1.045
10334W        W81950  17.025  23.665  12.116
10335W        W81951  27.011  13.362  11.050
10336W        W81952  37.404   6.923  13.056
10337W        W81953  44.790  22.988   1.165
10338W        W81954   5.676  17.523  10.323
10339W        W81955   8.892  32.166  14.464
10340W        W81956   1.774  26.695  11.167
10341W        W81957  44.408  12.356  12.103
10342W        W81958  10.418  43.903   4.176
10343W        W81959  43.373  38.162  10.601
10344W        W81960  30.513  30.555  14.484
10345W        W81961  18.816  44.897  14.526
10346W        W81962   8.877  13.828   2.815
10347W        W81963  21.188   3.237  11.408
10348W        W81964  25.951  38.225  10.599
10349W        W81965  17.177  14.275   1.235
10350W        W81966  42.514  32.542   4.662
10351W        W81967  22.383   1.399  14.060
10352W        W81968  19.682  10.618   0.825
10353W        W81969  28.025  21.570  12.061
10354W        W81970  36.841  12.827   3.104
10355W        W81971   6.859  20.162   3.314
10356W        W81972  37.924  34.639  12.423
10357W        W81973  31.588   9.246  10.690
10358W        W81974  11.222  24.120   0.399
10359W        W81975  30.455  33.128   0.559
10360W        W81976   6.396   5.330   2.429
10361W        W81977  32.072  43.536   3.675
10362W        W81978   4.024   7.371  14.658
10363W        W81979  43.441  32.142  10.279
10364W        W81980   5.706   2.782   1.866
10365W        W81981  13.020  32.080   4.338
10366W        W81982   5.564  37.799  11.880
10367W        W81983  37.965  25.707  12.630
10368W        W81984  43.221  15.120   2.725
10369W        W81985  34.980  31.535   1.380
10370W        W81986   2.798  16.414  13.935
10371W        W81987  35.511  40.255   0.351
10372W        W81988  15.856   0.133  13.796
10373W        W81989  27.200  20.784  13.783
10374W        W81990  18.702   2.385   1.882
10375W        W81991  39.059   7.440   2.312
10376W        W81992  25.159  26.968   2.694
10377W        W81993  36.924  44.102  12.429
10378W        W81994  16.179   4.510   5.022
10379W        W81995  16.790  20.833  11.168
10380W        W81996   4.025  11.338  10.405
10381W        W81997  31.541  37.918   0.214
10382W        W81998   7.171  12.577  11.448
10383W        W81999  39.494  20.121  11.527
10384W        W82000  27.438  33.963  14.945
10385W        W82001   8.442  13.656   2.000
10386W        W82002  43.332  41.892   1.846
10387W        W82003  24.675  39.568  13.457
10388W        W82004   5.945  42.859  12.923
10389W        W82005  12.300  14.859   4.147
10390W        W82006  28.148  27.454  14.715
10391W        W82007  28.961  12.676  12.039
10392W        W82008  12.360  19.272   1.725
10393W        W82009  21.686  17.221   1.257
10394W        W82010   4.236  13.737  13.868
10395W        W82011  30.000  39.279   1.776
10396W        W82012  22.583  31.530  14.270
10397W        W82013  27.918  11.301   4.083
10398W        W82014  17.242   7.174  14.861
10399W        W82015  44.884  29.108   1.303
10400W        W82016  17.647   1.981  11.100
10401W        W82017  34.176  35.855   2.245
10402W        W82018  33.619  39.015  12.470
10403W        W82019   7.206   5.734  10.668
10404W        W82020  30.666  31.738  11.428
10405W        W82021   4.495  30.797  14.555
10406W        W82022  11.135  44.257   2.718
10407W        W82023  34.114  15.923   2.247
10408W        W82024   8.320   0.480  13.953
10409W        W82025  21.936  19.008   2.309
10410W        W82026  36.983  31.656   2.941
10411W        W82027  38.581  41.246   0.771
10412W        W82028  11.200  38.066  14.107
10413W        W82029   9.589   5.934  14.487
10414W        W82030  44.559  24.783   1.275
10415W        W82031  23.502  10.710  11.158
10416W        W82032  20.066  23.901   3.126
10417W        W82033  40.782   1.412  11.337
10418W        W82034  20.285  15.349   1.876
10419W        W82035  10.689  10.839   4.858
10420W        W82036  30.419  19.034  13.591
10421W        W82037  38.865  21.265  13.346
10422W        W82038  17.951   1.054   2.846
10423W        W82039  12.857   9.854  10.728
10424W        W82040  13.255  25.250   5.041
10425W        W82041  28.510  23.564  13.316
10426W        W82042  35.051  32.387   3.811
10427W        W82043  21.991  23.714   1.364
10428W        W82044  16.129  36.938   4.501
10429W        W82045  31.652  12.648  13.689
10430W        W82046  18.803   3.702   3.339
10431W        W82047  14.281  20.534  12.884
10432W        W82048  28.552  38.954   3.415
10433W        W82049  43.263  31.152  11.201
10434W        W82050   3.274   2.729  14.124
10435W        W82051  20.500  40.652   1.280
10436W        W82052  40.842  40.367   0.899
10437W        W82053  28.609  12.116   4.745
10438W        W82054  28.198  17.845  12.513
10439W        W82055  25.637  11.818  14.727
10440W        W82056  44.975  18.242   2.363
10441W        W82057  25.733  26.737   3.640
10442W        W82058   2.761  36.638  11.281
10443W        W82059  24.569   8.296  13.872
10444W        W82060  22.689  23.637   3.768
10445W        W82061  33.085   2.705   2.210
10446W        W82062  38.519   1.210   3.217
10447W        W82063   6.369  24.425  12.415
10448W        W82064   3.057  32.401  13.184
10449W        W82065  42.022   9.467  12.282
10450W        W82066   4.652   3.873  13.519
10451W        W82067  19.558  34.160   0.771
10452W        W82068  31.141  21.005  14.027
10453W        W82069  16.630  13.604   4.181
10454W        W82070  25.771   2.395   2.099
10455W        W82071   6.667  38.697  12.010
10456W        W82072   5.192  43.571  12.954
10457W        W82073   5.373  11.220   3.602
10458W        W82074   7.672  24.149   4.040
10459W        W82075  20.738   2.543  14.719
10460W        W82076   8.908  28.146   4.178
10461W        W82077   9.638  37.454  11.860
10462W        W82078  32.050  14.589   1.711
10463W        W82079  28.675  11.189   4.708
10464W        W82080  43.298  11.681  10.084
10465W        W82081  24.025  25.013   0.400
10466W        W82082  28.960  32.984  14.679
10467W        W82083  29.744  14.670  11.094
10468W        W82084  13.620  27.340   2.722
10469W        W82085   7.624  30.132  14.023
10470W        W82086   3.668   9.550  11.551
10471W        W82087  42.802  41.585  10.949
10472W        W82088  39.996   5.116   4.482
10473W        W82089  35.353  36.894   0.857
10474W        W82090  38.984  24.067   0.883
10475W        W82091  44.660  26.635  11.163
10476W        W82092  24.541  11.287   3.841
10477W        W82093  24.105  29.502  12.066
10478W        W82094  24.552  43.938  13.994
10479W        W82095   4.910  13.854   1.833
10480W        W82096  26.683  35.856   2.925
10481W        W82097   2.926  30.573  12.839
10482W        W82098  33.369  15.030  10.762
10483W        W82099  39.993  28.604  11.147
10484W        W82100  13.144  14.052  13.471
10485W        W82101  15.510  41.511   0.348
10486W        W82102  15.828  40.020   2.270
10487W        W82103  41.528  15.292  11.573
10488W        W82104  16.849  44.368  14.445
10489W        W82105  24.134  11.336  14.526
10490W        W82106  14.367  31.721   5.030
10491W        W82107  39.941  43.450  10.328
10492W        W82108  41.649   4.751   4.676
10493W        W82109   6.280  43.865   1.598
10494W        W82110   0.348  32.683  14.967
10495W        W82111  40.569   9.192  11.254
10496W        W82112  18.199  10.898  14.849
10497W        W82113   9.886  14.326   2.733
10498W        W82114   8.841   6.261  13.521
10499W        W82115  27.427   7.272   3.521
10500W        W82116  32.878  29.174   3.818
10501W        W82117  17.264  17.833  13.876
10502W        W82118  16.650  27.984   2.883
10503W        W82119  21.105  21.626   2.732
10504W        W82120  35.031  33.809  13.766
10505W        W82121  13.709  37.321  12.347
10506W        W82122  43.249  26.050  13.013
10507W        W82123  31.691  33.028   3.286
10508W        W82124   7.224   3.796   0.179
10509W        W82125  29.304   4.734  14.961
10510W        W82126  17.868  39.566   1.333
10511W        W82127  30.188  16.731   0.444
10512W        W82128  12.654  26.627   0.673
10513W        W82129  10.184  21.071   2.283
10514W        W82130  37.787  12.109  12.773
10515W        W82131   7.738  32.421  11.400
10516W        W82132  21.168  14.149   0.035
10517W        W82133   2.431  31.840   2.240
10518W        W82134  18.755   2.240   3.436
10519W        W82135  19.422   2.698  13.907
10520W        W82136  28.829  19.695   0.466
10521W        W82137   6.682  42.801  12.520
10522W        W82138   2.955  25.153   9.724
10523W        W82139  40.974   8.511  14.492
10524W        W82140  22.482  25.512  14.330
10525W        W82141  41.280  33.674   1.537
10526W        W82142  16.232  34.149   0.370
10527W        W82143  37.304  20.634  14.433
10528W        W82144  11.235  41.442  13.946
10529W        W82145  21.539  33.450   3.627
10530W        W82146  15.303  44.332   1.706
10531W        W82147  30.525  18.510  13.967
10532W        W82148  24.052  35.131  12.652
10533W        W82149  25.955  43.754   2.294
10534W        W82150  12.763  22.499  14.775
10535W        W82151  36.044  36.844   2.456
10536W        W82152  19.516  39.505   4.738
10537W        W82153  43.799  42.378   2.444
10538W        W82154  39.671  42.427   2.342
10539W        W82155   3.442  36.075  11.165
10540W        W82156  11.586  24.040   2.525
10541W        W82157   6.622  37.153   0.785
10542W        W82158  39.674  43.774  13.499
10543W        W82159  41.630   8.269   0.865
10544W        W82160  28.496  44.374  12.896
10545W        W82161   8.333  25.309   4.961
10546W        W82162  31.549  31.401  10.666
10547W        W82163  43.362  21.328   1.425
10548W        W82164  13.275  30.468   3.272
10549W        W82165  21.541  36.864   3.151
10550W        W82166   6.391  22.137  11.036
10551W        W82167  23.287   6.677  14.973
10552W        W82168  21.287  16.669  12.635
10553W        W82169  35.409   2.816   1.966
10554W        W82170  26.482  18.602  12.536
10555W        W82171   8.795  25.698  14.913
10556W        W82172  30.114   1.000   0.058
10557W        W82173  11.641  15.863  12.437
10558W        W82174   2.010  38.449   0.830
10559W        W82175  37.890   2.819  13.413
10560W        W82176  31.243  13.797  11.158
10561W        W82177  24.040  31.811   0.781
10562W        W82178  14.201  17.792  12.950
10563W        W82179  22.188  20.864  12.069
10564W        W82180   8.738  29.005  11.653
10565W        W82181  11.742  29.500  11.557
10566W        W82182  32.162  18.290  13.046
10567W        W82183   0.391  21.299   4.901
10568W        W82184  13.788  36.694   0.975
10569W        W82185  18.471   2.880   2.310
10570W        W82186  32.257  13.586  11.110
10571W        W82187  15.363  27.696  11.451
10572W        W82188  43.737  11.807   0.222
10573W        W82189   7.391  23.933  14.948
10574W        W82190   3.981  36.158  10.760
10575W        W82191  29.364  19.126  10.708
10576W        W82192  33.922  26.548   4.539
10577W        W82193  31.133  32.392  12.483
10578W        W82194  34.138   4.706   4.517
10579W        W82195  16.425   0.522  12.578
10580W        W82196  40.589  39.871  10.320
10581W        W82197  11.784  38.794   2.265
10582W        W82198  43.934  13.839   1.141
10583W        W82199  40.366  10.342  14.903
10584W        W82200   1.360   2.937   4.329
10585W        W82201  35.310  12.392  12.900
10586W        W82202   6.647   6.823   4.547
10587W        W82203  24.890  25.523  13.112
10588W        W82204  42.700  10.345   1.482
10589W        W82205  27.928  43.822   3.843
10590W        W82206  16.235  30.239   2.284
10591W        W82207  29.563  20.960   2.253
10592W        W82208   8.299   1.567  11.525
10593W        W82209   0.861  44.943  12.418
10594W        W82210   9.547  28.937   2.180
10595W        W82211  36.914  35.355  11.626
10596W        W82212   4.417  44.177   4.157
10597W        W82213  23.991  16.369   4.084
10598W        W82214  14.720  14.582   2.020
10599W        W82215  31.572  14.868   3.273
10600W        W82216  41.285   4.747  14.957
10601W        W82217  38.872  12.592  11.445
10602W        W82218  20.026  30.257  10.364
10603W        W82219  24.045   1.733   3.798
10604W        W82220  22.234  23.236   1.377
10605W        W82221  32.959  39.758  11.475
10606W        W82222  32.570  30.658  13.959
10607W        W82223   2.698  20.607  13.422
10608W        W82224  21.773   7.638   1.742
10609W        W82225  34.086   3.473  14.061
10610W        W82226  37.967  36.246   1.860
10611W        W82227  33.767   7.506  12.854
10612W        W82228  14.705  15.578   1.659
10613W        W82229  28.768  32.037  11.498
10614W        W82230  40.606  42.434   4.712
10615W        W82231  26.927  14.824   1.999
10616W        W82232  19.845   0.284  13.527
10617W        W82233  37.558  44.206  12.893
10618W        W82234  40.475  38.985   3.454
10619W        W82235  18.968  34.455  11.594
10620W        W82236  23.175   5.239   3.358
10621W        W82237  17.692  14.108   2.126
10622W        W82238  29.796   3.762  13.825
10623W        W82239   2.263  10.254  10.089
10624W        W82240  20.618  20.056  14.441
10625W        W82241  30.063  26.055  10.741
10626W        W82242  30.576  41.585  12.073
10627W        W82243  42.330  37.812   0.691
10628W        W82244  14.274  35.265  11.636
10629W        W82245  20.547  15.658  10.517
10630W        W82246  36.426  11.832  11.192
10631W        W82247  29.550  22.216  14.523
10632W        W82248  19.635  44.707  11.948
10633W        W82249  11.266   3.381   4.242
10634W        W82250  22.020  29.189  12.463
10635W        W82251  11.784  42.049  11.368
10636W        W82252  38.422   7.409  11.581
10637W        W82253  15.002  19.004   1.425
10638W        W82254  15.451  38.793   4.450
10639W        W82255   6.866  26.441   4.770
10640W        W82256  21.201  15.864  11.047
10641W        W82257  25.458  26.596   4.610
10642W        W82258  41.823  22.708  10.240
10643W        W82259  19.332   9.047  11.964
10644W        W82260  38.068  26.073  13.559
10645W        W82261  36.286  22.614   1.886
10646W        W82262  29.476  38.567  13.467
10647W        W82263   7.119  22.674   0.864
10648W        W82264  31.778  10.831  11.122
10649W        W82265  13.901  41.480  13.343
10650W        W82266  26.043  27.969   3.808
10651W        W82267  13.150  41.103   1.795
10652W        W82268  28.597   1.989   1.927
10653W        W82269  31.886  31.780  11.938
10654W        W82270  14.168  23.104  10.667
10655W        W82271   8.694  35.614  14.460
10656W        W82272  31.667  30.610   0.945
10657W        W82273   0.299  19.583  14.047
10658W        W82274  33.070  29.948   2.358
10659W        W82275  21.826  11.132  13.434
10660W        W82276  37.936   5.736   2.745
10661W        W82277   1.821  36.963   3.187
10662W        W82278  44.536  22.250  11.643
10663W        W82279   9.799  33.549   0.453
10664W        W82280  40.241  28.976   4.524
10665W        W82281  33.401  19.756  12.406
10666W        W82282  26.368  24.959   4.587
10667W        W82283  28.915  14.689  11.585
10668W        W82284  27.472   6.757   3.419
10669W        W82285  10.789  18.580   3.114
10670W        W82286  33.513  40.865  12.472
10671W        W82287  38.352   7.576   2.734
10672W        W82288  15.655  43.293  12.670
10673W        W82289   9.593  42.924   1.759
10674W        W82290  24.387   9.326   4.422
10675W        W82291  20.100  29.716  14.552
10676W        W82292  41.260   9.309  14.096
10677W        W82293  35.589  13.601  14.901
10678W        W82294  15.295   7.280   0.764
10679W        W82295  31.221   1.500   3.298
10680W        W82296  21.175  19.820   3.586
10681W        W82297   8.470  34.498  13.847
10682W        W82298  33.531   4.241  10.662
10683W        W82299  44.346  31.838  14.823
10684W        W82300  32.999  24.135  13.353
10685W        W82301   8.887  38.849   3.126
10686W        W82302   1.046  10.609   5.042
10687W        W82303  32.500  17.525  11.853
10688W        W82304   9.248   0.001  14.308
10689W        W82305  11.906   7.798  12.998
10690W        W82306  40.603   3.145   3.666
10691W        W82307  10.578   7.197   3.887
10692W        W82308   2.311  33.532  11.198
10693W        W82309  12.117   1.453   4.346
10694W        W82310  33.408  36.609   0.065
10695W        W82311   4.172   4.101  13.654
10696W        W82312  22.048  19.636  10.726
10697W        W82313  17.560  36.913   1.345
10698W        W82314  43.215  12.453   2.778
10699W        W82315  42.741  21.305  12.624
10700W        W82316  33.590  36.535  14.581
10701W        W82317  30.715  43.176   2.153
10702W        W82318   3.768  26.012   4.119
10703W        W82319  15.700  15.362   4.235
10704W        W82320  20.705  20.324   4.683
10705W        W82321  27.029  14.214  11.937
10706W        W82322   8.265  20.169   0.364
10707W        W82323  25.618   5.882   1.139
10708W        W82324  33.158  37.542   0.931
10709W        W82325  23.494  11.066   4.529
10710W        W82326  41.809  14.253   0.246
10711W        W82327  11.629  16.048   1.821
10712W        W82328  22.108  23.423   2.821
10713W        W82329  30.203  39.444  12.829
10714W        W82330  36.323   6.479   4.604
10715W        W82331  29.194  23.827   1.847
10716W        W82332  36.372  12.671  13.850
10717W        W82333   4.710   6.941  14.451
10718W        W82334  32.889  24.961   4.233
10719W        W82335  44.391  30.057   3.756
10720W        W82336  43.929  38.765  10.931
10721W        W82337  12.035  39.226  12.600
10722W        W82338  44.235  42.991  14.554
10723W        W82339  37.553  36.289  14.294
10724W        W82340   2.645  42.722   3.826
10725W        W82341   5.721  16.800   3.782
10726W        W82342  13.776  18.980  11.583
10727W        W82343  10.483  17.954   5.007
10728W        W82344   7.125   8.129  11.552
10729W        W82345   2.743  43.335  14.042
10730W        W82346  35.412  26.642   3.652
10731W        W82347   0.904   8.770   2.202
10732W        W82348  26.575  34.575   4.453
10733W        W82349  13.298   3.189  11.921
10734W        W82350  42.298  25.181  11.073
10735W        W82351  42.479  36.559  12.024
10736W        W82352   3.992  14.123  14.962
10737W        W82353  33.806  37.107  12.964
10738W        W82354  28.563  41.616   0.521
10739W        W82355  14.126   6.760  10.268
10740W        W82356  28.908  20.762  13.605
10741W        W82357  21.055  24.913   2.729
10742W        W82358   8.626  21.751   4.146
10743W        W82359  15.048  13.381   1.462
10744W        W82360   5.307  27.916  10.723
10745W        W82361   3.190  10.401  13.818
10746W        W82362  21.324  15.189  11.980
10747W        W82363  13.342  25.656   3.208
10748W        W82364  13.137  40.429   2.386
10749W        W82365  22.687  30.686   0.059
10750W        W82366   7.889  31.217  12.352
10751W        W82367  26.614  41.000   2.277
10752W        W82368  27.513  14.635  10.388
10753W        W82369  40.367  38.399  13.887
10754W        W82370  21.560  35.013  12.864
10755W        W82371   0.948   5.013  12.003
10756W        W82372   6.566   2.313  13.266
10757W        W82373  28.979  43.353   4.294
10758W        W82374   8.183  44.277  11.151
10759W        W82375  11.731  39.563  14.423
10760W        W82376   9.838  31.497  12.157
10761W        W82377  11.237  17.778   3.100
10762W        W82378  24.945  33.424   1.437
10763W        W82379  27.671  31.498   4.186
10764W        W82380  44.022  40.333  13.893
10765W        W82381  40.923   1.292  14.915
10766W        W82382  16.668  12.707  14.092
10767W        W82383  26.543  25.652   5.170
10768W        W82384  14.538   2.953   3.371
10769W        W82385  43.040  35.330  12.799
10770W        W82386  13.536  21.511  10.578
10771W        W82387  28.459   1.019   3.661
10772W        W82388  21.524   0.425  14.722
10773W        W82389  34.576  11.240  12.829
10774W        W82390  34.697  36.999  14.490
10775W        W82391   1.214  30.852  10.989
10776W        W82392  16.698  31.639  13.993
10777W        W82393   5.919  37.788  13.562
10778W        W82394  24.746  18.785  12.730
10779W        W82395  43.059  30.520   4.404
10780W        W82396   1.911  20.999  12.032
10781W        W82397  34.433  44.741  11.990
10782W        W82398  13.737  33.066  10.621
10783W        W82399  12.287  39.475   3.883
10784W        W82400  29.741  19.562   3.104
10785W        W82401  35.584  32.335   4.941
10786W        W82402  10.602   5.857  11.496
10787W        W82403  44.215  43.513  12.101
10788W        W82404  15.098   1.738   2.699
10789W        W82405   9.903   8.281  11.340
10790W        W82406  29.063  31.543  13.884
10791W        W82407   1.971  30.923  12.644
10792W        W82408  39.541  12.769  11.057
10793W        W82409  33.630  16.263   3.122
10794W        W82410  38.378  35.860   2.845
10795W        W82411  22.243  20.787   1.774
10796W        W82412  33.268  39.602  11.882
10797W        W82413  26.359  27.622  11.346
10798W        W82414  20.680  10.395   1.331
10799W        W82415   4.384  30.501  14.993
10800W        W82416   7.601  19.866   4.147
10801W        W82417  16.793  31.547  11.489
10802W        W82418  17.330  42.904  10.157
10803W        W82419  33.130  43.287   2.893
10804W        W82420  40.746  13.183   0.879
10805W        W82421  11.317  30.196  11.712
10806W        W82422  43.856  26.694   4.659
10807W        W82423  31.092  38.466  13.127
10808W        W82424  10.691  15.639   1.051
10809W        W82425  11.709  17.534   4.902
10810W        W82426  28.690   3.776   2.887
10811W        W82427  43.910  30.646  14.266
10812W        W82428   1.103   4.686   3.619
10813W        W82429  14.982  18.752  14.445
10814W        W82430  22.419   4.418  12.043
10815W        W82431  43.029  24.599  14.199
10816W        W82432   3.297   5.710   4.048
10817W        W82433  13.264  21.052  12.659
10818W        W82434  42.103  29.537   0.811
10819W        W82435   5.294  30.149   2.259
10820W        W82436  14.262  22.824   0.899
10821W        W82437  31.643  20.166   3.826
10822W        W82438   3.665   6.785  14.545
10823W        W82439  17.955  27.951  12.053
10824W        W82440  30.704  16.519   1.853
10825W        W82441  31.613   0.750   1.177
10826W        W82442  35.998   1.025   3.855
10827W        W82443   5.368  27.977   3.419
10828W        W82444  22.314   4.775   3.107
10829W        W82445  31.449  32.138  11.127
10830W        W82446   3.461  25.851  11.488
10831W        W82447   2.453  38.311  12.573
10832W        W82448   0.004  32.983   1.713
10833W        W82449  33.987  25.393   4.632
10834W        W82450  18.695   6.491  10.819
10835W        W82451  26.055  23.658   1.196
10836W        W82452  26.211  18.150   2.649
10837W        W82453  14.762  31.352   1.860
10838W        W82454   6.228  26.881   4.569
10839W        W82455   4.555  30.578   2.244
10840W        W82456  17.539  27.162  12.664
10841W        W82457  21.529  18.948  14.772
10842W        W82458   2.784  29.919   4.163
10843W        W82459   9.758  11.070   4.404
10844W        W82460   7.950  12.094   1.350
10845W        W82461  17.488  27.008  13.978
10846W        W82462  27.595  15.589   0.468
10847W        W82463  39.336  37.319  13.836
10848W        W82464  34.004   2.531  12.322
10849W        W82465  19.832  28.089  14.522
10850W        W82466  26.743   5.948  13.049
10851W        W82467  17.622  32.933  13.891
10852W        W82468  30.410  29.496  12.468
10853W        W82469  24.438  26.518   2.249
10854W        W82470  30.165  26.299   0.258
10855W        W82471  31.915   1.170  10.835
10856W        W82472  22.225  18.753   4.122
10857W        W82473  11.554  43.431   1.783
10858W        W82474  37.592  23.229   0.759
10859W        W82475  15.507  19.855   0.681
10860W        W82476   3.152   3.334  12.915
10861W        W82477  21.269  25.696  11.055
10862W        W82478  28.705  26.793   4.643
10863W        W82479   6.736   7.788  12.749
10864W        W82480  28.702   4.622  12.537
10865W        W82481   3.813  31.095   2.356
10866W        W82482  44.450  22.694   1.400
10867W        W82483  11.234  35.117  13.988
10868W        W82484  23.561  15.152  10.711
10869W        W82485  14.078  10.149   2.792
10870W        W82486   8.600  16.303  14.811
10871W        W82487   7.814  26.920   0.887
10872W        W82488  27.630  18.275   3.923
10873W        W82489  33.237  23.566  10.397
10874W        W82490  26.644  23.201   0.889
10875W        W82491  12.366  24.544   3.283
10876W        W82492  13.366   6.735  12.981
10877W        W82493   3.915  34.934  12.447
10878W        W82494  27.411  30.550  10.481
10879W        W82495  20.253  14.113   2.260
10880W        W82496  42.470   8.601   1.547
10881W        W82497  11.238  13.836  12.080
10882W        W82498  39.930  24.504   1.262
10883W        W82499  27.414  23.291  14.875
10884W        W82500  44.378  22.206  14.934
10885W        W82501  13.053   8.342   1.895
10886W        W82502  37.536   6.475  14.502
10887W        W82503   9.351   7.386   1.254
10888W        W82504  23.662  42.469   0.440
10889W        W82505  36.811  42.193  13.923
10890W        W82506   5.434   2.251  14.529
10891W        W82507  30.437  33.580  10.975
10892W        W82508  12.896   0.081  10.568
10893W        W82509  36.523  15.019  13.561
10894W        W82510  29.405  16.308   2.224
10895W        W82511   0.009  23.453   1.203
10896W        W82512  20.290  14.320  13.714
10897W        W82513   4.424  16.892   0.931
10898W        W82514  16.073  16.795   2.118
10899W        W82515  19.748  12.730  12.816
10900W        W82516  44.910   5.184  12.415
10901W        W82517  20.955  28.625   2.248
10902W        W82518   8.472   0.861  12.915
10903W        W82519   0.325  23.494  11.100
10904W        W82520   1.866  27.984   2.897
10905W        W82521  26.455  26.464  13.808
10906W        W82522   9.684  26.477   0.692
10907W        W82523  37.054  40.088   2.298
10908W        W82524  24.609   5.457   4.610
10909W        W82525  15.012  41.751   0.880
10910W        W82526  38.575  14.461   0.802
10911W        W82527  25.059  32.046  13.422
10912W        W82528   1.182   7.028  11.183
10913W        W82529  10.766  43.293  11.885
10914W        W82530  10.251  35.882   3.719
10915W        W82531  37.340  42.386   0.500
10916W        W82532  29.410  26.257  12.473
10917W        W82533  13.120  12.446   3.186
10918W        W82534   9.883  37.609  10.600
10919W        W82535  27.685   9.463   3.714
10920W        W82536  29.499  34.252   1.693
10921W        W82537  41.256  33.369  13.212
10922W        W82538  41.525  23.537   0.875
10923W        W82539  40.771  19.751  11.685
10924W        W82540  22.204  14.126   0.489
10925W        W82541  12.189   7.177   0.356
10926W        W82542   9.137  26.606   1.941
10927W        W82543  35.915  25.687   1.822
10928W        W82544  20.390  21.723  12.013
10929W        W82545   8.634  38.260   1.643
10930W        W82546  38.305   6.791  11.047
10931W        W82547  29.870  33.129   1.912
10932W        W82548  39.864   0.773  10.754
10933W        W82549  33.377   6.241   4.352
10934W        W82550  17.750  15.002   3.770
10935W        W82551  27.000  15.424  13.912
10936W        W82552  20.124   2.067  14.409
10937W        W82553   0.415  39.007   4.713
10938W        W82554  42.886  18.524   2.324
10939W        W82555  29.427   9.591  12.072
10940W        W82556  28.749  36.709  10.645
10941W        W82557  36.257   1.879  12.156
10942W        W82558   2.900   9.366  11.089
10943W        W82559  15.197  32.435   2.793
10944W        W82560  15.105  33.544   2.043
10945W        W82561  25.615  24.702   4.171
10946W        W82562  19.611  42.388  14.329
10947W        W82563   8.881   8.847  10.662
10948W        W82564   8.266  43.879   1.404
10949W        W82565  42.937  35.045   4.563
10950W        W82566   3.449  12.247   4.705
10951W        W82567   5.779  25.167   0.882
10952W        W82568   0.716  41.265   0.770
10953W        W82569  43.915  42.487  13.904
10954W        W82570  15.091  30.009   2.427
10955W        W82571  30.764  23.549   4.124
10956W        W82572  28.003  11.050  11.528
10957W        W82573  16.276   3.172   4.384
10958W        W82574   4.429  39.651  14.282
10959W        W82575  25.469  27.668  10.714
10960W        W82576  18.784  32.953  13.969
10961W        W82577  35.946   0.796   1.385
10962W        W82578  33.347   4.446   4.603
10963W        W82579  28.669  14.880   4.773
10964W        W82580  24.683  15.665   3.661
10965W        W82581  15.662  33.471  13.830
10966W        W82582   7.809  38.606  10.494
10967W        W82583  43.086  22.516  10.811
10968W        W82584  31.982   0.242   5.073
10969W        W82585   4.666  20.458   1.774
10970W        W82586  24.742   1.874   1.457
10971W        W82587  19.138  32.058   2.053
10972W        W82588   7.267  15.700   4.626
10973W        W82589  39.535   9.657  14.846
10974W        W82590   4.195  20.521   3.571
10975W        W82591  37.817  12.751   2.364
10976W        W82592  16.990  16.998  11.178
10977W        W82593  40.689  37.891   4.685
10978W        W82594  42.392  41.600  10.653
10979W        W82595  28.143   1.370  11.969
10980W        W82596  39.555  17.193   4.723
10981W        W82597  33.498  11.193  13.358
10982W        W82598  23.020  10.650  11.300
10983W        W82599  12.088  18.087  12.499
10984W        W82600  33.442  26.003   4.588
10985W        W82601  14.770   5.507   3.484
10986W        W82602   5.183  40.062   1.875
10987W        W82603  36.318  30.970   0.510
10988W        W82604  15.723  22.177  11.573
10989W        W82605   0.858  39.363  12.402
10990W        W82606  34.419  28.929   0.909
10991W        W82607  34.670  34.120  14.384
10992W        W82608  38.031  10.148   2.359
10993W        W82609   9.933  26.026   2.713
10994W        W82610  28.580  40.387  13.992
10995W        W82611  33.828  44.401  12.067
10996W        W82612  27.893  32.514  12.199
10997W        W82613  40.609   3.490  11.891
10998W        W82614  31.190  28.551   4.484
10999W        W82615   4.755  27.070   1.996
11000W        W82616  29.921   2.621  13.973
11001W        W82617  25.006  12.712   0.017
11002W        W82618  23.146  41.041   0.373
11003W        W82619  41.384  25.049   0.252
11004W        W82620  29.598  27.617   4.199
11005W        W82621  15.850  38.127   5.008
11006W        W82622  41.111  23.807  10.668
11007W        W82623   7.220  26.791  14.748
11008W        W82624   2.395  36.576  13.070
11009W        W82625  15.706  15.365  10.767
11010W        W82626  19.195   5.684  11.473
11011W        W82627  28.169  32.059   3.088
11012W        W82628   2.737  19.285  10.692
11013W        W82629  23.231  35.607   4.533
11014W        W82630  22.125   1.783  13.418
11015W        W82631  42.418  25.098   4.058
11016W        W82632  41.235  16.751   2.375
11017W        W82633  31.066  18.276   1.333
11018W        W82634  20.843   4.017  11.094
11019W        W82635  19.363  15.185   4.586
11020W        W82636   3.162   0.833  14.424
11021W        W82637  35.001  40.881  14.856
11022W        W82638   0.817  38.053  12.814
11023W        W82639  15.850   4.243  14.317
11024W        W82640   2.693  39.438   0.356
11025W        W82641  32.642  12.369  13.791
11026W        W82642  18.005  37.768  14.937
11027W        W82643  38.876  28.170  14.530
11028W        W82644  10.263  30.706  10.677
11029W        W82645  44.712  41.780   3.154
11030W        W82646  26.394  16.192   3.331
11031W        W82647   0.114   8.241  12.869
11032W        W82648  31.987  41.901  10.733
11033W        W82649  13.671  28.632  13.324
11034W        W82650  36.380   7.611  13.934
11035W        W82651   7.094  11.523   0.680
11036W        W82652  29.224  35.877  11.513
11037W        W82653  18.337  18.138   1.803
11038W        W82654  30.645  41.949   2.775
11039W        W82655  21.056  21.629  14.770
11040W        W82656  21.484  22.559   0.067
11041W        W82657  13.781   2.748   1.905
11042W        W82658  32.358  10.408   1.804
11043W        W82659  26.074  29.249   1.824
11044W        W82660  16.687   8.980  12.227
11045W        W82661   1.670  26.457   1.219
11046W        W82662  34.580  27.064  13.331
11047W        W82663  15.536  16.323   0.928
11048W        W82664  37.010  36.195   1.523
11049W        W82665  38.604  37.987  14.025
11050W        W82666  44.774  30.057   4.523
11051W        W82667  24.080  43.712   1.691
11052W        W82668  12.668  42.366  14.029
11053W        W82669   2.803   8.283   3.943
11054W        W82670   0.016  44.542  12.838
11055W        W82671  10.439   5.821  10.689
11056W        W82672   5.605  27.952   0.984
11057W        W82673   3.381  35.521   4.895
11058W        W82674  42.603  36.582  13.723
11059W        W82675  42.272   5.379  13.621
11060W        W82676  18.301  19.455   3.034
11061W        W82677  10.947  21.080  13.056
11062W        W82678  27.077  13.155   2.483
11063W        W82679  22.883  44.520  14.901
11064W        W82680   6.758  21.617   3.966
11065W        W82681  13.313   7.447  11.125
11066W        W82682  36.955  38.221   1.771
11067W        W82683   4.510  36.655   0.551
11068W        W82684  28.172  11.867  11.117
11069W        W82685   6.616  32.639  13.115
11070W        W82686  12.969  33.609  12.461
11071W        W82687  37.159   9.724   5.133
11072W        W82688   3.293   7.813   1.778
11073W        W82689   2.576  36.507  10.832
11074W        W82690  34.611  43.865  14.296
11075W        W82691  29.595  10.771  13.715
11076W        W82692  34.108  31.533  12.698
11077W        W82693  25.694  27.883  13.040
11078W        W82694  40.434  13.317   0.462
11079W        W82695  14.164  42.470   2.664
11080W        W82696  35.097   9.299   0.392
11081W        W82697  17.943  43.457   4.619
11082W        W82698  35.651  14.935  13.289
11083W        W82699  36.981  15.752  11.559
11084W        W82700  35.596   8.062  12.986
11085W        W82701   4.015  40.867   4.088
11086W        W82702  41.036  40.386   2.814
11087W        W82703  29.449   3.664  11.504
11088W        W82704   0.838  35.107   1.137
11089W        W82705   6.947  16.382   1.721
11090W        W82706  10.326  26.958   0.164
11091W        W82707  38.538  41.875  10.769
11092W        W82708  16.732  28.881  13.778
11093W        W82709  17.576  25.071   0.714
11094W        W82710  21.969  16.278   3.613
11095W        W82711  11.705  31.760  11.033
11096W        W82712  38.806  12.092  11.433
11097W        W82713   4.199   2.290   2.673
11098W        W82714  34.148  30.211   2.348
11099W        W82715   7.412  18.261   4.163
11100W        W82716  17.891  42.900   4.635
11101W        W82717   0.230  29.052   1.930
11102W        W82718  22.161  12.407  11.194
11103W        W82719  13.816  27.887  12.957
11104W        W82720  36.974  31.478  13.444
11105W        W82721   4.305   6.754   0.843
11106W        W82722   7.182   5.439   3.202
11107W        W82723   2.689  38.445  13.273
11108W        W82724  40.874  33.865   2.747
11109W        W82725  34.160  35.032   0.286
11110W        W82726  37.592  29.218   3.494
11111W        W82727   3.840  13.795  11.733
11112W        W82728  27.937  10.477   0.287
11113W        W82729   6.041  30.105  14.444
11114W        W82730  23.184  22.146   3.084
11115W        W82731   0.513  37.083   0.393
11116W        W82732  20.069  32.936  11.601
11117W        W82733  36.944  25.675   3.071
11118W        W82734  29.080  29.923   9.669
11119W        W82735  43.385  21.532   0.939
11120W        W82736   8.206  29.134  14.828
11121W        W82737  13.020   0.764  13.427
11122W        W82738  39.047  35.987  13.690
11123W        W82739  37.505  41.868  14.350
11124W        W82740  14.276  34.514   3.236
11125W        W82741   1.459  17.223  10.700
11126W        W82742  21.619  14.349   3.256
11127W        W82743  29.463  22.644  10.716
11128W        W82744   5.441  18.037   2.769
11129W        W82745  12.787   1.398   3.732
11130W        W82746  14.227  35.881  12.930
11131W        W82747   6.110  42.751   9.990
11132W        W82748  13.790  11.637  11.911
11133W        W82749  18.571  27.666  14.447
11134W        W82750  33.715  27.023  11.146
11135W        W82751   0.188  30.513   2.849
11136W        W82752  39.026  15.241  12.438
11137W        W82753  39.850  39.083   4.291
11138W        W82754  22.223  36.614  11.915
11139W        W82755  11.070   8.898  14.787
11140W        W82756  25.690  38.406   4.596
11141W        W82757  14.323  28.012  11.527
11142W        W82758  20.655  44.299  12.610
11143W        W82759  21.524   0.830  11.454
11144W        W82760  16.251  40.841   3.933
11145W        W82761  19.572  14.207   0.957
11146W        W82762   6.006   5.489   2.851
11147W        W82763   7.130  26.229  11.991
11148W        W82764  24.121  42.288   0.255
11149W        W82765  37.156  33.580  12.074
11150W        W82766  21.766   0.142   4.139
11151W        W82767  14.611  32.966   4.036
11152W        W82768  22.491  33.500   1.888
11153W        W82769  37.869  38.428   2.891
11154W        W82770   4.715   8.309   2.353
11155W        W82771  13.345  34.625  14.434
11156W        W82772  40.107  34.279  10.615
11157W        W82773  19.075  27.114  12.147
11158W        W82774  28.212  31.856  14.738
11159W        W82775  39.302   2.002   3.099
11160W        W82776  11.544  43.501  14.981
11161W        W82777  13.592  25.190   3.187
11162W        W82778  12.331   7.557   3.139
11163W        W82779  44.769   3.190  12.117
11164W        W82780  12.722   3.381  11.181
11165W        W82781  23.942  25.495  14.368
11166W        W82782  13.248  18.154   1.016
11167W        W82783  17.703   0.916  14.894
11168W        W82784  37.625  14.059  10.141
11169W        W82785  25.789  21.342   2.088
11170W        W82786  24.233  39.998   0.867
11171W        W82787  38.669   6.633  13.794
11172W        W82788  23.294  23.219   1.265
11173W        W82789   1.757   4.230   1.772
11174W        W82790   5.928  36.340   1.281
11175W        W82791  15.664  31.114  11.409
11176W        W82792  41.011  22.267  14.912
11177W        W82793  43.438  35.117  10.559
11178W        W82794  16.690  30.296  14.988
11179W        W82795   9.437  35.600  11.422
11180W        W82796  26.011   8.279   1.773
11181W        W82797   7.308  15.359  12.890
11182W        W82798  22.322  31.166  10.573
11183W        W82799   1.341  26.621   3.364
11184W        W82800   2.747  36.026   4.560
11185W        W82801   6.229  28.610  14.971
11186W        W82802   2.495  13.739  13.095
11187W        W82803  12.129   8.430   4.955
11188W        W82804  24.764   6.119  12.503
11189W        W82805  42.425  44.912  13.790
11190W        W82806  17.762  12.716   2.719
11191W        W82807   5.333  16.126  12.834
11192W        W82808  17.631  31.464  14.880
11193W        W82809  44.873  11.266   0.920
11194W        W82810  29.178   0.997   0.971
11195W        W82811   9.897   6.435  12.836
11196W        W82812  37.476  35.765  10.408
11197W        W82813  38.191   9.413  13.486
11198W        W82814   3.938  23.055  14.914
11199W        W82815  12.301   3.690  13.961
11200W        W82816   6.302   0.524  11.930
11201W        W82817   6.768  34.793   4.569
11202W        W82818  12.128   3.349   3.649
11203W        W82819   3.687   5.226   3.211
11204W        W82820  44.881   5.455   3.683
11205W        W82821  36.062  31.595  11.516
11206W        W82822  22.281  10.217   2.692
11207W        W82823  38.000  39.359  12.096
11208W        W82824  31.575  44.021  12.090
11209W        W82825   8.376  41.327  12.953
11210W        W82826  17.810  38.829   2.424
11211W        W82827  43.921  29.938   1.857
11212W        W82828   1.843  30.668  14.719
11213W        W82829  27.616  44.317  11.085
11214W        W82830  11.835  12.646   0.831
11215W        W82831  15.822  14.196  11.138
11216W        W82832  32.112   1.015   3.285
11217W        W82833  44.872   8.599  14.492
11218W        W82834  29.124  22.190   1.218
11219W        W82835   7.885  19.680   3.729
11220W        W82836   1.887   0.909   5.240
11221W        W82837   0.554  22.060   0.441
11222W        W82838  36.773   8.380  14.748
11223W        W82839   6.428   0.333   4.080
11224W        W82840  43.754  33.114   1.798
11225W        W82841  33.097   3.174  12.666
11226W        W82842  26.796  22.244  12.066
11227W        W82843   3.765  39.461  13.986
11228W        W82844   6.816  40.940  11.224
11229W        W82845   4.314  41.955  14.789
11230W        W82846  36.022   7.618   4.095
11231W        W82847  29.334  40.504   0.408
11232W        W82848  39.263  25.009   3.719
11233W        W82849  37.575  32.841   3.657
11234W        W82850  42.385  16.272  13.923
11235W        W82851  25.154  13.813   2.997
11236W        W82852  40.399  17.066   0.325
11237W        W82853  27.468  31.210   0.201
11238W        W82854  27.999   0.489   0.220
11239W        W82855  18.256  25.225   4.517
11240W        W82856  35.629  32.138   3.414
11241W        W82857  31.597  41.526   2.006
11242W        W82858  41.450  25.616  13.087
11243W        W82859  25.475  13.560   2.663
11244W        W82860  11.276  26.243   4.575
11245W        W82861  28.428  31.464   1.116
11246W        W82862  23.731  14.087  11.563
11247W        W82863  24.791  17.196  11.531
11248W        W82864  39.348   1.887  11.821
11249W        W82865   3.200   5.339   4.405
11250W        W82866  42.779  34.629   2.636
11251W        W82867  15.082  25.623  12.050
11252W        W82868  43.027   1.687   3.597
11253W        W82869  12.682  12.273  12.893
11254W        W82870   1.181   5.688   0.465
11255W        W82871  36.404  29.929   2.460
11256W        W82872  11.698   0.768  12.949
11257W        W82873   9.854  26.647  13.903
11258W        W82874   9.409  14.182  14.464
11259W        W82875  38.946   5.202   0.274
11260W        W82876  15.263  42.041   2.481
11261W        W82877  33.035  42.536  13.126
11262W        W82878  10.399   1.313   0.752
11263W        W82879  37.403  21.304   0.485
11264W        W82880  25.911   4.826   3.311
11265W        W82881  34.007  24.641  13.257
11266W        W82882  29.448  13.293  12.503
11267W        W82883  16.532  23.718  11.982
11268W        W82884  38.986  36.997  13.149
11269W        W82885  36.105  10.185  11.188
11270W        W82886  23.040  39.467  13.821
11271W        W82887  30.490  19.558   2.721
11272W        W82888  14.265  21.076  10.832
11273W        W82889  19.312  42.266  14.917
11274W        W82890   9.402   3.875  13.633
11275W        W82891  22.678  23.960   1.536
11276W        W82892   4.250  36.815   3.131
11277W        W82893  28.077  44.931  10.836
11278W        W82894   6.073  15.840  14.329
11279W        W82895   8.376   9.310   0.101
11280W        W82896   1.269   0.801   3.802
11281W        W82897  23.127   3.353  10.843
11282W        W82898  22.652  41.544  12.474
11283W        W82899  44.956  13.697  12.808
11284W        W82900  10.876  35.830  11.064
11285W        W82901   6.272  36.382  12.197
11286W        W82902  31.894   4.499   0.502
11287W        W82903  22.208  18.216  10.738
11288W        W82904  18.785  13.772   3.227
11289W        W82905  10.044  18.759   4.143
11290W        W82906   3.512  32.398  11.451
11291W        W82907  32.122  15.449   2.757
11292W        W82908  26.056  34.578   4.510
11293W        W82909  40.209  28.599   2.848
11294W        W82910  29.960  43.307   0.253
11295W        W82911  10.708  31.231   1.485
11296W        W82912  27.906  14.992   3.417
11297W        W82913  34.445  44.401  11.467
11298W        W82914   5.859  25.177   3.235
11299W        W82915   1.337  43.883   1.081
11300W        W82916  32.609  24.981  11.770
11301W        W82917   1.521   2.154  12.453
11302W        W82918  16.571  27.483   2.737
11303W        W82919   9.730  37.284  13.470
11304W        W82920  13.603  34.418  10.695
11305W        W82921  38.531  30.426  13.368
11306W        W82922  25.233  19.395   0.165
11307W        W82923  41.600  25.625   1.060
11308W        W82924  28.038  44.714   2.327
11309W        W82925   4.664  29.969   0.936
11310W        W82926  25.208  39.030   4.593
11311W        W82927   3.429  10.311  12.493
11312W        W82928  38.507  26.902  12.379
11313W        W82929  33.659   8.838  11.184
11314W        W82930  42.363  13.674  12.881
11315W        W82931  18.115  36.512  13.207
11316W        W82932  42.351  39.285  10.525
11317W        W82933  30.922  35.820  14.373
11318W        W82934  13.212   0.343  12.161
11319W        W82935  34.729  44.479   4.319
11320W        W82936  24.437  41.238   3.167
11321W        W82937  31.506   1.924   3.649
11322W        W82938  21.013  43.582  12.023
11323W        W82939  23.204  11.790   1.323
11324W        W82940  28.692  12.715   3.427
11325W        W82941  27.206  27.140  10.658
11326W        W82942  18.215  18.898   2.890
11327W        W82943   8.995  12.711   3.887
11328W        W82944  37.875  34.767  14.072
11329W        W82945  36.057   4.354   3.112
11330W        W82946  18.264  17.527  12.529
11331W        W82947   5.847  35.349  13.631
11332W        W82948  22.182   0.792   0.305
11333W        W82949   6.352  43.248   2.360
11334W        W82950   4.233   2.316  10.974
11335W        W82951  30.118  39.479  11.404
11336W        W82952  39.668  27.706  14.345
11337W        W82953  35.278  13.187  14.901
11338W        W82954  23.551   7.818   2.341
11339W        W82955   2.213   6.260  11.630
11340W        W82956   4.305   3.326  10.803
11341W        W82957  32.465  32.561   2.714
11342W        W82958  35.842  17.587   2.166
11343W        W82959  24.111  29.483   4.716
11344W        W82960  38.132   4.198  12.466
11345W        W82961  14.277  37.575   5.150
11346W        W82962  39.399  15.189  10.706
11347W        W82963   6.585  11.748   2.780
11348W        W82964  44.830  34.808  11.199
11349W        W82965  25.209  24.597  10.945
11350W        W82966  24.328  31.737   2.309
11351W        W82967  33.402  14.825   0.294
11352W        W82968   0.438  41.051   0.089
11353W        W82969  27.939   1.448   4.509
11354W        W82970  28.643  36.771  13.344
11355W        W82971  18.142   0.767  12.958
11356W        W82972  11.010  28.290   2.438
11357W        W82973  36.923   5.389  12.190
11358W        W82974  17.657  10.276  12.111
11359W        W82975  25.069  23.189  13.573
11360W        W82976   1.480  29.595   1.527
11361W        W82977   9.819  43.463   0.183
11362W        W82978   9.470  42.772   3.208
11363W        W82979   1.063   2.290  13.994
11364W        W82980  29.234  28.231  12.027
11365W        W82981  21.840  25.626  12.400
11366W        W82982  16.761  23.218  12.031
11367W        W82983   1.755  38.418   3.629
11368W        W82984  39.365  28.630   4.272
11369W        W82985  13.221   2.193  11.835
11370W        W82986  20.573  14.150   1.801
11371W        W82987  33.466  11.213   4.304
11372W        W82988  43.964  31.961   0.754
11373W        W82989  38.717   1.201  12.917
11374W        W82990  41.724  20.173   2.485
11375W        W82991   1.204  44.489  11.567
11376W        W82992  20.126  20.965   1.348
11377W        W82993   3.893   8.498  13.400
11378W        W82994  42.217   9.213  14.339
11379W        W82995  17.043  27.203  12.877
11380W        W82996  43.504  14.843  11.550
11381W        W82997  10.827  22.172  13.964
11382W        W82998  29.414  15.913  13.408
11383W        W82999  12.205  17.066   0.512
11384W        W83000  23.738   8.893   1.354
11385W        W83001  37.435   7.562   0.456
11386W        W83002   8.365  29.865  13.502
11387W        W83003  28.941  14.343  12.901
11388W        W83004   0.417  30.058   2.740
11389W        W83005   2.339  12.147   4.064
11390W        W83006  19.328  35.031   1.725
11391W        W83007  35.964  15.872  13.997
11392W        W83008  38.232  23.381  13.366
11393W        W83009   7.615  23.074  14.577
11394W        W83010  33.625  42.975   3.034
11395W        W83011  17.263   1.851   0.346
11396W        W83012   4.623   0.474   2.969
11397W        W83013  11.308   1.478  14.976
11398W        W83014  16.773  10.948  11.948
11399W        W83015  11.132   4.442  12.429
11400W        W83016  35.339  12.171   1.813
11401W        W83017  22.719  18.839  10.698
11402W        W83018  41.612  21.676   4.202
11403W        W83019  18.589  39.453  10.644
11404W        W83020  11.097  34.393   3.245
11405W        W83021   6.355  31.612   2.300
11406W        W83022  14.790  32.087  11.603
11407W        W83023  32.050   5.905   4.558
11408W        W83024  41.080  21.015  14.496
11409W        W83025  41.046  31.489  10.705
11410W        W83026  40.193  23.532   2.331
11411W        W83027  20.208  22.841  11.822
11412W        W83028  11.887  42.948  12.506
11413W        W83029   5.758  37.565  10.994
11414W        W83030   8.101  39.459   1.568
11415W        W83031  35.644  31.698  13.263
11416W        W83032  41.897   2.313   4.864
11417W        W83033  40.987  38.033   0.509
11418W        W83034  21.513  33.327   4.567
11419W        W83035  43.448   4.019   2.172
11420W        W83036  16.317  27.040   0.457
11421W        W83037  12.214  12.742   4.555
11422W        W83038  18.164   0.991   2.225
11423W        W83039  41.219  16.156  12.059
11424W        W83040  27.202   9.465  14.523
11425W        W83041  41.329   6.756  12.512
11426W        W83042  38.109  26.947   0.911
11427W        W83043  42.508  41.355   2.699
11428W        W83044  24.930  17.744   2.025
11429W        W83045   1.444  44.075  12.877
11430W        W83046   5.095  17.185   4.267
11431W        W83047   8.396   0.331  12.992
11432W        W83048  31.282  20.627  12.514
11433W        W83049  23.932  24.594   3.712
11434W        W83050  44.200  34.130   3.814
11435W        W83051  12.332  21.059  14.795
11436W        W83052  29.749   7.881  14.468
11437W        W83053   5.692  24.463  13.992
11438W        W83054  44.694  40.714   4.666
11439W        W83055  11.199  17.946  13.032
11440W        W83056  43.768  26.172   3.457
11441W        W83057  41.853  10.000  13.964
11442W        W83058  36.538  10.820   3.712
11443W        W83059  34.112   3.246   1.812
11444W        W83060  38.190   2.902   4.005
11445W        W83061  17.098  15.063   3.349
11446W        W83062  14.226   6.325   1.681
11447W        W83063  36.621  17.233   0.386
11448W        W83064  26.393   6.522   4.339
11449W        W83065  38.481   5.294  13.336
11450W        W83066  10.186   8.697   3.145
11451W        W83067  17.512  28.609  13.467
11452W        W83068  16.007   1.728   1.283
11453W        W83069   4.473  19.916   4.995
11454W        W83070  38.402  26.311  10.600
11455W        W83071  27.449   2.780   4.659
11456W        W83072  41.867  37.004  11.469
11457W        W83073  35.465  23.949   4.553
11458W        W83074  21.088  18.103   3.641
11459W        W83075  37.038  16.816   0.822
11460W        W83076   5.355  34.165   2.791
11461W        W83077  33.396  26.481   0.949
11462W        W83078  41.002  17.092   4.606
11463W        W83079  16.335  16.571   4.643
11464W        W83080   8.165  29.052  11.894
11465W        W83081  44.005  38.589   0.078
11466W        W83082  37.899  11.714   0.915
11467W        W83083  23.703  43.567  10.634
11468W        W83084  14.893  27.956   5.003
11469W        W83085  20.538  32.383   1.016
11470W        W83086  12.229  44.714  14.976
11471W        W83087   4.927  41.771   4.043
11472W        W83088  15.691  25.720  10.686
11473W        W83089  17.307  43.945  14.735
11474W        W83090  18.818  24.214   2.737
11475W        W83091   0.158  16.809   3.649
11476W        W83092   0.220  29.476  10.640
11477W        W83093  38.194   8.816   3.036
11478W        W83094   0.297  44.484  14.919
11479W        W83095  11.829  34.170   2.669
11480W        W83096  39.793  27.202  11.892
11481W        W83097  23.514  19.815  11.616
11482W        W83098  19.893   3.752  10.227
11483W        W83099   9.679  29.887  13.041
11484W        W83100  22.933  36.803   0.821
11485W        W83101   7.407  14.780   4.649
11486W        W83102  32.396  25.169   4.958
11487W        W83103  40.811  36.708   3.316
11488W        W83104   8.590  43.632   1.011
11489W        W83105  41.622   9.303  13.627
11490W        W83106  30.704  12.266   0.570
11491W        W83107  27.737  32.955   4.196
11492W        W83108  27.041  26.060   3.310
11493W        W83109  41.127  11.736   1.854
11494W        W83110  40.339  20.101  10.417
11495W        W83111  44.569   2.353  10.705
11496W        W83112  40.019   1.757   1.668
11497W        W83113  24.534  30.640  14.352
11498W        W83114   9.312   2.760   4.433
11499W        W83115  26.577  15.157   2.378
11500W        W83116  26.243  16.332   1.712
11501W        W83117  15.596   6.617  10.526
11502W        W83118  20.301  26.024   3.397
11503W        W83119  12.644   9.318  12.469
11504W        W83120   4.150   0.326   1.010
11505W        W83121  24.440  42.786  11.598
11506W        W83122   6.296  39.283   2.229
11507W        W83123  43.891  29.721  14.681
11508W        W83124  37.442  28.044  10.740
11509W        W83125  38.208  42.888   1.178
11510W        W83126  17.040  31.956   1.905
11511W        W83127  31.906  24.901   1.821
11512W        W83128  37.467  18.144   1.947
11513W        W83129  38.557  27.689   4.550
11514W        W83130  23.791  42.048   3.245
11515W        W83131  34.470  15.687   1.238
11516W        W83132  28.836   5.725   1.600
11517W        W83133   1.932  13.810   0.304
11518W        W83134  44.335  44.323  14.824
11519W        W83135  22.111   7.838  11.648
11520W        W83136  36.797  42.385   2.071
11521W        W83137   4.236  11.880  14.763
11522W        W83138  10.651  16.597  12.186
11523W        W83139  32.664   6.205   1.430
11524W        W83140  10.374  15.265  13.325
11525W        W83141   4.404  14.807  14.858
11526W        W83142   6.907  18.920   1.515
11527W        W83143  26.611  25.039   3.352
11528W        W83144  23.406  28.747  14.733
11529W        W83145   9.627  35.111  12.492
11530W        W83146  39.416  44.311   2.125
11531W        W83147  22.613   7.122  10.505
11532W        W83148  15.857  29.092  13.483
11533W        W83149  25.117  36.697  11.233
11534W        W83150  11.330   5.913  11.072
11535W        W83151  42.198  32.148   4.481
11536W        W83152  43.945   3.842   0.299
11537W        W83153  30.712   9.691  11.529
11538W        W83154  30.017  21.623  14.744
11539W        W83155   9.927   4.466   0.419
11540W        W83156  12.726  37.647   0.446
11541W        W83157  43.406  32.834   4.570
11542W        W83158  27.744  21.674  10.592
11543W        W83159  17.213   7.286  12.529
11544W        W83160   2.421  34.102  13.451
11545W        W83161  12.867  32.538  14.827
11546W        W83162  30.992  10.748   4.818
11547W        W83163   8.361  39.443  12.692
11548W        W83164  31.764  31.066  13.863
11549W        W83165   0.015  38.305  11.099
11550W        W83166  22.054  39.871  13.382
11551W        W83167  42.786  38.943  12.888
11552W        W83168  19.276  42.363   3.295
11553W        W83169  13.132  23.225   0.524
11554W        W83170  34.026   4.042  12.409
11555W        W83171  33.942  15.108   0.393
11556W        W83172  10.903  27.439  10.821
11557W        W83173  37.571  35.122  11.150
11558W        W83174   4.603   1.245  12.018
11559W        W83175   7.116  10.341  11.559
11560W        W83176  40.147   2.389  13.264
11561W        W83177  41.047   3.511   3.245
11562W        W83178  42.394  37.914  14.313
11563W        W83179   5.485  21.745  10.695
11564W        W83180   2.317  37.964  13.012
11565W        W83181  18.315  44.675   4.823
11566W        W83182  12.900  39.403   3.163
11567W        W83183  39.397  37.381   1.460
11568W        W83184  39.073  36.986  14.490
11569W        W83185  12.811  35.448  14.676
11570W        W83186  29.093   4.439   1.244
11571W        W83187  24.066  28.141  13.948
11572W        W83188  38.996  31.436  12.651
11573W        W83189   5.504  40.770   0.292
11574W        W83190  29.234  26.055   3.520
11575W        W83191  12.099  28.006  11.261
11576W        W83192  42.144  13.165  10.901
11577W        W83193  32.476  43.313  13.001
11578W        W83194  44.864  15.820   4.855
11579W        W83195  13.736  28.997   2.190
11580W        W83196   1.282   1.290  10.335
11581W        W83197   7.016  28.060  13.303
11582W        W83198  22.001  13.630   4.070
11583W        W83199  29.887  22.189  13.712
11584W        W83200  27.211  16.141   4.507
11585W        W83201  32.637  35.929  11.901
11586W        W83202  33.655   7.837   2.416
11587W        W83203   8.663  16.775  14.980
11588W        W83204   6.207  22.564  14.520
11589W        W83205  37.921   2.845   3.552
11590W        W83206  24.914  44.785   1.934
11591W        W83207  31.054   4.031  13.548
11592W        W83208   0.452  37.573   3.516
11593W        W83209   8.871  12.693   1.927
11594W        W83210  28.078  37.596  10.977
11595W        W83211  40.140  26.973   1.856
11596W        W83212   0.167   4.387  14.190
11597W        W83213   0.468  18.270   0.869
11598W        W83214   7.311   7.850  13.779
11599W        W83215  13.776  44.811   0.244
11600W        W83216  17.162  11.809   4.541
11601W        W83217   6.256  33.247   4.667
11602W        W83218  18.697   4.857  11.546
11603W        W83219  24.997  29.515   4.490
11604W        W83220  28.550  25.435   3.383
11605W        W83221  11.351  12.602  11.135
11606W        W83222  36.810   4.358   1.062
11607W        W83223  18.869  31.495   3.654
11608W        W83224   6.883  34.621  11.003
11609W        W83225  10.231  31.637   2.648
11610W        W83226  36.294  34.896  12.730
11611W        W83227  44.730  33.986   2.100
11612W        W83228  19.456  20.177   3.271
11613W        W83229  44.797   2.029  14.372
11614W        W83230  37.087  32.920   1.942
11615W        W83231  18.210  28.054  11.154
11616W        W83232  10.017  19.769  12.318
11617W        W83233  23.370   9.178   4.686
11618W        W83234   9.826   6.231  11.361
11619W        W83235  20.225  38.875   2.426
11620W        W83236  44.809   0.855   4.021
11621W        W83237  32.956   1.151   4.149
11622W        W83238  24.533  39.653  14.863
11623W        W83239  22.727  22.429  10.656
11624W        W83240  30.247  28.052   0.256
11625W        W83241   5.718  24.704   1.892
11626W        W83242  43.987  11.021  14.583
11627W        W83243  21.586  26.061  10.632
11628W        W83244  18.380  17.930   1.306
11629W        W83245   8.380   0.477  14.795
11630W        W83246   7.362  11.619   1.461
11631W        W83247  14.555  39.902   1.698
11632W        W83248  30.160  17.209  12.929
11633W        W83249  12.383  29.185  12.440
11634W        W83250  39.765  29.428   2.910
11635W        W83251  38.566   2.212   0.749
11636W        W83252  12.141  35.995   3.898
11637W        W83253  34.436  27.512  13.576
11638W        W83254  32.817  23.070   0.287
11639W        W83255  36.073  31.532  10.613
11640W        W83256  39.072  13.159   3.401
11641W        W83257  11.171  24.570   0.908
11642W        W83258  26.668  27.599   1.825
11643W        W83259  40.021   7.274   0.401
11644W        W83260  42.412  40.635   4.108
11645W        W83261   7.911  40.009  10.513
11646W        W83262  38.529  42.752  14.969
11647W        W83263  42.457   3.807  12.090
11648W        W83264  26.112  23.638  14.196
11649W        W83265  37.036  21.985   0.937
11650W        W83266  19.179  38.540   4.924
11651W        W83267  28.523  20.666  12.568
11652W        W83268   1.039   8.394   3.335
11653W        W83269  35.182   4.205   0.067
11654W        W83270  15.037  17.103  10.240
11655W        W83271  35.427  18.133  12.813
11656W        W83272  13.301  42.362   2.349
11657W        W83273  18.720  30.133   0.524
11658W        W83274  32.907  30.486   4.699
11659W        W83275  34.624   4.686  11.781
11660W        W83276  42.871   5.938   1.744
11661W        W83277  34.430   4.373   0.194
11662W        W83278   4.211   4.677   0.534
11663W        W83279  16.434   9.962  11.300
11664W        W83280  14.759   0.956  11.986
11665W        W83281  17.383  12.753   0.307
11666W        W83282  26.895   2.472   5.112
11667W        W83283  24.921  28.187   3.233
11668W        W83284  13.425  29.578  12.425
11669W        W83285   7.690   1.758   3.294
11670W        W83286  22.150   1.301  10.404
11671W        W83287  22.517   6.291  12.475
11672W        W83288  25.659  12.696   0.794
11673W        W83289  30.094  36.777  13.294
11674W        W83290  32.233  32.261  13.009
11675W        W83291  33.522  14.309  14.511
11676W        W83292  18.156  11.303  10.749
11677W        W83293  43.921  28.686   3.043
11678W        W83294  35.823   6.884  14.538
11679W        W83295  18.596  10.776   4.415
11680W        W83296  22.124   1.557  12.964
11681W        W83297  12.768  41.286  10.755
11682W        W83298  14.638   0.340  14.585
11683W        W83299  19.246  10.982  13.054
11684W        W83300  13.296  24.255  14.727
11685W        W83301   3.450  37.045   1.697
11686W        W83302   1.580  25.324  10.023
11687W        W83303  12.144  42.443   0.385
11688W        W83304  21.138  42.808   0.783
11689W        W83305  22.168  36.083  11.157
11690W        W83306  20.614  39.371   2.316
11691W        W83307   5.348  14.201  12.995
11692W        W83308  38.318   9.762   3.305
11693W        W83309   4.524  25.047  13.497
11694W        W83310  22.560  13.133   2.343
11695W        W83311  15.833  43.403  14.239
11696W        W83312  27.693  13.475   3.292
11697W        W83313   9.428  30.994   4.928
11698W        W83314  30.373  22.639  12.900
11699W        W83315  41.817  33.272  12.447
11700W        W83316  10.087  34.153   0.366
11701W        W83317  19.485   9.658   0.548
11702W        W83318   2.365   6.067  11.154
11703W        W83319  30.256  44.038  12.907
11704W        W83320   6.233  17.551   4.815
11705W        W83321   2.339  28.132   1.611
11706W        W83322  39.875  34.761   0.233
11707W        W83323   2.816  21.751   2.485
11708W        W83324  24.005  44.706   1.980
11709W        W83325   0.782  12.562  14.424
11710W        W83326  29.590  36.633   2.243
11711W        W83327  40.998   7.075  11.529
11712W        W83328  29.493  33.015   0.879
11713W        W83329  38.464  23.748   3.885
11714W        W83330  25.691  15.003   0.840
11715W        W83331   7.250  35.017   4.431
11716W        W83332  18.953   4.734  11.955
11717W        W83333  39.497  15.594  13.414
11718W        W83334   7.211   2.682   2.795
11719W        W83335   5.695  26.585   0.995
11720W        W83336  20.958   9.054  14.805
11721W        W83337  19.106  21.544  10.914
11722W        W83338  25.197  29.192   1.315
11723W        W83339  15.203  37.835   4.247
11724W        W83340   5.662  16.196   0.447
11725W        W83341   7.971  24.362  14.355
11726W        W83342  19.682  15.098  10.670
11727W        W83343   9.721   4.043   3.807
11728W        W83344  12.678  32.338   1.418
11729W        W83345  34.926  14.132  13.447
11730W        W83346  28.017  43.991   0.105
11731W        W83347  10.238   7.283   2.591
11732W        W83348  26.276  17.987  12.083
11733W        W83349  20.529   8.799   1.882
11734W        W83350  36.162  14.661   1.189
11735W        W83351  25.685   7.698   1.915
11736W        W83352  22.220   8.751   0.440
11737W        W83353   8.373   0.941  10.772
11738W        W83354   2.836  28.048  10.785
11739W        W83355  15.765  33.518   5.359
11740W        W83356  24.716  28.458  11.984
11741W        W83357   8.682  27.076  12.485
11742W        W83358   8.244  14.877   4.646
11743W        W83359  28.080  37.553  12.472
11744W        W83360  23.990  35.795   3.129
11745W        W83361  41.214   3.568   4.183
11746W        W83362  44.312  26.447   4.525
11747W        W83363  27.879  13.198  13.099
11748W        W83364   8.617  24.126  12.786
11749W        W83365  39.257  29.224  10.716
11750W        W83366   9.800   4.837   0.815
11751W        W83367  22.503   4.673  10.803
11752W        W83368  24.191   4.946  14.781
11753W        W83369   7.036  30.825  12.042
11754W        W83370  17.615  36.890   4.368
11755W        W83371  35.314   4.297   1.291
11756W        W83372  26.765  17.530   2.683
11757W        W83373  26.458  14.647   2.241
11758W        W83374   2.184  33.037   2.734
11759W        W83375  21.738  34.451  12.812
11760W        W83376  18.318  24.558  14.346
11761W        W83377  40.751   9.499  14.431
11762W        W83378  14.585  26.405  12.357
11763W        W83379  16.263   8.300  14.849
11764W        W83380   3.927  28.185   3.771
11765W        W83381   0.464  24.766   4.829
11766W        W83382  39.219  14.855   2.184
11767W        W83383  16.975  18.790  11.441
11768W        W83384  36.408  13.728  12.495
11769W        W83385  29.200  23.257  12.664
11770W        W83386  40.999  37.118  13.971
11771W        W83387   4.065  14.911   4.735
11772W        W83388  11.146  23.967  12.153
11773W        W83389  30.386  43.920   0.762
11774W        W83390  18.172   9.851  14.795
11775W        W83391  36.476  15.678  14.701
11776W        W83392   3.497  21.974  10.992
11777W        W83393  25.246  21.070   4.588
11778W        W83394  17.831  41.925   1.726
11779W        W83395  18.105  16.686   0.156
11780W        W83396   6.448  44.555  13.412
11781W        W83397  42.086  17.969  10.816
11782W        W83398   7.264  29.409   3.254
11783W        W83399  43.115  21.612  11.479
11784W        W83400  42.004  41.921  13.997
11785W        W83401  36.848  11.402   0.279
11786W        W83402  17.110  31.519   2.195
11787W        W83403  42.761  25.097  11.988
11788W        W83404  33.441   7.319   3.494
11789W        W83405  26.473   7.861   3.747
11790W        W83406  43.936  37.785   5.474
11791W        W83407  25.765  24.886  13.491
11792W        W83408  35.056  37.489   3.211
11793W        W83409  26.016  12.157  14.053
11794W        W83410  35.113   3.330  12.588
11795W        W83411  16.384  18.095   1.702
11796W        W83412  44.909  31.525   2.704
11797W        W83413  19.925  20.203   2.306
11798W        W83414  44.505  25.157  10.680
11799W        W83415  15.325  34.861  14.889
11800W        W83416  34.274   8.431   0.393
11801W        W83417  12.848  15.438  11.891
11802W        W83418  10.869  14.298  13.501
11803W        W83419  21.759  38.629  14.790
11804W        W83420   4.448  43.326  11.733
11805W        W83421  35.501  23.508   1.825
11806W        W83422  39.503  28.667  11.921
11807W        W83423  10.279   2.811  12.693
11808W        W83424  22.720  32.058  13.026
11809W        W83425  31.043  35.526   2.306
11810W        W83426   8.801  19.027  12.576
11811W        W83427  11.255  33.790  14.231
11812W        W83428  14.006  32.438   1.353
11813W        W83429  32.393   7.245  10.713
11814W        W83430  34.251  23.095   2.752
11815W        W83431  39.928  15.389   4.085
11816W        W83432  34.542  16.695   2.192
11817W        W83433  25.536  42.990   2.320
11818W        W83434  36.436   8.784  12.346
11819W        W83435  22.681  24.679   4.732
11820W        W83436  33.373  13.213  11.398
11821W        W83437   9.242  19.346  12.563
11822W        W83438  11.728   1.973  10.663
11823W        W83439  28.883  37.138   5.119
11824W        W83440  35.711  29.412  14.521
11825W        W83441  30.695  17.693  14.989
11826W        W83442   6.481  38.895  10.854
11827W        W83443  26.114   5.729   0.364
11828W        W83444  43.825   1.846   3.836
11829W        W83445  42.131  10.151  11.667
11830W        W83446  39.896  32.366   2.443
11831W        W83447  17.261  19.313   0.986
11832W        W83448   0.937  18.537   2.095
11833W        W83449  12.208  40.896  13.784
11834W        W83450  30.053   7.337  12.531
11835W        W83451   3.609  20.642   1.820
11836W        W83452  25.621  43.708   4.607
11837W        W83453  25.656  19.222   0.422
11838W        W83454  12.291  39.592  13.389
11839W        W83455  42.807  11.650   0.195
11840W        W83456  30.974  15.858  12.845
11841W        W83457  26.905  35.043  10.577
11842W        W83458  37.037   5.542   1.234
11843W        W83459  35.278  32.082  11.615
11844W        W83460   8.366  14.137  13.573
11845W        W83461  37.798  44.951  10.580
11846W        W83462   7.400  15.748  11.136
11847W        W83463   5.577  12.114   0.432
11848W        W83464  32.448  15.847  12.500
11849W        W83465  22.983   2.924   3.239
11850W        W83466  28.212  41.765   4.455
11851W        W83467  22.827  28.951   2.407
11852W        W83468  12.876  40.871   2.269
11853W        W83469  35.006  13.564   0.381
11854W        W83470   1.385  21.098  10.285
11855W        W83471  24.430  27.382   3.717
11856W        W83472  23.993   5.913  11.690
11857W        W83473  14.298  23.705  13.939
11858W        W83474  40.348  30.326   1.566
11859W        W83475  31.965  20.202   2.150
11860W        W83476   1.719  21.255  14.804
11861W        W83477   2.875  38.454   4.173
11862W        W83478  20.682  28.253   3.740
11863W        W83479  15.813  35.476  12.965
11864W        W83480   0.674  26.818   4.983
11865W        W83481   6.922  36.872   1.866
11866W        W83482  43.502  32.404  10.860
11867W        W83483  11.111  44.471   1.204
11868W        W83484   1.893  30.491  10.421
11869W        W83485  34.401  41.975   0.807
11870W        W83486   0.537  41.074   3.927
11871W        W83487  21.967   8.897  14.934
11872W        W83488   4.720  13.728  12.500
11873W        W83489  42.222  44.019  14.584
11874W        W83490   2.831  21.251   3.264
11875W        W83491  22.711  11.606   1.306
11876W        W83492  12.125  37.105   3.163
11877W        W83493  14.542  16.728   5.288
11878W        W83494  15.676   6.002   4.153
11879W        W83495  33.565  22.533   1.321
11880W        W83496  18.488  38.016   3.913
11881W        W83497  42.429   3.769   3.163
11882W        W83498  19.757  24.176   1.780
11883W        W83499  22.629  19.021   3.738
11884W        W83500  36.153  21.116  11.954
11885W        W83501   3.189   6.730  14.356
11886W        W83502  13.813  24.732   3.124
11887W        W83503  28.463  10.382   2.773
11888W        W83504  15.470   0.296  12.310
11889W        W83505  14.162  21.274   2.361
11890W        W83506  16.143  40.954   1.373
11891W        W83507  30.039  11.704   1.893
11892W        W83508   1.810   4.822   2.916
11893W        W83509  37.424  39.097  13.879
11894W        W83510  29.078  40.328   1.846
11895W        W83511  24.122   0.402   4.243
11896W        W83512  20.270  21.192   5.259
11897W        W83513  26.524  21.555   2.360
11898W        W83514  42.745   0.265  11.960
11899W        W83515  12.257  13.105   4.157
11900W        W83516   8.895  36.606   0.641
11901W        W83517   1.773  22.774  11.534
11902W        W83518  40.818  39.346  13.051
11903W        W83519  14.119  31.467   2.630
11904W        W83520  28.197  42.441   0.249
11905W        W83521  26.473   7.029   1.298
11906W        W83522  31.032  20.289   3.181
11907W        W83523  37.397  35.435   1.926
11908W        W83524   0.744  10.249   4.710
11909W        W83525   6.940  32.597  13.554
11910W        W83526  14.455  23.065   2.786
11911W        W83527  32.356   4.745   0.644
11912W        W83528  25.683  23.614  14.834
11913W        W83529   3.546  38.576  12.623
11914W        W83530  41.774  21.519  14.355
11915W        W83531  43.758  27.703   1.361
11916W        W83532   0.417  17.301  13.589
11917W        W83533   5.710  10.870  13.350
11918W        W83534  14.347  19.629  10.671
11919W        W83535  43.625  33.404  11.638
11920W        W83536  30.930  35.470  13.970
11921W        W83537  29.174   0.993  14.821
11922W        W83538  30.181   3.513   0.285
11923W        W83539  16.095   6.342   1.330
11924W        W83540  27.623  14.617  10.900
11925W        W83541  31.782  43.448  13.774
11926W        W83542  32.448  19.003  14.032
11927W        W83543  28.593  31.164   2.132
11928W        W83544   1.778  28.821   4.123
11929W        W83545  20.241  19.582  12.102
11930W        W83546  37.366   9.143   3.827
11931W        W83547  20.675  37.063  14.906
11932W        W83548  30.800  25.186  14.961
11933W        W83549  26.035   3.812   0.449
11934W        W83550  31.342  11.323   3.681
11935W        W83551  20.606   6.746   0.562
11936W        W83552   8.796  34.534  11.559
11937W        W83553  30.358  27.974   3.167
11938W        W83554  22.376  22.246   4.942
11939W        W83555  41.403   7.318   4.504
11940W        W83556  10.022   4.571   9.984
11941W        W83557  36.789  41.884   2.394
11942W        W83558  27.589  43.991   3.174
11943W        W83559  15.247  28.648   4.840
11944W        W83560  23.038  39.112  14.907
11945W        W83561  41.299  39.871   1.269
11946W        W83562  24.801  20.585   2.197
11947W        W83563   4.277  23.557   4.195
11948W        W83564  22.831  37.028  12.089
11949W        W83565  39.996  20.942   2.285
11950W        W83566   8.297  14.547  10.694
11951W        W83567  41.981  17.994   3.799
11952W        W83568   2.554   6.824   1.211
11953W        W83569  25.246  23.648   1.718
11954W        W83570  35.157  38.017   2.290
11955W        W83571  34.330  39.809  12.590
11956W        W83572  12.213  28.913  11.910
11957W        W83573  39.648  44.447   2.625
11958W        W83574  36.421  15.236  11.050
11959W        W83575  17.447  39.351  12.997
11960W        W83576  17.808  28.885   4.523
11961W        W83577   0.472  44.323  13.902
11962W        W83578  17.613  10.336  11.609
11963W        W83579  30.095   4.222  13.848
11964W        W83580   8.815  21.133  11.332
11965W        W83581  42.245  35.988   4.685
11966W        W83582  33.358   3.858  13.571
11967W        W83583   9.718  28.523   1.647
11968W        W83584  30.147  20.240   1.714
11969W        W83585  29.024   5.333  12.861
11970W        W83586  22.013  42.893   3.605
11971W        W83587   8.444  44.801  12.821
11972W        W83588  33.002   4.637   3.716
11973W        W83589   1.176  20.230   3.344
11974W        W83590  34.512  15.854  12.165
11975W        W83591   2.696  34.187   2.438
11976W        W83592  28.489  36.074  11.959
11977W        W83593  20.781   2.908  12.467
11978W        W83594  19.302  41.858   2.725
11979W        W83595  31.583   6.541   3.739
11980W        W83596  29.563  39.841  10.740
11981W        W83597  13.892  17.509   4.446
11982W        W83598  24.975  33.966  11.071
11983W        W83599  10.559  21.825   4.145
11984W        W83600  38.359  22.932   0.345
11985W        W83601   9.006  34.060  13.196
11986W        W83602  10.014  41.489   3.188
11987W        W83603  17.128  19.408  11.176
11988W        W83604  29.201   5.053  11.519
11989W        W83605   9.805  36.438  13.355
11990W        W83606   3.823  30.504  12.367
11991W        W83607  19.206  36.466   3.139
11992W        W83608  40.620  16.717   3.205
11993W        W83609   6.319  37.875  11.423
11994W        W83610   0.728  11.674   4.999
11995W        W83611   5.685  33.516  10.753
11996W        W83612   0.477   4.381  11.564
11997W        W83613  16.309  43.250  14.471
11998W        W83614  35.507  35.063   0.512
11999W        W83615  24.163  23.011  14.519
12000W        W83616  37.520  19.490   0.694
12001W        W83617  33.095  26.293  13.404
12002W        W83618   8.396  28.626  11.670
12003W        W83619   8.166  14.232   0.408
12004W        W83620  11.613  25.765   1.807
12005W        W83621  10.816  32.101   4.115
12006W        W83622  24.623  43.875   1.028
12007W        W83623  18.181  29.533   0.771
12008W        W83624  20.178   5.423  12.970
12009W        W83625  23.003  30.969   1.172
12010W        W83626  23.541  34.974  13.187
12011W        W83627  21.027  14.690   1.769
12012W        W83628  24.824   7.839   0.940
12013W        W83629  31.779  12.724  10.238
12014W        W83630  43.313  15.709   0.747
12015W        W83631   7.411  10.365  11.123
12016W        W83632   3.687  34.488   3.116
12017W        W83633  13.899  23.764  13.599
12018W        W83634  12.398  28.056   0.886
12019W        W83635   0.751  18.305  11.502
12020W        W83636   5.117   6.989   4.189
12021W        W83637  11.641  25.612  13.469
12022W        W83638  22.655   8.926  13.725
12023W        W83639  28.968  44.958   2.255
12024W        W83640  32.006   2.987   1.264
12025W        W83641  32.561  41.571   4.997
12026W        W83642   2.574  20.867   2.462
12027W        W83643   2.966   6.339   0.264
12028W        W83644  40.042   2.282   4.416
12029W        W83645   7.969  21.230  13.324
12030W        W83646  14.094  17.046   0.882
12031W        W83647  44.576  23.768  10.674
12032W        W83648  43.471  25.505   0.316
12033W        W83649  34.847  41.825  13.728
12034W        W83650   4.710  36.092   0.264
12035W        W83651  43.159  14.637   4.024
12036W        W83652  10.216  15.206   0.542
12037W        W83653   1.246  20.781   0.279
12038W        W83654  11.786  35.254  11.090
12039W        W83655  23.241  26.419   2.749
12040W        W83656   6.311  26.484   3.651
12041W        W83657  26.362  38.941   2.201
12042W        W83658   9.265  33.204   3.663
12043W        W83659  27.468  15.160  11.918
12044W        W83660  16.553   8.613  12.574
12045W        W83661  33.893  24.142   2.626
12046W        W83662   0.540  24.299  11.493
12047W        W83663  34.079   7.035  14.930
12048W        W83664  33.447  32.057   1.400
12049W        W83665  13.063  38.023  11.002
12050W        W83666  42.756   6.315   2.971
12051W        W83667  12.083  43.394   2.773
12052W        W83668  16.741  30.589  10.743
12053W        W83669  40.361   5.747   4.429
12054W        W83670  35.593   1.816   0.938
12055W        W83671  27.655  36.376  12.900
12056W        W83672   8.391  36.332  14.802
12057W        W83673  18.439  23.483  11.190
12058W        W83674  11.606  24.007  10.070
12059W        W83675   1.825  23.340  11.965
12060W        W83676  12.107  28.203  12.508
12061W        W83677   5.419  38.738   0.250
12062W        W83678  35.840  15.928   0.312
12063W        W83679   5.685  17.061   1.165
12064W        W83680  33.423  31.548   1.220
12065W        W83681  15.208  42.149  12.459
12066W        W83682  35.895  32.920  13.773
12067W        W83683  20.639  28.846  14.437
12068W        W83684  32.017   1.930  11.039
12069W        W83685  16.691   2.889   3.408
12070W        W83686  11.900   7.701  11.052
12071W        W83687  35.524  21.236  12.953
12072W        W83688  38.407   8.580   0.961
12073W        W83689  19.564  41.825  12.069
12074W        W83690  22.539  15.172   4.118
12075W        W83691   0.472  31.380   3.324
12076W        W83692  39.109  38.779   9.934
12077W        W83693   9.355  36.426   3.392
12078W        W83694  44.927   6.188  14.000
12079W        W83695   1.573  28.999   0.296
12080W        W83696  42.466  31.575  13.529
12081W        W83697   0.847  28.921   1.379
12082W        W83698  34.046  27.235  13.344
12083W        W83699   1.507  37.944  14.322
12084W        W83700  31.865  35.658  12.425
12085W        W83701   8.209  29.589   4.198
12086W        W83702  30.545   3.798  14.987
12087W        W83703  29.129  32.967  12.312
12088W        W83704  41.883   7.119  11.120
12089W        W83705   9.188   5.465   4.745
12090W        W83706  27.414  38.638  14.308
12091W        W83707  13.232  23.741   4.323
12092W        W83708  42.631   6.260  13.339
12093W        W83709   9.316  44.132   2.204
12094W        W83710  13.275   9.899  11.107
12095W        W83711  32.663  37.375   0.817
12096W        W83712   7.876  18.210   4.613
12097W        W83713  33.054   9.887   3.431
12098W        W83714  41.428  35.354   1.605
12099W        W83715  28.268  42.069  12.770
12100W        W83716  21.807  34.895  13.439
12101W        W83717   9.518   3.400  13.832
12102W        W83718  12.745  20.222   5.304
12103W        W83719  20.509   0.551   2.283
12104W        W83720  27.569  16.571  12.480
12105W        W83721  36.037  28.839  13.370
12106W        W83722  25.105  22.243  12.514
12107W        W83723  16.590   6.322   1.445
12108W        W83724  23.520  17.115   3.117
12109W        W83725  28.620  32.882  10.892
12110W        W83726  34.538  33.424  13.857
12111W        W83727  14.550  20.230  13.981
12112W        W83728   0.018  42.039   3.681
12113W        W83729  42.577  13.171  10.618
12114W        W83730  22.030  22.142  12.569
12115W        W83731   5.212  39.741  11.292
12116W        W83732  28.566   7.683   0.211
12117W        W83733  22.548  15.424  13.901
12118W        W83734  15.282  44.879   4.350
12119W        W83735  33.379  31.604  12.571
12120W        W83736  17.980  13.144   3.852
12121W        W83737  14.234  11.561  13.595
12122W        W83738  22.379   5.005  14.343
12123W        W83739  20.646  38.306   2.888
12124W        W83740  21.684   7.586  10.767
12125W        W83741  29.359  32.457  13.891
12126W        W83742  43.358   9.319  12.587
12127W        W83743  13.253  21.573   2.252
12128W        W83744   3.153  16.242  12.239
12129W        W83745  32.249  26.985   3.612
12130W        W83746  22.718  25.414  13.831
12131W        W83747   0.196  31.582   3.724
12132W        W83748  17.318  36.337   4.290
12133W        W83749   7.790  13.805   0.876
12134W        W83750  11.939  25.966  11.576
12135W        W83751  30.915   1.592  11.644
12136W        W83752  16.569  37.356  13.312
12137W        W83753  35.779  25.222  14.470
12138W        W83754  16.999  34.900   3.476
12139W        W83755  40.964   0.866  13.079
12140W        W83756  30.588  19.313   0.918
12141W        W83757  37.397  40.949   3.793
12142W        W83758  34.215  42.861   2.345
12143W        W83759   7.557   4.856  13.829
12144W        W83760   9.167  25.172   1.005
12145W        W83761  16.634  32.585  13.472
12146W        W83762  30.043  34.671   0.513
12147W        W83763  42.196   1.991   1.395
12148W        W83764  15.302   9.903  11.714
12149W        W83765  30.923  35.079  10.773
12150W        W83766  37.945  17.261  12.041
12151W        W83767   5.800   1.936   4.099
12152W        W83768  12.638  43.988   1.832
12153W        W83769  39.600  30.478  12.127
12154W        W83770  31.716  22.053  12.760
12155W        W83771   0.806   7.371  11.068
12156W        W83772   5.215  19.140  13.938
12157W        W83773   2.708   6.156  11.547
12158W        W83774  24.930   2.808  14.468
12159W        W83775  21.115  28.134   5.033
12160W        W83776  38.268   5.117   0.782
12161W        W83777   4.191   1.392   2.767
12162W        W83778  34.410  24.123   4.116
12163W        W83779  31.883  31.973  13.766
12164W        W83780  21.804  42.579   2.434
12165W        W83781   9.739  41.628  14.850
12166W        W83782  43.058  41.329   4.083
12167W        W83783   7.857   7.467   3.276
12168W        W83784   7.955  21.663  10.391
12169W        W83785  40.920  37.067   1.639
12170W        W83786  34.704  18.603   0.945
12171W        W83787  32.530   7.209   0.043
12172W        W83788  44.995  18.234  13.939
12173W        W83789  31.134   5.187   1.050
12174W        W83790  12.231  12.594  14.022
12175W        W83791  44.933  26.667  13.009
12176W        W83792  24.700  26.248  13.101
12177W        W83793   3.821  24.561  12.856
12178W        W83794  22.181  35.973  14.651
12179W        W83795  42.867   3.033  13.042
12180W        W83796  41.257  25.879  10.810
12181W        W83797  38.238  15.855   5.043
12182W        W83798  30.041   5.738   3.085
12183W        W83799  41.057  12.678   2.676
12184W        W83800  32.900  15.238  10.788
12185W        W83801  17.893   0.353   0.409
12186W        W83802  31.378  29.404  12.735
12187W        W83803   2.376  34.943   4.302
12188W        W83804  20.569  43.014   2.391
12189W        W83805  43.893   1.278   0.252
12190W        W83806  23.268  22.678  11.535
12191W        W83807  22.524  34.408  13.981
12192W        W83808   9.735  43.891   0.463
12193W        W83809  30.755  28.092   0.283
12194W        W83810  34.636  40.844  13.261
12195W        W83811  40.549  32.984  10.924
12196W        W83812  22.116  40.341   4.248
12197W        W83813  32.655  13.280  13.041
12198W        W83814   2.732  35.676   0.538
12199W        W83815  44.288   4.768  12.948
12200W        W83816   1.464  24.170   1.971
12201W        W83817  29.555  17.691  10.681
12202W        W83818  36.378  40.512  11.553
12203W        W83819   3.689  19.048   0.422
12204W        W83820  12.702   3.457   1.437
12205W        W83821  40.379  24.814   1.236
12206W        W83822  13.039  29.010   4.372
12207W        W83823   2.721  42.894  13.768
12208W        W83824  11.936  21.594   3.651
12209W        W83825  40.271  23.032   3.124
12210W        W83826  20.904  12.189   2.800
12211W        W83827  43.738  28.482  12.382
12212W        W83828  31.980  14.650  14.260
12213W        W83829  17.711   3.313   4.544
12214W        W83830  22.477  34.084  11.585
12215W        W83831  12.901  38.279   2.326
12216W        W83832   5.300  12.116   4.066
12217W        W83833  34.949  13.859  13.918
12218W        W83834  22.727  36.379   1.405
12219W        W83835  40.779  14.802  14.962
12220W        W83836  41.587  14.152  12.493
12221W        W83837  29.802   7.108   3.603
12222W        W83838  32.540  13.209   3.156
12223W        W83839  34.015  33.481  12.059
12224W        W83840  32.086   8.473  14.832
12225W        W83841   6.475  19.651   1.067
12226W        W83842  20.575  36.402  13.710
12227W        W83843  26.141  32.925  13.833
12228W        W83844  31.451   7.161  10.691
12229W        W83845   5.683  30.891   3.040
12230W        W83846  37.803  11.489  11.425
12231W        W83847   3.319   2.846   2.201
12232W        W83848  27.292  16.027  13.089
12233W        W83849  18.255  30.888   2.323
12234W        W83850  26.395  25.485   1.242
12235W        W83851  16.201   2.273   4.387
12236W        W83852  11.935   0.981   0.365
12237W        W83853  34.620  13.392   1.860
12238W        W83854  40.535  32.030  13.791
12239W        W83855   1.700  33.002   1.839
12240W        W83856  26.277  23.093  10.718
12241W        W83857   6.191  33.192  13.935
12242W        W83858  38.409  13.607  13.119
12243W        W83859  40.512  12.689  10.224
12244W        W83860  21.514  39.383   4.577
12245W        W83861   4.274  34.053  14.022
12246W        W83862  35.139  21.047   1.602
12247W        W83863   3.280  43.577  14.797
12248W        W83864  44.939  16.353   1.016
12249W        W83865  15.729  23.585  11.316
12250W        W83866  12.884  24.038  11.076
12251W        W83867   7.768  16.735   2.202
12252W        W83868   6.564  10.727   4.661
12253W        W83869  10.358  34.446  11.856
12254W        W83870  41.781   8.158   3.175
12255W        W83871  15.059  18.207  11.039
12256W        W83872  36.148  12.825  14.274
12257W        W83873  20.008  40.042   0.334
12258W        W83874  30.789  38.873  10.074
12259W        W83875  28.953  10.342   1.163
12260W        W83876   0.408  35.867   2.969
12261W        W83877  39.627  17.568  11.539
12262W        W83878  23.982   4.249   4.136
12263W        W83879  38.048   3.594  12.929
12264W        W83880  42.225  37.357   4.168
12265W        W83881  33.123  36.456   1.915
12266W        W83882   8.212   5.579   2.293
12267W        W83883   0.831  44.198   2.274
12268W        W83884  10.623  39.427   0.826
12269W        W83885   6.040   4.106  12.613
12270W        W83886  10.239  44.439   1.636
12271W        W83887  19.325  39.909   3.511
12272W        W83888  35.711  17.127   4.829
12273W        W83889  37.795   1.307  12.564
12274W        W83890  11.972   8.618  11.647
12275W        W83891  11.234   0.863  11.436
12276W        W83892   2.538  16.675  11.195
12277W        W83893  34.309   0.661   4.184
12278W        W83894  38.823  33.066   3.379
12279W        W83895  20.687   5.914  14.454
12280W        W83896  15.669   6.702   2.363
12281W        W83897  20.052   0.492  11.472
12282W        W83898  15.842  12.861  11.566
12283W        W83899  22.481  13.229   4.573
12284W        W83900  23.145  17.016  14.032
12285W        W83901  42.956  39.996  10.379
12286W        W83902   4.385  18.702   0.511
12287W        W83903   6.709  26.549  13.904
12288W        W83904  42.836  16.350   3.466
12289W        W83905  27.890  19.866  11.569
12290W        W83906  17.455   2.779  10.139
12291W        W83907  17.174   3.203  11.061
12292W        W83908  43.715   3.133  13.312
12293W        W83909  21.773   4.424  13.771
12294W        W83910   2.542  33.451   0.793
12295W        W83911   5.269  35.922   1.511
12296W        W83912  10.680  15.111  11.005
12297W        W83913  17.405  34.923   1.707
12298W        W83914  12.262   3.945   0.980
12299W        W83915  21.548   0.230   0.627
12300W        W83916  35.382  26.704   4.651
12301W        W83917  41.484  35.059   4.146
12302W        W83918  31.404  42.932   0.961
12303W        W83919  24.162  26.581   0.980
12304W        W83920   0.153  23.037   0.337
12305W        W83921  35.073  35.412   3.584
12306W        W83922  31.843  42.541   3.922
12307W        W83923  18.711  14.790   3.256
12308W        W83924  27.077  41.779  10.700
12309W        W83925  21.180  21.272  11.656
12310W        W83926  11.901   8.725   0.852
12311W        W83927  14.132   4.552   3.389
12312W        W83928  32.639   2.750  13.019
12313W        W83929  10.192   8.179   3.157
12314W        W83930  37.800  23.085   3.468
12315W        W83931  32.211   7.555  14.817
12316W        W83932   8.920  16.713   1.271
12317W        W83933   4.238   4.872  10.742
12318W        W83934  11.144  15.710   4.595
12319W        W83935  25.244  25.111  11.072
12320W        W83936  32.113   9.908   1.808
12321W        W83937  39.192   5.133   1.698
12322W        W83938  21.767  43.825  10.534
12323W        W83939  22.973   0.985   1.643
12324W        W83940  20.658  34.149  10.701
12325W        W83941  44.543  12.287   0.079
12326W        W83942  30.632  37.462   3.657
12327W        W83943  44.440  32.044  13.404
12328W        W83944  27.362   1.009   3.761
12329W        W83945  24.004   4.712  13.819
12330W        W83946   1.184  38.801  11.529
12331W        W83947  15.310  10.633   2.821
12332W        W83948  39.650  32.706  12.042
12333W        W83949   6.331  41.012  13.466
12334W        W83950  11.750  16.996   5.019
12335W        W83951  14.538   1.942  11.162
12336W        W83952  32.839  33.971  13.892
12337W        W83953  43.986  23.261  12.832
12338W        W83954   4.945  23.775   4.985
12339W        W83955   0.389  11.884  10.706
12340W        W83956  22.069  20.120  12.565
12341W        W83957  19.356   7.290   0.718
12342W        W83958  16.478  26.025  14.841
12343W        W83959  36.893  27.393   1.725
12344W        W83960  44.810   1.461  12.130
12345W        W83961  36.431   9.471   4.135
12346W        W83962  31.853  19.672   0.225
12347W        W83963  36.287  14.196  11.383
12348W        W83964  12.684  11.325  14.957
12349W        W83965  24.520   9.477  13.413
12350W        W83966  21.717  39.380   3.547
12351W        W83967  44.934  24.123   4.649
12352W        W83968  23.614  22.320  14.452
12353W        W83969   9.924  25.345  14.889
12354W        W83970  27.442  21.173  14.536
12355W        W83971  41.817   5.841   1.756
12356W        W83972  44.248  10.739  11.114
12357W        W83973  32.602  39.034  13.263
12358W        W83974  22.244  25.237   0.701
12359W        W83975   9.234  42.862  11.592
12360W        W83976  32.350   2.902   3.779
12361W        W83977  17.625  40.711   2.336
12362W        W83978  38.828  20.751   4.760
12363W        W83979   1.210  39.334  12.876
12364W        W83980  21.287   3.310  10.907
12365W        W83981  30.587  21.803   3.745
12366W        W83982   4.766  25.931   1.319
12367W        W83983  30.744  18.372  12.004
12368W        W83984  30.576  39.909  14.915
12369W        W83985  13.224  26.106  11.561
12370W        W83986  40.130  36.491  12.921
12371W        W83987  38.305  32.206   0.297
12372W        W83988  24.806  31.504  10.396
12373W        W83989  29.117  40.366   3.345
12374W        W83990  22.704   4.776   1.267
12375W        W83991  21.575  22.261   3.834
12376W        W83992  13.228  11.761  14.995
12377W        W83993   6.873   2.316   1.714
12378W        W83994  29.943  13.019   3.576
12379W        W83995  38.931  22.327  13.503
12380W        W83996  35.424  16.210   2.062
12381W        W83997  42.907  13.959   1.883
12382W        W83998  36.510  38.404   1.335
12383W        W83999  14.702  39.328   2.094
12384W        W84000  26.510   0.952   2.759
12385W        W84001  44.050  15.212  13.270
12386W        W84002  24.190   8.876  12.661
12387W        W84003   3.240   5.795  10.966
12388W        W84004  32.387  34.683  14.942
12389W        W84005   2.802  44.806   2.151
12390W        W84006   1.157   4.219  14.550
12391W        W84007  12.385  21.768  13.083
12392W        W84008   4.747  37.640   4.579
12393W        W84009  32.522  10.170   4.866
12394W        W84010  44.226  26.574   5.015
12395W        W84011   6.335  12.040   3.133
12396W        W84012  18.467  11.397  11.685
12397W        W84013  43.683  38.399  11.223
12398W        W84014  28.562  34.579   2.798
12399W        W84015  22.074   2.911  13.804
12400W        W84016  28.046   6.637  13.575
12401W        W84017   6.209  10.104  14.308
12402W        W84018  37.821  11.642  13.462
12403W        W84019  33.974  37.536  12.161
12404W        W84020  23.877  41.274  10.148
12405W        W84021  40.032   4.402   5.021
12406W        W84022  12.647  44.471  14.118
12407W        W84023  38.770  33.280   4.948
12408W        W84024  25.091  30.520   0.930
12409W        W84025  38.888  25.689   2.565
12410W        W84026  30.094  37.986  14.972
12411W        W84027  41.123  28.899   3.955
12412W        W84028   3.252  36.915  10.855
12413W        W84029  27.705  20.947  11.078
12414W        W84030  23.000  37.884  14.260
12415W        W84031   2.364  25.540   1.388
12416W        W84032  28.483  37.407  13.719
12417W        W84033  21.672  30.822   1.159
12418W        W84034  17.701  11.379   3.588
12419W        W84035   8.392   2.480  13.739
12420W        W84036   9.707  32.709  14.269
12421W        W84037  43.981   8.395  14.448
12422W        W84038  34.340  13.160  11.497
12423W        W84039  11.827  12.625  14.386
12424W        W84040   3.709  33.055   9.881
12425W        W84041  35.548  23.619  11.766
12426W        W84042  20.272  39.452  14.600
12427W        W84043  42.425  41.919   2.926
12428W        W84044  25.365  34.643  14.028
12429W        W84045  10.451  44.077  10.073
12430W        W84046  43.052  41.425  14.758
12431W        W84047   6.676  32.216  12.827
12432W        W84048   6.699   1.885  12.457
12433W        W84049  42.353   9.196   2.889
12434W        W84050  34.492  31.143   3.819
12435W        W84051  44.507   7.144  12.135
12436W        W84052  27.730   2.080   1.768
12437W        W84053  19.814  30.489  13.531
12438W        W84054   4.486   1.762   0.183
12439W        W84055  18.665  10.133  14.033
12440W        W84056   1.421  10.831   1.533
12441W        W84057   3.390  39.232   4.925
12442W        W84058   1.700   5.212   2.050
12443W        W84059  17.748  44.404   2.254
12444W        W84060  43.164  37.709  12.253
12445W        W84061  38.429  34.550  12.198
12446W        W84062  28.914   9.665  12.070
12447W        W84063  41.932  12.676   4.871
12448W        W84064  30.553  20.585   1.640
12449W        W84065  25.040  13.816  13.354
12450W        W84066  16.638  42.274  11.601
12451W        W84067  12.669  21.195  10.645
12452W        W84068  20.246  27.748   1.981
12453W        W84069  23.530  43.357  12.011
12454W        W84070   4.648   4.310   5.405
12455W        W84071   5.385   0.786   4.076
12456W        W84072  38.518   9.162  14.998
12457W        W84073  13.542  35.286  14.054
12458W        W84074  26.936  13.168  10.603
12459W        W84075  36.566  18.194   4.554
12460W        W84076  23.949  33.339  14.304
12461W        W84077   1.395  23.085   0.964
12462W        W84078  20.372  38.305   0.807
12463W        W84079   8.465  43.950   4.229
12464W        W84080   1.673  24.699   2.378
12465W        W84081  43.375  27.507   4.812
12466W        W84082  37.244  32.998  13.850
12467W        W84083  35.910  24.263  10.723
12468W        W84084  29.398  18.760  12.487
12469W        W84085   2.919  13.073   4.408
12470W        W84086  36.989  28.611  12.449
12471W        W84087  44.980  34.901   1.821
12472W        W84088  18.633  13.874  12.508
12473W        W84089  20.600  16.180   3.908
12474W        W84090  13.374   1.423  10.688
12475W        W84091  39.910  16.256  12.984
12476W        W84092  21.955  30.509   0.438
12477W        W84093  36.980  21.398   1.783
12478W        W84094  14.451  22.471  14.376
12479W        W84095  16.249  26.988   1.412
12480W        W84096  16.350  37.536   1.190
12481W        W84097  13.292  31.026  13.556
12482W        W84098  22.282  26.520  13.138
12483W        W84099  20.204  41.888   3.931
12484W        W84100   2.792  30.874  10.571
12485W        W84101  38.241  27.654   2.060
12486W        W84102  20.237  25.118   3.338
12487W        W84103  38.474  14.100   2.763
12488W        W84104  25.741  24.568   2.187
12489W        W84105  15.240  10.129  11.214
12490W        W84106  20.262  11.189  12.404
12491W        W84107  24.193  28.099  11.675
12492W        W84108  13.183  36.857   3.640
12493W        W84109  36.890  25.754   3.572
12494W        W84110  14.430  11.920   5.094
12495W        W84111  22.655  39.261  12.086
12496W        W84112   8.183  39.871   0.704
12497W        W84113   9.494  28.092  10.662
12498W        W84114   0.565  28.684   4.299
12499W        W84115   2.318  34.254  13.982
12500W        W84116  36.355  22.713   2.758
12501W        W84117  43.769  42.602   0.688
12502W        W84118  34.471  37.742  10.857
12503W        W84119  19.613  44.996   2.310
12504W        W84120  20.940   1.452  11.845
12505W        W84121   5.370   0.336   1.675
12506W        W84122  35.631  38.566   2.781
12507W        W84123  31.090  17.051  11.635
12508W        W84124  15.240  17.885  14.738
12509W        W84125   3.172  41.543   1.690
12510W        W84126  30.748   0.922   3.992
12511W        W84127  28.093   9.780  14.560
12512W        W84128  41.852  27.258  13.969
12513W        W84129  34.917   5.754  12.096
12514W        W84130  11.921  17.734  10.882
12515W        W84131  18.870  14.617   4.073
12516W        W84132   1.870   5.921   1.834
12517W        W84133  24.176   7.145  12.964
12518W        W84134  35.517  39.043   3.862
12519W        W84135  28.436  30.188   0.439
12520W        W84136  18.147  17.835  10.901
12521W        W84137  38.762  26.231  12.879
12522W        W84138  16.590   9.657   4.485
12523W        W84139  20.613  28.593  13.822
12524W        W84140   1.772  36.135   1.054
12525W        W84141  17.832   6.222  12.831
12526W        W84142  24.583  15.269  14.495
12527W        W84143  23.128  22.139  12.652
12528W        W84144  13.251  43.128   1.833
12529W        W84145  44.260  30.253  11.039
12530W        W84146   5.886   2.553  12.442
12531W        W84147   6.494   1.280   0.970
12532W        W84148  33.592  40.427   2.158
12533W        W84149  37.345  33.172   4.238
12534W        W84150  35.568  39.567  12.977
12535W        W84151  16.071  26.793  13.706
12536W        W84152   2.239  27.198   1.718
12537W        W84153   5.950   8.270  12.950
12538W        W84154  15.860  16.723   0.732
12539W        W84155   1.348  28.176  14.246
12540W        W84156  33.885  37.492   4.243
12541W        W84157  44.765  39.904   1.439
12542W        W84158  27.270  39.001  12.860
12543W        W84159  31.469  30.768  13.508
12544W        W84160  25.134   9.621   1.257
12545W        W84161  41.846  10.674   1.385
12546W        W84162  14.611  10.346  12.502
12547W        W84163  35.262  34.987   3.327
12548W        W84164  39.527  24.535  11.688
12549W        W84165  16.719  22.591   0.365
12550W        W84166   6.489  42.936  12.064
12551W        W84167  12.627  38.490  12.167
12552W        W84168  37.397  22.260   4.146
12553W        W84169   0.722  16.821   3.688
12554W        W84170  15.520  37.508  12.259
12555W        W84171  27.557   1.285   2.675
12556W        W84172  17.214  10.582  13.409
12557W        W84173  37.658   1.930  13.214
12558W        W84174  34.445  43.040   0.000
12559W        W84175  10.638  21.912   3.299
12560W        W84176  27.492   3.749  12.862
12561W        W84177   5.423  21.326   4.196
12562W        W84178  21.587  42.694  12.791
12563W        W84179  21.590   3.218   0.969
12564W        W84180  38.510  10.983   1.321
12565W        W84181   4.357  25.588  11.416
12566W        W84182   5.597  32.811  11.263
12567W        W84183  39.331  30.996   1.427
12568W        W84184  23.377  26.197  14.609
12569W        W84185   6.778  42.897   0.255
12570W        W84186  10.366  20.530  13.925
12571W        W84187  14.837  28.553  14.468
12572W        W84188  41.023  39.841   0.788
12573W        W84189  13.861  16.034   0.111
12574W        W84190   5.442   0.290   0.310
12575W        W84191  16.986  27.179   2.859
12576W        W84192  16.919  42.575  12.843
12577W        W84193  13.767  22.320  12.144
12578W        W84194  39.770  41.919   2.464
12579W        W84195  11.311  16.019   3.163
12580W        W84196  23.548  10.810   3.678
12581W        W84197  42.672   9.679  13.918
12582W        W84198  21.861  19.666   0.784
12583W        W84199  16.266  31.186  11.292
12584W        W84200  19.022  36.141  13.034
12585W        W84201  20.297  40.681   2.795
12586W        W84202  33.973  13.146   3.648
12587W        W84203  16.173   9.894   1.761
12588W        W84204   5.443  17.389  13.123
12589W        W84205  38.300   5.488  12.831
12590W        W84206  19.004  38.816  11.669
12591W        W84207  25.046  29.167  10.498
12592W        W84208  26.176  16.123   2.195
12593W        W84209  30.607  29.417   1.482
12594W        W84210  34.919  33.390  13.482
12595W        W84211  41.489  37.935   4.110
12596W        W84212   4.227  38.311  12.030
12597W        W84213  19.447   3.806  11.967
12598W        W84214  39.093  44.072   3.645
12599W        W84215  17.916  12.816  13.013
12600W        W84216  12.191  28.153   1.359
12601W        W84217   3.811   0.822   3.855
12602W        W84218  32.905  41.555  14.859
12603W        W84219  34.147  11.905   1.923
12604W        W84220  44.514  16.089   0.815
12605W        W84221  39.901  12.886   4.952
12606W        W84222  27.993  27.197  13.393
12607W        W84223  11.176  22.494  14.793
12608W        W84224  32.644  29.630   2.225
12609W        W84225  27.728  28.666   0.949
12610W        W84226   4.357  32.203   0.806
12611W        W84227  18.842  40.997   1.576
12612W        W84228  41.506  31.246  11.151
12613W        W84229  35.874  11.477  14.825
12614W        W84230  41.909  30.446   0.337
12615W        W84231  30.176  13.295  14.530
12616W        W84232   6.876  22.516   1.332
12617W        W84233  27.462   2.271   2.297
12618W        W84234  16.132  11.790   3.673
12619W        W84235   4.224  41.901   0.307
12620W        W84236  21.635  21.625   2.737
12621W        W84237  36.079  31.038   3.275
12622W        W84238  40.526  32.299  14.215
12623W        W84239  19.873   8.703   0.394
12624W        W84240  39.550  38.323   1.500
12625W        W84241  23.204  22.277   1.588
12626W        W84242   7.800   2.326   0.946
12627W        W84243   0.960  13.898  13.914
12628W        W84244  20.870  36.631   0.142
12629W        W84245  35.084  43.301  12.906
12630W        W84246  29.226  20.246   1.881
12631W        W84247  29.009  15.150   1.952
12632W        W84248  11.803  29.141   2.594
12633W        W84249  22.661  36.259  11.023
12634W        W84250   6.806  32.108   1.008
12635W        W84251  23.186  12.877  11.436
12636W        W84252  11.953  27.460   1.471
12637W        W84253   4.246  25.990   3.393
12638W        W84254  34.061  13.610  14.405
12639W        W84255   1.014  43.902   1.884
12640W        W84256  22.160  33.176  11.989
12641W        W84257  26.992  24.498   2.927
12642W        W84258  14.865  35.910   0.459
12643W        W84259   0.206  22.971  12.563
12644W        W84260  12.231  14.460  13.118
12645W        W84261   0.238  15.288  12.953
12646W        W84262  31.982  10.436  12.390
12647W        W84263  20.095  15.857  14.636
12648W        W84264  19.838  22.669  11.520
12649W        W84265  30.647   6.212   4.550
12650W        W84266  36.085  41.670   0.058
12651W        W84267   9.775  37.174  14.431
12652W        W84268  17.861  16.141  12.638
12653W        W84269  27.229  44.341  10.696
12654W        W84270  37.248  21.187   1.338
12655W        W84271  24.669  28.067   4.485
12656W        W84272  23.694  15.417  12.590
12657W        W84273  15.277  12.725   2.629
12658W        W84274  24.255  36.435   3.944
12659W        W84275   2.875   6.236  11.060
12660W        W84276  23.332  34.375   4.185
12661W        W84277  23.642  22.238  12.502
12662W        W84278  11.269   2.023  12.371
12663W        W84279   1.475  24.763  13.111
12664W        W84280  44.595  24.034  11.521
12665W        W84281  18.095  25.097   2.429
12666W        W84282  27.247  21.917  12.879
12667W        W84283   2.693  25.838  13.435
12668W        W84284  44.344  17.885   0.186
12669W        W84285  28.239   7.667  11.956
12670W        W84286  30.640   8.079   1.262
12671W        W84287  25.539  23.046  13.121
12672W        W84288  23.225  35.117  14.930
12673W        W84289  25.451  14.949  11.556
12674W        W84290  36.518  41.693  11.919
12675W        W84291  15.207   7.649  13.323
12676W        W84292  35.391  37.985  10.399
12677W        W84293  22.666  40.523   1.299
12678W        W84294  27.858  15.562   1.674
12679W        W84295   9.303   2.209   2.849
12680W        W84296  38.017  40.558   1.388
12681W        W84297  18.738  18.717  14.010
12682W        W84298  14.610   2.853   1.427
12683W        W84299   5.791  44.547   0.659
12684W        W84300   5.382  15.211  11.336
12685W        W84301  39.543  41.558   0.779
12686W        W84302   6.288  16.788  10.695
12687W        W84303  31.138  14.673   0.993
12688W        W84304  32.333   7.966   2.812
12689W        W84305  32.618  38.461   0.242
12690W        W84306  41.077   4.871   2.792
12691W        W84307  34.931  28.337   3.916
12692W        W84308  43.355  33.573  10.381
12693W        W84309   5.322  36.746   3.764
12694W        W84310   9.854  31.419  13.169
12695W        W84311  16.211  36.350   1.917
12696W        W84312  40.269  39.492   0.898
12697W        W84313  17.019  29.499   1.979
12698W        W84314   0.381  42.345   3.906
12699W        W84315  28.502  40.146  13.540
12700W        W84316  21.565  36.468   1.272
12701W        W84317  10.782  35.324  11.702
12702W        W84318  23.257   4.403   4.593
12703W        W84319  23.852   6.779  10.520
12704W        W84320  42.046  43.529   3.673
12705W        W84321  21.457  44.330  11.985
12706W        W84322  32.910  32.555   4.137
12707W        W84323  26.218  32.388   0.894
12708W        W84324  44.734  29.619   1.388
12709W        W84325  11.932  15.622  12.048
12710W        W84326   8.917  31.975  13.965
12711W        W84327  29.976  36.135   4.548
12712W        W84328  35.627   8.482   0.428
12713W        W84329  41.631  32.132   4.313
12714W        W84330  32.898  38.882   0.401
12715W        W84331  39.542   7.399  12.585
12716W        W84332   7.569  11.998  10.364
12717W        W84333  19.097  40.891   4.089
12718W        W84334  44.310  22.457   0.946
12719W        W84335  18.848   0.405  10.961
12720W        W84336  26.416  17.217   0.443
12721W        W84337   1.386  11.090  11.628
12722W        W84338  33.321   5.717  14.399
12723W        W84339  21.263   0.261   2.108
12724W        W84340  16.199  21.726  10.810
12725W        W84341  43.700  27.428  13.451
12726W        W84342  11.069  41.030  11.534
12727W        W84343  22.624  41.290   3.731
12728W        W84344   7.225   6.025  12.022
12729W        W84345  12.824  20.161  13.275
12730W        W84346  27.948  30.091   0.188
12731W        W84347  22.658  33.911   2.383
12732W        W84348   4.047  19.230   2.582
12733W        W84349  15.349  40.013   3.741
12734W        W84350  41.059   9.980  13.573
12735W        W84351  44.443  12.782  14.816
12736W        W84352  34.977  39.780   2.906
12737W        W84353   2.041  39.029   4.250
12738W        W84354   6.806  10.237   3.968
12739W        W84355   9.891  43.263  14.314
12740W        W84356  34.564  39.057  13.637
12741W        W84357  41.765  31.060  11.731
12742W        W84358  41.420  41.775   4.554
12743W        W84359  26.201   8.278  12.944
12744W        W84360  25.957  37.751  13.570
12745W        W84361   4.868  43.088  11.880
12746W        W84362   6.887   2.302   4.542
12747W        W84363  40.278  26.499   3.228
12748W        W84364  38.547   8.569   2.717
12749W        W84365  24.127  35.792  14.700
12750W        W84366   1.862  14.781   2.297
12751W        W84367  24.335  30.382  12.002
12752W        W84368   8.293   8.921   1.430
12753W        W84369  11.427  34.979   1.341
12754W        W84370  13.671  19.817   2.674
12755W        W84371  17.175  21.630   0.253
12756W        W84372  39.367  29.741  10.644
12757W        W84373  39.813  44.883   2.423
12758W        W84374  12.053  14.909  11.678
12759W        W84375  10.239  35.384   3.584
12760W        W84376  41.424  27.137   0.289
12761W        W84377  32.286  39.980  14.186
12762W        W84378  14.585  28.879   2.801
12763W        W84379  35.493  35.847  14.270
12764W        W84380  29.017   8.878  12.716
12765W        W84381  23.521  41.380   4.281
12766W        W84382   9.942  20.511  14.537
12767W        W84383  27.221   6.765   0.918
12768W        W84384  33.379  27.673   2.831
12769W        W84385   2.849  34.785  14.242
12770W        W84386  12.576  16.059   2.694
12771W        W84387  35.010   0.146   3.337
12772W        W84388  22.561  34.915   4.648
12773W        W84389  35.311   4.889   3.603
12774W        W84390   1.394  10.566  11.625
12775W        W84391  26.506  25.641  10.765
12776W        W84392   1.460  16.477  12.858
12777W        W84393   9.766  38.191  14.284
12778W        W84394  27.949  39.410   1.755
12779W        W84395  19.477   1.966   3.758
12780W        W84396  42.117  41.039  10.761
12781W        W84397  26.601  44.396   2.591
12782W        W84398  34.060   8.201  12.555
12783W        W84399  16.321   7.491   3.751
12784W        W84400   5.680  19.673  10.699
12785W        W84401   3.758  24.673   0.781
12786W        W84402  43.252  12.285   4.187
12787W        W84403  33.000   5.521  12.341
12788W        W84404  38.063  39.359   0.852
12789W        W84405  22.199  44.373   2.694
12790W        W84406   0.667  24.750  11.245
12791W        W84407  32.160  19.019  13.537
12792W        W84408  32.527   3.849   2.722
12793W        W84409   5.214  10.857   4.343
12794W        W84410  38.061  12.847  11.559
12795W        W84411  16.295  12.274   3.788
12796W        W84412  18.023  30.532   0.865
12797W        W84413  32.175   3.556   2.143
12798W        W84414  18.006   8.801  13.752
12799W        W84415  10.589  30.993  13.165
12800W        W84416  36.031  30.917  13.618
12801W        W84417  41.034   8.647   1.346
12802W        W84418  29.525  37.499   4.404
12803W        W84419  39.952   9.105   4.346
12804W        W84420  18.019  14.547   0.500
12805W        W84421  33.952  15.885  11.498
12806W        W84422  19.783  11.406   1.302
12807W        W84423  30.704  29.638  10.819
12808W        W84424   0.051  43.367  10.699
12809W        W84425  19.198  29.331  12.207
12810W        W84426  19.444  21.195   2.331
12811W        W84427   0.026  32.934   1.209
12812W        W84428  30.366  14.389  10.801
12813W        W84429  10.770  42.031  14.362
12814W        W84430  19.688  13.326   0.009
12815W        W84431   3.903   5.281   4.567
12816W        W84432  29.734  39.829   4.631
12817W        W84433  37.316   0.012   3.726
12818W        W84434  44.504  27.494  13.945
12819W        W84435  33.013  18.582   2.240
12820W        W84436  30.086  44.510   1.298
12821W        W84437  26.609  43.389  13.806
12822W        W84438  42.693  18.215   2.775
12823W        W84439  20.088  17.991  13.052
12824W        W84440  31.298   2.420  14.015
12825W        W84441  19.130  22.405  14.401
12826W        W84442   2.704  28.602  13.883
12827W        W84443  15.348  25.417   0.937
12828W        W84444  29.462  36.309  12.950
12829W        W84445  40.609  10.971   4.040
12830W        W84446   4.937  42.112   0.946
12831W        W84447  28.627   4.801  13.436
12832W        W84448  16.548  14.330   3.846
12833W        W84449  23.605  37.723   4.242
12834W        W84450  13.226  30.583  13.262
12835W        W84451  13.870  20.390   1.720
12836W        W84452  35.478  40.815  11.466
12837W        W84453  41.260   9.661   0.881
12838W        W84454  44.233  34.462   1.667
12839W        W84455  27.539  20.944   2.667
12840W        W84456  31.110  24.509  14.299
12841W        W84457   4.807   7.957  11.200
12842W        W84458  43.575   5.106  14.458
12843W        W84459  29.125  34.925   2.592
12844W        W84460   8.151  12.593   1.305
12845W        W84461  38.737  13.809   1.938
12846W        W84462  43.558  41.379  14.847
12847W        W84463   8.712  32.128   3.328
12848W        W84464  30.421   9.261  11.623
12849W        W84465  15.726  24.986   3.448
12850W        W84466   9.650   4.344   0.866
12851W        W84467   6.481  39.903  10.760
12852W        W84468  36.005   6.335   2.833
12853W        W84469  29.854  12.340  10.797
12854W        W84470  35.842  13.738   3.394
12855W        W84471  35.896  22.405  11.583
12856W        W84472  36.062  27.397  13.919
12857W        W84473   6.837  44.476  11.595
12858W        W84474  26.062  24.098  12.378
12859W        W84475  40.815  24.970  10.581
12860W        W84476  39.958  20.117   3.219
12861W        W84477  27.527  11.717   0.336
12862W        W84478   6.061  22.270   4.045
12863W        W84479  15.335  34.116  12.611
12864W        W84480   3.373  27.745  12.416
12865W        W84481  20.836  29.556   4.157
12866W        W84482  41.751  38.297  11.973
12867W        W84483  10.447  36.110  12.437
12868W        W84484  10.468   9.902  12.047
12869W        W84485   0.320   1.210  14.496
12870W        W84486  40.437  12.138  10.702
12871W        W84487  39.281   9.192   1.349
12872W        W84488  27.549  16.400   5.031
12873W        W84489  40.830   1.869  10.732
12874W        W84490  31.814   1.246   4.824
12875W        W84491  15.833  36.495   2.413
12876W        W84492  33.329  31.524   9.803
12877W        W84493   1.033  27.666  12.030
12878W        W84494   1.456   9.135  12.149
12879W        W84495  17.736  21.753  10.748
12880W        W84496  36.454   1.726  11.708
12881W        W84497  43.286  44.193  10.143
12882W        W84498  25.959  21.770   3.708
12883W        W84499   8.243   3.222  14.685
12884W        W84500   7.532  37.371  13.568
12885W        W84501  41.516  15.520   2.300
12886W        W84502  29.658   9.977  12.925
12887W        W84503  27.778  40.864   2.286
12888W        W84504   3.230  29.574   3.166
12889W        W84505  27.415  41.331   1.370
12890W        W84506  30.862  27.965  14.358
12891W        W84507  38.088   4.678  13.819
12892W        W84508   7.717  39.680  14.405
12893W        W84509  19.166  44.825  10.607
12894W        W84510   6.333  16.305  14.485
12895W        W84511  17.342  34.977  14.884
12896W        W84512  31.635  24.007  11.474
12897W        W84513  21.283  17.136  12.927
12898W        W84514  31.014  11.377  13.923
12899W        W84515  20.915   4.747   3.683
12900W        W84516  41.248   2.189   1.319
12901W        W84517  11.866  26.757   1.662
12902W        W84518  13.399  41.862  11.101
12903W        W84519  42.887  17.734   3.598
12904W        W84520   0.464  25.090   1.702
12905W        W84521   9.740   7.338  14.484
12906W        W84522   1.718  39.352  12.856
12907W        W84523  13.599  21.740  13.870
12908W        W84524   7.655  40.372   1.347
12909W        W84525  27.920  20.663  13.309
12910W        W84526  22.753   4.835   4.262
12911W        W84527   0.161  10.606   3.403
12912W        W84528  32.404  25.772   3.566
12913W        W84529  26.884  23.985  14.275
12914W        W84530   8.955  23.032   0.821
12915W        W84531  38.770   1.824  10.227
12916W        W84532  41.842   0.974   4.555
12917W        W84533  37.584   3.187   1.329
12918W        W84534  26.306  13.219   3.625
12919W        W84535  15.927  18.075   0.505
12920W        W84536  41.271  32.945  14.999
12921W        W84537  44.369  17.006  14.396
12922W        W84538   4.203  13.400  10.975
12923W        W84539  38.099  22.007   0.358
12924W        W84540   0.461  35.018   2.477
12925W        W84541  17.381  21.071  12.556
12926W        W84542  40.371  11.162   9.946
12927W        W84543  16.312   1.950   2.672
12928W        W84544  37.506  23.008   4.671
12929W        W84545  28.535   9.877   2.750
12930W        W84546  39.542  42.377   1.510
12931W        W84547  11.673  40.952   0.796
12932W        W84548  12.882  33.488   2.189
12933W        W84549  21.124  16.650  11.680
12934W        W84550  20.544   7.426  12.114
12935W        W84551  43.785  14.846   0.961
12936W        W84552   1.032  37.039   2.260
12937W        W84553  40.934   2.976  10.992
12938W        W84554  16.309  26.517   4.091
12939W        W84555  29.697  11.736   0.607
12940W        W84556  42.723  12.229   2.762
12941W        W84557  40.137  30.854   3.118
12942W        W84558  32.335  23.029   1.679
12943W        W84559  16.096  38.770  11.086
12944W        W84560  43.825  32.793   1.382
12945W        W84561   8.726   9.706  13.168
12946W        W84562  43.306   2.363   4.927
12947W        W84563  30.074  44.301  13.339
12948W        W84564  16.538  21.694   4.641
12949W        W84565  37.658  28.953  11.916
12950W        W84566   3.051  24.627  11.487
12951W        W84567  38.537  14.439   3.139
12952W        W84568  33.460  25.712  14.130
12953W        W84569  44.408  25.513  12.998
12954W        W84570  15.591  10.784  14.071
12955W        W84571  42.917   2.507   4.560
12956W        W84572  14.161  41.328   4.987
12957W        W84573   0.636  33.587  10.706
12958W        W84574  24.177  33.335   4.704
12959W        W84575   8.332   9.751   0.447
12960W        W84576   4.250  34.157  12.935
12961W        W84577  15.572   6.338   4.631
12962W        W84578  44.263  39.982  14.274
12963W        W84579  38.592  22.636  10.924
12964W        W84580  24.574   5.159   3.118
12965W        W84581  26.868   3.730  14.225
12966W        W84582  27.075  13.310  10.139
12967W        W84583  32.996  26.587   3.462
12968W        W84584  26.218  37.455  10.860
12969W        W84585  39.492   7.723  13.412
12970W        W84586  10.026  31.083  11.586
12971W        W84587  20.754   5.513   4.543
12972W        W84588  42.476  17.807   1.855
12973W        W84589  20.221  44.966   3.226
12974W        W84590  35.805  24.567   0.814
12975W        W84591  36.534  30.537   5.066
12976W        W84592  16.600   6.412  14.326
12977W        W84593  34.518  12.797   3.874
12978W        W84594  30.949  40.568   0.993
12979W        W84595  26.161  26.944   2.698
12980W        W84596   6.624  27.677  14.915
12981W        W84597  32.602  41.404   0.669
12982W        W84598  36.551  40.843   4.148
12983W        W84599   1.783  18.780  12.956
12984W        W84600  25.982   6.149  11.124
12985W        W84601  27.718  32.115   2.794
12986W        W84602   1.292   8.119  13.536
12987W        W84603   3.771   4.611  12.484
12988W        W84604  32.124  26.443   0.440
12989W        W84605  37.958  13.335   4.234
12990W        W84606  19.638  37.129   2.699
12991W        W84607  18.363  37.870   3.250
12992W        W84608   4.153  21.273   1.399
12993W        W84609  25.261  22.193  11.602
12994W        W84610   0.943  20.459  13.845
12995W        W84611  44.331  18.482   0.793
12996W        W84612   5.390  43.431  10.793
12997W        W84613   4.800   4.963  10.018
12998W        W84614  37.322   4.414  11.899
12999W        W84615  35.410  43.037  11.674
13000W        W84616   2.448  34.101   3.236
13001W        W84617  33.009  18.017   4.393
13002W        W84618  27.677   4.225   1.339
13003W        W84619  11.605  43.789   2.180
13004W        W84620  27.878   2.263   3.247
13005W        W84621  32.124  15.504   1.533
13006W        W84622  26.276   6.932  14.634
13007W        W84623  18.643  35.818   2.868
13008W        W84624   6.470  37.935  14.853
13009W        W84625  41.878  39.818  12.019
13010W        W84626  35.091  39.952   1.436
13011W        W84627  18.988  29.116   2.892
13012W        W84628  18.807  41.881  11.514
13013W        W84629  31.134   3.319   4.836
13014W        W84630   4.651  38.764  14.954
13015W        W84631  43.419  24.978   1.909
13016W        W84632   1.200   7.998   1.240
13017W        W84633  17.539   5.177   3.933
13018W        W84634   0.913  23.002   9.826
13019W        W84635   8.645  17.746   0.881
13020W        W84636  39.522  17.165  12.979
13021W        W84637  23.477  15.153  12.989
13022W        W84638  39.911  21.315  13.441
13023W        W84639  22.553   5.838   3.681
13024W        W84640  28.969  24.649  12.895
13025W        W84641  29.855   1.857  13.387
13026W        W84642  25.075   7.394  11.143
13027W        W84643  41.536  38.949  14.159
13028W        W84644  44.380  41.006  14.951
13029W        W84645   7.218  31.195  13.540
13030W        W84646   1.339  31.902  14.275
13031W        W84647   7.702  44.836  12.449
13032W        W84648  12.127  30.117  12.368
13033W        W84649   0.986   0.928  10.654
13034W        W84650  18.218  12.173   1.332
13035W        W84651  25.152  30.126  11.491
13036W        W84652  10.859  26.677   1.347
13037W        W84653  40.359  27.036   3.637
13038W        W84654  27.566  16.022   4.078
13039W        W84655  40.870   0.511   3.172
13040W        W84656  41.344  36.975   0.784
13041W        W84657  36.442   5.148  13.088
13042W        W84658  36.770  21.165   1.131
13043W        W84659  34.502  12.863   3.364
13044W        W84660  34.359  32.431  12.239
13045W        W84661  31.327  44.485  14.920
13046W        W84662  14.149  37.580  11.067
13047W        W84663  28.627  35.813  11.140
13048W        W84664   4.753  26.543  14.663
13049W        W84665  22.832  21.202   2.850
13050W        W84666   8.696   8.387   4.918
13051W        W84667  36.104  34.005  13.872
13052W        W84668  40.517  23.171   0.071
13053W        W84669  12.285  21.306   2.088
13054W        W84670   2.101  26.638  12.030
13055W        W84671  24.290   4.891  13.444
13056W        W84672   1.964  36.542  12.475
13057W        W84673  23.913   1.716   1.935
13058W        W84674  24.551   1.270  10.620
13059W        W84675  14.865   4.990  14.863
13060W        W84676  21.622  22.433   2.283
13061W        W84677  33.630  30.069   2.391
13062W        W84678  31.192   2.828   0.279
13063W        W84679  20.120   8.321   1.218
13064W        W84680  21.102  17.539  14.064
13065W        W84681  42.533   0.259  11.507
13066W        W84682  10.270  28.677   0.891
13067W        W84683  21.470  12.110   4.519
13068W        W84684   9.608  10.799  12.424
13069W        W84685  10.891  22.229   4.245
13070W        W84686  12.761  10.710   1.792
13071W        W84687  26.518  30.523   5.107
13072W        W84688  31.592  40.315  11.756
13073W        W84689  39.852   5.619  11.066
13074W        W84690  12.195  19.526   1.294
13075W        W84691   5.756  35.579   1.693
13076W        W84692  23.941   3.364   4.112
13077W        W84693  40.081  14.607  10.446
13078W        W84694  43.282  33.602  13.468
13079W        W84695  25.032  11.664  13.985
13080W        W84696  34.356  14.235   0.073
13081W        W84697  16.227  21.439  14.765
13082W        W84698   5.152  14.391   2.412
13083W        W84699  14.861  30.687  11.671
13084W        W84700  29.823  35.940  13.023
13085W        W84701  27.962  40.332  14.257
13086W        W84702  19.236  28.650   1.324
13087W        W84703  28.574  14.617   1.773
13088W        W84704  11.671  11.233  13.846
13089W        W84705  27.265  20.049  14.928
13090W        W84706   3.929  31.222  11.598
13091W        W84707  12.313   4.628   0.248
13092W        W84708   5.593  26.134   1.264
13093W        W84709  38.446  43.970  13.372
13094W        W84710  23.747  11.191  11.230
13095W        W84711  32.482   3.821   4.698
13096W        W84712  37.874  43.692   3.701
13097W        W84713  20.642  20.795  14.765
13098W        W84714  44.239  15.151   2.740
13099W        W84715   7.360  14.847  12.984
13100W        W84716   1.672  11.620   4.578
13101W        W84717  37.434  31.937  14.387
13102W        W84718   1.999  17.297  10.738
13103W        W84719  25.186  31.010  11.081
13104W        W84720  17.841  18.047  11.791
13105W        W84721  26.581  12.621  14.756
13106W        W84722   5.397  21.362  11.588
13107W        W84723   0.089  15.758  13.786
13108W        W84724   3.010   8.388   2.914
13109W        W84725  37.308  14.192  11.447
13110W        W84726  32.825  43.732   0.673
13111W        W84727  41.525  22.507   2.117
13112W        W84728  18.751   5.335   2.285
13113W        W84729   0.745  11.371  13.252
13114W        W84730  14.847   2.832  12.057
13115W        W84731  19.057  20.009  11.105
13116W        W84732   5.685  17.248   2.551
13117W        W84733  12.275   3.935  14.406
13118W        W84734  28.118  30.925   1.667
13119W        W84735   2.765   3.900  11.662
13120W        W84736  27.543  33.469  14.843
13121W        W84737  11.526   0.640   4.299
13122W        W84738  11.798  34.195   4.307
13123W        W84739  35.488  34.536  14.946
13124W        W84740  21.338  18.364   1.807
13125W        W84741  23.674  25.160   3.688
13126W        W84742  14.167  32.819   2.806
13127W        W84743  23.981   8.243   1.881
13128W        W84744   8.650  29.328  14.551
13129W        W84745  16.351  39.632   3.665
13130W        W84746   0.594  14.244  14.068
13131W        W84747   8.945  34.517   1.904
13132W        W84748  33.848  24.939  14.409
13133W        W84749  36.326  34.066   2.234
13134W        W84750  44.922  27.650   3.932
13135W        W84751   4.412  12.629  10.652
13136W        W84752  26.942  27.093   3.185
13137W        W84753  15.310   4.463  10.654
13138W        W84754   6.650  26.142  11.135
13139W        W84755  16.624  25.261   4.452
13140W        W84756   3.390  16.141   4.253
13141W        W84757  18.680  21.958  13.356
13142W        W84758  37.573  25.021   0.510
13143W        W84759  30.923  43.038   0.457
13144W        W84760  25.227   3.938   4.296
13145W        W84761   3.302  14.879   0.870
13146W        W84762  36.501  31.716  14.429
13147W        W84763  17.968  37.396   3.643
13148W        W84764  14.317  22.991   1.440
13149W        W84765  36.780  36.972   0.895
13150W        W84766  17.160  29.996   2.252
13151W        W84767  25.721  13.935  11.472
13152W        W84768  23.499  44.215  11.481
13153W        W84769   0.354  38.556  10.460
13154W        W84770  10.301  32.869  13.451
13155W        W84771   3.859  24.604  11.133
13156W        W84772  38.879  32.446  12.480
13157W        W84773   8.622  32.824  12.544
13158W        W84774   6.329   0.684   3.161
13159W        W84775  19.206  42.390   0.937
13160W        W84776  33.900  11.609  10.326
13161W        W84777  38.323  12.008   2.699
13162W        W84778  25.239  39.727   0.425
13163W        W84779   2.966  33.499   0.452
13164W        W84780  13.285  25.077   0.099
13165W        W84781  29.705   8.626  12.104
13166W        W84782   2.304  32.410   1.356
13167W        W84783  12.343  40.507   1.751
13168W        W84784  38.714  17.456   5.179
13169W        W84785   8.594   0.710   0.806
13170W        W84786  16.455  11.265  13.204
13171W        W84787  38.496   0.190  10.673
13172W        W84788   7.111  36.017   2.592
13173W        W84789   9.905  30.602  13.574
13174W        W84790  22.451  38.915   2.757
13175W        W84791  24.128  11.107   0.855
13176W        W84792  36.529  27.561  11.141
13177W        W84793  36.360  29.768   3.316
13178W        W84794  36.754  14.195   4.224
13179W        W84795  15.105   1.163   4.605
13180W        W84796  22.171  37.297   2.510
13181W        W84797  25.372  34.753   0.722
13182W        W84798  38.797   7.753  12.977
13183W        W84799   5.272  26.151  13.934
13184W        W84800  37.487  17.724   4.582
13185W        W84801  24.219   5.801   4.681
13186W        W84802   5.199  20.848   4.101
13187W        W84803  41.851  17.517  11.758
13188W        W84804  12.227  35.521   2.661
13189W        W84805  31.931   7.933  10.713
13190W        W84806   4.785   6.506   0.452
13191W        W84807  16.163  21.067   2.476
13192W        W84808  26.497  19.215   0.886
13193W        W84809  38.412  33.006  10.576
13194W        W84810  11.498  23.027  13.547
13195W        W84811   6.179  20.211  12.565
13196W        W84812  42.862  37.875  14.864
13197W        W84813  17.739  41.558   2.814
13198W        W84814  41.098  28.092   5.099
13199W        W84815  40.015  38.668  13.613
13200W        W84816  29.067  20.694  14.086
13201W        W84817  16.865  26.401   3.209
13202W        W84818  15.765  16.305   1.410
13203W        W84819  37.338   5.375   3.938
13204W        W84820  10.412   7.431   1.700
13205W        W84821  22.977   8.358  14.415
13206W        W84822  29.879  24.685   3.864
13207W        W84823  21.849  15.181  12.001
13208W        W84824  29.694  35.763   1.460
13209W        W84825  33.740   6.294   0.775
13210W        W84826  14.697  35.153  12.339
13211W        W84827  32.155   2.156   0.872
13212W        W84828  32.588   7.601  13.414
13213W        W84829  15.559  27.184  10.518
13214W        W84830   5.924  42.951   2.740
13215W        W84831   0.715  40.035   4.398
13216W        W84832  38.604   6.780   0.062
13217W        W84833   1.087  36.071   3.592
13218W        W84834   6.292  34.874   4.798
13219W        W84835  32.418  42.009  13.985
13220W        W84836  29.824  13.340   2.387
13221W        W84837   4.727  20.743  11.358
13222W        W84838  15.044   4.380  11.069
13223W        W84839  30.583   7.346  13.326
13224W        W84840  37.295  41.985  13.894
13225W        W84841  44.689  31.903  12.938
13226W        W84842  35.531   0.522   0.453
13227W        W84843  33.821  21.282   1.718
13228W        W84844  13.143  21.269   4.579
13229W        W84845   9.908  37.842  11.050
13230W        W84846  29.977  42.806  10.913
13231W        W84847  33.509   4.614  10.136
13232W        W84848  20.942   1.238   2.225
13233W        W84849  20.627   3.459   4.841
13234W        W84850  26.513  31.178  12.422
13235W        W84851  10.101  18.319  12.489
13236W        W84852   0.390  14.830  12.419
13237W        W84853   6.072  22.122   2.301
13238W        W84854   6.438  28.271  11.599
13239W        W84855  30.917  12.763   1.806
13240W        W84856  18.485  40.775   1.275
13241W        W84857  24.978  17.116   2.460
13242W        W84858  35.702   7.710   2.071
13243W        W84859  27.924  17.633  11.020
13244W        W84860  27.483  37.096  10.702
13245W        W84861  25.619  10.629  13.445
13246W        W84862  31.906   4.529  12.901
13247W        W84863  33.567   4.201   2.406
13248W        W84864  32.656   8.936  14.806
13249W        W84865  19.749  10.120   4.670
13250W        W84866  23.670   5.665   0.975
13251W        W84867  32.317  39.301  12.031
13252W        W84868  19.045  42.085   4.605
13253W        W84869  40.458  15.775  13.091
13254W        W84870  31.691  44.197   4.228
13255W        W84871  37.812   1.936   1.332
13256W        W84872  41.710  42.371  13.927
13257W        W84873  37.577   5.730  14.967
13258W        W84874  26.945  15.892   1.057
13259W        W84875  33.776  22.617  11.748
13260W        W84876  14.374  41.875  14.215
13261W        W84877  12.299  41.366   0.255
13262W        W84878  37.450  31.307  13.492
13263W        W84879  21.484   4.864  10.431
13264W        W84880  24.077  42.028  14.742
13265W        W84881  29.001  26.959  11.114
13266W        W84882  18.732  44.569  13.334
13267W        W84883  18.570   3.755  10.558
13268W        W84884   3.935   8.956   1.991
13269W        W84885  15.367   4.780  11.140
13270W        W84886  41.437  39.366  11.471
13271W        W84887  35.976  42.506   4.039
13272W        W84888  19.238  25.103   2.414
13273W        W84889  10.109  31.014  13.366
13274W        W84890   2.851  43.882  14.830
13275W        W84891  34.624   9.685   1.578
13276W        W84892   6.676  33.444   1.725
13277W        W84893  14.810  39.450   4.660
13278W        W84894  34.654  37.988   2.157
13279W        W84895  28.620   5.906   3.343
13280W        W84896   4.766  13.264  12.716
13281W        W84897   2.411  44.505   4.745
13282W        W84898  27.677  10.750  12.365
13283W        W84899  18.297  15.659  12.552
13284W        W84900  24.184  24.511   0.365
13285W        W84901  39.317  12.241  12.751
13286W        W84902  43.407  16.592  13.510
13287W        W84903  35.088   6.838   3.827
13288W        W84904  42.681  19.101  14.682
13289W        W84905  21.542  40.801   3.665
13290W        W84906  34.554  13.275  11.000
13291W        W84907  10.956  30.410   1.133
13292W        W84908  22.914   0.460  11.115
13293W        W84909  26.543  11.696  12.415
13294W        W84910  31.241   3.674  14.372
13295W        W84911  42.052  27.302  12.477
13296W        W84912   3.531  32.626   1.308
13297W        W84913   6.846  23.713  14.753
13298W        W84914  42.487  18.088   2.320
13299W        W84915  41.499  42.092  12.176
13300W        W84916  18.206  34.490  12.261
13301W        W84917   9.212  28.444   2.887
13302W        W84918  44.014  12.080  13.480
13303W        W84919  25.071  35.003   1.063
13304W        W84920   0.292  27.582  14.478
13305W        W84921  20.656  21.850  13.967
13306W        W84922  19.147  19.268  12.887
13307W        W84923  39.784  28.081  12.610
13308W        W84924  32.176  34.450   0.385
13309W        W84925  41.486  20.208  11.575
13310W        W84926  17.514  24.990  10.460
13311W        W84927   6.942  23.692  14.264
13312W        W84928  42.638  10.425   3.731
13313W        W84929  39.009  37.732  13.829
13314W        W84930   6.048  39.359   1.224
13315W        W84931  37.316   9.178  11.207
13316W        W84932   5.358   1.802  14.806
13317W        W84933  34.124  15.623   3.754
13318W        W84934  18.455  21.323  12.080
13319W        W84935   3.852  23.563  11.585
13320W        W84936  11.936   2.883  14.951
13321W        W84937  19.553  19.739   3.029
13322W        W84938  44.196  15.040  14.394
13323W        W84939  31.949  11.120  14.960
13324W        W84940  23.278  38.671   1.334
13325W        W84941  20.958  37.445   2.896
13326W        W84942  25.669   7.772  14.860
13327W        W84943  12.825  27.532  14.510
13328W        W84944  22.034  16.817  10.791
13329W        W84945  36.612  10.761  13.987
13330W        W84946  29.624   0.430  13.047
13331W        W84947  25.278  25.500   4.251
13332W        W84948   2.660  12.232   2.010
13333W        W84949   1.752  18.453  13.944
13334W        W84950  38.544  19.015   2.920
13335W        W84951  30.131  16.807  11.716
13336W        W84952  12.732   1.696   0.846
13337W        W84953  20.207  35.935  12.492
13338W        W84954  17.231  32.803   2.474
13339W        W84955  23.246  13.429  13.572
13340W        W84956  21.010  14.755  14.102
13341W        W84957  12.864  15.775  13.900
13342W        W84958  31.772  13.783  11.182
13343W        W84959  15.939   4.980   4.549
13344W        W84960  11.149   8.788   2.703
13345W        W84961  33.000   6.977  14.888
13346W        W84962  41.582  16.607  14.826
13347W        W84963   5.790  20.750   4.505
13348W        W84964  35.964  10.122  11.695
13349W        W84965  42.499  38.515   4.711
13350W        W84966  43.929  42.119   0.736
13351W        W84967   5.734  44.306   1.133
13352W        W84968  13.736   5.014  11.329
13353W        W84969  31.311  22.237   4.864
13354W        W84970  25.035  25.226   3.290
13355W        W84971  37.862  44.906  14.381
13356W        W84972   2.737   5.240  13.928
13357W        W84973  13.025  35.380   3.209
13358W        W84974  40.393  11.269   3.679
13359W        W84975  25.684  17.051   2.914
13360W        W84976  14.127  30.701  12.708
13361W        W84977  20.669  36.348   2.804
13362W        W84978   1.366  10.588  12.507
13363W        W84979  40.909   5.619  13.991
13364W        W84980  39.840   3.709  13.529
13365W        W84981   6.809   5.534   1.849
13366W        W84982  25.938  26.165   0.654
13367W        W84983  35.493  25.497   3.404
13368W        W84984  18.369  13.196   1.050
13369W        W84985  10.671  29.291  12.907
13370W        W84986   3.885  31.855   3.636
13371W        W84987  37.399   5.898   1.424
13372W        W84988  20.736  35.393  11.191
13373W        W84989  33.923  14.506   3.086
13374W        W84990  11.369  34.846   3.417
13375W        W84991  35.646  39.917   3.898
13376W        W84992  40.880  32.010  10.685
13377W        W84993  29.539  22.376   0.433
13378W        W84994  23.262   2.224   3.807
13379W        W84995   8.615  39.009   2.716
13380W        W84996   6.378  11.500  11.553
13381W        W84997  29.369  26.953  13.904
13382W        W84998   8.569  26.000   0.972
13383W        W84999  29.615  25.632   2.141
13384W        W85000  17.272  17.302   5.029
13385W        W85001  25.996  13.814   4.328
13386W        W85002  26.428  44.494  11.488
13387W        W85003  11.597  41.920   0.767
13388W        W85004  12.713  23.596  14.419
13389W        W85005  39.380  14.593   4.559
13390W        W85006   2.280  37.082  11.915
13391W        W85007  30.189  34.023   2.844
13392W        W85008  29.914  18.757   0.284
13393W        W85009  34.227  11.283   2.311
13394W        W85010   2.499  32.414  14.743
13395W        W85011  23.149  13.576  14.930
13396W        W85012  29.425  25.640  10.984
13397W        W85013   9.679  38.880   4.190
13398W        W85014  32.402  15.314  12.443
13399W        W85015  24.964  38.583   1.777
13400W        W85016  37.452  31.818  13.509
13401W        W85017   1.933   1.705   0.903
13402W        W85018  13.871  43.771  11.927
13403W        W85019  13.166  30.942   1.320
13404W        W85020   8.719   4.764  11.884
13405W        W85021  23.278  22.599  12.378
13406W        W85022  34.611   1.458   2.671
13407W        W85023  34.809  12.821  12.375
13408W        W85024  20.033  35.474   1.225
13409W        W85025  26.168  27.776   2.984
13410W        W85026  12.796  40.907  14.484
13411W        W85027  24.606  30.394   2.210
13412W        W85028  39.785  21.106   3.152
13413W        W85029   5.753   2.519   3.067
13414W        W85030  20.729  23.470   3.533
13415W        W85031   1.419  34.805  13.978
13416W        W85032  19.496  26.392   2.165
13417W        W85033  33.404  36.235   1.540
13418W        W85034   5.738  32.283  13.987
13419W        W85035  13.864  38.409  11.347
13420W        W85036  28.692  42.807   1.349
13421W        W85037  14.744  10.325  13.794
13422W        W85038   1.969  40.107   4.606
13423W        W85039  30.060   0.135   0.362
13424W        W85040  10.226  40.594   0.385
13425W        W85041  42.484  40.732  10.489
13426W        W85042  16.252  43.030  11.557
13427W        W85043  42.342   8.796   4.507
13428W        W85044  22.880  11.464  12.597
13429W        W85045  20.269  39.142   3.524
13430W        W85046  21.106   1.065  14.345
13431W        W85047  29.516   6.324   0.490
13432W        W85048  20.204  12.055  13.431
13433W        W85049  33.031   4.763  13.714
13434W        W85050  25.400  40.860   0.416
13435W        W85051  36.832   0.942   5.083
13436W        W85052  24.456  43.014   0.427
13437W        W85053  11.321  22.131   3.848
13438W        W85054  11.863  37.115  10.741
13439W        W85055  17.511   9.359   2.209
13440W        W85056   6.331  14.345   1.752
13441W        W85057  22.639   5.934   2.827
13442W        W85058   1.927   1.356   3.296
13443W        W85059  26.205  30.827  10.642
13444W        W85060   3.998   9.287  12.400
13445W        W85061  21.286  26.698  10.652
13446W        W85062  27.421  40.416  12.930
13447W        W85063  40.823  35.125  11.614
13448W        W85064  20.093  36.929  10.687
13449W        W85065  28.078  23.754  12.015
13450W        W85066  15.104  39.440   2.411
13451W        W85067   9.813  32.019   4.124
13452W        W85068  26.561  12.830   2.236
13453W        W85069  30.963  17.116  12.458
13454W        W85070  28.469  25.639   3.846
13455W        W85071   9.754  39.564  13.091
13456W        W85072  36.462  17.245  14.486
13457W        W85073  31.520  41.105  14.697
13458W        W85074  36.455  37.734  14.419
13459W        W85075  34.126  18.034  10.995
13460W        W85076   1.567  25.811  11.346
13461W        W85077  42.979  20.551   2.311
13462W        W85078  13.935   8.077   1.547
13463W        W85079  16.299  20.637   1.624
13464W        W85080  30.420   8.253   1.709
13465W        W85081  40.423  43.269  11.735
13466W        W85082  33.036   9.764  14.904
13467W        W85083   5.243  17.237  11.972
13468W        W85084  28.355  43.063   0.329
13469W        W85085  20.006  10.334  11.882
13470W        W85086  35.560   5.502   1.811
13471W        W85087  27.381  26.376   4.304
13472W        W85088   8.654   1.511   2.414
13473W        W85089  26.256   1.816  13.425
13474W        W85090  34.166   2.537  10.441
13475W        W85091  11.313  35.279   3.110
13476W        W85092   3.282   3.899   4.596
13477W        W85093   9.615  41.799  12.870
13478W        W85094  28.029  18.878   4.707
13479W        W85095  24.797  35.518   0.280
13480W        W85096  36.986  37.289  14.917
13481W        W85097  41.280  13.422  12.966
13482W        W85098  26.941  27.761   1.420
13483W        W85099   4.258  14.525  12.987
13484W        W85100  11.471  34.496   4.593
13485W        W85101  18.636  31.938   2.805
13486W        W85102   8.770  17.711   3.675
13487W        W85103  33.214  16.268  13.371
13488W        W85104  36.441  35.081  11.395
13489W        W85105  18.149   2.960   0.358
13490W        W85106  21.130  28.477   1.442
13491W        W85107  24.998  35.353   3.278
13492W        W85108  15.319  42.423   3.256
13493W        W85109  32.010  35.354  10.959
13494W        W85110  18.099  32.454  10.662
13495W        W85111  10.773  14.615  10.796
13496W        W85112  10.319  22.733   3.122
13497W        W85113  27.706   2.468   0.882
13498W        W85114  25.234  26.895  13.068
13499W        W85115   6.705  13.283  11.579
13500W        W85116  41.553   2.985   3.845
13501W        W85117  26.420   5.669   1.843
13502W        W85118   3.923   3.767  14.042
13503W        W85119   1.755  44.679   2.469
13504W        W85120   7.933  18.314   1.752
13505W        W85121  11.459  31.631   1.260
13506W        W85122  21.533  14.725  14.065
13507W        W85123   5.050  24.006   4.058
13508W        W85124  16.816  26.125   3.800
13509W        W85125  13.588  40.516  10.976
13510W        W85126  36.571  21.956   4.183
13511W        W85127  17.608  41.057   2.837
13512W        W85128  34.704  17.761  14.095
13513W        W85129   8.677   9.302  10.523
13514W        W85130  32.189  31.697   4.976
13515W        W85131  34.757  26.420  10.671
13516W        W85132  27.447  19.982  14.452
13517W        W85133  43.783  26.277   2.952
13518W        W85134  27.489  39.830   2.428
13519W        W85135  12.109  17.056   4.244
13520W        W85136   2.612   4.269  14.918
13521W        W85137   7.194   3.370  12.518
13522W        W85138  29.415  26.426  14.818
13523W        W85139  20.298  37.568  11.479
13524W        W85140  21.533  37.995   4.173
13525W        W85141   9.417   1.946  12.084
13526W        W85142  32.933  13.761   4.656
13527W        W85143  39.271  10.189  11.805
13528W        W85144  36.104  37.497   1.226
13529W        W85145   6.044  37.048  12.994
13530W        W85146   3.887   8.240  11.600
13531W        W85147  11.186  26.652  11.567
13532W        W85148  13.605  20.255   4.719
13533W        W85149  14.284  10.594  13.828
13534W        W85150   2.957  28.828   0.879
13535W        W85151  11.897  34.921  14.601
13536W        W85152  19.159  34.006  14.838
13537W        W85153  14.275  30.888  12.206
13538W        W85154  39.391  38.895   4.442
13539W        W85155  26.526   3.190  12.986
13540W        W85156   7.825  16.736   1.700
13541W        W85157  23.643  11.750  13.756
13542W        W85158  30.852  36.499   3.559
13543W        W85159   6.353  13.655  13.559
13544W        W85160  30.097   2.259  12.034
13545W        W85161  32.992   8.880   3.743
13546W        W85162  18.294  13.784   4.846
13547W        W85163  23.049  36.995  13.855
13548W        W85164  11.857  18.047   4.270
13549W        W85165  34.457  23.754  14.879
13550W        W85166  41.941  38.899  14.983
13551W        W85167  32.459  20.310  10.994
13552W        W85168   7.677   7.821   2.915
13553W        W85169  26.915  29.311   3.420
13554W        W85170  31.778  13.281  13.275
13555W        W85171  22.328   3.215   1.667
13556W        W85172   8.806  43.994   2.304
13557W        W85173   3.729  18.254   2.678
13558W        W85174  31.546  18.024  14.901
13559W        W85175  35.206  30.512  13.904
13560W        W85176   3.285  21.027   3.471
13561W        W85177  18.794  21.781  12.046
13562W        W85178  10.909  30.767   1.537
13563W        W85179   4.988  16.706  13.407
13564W        W85180  18.955  36.653  12.937
13565W        W85181  11.870  14.304   0.407
13566W        W85182  23.509  33.901   4.079
13567W        W85183  27.507  25.048  11.583
13568W        W85184  10.951   9.891  12.273
13569W        W85185  28.508  42.421   2.371
13570W        W85186   5.698  42.876   1.709
13571W        W85187  11.142  14.303  11.903
13572W        W85188   7.289  33.909  13.905
13573W        W85189  35.485  26.287  11.298
13574W        W85190  11.704  37.989   1.889
13575W        W85191  27.952  39.881  10.243
13576W        W85192  19.144   7.759   3.271
13577W        W85193   5.912  21.538   1.671
13578W        W85194  38.608   7.699   0.436
13579W        W85195   0.167   1.359   3.459
13580W        W85196  25.580  24.128   2.448
13581W        W85197  16.499  17.058   2.329
13582W        W85198  40.477  41.306   1.730
13583W        W85199  37.278  13.225  13.901
13584W        W85200  16.042   0.893  13.391
13585W        W85201  11.826  33.625   2.827
13586W        W85202   4.317  12.448  11.167
13587W        W85203  22.415  28.955  12.015
13588W        W85204   3.445   0.912   0.764
13589W        W85205  27.403  11.195  12.376
13590W        W85206  30.876  22.828   3.796
13591W        W85207  13.129  14.859   2.643
13592W        W85208  22.470  25.413   3.385
13593W        W85209  29.997  29.403  10.273
13594W        W85210  25.556  34.944  11.488
13595W        W85211  18.817  34.109   1.264
13596W        W85212  17.626  42.361  13.535
13597W        W85213  26.129  32.066  12.919
13598W        W85214  19.238  20.653   3.364
13599W        W85215  37.333  41.136  12.171
13600W        W85216  13.115  22.118   2.397
13601W        W85217  27.200  39.847   1.404
13602W        W85218  18.558  37.664  11.200
13603W        W85219   1.853  31.111   3.595
13604W        W85220  19.020  28.607  12.705
13605W        W85221   7.283  32.862  14.791
13606W        W85222  27.040  33.329   0.007
13607W        W85223  20.857  44.008   0.343
13608W        W85224  18.434  43.797  11.056
13609W        W85225  23.094   0.242  10.673
13610W        W85226  29.084  42.763   1.690
13611W        W85227  26.729  10.719   1.264
13612W        W85228  30.464  26.457   5.078
13613W        W85229  21.071  18.820   1.403
13614W        W85230  25.829  41.320  13.898
13615W        W85231  23.119  31.665  11.418
13616W        W85232   3.089  38.355   2.244
13617W        W85233  25.481   8.597   0.249
13618W        W85234  19.027  14.781  13.981
13619W        W85235  13.567  41.899  13.330
13620W        W85236   4.143  32.600  13.140
13621W        W85237  36.896  19.592   1.272
13622W        W85238  44.294  28.392   4.744
13623W        W85239  44.757  33.612   4.702
13624W        W85240  11.234  36.631  14.366
13625W        W85241  20.349  31.128  11.394
13626W        W85242  13.633   5.297   4.417
13627W        W85243  20.062  40.022  12.469
13628W        W85244  23.653   8.320   2.849
13629W        W85245  32.526  11.535   1.255
13630W        W85246  21.398  31.931  11.553
13631W        W85247  21.328   3.103  11.882
13632W        W85248   9.416  36.125  14.777
13633W        W85249   4.024  29.531  14.354
13634W        W85250   7.663  17.166  12.456
13635W        W85251  23.403  26.855   0.504
13636W        W85252  33.735  44.505   3.108
13637W        W85253  22.594   7.631   4.175
13638W        W85254  18.061  25.587   0.754
13639W        W85255  18.465  25.163  13.161
13640W        W85256  21.779  27.828  11.190
13641W        W85257   1.193  44.787   0.165
13642W        W85258  23.940  44.114  14.798
13643W        W85259  32.598  36.541  13.536
13644W        W85260  36.538  27.901  12.573
13645W        W85261  17.787  31.062   3.707
13646W        W85262  32.976  32.170   3.813
13647W        W85263   7.650  10.334  11.588
13648W        W85264  36.830  39.133   0.452
13649W        W85265  41.284  43.941   4.674
13650W        W85266  19.029   1.369  14.015
13651W        W85267  22.493  41.780   1.893
13652W        W85268  33.057  20.586   3.246
13653W        W85269  43.569  24.027  14.248
13654W        W85270  13.039  43.737  14.202
13655W        W85271  22.775  30.461  12.075
13656W        W85272  37.135   2.953  13.914
13657W        W85273  30.960   6.997   2.486
13658W        W85274  14.852  13.417   2.797
13659W        W85275   0.204  40.569   0.829
13660W        W85276  19.874  33.049   1.445
13661W        W85277  39.551  21.556   0.237
13662W        W85278  22.288  34.223   2.166
13663W        W85279   8.469  40.309  14.333
13664W        W85280  10.358   0.839   1.459
13665W        W85281  14.232  13.509  13.817
13666W        W85282  23.150  20.056   1.010
13667W        W85283  36.906  34.084   1.409
13668W        W85284   8.843  16.695  14.040
13669W        W85285  25.047   5.378  13.097
13670W        W85286  34.377  16.085   3.685
13671W        W85287  43.549  35.332  12.076
13672W        W85288   6.183  31.975  11.954
13673W        W85289  27.143   4.222  13.560
13674W        W85290  30.133  11.144   0.005
13675W        W85291  39.897  21.547   3.422
13676W        W85292   4.879  14.151   2.794
13677W        W85293   2.328   7.114  14.843
13678W        W85294  11.747   0.012   1.248
13679W        W85295  22.118  40.844  14.579
13680W        W85296  29.575  25.456  13.033
13681W        W85297  14.727   7.699   0.467
13682W        W85298  26.623   3.495  12.508
13683W        W85299  26.600  33.466  13.786
13684W        W85300  22.770   0.022  12.379
13685W        W85301   4.243  15.407   0.715
13686W        W85302  17.013  26.561   4.609
13687W        W85303  37.394  35.008  14.251
13688W        W85304   9.026  14.751   4.874
13689W        W85305  41.023  27.436   0.734
13690W        W85306  33.044   6.463   3.176
13691W        W85307  32.721   2.306   4.670
13692W        W85308   6.153  33.638  12.165
13693W        W85309   4.719  31.360   2.876
13694W        W85310  39.882  38.166  13.828
13695W        W85311   5.767  21.143   4.902
13696W        W85312   4.456  20.512   1.011
13697W        W85313  13.525  21.586   4.665
13698W        W85314   2.301  35.843   1.860
13699W        W85315  12.814   5.478  14.898
13700W        W85316  31.338  24.030  11.044
13701W        W85317   2.857  28.780   2.727
13702W        W85318  31.433  23.980  12.385
13703W        W85319  28.672  17.843   3.563
13704W        W85320  30.929  10.734  14.268
13705W        W85321  17.208  24.532  12.519
13706W        W85322  28.981   6.879   3.117
13707W        W85323  20.574  32.874   2.210
13708W        W85324  30.999  16.023  14.265
13709W        W85325   6.960   7.636  14.851
13710W        W85326  27.764  27.495  13.013
13711W        W85327  30.694  21.429   4.133
13712W        W85328  14.748  30.260  10.605
13713W        W85329  26.484  36.818  12.470
13714W        W85330  28.573   7.367  13.368
13715W        W85331   9.534  24.729  13.414
13716W        W85332  24.729  15.036   2.739
13717W        W85333  35.842   5.337   3.569
13718W        W85334   6.415   0.879  11.036
13719W        W85335   6.892  14.063   3.976
13720W        W85336  19.244  24.446  11.164
13721W        W85337  22.252   1.890   2.717
13722W        W85338  34.177  18.599   4.133
13723W        W85339   5.602  28.278  13.120
13724W        W85340  13.133  14.197  12.978
13725W        W85341   6.068  37.828   0.185
13726W        W85342  35.060   3.760  13.876
13727W        W85343  23.128  33.544  12.643
13728W        W85344  40.459  40.055  13.451
13729W        W85345  17.337  25.690  13.781
13730W        W85346  24.716  27.075   1.905
13731W        W85347  35.518  37.796  13.963
13732W        W85348  16.774  44.314   3.386
13733W        W85349  13.681  14.757  13.026
13734W        W85350  18.136   3.982   3.627
13735W        W85351  16.191   4.667   4.117
13736W        W85352   2.482  20.639  11.484
13737W        W85353  15.614  27.928   3.623
13738W        W85354  32.361  10.235  11.675
13739W        W85355   2.488  34.280  11.555
13740W        W85356   1.031  18.081  11.130
13741W        W85357  42.770  11.308   4.827
13742W        W85358  35.047   8.685  12.303
13743W        W85359  34.988  13.583   4.608
13744W        W85360  26.525  12.345  12.900
13745W        W85361  25.557  15.784  12.666
13746W        W85362   5.604  38.104   3.291
13747W        W85363  13.287  28.570   3.245
13748W        W85364  26.465  35.487  11.343
13749W        W85365   8.687  30.446   0.100
13750W        W85366   4.261   7.562  13.160
13751W        W85367  37.814  11.626  12.514
13752W        W85368   9.175  28.283  13.495
13753W        W85369   5.844   0.904  11.899
13754W        W85370  19.964  27.265   0.781
13755W        W85371  33.736  22.278  14.298
13756W        W85372  27.134  18.370   4.094
13757W        W85373   8.845  35.840  13.974
13758W        W85374   6.811  17.498  10.704
13759W        W85375  41.924  43.576  14.467
13760W        W85376  11.390  43.584   3.352
13761W        W85377  28.072  10.865   1.448
13762W        W85378  36.067   7.755   1.264
13763W        W85379  15.206   3.391   5.249
13764W        W85380  16.475  30.457   0.926
13765W        W85381   3.157  33.839  11.556
13766W        W85382  12.529   2.449   2.862
13767W        W85383   0.731   6.979  11.995
13768W        W85384   3.975   6.708   3.045
13769W        W85385  33.373  29.960   3.244
13770W        W85386   3.674  35.211  12.079
13771W        W85387   0.629  12.080  14.526
13772W        W85388  37.261   5.687   4.664
13773W        W85389  40.465  34.930  14.212
13774W        W85390  26.428   5.379   0.681
13775W        W85391  14.620  44.286  10.252
13776W        W85392  12.077   2.320   3.036
13777W        W85393  43.590  27.555   0.808
13778W        W85394  41.948  29.038  11.043
13779W        W85395   7.605  31.956   3.161
13780W        W85396  27.357  14.355   2.190
13781W        W85397   7.459  28.128  10.098
13782W        W85398  35.905  31.167   3.768
13783W        W85399  17.745  37.669  13.863
13784W        W85400  33.202  37.092   1.270
13785W        W85401  34.387  40.414  13.428
13786W        W85402  14.522   5.355  12.392
13787W        W85403  30.733  36.111   3.228
13788W        W85404   5.116  17.100   1.170
13789W        W85405  41.818   3.928   4.789
13790W        W85406  20.803  12.655   4.092
13791W        W85407   2.736  10.346   4.362
13792W        W85408  17.598   1.752  13.417
13793W        W85409   9.298  33.122  10.621
13794W        W85410  33.590  15.711  14.292
13795W        W85411  15.690  30.187  12.374
13796W        W85412   3.242  36.188  11.634
13797W        W85413   2.437  40.087   2.007
13798W        W85414  35.046  32.571   2.964
13799W        W85415  21.658  22.688   2.741
13800W        W85416  43.726   2.964   0.094
13801W        W85417  36.999  35.458   2.307
13802W        W85418  34.484  29.353   2.228
13803W        W85419  15.850  13.321   0.442
13804W        W85420   0.081  33.136   3.149
13805W        W85421   6.440  19.872   5.091
13806W        W85422   4.343  12.021   0.970
13807W        W85423  25.311  14.059  10.209
13808W        W85424  39.497  15.341  12.945
13809W        W85425   8.409   4.918  13.554
13810W        W85426  41.745   0.512   4.767
13811W        W85427  30.708  16.847   0.399
13812W        W85428  14.268  19.052   0.818
13813W        W85429  25.122  12.318  10.739
13814W        W85430  19.196   2.926  14.342
13815W        W85431  43.560   9.394   4.019
13816W        W85432  34.518  21.271  10.336
13817W        W85433   7.702  29.621   4.099
13818W        W85434   0.312   8.969  11.600
13819W        W85435   4.175   3.578  13.582
13820W        W85436  22.129   7.930   4.209
13821W        W85437   3.053   4.003   4.145
13822W        W85438  33.893   4.880  13.378
13823W        W85439  26.948  26.121   0.931
13824W        W85440   8.334   1.840  10.719
13825W        W85441  33.924  39.793  10.465
13826W        W85442  30.174  44.263  11.953
13827W        W85443  12.226  20.647   3.380
13828W        W85444  27.119  43.279   0.012
13829W        W85445   9.083  14.216   1.895
13830W        W85446  20.820  18.174  10.591
13831W        W85447  17.076  41.534  11.366
13832W        W85448   5.118  20.236   3.800
13833W        W85449   5.709  41.368   1.750
13834W        W85450  25.965   9.370  12.485
13835W        W85451   8.184   2.204   4.337
13836W        W85452   3.247   6.914   2.271
13837W        W85453  20.775  15.168  13.832
13838W        W85454  36.997  18.251   2.220
13839W        W85455  11.647  29.125   3.574
13840W        W85456   7.449  20.217  12.987
13841W        W85457  17.584   9.372   0.439
13842W        W85458  31.881  41.576  14.746
13843W        W85459  16.014   9.167   2.290
13844W        W85460   4.905  22.034  13.746
13845W        W85461  23.070  21.015   4.697
13846W        W85462  23.544  29.115  13.781
13847W        W85463  36.824   6.457  11.525
13848W        W85464   3.516   4.912  12.065
13849W        W85465  10.683  33.676  13.540
13850W        W85466  12.154  14.044   2.740
13851W        W85467  14.826   6.312   5.374
13852W        W85468  19.276  44.201   2.354
13853W        W85469  40.039  10.213   3.434
13854W        W85470  27.199  24.382   2.441
13855W        W85471  38.401  26.798   4.166
13856W        W85472  22.741  15.135   4.584
13857W        W85473  39.060  43.293  12.295
13858W        W85474  21.634   7.627   0.859
13859W        W85475  40.601  20.578   0.158
13860W        W85476  32.045  21.257  13.058
13861W        W85477  37.393  34.004   1.279
13862W        W85478  22.482  11.312  14.300
13863W        W85479  24.804  18.521  14.082
13864W        W85480  38.512  38.398   1.630
13865W        W85481  19.497   8.595  12.833
13866W        W85482  30.790  18.613   3.130
13867W        W85483  32.824  21.040   3.198
13868W        W85484  26.609   3.944   0.613
13869W        W85485  32.639   4.471   1.998
13870W        W85486  31.112  29.640  11.776
13871W        W85487  27.080  42.764  11.454
13872W        W85488  13.571  41.446   1.648
13873W        W85489  21.767  32.287   3.764
13874W        W85490  15.054  18.452   0.272
13875W        W85491   5.645  10.115   0.491
13876W        W85492  23.543  33.656   1.855
13877W        W85493  41.997   1.120   2.673
13878W        W85494  39.993  42.831  14.449
13879W        W85495  42.211   7.363  12.642
13880W        W85496  27.370  15.917   4.940
13881W        W85497  28.666  38.745   1.906
13882W        W85498  29.096  15.173  10.199
13883W        W85499  27.910   5.724  14.817
13884W        W85500  12.905  18.587   0.040
13885W        W85501  10.228  41.037  12.585
13886W        W85502  16.729  29.525  11.945
13887W        W85503   8.199  24.272   0.210
13888W        W85504   2.257  44.778  12.427
13889W        W85505   2.729  20.126   3.335
13890W        W85506   4.258   8.014   3.555
13891W        W85507  38.076  14.919   3.393
13892W        W85508  20.171  35.513   2.697
13893W        W85509  21.069  44.920   4.807
13894W        W85510  40.754   4.158  11.964
13895W        W85511  34.239  29.380   3.566
13896W        W85512  33.318  22.978   4.225
13897W        W85513  42.809  21.298   2.696
13898W        W85514  14.716  29.305   1.453
13899W        W85515  19.180  12.780  11.611
13900W        W85516  44.332  33.623   3.793
13901W        W85517  37.388  14.555   1.150
13902W        W85518  31.478   9.191  11.629
13903W        W85519   6.312   3.110   4.174
13904W        W85520  43.191   4.308   3.744
13905W        W85521  41.348  38.457   4.447
13906W        W85522  42.051  21.178   5.098
13907W        W85523  22.290  20.546   2.246
13908W        W85524  28.453  33.520  10.249
13909W        W85525  29.463  14.979  13.601
13910W        W85526  26.044  20.300  11.382
13911W        W85527  38.775  42.484  11.324
13912W        W85528  24.157  21.165  12.504
13913W        W85529  44.495  43.866   2.628
13914W        W85530  17.276  44.467  10.503
13915W        W85531  26.310  34.436  10.012
13916W        W85532  22.822  17.547  14.787
13917W        W85533  44.442  14.530  14.426
13918W        W85534  29.699  39.161  11.592
13919W        W85535   5.920  26.950   2.946
13920W        W85536  32.356  17.175  10.965
13921W        W85537   8.373  14.648  12.116
13922W        W85538  19.111   4.227   3.697
13923W        W85539  39.870  38.609  14.093
13924W        W85540   4.171  14.260   2.220
13925W        W85541  36.878  27.011  11.617
13926W        W85542  40.391  33.645  11.613
13927W        W85543  42.270  23.964  13.848
13928W        W85544  21.850  40.391   1.722
13929W        W85545  17.735  22.425  13.365
13930W        W85546  21.511  16.610  12.003
13931W        W85547  11.824  15.558  11.089
13932W        W85548  39.066  35.299   2.839
13933W        W85549  27.140  21.966   3.143
13934W        W85550  38.277   5.683  12.347
13935W        W85551  43.113  11.244   1.963
13936W        W85552  35.617  17.118   2.844
13937W        W85553  39.499  37.553   2.774
13938W        W85554   7.599  36.244   3.114
13939W        W85555  13.624  39.942   4.619
13940W        W85556  34.159   3.536  12.397
13941W        W85557   4.885   6.234   5.562
13942W        W85558  13.103   7.885   3.669
13943W        W85559  23.164  33.620  14.017
13944W        W85560  40.629   3.056  12.845
13945W        W85561  36.296  20.157   4.029
13946W        W85562  39.082   3.760  14.035
13947W        W85563   7.691  37.707  14.556
13948W        W85564   2.313  13.081   1.331
13949W        W85565   8.796   9.594   4.858
13950W        W85566  12.891  11.095  13.049
13951W        W85567  11.306   3.182   3.241
13952W        W85568   1.311   5.582   2.866
13953W        W85569  43.768  30.981   1.742
13954W        W85570  30.652  23.071  12.984
13955W        W85571  11.692  29.640   1.815
13956W        W85572   9.643  40.085  10.752
13957W        W85573  36.483  28.529   4.572
13958W        W85574  35.149   8.289   0.581
13959W        W85575  26.078  15.874  10.935
13960W        W85576  11.240  39.484   1.993
13961W        W85577  23.914  28.056  14.895
13962W        W85578  38.362  19.319  14.088
13963W        W85579   9.354  26.024   4.186
13964W        W85580   6.655  43.995  10.856
13965W        W85581   0.882  22.451  11.595
13966W        W85582  43.928   5.175  12.499
13967W        W85583  44.834  28.248  12.100
13968W        W85584  31.826  42.523  12.490
13969W        W85585  36.519  33.518   4.344
13970W        W85586  28.568  21.715  10.428
13971W        W85587  16.560  42.000   3.550
13972W        W85588  19.563  37.012  11.570
13973W        W85589  44.651  32.030   5.052
13974W        W85590  15.578  27.219  12.521
13975W        W85591  42.915   3.541   3.319
13976W        W85592   3.810  40.549   0.944
13977W        W85593  21.047  27.014   3.279
13978W        W85594   4.868  38.035   1.173
13979W        W85595  29.602  13.430  10.660
13980W        W85596  26.630  20.101  13.888
13981W        W85597  24.361   2.258  12.954
13982W        W85598  33.857  22.499   0.817
13983W        W85599  28.194  24.048   1.282
13984W        W85600  15.540  12.112   4.141
13985W        W85601   6.001   3.008   2.236
13986W        W85602  36.471  17.804   1.458
13987W        W85603   3.347  30.595   4.594
13988W        W85604  26.138  19.554   3.233
13989W        W85605  44.316   5.527   0.059
13990W        W85606  29.158  33.456  11.610
13991W        W85607  18.762   1.102  13.651
13992W        W85608  41.342   0.817   4.569
13993W        W85609  28.737  41.054   1.900
13994W        W85610  15.537  18.139   4.289
13995W        W85611  34.513  10.178   5.144
13996W        W85612  29.365  38.905   4.739
13997W        W85613  36.541  34.487   3.367
13998W        W85614  32.993  10.643   4.389
13999W        W85615  33.892   7.076   1.423
14000W        W85616  17.249   9.140   4.172
14001W        W85617  27.000  12.542   0.436
14002W        W85618  37.548  32.919   1.671
14003W        W85619  28.572  40.293   3.124
14004W        W85620  44.421  39.572   4.194
14005W        W85621  36.898  44.428   3.219
14006W        W85622  32.127  16.663   3.278
14007W        W85623   4.506  11.765   3.512
14008W        W85624   9.817   7.558   2.742
14009W        W85625  27.567  40.543   0.666
14010W        W85626   7.911   3.957  12.884
14011W        W85627  37.329  33.348  14.893
14012W        W85628  40.193   0.172   0.882
14013W        W85629  19.346  16.105  13.929
14014W        W85630  40.035  41.212  14.339
14015W        W85631  17.387  18.186  13.516
14016W        W85632  13.654  36.341  14.519
14017W        W85633  12.080  28.423   3.142
14018W        W85634   9.560  35.229   0.917
14019W        W85635   1.912  28.528  11.221
14020W        W85636  22.950   4.746  13.777
14021W        W85637  20.118   6.921   4.677
14022W        W85638  16.804  32.902  11.072
14023W        W85639  31.945  30.646   5.094
14024W        W85640  17.262  13.882  14.015
14025W        W85641   6.260  42.064  11.153
14026W        W85642  27.251  41.933  14.241
14027W        W85643  17.029  27.383   1.083
14028W        W85644  24.558  23.939   4.589
14029W        W85645  31.548  36.561   4.750
14030W        W85646  31.637  38.647  14.951
14031W        W85647  24.564  35.969  14.954
14032W        W85648  28.890  34.756  12.122
14033W        W85649  21.254  40.018   0.636
14034W        W85650  32.396  10.637   2.336
14035W        W85651  21.180  14.554   1.272
14036W        W85652  31.956  25.299  14.382
14037W        W85653   7.702  17.394  10.665
14038W        W85654  35.807  29.850  14.233
14039W        W85655  34.710  36.763  11.182
14040W        W85656  26.946  38.425   1.792
14041W        W85657  19.204  18.206  14.751
14042W        W85658  43.680  28.466   0.288
14043W        W85659  35.922  31.818  12.836
14044W        W85660  20.273   2.987  11.584
14045W        W85661  22.018   0.903   0.809
14046W        W85662   0.476  16.492  13.938
14047W        W85663  33.047  38.498  13.969
14048W        W85664  25.271   9.048  14.864
14049W        W85665  14.498  38.088   5.170
14050W        W85666   7.724  28.646   2.224
14051W        W85667   3.971  12.373  13.858
14052W        W85668  22.682  14.709  11.073
14053W        W85669  19.683  16.416   4.178
14054W        W85670  39.746   9.903   2.663
14055W        W85671   7.678  43.578  14.939
14056W        W85672  11.252   8.516  10.974
14057W        W85673  27.039  22.544   4.033
14058W        W85674  19.431   5.090   2.849
14059W        W85675  39.439  34.089  13.559
14060W        W85676   7.609  15.713  13.445
14061W        W85677  30.792   7.938  11.546
14062W        W85678  24.617  30.160  13.582
14063W        W85679  30.497   3.409   4.088
14064W        W85680  27.758  15.088  11.111
14065W        W85681   4.345  21.625  14.242
14066W        W85682  12.238  40.434  10.658
14067W        W85683   0.498  13.604   0.388
14068W        W85684  25.465  36.294  12.817
14069W        W85685  31.505  44.384  14.436
14070W        W85686  24.627  25.766  12.499
14071W        W85687  39.534  36.926   1.869
14072W        W85688  37.667   0.761   2.019
14073W        W85689  34.261  27.397   3.039
14074W        W85690   6.753  15.829   4.618
14075W        W85691   1.249   4.941   0.819
14076W        W85692  43.266  27.882   5.174
14077W        W85693  24.547   9.139   3.541
14078W        W85694  26.972  23.019   3.171
14079W        W85695   5.729   2.357   0.371
14080W        W85696  40.497   0.030  12.364
14081W        W85697  11.758  40.073  11.366
14082W        W85698  33.004  19.556  13.372
14083W        W85699  35.888  36.029   4.706
14084W        W85700  35.640  25.039   0.730
14085W        W85701   9.760  30.156   4.074
14086W        W85702  33.619  38.401   0.227
14087W        W85703  29.559  31.623  11.963
14088W        W85704   9.125  42.254  14.911
14089W        W85705  22.757  28.117  13.459
14090W        W85706  22.724  13.860  14.855
14091W        W85707  18.266   0.710   3.837
14092W        W85708  10.313  43.724  14.567
14093W        W85709  40.992  20.956  10.257
14094W        W85710  32.468  20.054   4.958
14095W        W85711   5.907  31.777   0.862
14096W        W85712  29.181  42.849  13.967
14097W        W85713  24.328  24.645  10.994
14098W        W85714   8.723   2.875  11.483
14099W        W85715  10.383  26.115  10.513
14100W        W85716  35.393  40.095   4.941
14101W        W85717  17.026  41.470  14.335
14102W        W85718  22.538  18.491   3.671
14103W        W85719  23.751   2.578   0.712
14104W        W85720  42.881   8.636   0.951
14105W        W85721   0.710  23.511   4.491
14106W        W85722   1.506  34.901   3.878
14107W        W85723   4.807  33.821   0.770
14108W        W85724   5.683  22.143   0.333
14109W        W85725   2.976   7.592  10.793
14110W        W85726   5.580  14.134   1.250
14111W        W85727  13.916  44.760  14.237
14112W        W85728  37.337  36.306  12.676
14113W        W85729   0.375  18.688   3.617
14114W        W85730  11.099   2.567  10.645
14115W        W85731   3.769   0.755  11.991
14116W        W85732  12.686  25.531  11.148
14117W        W85733  29.600  40.049   1.823
14118W        W85734  19.162  12.786   0.020
14119W        W85735   5.243   9.921   3.773
14120W        W85736  15.224   3.649   2.875
14121W        W85737  43.494  34.303   5.074
14122W        W85738  16.297  27.707  11.497
14123W        W85739  33.806  30.113  13.836
14124W        W85740  19.238   1.719   4.181
14125W        W85741  32.128  42.962   0.512
14126W        W85742  24.616   8.726  12.395
14127W        W85743  37.142  36.188  13.857
14128W        W85744  27.643  29.719  10.711
14129W        W85745  19.712   2.504   1.956
14130W        W85746  22.234  40.187  14.358
14131W        W85747  30.341  12.451  14.462
14132W        W85748  19.223  10.434  13.063
14133W        W85749  38.404  13.663   9.857
14134W        W85750   9.815  25.149  13.307
14135W        W85751  11.357  39.409   1.444
14136W        W85752  30.199  29.635  10.703
14137W        W85753  14.320  40.398  10.679
14138W        W85754  27.118  12.215  11.509
14139W        W85755  16.716  11.669  13.388
14140W        W85756  24.498  33.777  11.099
14141W        W85757  17.360  35.222   1.269
14142W        W85758  34.129   8.113   2.249
14143W        W85759  18.479   2.823   4.603
14144W        W85760   8.968  39.432   3.738
14145W        W85761  14.777  15.649  13.519
14146W        W85762  21.981  31.987  13.822
14147W        W85763  31.538  28.274  14.555
14148W        W85764   6.180  27.965  10.752
14149W        W85765  22.467  33.044  11.587
14150W        W85766   3.841  32.198  13.068
14151W        W85767  20.466  22.411  14.806
14152W        W85768  42.058   2.012  11.673
14153W        W85769  38.804  19.780   1.926
14154W        W85770  23.938  37.918  12.002
14155W        W85771  28.656  43.733  11.293
14156W        W85772   4.649  13.810  10.180
14157W        W85773  13.785  16.347  13.822
14158W        W85774  23.238  26.464  12.002
14159W        W85775  11.389   2.820   2.295
14160W        W85776  31.391  23.177  13.456
14161W        W85777  16.534   1.461   2.771
14162W        W85778  19.739  10.076   1.356
14163W        W85779  27.079  15.557  11.224
14164W        W85780  17.075  27.672   2.761
14165W        W85781  11.545  14.872  11.604
14166W        W85782  10.367  41.785  11.095
14167W        W85783   7.402  32.673   1.020
14168W        W85784  16.851   5.691  13.803
14169W        W85785   5.792  36.824   2.603
14170W        W85786   2.284  34.275   4.983
14171W        W85787  41.781   9.591  12.958
14172W        W85788  30.994   6.411  13.572
14173W        W85789  30.303  19.570   0.541
14174W        W85790  13.740  15.389   1.783
14175W        W85791  10.358  42.706  11.080
14176W        W85792  22.108   5.607  11.567
14177W        W85793  30.952  38.008  12.879
14178W        W85794  16.195  22.750   3.375
14179W        W85795  43.808  23.026   4.244
14180W        W85796  17.788  37.361   1.289
14181W        W85797   5.720  25.676   0.986
14182W        W85798  35.575   4.312  11.625
14183W        W85799  38.809  19.751  13.586
14184W        W85800  14.034   8.683   2.077
14185W        W85801   6.345  12.274   0.849
14186W        W85802  40.242  44.419   1.230
14187W        W85803   3.294  15.148  13.941
14188W        W85804  13.499  11.553   2.260
14189W        W85805  23.110  40.288  11.376
14190W        W85806  15.234   5.185  13.442
14191W        W85807  21.026  10.976   0.364
14192W        W85808  18.494  33.725   3.848
14193W        W85809  12.565   8.340  13.982
14194W        W85810  39.088  42.318  14.988
14195W        W85811  42.920  20.535  14.474
14196W        W85812  38.396   2.260   2.326
14197W        W85813  13.737   0.374  11.380
14198W        W85814   2.391   4.363   2.873
14199W        W85815  36.085  14.149  11.879
14200W        W85816   5.867  29.392  11.265
14201W        W85817  31.067  33.063   3.568
14202W        W85818  42.957   7.597   3.184
14203W        W85819   7.239   2.219  14.354
14204W        W85820   1.788  25.608  10.485
14205W        W85821  32.649  30.326   5.516
14206W        W85822   6.729  17.148   1.378
14207W        W85823  39.488  16.534  10.700
14208W        W85824  27.244   9.263  12.999
14209W        W85825  25.150   8.650   1.466
14210W        W85826  32.364  23.945  14.073
14211W        W85827  23.058  41.295  14.515
14212W        W85828  42.522  15.111  11.466
14213W        W85829  25.696   4.250  12.336
14214W        W85830  43.922  12.733   3.176
14215W        W85831   9.390  12.594   9.933
14216W        W85832  40.916  43.735  14.350
14217W        W85833  39.947  32.589   4.535
14218W        W85834  23.679   4.419  12.513
14219W        W85835   1.383  26.590   3.890
14220W        W85836  10.807  43.555  14.409
14221W        W85837  17.905   6.323   4.225
14222W        W85838  15.446  13.801  14.909
14223W        W85839  42.880  41.902  14.946
14224W        W85840  12.151  14.040  10.720
14225W        W85841   3.408   1.230   4.122
14226W        W85842  27.586  36.174  14.284
14227W        W85843  16.109  36.269  11.292
14228W        W85844  41.309  32.694  10.840
14229W        W85845   7.449  17.391   0.929
14230W        W85846  39.438  11.593   4.556
14231W        W85847  37.575   5.763   3.627
14232W        W85848  41.264  36.571   4.186
14233W        W85849   1.211  10.225   4.415
14234W        W85850   1.284  22.729   0.134
14235W        W85851   7.342  24.525   4.688
14236W        W85852  11.686  33.792  12.516
14237W        W85853   4.722  13.234   0.376
14238W        W85854   3.831   8.256  14.785
14239W        W85855  16.582  30.514   2.926
14240W        W85856  43.419  15.547   4.258
14241W        W85857  41.904  29.070  10.141
14242W        W85858  12.216  31.060   3.781
14243W        W85859  43.913   0.423   2.619
14244W        W85860  36.900  35.071  14.505
14245W        W85861  37.548   4.343  12.873
14246W        W85862  26.339  14.145   2.191
14247W        W85863   1.332  34.932  13.470
14248W        W85864  35.348  40.061  11.985
14249W        W85865  24.473  25.416   4.641
14250W        W85866  40.467  36.552  11.512
14251W        W85867  34.765  16.734   2.750
14252W        W85868  35.829  37.460  14.979
14253W        W85869  13.706   0.376  10.373
14254W        W85870  40.419   7.736   1.239
14255W        W85871  41.990  41.037   4.378
14256W        W85872  11.904  10.325  10.793
14257W        W85873  27.539   8.881   2.439
14258W        W85874  29.431  14.812   0.325
14259W        W85875  25.435  40.911   3.152
14260W        W85876  40.357  29.363   2.331
14261W        W85877   0.960  33.520  14.229
14262W        W85878  28.171  18.473  13.956
14263W        W85879   7.886  35.532  12.916
14264W        W85880  42.873  31.706   2.768
14265W        W85881  23.713  18.116  13.182
14266W        W85882  26.783  17.129   0.878
14267W        W85883  15.601  43.799  12.472
14268W        W85884  43.881  29.549  10.549
14269W        W85885  22.771  32.089   2.742
14270W        W85886  34.811   6.403   1.783
14271W        W85887  10.743   6.110  13.324
14272W        W85888  41.861  31.095  12.234
14273W        W85889  34.085   1.750  12.931
14274W        W85890  17.630  39.817  10.772
14275W        W85891  19.288  35.288   2.733
14276W        W85892  31.937  41.939   3.368
14277W        W85893  14.140  27.324   0.726
14278W        W85894  25.873  39.186   3.761
14279W        W85895   3.415  10.546   1.031
14280W        W85896  32.128  27.991  14.887
14281W        W85897  16.949   8.938  11.043
14282W        W85898  10.579   9.343   4.625
14283W        W85899  24.685  44.776  14.620
14284W        W85900  33.448  21.783   0.016
14285W        W85901   8.860   9.465  13.655
14286W        W85902  28.391   8.205  11.074
14287W        W85903  26.509  38.709  11.220
14288W        W85904   9.703  13.163   0.260
14289W        W85905  18.934  34.608   4.643
14290W        W85906   7.575   2.137  12.590
14291W        W85907  16.092  44.752   3.779
14292W        W85908   0.555  29.104   0.935
14293W        W85909  32.652  30.641  11.261
14294W        W85910   8.732  28.288   5.043
14295W        W85911   6.379  33.652  14.958
14296W        W85912  39.363  37.021   3.394
14297W        W85913  21.739  33.927  12.085
14298W        W85914  19.705   5.280  12.102
14299W        W85915  24.344  28.178  13.044
14300W        W85916  14.610  30.171   2.399
14301W        W85917  40.016  17.138  12.791
14302W        W85918  38.772   6.292   1.880
14303W        W85919  40.095  37.162  11.184
14304W        W85920  31.677  37.411   4.539
14305W        W85921   0.422   5.198  11.078
14306W        W85922  13.721  29.655   4.618
14307W        W85923  21.696   9.874   3.714
14308W        W85924  31.613   3.304  12.655
14309W        W85925  37.258   0.785  14.009
14310W        W85926  35.882   9.467  12.884
14311W        W85927   3.513  20.035   4.711
14312W        W85928  39.308  15.520  11.542
14313W        W85929  27.391  44.746   0.944
14314W        W85930  25.859  16.962  14.143
14315W        W85931   5.529  35.034   3.668
14316W        W85932   4.454  21.118  11.922
14317W        W85933  22.008  33.026  14.477
14318W        W85934   9.640  40.308   4.609
14319W        W85935  44.749  40.478  11.622
14320W        W85936  33.873  42.454  12.469
14321W        W85937  32.795   6.213  11.617
14322W        W85938   4.759  12.367  11.411
14323W        W85939  23.999  42.292  10.699
14324W        W85940  35.174  19.664  11.955
14325W        W85941  27.437  24.180   2.858
14326W        W85942  18.161  25.499   1.259
14327W        W85943   9.279   6.473  13.877
14328W        W85944  38.017  19.281   1.772
14329W        W85945  38.034   6.927   2.202
14330W        W85946  37.023  39.807  13.162
14331W        W85947  39.735  30.840  11.561
14332W        W85948  40.618  19.750   3.707
14333W        W85949   3.735  10.873  11.624
14334W        W85950   2.174  27.269  13.991
14335W        W85951   8.746  28.431  12.830
14336W        W85952  25.538   4.453  11.476
14337W        W85953  14.794   5.792  13.975
14338W        W85954  25.191   2.372  12.254
14339W        W85955  10.703   7.348   4.746
14340W        W85956  21.096  31.154   3.603
14341W        W85957  15.667  13.244  12.852
14342W        W85958  44.475  30.658  11.257
14343W        W85959  34.481  12.383  10.746
14344W        W85960  40.102  39.868  11.568
14345W        W85961  26.926  14.281   4.248
14346W        W85962  30.952  20.106  10.351
14347W        W85963  17.554  12.729  14.789
14348W        W85964  11.159  44.066  12.096
14349W        W85965  14.373  39.987   2.198
14350W        W85966  18.822   6.966  11.009
14351W        W85967   1.251  27.898   2.228
14352W        W85968  34.477   4.163   0.655
14353W        W85969   1.459   6.454   0.731
14354W        W85970  24.239   2.058  13.520
14355W        W85971  29.923  42.090  14.748
14356W        W85972  24.188  41.473  11.648
14357W        W85973  11.633  14.141  11.987
14358W        W85974  15.087  29.134   1.811
14359W        W85975  33.460   6.174   2.117
14360W        W85976  34.642  36.525   0.223
14361W        W85977   2.273  42.866  10.776
14362W        W85978  42.119   1.444  10.835
14363W        W85979   7.045  37.965  11.436
14364W        W85980   2.761  39.825   0.742
14365W        W85981  27.031   6.695   1.880
14366W        W85982   1.346  20.754   4.414
14367W        W85983  31.019  18.297   4.632
14368W        W85984  31.374  28.879  11.513
14369W        W85985  21.098  23.463   3.152
14370W        W85986   0.170  39.559  12.944
14371W        W85987  13.011   5.281   0.329
14372W        W85988  42.385  40.386  13.290
14373W        W85989  39.265   2.675   2.684
14374W        W85990  36.091  24.628   4.554
14375W        W85991  14.621  14.559  10.751
14376W        W85992  19.247  17.572   4.867
14377W        W85993   9.044  44.407   1.848
14378W        W85994  20.294  41.324   0.029
14379W        W85995  23.021  41.418  10.729
14380W        W85996   6.010   0.761   1.399
14381W        W85997   6.221  12.376   2.717
14382W        W85998  11.362  42.725  13.755
14383W        W85999  17.155  44.075   4.700
14384W        W86000  43.353  24.236   3.148
14385W        W86001  29.701  26.929  10.744
14386W        W86002   0.199  33.562   0.239
14387W        W86003  39.444  26.990   2.324
14388W        W86004  37.683  43.401  12.588
14389W        W86005  23.198   4.331  12.815
14390W        W86006  25.556  22.438   0.286
14391W        W86007   0.708  33.074   3.752
14392W        W86008  42.350  37.974   3.825
14393W        W86009  34.878  14.849   3.321
14394W        W86010  26.041  17.137   0.086
14395W        W86011  24.112  36.788   0.935
14396W        W86012   3.708  44.389   3.961
14397W        W86013  41.983   5.560  14.056
14398W        W86014  24.094  41.981  13.833
14399W        W86015  33.441  35.188  13.356
14400W        W86016  32.153  34.556   3.786
14401W        W86017  32.403  22.216  10.987
14402W        W86018  41.398  12.032  12.803
14403W        W86019  25.974  25.130  11.515
14404W        W86020  38.041  11.238   5.325
14405W        W86021  18.604  42.808   2.314
14406W        W86022  18.729   0.314   2.676
14407W        W86023  17.193  20.522   3.974
14408W        W86024  17.318  24.935   2.518
14409W        W86025  14.361  36.964  12.004
14410W        W86026  39.072  33.496   0.379
14411W        W86027  33.990  29.462  14.332
14412W        W86028   5.824  40.266  13.756
14413W        W86029  35.315   5.416  14.948
14414W        W86030   6.814  34.869  13.603
14415W        W86031  41.539  15.764  11.972
14416W        W86032  14.522  42.389   0.557
14417W        W86033  24.195  12.682   2.128
14418W        W86034  31.457  24.414  13.856
14419W        W86035  14.500  18.644   4.714
14420W        W86036   3.574  37.544  14.955
14421W        W86037  40.290  26.253   1.015
14422W        W86038  31.680  11.317  12.811
14423W        W86039  37.565   1.726   1.771
14424W        W86040  24.036  38.083   2.257
14425W        W86041  14.588   7.192   1.327
14426W        W86042  24.005  37.321   3.474
14427W        W86043  14.113  37.626  12.566
14428W        W86044  16.244  41.867   3.169
14429W        W86045  44.192  39.330   4.615
14430W        W86046   7.140  38.845  13.070
14431W        W86047  13.710  33.996   1.684
14432W        W86048  18.571   2.484   5.005
14433W        W86049  15.362   0.159   3.907
14434W        W86050  20.712  39.012  12.951
14435W        W86051  42.538  17.182  11.192
14436W        W86052  26.923  31.855   3.045
14437W        W86053  25.936  28.937  11.474
14438W        W86054  36.547  11.244   5.076
14439W        W86055  27.606   2.657  12.857
14440W        W86056  15.899  43.341   4.098
14441W        W86057  18.999  16.603  13.031
14442W        W86058   9.202  24.722  11.585
14443W        W86059  17.699  35.323  12.038
14444W        W86060   3.082   0.497  10.283
14445W        W86061  19.713  18.538  12.438
14446W        W86062   0.910  24.180  14.882
14447W        W86063  28.092  44.118   3.009
14448W        W86064  12.651  35.577  11.063
14449W        W86065  35.932  22.171   2.299
14450W        W86066  18.780  27.600   2.894
14451W        W86067   3.969  37.771  12.480
14452W        W86068  35.127  38.438  10.433
14453W        W86069  36.623   5.711   3.352
14454W        W86070  36.725  12.224  11.031
14455W        W86071  22.583  17.873  10.656
14456W        W86072  19.766  33.801  11.681
14457W        W86073  17.197  11.780  12.651
14458W        W86074  26.473  21.703   1.828
14459W        W86075  24.058  38.809  14.718
14460W        W86076  33.418  13.514   2.153
14461W        W86077  18.526  27.673   0.822
14462W        W86078   4.349  29.933  13.907
14463W        W86079  17.790  44.852   1.365
14464W        W86080   0.047  28.737  12.832
14465W        W86081  15.706  21.942   0.073
14466W        W86082  11.598  36.546   1.803
14467W        W86083  40.053   4.511   1.155
14468W        W86084  20.798   5.078   5.190
14469W        W86085   4.694  14.278   9.944
14470W        W86086   5.882  28.002  12.794
14471W        W86087  39.094  35.830   3.757
14472W        W86088   2.784   7.212   2.335
14473W        W86089  23.532  42.543   1.953
14474W        W86090   9.416  19.966   4.593
14475W        W86091  10.389   2.360  14.089
14476W        W86092   0.872  39.582   4.221
14477W        W86093   6.847  37.950   0.191
14478W        W86094  34.991  35.806   3.140
14479W        W86095   7.433  39.451   3.196
14480W        W86096  26.275  23.566  13.689
14481W        W86097   0.026  42.447   0.060
14482W        W86098  37.834  18.310  12.975
14483W        W86099  31.822  25.565   2.932
14484W        W86100  16.145   5.473   3.730
14485W        W86101  12.394  30.567   3.821
14486W        W86102  31.226  30.343   0.890
14487W        W86103  20.730  19.676   3.244
14488W        W86104   8.176  14.297  14.030
14489W        W86105  24.936   7.217  13.337
14490W        W86106  13.696   1.249  13.013
14491W        W86107  19.179  21.484   4.038
14492W        W86108   8.487   6.867   3.659
14493W        W86109  42.299  14.572  12.158
14494W        W86110  10.364   6.459  14.035
14495W        W86111  33.674  21.764   0.474
14496W        W86112  25.954   7.432  12.508
14497W        W86113   8.379  42.094   4.035
14498W        W86114  18.474  10.302  10.214
14499W        W86115   6.214  30.311  11.446
14500W        W86116  21.898  28.888  11.980
14501W        W86117  16.906   7.363  10.161
14502W        W86118  35.896  12.432  14.584
14503W        W86119  37.546   2.588  11.852
14504W        W86120   7.736  12.690  13.937
14505W        W86121   8.914  19.689   4.702
14506W        W86122  12.189   4.687   9.694
14507W        W86123  15.256   7.939   4.138
14508W        W86124  25.016  17.171   0.221
14509W        W86125  42.467  30.404   3.177
14510W        W86126  40.481  27.906  13.431
14511W        W86127   4.583  30.478   4.272
14512W        W86128   7.400  32.090   0.327
14513W        W86129  39.836  13.948  12.943
14514W        W86130  11.965  39.916  13.952
14515W        W86131  28.874  18.328  10.549
14516W        W86132  29.427  31.898  12.976
14517W        W86133  37.562  10.866   0.404
14518W        W86134   3.793  22.734   3.855
14519W        W86135   3.911   7.640   3.804
14520W        W86136  21.992  41.041   1.348
14521W        W86137  30.458  33.377   2.961
14522W        W86138   4.198  25.875  10.690
14523W        W86139  15.624  14.997   5.501
14524W        W86140  27.837  41.892  13.070
14525W        W86141  42.806  13.754  14.862
14526W        W86142  12.058  41.998  14.991
14527W        W86143  13.330   9.884   1.842
14528W        W86144  31.525  37.520  13.427
14529W        W86145  19.203  20.617  13.839
14530W        W86146  12.679   2.618   2.008
14531W        W86147  39.890   4.380  13.920
14532W        W86148  20.615   9.220  11.562
14533W        W86149   5.724   4.630  13.979
14534W        W86150  33.971  15.560   2.764
14535W        W86151  44.700  20.080   1.905
14536W        W86152  34.119  30.637   3.229
14537W        W86153  33.581   0.208   4.492
14538W        W86154  27.307   9.693  10.433
14539W        W86155  12.747  21.369  12.899
14540W        W86156  40.510  25.778   0.932
14541W        W86157  20.224   2.257   3.124
14542W        W86158   4.731  12.215   3.412
14543W        W86159  30.389  42.461   1.834
14544W        W86160  12.264  30.385  13.077
14545W        W86161   7.677  18.354  11.669
14546W        W86162   5.255  37.402  11.173
14547W        W86163  18.590  23.015  11.491
14548W        W86164  36.988  37.579   2.194
14549W        W86165  13.568  43.026   3.745
14550W        W86166  12.089   5.355   1.483
14551W        W86167  43.528  19.069  11.626
14552W        W86168  39.445   4.397  11.580
14553W        W86169  20.993  15.894  10.569
14554W        W86170   4.226  11.098   0.802
14555W        W86171  32.546  35.587   4.306
14556W        W86172  29.911   9.783  13.361
14557W        W86173  26.472  14.610   1.284
14558W        W86174  36.842   5.037  10.224
14559W        W86175  21.748  39.274  11.960
14560W        W86176  36.692  22.175   1.277
14561W        W86177   5.762  34.309  11.164
14562W        W86178  14.900  40.929  11.234
14563W        W86179  27.726  28.241   0.671
14564W        W86180  38.062  43.899  10.682
14565W        W86181  26.220  37.332   0.283
14566W        W86182  12.818  20.257  12.219
14567W        W86183   6.260  32.507  11.070
14568W        W86184  33.798  37.915  13.963
14569W        W86185  25.728  41.118  11.107
14570W        W86186  41.555  30.080  11.370
14571W        W86187  20.633   1.310  14.431
14572W        W86188   2.770  18.406  13.707
14573W        W86189  30.653  42.048   4.681
14574W        W86190  38.013  18.792   1.513
14575W        W86191   9.738   7.908   3.359
14576W        W86192  27.469  38.114  14.375
14577W        W86193   3.737  13.979   2.313
14578W        W86194  40.752  11.411  13.148
14579W        W86195  30.439  33.277   3.492
14580W        W86196   3.883  29.019  14.447
14581W        W86197  12.269  22.961  11.408
14582W        W86198  22.753   4.304   4.661
14583W        W86199  26.159  26.172   4.829
14584W        W86200  35.406  19.193  12.896
14585W        W86201  33.544  11.959   3.200
14586W        W86202   7.883   0.524   0.417
14587W        W86203   1.455  18.210   4.864
14588W        W86204  15.618   7.868  12.385
14589W        W86205  34.329  41.764  13.738
14590W        W86206  11.613   9.331  11.996
14591W        W86207  38.906  28.633   4.534
14592W        W86208  31.526  19.703  11.894
14593W        W86209  13.215  41.638   0.749
14594W        W86210  12.212  34.605  12.958
14595W        W86211  16.105  15.690   2.921
14596W        W86212  13.570   0.266   0.976
14597W        W86213   2.869  23.156   1.453
14598W        W86214   6.653  27.699  10.748
14599W        W86215  40.408   2.259  14.463
14600W        W86216  35.905  38.430   2.363
14601W        W86217  41.352  23.214  13.330
14602W        W86218   8.370  21.702  14.330
14603W        W86219   3.770  16.689   0.332
14604W        W86220   0.296  44.092  11.598
14605W        W86221  44.546  20.545   3.721
14606W        W86222  36.561  40.771   3.323
14607W        W86223  29.442  31.294   1.236
14608W        W86224  38.609  24.621  12.002
14609W        W86225   3.184  22.470   2.331
14610W        W86226  31.719  30.623   0.038
14611W        W86227  40.086  34.423  11.430
14612W        W86228  12.236  44.963  12.670
14613W        W86229  42.715   7.143   4.176
14614W        W86230  11.084  30.670   0.414
14615W        W86231  35.821  35.036   3.209
14616W        W86232   1.823  12.730   1.705
14617W        W86233  43.628  32.956  14.418
14618W        W86234  22.625  19.703  13.452
14619W        W86235  14.791  14.354   0.135
14620W        W86236  34.119  25.004  12.919
14621W        W86237  41.068  10.182  10.361
14622W        W86238  24.967   8.260   3.301
14623W        W86239  14.214  38.350  10.569
14624W        W86240  32.925  30.639   0.332
14625W        W86241  43.248  41.944  11.315
14626W        W86242   5.802  18.481  12.038
14627W        W86243  16.304   6.860   3.123
14628W        W86244  11.676  23.533  11.601
14629W        W86245   2.648  19.564   4.363
14630W        W86246  16.088  42.568  12.620
14631W        W86247  32.839  24.193  13.836
14632W        W86248  20.329   8.846   1.343
14633W        W86249  28.240  42.435  11.893
14634W        W86250   2.855  19.162  14.680
14635W        W86251  12.146  43.441  12.542
14636W        W86252  10.957   5.407   2.209
14637W        W86253  38.253  20.434   1.799
14638W        W86254  38.491  22.937  13.153
14639W        W86255  11.693  20.752   4.692
14640W        W86256   9.667   9.874  12.990
14641W        W86257  40.014  29.435   3.344
14642W        W86258  26.427  26.097   0.792
14643W        W86259   0.957  35.553   3.607
14644W        W86260   1.578  23.901  13.874
14645W        W86261  42.851  40.484   5.053
14646W        W86262  43.053  33.151  10.311
14647W        W86263   4.866  24.098   0.828
14648W        W86264  27.873  43.516  12.503
14649W        W86265   4.382  20.509  13.155
14650W        W86266   8.224  27.613  14.612
14651W        W86267  29.895  29.539   0.872
14652W        W86268  34.027  30.997  10.943
14653W        W86269  34.818   7.794   1.759
14654W        W86270  32.535   4.809   4.527
14655W        W86271  38.367  30.663  12.454
14656W        W86272   3.384   8.793   0.975
14657W        W86273   2.522  14.717  13.025
14658W        W86274  43.537  40.248   1.231
14659W        W86275  38.008   2.332  13.266
14660W        W86276  22.572  30.936  13.608
14661W        W86277  21.532  39.166  13.952
14662W        W86278  24.269  15.392  12.061
14663W        W86279  14.202  37.424  11.557
14664W        W86280  40.575  20.639   0.678
14665W        W86281  20.265  39.776   2.741
14666W        W86282  38.315   2.717  12.457
14667W        W86283  23.658  40.553  13.144
14668W        W86284  22.173  32.607  11.551
14669W        W86285  22.783  28.608  13.933
14670W        W86286  28.277  34.969   4.442
14671W        W86287   5.390  17.456   3.377
14672W        W86288   1.048   7.391   4.961
14673W        W86289   1.513   1.204   3.560
14674W        W86290   2.812  28.877  11.185
14675W        W86291  18.119  11.071  13.439
14676W        W86292   1.011  14.252   0.541
14677W        W86293  31.576  35.820  12.831
14678W        W86294  10.344  31.937   4.297
14679W        W86295  21.059  31.771   4.250
14680W        W86296  41.806   5.901   0.888
14681W        W86297  43.017  24.790  10.794
14682W        W86298   3.909  34.244  14.809
14683W        W86299  38.456   0.485   1.670
14684W        W86300  17.309   6.795   2.448
14685W        W86301  11.974  40.459  12.990
14686W        W86302   7.164  43.987  11.515
14687W        W86303   1.382   3.814  14.799
14688W        W86304   1.184  28.538  14.911
14689W        W86305  11.100   7.199   5.082
14690W        W86306   7.826  42.450   4.187
14691W        W86307  23.613   2.718  13.928
14692W        W86308   4.192  42.935  11.462
14693W        W86309  29.478  11.973  10.765
14694W        W86310  21.301   6.289   2.325
14695W        W86311   2.828   3.705   3.384
14696W        W86312  18.622  23.625  14.876
14697W        W86313  26.184  13.526  14.886
14698W        W86314  11.600  32.905   3.132
14699W        W86315  14.818  16.141  13.676
14700W        W86316  22.198  13.547  12.105
14701W        W86317  26.262  12.739   3.285
14702W        W86318  10.164   0.252  14.839
14703W        W86319  17.699  34.260   4.812
14704W        W86320  25.229  11.984  11.157
14705W        W86321  35.418  19.993   2.672
14706W        W86322  38.029  40.285   4.188
14707W        W86323  13.128   5.897   4.549
14708W        W86324  42.328   4.537  14.262
14709W        W86325  29.904  17.245  11.898
14710W        W86326  15.418  42.857  13.925
14711W        W86327  39.043  22.623   0.920
14712W        W86328   7.371  27.231  12.993
14713W        W86329  21.713  10.775   4.662
14714W        W86330   7.320  30.808  11.577
14715W        W86331  36.479  17.025   2.597
14716W        W86332   6.852  36.629  14.697
14717W        W86333  18.622  33.424  14.875
14718W        W86334  21.312   5.413   1.507
14719W        W86335  27.505   1.247  13.073
14720W        W86336  24.918  35.945  14.331
14721W        W86337  40.012   8.404  12.089
14722W        W86338   0.800  30.156   4.664
14723W        W86339  28.578   7.674  12.449
14724W        W86340  33.029   1.947   0.355
14725W        W86341  25.042  38.361  10.639
14726W        W86342  40.371   3.508  12.900
14727W        W86343  41.983   0.531   3.743
14728W        W86344  37.658   1.724   0.449
14729W        W86345  21.616  19.229   4.831
14730W        W86346  39.481  27.779   3.277
14731W        W86347  44.261   4.997   0.957
14732W        W86348  21.395  20.699  14.116
14733W        W86349  18.543  20.725   2.024
14734W        W86350  28.493  31.975   1.954
14735W        W86351  22.051   1.756  14.333
14736W        W86352  22.591  20.736  11.724
14737W        W86353  30.069  18.837  13.911
14738W        W86354  10.119   0.225  10.913
14739W        W86355  20.774  24.600  12.477
14740W        W86356   6.166  25.669  13.327
14741W        W86357  33.481  20.503   1.187
14742W        W86358  28.820  38.996  12.972
14743W        W86359  18.946  42.702  11.905
14744W        W86360  24.860  38.889  12.739
14745W        W86361  18.085  20.819   4.518
14746W        W86362  19.998  15.628  12.966
14747W        W86363  25.452  36.836  11.592
14748W        W86364  27.934  15.027  13.984
14749W        W86365  21.692  39.596   2.559
14750W        W86366  38.023  31.042   0.932
14751W        W86367  17.242  23.695  12.600
14752W        W86368  23.102   0.412   2.779
14753W        W86369  42.733  33.495  13.517
14754W        W86370  28.520  22.962  14.454
14755W        W86371   8.217  16.660   3.410
14756W        W86372  40.059  15.107  11.554
14757W        W86373  31.897   4.274   4.493
14758W        W86374   1.411  38.099   0.704
14759W        W86375  22.298  38.064   3.798
14760W        W86376   0.876   5.235   3.269
14761W        W86377  40.867  35.607  12.994
14762W        W86378  37.324  26.433   3.332
14763W        W86379  15.066  22.631   4.521
14764W        W86380   4.958  39.477   2.828
14765W        W86381  38.257   5.469   1.574
14766W        W86382  38.984  30.098  10.675
14767W        W86383  34.438  22.834   3.829
14768W        W86384   7.685   7.285  10.435
14769W        W86385  40.087  42.788   4.097
14770W        W86386  11.808  40.412   2.665
14771W        W86387  11.306  18.381   1.804
14772W        W86388   8.688  26.458  11.242
14773W        W86389  21.452  28.493  13.415
14774W        W86390  42.255  36.392   1.597
14775W        W86391   7.704   7.955  11.553
14776W        W86392  14.324   7.079   5.461
14777W        W86393  32.324  23.890   9.867
14778W        W86394   6.498  37.633   0.927
14779W        W86395   7.193   6.347  13.921
14780W        W86396  35.877   2.366   0.450
14781W        W86397  40.370  29.429  13.567
14782W        W86398  37.994  33.898   4.138
14783W        W86399  31.365  19.495  13.443
14784W        W86400   6.322   5.464   1.681
14785W        W86401  17.061  18.860   1.153
14786W        W86402  42.505  25.166   0.799
14787W        W86403   7.807  14.870   1.879
14788W        W86404   9.093  14.602   0.276
14789W        W86405  39.178  19.217  11.979
14790W        W86406   3.556  22.675  14.932
14791W        W86407   8.750  10.575   4.582
14792W        W86408  22.375  16.140   0.433
14793W        W86409  30.598  42.346  14.504
14794W        W86410  35.336  15.769   4.165
14795W        W86411   5.662   9.832  14.103
14796W        W86412  13.215  18.134   0.061
14797W        W86413  44.636  24.657   0.351
14798W        W86414  33.102  41.793  11.569
14799W        W86415   1.050  15.276  13.320
14800W        W86416   6.601   8.250  11.671
14801W        W86417  20.260  40.258   5.128
14802W        W86418  22.313  26.711   4.644
14803W        W86419  28.742  10.890  14.029
14804W        W86420  27.427  32.089  14.521
14805W        W86421  18.116   1.647   2.845
14806W        W86422   2.324  11.078  14.981
14807W        W86423  21.615   2.987  10.320
14808W        W86424  31.623  44.923   4.863
14809W        W86425  14.350  29.481   3.254
14810W        W86426  24.755  43.514  13.394
14811W        W86427  27.098   3.060  10.647
14812W        W86428  24.246  38.862  13.437
14813W        W86429  17.901  23.178   2.265
14814W        W86430  19.959  14.775  12.045
14815W        W86431   7.676   1.312  14.902
14816W        W86432  12.170  39.251  14.465
14817W        W86433   7.767  16.699   3.177
14818W        W86434  20.744  39.572  12.906
14819W        W86435  43.494  37.058   0.933
14820W        W86436   8.211  27.307  12.562
14821W        W86437   8.861  27.548  13.891
14822W        W86438   0.977  18.103   1.791
14823W        W86439   8.820  13.579  10.960
14824W        W86440  39.035  28.400  12.025
14825W        W86441  38.290  24.518   2.879
14826W        W86442  28.839   8.999  13.179
14827W        W86443  42.692  28.315   2.496
14828W        W86444  21.696  14.856  11.567
14829W        W86445  21.725  20.243   2.819
14830W        W86446  23.210  24.503   3.608
14831W        W86447  43.950  36.587   0.360
14832W        W86448   1.648   5.490   1.622
14833W        W86449  17.829  30.110  14.325
14834W        W86450   4.320  39.931   3.661
14835W        W86451  32.715   4.950  11.996
14836W        W86452  22.967  14.635  14.188
14837W        W86453  37.799  27.211  13.491
14838W        W86454  30.927  18.423  12.991
14839W        W86455  15.788  14.735   3.893
14840W        W86456   8.563  32.497   1.578
14841W        W86457   5.500  27.733  13.022
14842W        W86458  19.790  11.696   3.119
14843W        W86459   1.320   1.844  13.982
14844W        W86460  17.476   6.402  14.557
14845W        W86461   2.326   6.670  12.076
14846W        W86462  26.865  32.039  11.445
14847W        W86463  16.874  19.822  11.364
14848W        W86464   7.770  19.265   2.872
14849W        W86465  35.484  18.096  13.808
14850W        W86466  12.582  13.577   0.283
14851W        W86467  32.844  43.004  11.116
14852W        W86468  17.795   8.967  11.995
14853W        W86469  36.241  25.485  13.849
14854W        W86470   7.376  18.083  10.381
14855W        W86471   1.537   8.793   1.021
14856W        W86472  28.000   3.265  14.483
14857W        W86473  19.314  34.125   1.391
14858W        W86474  23.669  27.462   4.408
14859W        W86475  20.701  15.121   4.826
14860W        W86476  27.652  13.868  10.048
14861W        W86477  15.858  33.950  13.854
14862W        W86478  21.092  24.871  11.532
14863W        W86479  12.131   0.244   3.829
14864W        W86480  30.716  26.460  13.309
14865W        W86481  15.064   7.582  11.221
14866W        W86482  27.937  37.937   3.868
14867W        W86483  35.445  37.822  12.512
14868W        W86484  29.963  23.482   1.389
14869W        W86485   8.901  15.609   3.641
14870W        W86486  33.569  11.564   5.341
14871W        W86487   7.148   8.944  11.122
14872W        W86488  39.315  30.684   4.677
14873W        W86489  31.666   5.273  10.784
14874W        W86490  10.695  15.801  14.305
14875W        W86491  10.341  40.390   1.284
14876W        W86492  42.361  42.229   0.794
14877W        W86493  29.519   1.363   0.662
14878W        W86494  29.854  20.420  10.664
14879W        W86495   7.417   2.050  13.862
14880W        W86496   4.948  11.464   4.958
14881W        W86497  32.218  42.258   2.969
14882W        W86498  16.824   3.108  10.666
14883W        W86499  38.643  38.913  10.753
14884W        W86500  33.653  18.180   4.979
14885W        W86501  25.523  36.430   3.805
14886W        W86502  34.947  21.646  14.313
14887W        W86503   3.811  25.632   0.777
14888W        W86504  32.146  22.261   1.392
14889W        W86505  21.776   8.192  14.974
14890W        W86506  16.404   2.335   3.068
14891W        W86507   2.983   3.225   3.296
14892W        W86508  35.928  12.000  11.162
14893W        W86509  36.815   5.333   3.930
14894W        W86510   5.699   2.207  11.582
14895W        W86511  28.975  18.638  13.474
14896W        W86512  41.500   4.201   1.262
14897W        W86513  43.833  23.974   4.246
14898W        W86514  18.571  19.970  11.923
14899W        W86515   2.443   1.981  12.425
14900W        W86516  22.148   7.328  11.607
14901W        W86517  37.054   7.295  11.920
14902W        W86518  34.013   8.848   3.435
14903W        W86519  10.357  30.009  11.470
14904W        W86520   9.884   0.262   4.657
14905W        W86521  13.738  42.472   4.736
14906W        W86522  18.195  28.548  14.922
14907W        W86523   0.055  39.213   3.695
14908W        W86524  43.509  25.444  11.479
14909W        W86525   2.112   1.589  14.716
14910W        W86526  28.438  10.132  14.346
14911W        W86527  10.203  14.663  12.033
14912W        W86528  26.402  13.161   0.830
14913W        W86529  28.892   9.040   4.223
14914W        W86530  32.551  18.379   2.313
14915W        W86531   0.230   1.709   4.209
14916W        W86532  44.336  37.132   0.916
14917W        W86533  36.834  21.659  14.403
14918W        W86534  29.509  22.869   0.291
14919W        W86535  40.721  23.230  11.232
14920W        W86536  13.218  35.109  14.539
14921W        W86537   7.261  21.735  10.989
14922W        W86538  28.043  13.736   0.335
14923W        W86539  41.881  10.343  14.849
14924W        W86540  38.931  41.359   4.142
14925W        W86541  19.527  13.012  11.914
14926W        W86542  32.080   7.149  11.116
14927W        W86543  10.844  42.481   2.806
14928W        W86544   3.778  29.163  11.486
14929W        W86545  34.148  30.267   0.627
14930W        W86546  39.823   5.284  13.876
14931W        W86547  28.578  30.339  10.511
14932W        W86548   8.116  36.873  14.402
14933W        W86549  38.015  16.619   2.802
14934W        W86550  17.689  16.887  13.534
14935W        W86551  20.657  40.083  14.883
14936W        W86552  44.259  23.196  11.656
14937W        W86553   5.012  39.641   4.667
14938W        W86554  17.778  36.033   1.799
14939W        W86555   9.816  13.645   0.438
14940W        W86556   7.467   3.962   2.274
14941W        W86557   0.931  32.358   2.611
14942W        W86558  18.739  13.046   1.399
14943W        W86559  36.474   3.846   4.723
14944W        W86560  11.711  11.826   2.743
14945W        W86561  35.416  16.244   0.393
14946W        W86562   5.498  37.778   3.690
14947W        W86563  32.964  18.915   0.168
14948W        W86564  36.859   1.332   1.738
14949W        W86565  21.458  34.720  12.445
14950W        W86566  18.069   1.672   4.252
14951W        W86567  13.781  21.538   3.212
14952W        W86568  14.307   0.964   2.236
14953W        W86569  17.787  36.825  12.871
14954W        W86570  32.485   8.248   3.270
14955W        W86571   2.065  37.483  13.929
14956W        W86572  44.915  43.287   0.476
14957W        W86573  35.946   6.854   2.352
14958W        W86574  43.002   2.451   1.864
14959W        W86575  34.395  22.622  12.601
14960W        W86576   4.677  32.929   3.589
14961W        W86577  34.031  44.033   1.332
14962W        W86578  11.927   9.809  10.732
14963W        W86579  31.577   2.123   4.666
14964W        W86580  32.343   6.519   0.824
14965W        W86581   9.760  23.029   1.350
14966W        W86582  11.224  10.842   0.838
14967W        W86583  13.182   2.707  12.477
14968W        W86584   9.384  39.892  11.146
14969W        W86585  44.911  14.770   0.352
14970W        W86586  28.753  29.157   2.186
14971W        W86587  44.768  26.195   2.216
14972W        W86588  33.434   9.137   1.871
14973W        W86589   0.292  22.542  12.847
14974W        W86590   1.371  33.882  10.416
14975W        W86591   7.144  38.332  11.079
14976W        W86592  24.955  36.332  14.967
14977W        W86593  40.421   3.208  13.316
14978W        W86594  32.011  11.377  10.533
14979W        W86595  19.862   0.886  12.854
14980W        W86596  29.412   7.225   1.605
14981W        W86597  37.594  18.266   3.355
14982W        W86598  34.350  19.077   3.257
14983W        W86599  36.839  16.731   0.337
14984W        W86600  11.953  38.387   3.684
14985W        W86601   8.632   8.169   1.861
14986W        W86602  28.056   6.927  11.530
14987W        W86603  40.485  42.957   0.510
14988W        W86604   0.329  13.927  12.564
14989W        W86605   8.466  36.602   4.541
14990W        W86606  42.467  35.513   3.088
14991W        W86607   0.598  35.004   3.680
14992W        W86608  14.849  32.024  11.070
14993W        W86609   6.913  25.677   1.292
14994W        W86610  37.529  15.566  11.684
14995W        W86611  36.462  36.985  12.822
14996W        W86612  21.575  24.016  14.681
14997W        W86613   3.189  21.206  10.497
14998W        W86614  24.975  10.648   0.300
14999W        W86615  38.253  17.482  13.105
15000W        W86616   0.670  37.343  11.640
15001W        W86617   8.834  11.919   4.182
15002W        W86618   4.783  20.819  14.409
15003W        W86619  30.555   0.293   0.414
15004W        W86620  33.365   5.922   0.874
15005W        W86621   1.285  16.639   3.430
15006W        W86622  40.385  35.353  12.940
15007W        W86623  35.417  41.430   4.598
15008W        W86624  39.886  44.542   3.798
15009W        W86625   9.692  17.383   1.879
15010W        W86626   9.674  18.532   0.232
15011W        W86627  41.826  24.580   3.491
15012W        W86628  33.520  35.034   0.864
15013W        W86629  38.962  35.116  13.146
15014W        W86630  20.126  27.707   0.982
15015W        W86631  39.086  37.907  12.873
15016W        W86632  30.407  32.155  12.026
15017W        W86633  36.061   7.339   2.192
15018W        W86634  25.437  13.524   3.674
15019W        W86635  32.421  12.810  13.093
15020W        W86636  28.973  20.104  12.453
15021W        W86637   8.645  19.521   2.099
15022W        W86638  18.780  26.061  14.286
15023W        W86639  25.192  18.109  14.805
15024W        W86640  26.149  41.300  11.315
15025W        W86641   9.256  40.428  10.693
15026W        W86642  32.141  21.030  13.951
15027W        W86643  38.358  16.294  11.125
15028W        W86644  26.516  40.980  11.497
15029W        W86645  41.121   3.285   3.730
15030W        W86646  38.511   7.867   1.260
15031W        W86647  21.720  32.624   1.842
15032W        W86648  10.149   4.838   4.071
15033W        W86649  26.128  43.256  12.857
15034W        W86650  31.394  16.266  14.856
15035W        W86651  37.012  42.342  11.869
15036W        W86652  36.527   4.033   3.933
15037W        W86653  34.659  36.984   3.784
15038W        W86654  33.936   0.880  13.325
15039W        W86655  38.773  19.281  13.790
15040W        W86656  32.987  11.602   0.964
15041W        W86657  19.237  44.716   3.220
15042W        W86658  20.674  27.094   1.473
15043W        W86659  12.922  17.699  11.547
15044W        W86660  10.961  10.236  10.694
15045W        W86661  40.327   1.839   3.102
15046W        W86662  29.073  30.387  13.334
15047W        W86663  32.885  25.139  14.601
15048W        W86664  42.062  22.571   0.959
15049W        W86665  43.788  34.534  14.462
15050W        W86666  21.015  25.413  12.567
15051W        W86667   5.913  37.357   2.819
15052W        W86668  44.492  24.002   4.900
15053W        W86669  24.604  19.221   1.213
15054W        W86670  13.708  26.562   5.044
15055W        W86671   7.851  44.365   4.653
15056W        W86672  34.872  24.894   3.816
15057W        W86673  28.011  35.908   4.674
15058W        W86674  36.895   3.214   2.931
15059W        W86675  33.392  17.418  14.365
15060W        W86676  27.645  24.271  13.940
15061W        W86677  23.094   2.995   1.289
15062W        W86678   1.761  26.604   0.725
15063W        W86679   8.505   2.356  12.416
15064W        W86680  38.335  33.877  11.174
15065W        W86681  35.970  44.552   2.331
15066W        W86682  27.762  40.469   3.902
15067W        W86683  29.865   2.029   4.031
15068W        W86684   6.002  12.272  12.678
15069W        W86685   2.737  42.472  14.322
15070W        W86686  15.337  12.553   3.600
15071W        W86687  17.123  42.935  10.644
15072W        W86688  11.356  40.609   2.888
15073W        W86689  28.932   0.599  14.250
15074W        W86690   6.305  37.191  12.455
15075W        W86691  25.597  23.584  11.886
15076W        W86692  24.078  37.536  10.181
15077W        W86693  31.142  27.684  13.797
15078W        W86694   1.383  24.569   4.546
15079W        W86695  37.398  26.006  11.974
15080W        W86696  40.294  12.678  11.541
15081W        W86697   6.520  10.444   1.266
15082W        W86698  33.333  27.679   1.936
15083W        W86699  18.149  44.018  14.983
15084W        W86700   3.344  26.902  12.180
15085W        W86701  26.110   2.167   1.747
15086W        W86702   6.779   9.840   1.863
15087W        W86703  19.707  17.868   3.203
15088W        W86704   3.919  30.154   0.108
15089W        W86705   7.944  30.959   0.366
15090W        W86706  32.361  29.148   5.105
15091W        W86707  19.016   1.250   4.350
15092W        W86708   5.650  20.351  11.687
15093W        W86709  21.107  44.973   0.692
15094W        W86710  20.180  34.906   1.865
15095W        W86711  18.836  11.331   3.627
15096W        W86712  17.626   3.021   0.920
15097W        W86713   5.478   0.580   3.342
15098W        W86714  26.979   4.349  11.559
15099W        W86715  25.072  32.471   0.987
15100W        W86716   5.982   2.721   4.354
15101W        W86717  11.691  21.702  12.504
15102W        W86718  44.762  38.531   4.150
15103W        W86719  20.785  33.057   4.147
15104W        W86720  25.421  43.577   0.772
15105W        W86721  21.247  10.442  12.261
15106W        W86722  42.331  26.564   1.487
15107W        W86723  13.668  29.026  13.658
15108W        W86724  36.938  37.038  10.650
15109W        W86725  15.176  23.054  14.503
15110W        W86726  30.761  20.471   2.634
15111W        W86727  44.716  26.139   3.143
15112W        W86728  29.512  34.482   0.294
15113W        W86729  37.612   0.452   3.145
15114W        W86730  22.228  34.432  14.471
15115W        W86731  16.245  25.610   4.924
15116W        W86732  36.979  42.666   3.568
15117W        W86733  41.995  34.814  14.347
15118W        W86734  37.418  10.349   4.642
15119W        W86735  40.399  29.998  12.000
15120W        W86736  25.549   6.055   2.747
15121W        W86737  34.419  34.353   4.793
15122W        W86738  24.472   0.955  13.403
15123W        W86739  25.865  36.985   1.817
15124W        W86740  16.299  33.587   4.263
15125W        W86741  23.456  15.760  13.571
15126W        W86742  22.658   6.720   1.385
15127W        W86743   4.785  11.611   2.118
15128W        W86744  32.379   0.929   4.824
15129W        W86745  43.013  40.089   2.383
15130W        W86746  18.003  30.005   1.415
15131W        W86747  40.462  17.676  11.164
15132W        W86748  36.099  24.449  13.366
15133W        W86749  22.140   4.567  11.553
15134W        W86750  29.338  23.610   3.709
15135W        W86751   2.896  30.721  12.348
15136W        W86752  32.865   4.118  13.781
15137W        W86753   5.234  18.032  10.747
15138W        W86754   7.651   3.433  14.265
15139W        W86755  31.443  43.458  12.846
15140W        W86756  20.116  32.097   3.342
15141W        W86757  15.904  39.417  14.652
15142W        W86758  40.343  25.730  11.368
15143W        W86759  21.258  39.536   1.872
15144W        W86760  28.484  32.419   3.581
15145W        W86761  29.735   2.185   3.083
15146W        W86762  24.409  44.759   0.573
15147W        W86763  37.539  24.590   3.130
15148W        W86764  14.014   6.773   0.046
15149W        W86765  25.176  10.504   2.588
15150W        W86766  26.039  44.273   2.727
15151W        W86767  28.633  32.385  10.644
15152W        W86768  11.440  15.042   3.181
15153W        W86769  20.689  39.543  13.795
15154W        W86770  20.063  35.435   0.707
15155W        W86771  18.512  38.313  10.636
15156W        W86772  42.828  14.568  12.136
15157W        W86773  43.801  42.774   3.015
15158W        W86774  33.857  14.116  13.420
15159W        W86775   4.650  39.842   4.310
15160W        W86776  14.393   0.273   2.746
15161W        W86777  15.858  10.600   2.794
15162W        W86778  22.290   1.113  12.114
15163W        W86779   3.840  17.353   1.775
15164W        W86780  21.001  30.475  11.989
15165W        W86781  26.744  16.753  10.699
15166W        W86782  23.167  33.615  14.930
15167W        W86783   4.560  20.688   3.216
15168W        W86784  25.601   5.632  12.392
15169W        W86785   6.266   8.232  13.651
15170W        W86786  40.259   6.768   4.605
15171W        W86787   1.454  41.815  14.375
15172W        W86788  29.858  10.309  13.262
15173W        W86789   8.025  19.579   4.217
15174W        W86790   7.342  24.334  12.395
15175W        W86791  34.590   1.760   1.278
15176W        W86792  28.538  39.206   0.252
15177W        W86793  42.259  35.548   0.095
15178W        W86794  17.805  18.127   3.069
15179W        W86795  13.205  13.684   4.118
15180W        W86796   2.487  15.931  12.377
15181W        W86797  18.004  43.446   1.282
15182W        W86798  13.640  24.542  11.658
15183W        W86799  40.975  20.350  13.409
15184W        W86800  41.407  20.566   3.290
15185W        W86801  11.108  19.554  12.530
15186W        W86802  13.141  33.525  11.267
15187W        W86803  32.942  29.886   0.769
15188W        W86804   0.756  27.167   2.336
15189W        W86805  25.164  29.461   0.149
15190W        W86806  32.076  11.359   1.464
15191W        W86807  10.226   7.055   1.352
15192W        W86808  33.303  34.046  11.925
15193W        W86809   1.791   5.912  14.461
15194W        W86810   6.362  11.311   3.864
15195W        W86811  44.999   0.047   3.614
15196W        W86812   4.418  42.234  13.799
15197W        W86813  28.370  18.766  13.566
15198W        W86814  43.337  43.055  11.168
15199W        W86815  17.638  29.098  13.341
15200W        W86816   6.487   6.297   2.742
15201W        W86817  41.506  43.250  13.908
15202W        W86818   3.653   0.283  13.275
15203W        W86819   7.743  37.072   2.659
15204W        W86820   8.349  11.701  14.283
15205W        W86821   5.751  17.052  11.632
15206W        W86822  37.355  26.818   3.668
15207W        W86823  26.992   1.420  10.749
15208W        W86824  20.562   5.049   1.002
15209W        W86825  22.304  18.332  13.023
15210W        W86826   2.728  12.121  14.533
15211W        W86827  24.723  22.022   3.943
15212W        W86828  30.418  33.147  11.276
15213W        W86829  30.374   2.401  14.405
15214W        W86830  42.584  14.517  12.605
15215W        W86831  37.923  17.341   1.066
15216W        W86832  31.396  35.460  13.664
15217W        W86833  20.646  25.223   1.270
15218W        W86834  23.563  25.506  10.756
15219W        W86835  44.513  10.271  10.239
15220W        W86836  38.886  27.093   3.468
15221W        W86837  30.055  25.907  14.405
15222W        W86838  30.721  27.593   3.118
15223W        W86839   1.570  18.001  14.476
15224W        W86840   4.646  27.888  13.177
15225W        W86841  42.018  38.611   2.365
15226W        W86842  14.607  20.651  14.277
15227W        W86843  22.051  39.217  13.977
15228W        W86844  40.793  35.904   1.807
15229W        W86845   0.093  30.041   1.312
15230W        W86846  44.306  38.569   0.510
15231W        W86847   2.394  36.413   4.588
15232W        W86848  43.520  33.407   4.501
15233W        W86849  26.242  30.030   0.846
15234W        W86850  44.997   7.611  11.037
15235W        W86851  14.767   5.710   2.241
15236W        W86852  27.278  44.420   3.227
15237W        W86853   1.387   2.095   0.096
15238W        W86854  28.842  25.449   2.566
15239W        W86855  40.432  34.558   4.435
15240W        W86856  34.605  23.021   2.209
15241W        W86857  43.999  24.667  12.113
15242W        W86858  30.720  16.318  12.888
15243W        W86859  40.563   2.291   5.101
15244W        W86860  28.064  16.263  10.464
15245W        W86861  15.116  30.528   0.879
15246W        W86862  27.888  38.909   2.206
15247W        W86863   5.653  23.859  12.585
15248W        W86864   2.186  19.266  11.451
15249W        W86865  26.271   1.991  12.943
15250W        W86866  23.002  30.938  14.722
15251W        W86867  12.457  13.806   0.721
15252W        W86868   1.501  15.097   3.312
15253W        W86869  41.923  12.771   4.264
15254W        W86870  28.063   5.061   4.559
15255W        W86871   8.670  35.332  11.133
15256W        W86872   6.154  23.994  11.633
15257W        W86873   4.273  30.040  14.774
15258W        W86874   2.354  20.489   3.403
15259W        W86875  25.341  22.912  14.985
15260W        W86876  43.834   7.885   3.247
15261W        W86877  27.715   4.897   0.667
15262W        W86878  31.324  17.672   3.185
15263W        W86879  22.550  24.704  12.893
15264W        W86880  27.451  17.236  10.583
15265W        W86881   4.463  41.755  13.928
15266W        W86882   8.231  18.510   1.254
15267W        W86883  29.481  15.210   2.234
15268W        W86884  16.996   0.404  11.406
15269W        W86885  42.591  42.484   3.641
15270W        W86886  34.286  14.127   1.365
15271W        W86887  14.742  44.258  11.032
15272W        W86888  12.717  36.038  11.734
15273W        W86889  31.368  32.940   4.545
15274W        W86890  28.739  25.130  13.744
15275W        W86891  35.639  40.850  14.483
15276W        W86892   3.304  42.431   3.105
15277W        W86893  12.788  41.417  13.446
15278W        W86894  18.691  33.845   4.798
15279W        W86895  22.989  43.998  13.500
15280W        W86896  29.862  29.062  14.474
15281W        W86897   8.366   9.203  13.695
15282W        W86898  36.450  35.940   4.586
15283W        W86899  36.428   6.872   1.241
15284W        W86900   6.230  27.787  11.569
15285W        W86901  34.554  35.963  10.787
15286W        W86902  13.282  16.745   2.169
15287W        W86903  34.347  41.763   0.332
15288W        W86904  40.245  38.001   3.749
15289W        W86905  19.310  19.190  14.372
15290W        W86906  11.130   7.278   2.725
15291W        W86907  25.160  20.787  11.489
15292W        W86908  20.302  10.372  14.941
15293W        W86909   3.258  24.757   3.949
15294W        W86910  23.672   3.211   4.546
15295W        W86911  34.194  25.468   2.888
15296W        W86912  16.176   1.475   1.742
15297W        W86913  20.116  40.253  11.993
15298W        W86914   0.896  15.822  13.059
15299W        W86915  30.372   9.369   0.662
15300W        W86916  13.391  44.569  14.129
15301W        W86917  28.123   1.259   1.776
15302W        W86918  36.770  14.465  12.542
15303W        W86919   4.392  30.090   2.792
15304W        W86920   8.209  26.575  10.373
15305W        W86921  24.497  25.247   3.359
15306W        W86922  24.292  43.015  11.165
15307W        W86923  28.544  42.404   3.304
15308W        W86924  33.999  28.993   1.217
15309W        W86925   6.104  23.409   2.741
15310W        W86926  25.781   9.664   1.903
15311W        W86927   1.244   7.888  12.018
15312W        W86928  43.720  23.495   0.354
15313W        W86929  22.219   9.949  10.792
15314W        W86930   9.731   1.527   4.252
15315W        W86931  34.385  30.038   4.633
15316W        W86932  24.593  37.232   1.209
15317W        W86933  17.148   0.787   5.042
15318W        W86934  15.554  28.039  12.127
15319W        W86935  15.274  10.719   2.034
15320W        W86936  21.228  15.671   1.338
15321W        W86937  16.285   3.483  10.352
15322W        W86938  14.606  37.536  13.455
15323W        W86939  11.971  23.521  12.922
15324W        W86940  28.224  31.119   0.748
15325W        W86941  31.658   7.922   1.375
15326W        W86942  38.285   8.311   2.249
15327W        W86943  14.572  13.433   4.165
15328W        W86944  43.703  23.711  11.247
15329W        W86945   7.791  13.930  14.004
15330W        W86946  15.261  38.462   3.692
15331W        W86947  21.487  19.785   2.665
15332W        W86948  37.141   4.379  14.315
15333W        W86949   2.748  17.031   1.139
15334W        W86950  21.196  43.445   3.650
15335W        W86951   4.022  25.133   0.772
15336W        W86952   6.346   5.158  10.114
15337W        W86953  15.547  14.849   0.380
15338W        W86954  13.629  30.675   1.256
15339W        W86955   5.185  32.965  10.724
15340W        W86956  34.945  30.336  13.497
15341W        W86957  40.867  36.309  13.410
15342W        W86958  19.508  31.117   3.188
15343W        W86959  28.526  29.128  12.351
15344W        W86960  31.915   5.302  11.945
15345W        W86961  18.251  44.984  12.421
15346W        W86962  13.254  11.286   3.571
15347W        W86963   2.738  36.864   3.222
15348W        W86964  44.937  37.853   5.143
15349W        W86965   1.825  21.105   3.061
15350W        W86966  38.044   7.927   3.275
15351W        W86967  32.547  12.340  14.977
15352W        W86968   2.004  16.022   4.235
15353W        W86969   1.819  42.371   4.025
15354W        W86970  16.550  18.760  13.525
15355W        W86971  13.157   0.431   0.673
15356W        W86972   2.934   4.665   4.933
15357W        W86973  21.756  33.463  11.840
15358W        W86974  38.333  16.364   4.138
15359W        W86975  30.933  37.129  12.185
15360W        W86976  40.588  42.869  11.467
15361W        W86977   5.932  15.391  14.099
15362W        W86978  36.309  26.675   2.306
15363W        W86979  34.427  12.751   1.432
15364W        W86980  17.782  16.692   2.732
15365W        W86981  29.642  28.178  14.561
15366W        W86982   8.241   5.054   2.347
15367W        W86983  37.836  19.528   4.596
15368W        W86984  23.774  11.719   4.886
15369W        W86985   9.120  10.664   2.735
15370W        W86986   1.520  42.278   1.819
15371W        W86987  17.926  19.749   4.646
15372W        W86988  11.226  21.306   2.865
15373W        W86989   9.256  14.021  13.101
15374W        W86990  12.743  22.469   1.946
15375W        W86991  39.616  21.770  14.775
15376W        W86992  27.919  15.172   2.924
15377W        W86993  27.540  20.252   4.133
15378W        W86994   2.221  24.138   0.363
15379W        W86995  13.404  39.958  14.965
15380W        W86996  24.900  18.077   2.432
15381W        W86997  21.653   9.781   0.342
15382W        W86998  16.752  27.108  12.075
15383W        W86999   8.419  18.125  13.007
15384W        W87000  32.996  11.090  12.604
15385W        W87001   1.255  29.567  10.805
15386W        W87002   2.494  41.300  11.121
15387W        W87003  26.202  23.544  14.851
15388W        W87004  39.962  21.074   4.207
15389W        W87005   0.041  34.019   1.682
15390W        W87006   9.774  39.101  14.502
15391W        W87007   6.375  33.078  12.941
15392W        W87008  30.902  22.401  14.436
15393W        W87009  14.404  23.176  12.108
15394W        W87010  19.592  24.731  14.897
15395W        W87011  21.543  24.994  10.644
15396W        W87012  24.632  16.151   3.815
15397W        W87013  13.988  17.351  13.060
15398W        W87014  16.245  14.766   3.036
15399W        W87015  16.133  21.961  14.760
15400W        W87016  23.558  39.445   2.159
15401W        W87017   3.030  15.201  10.695
15402W        W87018  27.194   4.935  14.786
15403W        W87019  11.604   8.309  14.067
15404W        W87020   4.693  15.814  14.532
15405W        W87021  20.575  19.128   4.273
15406W        W87022  39.803  23.192   4.769
15407W        W87023  25.669   0.373   2.122
15408W        W87024  32.272  22.166  13.429
15409W        W87025  16.615  25.159  12.398
15410W        W87026  31.149  12.459  11.057
15411W        W87027  42.438  34.194  14.809
15412W        W87028  11.683  20.304  10.645
15413W        W87029   1.249  43.853  12.063
15414W        W87030  40.025  44.893   1.836
15415W        W87031   3.508   1.884   0.029
15416W        W87032  21.934  36.866   2.297
15417W        W87033  26.977   4.206  14.057
15418W        W87034   4.039  10.224   4.242
15419W        W87035   1.200  44.422  10.665
15420W        W87036  17.800   8.165  11.198
15421W        W87037  26.574  33.399  11.535
15422W        W87038  42.969  25.152  13.540
15423W        W87039  42.483  19.236   0.709
15424W        W87040   3.336  43.473  11.735
15425W        W87041  19.268  14.377  14.205
15426W        W87042  44.438  12.812   1.777
15427W        W87043  17.794  13.462  11.591
15428W        W87044  42.357  30.961   3.864
15429W        W87045  36.592   1.476   2.319
15430W        W87046  44.290  42.039  12.489
15431W        W87047   6.376  43.474   1.909
15432W        W87048   3.691  28.883  11.039
15433W        W87049  34.998  38.641  12.395
15434W        W87050   1.967  30.165  14.822
15435W        W87051  25.012  25.979   1.336
15436W        W87052  11.319  42.500   3.513
15437W        W87053  20.786  31.953   1.178
15438W        W87054   5.927   0.322   2.306
15439W        W87055   3.786  10.860   0.873
15440W        W87056  34.911   9.834  10.772
15441W        W87057  36.526   8.761   2.021
15442W        W87058  39.963  14.765  12.531
15443W        W87059  24.551  24.331  11.974
15444W        W87060   1.778   5.377  12.124
15445W        W87061  14.248  16.544  13.082
15446W        W87062   0.364   0.925  11.474
15447W        W87063  38.979  37.744   4.049
15448W        W87064  43.115  37.473   3.856
15449W        W87065  19.682  19.303  13.961
15450W        W87066  38.552   4.278   2.755
15451W        W87067  19.343  21.997   1.381
15452W        W87068  27.488  24.754  14.073
15453W        W87069  34.009   4.992   1.515
15454W        W87070  28.758  11.729   0.896
15455W        W87071  22.793  21.686  12.011
15456W        W87072  29.409   3.760   4.641
15457W        W87073  44.815   6.665  11.044
15458W        W87074  12.195  19.258   3.983
15459W        W87075  30.111  39.651  14.901
15460W        W87076  10.313  42.896  10.602
15461W        W87077  41.383  25.719  11.975
15462W        W87078  38.461  35.574  14.965
15463W        W87079  42.755  18.754  11.385
15464W        W87080  20.512  44.028  13.643
15465W        W87081   3.773  33.164   3.567
15466W        W87082  32.597  33.630  13.109
15467W        W87083  16.594  27.043  13.060
15468W        W87084  31.916  31.934   2.327
15469W        W87085  16.402  22.038   2.370
15470W        W87086  44.920  39.263   0.892
15471W        W87087  41.290   5.239   0.692
15472W        W87088   4.606  14.047  14.387
15473W        W87089  28.299  13.460  11.233
15474W        W87090  20.184  14.812  14.492
15475W        W87091  44.958   2.218  10.327
15476W        W87092  23.502   6.906   4.858
15477W        W87093  12.697  22.179  11.516
15478W        W87094  19.260   3.752  13.050
15479W        W87095  40.881   4.722  11.327
15480W        W87096  40.186  38.853   3.933
15481W        W87097  16.826  34.957   0.017
15482W        W87098  39.913  18.976  12.689
15483W        W87099  39.805  10.590  10.699
15484W        W87100  15.660  31.665   3.924
15485W        W87101  37.076  29.493  11.669
15486W        W87102  42.266  20.015  11.194
15487W        W87103   1.818  14.820  13.530
15488W        W87104   0.319  39.238  14.226
15489W        W87105   9.418  14.065  12.611
15490W        W87106  35.694  23.737   1.362
15491W        W87107   8.556  37.438   4.155
15492W        W87108  18.618  31.140   0.604
15493W        W87109  15.765  26.240   2.813
15494W        W87110  24.825  31.934   2.350
15495W        W87111  30.181  24.186   4.275
15496W        W87112  15.068  31.990  10.581
15497W        W87113  15.009  25.083  13.344
15498W        W87114  14.051  41.749   4.316
15499W        W87115   3.397  10.616   1.534
15500W        W87116   5.782  22.457   3.662
15501W        W87117  12.351   5.474  13.333
15502W        W87118  13.577  41.485  14.273
15503W        W87119  35.022  44.852  11.333
15504W        W87120  36.317  12.908   1.257
15505W        W87121  39.894  34.787   2.188
15506W        W87122  25.181  24.046  11.282
15507W        W87123  11.380  12.056   3.665
15508W        W87124  27.565  10.237  14.047
15509W        W87125  37.936  15.259   3.807
15510W        W87126  23.406  31.445  13.977
15511W        W87127   0.727   5.916   2.759
15512W        W87128   7.371  24.631   4.099
15513W        W87129   7.359   6.241   1.875
15514W        W87130  31.029  30.913   4.355
15515W        W87131  24.573  36.655   2.397
15516W        W87132  14.269  18.484  14.918
15517W        W87133  38.053   5.678  10.719
15518W        W87134  18.522  26.541  14.330
15519W        W87135   6.968  44.547   1.987
15520W        W87136  29.250  27.480   1.842
15521W        W87137   1.916  32.094  11.986
15522W        W87138  35.827  21.196   0.068
15523W        W87139   9.068  37.400   4.254
15524W        W87140  33.126  22.839  14.009
15525W        W87141   1.498   2.259  13.721
15526W        W87142  18.859  25.256  11.058
15527W        W87143  37.877   8.784  13.784
15528W        W87144  24.327  35.395   0.060
15529W        W87145  23.753   4.462  11.123
15530W        W87146  18.306  15.228  14.806
15531W        W87147  23.915  30.862   2.793
15532W        W87148  24.084  37.843  13.634
15533W        W87149  21.231   2.799  12.829
15534W        W87150  36.535   0.218  11.891
15535W        W87151  33.566  43.534   2.792
15536W        W87152  43.424  33.044  13.962
15537W        W87153  25.383  12.651   4.338
15538W        W87154   4.718  34.577  14.326
15539W        W87155  14.675  44.408   3.767
15540W        W87156  14.299  38.038   1.311
15541W        W87157   7.780  18.377  10.243
15542W        W87158  11.021  37.713   3.144
15543W        W87159   1.018  22.966   5.147
15544W        W87160  20.487   1.566   2.138
15545W        W87161  33.108  29.709  11.185
15546W        W87162   4.896  21.644   3.093
15547W        W87163  15.678   8.511   1.018
15548W        W87164  16.174   5.836   5.660
15549W        W87165   2.967  36.059  13.325
15550W        W87166  26.157  32.014   1.287
15551W        W87167  11.874   4.731   4.443
15552W        W87168  42.283  26.732  11.311
15553W        W87169  32.104   2.906   2.258
15554W        W87170   3.877  16.597  10.891
15555W        W87171  39.813   5.967   2.681
15556W        W87172  37.480  28.507   4.823
15557W        W87173  38.554   2.493   0.310
15558W        W87174   3.006  25.524  14.197
15559W        W87175  37.825   7.608   4.617
15560W        W87176  31.633   8.301   1.008
15561W        W87177  28.688  37.541   3.877
15562W        W87178  39.487   8.437  12.067
15563W        W87179   6.258  33.320   0.340
15564W        W87180   6.777  27.680  13.575
15565W        W87181  41.563  17.080  11.660
15566W        W87182  41.289  35.021  11.866
15567W        W87183  37.153  33.932  12.468
15568W        W87184  32.909  15.426  14.340
15569W        W87185   2.176  25.773  14.110
15570W        W87186  39.585  19.264  11.075
15571W        W87187   8.749  23.638   0.220
15572W        W87188  40.765  40.421  14.981
15573W        W87189  19.496  30.120  12.012
15574W        W87190  37.897   8.883   1.684
15575W        W87191  34.558  21.525   4.531
15576W        W87192  43.934   3.189   0.990
15577W        W87193  38.556  20.233   1.418
15578W        W87194  42.113  26.631  13.072
15579W        W87195  23.667  35.097   1.748
15580W        W87196  23.990  44.083   3.800
15581W        W87197  44.266  42.934   4.935
15582W        W87198  14.333  40.413   1.903
15583W        W87199  24.505  39.561   0.999
15584W        W87200  28.628   9.971   0.271
15585W        W87201   9.487  23.035  14.000
15586W        W87202  15.607  15.685   0.104
15587W        W87203  15.799  15.231   3.754
15588W        W87204  20.451   6.330   4.198
15589W        W87205  14.291   1.351  14.400
15590W        W87206  43.597   0.063   0.307
15591W        W87207   1.979  43.263  14.890
15592W        W87208  13.034  30.383  10.295
15593W        W87209  40.952  18.065   0.961
15594W        W87210   0.881  27.665  10.618
15595W        W87211  23.982  18.226   0.741
15596W        W87212  36.815  28.931  10.589
15597W        W87213  36.492  22.603   0.041
15598W        W87214  32.029  20.004  13.900
15599W        W87215  19.165  28.909   1.793
15600W        W87216  15.069  12.138  11.517
15601W        W87217  19.701  12.155  14.991
15602W        W87218   5.811  44.820   3.221
15603W        W87219  24.204  21.165  14.882
15604W        W87220  31.773  21.812  11.626
15605W        W87221  14.395  15.643  13.192
15606W        W87222   2.445  26.149  13.111
15607W        W87223  34.446  26.310   3.979
15608W        W87224  21.591  15.775  13.002
15609W        W87225   0.212   8.726   4.141
15610W        W87226  39.136  16.202  11.822
15611W        W87227  38.582   9.211  12.143
15612W        W87228  18.830  40.035   4.317
15613W        W87229  37.849  13.943   5.212
15614W        W87230  25.571   2.833   0.405
15615W        W87231  24.047  27.097   4.523
15616W        W87232  19.463   8.271   1.985
15617W        W87233  44.826  37.733   3.462
15618W        W87234   8.280  26.519  11.625
15619W        W87235   3.347  40.290  14.047
15620W        W87236   5.899  35.951   4.694
15621W        W87237  22.256  24.576   3.309
15622W        W87238  31.468   1.560   5.053
15623W        W87239  40.309  14.650  14.825
15624W        W87240  24.234   4.816  11.211
15625W        W87241  18.296  43.497  13.472
15626W        W87242  27.639  12.791   1.953
15627W        W87243  36.111  17.297   2.848
15628W        W87244  10.474  23.128   0.883
15629W        W87245  10.085  40.523   3.191
15630W        W87246   4.387  36.915   2.127
15631W        W87247  34.197  22.631   3.058
15632W        W87248   2.488   3.464  10.756
15633W        W87249  36.166  19.752  12.828
15634W        W87250   0.044   9.766  12.772
15635W        W87251  22.096   8.115   4.715
15636W        W87252  44.890  23.915   2.122
15637W        W87253  32.373  13.057  11.066
15638W        W87254  44.045  43.910   1.707
15639W        W87255  35.063  22.598   0.336
15640W        W87256  26.285  11.747  13.850
15641W        W87257  15.016  21.253  12.055
15642W        W87258  17.300   1.407   3.267
15643W        W87259   9.579  11.253   3.031
15644W        W87260  11.883  30.109   3.314
15645W        W87261   8.840  14.659  12.452
15646W        W87262  43.136  20.575  12.972
15647W        W87263   4.366  42.349   0.586
15648W        W87264  39.772  36.111  11.115
15649W        W87265  10.624  44.277   2.822
15650W        W87266  34.886  12.193   2.733
15651W        W87267  38.090   4.909  11.220
15652W        W87268  30.135  23.314   3.333
15653W        W87269  25.669  28.456  14.008
15654W        W87270  34.500  14.699   4.621
15655W        W87271  13.719  18.957   5.076
15656W        W87272   8.868   6.451   2.640
15657W        W87273  28.655  34.104  12.387
15658W        W87274  15.764   1.013   4.901
15659W        W87275  13.245  24.387  13.449
15660W        W87276  21.124  20.028   4.470
15661W        W87277  30.177  27.160   4.413
15662W        W87278   9.970   9.407  13.070
15663W        W87279  40.603  25.864   4.282
15664W        W87280  35.567  30.631   2.176
15665W        W87281  18.804  30.369   3.914
15666W        W87282   1.362  18.074   2.687
15667W        W87283   9.490  36.907   3.358
15668W        W87284  24.435  14.781  14.413
15669W        W87285  22.258  16.099  12.009
15670W        W87286  32.208   9.247   3.207
15671W        W87287  31.105  28.383  12.911
15672W        W87288   9.308  24.502  11.125
15673W        W87289  20.589  44.452   0.448
15674W        W87290  25.071  17.847  11.634
15675W        W87291  24.893  34.484   1.469
15676W        W87292  29.055   5.249   1.706
15677W        W87293  26.697   4.713  10.487
15678W        W87294   3.509  33.138  11.052
15679W        W87295  22.155  34.415   0.471
15680W        W87296  19.213  36.434   4.618
15681W        W87297  14.571  23.155   4.182
15682W        W87298  36.019  18.042   3.128
15683W        W87299  11.938  25.943   4.111
15684W        W87300  24.793  19.024  12.011
15685W        W87301   3.866  35.024   0.485
15686W        W87302  26.249  18.330  13.865
15687W        W87303  39.929  38.590   4.390
15688W        W87304  30.250  20.584  12.568
15689W        W87305  10.104  22.534  10.735
15690W        W87306   3.921  12.782  13.552
15691W        W87307   4.436  30.319  14.363
15692W        W87308  13.833  35.330   5.192
15693W        W87309  17.040  18.344   1.163
15694W        W87310  25.291  32.390   4.181
15695W        W87311  27.070  19.176   0.684
15696W        W87312  14.049  11.322  11.609
15697W        W87313  12.825  10.633  12.856
15698W        W87314  13.273  32.089  12.204
15699W        W87315   6.275  31.428   1.172
15700W        W87316  35.594  34.895  10.771
15701W        W87317  39.868   6.979   1.713
15702W        W87318  22.895  36.954   3.684
15703W        W87319   5.876   2.997   0.033
15704W        W87320  34.090  35.168  10.647
15705W        W87321  16.846  25.154   2.370
15706W        W87322   3.297  44.941  13.535
15707W        W87323  40.874  24.858  13.954
15708W        W87324  22.734   3.356   0.370
15709W        W87325  33.555  36.000  11.033
15710W        W87326  29.144   6.145  14.207
15711W        W87327  29.399  12.682  10.280
15712W        W87328  44.332  25.637  14.944
15713W        W87329  17.343  17.633   9.708
15714W        W87330   0.737   1.977   1.847
15715W        W87331   1.579  37.764   1.643
15716W        W87332  14.870  40.988   1.468
15717W        W87333  44.332  31.899  11.923
15718W        W87334  34.329  37.176  13.069
15719W        W87335  11.771  18.059  11.241
15720W        W87336  11.266  27.884   3.340
15721W        W87337  14.367  26.926  13.908
15722W        W87338  29.556  22.203   2.893
15723W        W87339  28.587  16.251  12.995
15724W        W87340  32.693  29.483  13.530
15725W        W87341  12.888  23.754  11.514
15726W        W87342   7.911  44.850  14.612
15727W        W87343  26.974  41.764  11.598
15728W        W87344  22.095  18.463  13.470
15729W        W87345  28.128  18.062   2.084
15730W        W87346  20.306  28.026  13.078
15731W        W87347  33.077  44.987   0.435
15732W        W87348  32.604  42.789  13.007
15733W        W87349   1.817   1.728  11.554
15734W        W87350  36.352  34.534   2.449
15735W        W87351  14.586  43.262  14.125
15736W        W87352   9.874  20.897  12.014
15737W        W87353   3.225   3.443  14.554
15738W        W87354  11.454  24.940  11.873
15739W        W87355   1.084  19.103  13.922
15740W        W87356  31.065  34.970   3.706
15741W        W87357  39.859  24.492  10.739
15742W        W87358   4.164  43.113  13.425
15743W        W87359  27.901  40.587  13.060
15744W        W87360  22.255   3.868  11.128
15745W        W87361  13.103  29.516   1.728
15746W        W87362  43.549  11.838  11.757
15747W        W87363  17.579  38.816  14.462
15748W        W87364  13.847   8.343  13.484
15749W        W87365  13.878   5.403   3.465
15750W        W87366   8.247  39.436   2.566
15751W        W87367   7.668  25.238   1.321
15752W        W87368  31.073  25.089   2.749
15753W        W87369  32.165  41.111  11.055
15754W        W87370  17.041  26.862   1.000
15755W        W87371   6.457  37.451   0.029
15756W        W87372  10.447  36.109  11.195
15757W        W87373  38.330  25.197  13.408
15758W        W87374  44.776   2.390   2.551
15759W        W87375  38.364  44.864   2.451
15760W        W87376  23.986  31.105   1.394
15761W        W87377  29.510  21.899  11.885
15762W        W87378  20.220  20.824  11.071
15763W        W87379  28.002   8.626  12.959
15764W        W87380  30.665  11.081  11.118
15765W        W87381  28.038  31.040   3.469
15766W        W87382  25.321  40.486  10.697
15767W        W87383  32.522   0.896   1.275
15768W        W87384   1.317  15.964   1.146
15769W        W87385  43.526   0.509  13.713
15770W        W87386  37.832  40.115   4.714
15771W        W87387   0.490  20.797  11.489
15772W        W87388  12.562  43.472   1.858
15773W        W87389  34.112  10.006   2.955
15774W        W87390  27.430  32.405  12.000
15775W        W87391   8.140  13.563  11.612
15776W        W87392   6.220  21.682  11.238
15777W        W87393  29.109  31.404  11.835
15778W        W87394   1.377  29.411   2.191
15779W        W87395   5.842  27.143  13.318
15780W        W87396  24.694  21.992   3.403
15781W        W87397   8.671  15.282   1.430
15782W        W87398  18.557  18.653   2.067
15783W        W87399  44.972  25.571  12.926
15784W        W87400  17.030  19.179  13.817
15785W        W87401  40.318  33.672   4.837
15786W        W87402  15.537   0.180   1.279
15787W        W87403  18.383  38.483   0.886
15788W        W87404  26.810  24.992   2.838
15789W        W87405  40.298  30.919  14.742
15790W        W87406  33.605   5.201   3.263
15791W        W87407  15.025  32.929   2.865
15792W        W87408  25.509  32.762   2.675
15793W        W87409  10.708  20.139  14.101
15794W        W87410   2.434  40.084  12.642
15795W        W87411   0.316  11.106  12.963
15796W        W87412  30.845   2.223  11.509
15797W        W87413  37.833  11.186   2.181
15798W        W87414  11.524  27.952  13.682
15799W        W87415  38.812  40.627   2.868
15800W        W87416  14.779  25.961  12.560
15801W        W87417  43.672  41.226  13.946
15802W        W87418  40.667  22.685   3.034
15803W        W87419  27.460   0.989  14.051
15804W        W87420  41.919  29.939   0.522
15805W        W87421  25.186  10.858  12.175
15806W        W87422  24.931  10.630  13.129
15807W        W87423  23.603  29.583   3.895
15808W        W87424  43.566   7.284  14.004
15809W        W87425   9.903  33.953  11.189
15810W        W87426  27.646   8.135   2.632
15811W        W87427  12.581  19.082   1.303
15812W        W87428  15.294  33.411  11.709
15813W        W87429  24.941  21.665  13.409
15814W        W87430  34.625   9.269   3.680
15815W        W87431  26.202   4.780  10.508
15816W        W87432  13.229  11.886   2.544
15817W        W87433   0.648  19.685   3.788
15818W        W87434  34.799  25.550  14.244
15819W        W87435   3.881  14.834   4.183
15820W        W87436  13.101  20.708  14.509
15821W        W87437   6.602  37.637  12.336
15822W        W87438  31.505   3.429   3.873
15823W        W87439   8.745  40.763   0.601
15824W        W87440  14.303   3.304  14.431
15825W        W87441  11.893  41.943  12.465
15826W        W87442  19.022   3.302  13.073
15827W        W87443  36.901  24.640  12.823
15828W        W87444  21.065  37.885   0.543
15829W        W87445  23.105  43.579   1.415
15830W        W87446  26.309  42.324  10.356
15831W        W87447  29.598   4.800   4.710
15832W        W87448   6.982  43.352   0.420
15833W        W87449   6.925  14.611  13.053
15834W        W87450  16.163   0.955   1.881
15835W        W87451  22.990  32.947   2.138
15836W        W87452   0.566  38.264  14.500
15837W        W87453  38.591   2.890   4.359
15838W        W87454  25.016  14.593   0.211
15839W        W87455  14.710  21.314   4.663
15840W        W87456  14.578  18.014  10.229
15841W        W87457  37.329  37.646   3.229
15842W        W87458  16.241  26.217  12.863
15843W        W87459   0.215  30.140  11.931
15844W        W87460  25.358   6.858  12.926
15845W        W87461  38.030   9.308  14.972
15846W        W87462  35.181   7.490   2.038
15847W        W87463  33.809  40.434   0.367
15848W        W87464  27.171  26.439   2.904
15849W        W87465  30.650   7.072   3.468
15850W        W87466  40.541  12.705   2.640
15851W        W87467   1.933  10.734   4.100
15852W        W87468  24.682  20.939  14.918
15853W        W87469  44.214  42.324   3.686
15854W        W87470  24.982  17.764   2.868
15855W        W87471   5.123  43.988   3.725
15856W        W87472   6.869  43.312   2.158
15857W        W87473  25.069  15.370   1.473
15858W        W87474  24.583  34.082   1.392
15859W        W87475  14.144  33.868   0.783
15860W        W87476  14.798  30.651   2.351
15861W        W87477   0.073   8.711  11.205
15862W        W87478   3.536   6.298  14.397
15863W        W87479   0.907  32.511  13.835
15864W        W87480   6.109   2.685   3.401
15865W        W87481  15.564  30.192   0.293
15866W        W87482  40.774  30.540  12.996
15867W        W87483  25.719  30.109  13.991
15868W        W87484  40.385  14.239  11.121
15869W        W87485  12.320  17.601   4.159
15870W        W87486  17.714   2.412  12.952
15871W        W87487  12.033  14.411   4.170
15872W        W87488  21.501   5.151   4.099
15873W        W87489  41.244  12.146  11.056
15874W        W87490  24.996  43.421  11.899
15875W        W87491  31.674  39.306  12.952
15876W        W87492   7.845   6.036   2.613
15877W        W87493  21.578  21.488  13.548
15878W        W87494  36.102  11.463   1.603
15879W        W87495   8.852  32.588   2.011
15880W        W87496  19.157  25.199  13.303
15881W        W87497  10.645  20.105   2.739
15882W        W87498  31.394  40.374   4.212
15883W        W87499  37.469  25.521   3.160
15884W        W87500   5.616  42.871  10.125
15885W        W87501  30.873  10.834  12.970
15886W        W87502  10.683  25.915  12.619
15887W        W87503  16.871  14.739   2.238
15888W        W87504  36.265   2.248   1.865
15889W        W87505   9.814  16.193   2.685
15890W        W87506  10.377  12.102   2.640
15891W        W87507  10.423  36.477  11.653
15892W        W87508  40.592  38.671  12.424
15893W        W87509  34.895  29.106  13.861
15894W        W87510  28.405  22.320  11.021
15895W        W87511  13.895  14.638   0.057
15896W        W87512   4.327  38.135   2.778
15897W        W87513  32.054  35.402   1.809
15898W        W87514  43.859  18.610  14.779
15899W        W87515  10.735  38.970  13.380
15900W        W87516  14.785  32.503   0.890
15901W        W87517   7.916   0.127   1.320
15902W        W87518  41.923  42.484   0.703
15903W        W87519  27.984  40.856   0.566
15904W        W87520  35.389  24.188   4.094
15905W        W87521  36.220  38.118   0.189
15906W        W87522   7.876  22.759   3.758
15907W        W87523  19.554  30.656   4.565
15908W        W87524   6.839  13.845  10.465
15909W        W87525  32.511  27.396   1.308
15910W        W87526   1.237  25.522  12.089
15911W        W87527   5.857   8.587  12.558
15912W        W87528  15.568  15.346   9.826
15913W        W87529  12.310   4.702  10.586
15914W        W87530  35.189  20.329   0.351
15915W        W87531  20.237   2.292   4.710
15916W        W87532  28.698   2.349   1.189
15917W        W87533  42.006   3.709  14.773
15918W        W87534  20.127  17.854   2.872
15919W        W87535   3.295  30.059  14.527
15920W        W87536   0.224  37.517  13.858
15921W        W87537  43.332  32.758   2.874
15922W        W87538  34.248  16.907  13.184
15923W        W87539  40.716  18.788   4.332
15924W        W87540  13.274  26.732   2.433
15925W        W87541  22.218  21.616  12.689
15926W        W87542   1.246  14.689   3.123
15927W        W87543  10.204  15.767   4.732
15928W        W87544  36.426  23.920  13.028
15929W        W87545  23.387  31.396   0.381
15930W        W87546  22.955  42.032   0.309
15931W        W87547  21.789   3.247  11.702
15932W        W87548  41.296  36.126   4.455
15933W        W87549  27.155  29.101   2.464
15934W        W87550  10.055   9.137   1.038
15935W        W87551   8.662  11.117   2.529
15936W        W87552   7.207  14.803   3.640
15937W        W87553   0.696   8.542   4.174
15938W        W87554   3.453  10.805   4.830
15939W        W87555   3.886  37.774  11.237
15940W        W87556   2.463  21.672  10.713
15941W        W87557  12.225  10.159   2.518
15942W        W87558  41.394   2.849   0.921
15943W        W87559  21.191  35.749   1.867
15944W        W87560  14.781  25.112  10.784
15945W        W87561  11.748  32.682  14.749
15946W        W87562   7.617  18.413   5.022
15947W        W87563   3.499  12.404  10.746
15948W        W87564  10.522  21.048  12.622
15949W        W87565  10.734  33.117   1.817
15950W        W87566  27.069   4.036   2.143
15951W        W87567  34.444   6.805  14.123
15952W        W87568  22.607  18.265   4.802
15953W        W87569  42.793  25.082   4.411
15954W        W87570  32.536   5.420   2.767
15955W        W87571  22.091  26.431  14.453
15956W        W87572  35.331  35.780  11.488
15957W        W87573  16.665   4.460   4.153
15958W        W87574   3.663  16.594  14.374
15959W        W87575  21.075  13.244   2.930
15960W        W87576  34.439   5.849   3.273
15961W        W87577  23.326  14.311   1.834
15962W        W87578  20.238   3.718   1.799
15963W        W87579  39.351  38.802  14.781
15964W        W87580  11.727  18.001   2.628
15965W        W87581  10.667  43.673   4.566
15966W        W87582  14.652  28.522   3.184
15967W        W87583  30.666  15.720  14.990
15968W        W87584  18.524  30.468  11.262
15969W        W87585   3.003  15.327   3.234
15970W        W87586  15.240  30.471   2.777
15971W        W87587  21.700   9.095   1.889
15972W        W87588  12.914  14.140  14.371
15973W        W87589   2.240  19.614  11.074
15974W        W87590   7.242  27.655  12.587
15975W        W87591   8.491   9.801  14.939
15976W        W87592  18.134  20.001   1.778
15977W        W87593  38.009  44.545   4.063
15978W        W87594  18.687  42.212  11.141
15979W        W87595  11.113   0.384   0.326
15980W        W87596  15.177   4.471   4.680
15981W        W87597  42.929  42.465  10.648
15982W        W87598  24.075  16.578   2.241
15983W        W87599  22.132   0.085   1.358
15984W        W87600  10.331  10.814  10.745
15985W        W87601  31.973  19.729   3.857
15986W        W87602  19.028  27.887   1.730
15987W        W87603  11.884  17.249  11.106
15988W        W87604  32.663  18.396  12.835
15989W        W87605   4.726  11.180   0.713
15990W        W87606  23.014  32.840  13.336
15991W        W87607   1.414  11.024  14.810
15992W        W87608   9.155  12.118   2.233
15993W        W87609   9.172  34.898  13.357
15994W        W87610   0.082  19.272  14.914
15995W        W87611  34.892   2.739  13.304
15996W        W87612   0.757  12.587   0.292
15997W        W87613  44.713   6.351  14.870
15998W        W87614  22.521  41.068  12.867
15999W        W87615  36.094  10.677   0.481
16000W        W87616  29.122  29.409  12.958
16001W        W87617  12.174  40.821   0.972
16002W        W87618   6.614  34.770   0.327
16003W        W87619  16.154   0.730   2.366
16004W        W87620  26.618  40.114  14.280
16005W        W87621  22.638  34.223   0.405
16006W        W87622  19.817   4.150   4.074
16007W        W87623   8.807  35.897   2.360
16008W        W87624  29.647   3.356  13.016
16009W        W87625  40.677  15.805  14.994
16010W        W87626  37.595  31.609  11.678
16011W        W87627  33.862  40.703  11.660
16012W        W87628  20.705  20.026  12.483
16013W        W87629  31.637   4.805   0.159
16014W        W87630  18.128  18.759   0.289
16015W        W87631  42.973  43.255  11.519
16016W        W87632  39.000  23.193  13.897
16017W        W87633  33.085  20.799  11.421
16018W        W87634  19.398  28.261   3.657
16019W        W87635  19.212  20.306   0.327
16020W        W87636  31.022  15.997   2.892
16021W        W87637  39.150  11.105  10.302
16022W        W87638  30.549  40.484   2.962
16023W        W87639  12.294  34.709  14.367
16024W        W87640   8.439   3.875  13.599
16025W        W87641  11.755  43.113   3.752
16026W        W87642  34.460  28.238   4.154
16027W        W87643  18.062   2.843  13.515
16028W        W87644   0.802  29.652   2.183
16029W        W87645  43.643   5.902   0.393
16030W        W87646  19.191  35.627  14.296
16031W        W87647  24.786  32.400   0.290
16032W        W87648  14.367  25.339   1.255
16033W        W87649  20.997   9.650   0.295
16034W        W87650  19.613   4.950  11.719
16035W        W87651   1.053  28.713   4.159
16036W        W87652  23.429   3.342   4.986
16037W        W87653   5.561   5.077  13.478
16038W        W87654  42.236  12.332   2.641
16039W        W87655  13.672  31.143   2.209
16040W        W87656  29.534   6.277   3.421
16041W        W87657  23.284  27.939   0.952
16042W        W87658  11.743   2.073  13.302
16043W        W87659   9.777  17.772   4.288
16044W        W87660  37.514  33.543  11.713
16045W        W87661  29.153  29.586  13.616
16046W        W87662  20.337  15.144  12.055
16047W        W87663  44.941  41.836   0.393
16048W        W87664   7.860  24.636  11.444
16049W        W87665  31.092  19.153   1.636
16050W        W87666  40.579   5.667  11.097
16051W        W87667   2.525   4.916   1.671
16052W        W87668  30.519   4.873   1.375
16053W        W87669  38.865  20.723   3.373
16054W        W87670  28.452   3.859   0.072
16055W        W87671  29.700  22.530  14.930
16056W        W87672  15.565  10.180   2.727
16057W        W87673  11.139  23.523  11.789
16058W        W87674  15.789  19.610  13.799
16059W        W87675   6.904  34.452  11.476
16060W        W87676  20.185  39.466  11.171
16061W        W87677  18.335   7.828   1.828
16062W        W87678  26.029  13.340   4.874
16063W        W87679  24.054  11.162  12.866
16064W        W87680  16.192  29.013   4.045
16065W        W87681   3.507   1.830  10.514
16066W        W87682  30.320  25.673   2.825
16067W        W87683   6.420   7.879  14.011
16068W        W87684   0.022  34.917   4.316
16069W        W87685  20.607   1.534   2.641
16070W        W87686  33.627   2.454  11.701
16071W        W87687   2.503  28.921  10.198
16072W        W87688  26.633  41.797   1.926
16073W        W87689   7.751  20.819  13.556
16074W        W87690  25.636  34.933   1.933
16075W        W87691  38.247  28.129   3.399
16076W        W87692   3.346  39.778  13.981
16077W        W87693  22.490  12.782   1.912
16078W        W87694  25.206  27.122   2.200
16079W        W87695  42.451  16.249   1.006
16080W        W87696  44.363  39.446  14.780
16081W        W87697  31.788  18.257   2.681
16082W        W87698  32.262  33.236  10.994
16083W        W87699  21.756  23.650  14.321
16084W        W87700   1.022  14.700   3.634
16085W        W87701  25.131  27.475  14.351
16086W        W87702  28.694   1.363  11.409
16087W        W87703  23.651  13.799   4.471
16088W        W87704   4.602   8.422  11.183
16089W        W87705  31.820  18.534   3.181
16090W        W87706  27.161  21.862  14.991
16091W        W87707  28.366  36.077   0.695
16092W        W87708  21.328  38.657   0.986
16093W        W87709  44.551  16.403   2.181
16094W        W87710  11.581  22.434   2.364
16095W        W87711  15.627  41.358   4.785
16096W        W87712  25.984  22.301   3.695
16097W        W87713  14.650  27.692   3.822
16098W        W87714  28.039  42.054   1.380
16099W        W87715  11.345  27.432  11.091
16100W        W87716  12.226  27.084   4.606
16101W        W87717  16.721   1.353   4.581
16102W        W87718  15.710  32.099  11.779
16103W        W87719   5.480  20.569  14.803
16104W        W87720  22.487  40.982   1.507
16105W        W87721   0.736   2.242  13.162
16106W        W87722   0.593  27.058   3.871
16107W        W87723  17.549  35.788  11.592
16108W        W87724  18.069   5.669  12.522
16109W        W87725  17.485  32.598   4.529
16110W        W87726  17.348  10.774  12.952
16111W        W87727  33.163   6.984   2.311
16112W        W87728  42.302  17.157   4.127
16113W        W87729  25.979  32.499   4.100
16114W        W87730  19.558  10.849  12.361
16115W        W87731  39.789  28.232   3.002
16116W        W87732   4.326  14.922   0.819
16117W        W87733  10.148  36.287  12.052
16118W        W87734  31.151  28.582   1.244
16119W        W87735  43.910   7.720  12.730
16120W        W87736  42.448   9.656  14.399
16121W        W87737  31.576  40.039  13.457
16122W        W87738  38.001  39.872  11.313
16123W        W87739  19.778  27.163  14.371
16124W        W87740  20.471   5.275  11.486
16125W        W87741  19.175  33.370   0.587
16126W        W87742   7.225  26.219   2.151
16127W        W87743  27.653   5.652   4.533
16128W        W87744  23.122  32.124  10.975
16129W        W87745  43.541  12.368   4.623
16130W        W87746  26.226  37.119   1.440
16131W        W87747  33.285  21.359   1.754
16132W        W87748   2.719  40.398  11.119
16133W        W87749   6.390   3.061  11.079
16134W        W87750   3.327  36.693  14.836
16135W        W87751  11.156  26.131  12.683
16136W        W87752  42.554   2.376   1.035
16137W        W87753  29.545  29.719   4.653
16138W        W87754  15.134  12.107  14.230
16139W        W87755   6.719  14.648   2.742
16140W        W87756  22.121  12.057   3.016
16141W        W87757  15.134  11.142   2.838
16142W        W87758  33.933  21.496  12.331
16143W        W87759  43.026  28.476  10.822
16144W        W87760   7.270   1.741  13.469
16145W        W87761  14.165  14.041  14.466
16146W        W87762  40.930  19.776   3.261
16147W        W87763  41.767  24.081   3.749
16148W        W87764  23.690  34.559  11.523
16149W        W87765   2.135   9.171  12.241
16150W        W87766  41.585  35.324  11.001
16151W        W87767   0.908  22.661  14.770
16152W        W87768  16.044  42.047   3.670
16153W        W87769  32.404  32.000   4.109
16154W        W87770   6.124  25.454  12.414
16155W        W87771   4.747  38.805   0.895
16156W        W87772  37.956  40.798   3.798
16157W        W87773  31.135   4.154   1.876
16158W        W87774  35.431  42.485  11.709
16159W        W87775  44.800  36.024   0.721
16160W        W87776   0.229  26.534   3.142
16161W        W87777   5.717  22.805  14.526
16162W        W87778  32.594  37.322  14.488
16163W        W87779  32.282  14.181  10.391
16164W        W87780  16.590  24.093  11.040
16165W        W87781  38.190  20.615  13.826
16166W        W87782  31.928  44.199  13.279
16167W        W87783  12.794   3.054  12.397
16168W        W87784  20.060  28.969   2.752
16169W        W87785  11.322  31.060  14.482
16170W        W87786  43.870  13.179   0.572
16171W        W87787   9.354  18.248   1.891
16172W        W87788  35.812  14.335  11.496
16173W        W87789  19.545  12.296  11.990
16174W        W87790  22.540  12.809  10.338
16175W        W87791   3.763  21.285   3.589
16176W        W87792  30.582  39.760  11.561
16177W        W87793  13.642  13.206  12.919
16178W        W87794  41.745   3.950   0.813
16179W        W87795  21.085  20.997   4.433
16180W        W87796  27.898   7.792   1.508
16181W        W87797  10.933  34.557   4.633
16182W        W87798  41.605  38.793   4.806
16183W        W87799  18.759  19.327  14.837
16184W        W87800   9.077  16.703  11.977
16185W        W87801  42.439   4.460  11.038
16186W        W87802  44.871  34.336  12.912
16187W        W87803  14.284  29.667   0.702
16188W        W87804   1.752  14.104  14.368
16189W        W87805  23.876  40.349  14.016
16190W        W87806  25.507  14.254   2.250
16191W        W87807   8.137  17.799   0.840
16192W        W87808  21.666  26.048   0.967
16193W        W87809  44.503  20.814   4.150
16194W        W87810  44.256  12.109  14.338
16195W        W87811  26.736  19.553   1.230
16196W        W87812  22.017   6.616  13.341
16197W        W87813   8.596  11.924   2.735
16198W        W87814  35.070  25.463  11.550
16199W        W87815  10.637  11.378   0.566
16200W        W87816  39.543  42.428   3.628
16201W        W87817  31.599   6.334   4.210
16202W        W87818  39.366  13.517   2.635
16203W        W87819  17.505  16.338  13.479
16204W        W87820  28.994  24.697   4.922
16205W        W87821  13.148  43.886  10.810
16206W        W87822   7.295  25.862   3.102
16207W        W87823  24.771   5.794   3.325
16208W        W87824   7.838  14.492   2.241
16209W        W87825  13.678  29.030  14.169
16210W        W87826  13.812  11.201  13.533
16211W        W87827   8.130  23.112  14.529
16212W        W87828  13.184   4.914   1.428
16213W        W87829   5.428  12.845  10.716
16214W        W87830   7.442  19.695  11.574
16215W        W87831  19.048  31.397   4.677
16216W        W87832   5.084  36.977  12.896
16217W        W87833  18.014  25.907  11.031
16218W        W87834  23.907  29.952   4.566
16219W        W87835  24.638   5.921   0.393
16220W        W87836  15.668   8.167   0.483
16221W        W87837  23.307  12.705   3.215
16222W        W87838  22.646  27.225   4.992
16223W        W87839  13.134  16.262   2.319
16224W        W87840   9.419  10.059  11.078
16225W        W87841  29.070  11.396   2.355
16226W        W87842  15.567  30.575  11.266
16227W        W87843   8.668  25.159  11.028
16228W        W87844   3.889  19.467   4.745
16229W        W87845  10.157  17.176   1.821
16230W        W87846  24.397  26.616  10.691
16231W        W87847   1.056   8.756   0.803
16232W        W87848  33.625   4.667   3.262
16233W        W87849  24.346  21.293  12.039
16234W        W87850   5.863  32.630   1.694
16235W        W87851  44.335  13.726  10.923
16236W        W87852  10.267  17.764  12.603
16237W        W87853  39.027  22.675  11.725
16238W        W87854  13.114  32.091   3.707
16239W        W87855   9.595  31.063  13.474
16240W        W87856  26.770  32.895   2.273
16241W        W87857  33.464   4.943   2.838
16242W        W87858  15.138  35.642   2.256
16243W        W87859   9.240  23.746   4.603
16244W        W87860  12.688  36.688  10.509
16245W        W87861  37.392  34.122   3.314
16246W        W87862  24.108  22.526   0.931
16247W        W87863  31.441   2.881   2.658
16248W        W87864  34.504   5.270   2.405
16249W        W87865  44.449  10.209   3.249
16250W        W87866  29.657  17.862  13.557
16251W        W87867  23.660  21.111  14.885
16252W        W87868  41.900  40.309  13.120
16253W        W87869  39.743   1.881  12.136
16254W        W87870  37.356   3.962   2.643
16255W        W87871  10.601  34.886   4.192
16256W        W87872  21.808  36.849  13.324
16257W        W87873  19.686   8.685  11.890
16258W        W87874  44.785  27.917  12.995
16259W        W87875  40.346  10.741   3.637
16260W        W87876  33.986  36.722  13.945
16261W        W87877  14.855   8.748  13.861
16262W        W87878  22.029  44.528  12.879
16263W        W87879   3.759   2.284  10.476
16264W        W87880  13.649   5.928  13.482
16265W        W87881  42.632  41.533   1.394
16266W        W87882  41.975   0.962  12.037
16267W        W87883   3.278  32.421  14.754
16268W        W87884   0.805  28.193  13.652
16269W        W87885   4.947  14.054  14.794
16270W        W87886  25.637  13.268  14.083
16271W        W87887   5.437  15.731   1.315
16272W        W87888   2.013  12.238  11.548
16273W        W87889  13.879  15.328   2.661
16274W        W87890   1.535   0.433  11.274
16275W        W87891   5.693   5.637   4.126
16276W        W87892  25.616  26.605  11.469
16277W        W87893   0.569  29.339  11.465
16278W        W87894  42.315   8.765   2.028
16279W        W87895  39.335   0.909   1.850
16280W        W87896  38.689  25.531  13.919
16281W        W87897   4.970  20.598  13.962
16282W        W87898  27.949  17.191   2.624
16283W        W87899  33.361  39.436   2.183
16284W        W87900   2.308  16.517   0.290
16285W        W87901  31.176   5.802  11.337
16286W        W87902  14.728  28.640   0.519
16287W        W87903  31.307  25.206   3.719
16288W        W87904  40.809  21.707  11.436
16289W        W87905  40.914   0.294  14.792
16290W        W87906  39.929  38.461  11.168
16291W        W87907  13.399  13.776  14.898
16292W        W87908  21.256  14.650   4.737
16293W        W87909  31.981  33.817   2.495
16294W        W87910  35.653  30.486   1.675
16295W        W87911  27.847  27.058  14.894
16296W        W87912   3.789  40.345   4.762
16297W        W87913  28.195  26.902  10.314
16298W        W87914  43.752  44.304  12.201
16299W        W87915   8.315  31.652  12.044
16300W        W87916  41.103  38.860   4.683
16301W        W87917  19.645  19.635  10.347
16302W        W87918  17.144   2.205  10.770
16303W        W87919  22.301  32.939  13.741
16304W        W87920   7.870  19.486  11.133
16305W        W87921  11.433   1.524   2.006
16306W        W87922   0.957  29.063  12.329
16307W        W87923  38.398  33.966  14.394
16308W        W87924  31.410  25.679  12.615
16309W        W87925   9.381  40.603  13.495
16310W        W87926  31.734  34.498  12.394
16311W        W87927  37.434  14.548   5.069
16312W        W87928   6.125   8.311  14.146
16313W        W87929  31.985  22.397  11.906
16314W        W87930   4.624  26.028   1.806
16315W        W87931  10.216  17.771  14.888
16316W        W87932  30.177   9.916  12.377
16317W        W87933   7.110  40.500   3.743
16318W        W87934   9.812  38.464  12.143
16319W        W87935  32.234   6.805  13.677
16320W        W87936  16.592  36.626  12.864
16321W        W87937   7.363  28.517   1.860
16322W        W87938  43.491  36.334   4.227
16323W        W87939  26.241   0.247  14.844
16324W        W87940   2.654  33.832  11.411
16325W        W87941  15.306  44.851   4.890
16326W        W87942   6.239   4.889  10.746
16327W        W87943  38.136  35.898   2.247
16328W        W87944  42.092  42.906   4.166
16329W        W87945  19.490  37.896  13.984
16330W        W87946  36.416  14.017  10.514
16331W        W87947  40.046   9.823   2.236
16332W        W87948  16.659   0.016  12.098
16333W        W87949   5.423  32.646   4.027
16334W        W87950   4.523  42.307   0.111
16335W        W87951  13.232  39.627   9.907
16336W        W87952  38.204  24.438   0.126
16337W        W87953  41.224  34.909   4.557
16338W        W87954  36.336  14.743  11.327
16339W        W87955  24.667  21.586  11.176
16340W        W87956  24.842  29.769  13.871
16341W        W87957  38.911  11.077  10.737
16342W        W87958  14.800  22.067  14.320
16343W        W87959   0.469  37.908   0.268
16344W        W87960  41.476  25.693   0.494
16345W        W87961  18.185  36.364  13.717
16346W        W87962  37.011  11.002   3.748
16347W        W87963   6.533  32.713   2.119
16348W        W87964  24.403  34.577   1.256
16349W        W87965  32.848   1.690  14.835
16350W        W87966  29.010  39.484  13.305
16351W        W87967  42.854   2.499   3.199
16352W        W87968   4.707  44.172   2.802
16353W        W87969   7.699  24.168   0.308
16354W        W87970  11.842  14.619  12.086
16355W        W87971  19.754  34.603  13.830
16356W        W87972  23.648   9.947  12.096
16357W        W87973  40.886   3.004   2.379
16358W        W87974  19.128  30.981  13.431
16359W        W87975  31.476   0.595   2.675
16360W        W87976  32.880  32.068   4.326
16361W        W87977  18.493  17.802   0.822
16362W        W87978  41.532   2.790  12.955
16363W        W87979  40.466  35.956   5.048
16364W        W87980  37.052  41.037   2.795
16365W        W87981  15.813  24.531  12.415
16366W        W87982  23.650  18.525  14.482
16367W        W87983   9.072   8.437  13.757
16368W        W87984  20.148   3.402   4.998
16369W        W87985  38.813  27.138   1.436
16370W        W87986   8.563  17.233   5.110
16371W        W87987   3.377  32.620  10.970
16372W        W87988  17.240  18.728   4.152
16373W        W87989  23.250  41.942  13.936
16374W        W87990  38.368  19.622   0.762
16375W        W87991  25.139   4.157  11.614
16376W        W87992  16.292  40.762  10.411
16377W        W87993   1.446   6.014   2.415
16378W        W87994   5.814   5.485   0.456
16379W        W87995  22.578   6.723  14.026
16380W        W87996  43.859  31.987  11.508
16381W        W87997  34.616  44.535   1.849
16382W        W87998   8.702  34.810  11.121
16383W        W87999  26.676   4.219   4.847
16384W        W88000   9.836   9.686  10.383
16385W        W88001  23.729  41.875  12.952
16386W        W88002  10.935   2.883  12.077
16387W        W88003  39.690  19.170  11.895
16388W        W88004  15.765  26.639  10.020
16389W        W88005   3.145   9.527  11.515
16390W        W88006   0.423  32.915  11.936
16391W        W88007   3.317  44.047   2.878
16392W        W88008  23.515  13.219  13.151
16393W        W88009  31.115  15.475   3.666
16394W        W88010  20.433  17.287   0.880
16395W        W88011  29.206  23.287   1.766
16396W        W88012   5.888  42.832   4.161
16397W        W88013   0.293  40.145   3.645
16398W        W88014  33.908   6.681  12.342
16399W        W88015  37.482  38.079   3.646
16400W        W88016  39.980  44.867   1.310
16401W        W88017  36.396  33.919   3.156
16402W        W88018  25.902   1.671   1.817
16403W        W88019  12.821  38.460  13.513
16404W        W88020  17.493  33.596   1.917
16405W        W88021  31.367  17.601   3.692
16406W        W88022  34.434   0.393  13.391
16407W        W88023  33.187  41.993   1.242
16408W        W88024  26.105  38.780  11.511
16409W        W88025  32.691  16.545   4.129
16410W        W88026   1.758  29.962  14.389
16411W        W88027  28.498  31.160   2.639
16412W        W88028  11.359   4.412   3.231
16413W        W88029   0.172  39.911  13.394
16414W        W88030  38.259  16.570  14.121
16415W        W88031  23.162  40.445   4.100
16416W        W88032  13.738  38.085  13.954
16417W        W88033   5.960  12.916  10.774
16418W        W88034  43.598  44.059   1.930
16419W        W88035  41.968  35.296   2.294
16420W        W88036   0.176  36.486  12.409
16421W        W88037  43.964  13.391   1.408
16422W        W88038   1.236  22.538   4.952
16423W        W88039  18.960  39.759  10.848
16424W        W88040  34.438   0.641  12.620
16425W        W88041  35.568  10.780  13.823
16426W        W88042  36.944  25.110  12.147
16427W        W88043  43.668  27.263  12.969
16428W        W88044  31.354  40.851  12.533
16429W        W88045  42.224  42.393  13.993
16430W        W88046  23.223  26.952   3.793
16431W        W88047   2.955  19.111  12.408
16432W        W88048  19.744  24.353  13.466
16433W        W88049  21.852  32.514  12.399
16434W        W88050  22.528   5.025  11.208
16435W        W88051  38.507  36.499  14.505
16436W        W88052  13.073   7.162   2.218
16437W        W88053   8.758   6.885  10.600
16438W        W88054   5.415   3.243  12.755
16439W        W88055  43.339  35.212   3.576
16440W        W88056  27.389  11.248   4.105
16441W        W88057   6.903  43.981  13.338
16442W        W88058  37.759   0.248   4.563
16443W        W88059  35.579   1.299  14.850
16444W        W88060  24.970   6.390  11.152
16445W        W88061  30.148  25.766  14.906
16446W        W88062  19.151  44.465  12.478
16447W        W88063  35.659   9.400  12.043
16448W        W88064  32.190  29.766  10.280
16449W        W88065  10.625  12.082  12.915
16450W        W88066  34.251   4.661   1.871
16451W        W88067  12.517  12.825  11.154
16452W        W88068  43.470  34.105  10.306
16453W        W88069  15.466  21.023   2.788
16454W        W88070   4.341  24.705   2.428
16455W        W88071  38.100   6.513  12.476
16456W        W88072   9.290  11.345  14.516
16457W        W88073  30.095   5.912   2.601
16458W        W88074   6.841  41.890  12.353
16459W        W88075  27.978  33.944   4.854
16460W        W88076  14.402  41.587  12.407
16461W        W88077  15.507  18.366   0.502
16462W        W88078  39.896   7.102  11.957
16463W        W88079  29.865  39.968  12.051
16464W        W88080  30.065  10.143  13.713
16465W        W88081   2.733  23.123   0.430
16466W        W88082  33.358   7.830   0.991
16467W        W88083   2.995  34.290  11.438
16468W        W88084  22.492  29.713   0.036
16469W        W88085  37.953  26.775   4.547
16470W        W88086   4.697  43.794  10.194
16471W        W88087  17.779   4.390  10.682
16472W        W88088  35.409  41.878  14.327
16473W        W88089  40.284  36.094   0.498
16474W        W88090  31.331  18.554  14.255
16475W        W88091  19.765   0.717  14.349
16476W        W88092  22.105   9.682  14.168
16477W        W88093  32.899  11.586   0.452
16478W        W88094   8.158  12.661  14.237
16479W        W88095   2.429   9.580   3.362
16480W        W88096  23.401  35.474   2.378
16481W        W88097  22.546  10.079   0.845
16482W        W88098  24.054   3.438   0.918
16483W        W88099   8.223  15.132   2.764
16484W        W88100  10.852  38.459  14.103
16485W        W88101  22.224  42.734   3.153
16486W        W88102  42.924  28.531   0.244
16487W        W88103   5.333  37.500  10.672
16488W        W88104  40.127   6.716  13.794
16489W        W88105  17.158  19.589   1.916
16490W        W88106  26.774  37.664   5.199
16491W        W88107  15.961  37.947   1.827
16492W        W88108  36.439  21.487  12.177
16493W        W88109  40.777  25.988  10.943
16494W        W88110  27.185  27.569   1.895
16495W        W88111  44.925  37.547   2.453
16496W        W88112  23.989   0.835   0.825
16497W        W88113  39.345  32.679  12.510
16498W        W88114  27.429  38.207   0.360
16499W        W88115  35.147  20.212  14.299
16500W        W88116  16.352  17.816   0.318
16501W        W88117   7.572  30.856  13.320
16502W        W88118  42.408  27.765  13.356
16503W        W88119  14.244   0.513   3.180
16504W        W88120  12.883  24.442   1.903
16505W        W88121  34.115   9.879   4.871
16506W        W88122  44.998  30.565  13.423
16507W        W88123  24.475  14.617  10.729
16508W        W88124   6.845  18.478  14.500
16509W        W88125  35.473  26.486  12.698
16510W        W88126  18.182  44.799   3.769
16511W        W88127  20.992  44.926   3.801
16512W        W88128   2.503  30.425  13.088
16513W        W88129  32.102  27.023   2.600
16514W        W88130   0.520  25.176  11.587
16515W        W88131  27.459  12.919   4.149
16516W        W88132  29.193  13.978   3.765
16517W        W88133  34.992  21.228  13.016
16518W        W88134  28.169  32.059   0.228
16519W        W88135  23.227   2.504   3.387
16520W        W88136   4.685  37.085   3.311
16521W        W88137  24.398  29.103  12.191
16522W        W88138  21.262   0.474  13.517
16523W        W88139  37.015   3.858  14.362
16524W        W88140  36.835  24.069  11.482
16525W        W88141  19.395  22.423   1.068
16526W        W88142  16.299  43.458   2.271
16527W        W88143   6.294  12.915   1.538
16528W        W88144  11.113  24.678   3.668
16529W        W88145  23.338  17.542  14.886
16530W        W88146  33.909   9.476   4.510
16531W        W88147  26.571   1.857   3.294
16532W        W88148  41.115   0.418   0.941
16533W        W88149  21.647  41.848   3.161
16534W        W88150  25.551  42.439   4.006
16535W        W88151   6.495  21.688  10.299
16536W        W88152   0.524  29.108   4.606
16537W        W88153   0.515   6.973   2.325
16538W        W88154   2.208  24.129   4.637
16539W        W88155  20.266   0.386  10.977
16540W        W88156   2.496  20.674   0.752
16541W        W88157  13.396  14.269  11.088
16542W        W88158  26.925  23.498  14.860
16543W        W88159  16.675  23.296   3.144
16544W        W88160  30.089   5.331   3.656
16545W        W88161   6.765  44.783   0.936
16546W        W88162  41.003   7.399  13.210
16547W        W88163  29.493   1.764   1.451
16548W        W88164   5.269  35.330  14.397
16549W        W88165  37.078  22.281   0.511
16550W        W88166  17.189  41.596  10.397
16551W        W88167   3.736  23.285   0.819
16552W        W88168  20.107  11.861  10.681
16553W        W88169  26.261  39.414   1.403
16554W        W88170  37.538  44.723  12.803
16555W        W88171  23.640  26.740  11.149
16556W        W88172  30.445  37.349  13.876
16557W        W88173  17.939  23.248   4.588
16558W        W88174  29.003   1.823   1.668
16559W        W88175  37.153   4.014  12.931
16560W        W88176  26.560  16.374  10.409
16561W        W88177   3.265  34.932  10.655
16562W        W88178  40.175  43.818  13.433
16563W        W88179  12.206  43.339   3.705
16564W        W88180   5.664  31.575   0.409
16565W        W88181   5.267   1.013   1.100
16566W        W88182  13.842  13.282  11.079
16567W        W88183  30.846  10.255   0.799
16568W        W88184  39.895  30.341  11.538
16569W        W88185  30.176  28.249   1.868
16570W        W88186  16.497  16.054   0.909
16571W        W88187  18.509  11.855   3.664
16572W        W88188  43.059   1.288  13.361
16573W        W88189  24.011   0.229   1.898
16574W        W88190  42.031  37.601   3.722
16575W        W88191  28.596  16.588  12.546
16576W        W88192  39.035  40.788   4.649
16577W        W88193  16.497  10.842   3.180
16578W        W88194  15.064  21.549  10.677
16579W        W88195  36.544  10.295   3.609
16580W        W88196  39.041   1.700  13.539
16581W        W88197  42.714  18.814   3.118
16582W        W88198   3.264  36.546  11.240
16583W        W88199  20.997  22.203   0.867
16584W        W88200   2.195  42.917   4.608
16585W        W88201  38.444   0.911   4.483
16586W        W88202   4.428   2.012   3.611
16587W        W88203  31.467  11.247  13.739
16588W        W88204  10.132  33.392   1.767
16589W        W88205  27.502  41.996  12.128
16590W        W88206  20.092  10.688   2.922
16591W        W88207  22.673  25.791  11.899
16592W        W88208  34.044  13.658  11.439
16593W        W88209  39.065  40.971  11.760
16594W        W88210  40.768  27.145  12.374
16595W        W88211  25.102   4.469   3.395
16596W        W88212  16.626  20.660  13.011
16597W        W88213   6.146  43.272   4.139
16598W        W88214   8.905  26.004  12.976
16599W        W88215   6.321  30.398  13.760
16600W        W88216  29.275   8.756  11.748
16601W        W88217  38.010  24.770   3.252
16602W        W88218  18.544  15.874   2.004
16603W        W88219   9.172  41.973  13.587
16604W        W88220  34.910  12.832  14.861
16605W        W88221  25.500  41.460  12.042
16606W        W88222  26.738  39.554  12.398
16607W        W88223  43.749  26.895  12.176
16608W        W88224   8.110  42.471   0.430
16609W        W88225  20.988   5.165   4.016
16610W        W88226  25.009  26.679   1.722
16611W        W88227  28.392  39.413  10.695
16612W        W88228  40.219  11.907   4.249
16613W        W88229   6.623  32.372   0.040
16614W        W88230  28.797  42.158   3.663
16615W        W88231  37.364  22.978   3.709
16616W        W88232   7.838  31.569   3.389
16617W        W88233  27.087  32.575  13.476
16618W        W88234  43.293   5.082   4.299
16619W        W88235  13.813   4.586  11.596
16620W        W88236  44.843   4.869   1.953
16621W        W88237  31.625   1.512   1.932
16622W        W88238  24.442  22.251   2.728
16623W        W88239  13.172  37.634   1.812
16624W        W88240  37.563  19.619  13.022
16625W        W88241  29.501  33.758  12.072
16626W        W88242  16.553  15.069  11.403
16627W        W88243  10.077  19.050  13.351
16628W        W88244   3.999  34.468   4.092
16629W        W88245   5.581   3.225   0.893
16630W        W88246  19.121   0.343   4.810
16631W        W88247  41.315   6.115   0.409
16632W        W88248  22.432  31.975   2.337
16633W        W88249  30.482  17.927  12.262
16634W        W88250  15.142  38.210  11.249
16635W        W88251   8.092  39.608   0.259
16636W        W88252  15.364  31.567  13.415
16637W        W88253  13.236  11.725   3.870
16638W        W88254  33.778  33.035  14.415
16639W        W88255   9.238  27.836  13.250
16640W        W88256  35.923  13.510  11.083
16641W        W88257  20.702   2.252   1.349
16642W        W88258  36.467  18.342   2.334
16643W        W88259  26.005  34.643  10.407
16644W        W88260   4.183  24.095  10.582
16645W        W88261  25.987  24.451   0.783
16646W        W88262  17.160   7.093  10.557
16647W        W88263   5.747   7.542  12.521
16648W        W88264  24.167  19.519   0.337
16649W        W88265  11.318  25.932  11.467
16650W        W88266   7.957  37.522   2.793
16651W        W88267  15.186  29.421   0.242
16652W        W88268  25.287  26.601  12.337
16653W        W88269  20.632  44.504  14.941
16654W        W88270   3.221   6.126  12.889
16655W        W88271  28.991   6.985   3.676
16656W        W88272  22.267  22.709   1.354
16657W        W88273  34.102  35.035   3.700
16658W        W88274  10.680  42.520   1.374
16659W        W88275   4.689  30.029   3.639
16660W        W88276  13.507  22.840   3.679
16661W        W88277   9.399  27.201   0.470
16662W        W88278  23.625  21.480   1.128
16663W        W88279  24.066  17.776  12.980
16664W        W88280  16.093  29.892   1.492
16665W        W88281  40.049  32.698   3.872
16666W        W88282  29.850  26.920  14.060
16667W        W88283  42.235  21.900   2.223
16668W        W88284  39.473  38.442   4.207
16669W        W88285  43.233  39.111  14.826
16670W        W88286   6.990  37.572   4.763
16671W        W88287  27.560  36.172   1.896
16672W        W88288  16.532  33.403  12.341
16673W        W88289  24.608  40.069  13.625
16674W        W88290   4.933  42.121   5.019
16675W        W88291  32.160  40.724   1.764
16676W        W88292  21.660  41.868  10.650
16677W        W88293  15.596  31.951  12.757
16678W        W88294  20.130   1.803   1.823
16679W        W88295  17.211   4.677   0.471
16680W        W88296  33.226   5.477   1.976
16681W        W88297  36.075   9.389   3.635
16682W        W88298  30.134  10.900   0.449
16683W        W88299  44.331  19.191   2.969
16684W        W88300  29.128  35.098  11.221
16685W        W88301   5.174  33.312  12.816
16686W        W88302  21.180   2.892   4.374
16687W        W88303  10.719  34.986  14.567
16688W        W88304   7.409   4.707  13.351
16689W        W88305  34.921  20.106   1.725
16690W        W88306  12.140  14.202  11.944
16691W        W88307  22.314  35.565  13.110
16692W        W88308  39.012  29.947   2.720
16693W        W88309   6.216   6.762  13.488
16694W        W88310   7.924   0.273  14.932
16695W        W88311   4.246  34.501   0.854
16696W        W88312  17.513   5.378  10.745
16697W        W88313  33.216  24.792   0.524
16698W        W88314  36.660  28.991  13.948
16699W        W88315  18.987  41.725  13.329
16700W        W88316   5.580   9.887  11.524
16701W        W88317  39.170  16.757  13.052
16702W        W88318  41.060  20.331  12.506
16703W        W88319  27.118  44.858  10.730
16704W        W88320  44.420  28.511  14.231
16705W        W88321  26.723  17.083  13.824
16706W        W88322   5.320  36.500  14.866
16707W        W88323   9.761   3.877   2.167
16708W        W88324  10.125  26.175   4.902
16709W        W88325  26.984  15.054   3.597
16710W        W88326  15.661   4.862   4.097
16711W        W88327  33.057  23.568   3.371
16712W        W88328  29.603  12.298   4.633
16713W        W88329  37.945   2.515   2.299
16714W        W88330  16.287  43.998  13.025
16715W        W88331  15.875  43.480   4.575
16716W        W88332  32.187  43.773   3.231
16717W        W88333  42.511  25.169   3.543
16718W        W88334   4.959   3.868   2.383
16719W        W88335  13.070   3.730  10.435
16720W        W88336  10.902  23.063   4.230
16721W        W88337  35.457  21.179  14.365
16722W        W88338  23.918  30.577  13.812
16723W        W88339  40.027  10.641   1.551
16724W        W88340   9.829  41.942  10.364
16725W        W88341   1.774  32.244   1.249
16726W        W88342  21.643  13.062   2.298
16727W        W88343   3.266   9.409   3.630
16728W        W88344   4.474  29.041   3.536
16729W        W88345  31.940  26.015   3.775
16730W        W88346  33.664   0.375  12.844
16731W        W88347  10.060  31.195  10.718
16732W        W88348  10.111  30.372   4.863
16733W        W88349  22.324   3.951   3.652
16734W        W88350  24.748   5.322   1.296
16735W        W88351  29.364   8.870   1.228
16736W        W88352  20.927  10.351  11.867
16737W        W88353  32.688   3.988   4.168
16738W        W88354  22.133  19.300   4.818
16739W        W88355   5.143  26.455   4.074
16740W        W88356   9.226   5.066  11.143
16741W        W88357  13.726  44.900  11.153
16742W        W88358   9.804  24.610  10.898
16743W        W88359  24.038  31.962   0.286
16744W        W88360  24.101   8.939  14.424
16745W        W88361   9.192  32.124   4.623
16746W        W88362  38.938  17.795   0.696
16747W        W88363  17.727  22.781  10.731
16748W        W88364  18.367   0.665   0.441
16749W        W88365  12.735  44.836  12.432
16750W        W88366  16.033  18.639  13.510
16751W        W88367   5.745   1.723   1.384
16752W        W88368  38.468  17.243   2.263
16753W        W88369  11.947   6.778   4.015
16754W        W88370  15.593  44.064   3.202
16755W        W88371  38.388  13.255  11.426
16756W        W88372   5.711  14.087   0.334
16757W        W88373  44.653  27.756   1.897
16758W        W88374  36.842  11.346  13.164
16759W        W88375  37.661  17.477  13.361
16760W        W88376  34.594  28.049  12.384
16761W        W88377  21.699  20.239   3.702
16762W        W88378  23.526  43.223  11.522
16763W        W88379  27.063   9.856   2.705
16764W        W88380  34.829   0.286   5.349
16765W        W88381  22.720  33.840   3.359
16766W        W88382  32.190   4.038   1.262
16767W        W88383  11.258  32.601   3.428
16768W        W88384  33.842  37.012  11.533
16769W        W88385  14.058  39.847   1.811
16770W        W88386  43.719   3.915   1.709
16771W        W88387  17.804  23.987   2.708
16772W        W88388   7.615   5.840  11.645
16773W        W88389   6.233   5.980  10.452
16774W        W88390  22.196   0.449  13.957
16775W        W88391   3.479  42.241  14.476
16776W        W88392  42.428  13.522   2.288
16777W        W88393  20.065  32.061   5.105
16778W        W88394   4.847  38.815  11.609
16779W        W88395  21.692   1.849  14.930
16780W        W88396  30.471  31.968  12.965
16781W        W88397  10.076  32.189   4.649
16782W        W88398  38.558  23.761  13.427
16783W        W88399  11.625  24.231  14.326
16784W        W88400  21.045  16.347   3.683
16785W        W88401   1.375  13.561  13.864
16786W        W88402  37.354  41.695  10.912
16787W        W88403  17.329   5.804   3.211
16788W        W88404  10.683   1.572   5.163
16789W        W88405  23.523  35.360  11.181
16790W        W88406   3.768   3.808   3.598
16791W        W88407   6.758  35.657  11.014
16792W        W88408   7.850  19.971   2.264
16793W        W88409  37.347  43.237   1.052
16794W        W88410  22.094  24.693  14.371
16795W        W88411  42.073  36.256  11.965
16796W        W88412  37.584  20.765  14.893
16797W        W88413  10.630  12.733  14.398
16798W        W88414  23.092  28.009   3.689
16799W        W88415  31.301   2.807  12.303
16800W        W88416   4.909  11.708   4.081
16801W        W88417  30.997   8.156  11.115
16802W        W88418  25.607  42.573  14.705
16803W        W88419  43.368   4.328   1.007
16804W        W88420  15.732  30.713  12.229
16805W        W88421  29.811  35.063  13.373
16806W        W88422  22.248  28.639  14.034
16807W        W88423  10.915   3.823   3.679
16808W        W88424  22.992  17.837  14.376
16809W        W88425  28.975  39.131  14.982
16810W        W88426  29.495  15.363   4.626
16811W        W88427  15.633   3.392   0.775
16812W        W88428   9.616  11.223   2.177
16813W        W88429  41.577  33.969  14.118
16814W        W88430  17.015  43.976   0.834
16815W        W88431   7.229  27.616  14.503
16816W        W88432  17.600  16.849   1.948
16817W        W88433  21.515  44.826  12.056
16818W        W88434   7.253  31.715  13.364
16819W        W88435  33.865  20.120   4.099
16820W        W88436  42.222  20.053   2.308
16821W        W88437  12.866  32.601  12.921
16822W        W88438  38.872  26.636   1.378
16823W        W88439  23.168  27.569  12.897
16824W        W88440  36.117  28.398   0.883
16825W        W88441  28.367  26.970   4.321
16826W        W88442  24.990   7.754   0.466
16827W        W88443  19.715   1.231  10.659
16828W        W88444  10.689  19.813   4.179
16829W        W88445  23.296  44.098   2.275
16830W        W88446  31.885  13.665  13.929
16831W        W88447  16.169  44.568   0.763
16832W        W88448  31.020  10.673   2.647
16833W        W88449  12.190  10.775  11.038
16834W        W88450  27.472  12.051   3.696
16835W        W88451  35.489  23.108  12.683
16836W        W88452   8.812  30.912  14.867
16837W        W88453  35.432  40.592  12.987
16838W        W88454   6.750  17.025  10.415
16839W        W88455  19.745  15.056  11.683
16840W        W88456  22.252  24.155  13.117
16841W        W88457   1.915   2.447  11.125
16842W        W88458  13.077   6.194  14.007
16843W        W88459   6.392   2.489  14.673
16844W        W88460   7.141  37.498   3.109
16845W        W88461  13.577   4.443   9.972
16846W        W88462  22.105  33.063   0.913
16847W        W88463  26.167   6.404  11.545
16848W        W88464   1.957   9.807   0.344
16849W        W88465  16.051  35.146   3.172
16850W        W88466  20.785  26.754   3.700
16851W        W88467   7.961  25.080   4.609
16852W        W88468  32.597   5.433  10.710
16853W        W88469  34.112  13.596   1.490
16854W        W88470  36.617  43.034  14.973
16855W        W88471  10.712  12.821  11.653
16856W        W88472  38.406  15.256   3.571
16857W        W88473   9.920  23.024  14.966
16858W        W88474  43.655  23.059  13.178
16859W        W88475  31.725  21.549  12.687
16860W        W88476  16.239  10.772  11.222
16861W        W88477   9.275   7.627   3.386
16862W        W88478  38.915  19.278  14.966
16863W        W88479  29.441  18.783   3.660
16864W        W88480  10.441  19.271   0.727
16865W        W88481  20.256  29.200  14.444
16866W        W88482   6.964   5.173   4.514
16867W        W88483  44.746  23.283  13.351
16868W        W88484  43.331  26.497  12.396
16869W        W88485  17.316  21.078   0.692
16870W        W88486  33.400  29.039  10.188
16871W        W88487  17.206  42.307  13.220
16872W        W88488  26.253  13.305  12.483
16873W        W88489  27.117  29.060  11.225
16874W        W88490   6.169   7.773   2.838
16875W        W88491  37.982  36.896  12.244
16876W        W88492  33.009   5.672   2.706
16877W        W88493  22.062   2.163  11.158
16878W        W88494   0.420  13.022   0.902
16879W        W88495  18.226  11.616   4.082
16880W        W88496   2.766  37.041  10.966
16881W        W88497  34.462  29.705  11.584
16882W        W88498  25.697  10.894  10.718
16883W        W88499  11.098  44.464  10.613
16884W        W88500   8.481  33.181   2.750
16885W        W88501   1.483  30.023  10.667
16886W        W88502  29.207   4.709   1.723
16887W        W88503  27.726  23.645  14.378
16888W        W88504  42.409  37.784   2.237
16889W        W88505   7.789  15.652   4.578
16890W        W88506  16.857  14.986  13.395
16891W        W88507  13.878   0.222   1.895
16892W        W88508  22.245  23.127   2.366
16893W        W88509   5.408  18.538   2.662
16894W        W88510  13.474   1.166   1.153
16895W        W88511  38.160  34.532   4.506
16896W        W88512  19.085  38.715   9.841
16897W        W88513  21.064  37.540  11.154
16898W        W88514  40.289  32.354  12.533
16899W        W88515  35.455  10.771  11.356
16900W        W88516  14.775  17.137  11.543
16901W        W88517   8.185  38.082   2.710
16902W        W88518  20.713  39.013  10.695
16903W        W88519  41.986   3.388   3.175
16904W        W88520   0.063  30.482  12.899
16905W        W88521  28.970  21.608   3.191
16906W        W88522  12.142   8.666   1.510
16907W        W88523  13.527  37.053   4.318
16908W        W88524  38.450  44.610  14.936
16909W        W88525   1.927  37.638   4.596
16910W        W88526  12.594   0.007  13.266
16911W        W88527  17.236  16.360  13.973
16912W        W88528  37.040  39.023  11.449
16913W        W88529  35.935  37.395  12.018
16914W        W88530  27.479  15.711  12.678
16915W        W88531  29.038  44.458   1.383
16916W        W88532   3.710  41.057   0.939
16917W        W88533  18.315   7.763   0.398
16918W        W88534  42.780  31.212   3.677
16919W        W88535  27.796  38.445   1.177
16920W        W88536  29.136   6.464   3.753
16921W        W88537  17.616  30.762  13.760
16922W        W88538   3.225  11.409   3.863
16923W        W88539   4.298  10.145   1.080
16924W        W88540  29.953  41.382  10.918
16925W        W88541   5.832  25.173  14.895
16926W        W88542  14.737  27.769  12.233
16927W        W88543  39.264  42.323   0.505
16928W        W88544   8.262   3.399   1.606
16929W        W88545  13.206  19.861   3.353
16930W        W88546  42.277  32.968  14.522
16931W        W88547  29.638   1.800  10.384
16932W        W88548  21.215   8.137  12.037
16933W        W88549  31.074  12.870  12.103
16934W        W88550  34.593  44.488  14.957
16935W        W88551  32.490  26.339   0.092
16936W        W88552  27.170  21.024   4.419
16937W        W88553  15.528  33.096   2.720
16938W        W88554   7.719  17.506   0.051
16939W        W88555  10.185  20.622   0.951
16940W        W88556  42.378  38.904   0.692
16941W        W88557  31.046   7.759  12.372
16942W        W88558   1.347  36.029  11.959
16943W        W88559   2.639  13.563   2.147
16944W        W88560  16.427  35.106   0.331
16945W        W88561  27.843   9.599  10.434
16946W        W88562  13.658   2.958   1.435
16947W        W88563   2.191  11.161   2.838
16948W        W88564  27.244  14.200  10.085
16949W        W88565   1.811  25.739  13.702
16950W        W88566  23.701  30.072  13.920
16951W        W88567  10.840  44.713  13.229
16952W        W88568  43.528  15.058   1.367
16953W        W88569  31.114  40.502  11.700
16954W        W88570   2.910  12.121  12.135
16955W        W88571  39.305  21.256   4.296
16956W        W88572  31.944  27.154  14.278
16957W        W88573  21.995  16.527  12.119
16958W        W88574   7.284  11.115   2.815
16959W        W88575  43.173   8.913  10.767
16960W        W88576  15.166  15.669  11.609
16961W        W88577  41.478  23.021   3.766
16962W        W88578  36.219  34.650  10.089
16963W        W88579  37.604  22.950  13.804
16964W        W88580  43.992   2.411  13.820
16965W        W88581   1.977   1.344  11.123
16966W        W88582   8.180  40.334   1.139
16967W        W88583  26.030  24.860   2.484
16968W        W88584  34.797  11.160  13.924
16969W        W88585  11.796   9.964  12.578
16970W        W88586   2.934  28.635   3.237
16971W        W88587  44.574   0.144  12.391
16972W        W88588   5.666  12.734   4.360
16973W        W88589  37.200  34.807  12.497
16974W        W88590  32.992  39.830  14.438
16975W        W88591  12.908  16.636  12.790
16976W        W88592  30.531  44.836  12.977
16977W        W88593  22.645   5.822  10.305
16978W        W88594  42.437  16.966  14.479
16979W        W88595   9.752  33.879  14.572
16980W        W88596  18.536  40.913   3.312
16981W        W88597  13.796   8.850   0.718
16982W        W88598  12.379  10.284  13.483
16983W        W88599  44.562  28.612  12.922
16984W        W88600  26.212  21.085   4.890
16985W        W88601  21.110  17.348  10.715
16986W        W88602  10.497   8.593  12.150
16987W        W88603   8.813  19.501  11.604
16988W        W88604   1.835   1.194  14.493
16989W        W88605  19.601  10.108  12.862
16990W        W88606  31.375  17.321  14.064
16991W        W88607  38.431  12.541  14.041
16992W        W88608   7.811  33.007  11.176
16993W        W88609  23.505  32.861  11.960
16994W        W88610   7.797  35.862  11.977
16995W        W88611   6.786  41.762   4.619
16996W        W88612  17.301  33.864   3.042
16997W        W88613  31.639   8.911  11.095
16998W        W88614  18.034  33.690   1.885
16999W        W88615  21.523  12.303  11.832
17000W        W88616  35.521  27.624   0.263
17001W        W88617   1.015  24.563   3.715
17002W        W88618  23.887  40.928   2.394
17003W        W88619  10.695  43.450   4.097
17004W        W88620  38.453  31.732   0.504
17005W        W88621  39.308  36.273   1.336
17006W        W88622  16.336   0.051   2.913
17007W        W88623  16.371   6.225   0.033
17008W        W88624  13.114  30.479  11.953
17009W        W88625   9.276   2.238   3.700
17010W        W88626  32.668  21.065  11.562
17011W        W88627  37.461  16.869   2.166
17012W        W88628   5.572  10.395   1.987
17013W        W88629  31.608  34.885   1.031
17014W        W88630  29.037  42.517   2.633
17015W        W88631  34.732   9.346  12.089
17016W        W88632   4.585  37.074  13.388
17017W        W88633  10.753  27.239  13.016
17018W        W88634  36.920  43.983  14.346
17019W        W88635   6.223   5.441  11.560
17020W        W88636   5.491  10.695   1.314
17021W        W88637   0.359  13.237  12.430
17022W        W88638  27.703   5.451   3.219
17023W        W88639  41.393  16.804  14.011
17024W        W88640   7.464  22.035  11.368
17025W        W88641  31.348   1.302   1.251
17026W        W88642   2.840  25.086   1.721
17027W        W88643  28.089  42.448  14.241
17028W        W88644  22.996  17.526   1.198
17029W        W88645  38.983   0.976  10.674
17030W        W88646  21.811  24.559  13.886
17031W        W88647  27.135  18.613  12.901
17032W        W88648  37.414  41.831   4.602
17033W        W88649  37.550  24.712   4.119
17034W        W88650  44.445  43.795  10.627
17035W        W88651  18.102   4.804   1.400
17036W        W88652  35.317  31.997  10.745
17037W        W88653  33.149  22.535  13.536
17038W        W88654  42.516  22.189   1.847
17039W        W88655  13.525   5.466  10.637
17040W        W88656   8.916   5.532  10.645
17041W        W88657  40.783   9.829   0.975
17042W        W88658  12.131   8.199  12.161
17043W        W88659   5.633  31.637  13.516
17044W        W88660   1.738   3.694   1.820
17045W        W88661  21.191  33.390   4.179
17046W        W88662   3.131  44.011   0.969
17047W        W88663  31.178  38.395  12.623
17048W        W88664  41.721  32.780  14.757
17049W        W88665  40.084  14.310  13.227
17050W        W88666  15.661  30.878   4.205
17051W        W88667  31.131  35.624  14.809
17052W        W88668  14.240  15.034  13.993
17053W        W88669   5.633   6.832  12.926
17054W        W88670  26.953  11.159  12.605
17055W        W88671   3.454  44.397  12.347
17056W        W88672  11.160  19.635   4.275
17057W        W88673  18.022   1.306  12.963
17058W        W88674  12.189   6.311  13.561
17059W        W88675  21.128   6.118   3.748
17060W        W88676  28.096  22.676  12.393
17061W        W88677  38.075  37.079   0.403
17062W        W88678  28.517  29.971   1.422
17063W        W88679   1.659   9.871   2.231
17064W        W88680  33.968   6.823   4.580
17065W        W88681  24.185  33.059   3.237
17066W        W88682  28.637  41.877  13.109
17067W        W88683  22.098  39.577  11.668
17068W        W88684  32.331  34.115   2.198
17069W        W88685  30.910  38.668   3.831
17070W        W88686   7.557  16.267  13.325
17071W        W88687   8.491   6.740   2.899
17072W        W88688  35.964  18.559   4.027
17073W        W88689  37.568  25.212   1.421
17074W        W88690  28.105   2.324   0.562
17075W        W88691  24.404  14.835   3.120
17076W        W88692  40.931   9.256   3.115
17077W        W88693  12.831  11.155   4.840
17078W        W88694  30.431  33.061  13.515
17079W        W88695  41.215  33.918   1.043
17080W        W88696  34.368  38.980   3.285
17081W        W88697  11.581  18.167   1.195
17082W        W88698  36.213   8.590  11.923
17083W        W88699  24.233   3.184  14.663
17084W        W88700  34.901  24.710   3.321
17085W        W88701  27.329  23.266  14.004
17086W        W88702  31.903   0.733  11.114
17087W        W88703  15.333  13.055  11.610
17088W        W88704  23.791  33.588  13.460
17089W        W88705  31.139  27.081   1.942
17090W        W88706  31.656  26.649  11.059
17091W        W88707  34.005  34.939   1.355
17092W        W88708  17.714  37.917   2.121
17093W        W88709   6.880  22.135   4.102
17094W        W88710  36.907   0.098  11.109
17095W        W88711  18.700   3.915   0.533
17096W        W88712  29.523  35.064   3.764
17097W        W88713  31.689  25.620  12.145
17098W        W88714   4.863  39.097   3.768
17099W        W88715   9.213  26.682  10.626
17100W        W88716  41.261  26.546  12.545
17101W        W88717  20.552  19.593  10.516
17102W        W88718   2.561  30.584   3.152
17103W        W88719  37.310  30.188  13.758
17104W        W88720  41.988  39.493  10.171
17105W        W88721  44.972  36.886   3.599
17106W        W88722  18.222  14.602  11.087
17107W        W88723  32.111  39.820   4.482
17108W        W88724  24.987  23.698   3.886
17109W        W88725   0.798  34.835   0.693
17110W        W88726  13.633  40.471   3.134
17111W        W88727  16.905   0.177   0.353
17112W        W88728  22.489  30.228  10.107
17113W        W88729   5.211  24.655   1.949
17114W        W88730  14.645  43.728  13.865
17115W        W88731   1.597  42.837   3.819
17116W        W88732   4.905  13.563  14.989
17117W        W88733  34.952  20.292  12.646
17118W        W88734   7.266  34.861  13.890
17119W        W88735   6.213  42.751   2.350
17120W        W88736  17.467  30.491   0.809
17121W        W88737   8.918   4.952   3.198
17122W        W88738  37.211   4.488  10.400
17123W        W88739   5.213  41.375   3.707
17124W        W88740   3.386  37.548   2.369
17125W        W88741  36.966  19.267  11.183
17126W        W88742   0.050  20.548   3.684
17127W        W88743  44.279  34.851  13.382
17128W        W88744  28.751  21.133   0.018
17129W        W88745  44.166  19.220   1.942
17130W        W88746  40.827  15.097  12.081
17131W        W88747  43.968  35.573  11.871
17132W        W88748  32.421  13.798   3.784
17133W        W88749  43.433  10.279   2.310
17134W        W88750  24.289   2.068  10.236
17135W        W88751   5.479  37.537  13.467
17136W        W88752  25.684  41.835  13.927
17137W        W88753  30.728  17.716   3.304
17138W        W88754  40.991  16.153   1.245
17139W        W88755  22.112  14.350   2.334
17140W        W88756  27.524  39.518  14.522
17141W        W88757   5.565  43.869  10.397
17142W        W88758  22.922  28.594  13.431
17143W        W88759   9.849  26.239   1.392
17144W        W88760   7.583   0.434  12.808
17145W        W88761   7.926  35.506   2.674
17146W        W88762  32.172   4.207  12.431
17147W        W88763  28.980  25.864  12.216
17148W        W88764   0.808  10.743   3.963
17149W        W88765  44.236  42.610   0.423
17150W        W88766  24.212  30.909   4.550
17151W        W88767  18.648  27.932  13.457
17152W        W88768  33.525  25.713   3.736
17153W        W88769  31.481   1.445   3.806
17154W        W88770  23.715  41.882  11.231
17155W        W88771  10.145  10.525   2.632
17156W        W88772  31.127   6.735  12.313
17157W        W88773   0.129  28.814   0.921
17158W        W88774  36.495  29.167  13.270
17159W        W88775  35.329  31.001  12.441
17160W        W88776  27.609  11.729  14.806
17161W        W88777  32.833  37.338  10.894
17162W        W88778   7.884  13.162  14.945
17163W        W88779  42.553  23.817   1.104
17164W        W88780   4.692  23.580  13.936
17165W        W88781  31.452  26.853   0.781
17166W        W88782  13.218  42.335   1.445
17167W        W88783  32.171  40.190   1.843
17168W        W88784  18.021  16.819  13.130
17169W        W88785  18.554  40.880  13.372
17170W        W88786  39.544  32.368  12.902
17171W        W88787  29.153  33.309   4.080
17172W        W88788   1.771  23.422  13.996
17173W        W88789  26.926   4.660  13.796
17174W        W88790  38.157  35.087  12.470
17175W        W88791  40.468  10.126   2.155
17176W        W88792   8.570  10.058  14.445
17177W        W88793  11.177  36.326   3.693
17178W        W88794  30.647   0.038  14.406
17179W        W88795   7.752   1.679  13.743
17180W        W88796  42.771   8.929   1.835
17181W        W88797  35.895  20.252   1.845
17182W        W88798  17.776  11.132   0.671
17183W        W88799  38.864  16.168   0.381
17184W        W88800  19.669  16.701  10.738
17185W        W88801   9.198  26.920   4.546
17186W        W88802  24.938  12.262  12.502
17187W        W88803  34.851  17.849  13.225
17188W        W88804  21.851  24.472  14.841
17189W        W88805  23.049  32.161   4.090
17190W        W88806  11.386  25.713  13.901
17191W        W88807  37.527   5.853  14.093
17192W        W88808  27.715  16.650   0.326
17193W        W88809  43.113  35.314   4.977
17194W        W88810  27.435  19.656  11.567
17195W        W88811   7.807  23.887  14.323
17196W        W88812   3.276  41.985  14.885
17197W        W88813   6.852  32.651  12.648
17198W        W88814  15.883  27.091  11.987
17199W        W88815  42.548  20.582  13.836
17200W        W88816  35.612   6.931   0.460
17201W        W88817  18.057  12.121  11.595
17202W        W88818  10.791  26.585   0.827
17203W        W88819  31.656  44.003   4.814
17204W        W88820  32.914   3.759   3.627
17205W        W88821  34.740  28.306  12.853
17206W        W88822  38.692  31.128   0.283
17207W        W88823  27.343  43.305  10.548
17208W        W88824  12.951   1.337   1.214
17209W        W88825  37.769  33.650  14.965
17210W        W88826  43.773  13.690   0.672
17211W        W88827  32.181  25.530   0.353
17212W        W88828   9.393   6.829   0.673
17213W        W88829  34.763  44.371  14.300
17214W        W88830  44.360  17.615   1.390
17215W        W88831  14.371  35.130   1.414
17216W        W88832   3.308   4.017   0.836
17217W        W88833   2.355  24.496  14.714
17218W        W88834  33.069  38.015   0.736
17219W        W88835  43.328  34.951  12.503
17220W        W88836  22.771  38.102   1.018
17221W        W88837   7.405  16.983   3.377
17222W        W88838  10.842  12.852   3.320
17223W        W88839   5.518  12.176   1.285
17224W        W88840  17.289  18.934  12.369
17225W        W88841  26.147  29.906   3.916
17226W        W88842   3.308  32.440  10.395
17227W        W88843   3.124   4.262  14.851
17228W        W88844   0.874  25.193   3.330
17229W        W88845  15.351  29.642  12.813
17230W        W88846  37.584  15.237  14.535
17231W        W88847  28.404  39.821   2.328
17232W        W88848   3.862  25.500   3.958
17233W        W88849  32.634  13.178  14.855
17234W        W88850  20.052  17.511  14.199
17235W        W88851  33.100  32.357  13.969
17236W        W88852  42.458   0.450  12.517
17237W        W88853  26.539  23.712   0.992
17238W        W88854  35.252  16.985   1.728
17239W        W88855  26.968  21.687  11.199
17240W        W88856  12.754  44.784   3.197
17241W        W88857  13.265  22.282  12.975
17242W        W88858  19.480  38.910   4.076
17243W        W88859  33.963  36.085   0.813
17244W        W88860  21.977  36.386  14.045
17245W        W88861  43.314  37.535   0.871
17246W        W88862  10.556   6.853  12.403
17247W        W88863  30.447  22.652   4.029
17248W        W88864  16.674  30.464   3.426
17249W        W88865   4.555  36.396   1.704
17250W        W88866   6.638  29.942   3.740
17251W        W88867  16.997  39.589  12.987
17252W        W88868   6.596  16.346  12.124
17253W        W88869  33.942  36.953   1.199
17254W        W88870  35.003  17.079  11.356
17255W        W88871  25.901   4.339  10.579
17256W        W88872  40.983  35.371  12.526
17257W        W88873  42.867   0.817   3.641
17258W        W88874  14.240  34.971  14.588
17259W        W88875  23.946  27.529  13.449
17260W        W88876  37.678   9.829  10.284
17261W        W88877  32.075  35.706   2.262
17262W        W88878  26.554  42.822  10.246
17263W        W88879  24.110  16.790  12.085
17264W        W88880   2.235  20.209  10.722
17265W        W88881  10.736  25.504   2.583
17266W        W88882  41.552   7.839   2.841
17267W        W88883  12.294  32.804   4.591
17268W        W88884  43.224  26.500   4.087
17269W        W88885  37.306   5.778  14.532
17270W        W88886  14.983  40.526   4.265
17271W        W88887  34.515  37.078   1.808
17272W        W88888  13.375  11.376   1.792
17273W        W88889  34.094  30.606   1.030
17274W        W88890   8.390  34.942  14.827
17275W        W88891  10.803  26.923  10.691
17276W        W88892  32.474  40.964   1.370
17277W        W88893   1.667   8.337   1.250
17278W        W88894  42.756  25.495  14.691
17279W        W88895   4.052  17.338   3.130
17280W        W88896  29.566  36.406   0.789
17281W        W88897  40.317  40.251  14.745
17282W        W88898  19.212  30.885   0.414
17283W        W88899   9.837   8.498  13.310
17284W        W88900  38.813  18.099  11.725
17285W        W88901  13.940  37.067   3.273
17286W        W88902  38.887   4.453  14.230
17287W        W88903  40.536   3.506   3.297
17288W        W88904  16.583  17.248  14.031
17289W        W88905  38.274  43.402   1.913
17290W        W88906  30.396  30.571  13.343
17291W        W88907  14.812   9.770   0.732
17292W        W88908  25.656  38.936   0.417
17293W        W88909  31.642  11.100  10.271
17294W        W88910  33.408   3.360   1.121
17295W        W88911   2.963  42.443  13.849
17296W        W88912  34.985  17.563  12.040
17297W        W88913  36.898  34.567   0.803
17298W        W88914  38.852   2.001   2.309
17299W        W88915  14.580  36.405  11.133
17300W        W88916  13.158  24.925   3.331
17301W        W88917  44.518  34.372   0.261
17302W        W88918   8.768   3.135  13.537
17303W        W88919  43.270  14.083  13.001
17304W        W88920  19.286   3.271  14.852
17305W        W88921  32.572  14.055  14.344
17306W        W88922  35.002  10.624  11.136
17307W        W88923   1.351  16.330   0.788
17308W        W88924   9.696  15.917   4.645
17309W        W88925  14.605  21.580  14.283
17310W        W88926  30.646  20.600   4.133
17311W        W88927  20.487  16.504   1.194
17312W        W88928  31.834  29.197  13.807
17313W        W88929  37.360   7.375   0.937
17314W        W88930  20.054  26.971  13.956
17315W        W88931  41.629   3.864  14.424
17316W        W88932  15.326  14.849   3.681
17317W        W88933  32.200  17.797   3.285
17318W        W88934  19.160  38.025   2.750
17319W        W88935   8.849  13.484  12.627
17320W        W88936  30.726   0.062   4.390
17321W        W88937  26.418   9.777  14.885
17322W        W88938   8.162  29.842  14.029
17323W        W88939  23.732  26.639  12.104
17324W        W88940   5.465  25.977   0.664
17325W        W88941   7.070  16.147   2.160
17326W        W88942  40.305  22.105   1.262
17327W        W88943  39.009  17.370   3.472
17328W        W88944  43.748  25.208  13.117
17329W        W88945  13.687   6.793   9.499
17330W        W88946  38.325   8.715   3.649
17331W        W88947  25.229  24.511  10.445
17332W        W88948  40.913   7.452   4.799
17333W        W88949  28.218  28.534   2.683
17334W        W88950   6.911  13.388   4.729
17335W        W88951   1.931   8.861   0.238
17336W        W88952  12.188   3.653   4.147
17337W        W88953  14.332  12.747   3.680
17338W        W88954   6.779   2.747  11.169
17339W        W88955   3.968  14.178   3.186
17340W        W88956  34.958  31.716   0.909
17341W        W88957  41.274  39.054   5.144
17342W        W88958  22.540  37.126   0.846
17343W        W88959   8.354   5.794  13.839
17344W        W88960  12.648  37.848  12.985
17345W        W88961  18.203  21.506  10.465
17346W        W88962   2.939  44.826  12.926
17347W        W88963  40.026  35.195   0.489
17348W        W88964  12.919  17.700  13.998
17349W        W88965  30.282   9.120   4.807
17350W        W88966  13.535  27.981  14.341
17351W        W88967  41.805   8.995  10.802
17352W        W88968  28.005   1.059  12.358
17353W        W88969  18.948  10.368   3.547
17354W        W88970   8.237  43.357  11.167
17355W        W88971   7.194   0.828   2.416
17356W        W88972  38.568  11.653   3.841
17357W        W88973   0.461  12.541  14.831
17358W        W88974  33.662  24.684  13.624
17359W        W88975  14.832   4.478   2.724
17360W        W88976  25.509   2.487  13.497
17361W        W88977   1.007  38.416   2.323
17362W        W88978   9.653  41.385   0.329
17363W        W88979  22.633  35.782  11.190
17364W        W88980   2.924  25.370  11.057
17365W        W88981  25.431   0.839   1.954
17366W        W88982  34.370   7.756   0.869
17367W        W88983  26.149  25.636   0.809
17368W        W88984  19.138   4.655  10.534
17369W        W88985   4.187  25.360  10.448
17370W        W88986   6.619  17.559   2.305
17371W        W88987  35.387  24.070   0.057
17372W        W88988  31.074  25.521  11.491
17373W        W88989  13.260   2.321   4.602
17374W        W88990  19.314  22.614  13.958
17375W        W88991  10.310  39.304   3.682
17376W        W88992  31.191  36.839  12.545
17377W        W88993  39.595  35.347   3.301
17378W        W88994  42.025  23.073   3.692
17379W        W88995  14.946  19.514  11.076
17380W        W88996  12.237  24.520  13.841
17381W        W88997  39.497   4.311  14.924
17382W        W88998   7.262  40.940   3.522
17383W        W88999  44.529  28.060  12.527
17384W        W89000  30.978   2.016  14.068
17385W        W89001  19.092  14.129   1.702
17386W        W89002  32.571   5.944   2.826
17387W        W89003  42.909  10.226   0.486
17388W        W89004  41.012  30.121   4.785
17389W        W89005  26.164  41.835   4.621
17390W        W89006  40.510  11.539   1.290
17391W        W89007   3.421  33.409   0.687
17392W        W89008  16.475  20.594   5.140
17393W        W89009  19.065  13.300  10.563
17394W        W89010   1.739  28.862  14.825
17395W        W89011  29.474  41.335   0.061
17396W        W89012   6.427  23.094   3.652
17397W        W89013   2.951  41.097  13.947
17398W        W89014  39.353  31.617   2.746
17399W        W89015   0.904  30.523  10.699
17400W        W89016   5.714  10.828  11.516
17401W        W89017   8.767  36.404  12.014
17402W        W89018  28.884  11.581  12.042
17403W        W89019  39.941  29.235   1.232
17404W        W89020  15.252  31.324   3.358
17405W        W89021  19.549  15.464   0.771
17406W        W89022  31.198  43.252  10.693
17407W        W89023   4.401  13.577  12.892
17408W        W89024  22.472   7.319   4.565
17409W        W89025   1.859  15.851  14.518
17410W        W89026  21.642  21.034  11.552
17411W        W89027   7.202  42.062   3.249
17412W        W89028  35.147   7.791   1.344
17413W        W89029   9.631   2.907   1.961
17414W        W89030  15.180  33.119   0.419
17415W        W89031   9.845  19.962  10.749
17416W        W89032  24.651  15.048  12.097
17417W        W89033  36.403   5.659  14.057
17418W        W89034  25.103   7.720   2.296
17419W        W89035  38.904   0.763   1.586
17420W        W89036  43.855   3.282  11.847
17421W        W89037  13.226  30.296   4.423
17422W        W89038  21.949   8.991   4.038
17423W        W89039  32.410  44.046  13.960
17424W        W89040  34.610  16.232   0.840
17425W        W89041   2.464  20.876  14.468
17426W        W89042  39.461  11.011   4.065
17427W        W89043   4.725  33.539  11.236
17428W        W89044  14.705  16.731   2.419
17429W        W89045   9.969   4.360  12.949
17430W        W89046  12.453  41.210   0.746
17431W        W89047  22.628   9.574  14.935
17432W        W89048  18.074  36.263  14.974
17433W        W89049  44.404  10.432  10.719
17434W        W89050  21.585  39.552   0.572
17435W        W89051  15.188  29.377  10.722
17436W        W89052   4.356  28.156   2.314
17437W        W89053   9.556  12.901  13.418
17438W        W89054   2.829   5.631   2.804
17439W        W89055  12.799  14.314   1.989
17440W        W89056  24.152  13.302  12.023
17441W        W89057  43.422   3.780   4.849
17442W        W89058  36.658  38.894   2.335
17443W        W89059  39.044  18.528  12.482
17444W        W89060  13.267  22.593  14.748
17445W        W89061   7.850  33.025   4.091
17446W        W89062  44.020  17.871  10.740
17447W        W89063  27.130   5.715  13.365
17448W        W89064  24.000  27.812  11.272
17449W        W89065  21.586  22.198  13.800
17450W        W89066  32.444  27.726   2.008
17451W        W89067  34.015  11.149   0.772
17452W        W89068   8.619   9.759  14.004
17453W        W89069   3.623  31.394   3.571
17454W        W89070   5.744  29.313  14.743
17455W        W89071  40.811  42.089  13.383
17456W        W89072  31.255  30.812   2.326
17457W        W89073   7.084  34.402  13.011
17458W        W89074  35.585  26.307   2.671
17459W        W89075   1.892   5.358   3.691
17460W        W89076  10.315  41.053  12.082
17461W        W89077  20.747  20.140   1.346
17462W        W89078  33.892  29.947  10.341
17463W        W89079  18.793   0.416  14.371
17464W        W89080  25.434   6.395  10.301
17465W        W89081  20.681  28.307   1.238
17466W        W89082  44.552   6.833   2.862
17467W        W89083  42.478  42.879   3.318
17468W        W89084  19.529  11.228   3.215
17469W        W89085  15.240  28.570  14.878
17470W        W89086  15.626  43.524   3.139
17471W        W89087  16.243   2.279   1.197
17472W        W89088  16.660  17.544  12.470
17473W        W89089   3.213  19.234  13.138
17474W        W89090   8.700  41.059   4.037
17475W        W89091   1.809   9.076   2.899
17476W        W89092  14.837  19.885  14.833
17477W        W89093  39.327  18.691  14.387
17478W        W89094  15.308  17.150  11.560
17479W        W89095  34.689  42.053   2.718
17480W        W89096  44.368  41.726  14.003
17481W        W89097  40.778  38.730  14.029
17482W        W89098  35.016   5.444   3.236
17483W        W89099  10.415  26.956  12.782
17484W        W89100  33.698   2.340   4.532
17485W        W89101  34.454  34.604   0.791
17486W        W89102   6.515  11.905   1.302
17487W        W89103  39.005  16.327   2.768
17488W        W89104  17.641   6.316  12.346
17489W        W89105   9.623  38.228   2.475
17490W        W89106  13.420  43.819  11.611
17491W        W89107   2.823  30.451  10.866
17492W        W89108  18.813  37.474  12.547
17493W        W89109   6.232  11.684  13.395
17494W        W89110  14.885   8.169   2.520
17495W        W89111   3.771   7.147   4.315
17496W        W89112   0.855  18.980   4.500
17497W        W89113   8.674  26.506   1.731
17498W        W89114  33.042  14.103  13.865
17499W        W89115  14.938  32.503   4.843
17500W        W89116   6.597  40.062  13.913
17501W        W89117  34.774  35.494   4.011
17502W        W89118  25.751  36.605   0.337
17503W        W89119  37.885   0.004  12.089
17504W        W89120  41.730  13.323  14.794
17505W        W89121  43.214  44.963   4.125
17506W        W89122  20.118  42.526   1.210
17507W        W89123   8.130  18.300  12.507
17508W        W89124  13.896   0.254  13.493
17509W        W89125   4.833  42.817   2.339
17510W        W89126  20.461  11.096  11.850
17511W        W89127  44.335   9.401  13.586
17512W        W89128  42.680  22.654   2.714
17513W        W89129  21.196   8.621  11.140
17514W        W89130   4.425  35.018   1.739
17515W        W89131  42.460   9.142   4.888
17516W        W89132  10.872  26.276   2.422
17517W        W89133  30.523  13.168  12.092
17518W        W89134  13.597  10.723  13.555
17519W        W89135   8.199  40.508  11.424
17520W        W89136  14.407   2.945   4.198
17521W        W89137  21.584  31.480   3.810
17522W        W89138   9.308  30.145   3.831
17523W        W89139  13.846  41.480  10.666
17524W        W89140  26.254   7.131  12.851
17525W        W89141  28.291   7.780  13.476
17526W        W89142  20.931   3.484   2.611
17527W        W89143  25.403  36.421  10.884
17528W        W89144  27.003  21.781   2.473
17529W        W89145  44.030  18.685  10.381
17530W        W89146  33.019   6.193   2.689
17531W        W89147   9.603  27.542   1.763
17532W        W89148  31.157  11.266   3.204
17533W        W89149  41.079  42.747  13.778
17534W        W89150  43.882  40.729   2.820
17535W        W89151   1.272  18.872   0.890
17536W        W89152  39.813  13.087  11.546
17537W        W89153  39.761  33.092   3.673
17538W        W89154  41.085  24.614   4.630
17539W        W89155  17.323  42.624   3.767
17540W        W89156  31.716  29.033  12.785
17541W        W89157  36.497  25.264  13.413
17542W        W89158  23.195  32.105  12.690
17543W        W89159  33.681  35.987   3.757
17544W        W89160   3.159  12.674  14.873
17545W        W89161  12.261  24.957   2.801
17546W        W89162   8.726   6.026   2.912
17547W        W89163  37.369   5.989  12.875
17548W        W89164   4.209   5.455   3.308
17549W        W89165  37.555  39.966  11.659
17550W        W89166   4.609  19.409   4.178
17551W        W89167  26.247  17.070   0.914
17552W        W89168   2.376  21.618  12.527
17553W        W89169  30.972   5.116  10.169
17554W        W89170  42.585  27.106  14.726
17555W        W89171  13.013  12.251  10.624
17556W        W89172   9.309  15.874   2.161
17557W        W89173  17.855  23.709   0.532
17558W        W89174  43.326   5.450   2.786
17559W        W89175   1.223  10.923  13.908
17560W        W89176  16.812  31.889  10.271
17561W        W89177   5.788  41.666   4.632
17562W        W89178   4.300   8.116   2.635
17563W        W89179  17.691  36.117  10.651
17564W        W89180  33.509  36.266  12.821
17565W        W89181  23.116  44.810  12.728
17566W        W89182   4.843   2.393  14.522
17567W        W89183  44.914  19.027   0.848
17568W        W89184  16.777   3.616  10.527
17569W        W89185   1.928  27.851  14.935
17570W        W89186  30.505  40.525   0.706
17571W        W89187  24.926  39.521   4.577
17572W        W89188  44.947  22.262   3.611
17573W        W89189   5.907  11.289  11.569
17574W        W89190  31.861   6.878   4.732
17575W        W89191   2.705   5.023   3.274
17576W        W89192  34.584  43.342  12.996
17577W        W89193   7.766  23.181  13.733
17578W        W89194  35.961  10.180   1.086
17579W        W89195  34.400  16.838  12.339
17580W        W89196  25.747   2.146  11.722
17581W        W89197  43.933  13.163  11.981
17582W        W89198   2.203  28.224   2.119
17583W        W89199  14.631  20.175   0.786
17584W        W89200  31.151  11.039  13.386
17585W        W89201  44.193   9.384   0.919
17586W        W89202   0.321  17.662  10.357
17587W        W89203  26.665  31.561   4.159
17588W        W89204   5.970  19.804  12.067
17589W        W89205  30.475  21.823   0.973
17590W        W89206  19.772  36.919   4.671
17591W        W89207  36.594   9.066  10.637
17592W        W89208  40.347  21.025   9.990
17593W        W89209  26.414  36.785  11.566
17594W        W89210  16.216  15.671   5.145
17595W        W89211  23.163  29.978  13.054
17596W        W89212  19.074  20.037   4.124
17597W        W89213  40.684  14.677   3.854
17598W        W89214   2.442  40.495  11.543
17599W        W89215  40.828  13.858  14.914
17600W        W89216  32.738   6.886   0.827
17601W        W89217   2.515  25.476  14.425
17602W        W89218   1.338  11.584   3.835
17603W        W89219  30.188  21.174  14.472
17604W        W89220  37.033  19.602  13.047
17605W        W89221  12.056  16.583   1.718
17606W        W89222  31.032  20.195  12.370
17607W        W89223  22.268  23.627   0.935
17608W        W89224  29.773  34.952   4.641
17609W        W89225  21.696  23.856  11.974
17610W        W89226  13.208   8.274   0.982
17611W        W89227  29.699  38.794  13.002
17612W        W89228  30.444  32.123  11.113
17613W        W89229  20.644  13.329   4.615
17614W        W89230  44.988  21.033   3.077
17615W        W89231  19.278  19.681  14.187
17616W        W89232   0.929  15.073   3.304
17617W        W89233  23.623  32.082   0.959
17618W        W89234  13.831  29.391   3.270
17619W        W89235  14.701  10.807  13.576
17620W        W89236  44.156  41.496  10.681
17621W        W89237  19.963  22.203   3.869
17622W        W89238  33.986  12.760   1.712
17623W        W89239  31.837  41.387  10.766
17624W        W89240  10.041  18.374   3.300
17625W        W89241  32.457  35.066   4.178
17626W        W89242   0.884  12.761  12.040
17627W        W89243  26.980  22.731  11.946
17628W        W89244  30.878  26.668  14.933
17629W        W89245   5.468  24.599   0.965
17630W        W89246  26.922  23.201  11.724
17631W        W89247  20.696  25.543  13.384
17632W        W89248  44.392  27.471  10.384
17633W        W89249  19.523  31.428   1.244
17634W        W89250  29.570  25.277  10.660
17635W        W89251  11.542  24.968   4.072
17636W        W89252  30.454   1.198   3.677
17637W        W89253  16.850  17.298   4.674
17638W        W89254  32.993  13.273  13.468
17639W        W89255  31.996   4.442  11.576
17640W        W89256  28.383  30.724   0.346
17641W        W89257  44.257   9.828   2.318
17642W        W89258  41.273  34.403  14.228
17643W        W89259  24.236  11.259  11.469
17644W        W89260   5.820  31.534  14.469
17645W        W89261   3.393  22.288   4.318
17646W        W89262  22.124  19.568   0.348
17647W        W89263  21.393  44.030   1.601
17648W        W89264  19.178  12.293   2.532
17649W        W89265  42.228  33.164  11.912
17650W        W89266  33.563  44.248   1.369
17651W        W89267   2.643  18.189  12.855
17652W        W89268  15.588   1.961   3.318
17653W        W89269   0.223   2.849   0.505
17654W        W89270  18.644  30.111  11.577
17655W        W89271  14.776  35.984   3.334
17656W        W89272   2.282  25.134  13.906
17657W        W89273  21.313   9.161  10.275
17658W        W89274  38.946  35.797   2.821
17659W        W89275   3.846   9.625  10.608
17660W        W89276  33.957   5.964   2.315
17661W        W89277  13.434  36.826  14.606
17662W        W89278   7.935  32.053   3.611
17663W        W89279  12.633  17.664  12.994
17664W        W89280  26.978   1.024  14.861
17665W        W89281  36.083  13.254   3.318
17666W        W89282  10.747  29.882  10.563
17667W        W89283  30.903  33.125  11.486
17668W        W89284  41.391  13.942  12.951
17669W        W89285   3.751  13.321   2.775
17670W        W89286  15.536  16.111   4.595
17671W        W89287   1.967  34.350  14.510
17672W        W89288  28.499  11.651   4.495
17673W        W89289  33.881   6.372   3.724
17674W        W89290  27.967  33.694  13.614
17675W        W89291  28.938  21.959  11.576
17676W        W89292  38.242  44.767  10.823
17677W        W89293  31.411  34.324  14.272
17678W        W89294  38.796  36.370  11.146
17679W        W89295  13.888  31.116   1.359
17680W        W89296  25.005   3.716   0.304
17681W        W89297  13.466   9.294  14.487
17682W        W89298  42.548   1.188   0.546
17683W        W89299  35.034  39.379   3.890
17684W        W89300  41.488  35.874  12.869
17685W        W89301  14.800  42.227  12.005
17686W        W89302  13.059  27.069  13.439
17687W        W89303  19.125  30.884   4.781
17688W        W89304  23.562  19.038   1.428
17689W        W89305  39.372  41.830   0.321
17690W        W89306  21.975  19.804   3.584
17691W        W89307   6.870  43.378   1.298
17692W        W89308   3.746  39.017   1.318
17693W        W89309  16.811  24.392  11.427
17694W        W89310  15.272  25.103   2.654
17695W        W89311  31.981  14.890  10.737
17696W        W89312  43.988  35.409   1.670
17697W        W89313   6.823  38.245   3.569
17698W        W89314  28.210  13.779   4.200
17699W        W89315   7.448  12.257   3.587
17700W        W89316  28.212  42.271   4.522
17701W        W89317  24.202   9.863  11.539
17702W        W89318  38.800  37.945  12.444
17703W        W89319  31.670  24.745  10.740
17704W        W89320  15.926  20.732   2.812
17705W        W89321   1.755  11.713   0.199
17706W        W89322   4.424   3.494   0.365
17707W        W89323   1.456  15.601   3.295
17708W        W89324   9.273   4.198   2.319
17709W        W89325  17.765  19.265   2.955
17710W        W89326  18.672  37.572   2.077
17711W        W89327  43.818  35.444  10.909
17712W        W89328   0.902  11.528   1.341
17713W        W89329  36.593  11.400  14.414
17714W        W89330  29.100  27.991  12.494
17715W        W89331  22.830  29.594   5.057
17716W        W89332  22.565  31.904  12.035
17717W        W89333   3.413  34.330   1.431
17718W        W89334  14.075  21.344  12.988
17719W        W89335   1.969  39.871   2.418
17720W        W89336  44.003  25.566  14.471
17721W        W89337  14.737   9.198   0.222
17722W        W89338   0.845   2.526  13.574
17723W        W89339  36.493   6.177  14.927
17724W        W89340   1.455  22.504   3.644
17725W        W89341  16.609   3.454   0.719
17726W        W89342  13.414  15.565  13.362
17727W        W89343  17.483  24.756   3.708
17728W        W89344  26.133  17.505   4.691
17729W        W89345  26.049  29.446  14.606
17730W        W89346  31.308  24.116  13.477
17731W        W89347  16.478  14.536  11.416
17732W        W89348   9.857  20.049  14.821
17733W        W89349  26.124  41.121  14.994
17734W        W89350  32.684  37.257  12.593
17735W        W89351  23.797   5.496   3.141
17736W        W89352   0.059  10.083   3.943
17737W        W89353  24.010  32.627  12.121
17738W        W89354  24.255   5.707   3.295
17739W        W89355  24.945  14.860  14.383
17740W        W89356  31.368  28.968  13.696
17741W        W89357  31.988   3.772   2.821
17742W        W89358  12.209  35.817   1.012
17743W        W89359  28.915  26.747   2.223
17744W        W89360  29.907  20.488   2.277
17745W        W89361  39.075  25.814  13.002
17746W        W89362  28.024   6.242  10.127
17747W        W89363  11.740  29.875   1.357
17748W        W89364  25.563  14.818   2.322
17749W        W89365  16.629   6.889  11.672
17750W        W89366  36.880  28.667   1.262
17751W        W89367  32.326  20.288  10.510
17752W        W89368  21.359  43.970   0.374
17753W        W89369  41.738  36.895  13.477
17754W        W89370  20.420  42.763   3.699
17755W        W89371  40.479  26.699  12.397
17756W        W89372  15.063  30.635   1.374
17757W        W89373  37.968  31.950   3.250
17758W        W89374  26.745  35.800  13.887
17759W        W89375  42.849  29.496  10.724
17760W        W89376  37.928  15.240   0.835
17761W        W89377  32.504  42.564   1.762
17762W        W89378  23.211  17.765   2.158
17763W        W89379  42.037  24.177   2.264
17764W        W89380  40.136  16.566   1.333
17765W        W89381  22.018   2.828  10.605
17766W        W89382  28.090   1.988  11.701
17767W        W89383  14.261  15.845   3.287
17768W        W89384  16.650  38.882  11.595
17769W        W89385   5.648   5.875   1.290
17770W        W89386  10.452   6.459  13.540
17771W        W89387  11.746  42.607   3.752
17772W        W89388  22.019  35.941   2.299
17773W        W89389  33.496  37.853   0.481
17774W        W89390  26.636  42.818  11.149
17775W        W89391  35.011  39.498  14.691
17776W        W89392  38.079  44.994   3.274
17777W        W89393  37.451  38.624   3.133
17778W        W89394  11.147  41.362  10.890
17779W        W89395  42.806   8.271   4.132
17780W        W89396  16.093  31.077   3.434
17781W        W89397  35.130  42.711  14.943
17782W        W89398   9.454  20.745  14.311
17783W        W89399  41.571  16.765  13.523
17784W        W89400   2.039  15.250  12.082
17785W        W89401  25.134  40.405  13.038
17786W        W89402  12.671  16.054   4.314
17787W        W89403  15.284  22.279   3.639
17788W        W89404  34.863  21.090   4.410
17789W        W89405  29.265  23.691  11.985
17790W        W89406  30.494  43.191   1.340
17791W        W89407  31.999  22.618   4.274
17792W        W89408   9.095  25.002   2.347
17793W        W89409  16.679  44.047  11.730
17794W        W89410  23.575  20.490  13.820
17795W        W89411  33.419  17.133  11.661
17796W        W89412  38.995  30.047  14.426
17797W        W89413  39.940  35.070  12.940
17798W        W89414  38.627  36.142  12.359
17799W        W89415  31.089  41.750   4.539
17800W        W89416  28.082  25.255   3.587
17801W        W89417  22.754  33.543   4.282
17802W        W89418  35.511  13.418  11.923
17803W        W89419  36.996  17.327  10.571
17804W        W89420  35.051  41.801  14.692
17805W        W89421  17.542  16.936   9.599
17806W        W89422  34.031   9.861  10.831
17807W        W89423  28.157  10.611  11.339
17808W        W89424  32.176  44.329   4.142
17809W        W89425  22.607  22.108   3.759
17810W        W89426   0.062   4.223   3.307
17811W        W89427  37.483  39.513  10.739
17812W        W89428  23.436  32.595  13.479
17813W        W89429   5.139   1.422  13.971
17814W        W89430  31.193  11.303  12.961
17815W        W89431  40.381  42.295   1.871
17816W        W89432  44.248  26.750  12.468
17817W        W89433  12.767  15.206   1.807
17818W        W89434   5.717  14.669  11.907
17819W        W89435  30.556   6.250   2.321
17820W        W89436  11.418  13.653  13.839
17821W        W89437  15.156  22.242   1.308
17822W        W89438  22.953  34.131   0.795
17823W        W89439  31.815   4.298  12.041
17824W        W89440  44.477  38.580  14.886
17825W        W89441  22.172  41.401   2.131
17826W        W89442  27.616  13.658  14.012
17827W        W89443  35.670  13.314   3.629
17828W        W89444  27.645   1.303  14.904
17829W        W89445  36.561  11.767  13.127
17830W        W89446   1.431  18.251   4.375
17831W        W89447  21.060  10.132   3.244
17832W        W89448  25.504  39.314  13.803
17833W        W89449  16.832   0.380   4.830
17834W        W89450  12.139  25.886  14.831
17835W        W89451   0.538  11.538  14.858
17836W        W89452  27.127  29.671   4.348
17837W        W89453  42.308  35.380   5.293
17838W        W89454  38.700  20.255   4.539
17839W        W89455  10.574  31.075  11.445
17840W        W89456  20.656   8.420  11.207
17841W        W89457   7.212  28.457   2.353
17842W        W89458  30.644  42.456   0.026
17843W        W89459  17.211  15.902   2.905
17844W        W89460  16.781  41.544   3.702
17845W        W89461  37.707  34.435   1.190
17846W        W89462  10.280  36.594   0.134
17847W        W89463  18.034  21.818  14.786
17848W        W89464   7.832  13.234   3.825
17849W        W89465  12.665   3.040  11.889
17850W        W89466   6.201  10.360   9.946
17851W        W89467  40.837  32.561  10.749
17852W        W89468   4.287   3.938  11.652
17853W        W89469  16.813  25.972   2.895
17854W        W89470  20.824  29.562  10.678
17855W        W89471  44.509   8.317  12.190
17856W        W89472   7.547   7.186  12.940
17857W        W89473  10.741  20.270   0.105
17858W        W89474   7.253  16.178  14.928
17859W        W89475  22.209  27.824  14.964
17860W        W89476  15.852  39.469  10.703
17861W        W89477   5.662  11.161  11.114
17862W        W89478  29.670  14.487  13.236
17863W        W89479  13.665  41.252   1.190
17864W        W89480  33.888  38.783  14.949
17865W        W89481  23.886  34.149  10.127
17866W        W89482  13.742  44.597  12.362
17867W        W89483  40.279  33.327  12.997
17868W        W89484   3.439  40.916  13.856
17869W        W89485  22.927   2.880  10.731
17870W        W89486  14.066  12.344  11.459
17871W        W89487  34.186   4.120  14.804
17872W        W89488  28.865  32.413   3.238
17873W        W89489  28.207  29.520  14.049
17874W        W89490   4.771  29.984  12.939
17875W        W89491   6.338   7.846  11.505
17876W        W89492  42.522  21.971   3.231
17877W        W89493  19.596  41.869   1.298
17878W        W89494  35.284  33.506   4.514
17879W        W89495  27.622  29.457   1.278
17880W        W89496  15.335  16.656  11.002
17881W        W89497  32.089  10.223  13.771
17882W        W89498  17.234  28.241  13.887
17883W        W89499  22.634  41.248   1.932
17884W        W89500  40.895  19.282   3.145
17885W        W89501  12.340  20.141   2.638
17886W        W89502   0.285  39.345   0.276
17887W        W89503  11.697  42.492  11.602
17888W        W89504  39.496  16.093  14.445
17889W        W89505  21.781  37.076   2.753
17890W        W89506  27.581  22.783   2.807
17891W        W89507  24.094  38.613   2.265
17892W        W89508  40.763  40.622   0.475
17893W        W89509  25.608  35.916   3.051
17894W        W89510  35.789  38.961  11.125
17895W        W89511  33.967  16.398  11.493
17896W        W89512  15.150  13.586  13.499
17897W        W89513  30.573  41.555   1.885
17898W        W89514  43.186   6.285   0.781
17899W        W89515  38.479  10.556   5.262
17900W        W89516   8.798   3.727  11.935
17901W        W89517   2.291  34.548  10.731
17902W        W89518  41.556  31.459  10.678
17903W        W89519  35.448   8.356  12.422
17904W        W89520  18.502   0.756  10.772
17905W        W89521  37.304  35.043  11.583
17906W        W89522  42.953  34.870  10.524
17907W        W89523  22.074  29.206   1.962
17908W        W89524   1.575  27.315  12.866
17909W        W89525   5.942  20.303  12.106
17910W        W89526   7.339  38.123   4.446
17911W        W89527  42.558   4.759  10.642
17912W        W89528   3.324  14.782  10.652
17913W        W89529  35.428  30.104   1.992
17914W        W89530  17.089   2.011   2.102
17915W        W89531   8.198  18.580  13.438
17916W        W89532   0.054  41.628  13.055
17917W        W89533   0.688  13.691   4.183
17918W        W89534   2.944  43.889   1.730
17919W        W89535  31.596  35.441   2.308
17920W        W89536  30.402  30.951   1.318
17921W        W89537  44.992  39.957  11.949
17922W        W89538  32.564  28.125   4.132
17923W        W89539  36.364  12.834   2.858
17924W        W89540  30.158  40.031   3.927
17925W        W89541  18.766  27.015  13.501
17926W        W89542  38.959  37.468  14.303
17927W        W89543  13.113  31.252  12.173
17928W        W89544   1.466  43.591  10.450
17929W        W89545  26.418  30.979   1.400
17930W        W89546  23.985  26.619   1.911
17931W        W89547  42.793   0.803  13.352
17932W        W89548  25.733  25.289  11.090
17933W        W89549  16.148  11.801  13.449
17934W        W89550  23.245  22.031  14.624
17935W        W89551  12.588  22.969   1.830
17936W        W89552  12.083  32.105   0.878
17937W        W89553  18.446   4.701  11.995
17938W        W89554  12.399  24.488  14.973
17939W        W89555   0.360  35.125  11.858
17940W        W89556  21.188   4.937   1.311
17941W        W89557  29.045  42.049  14.337
17942W        W89558   8.419  35.569  14.019
17943W        W89559  37.178   4.618   5.029
17944W        W89560  44.822   4.573   2.385
17945W        W89561  43.734  44.498  12.681
17946W        W89562  19.360  32.154  12.803
17947W        W89563  34.344  32.205  10.723
17948W        W89564   7.228   4.339   1.364
17949W        W89565   5.207   3.905  12.600
17950W        W89566  35.174  21.145  11.652
17951W        W89567  25.726   6.797   3.169
17952W        W89568  12.702  16.312  13.174
17953W        W89569   8.359   8.697  10.683
17954W        W89570  39.322   8.873   5.107
17955W        W89571  36.907  18.383  14.910
17956W        W89572  36.443  21.743   1.369
17957W        W89573  12.679  31.085   2.253
17958W        W89574  40.279   3.296   0.467
17959W        W89575  38.915  28.990   1.725
17960W        W89576  20.725  25.504  11.833
17961W        W89577  38.807  33.993   1.097
17962W        W89578  44.968  25.106  13.329
17963W        W89579  21.621  32.356  11.977
17964W        W89580  41.056  43.450   4.704
17965W        W89581  41.574  13.388   4.500
17966W        W89582  20.093  22.346  12.682
17967W        W89583  30.313  21.672  11.611
17968W        W89584   3.247  44.900  14.407
17969W        W89585  26.965  18.758  12.421
17970W        W89586  27.057   5.582  11.927
17971W        W89587  23.330  44.854   3.563
17972W        W89588  29.486  13.578   0.746
17973W        W89589  13.176  16.988   1.046
17974W        W89590  13.000  10.216   3.185
17975W        W89591  37.669  18.176   0.355
17976W        W89592   4.695  38.370  13.298
17977W        W89593  29.435  21.729  10.603
17978W        W89594  15.659  23.413   1.636
17979W        W89595   7.304   6.412  13.408
17980W        W89596  29.708   3.969   2.871
17981W        W89597  28.259  32.783   1.238
17982W        W89598   2.651  37.499   2.569
17983W        W89599  26.608   0.453  13.897
17984W        W89600   2.875  42.291   0.763
17985W        W89601  29.041  28.458   2.320
17986W        W89602  36.456  19.704  10.154
17987W        W89603  13.751   6.885  12.645
17988W        W89604  17.081  19.241  14.956
17989W        W89605   3.679  18.524  12.427
17990W        W89606  22.695   1.469  13.203
17991W        W89607  39.834  21.980   3.921
17992W        W89608  44.329  13.653  12.504
17993W        W89609  22.703  10.346   1.760
17994W        W89610  37.265   7.898   0.921
17995W        W89611   2.900  40.759  12.509
17996W        W89612  15.720  28.795   5.039
17997W        W89613  12.313  13.244   2.649
17998W        W89614  39.348  40.146  12.882
17999W        W89615  22.297  13.350   3.697
18000W        W89616  37.966  29.020   3.800
18001W        W89617  35.609  24.669  11.555
18002W        W89618  13.755  16.102  12.488
18003W        W89619   3.285  16.660  12.991
18004W        W89620  38.344   3.908   0.232
18005W        W89621  11.260  27.384   3.307
18006W        W89622  23.023  41.106  13.132
18007W        W89623  29.261  20.207  12.044
18008W        W89624  34.888  20.725  12.917
18009W        W89625  29.179   3.783  11.928
18010W        W89626  41.125  19.024   3.549
18011W        W89627  25.162  38.361  12.849
18012W        W89628   6.012  40.985   2.624
18013W        W89629  41.916  19.245  13.011
18014W        W89630   1.982  25.538   3.318
18015W        W89631  41.854  26.089  14.749
18016W        W89632  41.088   3.155   0.016
18017W        W89633  28.157  19.665   1.437
18018W        W89634  28.928  29.911   2.263
18019W        W89635  38.867  34.334   3.905
18020W        W89636  44.062   6.656   2.826
18021W        W89637  21.739   2.757  11.539
18022W        W89638  19.036  14.695   1.739
18023W        W89639  24.610  22.477   3.181
18024W        W89640  23.564   9.936   3.200
18025W        W89641  38.978  16.180  14.345
18026W        W89642  13.249  16.273  10.494
18027W        W89643  19.206  36.861  14.791
18028W        W89644  14.690  29.663   2.395
18029W        W89645  40.973  18.775   3.123
18030W        W89646  10.836  31.952  14.313
18031W        W89647   6.304  19.653  12.435
18032W        W89648  43.750  36.071   4.601
18033W        W89649  23.691  43.865  12.079
18034W        W89650   1.422  42.767   0.368
18035W        W89651   3.377  12.707   1.874
18036W        W89652  10.828   2.756  11.580
18037W        W89653   1.789  20.199  13.059
18038W        W89654  33.022  35.495  11.087
18039W        W89655  24.501  15.244  12.948
18040W        W89656  16.844  24.803   4.291
18041W        W89657   8.110  15.552  13.497
18042W        W89658  32.057  37.938   1.282
18043W        W89659  23.562   7.885   3.281
18044W        W89660  35.020   3.247  13.940
18045W        W89661   3.445   3.780   2.638
18046W        W89662  20.947  10.859  10.630
18047W        W89663  17.817  18.099   1.913
18048W        W89664  35.062  24.518   0.277
18049W        W89665  17.783  26.138  14.419
18050W        W89666  37.433  41.748   3.150
18051W        W89667  12.723  35.432   2.456
18052W        W89668  39.806  31.498   3.270
18053W        W89669  31.877  14.190   3.161
18054W        W89670  16.772  33.816   1.328
18055W        W89671   9.880  34.518  11.655
18056W        W89672  23.111  22.224   3.631
18057W        W89673  13.501  35.100  13.141
18058W        W89674  22.029  13.169  11.516
18059W        W89675  44.898  30.452   4.819
18060W        W89676   6.128  31.717   2.788
18061W        W89677  25.535  44.797  14.251
18062W        W89678  22.395  23.575   1.734
18063W        W89679  33.081  17.975   0.722
18064W        W89680  21.860   3.866   2.764
18065W        W89681  27.551   0.707   0.653
18066W        W89682  12.845  43.773  11.604
18067W        W89683  43.922   6.902   0.832
18068W        W89684  26.998  26.027   3.840
18069W        W89685  36.528  15.472   4.529
18070W        W89686  19.690  42.521   0.261
18071W        W89687  18.748  41.673  12.471
18072W        W89688   3.208  18.350   4.099
18073W        W89689  38.039  13.060   4.651
18074W        W89690  42.109   6.229  13.525
18075W        W89691   6.770  12.728   1.561
18076W        W89692  29.633  20.096  13.963
18077W        W89693  16.318  19.324   0.978
18078W        W89694  33.823   8.293   4.123
18079W        W89695  20.816   9.873   4.380
18080W        W89696  14.540  17.013   2.818
18081W        W89697  26.719  17.381   5.065
18082W        W89698  32.194  10.380   4.542
18083W        W89699  13.878  12.370  13.568
18084W        W89700   7.866   3.146   1.403
18085W        W89701  20.516  32.868  14.516
18086W        W89702  27.884  41.423  13.297
18087W        W89703  22.574  22.130   2.873
18088W        W89704  16.156  14.303   2.819
18089W        W89705  21.243  25.800   1.467
18090W        W89706  33.471   5.960  14.919
18091W        W89707  22.183  28.587   0.408
18092W        W89708  27.293  25.269  14.324
18093W        W89709  11.017   8.389  14.762
18094W        W89710  40.035  10.074   3.928
18095W        W89711  24.148   9.782  12.473
18096W        W89712  11.780  40.440   0.871
18097W        W89713  14.801   2.439   1.161
18098W        W89714  26.655  17.256   1.364
18099W        W89715  27.183  24.662   2.001
18100W        W89716  28.504  34.301  14.277
18101W        W89717  38.013   0.842  10.675
18102W        W89718   0.177  26.699   5.073
18103W        W89719   7.684  31.431  14.267
18104W        W89720  23.074   1.770  10.680
18105W        W89721  14.417  20.013   4.217
18106W        W89722  42.775  18.174  12.660
18107W        W89723  27.574  16.851   1.871
18108W        W89724  40.858  25.750  14.257
18109W        W89725  42.601  42.529  11.029
18110W        W89726  11.782  37.873   2.807
18111W        W89727   6.043  40.596   0.141
18112W        W89728  13.185  41.324   0.309
18113W        W89729   0.093   6.212  10.948
18114W        W89730  17.111  32.594  14.611
18115W        W89731  24.191  19.945  12.205
18116W        W89732   3.540  41.992   4.733
18117W        W89733  13.189  21.774   1.220
18118W        W89734  40.084  26.585   3.729
18119W        W89735  14.763  13.748  13.837
18120W        W89736  40.308  13.087   0.000
18121W        W89737  10.786  40.906  13.316
18122W        W89738  39.341  16.572  13.535
18123W        W89739  13.138  36.642   0.396
18124W        W89740  27.115  38.176   3.053
18125W        W89741  34.356  38.774  14.130
18126W        W89742  18.723  12.034   1.507
18127W        W89743  33.373  14.753  14.290
18128W        W89744  44.246   5.900  14.497
18129W        W89745   3.289  28.338   4.595
18130W        W89746  24.480  33.487   3.113
18131W        W89747  39.144  41.929  13.120
18132W        W89748  41.095  20.694  14.921
18133W        W89749  15.739  29.133  14.401
18134W        W89750  37.527  17.192   0.096
18135W        W89751  28.087   7.922  11.525
18136W        W89752  23.180  36.828  10.679
18137W        W89753  41.818  21.532  11.585
18138W        W89754   2.470   5.364   0.929
18139W        W89755  27.095  12.693  11.639
18140W        W89756  36.535   0.438   3.943
18141W        W89757  41.901  19.265  11.176
18142W        W89758  13.117  15.401  12.327
18143W        W89759  14.008   2.865  14.319
18144W        W89760  30.236  20.133  14.364
18145W        W89761  13.172  42.254   3.678
18146W        W89762  38.353  29.501   3.000
18147W        W89763  42.599  44.805  11.799
18148W        W89764   2.792  44.345  14.595
18149W        W89765  33.527  28.228   0.474
18150W        W89766  43.034  25.997   4.590
18151W        W89767  32.737  20.014  13.375
18152W        W89768   0.896   7.352   0.857
18153W        W89769  28.052  24.633   1.896
18154W        W89770  12.739  28.026   4.610
18155W        W89771  39.026   0.873  12.098
18156W        W89772   6.408  32.068  13.275
18157W        W89773  35.118  44.774   4.157
18158W        W89774  32.398  42.795   0.929
18159W        W89775  23.554   8.857  11.972
18160W        W89776  44.852  21.558  10.531
18161W        W89777   4.752  41.035   1.939
18162W        W89778  44.018  41.116  12.406
18163W        W89779  18.780   9.256   0.524
18164W        W89780  41.821  16.043  11.110
18165W        W89781   2.778  10.656  10.568
18166W        W89782  29.080   7.109  14.301
18167W        W89783  33.502  44.789   1.292
18168W        W89784  39.611  32.082   4.551
18169W        W89785  43.494   8.201   4.775
18170W        W89786  42.946  14.819  14.957
18171W        W89787   7.372  21.704   3.232
18172W        W89788  17.325  36.450   2.450
18173W        W89789   2.587   3.325   3.693
18174W        W89790  36.841  25.090   0.137
18175W        W89791  36.353  11.551  13.544
18176W        W89792  21.485   6.221  10.468
18177W        W89793   0.308  42.762  13.951
18178W        W89794  12.576  10.896  11.584
18179W        W89795  25.041  42.934  12.650
18180W        W89796  21.064  43.978  12.427
18181W        W89797  18.667  14.270   3.221
18182W        W89798  44.527  28.036  11.126
18183W        W89799   1.863  13.219  13.291
18184W        W89800  40.999  35.060  14.240
18185W        W89801  42.995  13.093  11.916
18186W        W89802  20.217  24.982  14.383
18187W        W89803  12.850  16.537   1.386
18188W        W89804  20.164   3.214   1.960
18189W        W89805  40.251  41.537   2.741
18190W        W89806  16.250  17.538   1.210
18191W        W89807  13.725  41.502   4.702
18192W        W89808  16.114  28.683   0.331
18193W        W89809   2.497  19.076  11.099
18194W        W89810   9.204  31.546   2.617
18195W        W89811  44.950  34.562  11.646
18196W        W89812  38.038  15.523  11.539
18197W        W89813  20.086  39.437   2.392
18198W        W89814   0.243   3.875  12.090
18199W        W89815  36.949  24.676  11.850
18200W        W89816  12.035  26.953  14.445
18201W        W89817  35.592  13.176   1.933
18202W        W89818  22.976  39.828   0.450
18203W        W89819  36.115  26.226  10.671
18204W        W89820  27.116   6.890   3.057
18205W        W89821  21.432  27.684  11.613
18206W        W89822   4.201  30.162   2.320
18207W        W89823  43.241   9.628  11.207
18208W        W89824  20.681  32.141   4.118
18209W        W89825  34.498   8.652  13.574
18210W        W89826  37.734  16.721  12.918
18211W        W89827  19.178   4.183   1.852
18212W        W89828   9.515  30.049  11.692
18213W        W89829  31.483  37.532  11.215
18214W        W89830   5.481  15.351  13.878
18215W        W89831  23.073  36.986   2.364
18216W        W89832   5.321  11.374   0.018
18217W        W89833  34.307  32.920   0.828
18218W        W89834  29.159  16.830   0.412
18219W        W89835  27.048  36.327  11.147
18220W        W89836  25.791  30.211   4.705
18221W        W89837  43.838  20.527  10.736
18222W        W89838  30.382  12.199   2.326
18223W        W89839  37.454  39.107   4.025
18224W        W89840  35.905  32.858  10.558
18225W        W89841  20.134  13.128   3.765
18226W        W89842  23.557  27.196  12.542
18227W        W89843  36.135   3.681  11.024
18228W        W89844   0.830   0.233   3.324
18229W        W89845   7.309   3.851   3.581
18230W        W89846  31.021  30.476  14.306
18231W        W89847  16.710  17.543   2.360
18232W        W89848  39.786   0.310   1.147
18233W        W89849  18.862  23.648   3.758
18234W        W89850   6.252  22.316  14.071
18235W        W89851   2.543  28.560   1.901
18236W        W89852  20.483  42.749   4.486
18237W        W89853  36.704  16.138  14.737
18238W        W89854  29.997  16.356  14.487
18239W        W89855   1.907   1.288  12.125
18240W        W89856  20.540  10.149   0.864
18241W        W89857  20.233  15.262   4.611
18242W        W89858  33.436  24.415   1.491
18243W        W89859  26.578  40.842   2.759
18244W        W89860  19.178  38.485  12.776
18245W        W89861  23.291  31.726  13.565
18246W        W89862  16.296  26.375   2.379
18247W        W89863   2.494  12.947   3.670
18248W        W89864  32.365  39.400   4.224
18249W        W89865  22.249  16.318   2.268
18250W        W89866  19.113  30.188  12.466
18251W        W89867  19.593   4.186   2.164
18252W        W89868   6.526  35.752   4.463
18253W        W89869   4.972   6.267  13.352
18254W        W89870   5.200  33.512  11.426
18255W        W89871   6.511  23.551  13.517
18256W        W89872  20.511  36.174  11.571
18257W        W89873  28.541   2.251  11.926
18258W        W89874  34.371   5.499   2.845
18259W        W89875  17.268  37.084  11.732
18260W        W89876  25.245   2.771   1.483
18261W        W89877  29.044  22.553  11.505
18262W        W89878  18.003   5.681  10.684
18263W        W89879  37.811  40.735  13.378
18264W        W89880   1.876  25.127   4.670
18265W        W89881  29.974  29.211   4.264
18266W        W89882  35.525  21.416  10.033
18267W        W89883  29.010  29.586  10.060
18268W        W89884  17.638  20.322   0.874
18269W        W89885   3.668   2.202   3.666
18270W        W89886  27.963  16.784   5.044
18271W        W89887   7.997  41.845  14.355
18272W        W89888  34.912  37.218   0.877
18273W        W89889  16.206  17.488   4.926
18274W        W89890  11.183   1.414   4.055
18275W        W89891  37.292   6.918   1.214
18276W        W89892  38.984  19.524   9.977
18277W        W89893  27.827  19.588   4.629
18278W        W89894  20.702  33.347   1.934
18279W        W89895  20.889  21.588  11.980
18280W        W89896  44.883  43.882  11.850
18281W        W89897   0.853  13.099  10.776
18282W        W89898  36.675  41.914   4.239
18283W        W89899  29.487  21.518   3.185
18284W        W89900  40.697  43.320   2.897
18285W        W89901  28.401  11.800   2.674
18286W        W89902  25.433  36.990  14.007
18287W        W89903  24.760  30.889   4.533
18288W        W89904   2.126  25.654  10.105
18289W        W89905  33.581  44.422  10.346
18290W        W89906  31.877   2.203   0.291
18291W        W89907  29.616  30.526   0.891
18292W        W89908   1.930  43.796  14.886
18293W        W89909  36.428   2.549   1.207
18294W        W89910   5.348  20.030   2.430
18295W        W89911   9.090  11.074  13.002
18296W        W89912   8.845  20.442   3.131
18297W        W89913  19.243   8.566  12.127
18298W        W89914  35.805   0.166  13.573
18299W        W89915  40.394  16.748   2.710
18300W        W89916  39.942  29.019  14.633
18301W        W89917  42.937   5.325   0.002
18302W        W89918  38.940  25.918  14.492
18303W        W89919  24.045  19.138  14.498
18304W        W89920  27.225  35.359  14.865
18305W        W89921  35.996  24.090  14.459
18306W        W89922   5.232  32.939   1.024
18307W        W89923   3.999   4.320   0.862
18308W        W89924  41.765  17.961  12.611
18309W        W89925  16.105  14.803   1.665
18310W        W89926  20.949  28.435  13.440
18311W        W89927  16.183   0.500  10.779
18312W        W89928  26.016  34.428   0.445
18313W        W89929  26.390  26.118  13.397
18314W        W89930  40.476  41.955   4.497
18315W        W89931  13.851   3.246   5.040
18316W        W89932  24.136   0.913  12.793
18317W        W89933   1.536  14.700   3.635
18318W        W89934  27.323  29.393   3.733
18319W        W89935  25.709  13.432  11.621
18320W        W89936  11.341  22.953   3.652
18321W        W89937  18.133  43.724   1.913
18322W        W89938  37.462  13.044   1.086
18323W        W89939  25.167  12.718  12.469
18324W        W89940  10.288  36.227   3.319
18325W        W89941  15.639  11.677  13.540
18326W        W89942  14.938  29.449   4.106
18327W        W89943  32.919  38.923  12.019
18328W        W89944  15.097  31.913  13.816
18329W        W89945  11.129  22.212   2.171
18330W        W89946  43.908   0.960   2.623
18331W        W89947   7.159  40.007  14.137
18332W        W89948  41.966  20.047  11.621
18333W        W89949  31.007  39.722   0.279
18334W        W89950  28.974  31.049  14.006
18335W        W89951  41.302  33.663   0.571
18336W        W89952  43.313  33.326   3.014
18337W        W89953  12.805  37.025   0.779
18338W        W89954  23.995  34.603  10.737
18339W        W89955  17.848  37.012   1.791
18340W        W89956  22.614  30.195  14.858
18341W        W89957   1.710  26.798  12.792
18342W        W89958  38.237  18.888   0.432
18343W        W89959  35.038  27.548   1.262
18344W        W89960  35.105  34.940  10.600
18345W        W89961   5.376  42.823   4.154
18346W        W89962  13.128  30.521  11.166
18347W        W89963  43.911  15.030   3.709
18348W        W89964  12.442  14.445  10.599
18349W        W89965   5.267  21.720   3.460
18350W        W89966  28.869  43.359  12.383
18351W        W89967   7.501   3.688  10.699
18352W        W89968  16.556  13.905   1.211
18353W        W89969  16.525  19.092  13.931
18354W        W89970   6.234  19.669   0.051
18355W        W89971  15.181   8.125  13.765
18356W        W89972   7.180  24.240  11.512
18357W        W89973  12.273  23.063   3.619
18358W        W89974  15.960  21.119  11.571
18359W        W89975  30.666   8.289  10.721
18360W        W89976  26.648  16.776   1.702
18361W        W89977  33.898  32.993  11.936
18362W        W89978  38.473  16.253   2.061
18363W        W89979  19.398  39.038  12.577
18364W        W89980  38.716  27.945   3.302
18365W        W89981  14.653   0.504   5.119
18366W        W89982  44.273  12.642   4.197
18367W        W89983  21.295  18.227  10.928
18368W        W89984  43.935  34.889   1.738
18369W        W89985  28.108  44.026  10.264
18370W        W89986  41.479  17.629   4.884
18371W        W89987  13.608  24.983  10.932
18372W        W89988  18.545  26.157   1.807
18373W        W89989  33.634  26.325   0.514
18374W        W89990  41.754  12.823  10.770
18375W        W89991  15.161  24.175  12.076
18376W        W89992   7.879  42.560  12.978
18377W        W89993   8.096  18.062  11.663
18378W        W89994  31.876  20.920  11.078
18379W        W89995  38.955  20.742  13.407
18380W        W89996  42.082   1.184  11.282
18381W        W89997   8.956  19.883   1.824
18382W        W89998  25.243   4.381  13.032
18383W        W89999  10.998  31.606   2.247
18384W        W90000  36.821  32.362   0.493
18385W        W90001  26.528   5.211  10.557
18386W        W90002  20.043  43.192  13.833
18387W        W90003   7.918  30.963   4.445
18388W        W90004   3.095  15.172  12.617
18389W        W90005   0.791  16.781   4.643
18390W        W90006  34.795  36.469  11.985
18391W        W90007  31.320   3.995  13.978
18392W        W90008  33.406  18.425   1.266
18393W        W90009  44.824  16.623   3.269
18394W        W90010  23.703  33.101   0.661
18395W        W90011  34.314  26.952   0.940
18396W        W90012  12.923  23.118   2.800
18397W        W90013   2.618   2.414   2.702
18398W        W90014  11.846  28.153  14.707
18399W        W90015  11.307  30.934   4.007
18400W        W90016  44.340   6.346   3.681
18401W        W90017  29.129  30.594   1.686
18402W        W90018  13.479   3.227   4.251
18403W        W90019  29.734  37.478  12.922
18404W        W90020  13.572  28.479  11.387
18405W        W90021  15.272  25.118   3.696
18406W        W90022  22.618  29.856   2.279
18407W        W90023   5.174  21.913  12.422
18408W        W90024  20.248  29.563  14.092
18409W        W90025  44.445  30.517   3.497
18410W        W90026  27.270  32.545   3.631
18411W        W90027  41.765   9.252  14.113
18412W        W90028   8.314  21.747   1.946
18413W        W90029  26.069   7.646  13.918
18414W        W90030  35.058   5.397   2.352
18415W        W90031  28.157   0.694  13.372
18416W        W90032  15.756  14.332   2.479
18417W        W90033   2.833  11.246  13.608
18418W        W90034  26.124  19.220   1.713
18419W        W90035   2.553  17.201  13.301
18420W        W90036   5.229   8.971   2.192
18421W        W90037  25.782  28.168  13.503
18422W        W90038  44.570  28.927  10.617
18423W        W90039   2.066  25.179  14.375
18424W        W90040   3.322  31.587   2.712
18425W        W90041   9.781   8.103   3.870
18426W        W90042  40.894   5.443  10.748
18427W        W90043  42.128  25.981   3.400
18428W        W90044  13.492  13.226  11.466
18429W        W90045  43.806  14.790  13.483
18430W        W90046  37.513   4.170   3.210
18431W        W90047  38.176  29.460   1.755
18432W        W90048   3.746  32.662  12.805
18433W        W90049  27.786  44.483   3.204
18434W        W90050  11.789  15.414   2.910
18435W        W90051  13.734  17.064  10.297
18436W        W90052   3.947   4.436  10.745
18437W        W90053   8.219  28.755   2.018
18438W        W90054  36.488   6.097   4.308
18439W        W90055  43.759   8.922   3.277
18440W        W90056  34.268  30.625  11.645
18441W        W90057   5.313  23.645   3.795
18442W        W90058  39.416  27.510   0.937
18443W        W90059  34.376  27.892  11.927
18444W        W90060  27.434  28.019   3.204
18445W        W90061  26.336  15.079   0.054
18446W        W90062  41.806  19.225  14.543
18447W        W90063  38.046  22.933  13.491
18448W        W90064   9.069   6.810   4.887
18449W        W90065   2.090   5.039  13.569
18450W        W90066   8.353   1.289   0.297
18451W        W90067   6.307  26.482   0.162
18452W        W90068  10.822   8.209  11.680
18453W        W90069  39.425   7.915   4.078
18454W        W90070  29.561  18.613  13.920
18455W        W90071  15.787  22.256   5.018
18456W        W90072  25.250  33.060  13.376
18457W        W90073   2.854  22.194   1.720
18458W        W90074  14.188   0.403  10.120
18459W        W90075   6.705  12.112   3.765
18460W        W90076  11.423  11.611  12.958
18461W        W90077  10.232  24.190  11.492
18462W        W90078  12.306  40.322   0.864
18463W        W90079   7.899  11.248   0.901
18464W        W90080   4.325   6.280  11.932
18465W        W90081  41.391   3.892  13.970
18466W        W90082  33.245   1.901  10.608
18467W        W90083   3.968   1.454   2.280
18468W        W90084  37.457  29.432   2.589
18469W        W90085  11.592   0.276  14.450
18470W        W90086  20.086  28.786  11.064
18471W        W90087  11.014  29.572   4.176
18472W        W90088  27.369  11.423   1.847
18473W        W90089   6.127  32.305  12.321
18474W        W90090  24.784   8.759   3.283
18475W        W90091  26.655  29.134   2.613
18476W        W90092   7.881   7.867  12.012
18477W        W90093   8.590  28.578   4.069
18478W        W90094  38.816  13.040   2.178
18479W        W90095  41.066  22.554  12.795
18480W        W90096  25.316  20.324  12.174
18481W        W90097  19.751  21.153   0.268
18482W        W90098  32.535  34.005   2.663
18483W        W90099  16.998  10.343   3.734
18484W        W90100   0.423   9.405  14.839
18485W        W90101  19.269   0.702  11.928
18486W        W90102  41.393  24.695   4.228
18487W        W90103  31.640  31.664   4.149
18488W        W90104  41.106  43.951   2.191
18489W        W90105  35.278   5.803   4.637
18490W        W90106   8.947   3.731  14.955
18491W        W90107   7.489   6.383  14.394
18492W        W90108  33.584  15.333   1.989
18493W        W90109  43.868  20.715   3.417
18494W        W90110  11.831   2.551   3.600
18495W        W90111  31.572  28.262   2.689
18496W        W90112   8.246  19.759   1.839
18497W        W90113  26.453  41.383   0.973
18498W        W90114  20.627  21.752   4.668
18499W        W90115  36.300   8.657  10.694
18500W        W90116  21.977  13.177  10.731
18501W        W90117   5.423  31.507   2.017
18502W        W90118  29.242  28.397   0.865
18503W        W90119  37.294   4.255  14.985
18504W        W90120   4.587  26.315   2.707
18505W        W90121  33.386   0.692  11.203
18506W        W90122  31.777  33.883  11.345
18507W        W90123  30.024  33.513   1.607
18508W        W90124  17.844  42.820  12.370
18509W        W90125  32.224  34.591  12.537
18510W        W90126  39.000  22.572   4.164
18511W        W90127  24.248   4.191   3.176
18512W        W90128   9.199  30.370   0.230
18513W        W90129  34.130  24.123  14.079
18514W        W90130  44.314  43.216  13.195
18515W        W90131  40.203  38.028   4.644
18516W        W90132  39.606   8.600   3.141
18517W        W90133   2.491  17.685  12.109
18518W        W90134  18.633  20.277  10.972
18519W        W90135  33.133  28.218   3.713
18520W        W90136  17.479  43.067  13.712
18521W        W90137  21.748  36.982   4.623
18522W        W90138   4.616  35.794   3.540
18523W        W90139  31.188  44.710  12.411
18524W        W90140  27.485  41.566  10.962
18525W        W90141  22.260   8.685  14.421
18526W        W90142  25.574   7.733  13.979
18527W        W90143  38.346  34.680  14.894
18528W        W90144  13.147  30.102   3.940
18529W        W90145  10.870  27.716   4.757
18530W        W90146  38.153  36.738   1.761
18531W        W90147  13.768  22.918   3.239
18532W        W90148  32.452  29.674   3.212
18533W        W90149  12.111  16.996  13.342
18534W        W90150   2.753  38.781   4.693
18535W        W90151  42.947  25.723  10.858
18536W        W90152  14.713  29.966  12.297
18537W        W90153  26.511  40.069  13.306
18538W        W90154   6.025  34.871  14.524
18539W        W90155  43.326  34.903  13.420
18540W        W90156  22.668  39.258   1.669
18541W        W90157   9.345  41.883   4.085
18542W        W90158  21.245   7.854  11.608
18543W        W90159   6.646  27.436  11.640
18544W        W90160  10.484  28.229  14.327
18545W        W90161  33.361  25.247  12.632
18546W        W90162  17.192  31.656   2.716
18547W        W90163  20.177   5.274  14.415
18548W        W90164  43.392   4.849  13.889
18549W        W90165   9.919  32.349  11.531
18550W        W90166   6.415  41.785   0.765
18551W        W90167   5.762  28.618  10.889
18552W        W90168  14.828  31.653  14.223
18553W        W90169  14.777  29.790   1.246
18554W        W90170  24.101  22.488  14.457
18555W        W90171  34.836   1.642  12.060
18556W        W90172  30.891  34.398   0.412
18557W        W90173   4.848   1.727   3.692
18558W        W90174  40.311  38.950   0.745
18559W        W90175  37.811  35.002   2.406
18560W        W90176  42.099  16.618   0.908
18561W        W90177   9.204  29.054   3.308
18562W        W90178  41.164  34.706   2.395
18563W        W90179  37.340  13.295  11.611
18564W        W90180  31.841  36.610   0.457
18565W        W90181  20.017  35.666  13.285
18566W        W90182   1.816  20.194  12.547
18567W        W90183  31.510  33.929  13.426
18568W        W90184  43.632  37.520   2.258
18569W        W90185   8.861   7.275  12.690
18570W        W90186   5.445   2.948   2.306
18571W        W90187  23.713  23.682  13.026
18572W        W90188  28.511  36.421  14.732
18573W        W90189  15.799  22.289   2.714
18574W        W90190  17.034   9.608   4.206
18575W        W90191   7.916  14.854   3.209
18576W        W90192  10.765  17.306  14.348
18577W        W90193   6.955  18.381   1.649
18578W        W90194  28.932   1.337   4.324
18579W        W90195  14.152   9.548  11.186
18580W        W90196   7.158  42.894  10.758
18581W        W90197  28.429  44.350  13.940
18582W        W90198   5.917   1.446   0.283
18583W        W90199  30.443  29.020   4.077
18584W        W90200  34.599  39.340   3.570
18585W        W90201  31.318  36.425   3.754
18586W        W90202  10.358  14.745   0.795
18587W        W90203  12.373  30.546  10.651
18588W        W90204  43.344  10.208   4.383
18589W        W90205   3.950   0.895  14.935
18590W        W90206   7.631   6.785  10.549
18591W        W90207  35.760   0.306  11.961
18592W        W90208   9.684  20.198   3.680
18593W        W90209   3.438  21.753   4.301
18594W        W90210  26.057  32.194  14.245
18595W        W90211  38.007  37.578   1.244
18596W        W90212   8.422  32.997  13.044
18597W        W90213  34.474  36.634  13.768
18598W        W90214   5.420  11.647   3.329
18599W        W90215  15.169  14.131  11.497
18600W        W90216  23.181   6.161  13.197
18601W        W90217  30.901   6.831   3.097
18602W        W90218  35.935  31.385  11.965
18603W        W90219  25.526   8.445   1.729
18604W        W90220   7.170   4.159  14.816
18605W        W90221   0.214  40.410  11.372
18606W        W90222  25.606  39.006   1.608
18607W        W90223  23.077  23.212   1.764
18608W        W90224  31.109  29.912   4.532
18609W        W90225  13.037   4.689  11.958
18610W        W90226   5.364  33.540  12.401
18611W        W90227  25.029   8.847  11.166
18612W        W90228  25.478   9.360   0.915
18613W        W90229   9.469  19.288   1.753
18614W        W90230  38.450   8.589  13.066
18615W        W90231  36.841  37.011   1.412
18616W        W90232  30.095  12.766   3.134
18617W        W90233   4.749  38.443  12.008
18618W        W90234  37.395  44.402   4.951
18619W        W90235  44.475  43.413  13.642
18620W        W90236  38.960  36.348   3.729
18621W        W90237   4.767  29.953   4.642
18622W        W90238  14.317  43.895   2.595
18623W        W90239   0.369  25.688  11.742
18624W        W90240   3.513  30.512  14.411
18625W        W90241   8.266   7.748  14.714
18626W        W90242  41.901  42.570  14.394
18627W        W90243  35.630   3.357   0.160
18628W        W90244  43.805  34.625   2.646
18629W        W90245  43.476  23.904   1.294
18630W        W90246  18.824  43.109   3.622
18631W        W90247   7.818  44.093  12.871
18632W        W90248  24.719  27.961  12.126
18633W        W90249  21.336  32.326   2.021
18634W        W90250  15.174   8.084   1.272
18635W        W90251   2.631   1.902  11.940
18636W        W90252  36.748  23.978   1.431
18637W        W90253   0.132  27.958   4.824
18638W        W90254   0.996  20.760  12.448
18639W        W90255  22.963   0.007  11.375
18640W        W90256  32.081  19.806   2.644
18641W        W90257  27.052   5.862  11.490
18642W        W90258  20.626  11.240  13.909
18643W        W90259  23.924   7.412  13.368
18644W        W90260  28.069  27.653   2.223
18645W        W90261  44.478  16.455  11.513
18646W        W90262  19.116  14.118   1.181
18647W        W90263  36.166  14.163  14.382
18648W        W90264   0.247  40.355   2.775
18649W        W90265  19.058   4.922  13.566
18650W        W90266   4.905  39.874  14.236
18651W        W90267  18.153  33.876  13.105
18652W        W90268   4.038  42.001   4.582
18653W        W90269  13.620  29.206   3.741
18654W        W90270  10.651  27.457  14.707
18655W        W90271  10.860  34.550   1.656
18656W        W90272  42.090  16.964  12.468
18657W        W90273  17.166  13.335   1.974
18658W        W90274  17.594  35.589  13.533
18659W        W90275   9.239  16.263  12.964
18660W        W90276  36.894  30.162  11.096
18661W        W90277  36.881  24.517  13.783
18662W        W90278  29.425  33.990  13.550
18663W        W90279  24.761   4.170  13.076
18664W        W90280   5.352  40.289  13.968
18665W        W90281  16.084  32.187   3.197
18666W        W90282  24.069  11.648  13.059
18667W        W90283   5.823  43.359  11.106
18668W        W90284  36.475  42.703   3.299
18669W        W90285  38.047  26.238   2.816
18670W        W90286   7.895  23.274  11.540
18671W        W90287  26.496  21.722  11.585
18672W        W90288  12.216  26.099   2.170
18673W        W90289  40.720  35.572   0.979
18674W        W90290  13.234  20.097  13.739
18675W        W90291  14.552  18.557  10.291
18676W        W90292  34.134  40.749  12.152
18677W        W90293   4.661  37.410  11.857
18678W        W90294   5.222  36.859   4.658
18679W        W90295  41.613   8.073  12.558
18680W        W90296  27.045  29.982  11.169
18681W        W90297  37.761   7.866  13.812
18682W        W90298   3.536  21.254  11.920
18683W        W90299  40.134  35.659   0.248
18684W        W90300   0.556   4.116  12.956
18685W        W90301   5.871  22.796  13.132
18686W        W90302  14.847  33.908   1.557
18687W        W90303  37.058  39.033   0.902
18688W        W90304  31.635   9.799   1.939
18689W        W90305  16.167  24.412   2.461
18690W        W90306   7.688  13.964   5.130
18691W        W90307  10.145  37.282   0.524
18692W        W90308   1.839  19.571   3.262
18693W        W90309  44.301  42.789   3.904
18694W        W90310  38.743  10.747   1.727
18695W        W90311   3.943   1.881  10.786
18696W        W90312  29.507  14.177  10.208
18697W        W90313   8.288  28.463   4.791
18698W        W90314  26.904  18.690   3.248
18699W        W90315  40.973   9.725  14.006
18700W        W90316   4.279  26.695   1.380
18701W        W90317  43.975   5.690  12.438
18702W        W90318   2.274  32.709   0.417
18703W        W90319  18.756  15.803  13.462
18704W        W90320  42.983  36.823  13.974
18705W        W90321  24.596  43.207   2.718
18706W        W90322  20.281   5.240   2.377
18707W        W90323   8.010  26.170  10.692
18708W        W90324  40.019  22.169  14.275
18709W        W90325  26.237  40.040  10.659
18710W        W90326  23.643   1.878  14.310
18711W        W90327   0.941   8.356  11.975
18712W        W90328  15.234  37.676  11.401
18713W        W90329  35.730  39.910  12.564
18714W        W90330  28.160   3.347   4.647
18715W        W90331   9.421   0.440   4.780
18716W        W90332  30.490   2.294   2.309
18717W        W90333  34.942  37.463  13.393
18718W        W90334   1.973   0.018   3.818
18719W        W90335   2.128  44.513   5.186
18720W        W90336  24.029  32.221  11.797
18721W        W90337  26.522  24.481  13.133
18722W        W90338  35.087  11.909  11.535
18723W        W90339  13.012   6.375  13.129
18724W        W90340  33.198  27.541   1.435
18725W        W90341  35.388  33.601   2.309
18726W        W90342  41.336  36.017  11.080
18727W        W90343  19.613   9.215   3.703
18728W        W90344  17.327  26.764   4.047
18729W        W90345   4.804  11.291   0.220
18730W        W90346  38.432  11.684  13.454
18731W        W90347   5.827  21.936   3.700
18732W        W90348  21.562   0.888  13.408
18733W        W90349  17.829   9.652  12.503
18734W        W90350   4.962  23.622   0.516
18735W        W90351  16.581  24.257   2.733
18736W        W90352  40.015  10.708  12.564
18737W        W90353  10.624  36.293   4.332
18738W        W90354   4.145  32.310   4.071
18739W        W90355  39.910  31.345   0.600
18740W        W90356  35.278  26.530  10.722
18741W        W90357  41.234  35.507   1.037
18742W        W90358   0.879   3.918  14.992
18743W        W90359  19.364  10.999  11.520
18744W        W90360   6.518  34.041   3.414
18745W        W90361  13.856  31.500  10.459
18746W        W90362  36.805   1.437   0.712
18747W        W90363   3.419  22.129   4.839
18748W        W90364  32.353  11.440  14.861
18749W        W90365  42.467   9.251  12.021
18750W        W90366  33.447   2.787   4.348
18751W        W90367  41.645  22.677   5.057
18752W        W90368  43.196   2.789  12.327
18753W        W90369  40.279  42.494  10.677
18754W        W90370  33.016  31.058  11.419
18755W        W90371  28.960  28.000   2.612
18756W        W90372  35.621  41.045  12.057
18757W        W90373  18.200  14.220   2.241
18758W        W90374   2.095  35.372   1.868
18759W        W90375   5.517   0.502  13.946
18760W        W90376  44.025  41.122  11.038
18761W        W90377  19.311  40.568   0.399
18762W        W90378  31.528   7.961   3.189
18763W        W90379  37.462   1.181   4.724
18764W        W90380   9.990  19.072   1.688
18765W        W90381   4.200  37.286  12.425
18766W        W90382  16.862  18.513   5.565
18767W        W90383  40.450  41.084  12.115
18768W        W90384  40.608  13.411   1.346
18769W        W90385  13.214   1.012   5.111
18770W        W90386  15.833  37.343   2.724
18771W        W90387  22.361   3.248  14.230
18772W        W90388  35.104  34.841  13.926
18773W        W90389  26.243  43.455  14.668
18774W        W90390  24.481  23.955   1.998
18775W        W90391  19.232  39.995  12.089
18776W        W90392  28.613  16.086  11.614
18777W        W90393  24.484  20.101   1.360
18778W        W90394   1.715  30.478  10.934
18779W        W90395  23.501  23.521   2.710
18780W        W90396  20.767   2.889  14.316
18781W        W90397  17.629  30.930   4.178
18782W        W90398  28.735   2.700  12.863
18783W        W90399  37.303  40.011   0.271
18784W        W90400  12.878  32.033  12.561
18785W        W90401   9.263   4.316  12.493
18786W        W90402  10.680  19.226   2.873
18787W        W90403   8.900   3.743  11.147
18788W        W90404  43.876  39.014   1.773
18789W        W90405  24.321  39.020   3.684
18790W        W90406   0.457  20.212  12.874
18791W        W90407  18.333   2.695  13.101
18792W        W90408  40.046   2.251   2.889
18793W        W90409   2.156   8.191  14.007
18794W        W90410  26.252  34.027   3.284
18795W        W90411   8.829  27.117  14.762
18796W        W90412  17.902   4.927   1.931
18797W        W90413   0.010  33.499   2.794
18798W        W90414  40.720  29.842  11.276
18799W        W90415  35.414   2.015   4.080
18800W        W90416   9.605   1.723  12.616
18801W        W90417  22.178  22.671  14.798
18802W        W90418   7.866  22.198   0.950
18803W        W90419  21.937  21.084  13.547
18804W        W90420  38.099  14.139  14.252
18805W        W90421  40.190   4.849  10.543
18806W        W90422  40.805  10.281   1.278
18807W        W90423  27.943   6.766  12.022
18808W        W90424  17.133  23.407  14.147
18809W        W90425  38.063  42.455  13.012
18810W        W90426  17.780  32.197  13.261
18811W        W90427  14.977  26.714   5.153
18812W        W90428  37.822  24.469   1.394
18813W        W90429  26.254   8.734  11.830
18814W        W90430   3.337  37.010  13.929
18815W        W90431  19.344  25.618  14.154
18816W        W90432   3.788  39.360  12.131
18817W        W90433  29.236   0.927  13.916
18818W        W90434   2.223   5.352  13.939
18819W        W90435   8.807  42.519  14.515
18820W        W90436  20.346  14.562  13.269
18821W        W90437  37.826  18.099  13.836
18822W        W90438  30.822  31.096  14.124
18823W        W90439  25.886  43.068  14.510
18824W        W90440  24.151  22.725   3.825
18825W        W90441  18.130  43.179  13.025
18826W        W90442  37.827  21.644  14.051
18827W        W90443  26.723  20.652  11.085
18828W        W90444  21.054  21.453   0.300
18829W        W90445  36.913   9.394   3.705
18830W        W90446   8.249  12.102  13.516
18831W        W90447  28.756  39.808  12.992
18832W        W90448  36.210  14.258  13.238
18833W        W90449  24.552  40.109   2.627
18834W        W90450   9.680  19.741  12.713
18835W        W90451  37.300  25.276   5.252
18836W        W90452   9.924  34.381   0.819
18837W        W90453  17.529  25.632   3.957
18838W        W90454  31.122  41.830   0.309
18839W        W90455  32.075  16.713  13.847
18840W        W90456  14.563  31.119  10.565
18841W        W90457  32.507  15.562  10.828
18842W        W90458  21.657   1.304  11.580
18843W        W90459  34.600  23.325  13.659
18844W        W90460  28.937  41.809   3.242
18845W        W90461  32.411   8.031  14.996
18846W        W90462  24.571   0.228  13.885
18847W        W90463  39.322  29.192  12.860
18848W        W90464  32.168  27.776  11.590
18849W        W90465  26.747  42.363   0.209
18850W        W90466  14.826  17.346  13.380
18851W        W90467   3.819  43.512   2.396
18852W        W90468  24.610   5.843  13.601
18853W        W90469  30.531  31.110   0.367
18854W        W90470  29.087  27.561   4.274
18855W        W90471  33.702  16.783   4.043
18856W        W90472  25.507   6.415  14.813
18857W        W90473   1.033   7.837   0.786
18858W        W90474  15.474  28.701  13.437
18859W        W90475  43.915  43.787  14.786
18860W        W90476  18.718  37.999  14.831
18861W        W90477  44.449  12.124   0.586
18862W        W90478   7.996   3.998   1.039
18863W        W90479  28.956  15.715  11.512
18864W        W90480  24.549  20.690  13.592
18865W        W90481  37.059   3.381  13.626
18866W        W90482  26.701   2.349  11.374
18867W        W90483  31.067  41.975   0.828
18868W        W90484  27.539  44.822  11.126
18869W        W90485  37.576  34.114   0.343
18870W        W90486  16.318  30.304   1.761
18871W        W90487  10.406   8.678   2.266
18872W        W90488  17.341   3.868   0.081
18873W        W90489  13.683  10.392   0.879
18874W        W90490  37.900  13.373   2.750
18875W        W90491  32.872  44.923  13.866
18876W        W90492  43.037   1.013  12.926
18877W        W90493  11.838  36.342   3.159
18878W        W90494   1.658  37.013   4.734
18879W        W90495  21.090   7.901  12.504
18880W        W90496  22.507  13.244  11.648
18881W        W90497  24.944  34.374  13.893
18882W        W90498  35.130  12.805  10.324
18883W        W90499   8.739  24.427   5.080
18884W        W90500  26.146  29.064   0.847
18885W        W90501  25.142  23.242  12.559
18886W        W90502   5.763  40.750   3.319
18887W        W90503  30.508   2.414  12.309
18888W        W90504  36.589  31.196  11.194
18889W        W90505  18.835  38.550   1.987
18890W        W90506  32.933  12.706  14.999
18891W        W90507  39.484   2.912   1.915
18892W        W90508  31.134  17.640   4.159
18893W        W90509   2.486  18.523  14.485
18894W        W90510  16.945  25.069  12.016
18895W        W90511  15.774  35.966  12.505
18896W        W90512  10.112  41.108   0.534
18897W        W90513   8.519   6.064  14.267
18898W        W90514  25.996  24.349   2.630
18899W        W90515  23.976  35.496   1.571
18900W        W90516  21.755  28.161  14.636
18901W        W90517  43.570   6.540   0.414
18902W        W90518   6.164   2.980  13.016
18903W        W90519  25.063  12.846  10.611
18904W        W90520  34.363  44.818   4.498
18905W        W90521  25.215   7.461   1.856
18906W        W90522   1.779  19.112   0.509
18907W        W90523  14.088  17.721   3.199
18908W        W90524   4.924  41.589  13.036
18909W        W90525  32.415  28.538  14.178
18910W        W90526  11.318  23.521   1.655
18911W        W90527  43.016  22.086   4.119
18912W        W90528   3.617  35.725  12.082
18913W        W90529  30.631  23.709   1.649
18914W        W90530   8.869   4.538   4.082
18915W        W90531  32.582  31.457  13.130
18916W        W90532  35.848  41.562   3.884
18917W        W90533  29.240   0.893   5.051
18918W        W90534  15.745  22.310  12.463
18919W        W90535  30.069  26.528   3.386
18920W        W90536  14.155   4.388   0.177
18921W        W90537  43.693  16.682   2.443
18922W        W90538   3.224   2.721  11.284
18923W        W90539  35.821  23.501  12.307
18924W        W90540  16.758  36.958  11.876
18925W        W90541  20.983   8.215   2.868
18926W        W90542  41.717  14.716  13.468
18927W        W90543  11.292   4.266   3.753
18928W        W90544  42.062  29.732  12.507
18929W        W90545  38.549   3.443  12.903
18930W        W90546  44.976  24.499   1.283
18931W        W90547   3.630  42.694  10.571
18932W        W90548   1.383  12.100   4.722
18933W        W90549  44.418  13.214   4.139
18934W        W90550  38.533  10.465   1.285
18935W        W90551  25.933  31.773  10.492
18936W        W90552  33.713  37.535  12.648
18937W        W90553  28.231  16.072  14.843
18938W        W90554  35.459  39.607   1.216
18939W        W90555  37.820   0.809  14.912
18940W        W90556  11.785  24.722  13.614
18941W        W90557  27.021   1.606   0.717
18942W        W90558   7.696  26.864  12.001
18943W        W90559  29.716   7.902   1.275
18944W        W90560  25.255  18.121  12.975
18945W        W90561   2.221  28.926   2.651
18946W        W90562  17.629   2.747  12.493
18947W        W90563   4.819  35.625  12.553
18948W        W90564  33.114  20.152  12.590
18949W        W90565  27.870  27.676   1.348
18950W        W90566  18.958  22.103   0.994
18951W        W90567   8.189   4.791   1.848
18952W        W90568   1.401   0.301   2.704
18953W        W90569  15.329   8.610  13.652
18954W        W90570  28.076  23.704   2.690
18955W        W90571  30.926  37.923   2.393
18956W        W90572  43.016  11.202   1.442
18957W        W90573  39.196  31.035  12.397
18958W        W90574  32.065   1.662  14.592
18959W        W90575   2.633  12.154   1.502
18960W        W90576  10.217  41.333  11.372
18961W        W90577  15.173  27.675   4.601
18962W        W90578  38.436  25.698  13.497
18963W        W90579  10.644   1.341   0.276
18964W        W90580  31.898  42.051  13.819
18965W        W90581  39.810  18.858  10.860
18966W        W90582  36.252  15.445  12.070
18967W        W90583   3.005  16.960  13.408
18968W        W90584   4.966  15.268  10.732
18969W        W90585  44.287  15.722   9.990
18970W        W90586  21.536  33.616   0.844
18971W        W90587  15.661  38.780   3.661
18972W        W90588  22.076   7.220  10.618
18973W        W90589  33.182  18.293  11.327
18974W        W90590   3.929  13.870  10.240
18975W        W90591  31.564  24.236  10.619
18976W        W90592  39.752   5.129  11.350
18977W        W90593  26.430  28.941  10.688
18978W        W90594  27.276   2.379   1.820
18979W        W90595  12.637  36.406   2.626
18980W        W90596  12.777  38.974  12.284
18981W        W90597  18.810  28.968  12.341
18982W        W90598  17.742  26.952  13.531
18983W        W90599  28.824   3.555   4.189
18984W        W90600  29.082   9.644   0.218
18985W        W90601  43.012  34.206  11.411
18986W        W90602  42.372   8.237  11.873
18987W        W90603  23.697  36.900  12.078
18988W        W90604  17.415   9.328   3.455
18989W        W90605  13.125  10.831   3.278
18990W        W90606  31.409  38.798  12.857
18991W        W90607  19.800  44.718  11.459
18992W        W90608  43.459   7.276   3.639
18993W        W90609  10.993  42.951   2.202
18994W        W90610  19.668   5.255  10.855
18995W        W90611  32.224   9.902   3.832
18996W        W90612   0.407   7.535  11.349
18997W        W90613  15.339   7.846   2.579
18998W        W90614  29.460  32.666   0.479
18999W        W90615  43.466   2.886   1.001
19000W        W90616  11.422  11.251  14.996
19001W        W90617  12.946  29.992  11.978
19002W        W90618   4.268  28.508   3.476
19003W        W90619   8.518  13.060  14.327
19004W        W90620  16.782  39.364   3.661
19005W        W90621  27.143  15.862   3.205
19006W        W90622  18.783  44.668   1.418
19007W        W90623  34.723  19.945  11.949
19008W        W90624   6.553  32.465   3.348
19009W        W90625  13.974  31.942   3.943
19010W        W90626  11.460  19.705  12.092
19011W        W90627   4.418  23.029   5.000
19012W        W90628  22.273  21.164  11.066
19013W        W90629  28.200   2.999   4.210
19014W        W90630  35.520  41.322   2.554
19015W        W90631  23.738  15.152  12.141
19016W        W90632  16.705  19.568   1.642
19017W        W90633  28.182  12.618  13.319
19018W        W90634  36.869  18.128   1.363
19019W        W90635  33.324   6.423   1.021
19020W        W90636  17.458  18.515   4.554
19021W        W90637  29.432  21.362   1.343
19022W        W90638  21.997  41.447   0.764
19023W        W90639  11.502   9.126  14.544
19024W        W90640  30.890  23.275   4.641
19025W        W90641  24.785   4.390   4.427
19026W        W90642   9.536  44.870   4.594
19027W        W90643  35.888  11.648   4.509
19028W        W90644   8.568  26.678  14.876
19029W        W90645   6.127  23.715  13.898
19030W        W90646   0.643  33.459  11.592
19031W        W90647  30.074  44.838  14.836
19032W        W90648  40.829  28.045  11.216
19033W        W90649  42.451  23.472  13.872
19034W        W90650  16.605   5.529   1.669
19035W        W90651  44.290   7.879  12.354
19036W        W90652  37.596   4.930  12.546
19037W        W90653  15.072  16.704   5.247
19038W        W90654   1.419  40.043   1.701
19039W        W90655  14.739  41.422  14.573
19040W        W90656   5.854  14.607   0.336
19041W        W90657   0.969  26.406   1.746
19042W        W90658  41.912   9.645  14.412
19043W        W90659   9.619  40.044  11.625
19044W        W90660  22.021  18.083  14.071
19045W        W90661   0.799  17.828  10.704
19046W        W90662   0.005  29.976  12.400
19047W        W90663   9.158  36.414   1.667
19048W        W90664  31.635  37.413  14.282
19049W        W90665  30.519  41.962  14.087
19050W        W90666  38.519   4.809  10.715
19051W        W90667   3.252  40.133   0.888
19052W        W90668  26.108  41.350  14.516
19053W        W90669  27.570  22.165   3.405
19054W        W90670  10.876  10.840  11.894
19055W        W90671  34.556   8.284  12.860
19056W        W90672   6.143   5.193  13.340
19057W        W90673  44.885   0.035  12.786
19058W        W90674   5.214   9.646  11.870
19059W        W90675  11.906  29.380  14.223
19060W        W90676  19.194  35.518  11.679
19061W        W90677  30.336  42.769  11.604
19062W        W90678  18.767  11.046   2.734
19063W        W90679  34.672   4.338  14.336
19064W        W90680  42.104  27.126  14.424
19065W        W90681  19.774  42.909  13.093
19066W        W90682  28.178  31.094  10.615
19067W        W90683  40.350   2.031  14.925
19068W        W90684  36.524  13.875  11.993
19069W        W90685  37.857  17.807   0.750
19070W        W90686  24.243   1.010   0.412
19071W        W90687  19.296   7.852   2.247
19072W        W90688   7.705  24.336   1.756
19073W        W90689  24.508   4.631  12.936
19074W        W90690  33.359  44.827  14.000
19075W        W90691  32.190  34.366   0.923
19076W        W90692   5.813  22.652   0.439
19077W        W90693   2.857   6.204   3.677
19078W        W90694  43.602   7.382   3.151
19079W        W90695  43.747  12.761   3.661
19080W        W90696  17.083  18.988  13.343
19081W        W90697   2.776  26.253  12.112
19082W        W90698   1.390  42.482  13.953
19083W        W90699  29.606  35.436  10.867
19084W        W90700  39.012  27.352   1.919
19085W        W90701  35.887  31.178  12.871
19086W        W90702  41.157  24.257   2.432
19087W        W90703  34.051  41.636   4.099
19088W        W90704  11.052  38.552  14.572
19089W        W90705  44.927   5.691   2.362
19090W        W90706  24.451  41.877   1.271
19091W        W90707  27.454  16.911   5.042
19092W        W90708  24.047  24.043   4.498
19093W        W90709   8.647  44.823   3.658
19094W        W90710  19.777  35.146   2.645
19095W        W90711  20.535  39.115  12.458
19096W        W90712  31.563  43.065  14.637
19097W        W90713  26.009  18.148  11.167
19098W        W90714  18.791  11.980  14.432
19099W        W90715  41.873  38.456   0.271
19100W        W90716  39.332  29.506  12.429
19101W        W90717  23.752  36.942  14.540
19102W        W90718  21.700  29.580  10.679
19103W        W90719   8.209  11.578   2.713
19104W        W90720  23.843   5.420  11.498
19105W        W90721   5.929  33.113  11.574
19106W        W90722  36.399   0.447   3.434
19107W        W90723  23.725  19.112   1.913
19108W        W90724  31.411  23.162  10.453
19109W        W90725   1.047  43.353   4.080
19110W        W90726  39.686  17.770   2.348
19111W        W90727  26.589  19.123  12.538
19112W        W90728  29.458  20.599  12.335
19113W        W90729  29.874  33.911   1.923
19114W        W90730  29.948  32.072   2.404
19115W        W90731  27.180  38.448  13.398
19116W        W90732  35.814  22.329  12.457
19117W        W90733  17.669  38.800   1.272
19118W        W90734  34.533   2.751   1.609
19119W        W90735  27.198  11.343  11.112
19120W        W90736   4.270   2.151  10.466
19121W        W90737  42.763   7.745   1.281
19122W        W90738  11.131  19.568   1.257
19123W        W90739  17.075   4.810  10.126
19124W        W90740  14.284   9.751  14.477
19125W        W90741  23.162   5.736  12.880
19126W        W90742  12.623   8.817  11.584
19127W        W90743  27.695  36.529   2.301
19128W        W90744  38.548  42.418   2.716
19129W        W90745  30.350   6.835  13.704
19130W        W90746  40.340  15.615  14.144
19131W        W90747   3.534   7.596   4.975
19132W        W90748  10.902  25.093   2.915
19133W        W90749  37.337  35.666   3.300
19134W        W90750  29.534  28.939  10.912
19135W        W90751  39.824  25.715   4.648
19136W        W90752  44.472  40.023   2.594
19137W        W90753   9.098  37.620  11.043
19138W        W90754  24.674  39.795  12.331
19139W        W90755  18.477  40.498   3.640
19140W        W90756  22.582  43.409  13.436
19141W        W90757  34.800  44.335   2.891
19142W        W90758  17.215   3.514  14.351
19143W        W90759   3.416   6.186   0.500
19144W        W90760   3.294  15.412  12.207
19145W        W90761  36.635  14.351  14.342
19146W        W90762  22.068  18.073  14.590
19147W        W90763   9.615   3.003  12.031
19148W        W90764   2.080  36.581  10.725
19149W        W90765  28.122  31.397  14.931
19150W        W90766  41.793  17.148   1.780
19151W        W90767  44.327  19.602  12.873
19152W        W90768  17.968  30.418  13.928
19153W        W90769  22.204  14.334   3.750
19154W        W90770  37.929   2.476  10.657
19155W        W90771  14.183  37.358   1.658
19156W        W90772  14.230  38.604  11.031
19157W        W90773   0.270  38.326   4.164
19158W        W90774  41.050   8.371   1.814
19159W        W90775  37.082   7.959   0.446
19160W        W90776  26.180  19.228   4.046
19161W        W90777   8.365  32.442   4.021
19162W        W90778  38.670  15.583   5.127
19163W        W90779  15.962  11.340   0.788
19164W        W90780  22.180  35.537   4.479
19165W        W90781  35.599  20.580  10.595
19166W        W90782  30.918  36.021  13.022
19167W        W90783   9.190   1.641  11.649
19168W        W90784  36.765  31.222  11.710
19169W        W90785   2.865  30.855  13.842
19170W        W90786  21.489  10.209  14.353
19171W        W90787  18.073  11.632  11.440
19172W        W90788  24.558  23.628   1.202
19173W        W90789  11.643   3.357  11.438
19174W        W90790  38.848  15.671  10.144
19175W        W90791  29.686  11.698  12.467
19176W        W90792  31.390  40.441  12.194
19177W        W90793  38.013  28.260   4.847
19178W        W90794  43.470  25.222   5.015
19179W        W90795  23.563  23.447   0.259
19180W        W90796  42.755  11.160   4.155
19181W        W90797  33.348  42.327   1.637
19182W        W90798   6.846   9.827   4.283
19183W        W90799  36.605  27.715   3.243
19184W        W90800   1.682   6.255  11.629
19185W        W90801   4.863  38.552   2.860
19186W        W90802  17.221   2.234  11.263
19187W        W90803  11.544  26.215  12.371
19188W        W90804  25.606   8.096   0.263
19189W        W90805  43.034  31.578  12.113
19190W        W90806   5.224   9.762  12.374
19191W        W90807  42.014  27.931   9.916
19192W        W90808  11.398  17.620  13.911
19193W        W90809  33.587  23.045   2.157
19194W        W90810  43.443  38.424   9.780
19195W        W90811   4.853  36.310  14.816
19196W        W90812  28.097   2.455  12.578
19197W        W90813  39.010   4.520  11.137
19198W        W90814  36.891  10.106   5.354
19199W        W90815   9.584   0.769   3.236
19200W        W90816   6.460   7.806  10.952
19201W        W90817  21.790  37.951   4.638
19202W        W90818   4.053  12.333  13.309
19203W        W90819  13.771  16.193   4.180
19204W        W90820  15.037  36.164  12.918
19205W        W90821  10.606  30.283   0.188
19206W        W90822  28.181  28.602  11.998
19207W        W90823  16.295  40.735  14.592
19208W        W90824  21.594  22.536   3.237
19209W        W90825   6.806  12.678  11.035
19210W        W90826   5.611  32.098   1.443
19211W        W90827  43.470   1.442   3.756
19212W        W90828  27.095  30.181   4.355
19213W        W90829  38.652  44.566  12.065
19214W        W90830  28.438   7.813   2.799
19215W        W90831  21.322   9.489   0.663
19216W        W90832  15.178  16.257   2.335
19217W        W90833  30.114  41.373   1.204
19218W        W90834  40.990   1.259   1.214
19219W        W90835  21.670  29.965   2.235
19220W        W90836  24.249  39.963   4.674
19221W        W90837  38.348  29.524  11.995
19222W        W90838  26.485  17.654   0.131
19223W        W90839   7.807  22.698  12.124
19224W        W90840  41.535  19.774  14.797
19225W        W90841   7.275  37.902  12.338
19226W        W90842  27.682  24.252  13.102
19227W        W90843   0.911   3.024   2.871
19228W        W90844  18.787  14.397   2.349
19229W        W90845  21.980  39.798   0.341
19230W        W90846  43.824  10.788  12.367
19231W        W90847  17.585  29.444  13.929
19232W        W90848  20.208  11.825   3.399
19233W        W90849  41.613  26.950  14.371
19234W        W90850   3.886  18.383   4.616
19235W        W90851  16.137  13.816  12.455
19236W        W90852  15.914  10.172   1.285
19237W        W90853  28.074  37.391  11.602
19238W        W90854  24.198  42.850  12.953
19239W        W90855  35.440  42.618  11.218
19240W        W90856  32.952   2.433  10.069
19241W        W90857  13.253  27.514  10.564
19242W        W90858  28.462  19.883  10.955
19243W        W90859  40.404   6.011  12.019
19244W        W90860  38.832  16.529   2.338
19245W        W90861   7.326  22.242  10.911
19246W        W90862  16.058  24.601  11.961
19247W        W90863   6.267  32.245   2.117
19248W        W90864  13.238  14.756  10.950
19249W        W90865  22.334  37.859   4.668
19250W        W90866  38.943  36.523   0.255
19251W        W90867   4.940  22.694  10.674
19252W        W90868  23.001  28.914   1.506
19253W        W90869  26.017  20.169   0.307
19254W        W90870   0.203  24.656  13.509
19255W        W90871  34.055  27.663  14.801
19256W        W90872  13.086  33.442  12.935
19257W        W90873  30.181  23.554   1.861
19258W        W90874  43.452  21.313  14.289
19259W        W90875   1.430  23.469  11.604
19260W        W90876   9.460  26.289   3.756
19261W        W90877  13.132  38.940  14.928
19262W        W90878  33.024  37.313  13.329
19263W        W90879  42.947  31.933   2.272
19264W        W90880   6.334  24.145  10.295
19265W        W90881  20.697   0.792  14.483
19266W        W90882  40.620  20.149   4.753
19267W        W90883  16.185  24.654   4.893
19268W        W90884  25.547  41.946   1.323
19269W        W90885   3.008   6.635   3.436
19270W        W90886  28.260  42.884   2.194
19271W        W90887  37.695  41.795  12.916
19272W        W90888  10.922  11.150  14.800
19273W        W90889   8.384  23.206   3.205
19274W        W90890  26.053   5.152  11.220
19275W        W90891  34.524   7.893   3.056
19276W        W90892   0.367  36.309  13.365
19277W        W90893  21.222   2.141   1.416
19278W        W90894  40.404  28.132   3.551
19279W        W90895  23.050  14.245  12.897
19280W        W90896  21.408  27.479  11.105
19281W        W90897  21.123   5.597  14.414
19282W        W90898  25.431  31.938   0.759
19283W        W90899   7.978   3.334  13.825
19284W        W90900   4.774  34.666  12.497
19285W        W90901  14.756   7.279   2.264
19286W        W90902  31.978  26.830   0.749
19287W        W90903  30.135  26.014  11.686
19288W        W90904  23.737  26.459  11.591
19289W        W90905   2.068  31.666  10.447
19290W        W90906  28.391  14.582  11.491
19291W        W90907  40.603   7.716  12.523
19292W        W90908  37.431  30.223  12.390
19293W        W90909  26.892  38.915  10.960
19294W        W90910  22.063  38.275  12.807
19295W        W90911  40.389  11.187  12.845
19296W        W90912  29.668  23.326   0.470
19297W        W90913   1.968  30.095   3.962
19298W        W90914   6.402  19.205  10.791
19299W        W90915  40.287  33.445  14.809
19300W        W90916   8.952  19.251   0.869
19301W        W90917  36.361   9.686  11.031
19302W        W90918   8.012   0.993  11.134
19303W        W90919  35.441  35.463  12.890
19304W        W90920  11.077   2.515  14.926
19305W        W90921  11.198  42.736   5.173
19306W        W90922  23.915   9.215   3.294
19307W        W90923  15.367   3.269  10.463
19308W        W90924  19.049   7.672  12.193
19309W        W90925   0.027  27.981   0.626
19310W        W90926  11.776  28.925  11.616
19311W        W90927  15.417  39.374  14.433
19312W        W90928  22.702   5.148  12.043
19313W        W90929  16.767   1.176  14.468
19314W        W90930  32.699  17.728  14.025
19315W        W90931  21.480  13.947   1.184
19316W        W90932  39.051  41.141  10.835
19317W        W90933   9.885  30.645   4.089
19318W        W90934  16.690  38.772  10.247
19319W        W90935   8.400  29.044   4.043
19320W        W90936  24.421  33.714   2.667
19321W        W90937   3.333   8.461  14.848
19322W        W90938  39.911  20.313  13.450
19323W        W90939  29.666  31.173  13.305
19324W        W90940  10.622  16.246   1.757
19325W        W90941  13.290  20.958  11.632
19326W        W90942  32.400  36.986  11.522
19327W        W90943  40.416   6.316   0.481
19328W        W90944  36.037  38.904  11.572
19329W        W90945  33.702  39.334  10.490
19330W        W90946   4.816   4.921  14.937
19331W        W90947  24.825  33.349  11.120
19332W        W90948  39.553  15.781   2.418
19333W        W90949  14.182  13.519  13.017
19334W        W90950  29.110  28.886   3.801
19335W        W90951  23.046  21.547   0.414
19336W        W90952  12.069  44.883   2.208
19337W        W90953   5.461  29.578  14.378
19338W        W90954  44.502  31.461  10.480
19339W        W90955  27.182  40.951  12.466
19340W        W90956  36.043  39.017   3.613
19341W        W90957   4.705  10.420   2.867
19342W        W90958  28.528  25.391   1.446
19343W        W90959  44.589  11.631   3.298
19344W        W90960  14.799  13.728   1.755
19345W        W90961  12.827  11.812  11.575
19346W        W90962  30.933  13.991  10.248
19347W        W90963  34.949  40.261   2.745
19348W        W90964  35.064  11.311  10.307
19349W        W90965  30.838  28.199   3.160
19350W        W90966  35.736  27.700   2.695
19351W        W90967  15.308  10.114  14.878
19352W        W90968  35.917  26.441   0.860
19353W        W90969  15.062  22.328  12.052
19354W        W90970  23.560  37.297  12.930
19355W        W90971   4.582  19.092  10.368
19356W        W90972  28.358   6.309   3.200
19357W        W90973  17.162  37.234  14.981
19358W        W90974  13.881  36.106  13.279
19359W        W90975   0.949  34.064  10.738
19360W        W90976  43.517  22.229  14.726
19361W        W90977  26.601  38.790   1.766
19362W        W90978  21.360  37.535  10.750
19363W        W90979   2.312  20.541   1.703
19364W        W90980  41.776   8.757  13.952
19365W        W90981  14.737  43.690   4.517
19366W        W90982  33.503  27.631  12.861
19367W        W90983  30.883   9.183  12.447
19368W        W90984  29.121   7.841  11.859
19369W        W90985  37.954  36.073   4.677
19370W        W90986  29.897   1.364  10.329
19371W        W90987  29.648  25.214  12.589
19372W        W90988  42.526  11.327   1.646
19373W        W90989  35.966  41.297   3.413
19374W        W90990  29.626  20.268  11.091
19375W        W90991  14.309   1.763   3.627
19376W        W90992  12.253  38.611   4.235
19377W        W90993  32.927  39.552   3.149
19378W        W90994   8.632   7.371  10.737
19379W        W90995  13.276  25.426  13.430
19380W        W90996  25.734   5.155  14.246
19381W        W90997  21.589   9.219  12.194
19382W        W90998  43.119   4.695   2.747
19383W        W90999  32.302  10.560   1.323
19384W        W91000  33.207   9.750  11.100
19385W        W91001  13.733  10.343  10.313
19386W        W91002  19.088   5.314   3.878
19387W        W91003  17.193  33.661   5.113
19388W        W91004  28.921  26.390   4.929
19389W        W91005  19.969  33.560  12.861
19390W        W91006  35.056  21.024   1.100
19391W        W91007  13.746   0.439  12.037
19392W        W91008  13.927  23.381  10.304
19393W        W91009  42.270  15.689  14.871
19394W        W91010  33.234  25.094   1.953
19395W        W91011  12.731  30.086   3.098
19396W        W91012  13.867  32.018  13.368
19397W        W91013  39.805  23.992  11.009
19398W        W91014  35.503  22.028  11.173
19399W        W91015  42.568  14.091  14.535
19400W        W91016  23.800  21.919  10.693
19401W        W91017  28.097  32.970  13.015
19402W        W91018   0.489   9.337  12.068
19403W        W91019  31.154  20.546   4.256
19404W        W91020  39.609  14.118  12.519
19405W        W91021  26.576  29.970  11.579
19406W        W91022  34.822   9.101  12.995
19407W        W91023  13.936  39.392   3.217
19408W        W91024  35.194  22.451  14.325
19409W        W91025   1.542  37.799  13.445
19410W        W91026  13.860  32.665   3.681
19411W        W91027  34.927  40.037   1.941
19412W        W91028  10.192  34.112  14.446
19413W        W91029  27.683  29.376  12.870
19414W        W91030  27.087  13.609   0.698
19415W        W91031  19.585  27.743   2.349
19416W        W91032  21.746  39.985   0.798
19417W        W91033  40.527  41.073  14.490
19418W        W91034  43.016  29.947  11.554
19419W        W91035  39.405  39.459   1.638
19420W        W91036   0.053  12.795  13.927
19421W        W91037  33.568  28.004  13.349
19422W        W91038  41.809  16.719  14.324
19423W        W91039  33.590  33.017  10.663
19424W        W91040   1.435  34.274   1.053
19425W        W91041  16.141  29.449  10.868
19426W        W91042  31.638  38.859   1.896
19427W        W91043  29.738  42.447   4.929
19428W        W91044   7.093  17.274  11.126
19429W        W91045  32.667  23.838  11.867
19430W        W91046  27.757   3.317   0.848
19431W        W91047  20.212  27.235   1.863
19432W        W91048  43.402  37.051   2.936
19433W        W91049  27.553  29.023   2.877
19434W        W91050  24.285   0.692  13.845
19435W        W91051  16.682  31.849   3.854
19436W        W91052   2.476  23.780   2.873
19437W        W91053   0.888  24.288  12.926
19438W        W91054  24.560  24.083  11.518
19439W        W91055  29.149  32.594   2.368
19440W        W91056  19.092  41.007  12.175
19441W        W91057  24.144  36.217  12.993
19442W        W91058  33.132  13.805  13.435
19443W        W91059   8.247   9.885   2.323
19444W        W91060   3.243   9.170  14.395
19445W        W91061   7.421  18.796   4.136
19446W        W91062  42.914  20.551  13.459
19447W        W91063   1.252   8.684  14.795
19448W        W91064  11.681  27.561   1.042
19449W        W91065  38.364  44.981  13.317
19450W        W91066   9.188   5.720   0.218
19451W        W91067  17.767   0.728   3.697
19452W        W91068  37.376  20.503   2.043
19453W        W91069  17.371  16.739   4.146
19454W        W91070  13.647   2.260  11.537
19455W        W91071  29.343  18.252   4.278
19456W        W91072  17.241  21.737  12.970
19457W        W91073  25.293   1.265   3.129
19458W        W91074   9.896  40.567   3.701
19459W        W91075  42.528  10.696   4.159
19460W        W91076  25.938  28.557   0.041
19461W        W91077   7.393  15.721   1.683
19462W        W91078  38.017  31.095   4.713
19463W        W91079   5.793  15.985   2.178
19464W        W91080   9.233  16.812  14.895
19465W        W91081   2.861  41.287  11.646
19466W        W91082  42.515  23.759  11.952
19467W        W91083  40.738  29.622   4.700
19468W        W91084  21.260  13.097  11.125
19469W        W91085  19.810  19.334  11.988
19470W        W91086  24.068  14.105   2.296
19471W        W91087  28.150  23.893   4.537
19472W        W91088  20.617  39.133   1.263
19473W        W91089   0.739   3.243  13.018
19474W        W91090  29.941  32.496  11.163
19475W        W91091   0.395   9.336   3.108
19476W        W91092  24.523   7.313   2.360
19477W        W91093  16.118  33.918  11.375
19478W        W91094  16.412  23.780   1.350
19479W        W91095   4.475  32.398   4.511
19480W        W91096  24.013  36.104  12.472
19481W        W91097  44.241  28.585  13.318
19482W        W91098  39.689  24.642  13.578
19483W        W91099  33.279   1.855   3.568
19484W        W91100  10.849  24.587  10.607
19485W        W91101  41.105  26.077   0.420
19486W        W91102  38.582  28.126   2.121
19487W        W91103  34.396  43.716   4.050
19488W        W91104  13.781  43.255   3.350
19489W        W91105  30.559  44.234   1.179
19490W        W91106  21.063  34.974  12.665
19491W        W91107  10.148  12.483   0.941
19492W        W91108  20.804  42.571   4.114
19493W        W91109  23.749  23.664  11.133
19494W        W91110  40.348  31.689  11.462
19495W        W91111   0.503  18.401   2.338
19496W        W91112   3.210  21.605   0.844
19497W        W91113  32.366  22.735   3.777
19498W        W91114  36.055  43.514  14.509
19499W        W91115  27.651  16.453  10.704
19500W        W91116  36.821  15.402  14.315
19501W        W91117  32.538  32.212   3.161
19502W        W91118  18.701  17.300  12.359
19503W        W91119  30.598  12.868   0.334
19504W        W91120  32.227  20.772   2.851
19505W        W91121  17.565  10.157   0.877
19506W        W91122  12.225  40.114  11.067
19507W        W91123   7.485  37.727   1.839
19508W        W91124  24.226  31.868  10.066
19509W        W91125  26.924  38.319  14.297
19510W        W91126  18.658  34.720  14.304
19511W        W91127   0.791   8.628   5.010
19512W        W91128  37.755   7.806   0.837
19513W        W91129  36.578  19.170   3.924
19514W        W91130   2.341  17.572   2.715
19515W        W91131  25.714   8.233  12.750
19516W        W91132  11.860   4.946   1.763
19517W        W91133   2.237  20.321  13.351
19518W        W91134   1.993  27.927  11.143
19519W        W91135  15.275   4.888   1.769
19520W        W91136  19.159  34.002   4.036
19521W        W91137  22.289   0.240   4.139
19522W        W91138  39.287  23.882  12.393
19523W        W91139  31.978  24.781  11.182
19524W        W91140  39.786   9.208   1.430
19525W        W91141   5.871  32.881   4.607
19526W        W91142  22.731  33.629  11.557
19527W        W91143  24.234  41.393   3.638
19528W        W91144  28.965  32.037  13.788
19529W        W91145  25.959  29.010   0.343
19530W        W91146  29.244  39.637   4.617
19531W        W91147  11.890   2.024   0.375
19532W        W91148   0.315   4.295  12.469
19533W        W91149  28.136  33.353  11.605
19534W        W91150  20.089  42.411   4.627
19535W        W91151  33.638  19.787   4.636
19536W        W91152  19.037  44.678  11.997
19537W        W91153   3.312  39.372   3.933
19538W        W91154  14.346  19.128  12.886
19539W        W91155  40.774  19.817  13.412
19540W        W91156  21.282  12.688   2.245
19541W        W91157  21.313   4.589  13.599
19542W        W91158  17.825  15.112  14.996
19543W        W91159  40.282  20.512  14.744
19544W        W91160  26.757  23.791   1.841
19545W        W91161  44.796  25.648   4.490
19546W        W91162   7.882  44.394   2.377
19547W        W91163  11.678  23.182  12.642
19548W        W91164   1.332   2.205   0.971
19549W        W91165   1.694   2.177   4.449
19550W        W91166  39.894   3.925   3.692
19551W        W91167  22.108  26.217  10.300
19552W        W91168  23.747  15.208   2.803
19553W        W91169   4.180  41.981   1.392
19554W        W91170   5.259   4.865   3.803
19555W        W91171   6.870   5.763   2.309
19556W        W91172  33.061  19.467   1.903
19557W        W91173  10.904  39.992   2.366
19558W        W91174  20.434  26.891  12.667
19559W        W91175   3.519  16.137  13.433
19560W        W91176  25.149   4.334  13.555
19561W        W91177   0.977  33.561  12.867
19562W        W91178  12.644  23.472  12.091
19563W        W91179  20.057  16.272  11.865
19564W        W91180  11.240   6.343  12.035
19565W        W91181  13.601  26.413   3.767
19566W        W91182  12.460   6.158   0.456
19567W        W91183  11.035  42.965  11.584
19568W        W91184  38.940  33.046   2.866
19569W        W91185  34.916  24.519  12.851
19570W        W91186  30.080   2.382  10.695
19571W        W91187   1.939  38.314  11.114
19572W        W91188  24.330  28.423  10.494
19573W        W91189  33.775   3.209  14.919
19574W        W91190  13.134  15.734  10.662
19575W        W91191  43.840  24.506  14.386
19576W        W91192   5.054  20.888   2.339
19577W        W91193  29.967  13.551  13.512
19578W        W91194   3.823   5.649  12.492
19579W        W91195  39.253  35.464  12.395
19580W        W91196  37.563   1.258   2.113
19581W        W91197   9.382  44.993  12.365
19582W        W91198  21.172  44.807  14.820
19583W        W91199  36.571  26.302  14.208
19584W        W91200  13.049   8.894  13.317
19585W        W91201  13.093   0.825  12.507
19586W        W91202  43.341  33.976  11.100
19587W        W91203   8.192  11.448   1.803
19588W        W91204  16.354  38.768   1.795
19589W        W91205  32.361   3.348   3.469
19590W        W91206  38.518  41.815  13.956
19591W        W91207   1.779   5.775   2.752
19592W        W91208  22.587  30.063   0.401
19593W        W91209  29.968   9.564  12.048
19594W        W91210   2.261  15.175  11.150
19595W        W91211   8.288  38.838  10.452
19596W        W91212   2.915  15.334   0.351
19597W        W91213  17.182   3.719  13.099
19598W        W91214   1.688  30.561   2.632
19599W        W91215  26.783  27.302   5.026
19600W        W91216  13.640  42.027   3.691
19601W        W91217  18.182  38.797   4.662
19602W        W91218  32.438  21.715   2.498
19603W        W91219  39.362  34.516   3.822
19604W        W91220  42.349  41.964  11.628
19605W        W91221   0.108  14.774  12.894
19606W        W91222  18.735  33.858   4.290
19607W        W91223  43.045  23.829  12.026
19608W        W91224  20.139  18.074   4.497
19609W        W91225  42.879  16.772   1.271
19610W        W91226  28.414  18.769   3.406
19611W        W91227  21.260  36.581   3.474
19612W        W91228  21.355  21.527  13.016
19613W        W91229  26.110  20.607   4.076
19614W        W91230  35.302  32.596  11.915
19615W        W91231  31.073   2.667  13.557
19616W        W91232  24.484  26.054   3.398
19617W        W91233  41.961  40.592  11.579
19618W        W91234  13.618  26.935   3.743
19619W        W91235  23.518   4.869   4.695
19620W        W91236  19.247  25.249  12.806
19621W        W91237  37.636  39.345  13.461
19622W        W91238  15.296   8.426   0.221
19623W        W91239   4.165  28.071  14.257
19624W        W91240  16.338  39.974   1.337
19625W        W91241   6.719  19.136  11.981
19626W        W91242  39.516  28.893   4.698
19627W        W91243  35.768   2.956   4.340
19628W        W91244  14.662  15.083   0.858
19629W        W91245  29.736  20.288   3.605
19630W        W91246  12.708   5.786   2.393
19631W        W91247  35.984  22.815  10.507
19632W        W91248   7.488  24.422  11.140
19633W        W91249  22.002   2.900   0.386
19634W        W91250   9.884  34.029  13.065
19635W        W91251  41.502  33.926  10.881
19636W        W91252   7.036  14.130  12.954
19637W        W91253  12.180  24.614   4.501
19638W        W91254  26.747   0.233   3.717
19639W        W91255   9.854  43.924  14.926
19640W        W91256   0.518  20.679   3.559
19641W        W91257  40.996  12.628   0.900
19642W        W91258  13.060  38.726  11.571
19643W        W91259   1.002  19.296   1.042
19644W        W91260  41.847  14.295   2.222
19645W        W91261  23.748  19.201  14.959
19646W        W91262  23.660  42.226  14.952
19647W        W91263  10.984   3.391  12.272
19648W        W91264  29.050  11.754   0.461
19649W        W91265  26.066   0.757  11.094
19650W        W91266  17.604  26.067   4.241
19651W        W91267  43.209  30.519   1.340
19652W        W91268  16.596  20.798   1.203
19653W        W91269  11.233  14.558   3.118
19654W        W91270  28.177   0.195  14.834
19655W        W91271  44.389  29.554   9.821
19656W        W91272  40.287  21.663  13.404
19657W        W91273  13.250   4.203   3.274
19658W        W91274  10.215   4.423  11.124
19659W        W91275  16.329  11.404   2.405
19660W        W91276  43.984  39.853   2.804
19661W        W91277  14.811  28.489  13.931
19662W        W91278  37.276  27.363  11.531
19663W        W91279  40.471   7.444  10.760
19664W        W91280  30.174  17.592  11.509
19665W        W91281  13.574  44.791  12.803
19666W        W91282   9.990  24.936   5.073
19667W        W91283   2.038  20.649  12.408
19668W        W91284  18.589  19.038   3.242
19669W        W91285  33.407  41.555  10.678
19670W        W91286  29.561   7.784   4.687
19671W        W91287  16.109  10.752  14.009
19672W        W91288  32.366  21.145   0.253
19673W        W91289  16.557  27.129   0.928
19674W        W91290  28.634   4.421   0.862
19675W        W91291  38.424  21.957   0.779
19676W        W91292  20.078  36.560  13.622
19677W        W91293  39.094  32.184   3.075
19678W        W91294  13.647  25.516  12.157
19679W        W91295  28.979  12.757   1.664
19680W        W91296  13.891  25.445  12.625
19681W        W91297  17.315  32.122  14.522
19682W        W91298  43.288  11.910   4.583
19683W        W91299   6.029  12.172  11.141
19684W        W91300  31.583  21.778  11.152
19685W        W91301   2.810  40.473   3.808
19686W        W91302  19.874   4.257  10.353
19687W        W91303  26.926   9.552   1.683
19688W        W91304  13.838  31.999  14.616
19689W        W91305  32.365  22.562  11.630
19690W        W91306   8.448  23.595  13.515
19691W        W91307  32.571   0.731   3.308
19692W        W91308  33.970  37.148   0.725
19693W        W91309  40.094  37.907  11.336
19694W        W91310  21.150  15.795  13.276
19695W        W91311   7.312  44.884   2.785
19696W        W91312   8.621  33.586  14.390
19697W        W91313  43.869  24.738   0.887
19698W        W91314  26.217  31.975   1.816
19699W        W91315   3.721   3.757  14.549
19700W        W91316   5.933  39.503   4.628
19701W        W91317  44.018   0.532  13.863
19702W        W91318  37.814   6.258   3.621
19703W        W91319   0.344  37.634  12.033
19704W        W91320  36.033  17.544  11.043
19705W        W91321   3.280  27.826  14.358
19706W        W91322  34.423   0.739   3.370
19707W        W91323  40.850   8.717   4.415
19708W        W91324  30.451   5.789  12.062
19709W        W91325  32.142  12.080   0.252
19710W        W91326  25.491  33.222   2.889
19711W        W91327  37.496   4.220   0.466
19712W        W91328  17.504  39.483   2.952
19713W        W91329  35.195  23.102  14.884
19714W        W91330  35.550  43.859  11.139
19715W        W91331  22.687  14.335   1.197
19716W        W91332  41.006  14.774   2.427
19717W        W91333  21.032  38.959   5.040
19718W        W91334  12.324  29.039   1.410
19719W        W91335   5.428   8.292  12.785
19720W        W91336  42.036  13.134   4.586
19721W        W91337  23.626  28.062  12.504
19722W        W91338  22.969  17.643  13.451
19723W        W91339  16.968  19.201  10.745
19724W        W91340  38.987  38.892  11.146
19725W        W91341  32.215  20.087   3.083
19726W        W91342  11.215  38.125  12.071
19727W        W91343  38.767   1.799  12.239
19728W        W91344  41.916  25.186  13.778
19729W        W91345   2.116  18.158   9.988
19730W        W91346  39.319  12.398  10.749
19731W        W91347  17.830  13.556  14.717
19732W        W91348  18.674   9.166   3.303
19733W        W91349  28.213  23.712  10.190
19734W        W91350  11.561  43.000  12.935
19735W        W91351  28.597  17.440   2.596
19736W        W91352  19.682   2.363  13.179
19737W        W91353   4.372   5.204   3.765
19738W        W91354  23.116  33.345  14.460
19739W        W91355   1.768  13.707   4.329
19740W        W91356   7.624  23.609   2.126
19741W        W91357   1.966  15.685   4.639
19742W        W91358  30.730  29.576  12.095
19743W        W91359   7.807  31.105   3.145
19744W        W91360  12.176  20.289   1.718
19745W        W91361  16.610   0.913   4.291
19746W        W91362  20.115  28.132   2.930
19747W        W91363  28.160  25.910  13.379
19748W        W91364  32.311  31.117  13.872
19749W        W91365  23.482  27.695  13.281
19750W        W91366   3.036  29.353  13.455
19751W        W91367  44.855  29.684   0.499
19752W        W91368  23.179  43.747  10.720
19753W        W91369  40.019  29.041   0.313
19754W        W91370   2.486   3.443  11.564
19755W        W91371  32.952  23.511   2.471
19756W        W91372  31.420   6.852  14.278
19757W        W91373   2.751  22.208   2.242
19758W        W91374  11.850  24.786  11.444
19759W        W91375   6.745   3.457  11.660
19760W        W91376   7.841  41.047  11.715
19761W        W91377  13.520  39.478   2.394
19762W        W91378   8.688  25.626   5.164
19763W        W91379  31.149  18.613   0.690
19764W        W91380   4.077   2.149  14.479
19765W        W91381  29.056  37.610  14.774
19766W        W91382  10.170   7.451   4.048
19767W        W91383  34.726  41.371  11.155
19768W        W91384  38.095   0.504   3.375
19769W        W91385  22.962  23.489   2.716
19770W        W91386  39.053  15.278   1.909
19771W        W91387   4.586  37.684   3.456
19772W        W91388   8.619  42.787  10.189
19773W        W91389  14.723  31.595   0.402
19774W        W91390  15.596  24.717   1.700
19775W        W91391  23.101  37.091  12.943
19776W        W91392  27.520  21.654   0.814
19777W        W91393  28.200  27.667  13.724
19778W        W91394   6.973  13.669   1.896
19779W        W91395  32.911  20.235   4.186
19780W        W91396  19.722   6.301  11.943
19781W        W91397  26.874  37.019  11.554
19782W        W91398   0.715  37.885   4.683
19783W        W91399  30.864  42.262   4.099
19784W        W91400  31.279  35.025  10.405
19785W        W91401  11.937   5.465  12.474
19786W        W91402  25.249   8.142  10.749
19787W        W91403  39.496  19.151   1.196
19788W        W91404  10.882  27.504  13.923
19789W        W91405  16.180  22.470  14.856
19790W        W91406   5.653  31.057   0.379
19791W        W91407  33.599  31.516   4.055
19792W        W91408  30.844   5.727  14.767
19793W        W91409  22.572  22.647   2.823
19794W        W91410  12.319  29.863   4.166
19795W        W91411  18.378  13.181   3.450
19796W        W91412   0.006  12.412   2.356
19797W        W91413  18.272  43.903   3.601
19798W        W91414  15.242  28.181   1.861
19799W        W91415   6.416   9.668   2.651
19800W        W91416  16.913  22.144   2.225
19801W        W91417  13.203  22.926  11.631
19802W        W91418  20.674  13.445  12.884
19803W        W91419  24.014  36.952  14.041
19804W        W91420  40.953  34.535  10.901
19805W        W91421  29.141   1.212  11.593
19806W        W91422   1.376  38.090   3.112
19807W        W91423  28.330   2.860  10.696
19808W        W91424  25.248  37.420   2.391
19809W        W91425   1.359  18.989  11.093
19810W        W91426  30.694  13.706  11.796
19811W        W91427   9.299   9.929   3.604
19812W        W91428  43.074  16.741   2.601
19813W        W91429  26.417  16.127   5.066
19814W        W91430  13.783  27.967   0.289
19815W        W91431   7.590  34.470   1.212
19816W        W91432   6.859   2.178   2.322
19817W        W91433  28.257   6.191  14.752
19818W        W91434  41.375  28.534  12.490
19819W        W91435  30.516  36.018  10.989
19820W        W91436  25.202  43.099   3.324
19821W        W91437  16.792  35.101  11.557
19822W        W91438  21.978  14.542  11.851
19823W        W91439  44.039  18.414  10.814
19824W        W91440   9.057  41.662   0.554
19825W        W91441  15.823  35.955   1.685
19826W        W91442  16.074  10.329  11.450
19827W        W91443   2.402  31.453  11.899
19828W        W91444   0.044  37.558   4.269
19829W        W91445  44.669   2.359   4.109
19830W        W91446  32.034  22.010   3.396
19831W        W91447   9.552  18.644   4.006
19832W        W91448   2.259  38.630  14.466
19833W        W91449  22.585  37.397   4.597
19834W        W91450  12.151  28.536  11.514
19835W        W91451  31.152   7.223   2.891
19836W        W91452  43.942   0.234  10.721
19837W        W91453  29.002  33.578  14.425
19838W        W91454  23.224  12.790  14.408
19839W        W91455  14.352  27.455  12.099
19840W        W91456  32.179  43.810  12.697
19841W        W91457   9.363   7.176  13.328
19842W        W91458  17.580   4.837  13.348
19843W        W91459  11.275  29.010   4.934
19844W        W91460  42.519  12.289   3.617
19845W        W91461  25.751  20.165   4.787
19846W        W91462  38.988  11.576  10.603
19847W        W91463  44.014   7.300  11.984
19848W        W91464   4.736  14.741   5.151
19849W        W91465  20.622  27.737  12.766
19850W        W91466  37.385  39.953   4.508
19851W        W91467  42.546  16.357   0.520
19852W        W91468  12.592   9.793   3.197
19853W        W91469  29.929  33.595  11.094
19854W        W91470  18.850  30.928  13.001
19855W        W91471  33.863  40.494   3.177
19856W        W91472  10.706  24.266   0.428
19857W        W91473  23.195  11.663  11.141
19858W        W91474   3.702  19.357  13.057
19859W        W91475   0.829  37.559   0.109
19860W        W91476  37.092  24.148   2.106
19861W        W91477  23.132   9.429   0.247
19862W        W91478  15.294   1.388  13.417
19863W        W91479  30.408  28.159   4.435
19864W        W91480   8.746   6.430   4.753
19865W        W91481  27.925  16.979  14.780
19866W        W91482  41.965  20.196  14.420
19867W        W91483  32.930  44.809  12.265
19868W        W91484  24.291  19.698  11.162
19869W        W91485  13.088   4.240   0.234
19870W        W91486  28.573  26.448  10.704
19871W        W91487  35.117  22.963   3.123
19872W        W91488  23.456  35.506   1.464
19873W        W91489  10.866  27.092   3.156
19874W        W91490  39.434  41.121   2.203
19875W        W91491  41.007   2.447   3.265
19876W        W91492   0.037   9.285  10.716
19877W        W91493  41.860  19.808   3.191
19878W        W91494   6.813   9.205  12.569
19879W        W91495  30.017  41.992  14.241
19880W        W91496  40.802  39.226   4.389
19881W        W91497  42.538  10.616  13.773
19882W        W91498  35.214  36.330   1.799
19883W        W91499  16.167  32.874  13.518
19884W        W91500  28.868  36.120   1.961
19885W        W91501  16.691  15.278  12.296
19886W        W91502   0.908  24.040  13.402
19887W        W91503  37.374   7.242  11.533
19888W        W91504   9.259  10.585  12.870
19889W        W91505  28.022  15.711   2.907
19890W        W91506  32.538  33.583   4.741
19891W        W91507  33.515   1.769   0.483
19892W        W91508  38.215  15.948   2.386
19893W        W91509  21.016  36.825   3.861
19894W        W91510   0.258   5.126  14.738
19895W        W91511  24.140  15.712   0.277
19896W        W91512   6.505   7.747   1.837
19897W        W91513  21.444  10.557   0.674
19898W        W91514  10.286   9.720   0.558
19899W        W91515   3.796  31.884  12.661
19900W        W91516   2.443  27.062  10.655
19901W        W91517  35.964  39.283   4.942
19902W        W91518  21.243  14.787  12.516
19903W        W91519  18.975  41.032  13.092
19904W        W91520  36.955   5.292   1.946
19905W        W91521  38.182   0.988  13.091
19906W        W91522   0.936  26.478  12.860
19907W        W91523   8.313   5.875   0.787
19908W        W91524  20.179   6.878   0.852
19909W        W91525   9.960  13.844  11.775
19910W        W91526   7.415  16.069  14.265
19911W        W91527  18.348   1.877   4.630
19912W        W91528   2.436  11.424  11.207
19913W        W91529  37.528  43.119  12.092
19914W        W91530   8.303  31.346  11.588
19915W        W91531  32.543  19.983  13.853
19916W        W91532  21.999  15.173  11.254
19917W        W91533  26.811  40.185  11.146
19918W        W91534   0.873  31.622  14.088
19919W        W91535  10.123   7.431   1.003
19920W        W91536  17.244   8.321   3.937
19921W        W91537  28.445  14.817   1.287
19922W        W91538  39.507  34.953   4.115
19923W        W91539  39.291   5.399  11.555
19924W        W91540   3.308   2.190  14.009
19925W        W91541  44.446  16.583   4.216
19926W        W91542  33.985  13.306  13.957
19927W        W91543  44.498  12.860  11.098
19928W        W91544   1.860  12.326   4.034
19929W        W91545   3.324  19.144   3.370
19930W        W91546  43.043  28.042   2.823
19931W        W91547  24.467   5.846  14.913
19932W        W91548  32.708  25.601   0.427
19933W        W91549  22.122  33.004  14.992
19934W        W91550  30.557   4.282  12.761
19935W        W91551  34.889  37.637  11.238
19936W        W91552  38.926  18.817  14.715
19937W        W91553  44.894  28.487  11.604
19938W        W91554  12.839   9.660   4.499
19939W        W91555  20.602  25.056  10.644
19940W        W91556  27.208  44.930   2.817
19941W        W91557  35.745  12.767  11.570
19942W        W91558   3.255   7.316   4.094
19943W        W91559  18.212  19.085  12.825
19944W        W91560  25.684  38.961  10.730
19945W        W91561   7.865   6.785  12.817
19946W        W91562  15.809  11.118   4.092
19947W        W91563  22.742  28.230  12.935
19948W        W91564  34.004  33.630   4.197
19949W        W91565  44.958  41.338  13.458
19950W        W91566  41.967  30.970   0.487
19951W        W91567  35.457  16.093   3.382
19952W        W91568  13.837  37.141  11.276
19953W        W91569   5.302  20.619   1.176
19954W        W91570  16.536  43.833  11.204
19955W        W91571  24.018   7.671  12.092
19956W        W91572  36.046  19.602  14.965
19957W        W91573  22.301  38.364  10.939
19958W        W91574  11.216   0.175   2.777
19959W        W91575  33.378  36.295  11.394
19960W        W91576  18.714  28.631   1.786
19961W        W91577  22.061  40.469  11.846
19962W        W91578  31.035  44.875  10.782
19963W        W91579  41.016  18.310   0.442
19964W        W91580   0.544  39.023  10.326
19965W        W91581   0.785  35.297   0.427
19966W        W91582   2.265  16.037  11.934
19967W        W91583  21.382  14.847   2.776
19968W        W91584   3.390   7.869   0.854
19969W        W91585  32.567   9.651  13.446
19970W        W91586  21.372   8.690   5.214
19971W        W91587  13.812  34.434  14.267
19972W        W91588  30.871   0.215   0.858
19973W        W91589  21.677   5.329   3.654
19974W        W91590  19.507  15.715  12.960
19975W        W91591  27.492  32.711   4.626
19976W        W91592  10.374  40.347   3.626
19977W        W91593  30.490  21.588  13.544
19978W        W91594  12.433  19.354   4.498
19979W        W91595  30.170  34.050  14.016
19980W        W91596  25.571  40.482   0.761
19981W        W91597  30.893   6.891   0.734
19982W        W91598  15.183  43.118  10.632
19983W        W91599  29.172  16.181   2.836
19984W        W91600  29.124  13.824  10.878
19985W        W91601   0.236  36.621  11.058
19986W        W91602  24.705  18.138   1.465
19987W        W91603  23.170  18.352   3.324
19988W        W91604  39.212   2.424  13.957
19989W        W91605  16.038   0.243   2.198
19990W        W91606   7.847   6.858  11.811
19991W        W91607   6.416  29.923  13.471
19992W        W91608  19.476   2.765   2.377
19993W        W91609  10.858  31.558  10.476
19994W        W91610  25.008  26.735  14.842
19995W        W91611  29.769  30.313  11.151
19996W        W91612  17.032  22.987  11.514
19997W        W91613   3.172  27.107   4.532
19998W        W91614  35.568  43.569   1.430
19999W        W91615  32.422  11.264   3.732
20000W        W91616   0.785  15.305   0.721
20001W        W91617   1.685  24.701  13.583
20002W        W91618  14.287   0.725  12.091
20003W        W91619   0.386  13.842   2.786
20004W        W91620  36.353   1.486  10.638
20005W        W91621  44.724   3.529   0.324
20006W        W91622  40.096  23.612  14.439
20007W        W91623  38.948  24.440   3.190
20008W        W91624  15.728  42.812  12.887
20009W        W91625   2.694  17.743   0.338
20010W        W91626  26.484  35.945  14.307
20011W        W91627  11.264  16.333   2.736
20012W        W91628  34.064   8.688   4.340
20013W        W91629  23.491  16.173  13.241
20014W        W91630   1.007  24.736   4.214
20015W        W91631  26.513   9.306  10.682
20016W        W91632  19.920  32.321  13.976
20017W        W91633  42.840  14.073  11.924
20018W        W91634  44.016   8.346  11.548
20019W        W91635  20.622  35.189  14.909
20020W        W91636  43.794  41.434   4.135
20021W        W91637   8.559  12.089  10.614
20022W        W91638   2.631  29.560  14.800
20023W        W91639  36.707  38.827  12.802
20024W        W91640  42.289  23.920  14.917
20025W        W91641  15.818  36.865  14.694
20026W        W91642  34.899  33.045  11.934
20027W        W91643  27.273  33.558   4.874
20028W        W91644  36.299   5.473   2.742
20029W        W91645  40.016  17.531  12.449
20030W        W91646  44.527   1.888  13.373
20031W        W91647  17.282   8.807   1.293
20032W        W91648   1.833   3.645   4.085
20033W        W91649  10.213  28.228   3.100
20034W        W91650  25.529  12.441  13.023
20035W        W91651   1.212   7.430   0.408
20036W        W91652  31.952   5.264   0.078
20037W        W91653  44.952   2.740  11.969
20038W        W91654   8.676  44.747  13.452
20039W        W91655  32.658  15.856  11.212
20040W        W91656  18.933  33.972   1.931
20041W        W91657  42.931  19.667   1.334
20042W        W91658   3.519  23.109  11.944
20043W        W91659  24.180  31.976   1.750
20044W        W91660   0.934  10.727  11.477
20045W        W91661   0.928  28.418   1.167
20046W        W91662  24.503  13.822   2.276
20047W        W91663  13.410   6.235   1.129
20048W        W91664  33.157  18.835  12.021
20049W        W91665  33.166  44.285  10.030
20050W        W91666  17.323  25.149   5.089
20051W        W91667  10.195  19.717  11.512
20052W        W91668  26.262  20.218   0.771
20053W        W91669   5.852  16.193  10.616
20054W        W91670  11.539  39.239   2.356
20055W        W91671  25.646  18.128  11.581
20056W        W91672  31.511  18.936   3.398
20057W        W91673  28.995  41.163  10.697
20058W        W91674  34.795   2.280   0.438
20059W        W91675  15.667  15.171  14.966
20060W        W91676   7.860   5.772  13.554
20061W        W91677   3.810  21.011  14.747
20062W        W91678  33.377  19.099   0.849
20063W        W91679  37.542  26.228  14.510
20064W        W91680  12.698  31.092  14.896
20065W        W91681  18.776  41.619   3.552
20066W        W91682  13.334  10.150   0.558
20067W        W91683  38.916   6.257  11.370
20068W        W91684  37.976   1.488   2.358
20069W        W91685  13.659  33.071   0.774
20070W        W91686   1.199   7.246   1.736
20071W        W91687   4.606  30.696   0.445
20072W        W91688  44.788  42.828  10.700
20073W        W91689  26.526  24.842  14.464
20074W        W91690  26.672  34.591  13.454
20075W        W91691   2.055  29.667  14.878
20076W        W91692  34.874   5.453   4.425
20077W        W91693  15.325  13.114  12.442
20078W        W91694  22.891  43.586  11.451
20079W        W91695  32.181  44.243   5.056
20080W        W91696   0.064  36.340  10.665
20081W        W91697  19.242  12.196  12.408
20082W        W91698  33.139   9.358   3.614
20083W        W91699   0.710  32.471  13.363
20084W        W91700  44.572  24.505   4.707
20085W        W91701  43.701   9.898   4.154
20086W        W91702  34.390  17.586   4.073
20087W        W91703   0.214  19.111  10.450
20088W        W91704   6.269  19.176   1.728
20089W        W91705  18.631  33.130   2.317
20090W        W91706  14.345   1.483  11.607
20091W        W91707   0.261  26.963   2.197
20092W        W91708   7.254  15.747   5.143
20093W        W91709  26.061  42.777  10.432
20094W        W91710  25.153   0.775  12.861
20095W        W91711  28.041  15.495   3.368
20096W        W91712  31.403  28.077   1.347
20097W        W91713  13.107  14.555   4.012
20098W        W91714  20.490  37.359   2.714
20099W        W91715  13.316  40.822   3.666
20100W        W91716  40.449  43.263   0.974
20101W        W91717  36.198  30.914   1.025
20102W        W91718  24.202   3.827  12.050
20103W        W91719  39.240  11.758  10.188
20104W        W91720  41.220  29.554  12.848
20105W        W91721  22.774  27.756  10.302
20106W        W91722  25.725  20.583   0.382
20107W        W91723   5.931   0.797  10.917
20108W        W91724   3.217  33.470   2.372
20109W        W91725   2.498  33.560   0.263
20110W        W91726  35.929  23.561   0.919
20111W        W91727  21.342  13.640   3.755
20112W        W91728   5.401  31.138   4.247
20113W        W91729  38.034  35.276  14.122
20114W        W91730  25.676  38.732  11.188
20115W        W91731  38.583   0.498  12.404
20116W        W91732  20.607  23.233   4.812
20117W        W91733  35.025  28.028  14.084
20118W        W91734  28.498  26.446   2.350
20119W        W91735  31.785   5.703  10.486
20120W        W91736  31.055   0.948   1.970
20121W        W91737   0.474  42.428   1.488
20122W        W91738  25.600   0.317   3.189
20123W        W91739   4.102   5.402   0.000
20124W        W91740   8.081  26.555  12.952
20125W        W91741  25.510  24.543   1.178
20126W        W91742  40.711   1.653   2.445
20127W        W91743   4.399  27.655  11.130
20128W        W91744  13.915  12.036  11.046
20129W        W91745  10.832  43.429   4.994
20130W        W91746  14.228   6.359   3.670
20131W        W91747  21.488  12.699  12.622
20132W        W91748  24.695  41.847  11.656
20133W        W91749   9.358  24.657   1.642
20134W        W91750   3.117  43.530  12.180
20135W        W91751  43.347  42.431  12.630
20136W        W91752   3.252   2.505  13.608
20137W        W91753  28.217  41.372   3.678
20138W        W91754  21.240  20.612   2.242
20139W        W91755  35.019  40.319  14.111
20140W        W91756  25.428  38.682   1.971
20141W        W91757  21.032  13.113   3.419
20142W        W91758  27.043  21.416   4.805
20143W        W91759   2.540  20.627   3.911
20144W        W91760  25.648  18.732  14.366
20145W        W91761  35.559   9.749  12.454
20146W        W91762  14.586  24.593  12.155
20147W        W91763   9.679  28.107  13.157
20148W        W91764  10.126  36.103  14.310
20149W        W91765  39.305  32.795   4.130
20150W        W91766  40.534  30.841  11.104
20151W        W91767  40.889  18.572   1.864
20152W        W91768   5.710  20.012  12.540
20153W        W91769  37.656  37.025  11.635
20154W        W91770  40.893  26.940   0.971
20155W        W91771   6.055  38.707   0.221
20156W        W91772   1.364  30.870  14.906
20157W        W91773  42.400  38.537  11.034
20158W        W91774  43.243  13.577  13.070
20159W        W91775  14.467  39.929  14.789
20160W        W91776   9.393  13.626  11.008
20161W        W91777  23.415   4.650  14.262
20162W        W91778  41.820  28.034   0.013
20163W        W91779  12.716  16.039   1.328
20164W        W91780  26.925  13.146   0.886
20165W        W91781   3.278  26.551   1.774
20166W        W91782   4.501  14.958   1.848
20167W        W91783   7.154   3.847   0.686
20168W        W91784  14.200  20.362   0.320
20169W        W91785   3.379   1.171  12.809
20170W        W91786  25.028  38.407   3.281
20171W        W91787   1.456  35.630   0.702
20172W        W91788   3.933  27.692  14.005
20173W        W91789  15.808  22.718   3.014
20174W        W91790  14.900  16.153   4.986
20175W        W91791   5.251  10.349  12.926
20176W        W91792   1.815   6.186   4.170
20177W        W91793  16.187  23.562  10.435
20178W        W91794  21.214  33.173  11.103
20179W        W91795  32.108  42.798   2.657
20180W        W91796  37.099  28.435  10.692
20181W        W91797  35.459  10.236   1.243
20182W        W91798  30.995  35.822   1.355
20183W        W91799  22.118   7.225  13.519
20184W        W91800  18.718  33.298   1.394
20185W        W91801  37.789  28.524  12.725
20186W        W91802  44.046  21.175  13.059
20187W        W91803   5.747   8.278   1.959
20188W        W91804   9.781  24.236  11.229
20189W        W91805  26.011   1.621   4.710
20190W        W91806  16.594  14.558   2.656
20191W        W91807   9.673   6.304   0.841
20192W        W91808  12.616  27.279   2.753
20193W        W91809  22.039  31.204  14.496
20194W        W91810  36.199  38.928  14.263
20195W        W91811  15.337  20.731   0.529
20196W        W91812   6.692   9.807  13.539
20197W        W91813   4.939  25.925   2.777
20198W        W91814   2.398   4.332  11.640
20199W        W91815  44.607  39.451   3.733
20200W        W91816  39.863  42.412   3.219
20201W        W91817  39.080  10.315   3.797
20202W        W91818   1.295  33.330  13.864
20203W        W91819  13.657  26.042   1.875
20204W        W91820  15.716  39.678   3.189
20205W        W91821  15.759  38.986   3.204
20206W        W91822  34.898  16.014   0.462
20207W        W91823  42.904  26.916   4.117
20208W        W91824   2.234  38.302  14.870
20209W        W91825  26.741  13.326   2.129
20210W        W91826   0.443   3.879  11.622
20211W        W91827  44.754  24.681  12.558
20212W        W91828  40.617  40.621   2.499
20213W        W91829  27.539  24.697  13.338
20214W        W91830  16.140   0.906  11.361
20215W        W91831   0.251  18.583  13.042
20216W        W91832  42.560  37.850   3.168
20217W        W91833   5.294  38.887   2.188
20218W        W91834   8.864  29.942   4.040
20219W        W91835  25.221   0.064   2.257
20220W        W91836   4.271  16.198  14.860
20221W        W91837  22.042  40.019   1.227
20222W        W91838  42.579   3.701  13.923
20223W        W91839  22.787   0.737   3.079
20224W        W91840  36.952  14.505   3.417
20225W        W91841  17.759  21.559  11.269
20226W        W91842  41.803  26.789  11.595
20227W        W91843  12.198  21.813   2.355
20228W        W91844  41.300  43.103   3.687
20229W        W91845  10.407  34.606  14.786
20230W        W91846   6.183  35.965   2.962
20231W        W91847  43.441   9.687  10.723
20232W        W91848   6.803   1.459   1.450
20233W        W91849  40.435  10.094   4.979
20234W        W91850  29.436  27.232  13.476
20235W        W91851   5.160   6.156  14.715
20236W        W91852   4.382   6.153   0.489
20237W        W91853  24.979  11.116  12.973
20238W        W91854  20.506   4.187   1.878
20239W        W91855  36.786   5.323   0.822
20240W        W91856   6.958   6.023   2.774
20241W        W91857  30.968  21.089  11.039
20242W        W91858   2.949  43.388  10.270
20243W        W91859  14.648  23.445  11.699
20244W        W91860  19.165  28.848   0.716
20245W        W91861  21.727  37.347   3.301
20246W        W91862   8.336  30.484   0.481
20247W        W91863  43.861  34.213   0.833
20248W        W91864  37.574  25.425   2.270
20249W        W91865  41.289  15.260   2.696
20250W        W91866   5.456   6.413   1.964
20251W        W91867  16.732  18.159   3.311
20252W        W91868  21.636  23.093  13.522
20253W        W91869   9.066  17.860  12.476
20254W        W91870  25.062  22.634   4.069
20255W        W91871  20.608  32.816   2.737
20256W        W91872  38.411  25.931   4.660
20257W        W91873  27.018  42.783   3.268
20258W        W91874  26.328  13.751   4.727
20259W        W91875  18.719  42.695  12.406
20260W        W91876  26.216  44.766   2.728
20261W        W91877  16.834  21.370  13.396
20262W        W91878  19.619  12.610   1.838
20263W        W91879  35.496   9.465   1.803
20264W        W91880  24.955  18.439  10.885
20265W        W91881  15.323  26.044   3.583
20266W        W91882  18.795  14.191  12.901
20267W        W91883  39.346  14.197   3.194
20268W        W91884  11.258  29.363   3.304
20269W        W91885  44.350   3.837   3.302
20270W        W91886  39.438  21.248   1.162
20271W        W91887  21.717   9.366   4.716
20272W        W91888  38.424   7.627  12.642
20273W        W91889  22.592  25.857  14.839
20274W        W91890  24.629  27.108  12.267
20275W        W91891  34.047  14.236   0.899
20276W        W91892  44.471   8.408   2.810
20277W        W91893  37.782  22.809  14.318
20278W        W91894  35.530   9.955  11.981
20279W        W91895   9.191   8.185  12.022
20280W        W91896   4.993  34.995   3.643
20281W        W91897  39.532  32.912   3.234
20282W        W91898  36.643  24.035   2.875
20283W        W91899  18.093  20.713  14.778
20284W        W91900  36.048   1.711  10.992
20285W        W91901   5.732  42.730  11.992
20286W        W91902  22.715  11.079  11.167
20287W        W91903  27.961  20.226   2.219
20288W        W91904   2.555  37.992  11.663
20289W        W91905  44.154  21.717   0.418
20290W        W91906  24.900  19.594  12.884
20291W        W91907  30.422  17.848   0.428
20292W        W91908  28.130  16.316   0.469
20293W        W91909  21.076  42.541   3.659
20294W        W91910  24.491  28.353   1.200
20295W        W91911   2.908  33.645   1.926
20296W        W91912  35.685  14.324  12.840
20297W        W91913  15.822  43.834  14.963
20298W        W91914   7.234  16.493   3.228
20299W        W91915  43.656  29.209  13.858
20300W        W91916  19.363  44.920  14.481
20301W        W91917  19.669  44.526  14.676
20302W        W91918   0.646  18.029   4.035
20303W        W91919  29.489   2.678   1.078
20304W        W91920  25.571  41.427   1.206
20305W        W91921  16.790  34.443   1.244
20306W        W91922  34.784  32.723   0.734
20307W        W91923  43.303  29.177   4.110
20308W        W91924  36.322  40.709  13.974
20309W        W91925   1.041  34.329  14.425
20310W        W91926  12.001  31.513   3.585
20311W        W91927  12.165  44.358   3.698
20312W        W91928  34.844   5.880  14.329
20313W        W91929  12.172  40.336  11.552
20314W        W91930   0.514  36.661   1.728
20315W        W91931  31.655  23.776   4.132
20316W        W91932  30.734  41.516  12.566
20317W        W91933  11.844  25.264  11.630
20318W        W91934   7.853  36.507   0.446
20319W        W91935  40.438  29.104  14.496
20320W        W91936  34.336  41.525  12.483
20321W        W91937  28.688   4.193   2.252
20322W        W91938  11.461  14.693  13.757
20323W        W91939   1.505  11.174   0.306
20324W        W91940  12.653  10.722  13.336
20325W        W91941  10.866  35.945   5.295
20326W        W91942   1.876  33.041   0.027
20327W        W91943  33.988  32.747   2.190
20328W        W91944  12.890  19.062   0.324
20329W        W91945  39.719  11.976   0.531
20330W        W91946  12.295   1.936   2.220
20331W        W91947  29.084   3.383   3.000
20332W        W91948  26.757  10.067   4.603
20333W        W91949  41.337  38.542  12.190
20334W        W91950  14.788  23.900  14.009
20335W        W91951  36.048  44.909   4.060
20336W        W91952   2.954  22.356  10.306
20337W        W91953  33.553  20.192   1.587
20338W        W91954  21.705  25.405  11.941
20339W        W91955   1.354   4.863   3.184
20340W        W91956  39.516  38.937   2.324
20341W        W91957  28.162  29.053   2.411
20342W        W91958  44.184   1.126   4.680
20343W        W91959   0.878   9.889   0.462
20344W        W91960  17.224  35.183   2.705
20345W        W91961  42.548  43.936   0.440
20346W        W91962  28.233  11.424   0.350
20347W        W91963  13.252  40.919   2.630
20348W        W91964   5.724  18.754   4.389
20349W        W91965  26.132  33.134   4.785
20350W        W91966   2.984   3.412  11.581
20351W        W91967  19.075   3.800  10.657
20352W        W91968  14.116  14.021  12.950
20353W        W91969  31.139  20.080   0.251
20354W        W91970  32.506  28.129  10.608
20355W        W91971  14.337  28.405   1.832
20356W        W91972  13.354  12.520  13.477
20357W        W91973  32.837  33.956   2.210
20358W        W91974  10.451  25.220   1.800
20359W        W91975  14.370  42.518  11.892
20360W        W91976  10.970  35.420   1.770
20361W        W91977   5.261  33.707   3.567
20362W        W91978  22.442   2.503  12.075
20363W        W91979  33.012   3.404  11.586
20364W        W91980  19.646  16.844  13.447
20365W        W91981  11.883   6.255   3.311
20366W        W91982   7.757  13.885  10.711
20367W        W91983  11.776  20.802   3.136
20368W        W91984  10.921  35.620   2.973
20369W        W91985  24.109  24.682  13.815
20370W        W91986  36.937  18.512   0.420
20371W        W91987   9.872  13.812  11.256
20372W        W91988  35.956  32.349  12.046
20373W        W91989  39.881   9.829  12.929
20374W        W91990  16.310  10.920  12.231
20375W        W91991   2.943   7.122   3.678
20376W        W91992  15.574  22.466  12.002
20377W        W91993  34.608  25.939  10.767
20378W        W91994  38.271  33.102  13.923
20379W        W91995  39.277  27.526   3.689
20380W        W91996  35.161   3.768  10.469
20381W        W91997  35.786  12.197  12.886
20382W        W91998  44.886  13.724   3.088
20383W        W91999   0.785  14.232   3.665
20384W        W92000   9.421   5.408  11.509
20385W        W92001  14.563  13.975   4.048
20386W        W92002  24.197  16.600   1.719
20387W        W92003  35.444  36.361   0.194
20388W        W92004  36.875   5.031  11.821
20389W        W92005  29.714   9.735  12.472
20390W        W92006  26.956  12.144  10.648
20391W        W92007  42.029  31.554  12.392
20392W        W92008  20.729   5.830   1.974
20393W        W92009  40.134   5.965   4.028
20394W        W92010  16.346  36.069   0.419
20395W        W92011  22.529  14.607   4.147
20396W        W92012  11.710  33.360   4.643
20397W        W92013   0.993   4.933   2.731
20398W        W92014   7.263  22.033  12.813
20399W        W92015  18.913  31.372   4.164
20400W        W92016  23.439   0.795   1.801
20401W        W92017   6.651  21.128  10.571
20402W        W92018   6.647  13.596   1.426
20403W        W92019  32.801  32.015  14.249
20404W        W92020  17.210   2.136  14.377
20405W        W92021  18.250  17.170   2.976
20406W        W92022   0.787  14.094  12.880
20407W        W92023   5.302  14.101   4.708
20408W        W92024  39.400  40.385  11.484
20409W        W92025  12.198  11.203  13.771
20410W        W92026  41.369  29.878  14.504
20411W        W92027  28.624  33.113   2.932
20412W        W92028   2.914   2.780  12.392
20413W        W92029  36.041  30.713   2.000
20414W        W92030  38.376   0.366  14.388
20415W        W92031   4.907  15.597   2.720
20416W        W92032  23.498  24.750   3.965
20417W        W92033   6.234  15.131   0.406
20418W        W92034  28.053  21.013   2.796
20419W        W92035  15.696   3.001   1.900
20420W        W92036  15.527   2.444  14.874
20421W        W92037   6.910  37.344   3.917
20422W        W92038   5.185  20.441   0.195
20423W        W92039   6.305  12.878  14.986
20424W        W92040   9.220  27.452   3.675
20425W        W92041  27.966   5.249   1.473
20426W        W92042  29.689  16.692  11.436
20427W        W92043  37.754  24.241  11.674
20428W        W92044  27.901  30.658   4.543
20429W        W92045  32.004   8.651  11.998
20430W        W92046   2.854  18.296  14.208
20431W        W92047  39.457  18.303   0.253
20432W        W92048  31.563  41.278   3.807
20433W        W92049  41.067  38.835   2.378
20434W        W92050  16.790  43.469   3.182
20435W        W92051  43.507  24.672  13.007
20436W        W92052  16.848  20.443   3.344
20437W        W92053   2.281  28.948   2.136
20438W        W92054   6.361   7.722  13.517
20439W        W92055  31.063  29.633  10.451
20440W        W92056  44.921  40.266   1.115
20441W        W92057  25.431  17.624  10.923
20442W        W92058  14.343  34.735  11.657
20443W        W92059  30.483  35.308  11.632
20444W        W92060  24.757  27.566  12.464
20445W        W92061  10.917  20.308   1.396
20446W        W92062   8.816   8.337   3.369
20447W        W92063  24.201  11.423   5.096
20448W        W92064  14.708  43.648   3.288
20449W        W92065  14.206  32.237  12.467
20450W        W92066  37.303   5.153   3.260
20451W        W92067   0.895  16.805  13.881
20452W        W92068  14.610  30.873  12.592
20453W        W92069  36.994   6.029  14.858
20454W        W92070   5.927   7.973  13.364
20455W        W92071   9.879  23.423   1.687
20456W        W92072  20.119  15.710  14.116
20457W        W92073  13.971  26.537   0.945
20458W        W92074  27.119  12.697  13.466
20459W        W92075  43.439  43.072  12.075
20460W        W92076  20.245  13.385   2.727
20461W        W92077  37.102  33.534   4.987
20462W        W92078  30.328  13.295  12.590
20463W        W92079  10.572  28.979  10.737
20464W        W92080  43.964  21.050  10.664
20465W        W92081   2.981  23.618  12.420
20466W        W92082   6.964  25.147  11.473
20467W        W92083   0.374  29.527   4.884
20468W        W92084   7.453  44.375  12.536
20469W        W92085   0.692   6.760   2.809
20470W        W92086  27.054   4.975   1.239
20471W        W92087  34.457  17.189   4.363
20472W        W92088  31.025  27.008   5.061
20473W        W92089  23.656  28.948  11.568
20474W        W92090  33.999  42.034   4.463
20475W        W92091   8.852  21.710   2.180
20476W        W92092  17.774  16.560   0.976
20477W        W92093  33.957  39.278   1.494
20478W        W92094   7.122  25.319  12.366
20479W        W92095  18.595  13.453  10.705
20480W        W92096  26.479  23.260   3.184
20481W        W92097  26.455  16.609  11.526
20482W        W92098   9.294  13.159  14.903
20483W        W92099  26.419   3.346   3.308
20484W        W92100  22.790  17.732  12.446
20485W        W92101  19.075  41.848   4.135
20486W        W92102  10.312  10.696  11.241
20487W        W92103  41.016  27.206   2.349
20488W        W92104   2.955  26.233  13.234
20489W        W92105  11.357   7.212   1.692
20490W        W92106   9.071   1.847  12.944
20491W        W92107  44.042  19.614   5.129
20492W        W92108  10.689   6.373  10.613
20493W        W92109  17.838  41.312   0.974
20494W        W92110  29.999  34.377  11.584
20495W        W92111  39.016   1.822   3.674
20496W        W92112  42.436  24.569   1.188
20497W        W92113  31.158  36.151  14.828
20498W        W92114  39.011  30.487   3.302
20499W        W92115   3.392  44.903   0.765
20500W        W92116  28.205  41.473   2.840
20501W        W92117  39.737  29.886   3.234
20502W        W92118  27.704   8.302  13.265
20503W        W92119  42.208  27.549   3.668
20504W        W92120  20.677  27.963  13.475
20505W        W92121  27.044   7.469   4.929
20506W        W92122  24.341  30.355   0.774
20507W        W92123  25.545  33.000  10.404
20508W        W92124  28.246  27.588   1.728
20509W        W92125  24.283  42.137   3.396
20510W        W92126  38.869   3.344  11.060
20511W        W92127  37.826  34.393   3.228
20512W        W92128   8.813   1.276  14.984
20513W        W92129  31.661  34.949  11.991
20514W        W92130  34.230  43.499  14.205
20515W        W92131   2.813   6.901  11.068
20516W        W92132  43.285  24.019  14.902
20517W        W92133   8.064  29.003  13.481
20518W        W92134  25.634  11.209   2.784
20519W        W92135  25.093  17.519   4.691
20520W        W92136  18.139   8.747   3.731
20521W        W92137  42.258   4.780   1.746
20522W        W92138  14.989   3.727   0.375
20523W        W92139  42.536  31.595  12.279
20524W        W92140  16.286  25.716   0.796
20525W        W92141  36.241  27.161  14.390
20526W        W92142  28.411   5.015  12.988
20527W        W92143  12.863  41.009  11.210
20528W        W92144  43.418  32.366   4.852
20529W        W92145  12.679  32.801   0.776
20530W        W92146  40.223  35.422   0.906
20531W        W92147  28.793  25.112  11.105
20532W        W92148  34.958  19.376  13.058
20533W        W92149  34.006  34.025   4.685
20534W        W92150  35.387  13.222  14.394
20535W        W92151  18.241  14.104   3.634
20536W        W92152  33.826   8.229   0.075
20537W        W92153  29.937   5.496  10.802
20538W        W92154  16.218  33.655  14.451
20539W        W92155  42.118  21.985  14.842
20540W        W92156  12.808  15.541   1.418
20541W        W92157  32.652   3.082  13.437
20542W        W92158   6.384  12.871   2.729
20543W        W92159  21.019  19.248   3.258
20544W        W92160  31.021  13.049   3.998
20545W        W92161  44.363  40.309   4.675
20546W        W92162   8.800  43.902  14.248
20547W        W92163  31.791  12.321  14.432
20548W        W92164   8.109  21.756  14.778
20549W        W92165  29.850  34.297   1.280
20550W        W92166  19.654  28.886  11.292
20551W        W92167  33.489  43.863  13.816
20552W        W92168   4.199  38.893  10.656
20553W        W92169  36.437  37.749  11.133
20554W        W92170  40.390  33.570  13.490
20555W        W92171  29.145  17.824   3.376
20556W        W92172   4.696  43.310  13.481
20557W        W92173  10.736  30.898   1.036
20558W        W92174   0.156   5.671   0.295
20559W        W92175   5.896  32.311   3.750
20560W        W92176  33.551   3.216   4.606
20561W        W92177  32.437  32.793  11.228
20562W        W92178  22.547   8.056   0.959
20563W        W92179  37.545  30.242   4.318
20564W        W92180  11.833  29.590   3.364
20565W        W92181  36.318  20.172   3.505
20566W        W92182  25.956  23.876  11.028
20567W        W92183  31.476  12.359  13.289
20568W        W92184  43.221  11.326  12.578
20569W        W92185  17.639  15.870   0.308
20570W        W92186  31.093  22.321  11.966
20571W        W92187  24.341   2.289  11.535
20572W        W92188  27.968   2.675   0.216
20573W        W92189  28.522   5.499  12.962
20574W        W92190   8.467  29.168   2.257
20575W        W92191  35.067   5.495  11.319
20576W        W92192  40.948  27.441   1.874
20577W        W92193   7.820  30.168  10.463
20578W        W92194  10.764  28.669  14.372
20579W        W92195  13.550  28.996   4.215
20580W        W92196   4.719   5.895  14.619
20581W        W92197  20.495  14.640  12.062
20582W        W92198   6.802  25.094   4.605
20583W        W92199   0.963  42.222   4.579
20584W        W92200  39.599  12.192  14.994
20585W        W92201  21.778  44.367   1.745
20586W        W92202  41.477   7.312  11.413
20587W        W92203   7.401   2.274  10.792
20588W        W92204   0.761  36.615   0.400
20589W        W92205   4.345  28.040   0.591
20590W        W92206  10.237   5.324   4.657
20591W        W92207  23.987  31.387   4.547
20592W        W92208  12.085  14.121  14.970
20593W        W92209   9.670   2.535   1.136
20594W        W92210  42.943   7.913  12.405
20595W        W92211  29.437  25.557  13.970
20596W        W92212  16.333  30.520  13.420
20597W        W92213  25.178  23.795  14.841
20598W        W92214   1.869   0.718  10.147
20599W        W92215  11.053  38.523   2.757
20600W        W92216  18.495  32.532  12.913
20601W        W92217  36.524  39.575  10.730
20602W        W92218  43.410  39.336   0.353
20603W        W92219  25.607  42.512   2.647
20604W        W92220  40.129   0.219  11.427
20605W        W92221   3.438  25.543  12.864
20606W        W92222  23.656  19.735  12.477
20607W        W92223   6.646  26.919   2.173
20608W        W92224  39.256  37.517   3.269
20609W        W92225  16.780  16.938  13.099
20610W        W92226  11.255   5.709   1.928
20611W        W92227   0.293  25.768   0.339
20612W        W92228  44.363  33.966  13.847
20613W        W92229   9.776  23.560  11.546
20614W        W92230  41.471   6.435  13.927
20615W        W92231  37.089  44.099  11.032
20616W        W92232  24.141   5.328  11.046
20617W        W92233  43.313  39.539   1.303
20618W        W92234   9.780  21.158  14.385
20619W        W92235  20.115  17.591  11.845
20620W        W92236  31.990  18.725  12.457
20621W        W92237  35.466  14.338  11.112
20622W        W92238   4.338  29.891   4.164
20623W        W92239  44.018  42.263  11.572
20624W        W92240  34.093  25.985  10.673
20625W        W92241  32.755   9.848  11.347
20626W        W92242   1.218  20.145  10.739
20627W        W92243  38.708  38.700  10.273
20628W        W92244  10.685   4.830   1.317
20629W        W92245  14.263  27.895   1.948
20630W        W92246  24.687  42.772  13.908
20631W        W92247  37.332  13.939   5.124
20632W        W92248  18.250  25.056  14.506
20633W        W92249  23.212   1.920   4.214
20634W        W92250  42.743  29.628  11.849
20635W        W92251  32.189  11.575  13.521
20636W        W92252  30.918   7.334   2.102
20637W        W92253  17.240  11.648   2.335
20638W        W92254  38.630  43.298   0.977
20639W        W92255  34.786   6.792  14.508
20640W        W92256  20.673  22.605  11.089
20641W        W92257  24.378  41.937   2.426
20642W        W92258  18.347  17.785  11.739
20643W        W92259  11.782   3.716   0.943
20644W        W92260  18.231  35.687   4.215
20645W        W92261  12.478  21.622   1.721
20646W        W92262  19.543  14.709   0.304
20647W        W92263   8.992  34.440  12.049
20648W        W92264  13.692   5.818   1.326
20649W        W92265   8.764   5.542   4.403
20650W        W92266  37.245  23.067  12.155
20651W        W92267  30.931  29.646   4.952
20652W        W92268   3.671  28.202   4.246
20653W        W92269  39.323  31.854   1.765
20654W        W92270   2.309  19.145  11.921
20655W        W92271  38.974  12.098  13.388
20656W        W92272  22.796  10.645  12.121
20657W        W92273  22.666   1.757   5.080
20658W        W92274  25.528  44.934   3.531
20659W        W92275  38.420  15.091  13.931
20660W        W92276  16.479  35.460  10.754
20661W        W92277  24.040  19.108  13.249
20662W        W92278  40.368  24.069   0.272
20663W        W92279   9.412   4.949   3.999
20664W        W92280  12.521  21.449  11.062
20665W        W92281  21.375  29.589   4.061
20666W        W92282  39.480   4.006   0.860
20667W        W92283  23.056   9.743   3.261
20668W        W92284  13.794  38.888  11.162
20669W        W92285   0.024  34.837  12.118
20670W        W92286  12.347  23.028   1.203
20671W        W92287  19.671  44.810  10.445
20672W        W92288  34.502  33.327   1.302
20673W        W92289  21.211  38.285  11.870
20674W        W92290  43.075  43.861   0.321
20675W        W92291  25.258  29.913   4.198
20676W        W92292  25.067   4.833  12.873
20677W        W92293  43.047  33.440  13.915
20678W        W92294  39.225  17.096  11.085
20679W        W92295  13.987  19.262  12.456
20680W        W92296  12.182  44.929  14.492
20681W        W92297  27.047  19.801   0.764
20682W        W92298  11.873  18.860   3.759
20683W        W92299  14.091  36.116   0.039
20684W        W92300  18.223  31.923   3.944
20685W        W92301   5.166  38.628  12.982
20686W        W92302   4.796  31.051   2.025
20687W        W92303  39.034   5.442  13.318
20688W        W92304   0.697  11.730  13.958
20689W        W92305  12.738  40.555   2.697
20690W        W92306  34.548  16.605  14.693
20691W        W92307  26.092  19.121  11.988
20692W        W92308   5.771   5.557  13.437
20693W        W92309  17.531  43.819  11.357
20694W        W92310  35.076  21.034  13.551
20695W        W92311  42.087  21.218   0.759
20696W        W92312  40.519  35.552   3.324
20697W        W92313   1.452   9.275   1.289
20698W        W92314  16.254   7.282  12.377
20699W        W92315  12.795  28.539   4.427
20700W        W92316  38.555  23.599   2.392
20701W        W92317   8.263   1.996   0.989
20702W        W92318  35.308  13.093   1.470
20703W        W92319  28.637   5.017  10.082
20704W        W92320  24.905  28.923  13.582
20705W        W92321   3.948  43.284   1.335
20706W        W92322   9.905   3.487   3.389
20707W        W92323  19.019  34.874  11.918
20708W        W92324  24.577   8.463  11.965
20709W        W92325  40.595  30.175   0.725
20710W        W92326  38.032  39.796  11.808
20711W        W92327  41.468  15.015   2.246
20712W        W92328  31.309  27.770  14.569
20713W        W92329  35.384   4.187  10.700
20714W        W92330  25.747   9.189   2.149
20715W        W92331  37.025  16.098  11.181
20716W        W92332  20.174  29.461   2.740
20717W        W92333  39.847  19.178   3.241
20718W        W92334  19.201  14.565  14.838
20719W        W92335  36.533   6.614  13.983
20720W        W92336   7.848  43.578  12.821
20721W        W92337  33.563  21.027  13.890
20722W        W92338  15.184  41.403  14.918
20723W        W92339   5.255  26.567   1.327
20724W        W92340  25.999  20.350  12.754
20725W        W92341  11.216  13.652   1.327
20726W        W92342  14.832  15.755   9.738
20727W        W92343  10.748  15.331   2.760
20728W        W92344  40.491  33.145   3.077
20729W        W92345  18.042  42.483  11.639
20730W        W92346  33.345  28.479  11.164
20731W        W92347  37.047  18.685  10.634
20732W        W92348  26.028  43.340  11.823
20733W        W92349   1.870   8.212  13.516
20734W        W92350  27.413  27.389  11.999
20735W        W92351   8.747  22.107   0.471
20736W        W92352  21.480   6.343  11.881
20737W        W92353  33.577   4.870  13.790
20738W        W92354   2.691  12.578  10.414
20739W        W92355  13.380   4.210  13.821
20740W        W92356  23.915   2.343  10.497
20741W        W92357  24.474  35.938  12.686
20742W        W92358   4.252   0.984  13.265
20743W        W92359  22.315  14.152   1.513
20744W        W92360   8.804  36.313  10.830
20745W        W92361  34.467  24.460   3.208
20746W        W92362   7.851  30.120  14.867
20747W        W92363  43.424  34.871   3.136
20748W        W92364   2.774   0.008  11.103
20749W        W92365  40.636  36.381  11.953
20750W        W92366  12.106   5.175  13.876
20751W        W92367  19.725  38.194  11.942
20752W        W92368  26.658  39.640   4.520
20753W        W92369  27.560   5.936   2.185
20754W        W92370  13.279   7.322   0.894
20755W        W92371  44.875  42.041   0.924
20756W        W92372   9.828  21.473  10.623
20757W        W92373  19.123  34.788  14.095
20758W        W92374  31.380  25.154  10.649
20759W        W92375  38.357  10.181   4.494
20760W        W92376  43.436  36.547   1.753
20761W        W92377  11.188   5.486   4.557
20762W        W92378  29.149  17.835  12.412
20763W        W92379  13.577  34.005  14.739
20764W        W92380   3.457  23.711  14.876
20765W        W92381  38.244  38.417   2.064
20766W        W92382  41.271  20.740   4.246
20767W        W92383  18.721  28.761   4.959
20768W        W92384  13.133  26.985  10.414
20769W        W92385   6.910  25.992  13.083
20770W        W92386  24.096  12.321   0.389
20771W        W92387  25.029  34.292  11.524
20772W        W92388  40.827  43.690  11.120
20773W        W92389  38.010   6.011  14.868
20774W        W92390  29.751  11.128   1.866
20775W        W92391  21.754  38.615  12.556
20776W        W92392  15.106  21.109  11.421
20777W        W92393  19.218   7.403   4.549
20778W        W92394   9.720  44.055   4.807
20779W        W92395  35.112  37.123  12.572
20780W        W92396  21.048  22.533   3.158
20781W        W92397  23.498  43.345  13.167
20782W        W92398   9.196   1.891  13.439
20783W        W92399  13.120  43.526  11.199
20784W        W92400  10.306  22.162  10.387
20785W        W92401  39.032  18.716   4.872
20786W        W92402  18.545  42.482  10.713
20787W        W92403  34.372  30.111  13.830
20788W        W92404  19.441  32.375  13.830
20789W        W92405  36.466   6.125  10.736
20790W        W92406   4.335  42.694   2.237
20791W        W92407  15.887   0.461  12.585
20792W        W92408  25.504  43.392   2.714
20793W        W92409   6.498  27.560  14.031
20794W        W92410   0.816  16.984  13.395
20795W        W92411  28.650  42.807  14.019
20796W        W92412  33.583   2.258   2.695
20797W        W92413  11.296   6.867  13.860
20798W        W92414  38.761   8.762   1.894
20799W        W92415  38.196  30.395  13.762
20800W        W92416   7.883  44.882   4.187
20801W        W92417  11.838  36.585  12.603
20802W        W92418  37.494  10.614  13.500
20803W        W92419  15.861   9.822  11.550
20804W        W92420  16.215  30.495  10.716
20805W        W92421  42.854  41.071   1.413
20806W        W92422  44.334  21.770   3.285
20807W        W92423  25.653  17.691   0.713
20808W        W92424   7.900  21.265   1.871
20809W        W92425  28.529  37.286  13.237
20810W        W92426  10.785  10.653  10.962
20811W        W92427  26.910  20.976  14.959
20812W        W92428  40.559  36.572  10.435
20813W        W92429  42.437  19.337  11.793
20814W        W92430  20.205  23.635   2.321
20815W        W92431   9.002   8.698   3.683
20816W        W92432   3.728  22.060  13.343
20817W        W92433  19.345  38.618   2.893
20818W        W92434   0.689  40.394   0.865
20819W        W92435  21.706  36.379  13.568
20820W        W92436  14.282  39.788   2.665
20821W        W92437  36.978   9.348   1.481
20822W        W92438  32.175  25.673  12.257
20823W        W92439  38.885  30.786  13.420
20824W        W92440  29.280  30.542   4.190
20825W        W92441  44.280  21.629  12.963
20826W        W92442  43.536  31.203   3.267
20827W        W92443  28.186  38.475   2.178
20828W        W92444  20.511  33.969  13.374
20829W        W92445  10.739  37.410   1.276
20830W        W92446  14.613  31.532  11.187
20831W        W92447  41.585   2.067   2.658
20832W        W92448  41.066  35.335   3.292
20833W        W92449  32.263  37.532   2.886
20834W        W92450  15.129   4.523  11.539
20835W        W92451  17.030   4.663  12.107
20836W        W92452  29.205  39.737  13.779
20837W        W92453  32.067  43.836  11.214
20838W        W92454  39.906  44.345  11.526
20839W        W92455  28.573  15.277   1.076
20840W        W92456  40.884   2.407  12.447
20841W        W92457   4.229  14.425   0.909
20842W        W92458  32.607  25.487  12.423
20843W        W92459  13.699  20.229  13.545
20844W        W92460  33.945   4.177   4.496
20845W        W92461  27.335   8.799   1.379
20846W        W92462  44.975  12.046   3.776
20847W        W92463  38.054  31.346  11.659
20848W        W92464  31.411   9.111  13.770
20849W        W92465  16.536  31.434   0.475
20850W        W92466  42.816  10.408   4.491
20851W        W92467   1.337  31.245   1.992
20852W        W92468  23.196  44.880   3.020
20853W        W92469  25.986   5.178   4.134
20854W        W92470  12.228  22.555   4.593
20855W        W92471  20.215  39.845   1.385
20856W        W92472   1.732  31.578   3.842
20857W        W92473  21.213  34.647   4.584
20858W        W92474  13.937  43.575  14.863
20859W        W92475  28.068  18.967  14.072
20860W        W92476  12.921   9.025  11.233
20861W        W92477  26.598  24.776  12.710
20862W        W92478  33.613   8.700   0.065
20863W        W92479  38.041  13.302  13.349
20864W        W92480  38.740  40.809  11.068
20865W        W92481  26.107  13.821  14.454
20866W        W92482   5.699  23.731   0.702
20867W        W92483  28.782  31.538  14.313
20868W        W92484  36.030  13.011  11.163
20869W        W92485   7.677  22.480   2.823
20870W        W92486  29.491  14.087   0.883
20871W        W92487  29.032  30.466   3.738
20872W        W92488   5.118  16.582  12.887
20873W        W92489   5.307  26.619  12.295
20874W        W92490  19.055  10.725  13.460
20875W        W92491   9.315  39.415  12.847
20876W        W92492  28.302   3.489   4.173
20877W        W92493   6.320  34.919  13.057
20878W        W92494   2.966  32.178   3.753
20879W        W92495  31.197  39.941   2.184
20880W        W92496  32.067   6.538   3.994
20881W        W92497  44.850  22.534   2.486
20882W        W92498  37.835  39.915  10.820
20883W        W92499  38.784  24.109   2.197
20884W        W92500  30.364  24.321  13.236
20885W        W92501  42.276   0.867  13.437
20886W        W92502  39.271  27.054  10.716
20887W        W92503   0.747   1.830  11.326
20888W        W92504  33.557  30.686  11.996
20889W        W92505  44.527  36.143  13.346
20890W        W92506   2.642   0.852  14.196
20891W        W92507  29.229  31.711   9.870
20892W        W92508  12.637  31.613  13.327
20893W        W92509  11.181   3.926   3.261
20894W        W92510   4.035  22.998   1.767
20895W        W92511   2.095   8.372   0.387
20896W        W92512  17.465  27.450   3.054
20897W        W92513  43.706  28.994   2.680
20898W        W92514  28.460  28.162  13.625
20899W        W92515  34.062  16.413   2.352
20900W        W92516  14.766  24.336  13.287
20901W        W92517  12.077  31.717   0.088
20902W        W92518  42.975   3.837   3.898
20903W        W92519  14.308   7.352   0.886
20904W        W92520  17.347  31.577   0.334
20905W        W92521  33.756  29.643  14.800
20906W        W92522  32.623   9.260  11.988
20907W        W92523  42.308   8.412   4.147
20908W        W92524  15.579  30.901   2.046
20909W        W92525   9.234  29.173  11.686
20910W        W92526   0.090  17.781  14.211
20911W        W92527  35.129  24.209   2.367
20912W        W92528  16.646  41.983  10.887
20913W        W92529  32.919  38.768   1.473
20914W        W92530  16.687   1.252  10.856
20915W        W92531  43.799  16.158  14.055
20916W        W92532  30.982  21.554  13.353
20917W        W92533  38.112  14.129   4.585
20918W        W92534  11.267  16.075   2.253
20919W        W92535  11.360  11.243   1.390
20920W        W92536   5.273  36.411   3.294
20921W        W92537  21.516   1.149   4.061
20922W        W92538   0.287  18.077   4.403
20923W        W92539   2.224  23.620  12.944
20924W        W92540  27.115  16.576   3.762
20925W        W92541  14.302  19.600  11.652
20926W        W92542   0.260  22.715  14.548
20927W        W92543  30.472  17.260  14.784
20928W        W92544  40.002  23.229   2.723
20929W        W92545  10.917  20.932   3.056
20930W        W92546  25.960  26.540  10.556
20931W        W92547  20.003  11.017   1.583
20932W        W92548  41.063  39.416   0.459
20933W        W92549  13.221  15.060  11.898
20934W        W92550   6.254   4.546  11.167
20935W        W92551  12.720  18.833   2.241
20936W        W92552  12.515  43.993   2.340
20937W        W92553  15.832  26.017   0.892
20938W        W92554  27.187  13.640  14.282
20939W        W92555  30.548  29.047  11.428
20940W        W92556  43.953  26.461   2.465
20941W        W92557   6.464   2.433   1.169
20942W        W92558  22.663  39.916  14.246
20943W        W92559  21.231  38.126   1.010
20944W        W92560  20.891  15.573   4.649
20945W        W92561  15.153   4.657   3.229
20946W        W92562  18.314  33.196   3.247
20947W        W92563   7.370  44.951  13.840
20948W        W92564  18.437   5.161   2.705
20949W        W92565  29.642  32.060   4.165
20950W        W92566  36.476  39.785   4.107
20951W        W92567  22.054  30.909  13.757
20952W        W92568  27.982  13.708   1.680
20953W        W92569  41.599  26.596   2.678
20954W        W92570  33.945  37.688  11.127
20955W        W92571  15.842  40.308   0.940
20956W        W92572  21.083   9.934  12.129
20957W        W92573  22.295  37.002   1.311
20958W        W92574  34.161  23.505   3.340
20959W        W92575  22.514  43.968   2.738
20960W        W92576   1.299  25.981  12.289
20961W        W92577  39.288  30.700  13.090
20962W        W92578  27.443   6.185   3.696
20963W        W92579  39.315  35.475  11.508
20964W        W92580  32.213  27.621  10.304
20965W        W92581   2.629  28.996   1.256
20966W        W92582  37.848  34.329  13.740
20967W        W92583  29.333  29.042  14.483
20968W        W92584  21.039  44.077  11.919
20969W        W92585   5.935  16.822  12.547
20970W        W92586  19.760   6.723  11.200
20971W        W92587   0.831  42.652  12.504
20972W        W92588  15.923  15.171  10.177
20973W        W92589  27.981  33.005  12.014
20974W        W92590  13.122  29.537   3.107
20975W        W92591  13.066   3.014   0.910
20976W        W92592  16.529  30.719   4.349
20977W        W92593  16.537  21.676  14.080
20978W        W92594  35.874  40.958  13.960
20979W        W92595  36.081   1.331  14.754
20980W        W92596  23.974  44.027  13.827
20981W        W92597   8.559  27.425   1.801
20982W        W92598  28.513  17.910   3.080
20983W        W92599  38.974  15.304  12.940
20984W        W92600  12.217   6.412   0.916
20985W        W92601   1.148  24.091  12.504
20986W        W92602  44.403  33.639   5.083
20987W        W92603   7.853  11.577   1.308
20988W        W92604  15.920  32.117   0.371
20989W        W92605  43.681  41.315  10.690
20990W        W92606   6.261  35.324  11.110
20991W        W92607  16.238  41.072   0.587
20992W        W92608  16.041   4.575   2.851
20993W        W92609  35.538  24.956   1.669
20994W        W92610  22.741  37.346   2.217
20995W        W92611  27.397  44.583   1.767
20996W        W92612  27.875  10.279  11.077
20997W        W92613  30.053  19.512  12.057
20998W        W92614  39.756  32.719  13.247
20999W        W92615   3.806   1.453  13.008
21000W        W92616  37.758   8.128   3.650
21001W        W92617   7.004   7.191   4.633
21002W        W92618  19.043  39.821  14.331
21003W        W92619   0.536   3.155   3.263
21004W        W92620  12.224   9.156   2.492
21005W        W92621  35.924  28.542   3.375
21006W        W92622   5.772  25.970  13.882
21007W        W92623  11.133  12.130  14.717
21008W        W92624  27.197  29.177  12.712
21009W        W92625  30.135  14.129   2.624
21010W        W92626  20.650  16.281   0.303
21011W        W92627  21.315  14.829   0.857
21012W        W92628  35.483  14.854  11.109
21013W        W92629  20.710  17.168  13.772
21014W        W92630  24.432  40.872  14.314
21015W        W92631  31.441  37.777  13.889
21016W        W92632   9.829   3.943   1.147
21017W        W92633   2.709  27.876   0.772
21018W        W92634  44.960  36.040   2.300
21019W        W92635  20.841  38.931  14.504
21020W        W92636   0.495  25.205   1.184
21021W        W92637  41.405  32.839   1.198
21022W        W92638  28.110  29.019   0.903
21023W        W92639  13.384   9.504  14.964
21024W        W92640  31.249  28.929   4.823
21025W        W92641  38.244  14.034  10.216
21026W        W92642  31.952  28.734  10.168
21027W        W92643   7.165   5.281  14.905
21028W        W92644   2.758  34.864   3.067
21029W        W92645  11.704  27.483  10.562
21030W        W92646   7.132  32.604  13.082
21031W        W92647  29.112   2.940  13.377
21032W        W92648  20.833  15.352  12.024
21033W        W92649  33.106  32.055  12.496
21034W        W92650   9.885  36.849   1.332
21035W        W92651  39.905  32.311  13.541
21036W        W92652  39.997  11.603   1.198
21037W        W92653   4.200  39.096   2.525
21038W        W92654  25.368   9.134   4.584
21039W        W92655   0.210   0.400   3.249
21040W        W92656  36.277   8.624   3.705
21041W        W92657  42.809  15.883   0.931
21042W        W92658  17.725   8.010   2.251
21043W        W92659  37.002  39.977   0.769
21044W        W92660  37.003  21.098   3.224
21045W        W92661  42.589  34.017   1.900
21046W        W92662  24.645  22.291  14.713
21047W        W92663   4.946   3.482  12.786
21048W        W92664  44.018   4.964   2.904
21049W        W92665  38.815   3.714  12.364
21050W        W92666  10.145  42.778  13.470
21051W        W92667  20.477   4.824  10.676
21052W        W92668  41.488  23.066  11.070
21053W        W92669   4.081  38.311   2.360
21054W        W92670   3.743   1.419   0.029
21055W        W92671  25.665  31.922  12.713
21056W        W92672  39.617  24.409   2.296
21057W        W92673  10.592  41.968   2.898
21058W        W92674  24.457   7.110  12.526
21059W        W92675  18.560   4.228  14.209
21060W        W92676  31.577  31.818   1.272
21061W        W92677  19.829  29.795  11.126
21062W        W92678   0.417  41.320  12.295
21063W        W92679   0.270   9.225  12.521
21064W        W92680  26.497   6.036   4.207
21065W        W92681  26.686  24.623   4.318
21066W        W92682  17.665  15.023   2.693
21067W        W92683  31.258  36.651  14.796
21068W        W92684  30.904   5.727  13.847
21069W        W92685  39.289  32.540  13.423
21070W        W92686   1.319  19.516  11.979
21071W        W92687  37.453  17.046  10.486
21072W        W92688  38.493  37.013  14.385
21073W        W92689   2.705  15.525  11.575
21074W        W92690  38.912   2.479   1.282
21075W        W92691  24.090  26.976   3.685
21076W        W92692  40.728  19.470  12.555
21077W        W92693  21.789  10.648  14.358
21078W        W92694   6.013   5.789   3.737
21079W        W92695  16.227  11.802   0.850
21080W        W92696  32.157  11.356  13.058
21081W        W92697  15.305   8.333  14.693
21082W        W92698   7.810  32.064   2.708
21083W        W92699  19.518  14.866   2.640
21084W        W92700   7.676   1.972   2.505
21085W        W92701  13.853  17.553   2.653
21086W        W92702  15.182  17.769  13.294
21087W        W92703  22.419  34.927   5.153
21088W        W92704  26.135  30.628   4.737
21089W        W92705  13.055  28.201  14.294
21090W        W92706  27.243  36.331   4.124
21091W        W92707  20.539  10.664   0.896
21092W        W92708  38.133   8.892   4.106
21093W        W92709  43.837   0.734  13.358
21094W        W92710  19.257  30.064   2.378
21095W        W92711   8.759   9.162   4.130
21096W        W92712  20.559  42.877  11.112
21097W        W92713  36.369   7.628  13.036
21098W        W92714  21.723  36.264  12.447
21099W        W92715  14.888   6.845   3.657
21100W        W92716  39.923   7.660   2.386
21101W        W92717  15.012  27.994  11.248
21102W        W92718  39.249   5.340  10.533
21103W        W92719  37.421  23.667  14.940
21104W        W92720  17.332   0.375   2.847
21105W        W92721  27.718  15.290  12.957
21106W        W92722   7.147  14.175   2.836
21107W        W92723  14.762   2.926  10.676
21108W        W92724  26.584  35.568   0.077
21109W        W92725  35.454  40.339  14.411
21110W        W92726  14.804  36.888   3.639
21111W        W92727  22.635  43.316  12.883
21112W        W92728   8.271  39.598   4.755
21113W        W92729  44.239   2.941  12.919
21114W        W92730  34.431  30.710  10.755
21115W        W92731   5.663  44.850  13.301
21116W        W92732  23.626  21.565  13.937
21117W        W92733   8.785  25.679  12.228
21118W        W92734  13.454   6.309  10.248
21119W        W92735  41.422  35.362  14.076
21120W        W92736  24.488  35.451   1.602
21121W        W92737  31.454  44.475   9.602
21122W        W92738  12.246  26.402  11.136
21123W        W92739  29.173  33.975  12.492
21124W        W92740   7.815  41.381   0.491
21125W        W92741  43.530  22.248   3.302
21126W        W92742  28.968  10.653   0.060
21127W        W92743  44.832  43.883  11.357
21128W        W92744  18.240  17.839   3.735
21129W        W92745  42.154  14.957   3.715
21130W        W92746  42.741  20.222  11.174
21131W        W92747  15.115  34.918   0.786
21132W        W92748  36.423  44.764   2.693
21133W        W92749  26.542  14.761   3.574
21134W        W92750  15.757  41.329   2.153
21135W        W92751  11.217  20.517  12.106
21136W        W92752  32.113  21.779  11.099
21137W        W92753  19.562  31.063   0.083
21138W        W92754  15.795  26.551   4.086
21139W        W92755   8.340  42.724  14.360
21140W        W92756  38.919  40.299   0.961
21141W        W92757   5.983  14.202   3.804
21142W        W92758  25.518  39.272  12.038
21143W        W92759  16.544   3.517  12.752
21144W        W92760  38.628   8.965   3.995
21145W        W92761  35.532   4.820   1.229
21146W        W92762  17.809  31.938  11.196
21147W        W92763  29.542  39.538   0.734
21148W        W92764  36.662  33.619  12.942
21149W        W92765  34.885  27.644   3.064
21150W        W92766  24.399   2.420  10.650
21151W        W92767  34.209  39.303   1.972
21152W        W92768  29.037  15.567   4.546
21153W        W92769   3.722  19.545   2.349
21154W        W92770   4.745   2.510   1.331
21155W        W92771   3.179  22.266  12.463
21156W        W92772  43.205  33.686   2.653
21157W        W92773  24.023  32.557   3.680
21158W        W92774  44.649  41.296  14.141
21159W        W92775  32.930   2.494  11.776
21160W        W92776  10.741  44.441  10.998
21161W        W92777  28.770  14.763  10.220
21162W        W92778  33.521  14.825   3.280
21163W        W92779  19.255  39.358  11.046
21164W        W92780   9.404  44.804  11.861
21165W        W92781  18.859  41.968   1.805
21166W        W92782   6.477   5.945   3.592
21167W        W92783   1.844   6.924  11.235
21168W        W92784  38.784   5.208  12.908
21169W        W92785  12.288  21.586  14.881
21170W        W92786  22.608   9.276   1.896
21171W        W92787  38.381  28.008  11.848
21172W        W92788  12.592  23.139   3.200
21173W        W92789  19.233  42.519   1.451
21174W        W92790  17.976  12.109   0.446
21175W        W92791  25.614  16.850   0.244
21176W        W92792  28.187  38.918   1.786
21177W        W92793  27.424  42.133  13.787
21178W        W92794  43.611  14.247  11.276
21179W        W92795  27.540  37.258  14.047
21180W        W92796  37.906   0.888  11.647
21181W        W92797  37.808  30.288  12.888
21182W        W92798  10.261  30.640  13.967
21183W        W92799  27.439  44.080   1.814
21184W        W92800  18.056   2.228  14.964
21185W        W92801  38.183  23.174  12.527
21186W        W92802  14.640  17.682   1.762
21187W        W92803  37.408  41.328   4.636
21188W        W92804   2.871  10.944  12.398
21189W        W92805  36.513  25.314  14.276
21190W        W92806  18.717  35.317  12.943
21191W        W92807  18.147   0.769   4.848
21192W        W92808  18.919   4.458  13.294
21193W        W92809  19.306   5.885   4.574
21194W        W92810  30.408  39.428  13.306
21195W        W92811  44.403   9.381   3.557
21196W        W92812  28.664  33.424   4.226
21197W        W92813  15.276   8.680  12.119
21198W        W92814  10.721  18.153  10.796
21199W        W92815  21.073  19.756   1.248
21200W        W92816  22.763  20.444   1.151
21201W        W92817  12.691  18.379  11.069
21202W        W92818  23.767  30.916   0.844
21203W        W92819   4.623  41.362   4.145
21204W        W92820  15.862  33.943  10.514
21205W        W92821  26.000  37.836   0.348
21206W        W92822   8.714  41.394   3.640
21207W        W92823  42.050  44.498   3.717
21208W        W92824   1.895  10.815   4.627
21209W        W92825   1.480  34.613  14.462
21210W        W92826  27.554  28.127  14.232
21211W        W92827  12.614  29.513   2.882
21212W        W92828  33.973  33.903   3.724
21213W        W92829  14.571  23.565   4.548
21214W        W92830  25.087  22.867   1.287
21215W        W92831  24.174  14.617   2.247
21216W        W92832  13.294  16.953  11.877
21217W        W92833  13.808  21.639  11.441
21218W        W92834  39.437  32.595   2.306
21219W        W92835  11.731   7.118  13.622
21220W        W92836  38.400  39.949   0.899
21221W        W92837  12.741  23.730   2.423
21222W        W92838   8.519  40.640   1.717
21223W        W92839  34.345  11.022   1.488
21224W        W92840   2.254  22.120   5.637
21225W        W92841  13.729   3.697   1.861
21226W        W92842  32.854  12.775   3.072
21227W        W92843  11.811  14.882   0.934
21228W        W92844  30.853   5.277  14.147
21229W        W92845   8.388  28.896  13.873
21230W        W92846   7.717   6.265   3.288
21231W        W92847  36.009  24.072   4.682
21232W        W92848  11.103  32.058   4.575
21233W        W92849  32.155  11.783   4.329
21234W        W92850   3.229  39.841   1.320
21235W        W92851  23.873  35.162   2.944
21236W        W92852  10.484  33.692   0.928
21237W        W92853   7.150  10.626   2.937
21238W        W92854  22.146  37.897   0.809
21239W        W92855  32.422  28.475  10.226
21240W        W92856   5.779  42.629   4.965
21241W        W92857  12.208  35.496   3.799
21242W        W92858  33.643  35.290  14.239
21243W        W92859   6.150   9.208   1.679
21244W        W92860   8.884  44.870   4.123
21245W        W92861  33.253  33.606   3.707
21246W        W92862   5.304   2.206   2.777
21247W        W92863  29.968  38.621  14.979
21248W        W92864  13.166   0.066  11.385
21249W        W92865  29.111  29.718   5.481
21250W        W92866   4.989  21.478   1.651
21251W        W92867  40.822  10.699   2.903
21252W        W92868  40.140  15.867   4.088
21253W        W92869   9.650   7.643   0.822
21254W        W92870  35.878  27.038  11.541
21255W        W92871  23.028   6.506  14.115
21256W        W92872  35.384  15.351  11.122
21257W        W92873  34.479   2.713  11.403
21258W        W92874  14.788  30.926   2.789
21259W        W92875  42.346   2.374  14.550
21260W        W92876  10.774  38.067  10.885
21261W        W92877  22.072   8.049   1.671
21262W        W92878  21.055  44.545  14.363
21263W        W92879  41.299  15.371   4.126
21264W        W92880  38.738   1.890  14.083
21265W        W92881  24.157   6.238   0.372
21266W        W92882  30.915  26.243   2.383
21267W        W92883   4.786  16.844   2.840
21268W        W92884  35.001  31.641  11.552
21269W        W92885   8.742  34.439   2.901
21270W        W92886  18.377  42.006  14.491
21271W        W92887  22.754  41.969   0.821
21272W        W92888  24.686  11.636   2.872
21273W        W92889   0.324  11.828  11.212
21274W        W92890   2.714  35.525  12.019
21275W        W92891   6.449   8.867   1.957
21276W        W92892  36.895  26.634   0.920
21277W        W92893  30.423  32.653  11.098
21278W        W92894  10.712  28.123   3.250
21279W        W92895  14.397   2.010  12.553
21280W        W92896  28.578  13.751  12.588
21281W        W92897  27.051  18.769  11.912
21282W        W92898  19.258  13.179   1.287
21283W        W92899   1.772  27.900   3.720
21284W        W92900  17.111  27.058  11.030
21285W        W92901  34.232  33.174  14.235
21286W        W92902  26.481  25.198  11.494
21287W        W92903  29.623  32.856   0.015
21288W        W92904   1.442  29.561  14.293
21289W        W92905  29.623  27.762  10.164
21290W        W92906  14.410   7.285   1.815
21291W        W92907  34.993  14.640  12.433
21292W        W92908  33.931  44.915   2.181
21293W        W92909  44.384  27.638  12.830
21294W        W92910  31.636  21.065   1.211
21295W        W92911  44.339  41.566   2.833
21296W        W92912  26.421   1.752   1.811
21297W        W92913  13.766  11.774   1.315
21298W        W92914  35.480   7.229  11.642
21299W        W92915  31.367  12.785   0.879
21300W        W92916  24.709  30.882  14.819
21301W        W92917  22.790  19.685  11.258
21302W        W92918  42.287  23.229  14.307
21303W        W92919  32.185   6.912   4.323
21304W        W92920  18.325  19.508   4.085
21305W        W92921  21.799   5.271  10.531
21306W        W92922  24.575   9.098  11.316
21307W        W92923  37.067  13.248   3.850
21308W        W92924  22.715  13.157  11.192
21309W        W92925   0.691   5.856   3.616
21310W        W92926   9.232  35.986  11.692
21311W        W92927  40.374   6.232  12.665
21312W        W92928   7.410  29.147   0.321
21313W        W92929  27.475  20.192  11.578
21314W        W92930  29.459  35.636   3.776
21315W        W92931  17.380  43.553   4.035
21316W        W92932   5.565  21.579  13.315
21317W        W92933  36.256  37.802  13.779
21318W        W92934   2.770  40.099   1.164
21319W        W92935  12.383  36.694   1.288
21320W        W92936  36.885  40.393  11.582
21321W        W92937  23.944  10.846   4.301
21322W        W92938   6.890   0.443  13.426
21323W        W92939  10.680  24.005  14.460
21324W        W92940  14.141  13.258   0.034
21325W        W92941  19.330  40.303   1.855
21326W        W92942   1.403   2.837  10.611
21327W        W92943  28.488  41.375  14.535
21328W        W92944  38.830  15.781  12.678
21329W        W92945  10.726  24.524   2.186
21330W        W92946  30.162   0.325  13.049
21331W        W92947  15.798   1.509   0.792
21332W        W92948  40.472  14.115  12.978
21333W        W92949  33.173  28.820  13.927
21334W        W92950  37.006   2.397  11.924
21335W        W92951   4.073  37.966  10.763
21336W        W92952  37.992  26.953  11.054
21337W        W92953  34.687  17.527   0.871
21338W        W92954  17.143   4.645  10.664
21339W        W92955  41.895   7.262  13.065
21340W        W92956  27.916  29.888  12.885
21341W        W92957   6.938  32.734   0.318
21342W        W92958  24.424  37.131   4.262
21343W        W92959  15.294  15.297   0.361
21344W        W92960  38.944   4.690  11.641
21345W        W92961  41.538  32.825  13.111
21346W        W92962  27.620  28.850  12.835
21347W        W92963  37.071  10.742   1.315
21348W        W92964  37.401   9.877   0.349
21349W        W92965  14.187   5.923  13.450
21350W        W92966   0.412  35.936   4.090
21351W        W92967   5.799  29.267   1.194
21352W        W92968   6.988  19.759  11.880
21353W        W92969  38.516  22.272  14.438
21354W        W92970  10.759  36.826  12.958
21355W        W92971  26.448  31.635  12.957
21356W        W92972   0.806   6.795  10.734
21357W        W92973  38.401  23.004  11.225
21358W        W92974  31.444  17.096  14.998
21359W        W92975  35.020  21.639  10.920
21360W        W92976   6.834  24.751  12.218
21361W        W92977  34.174  35.680  10.534
21362W        W92978  33.948  18.652   0.480
21363W        W92979  20.665  31.897  13.251
21364W        W92980  16.848  20.852   0.748
21365W        W92981  39.961  14.808   0.925
21366W        W92982   3.177  10.126   3.174
21367W        W92983  44.273   8.501   5.018
21368W        W92984  42.853   2.681   3.708
21369W        W92985   5.455  17.548  14.090
21370W        W92986  10.647   0.391  12.178
21371W        W92987   0.651  38.215   5.548
21372W        W92988  41.056  41.084  10.744
21373W        W92989  14.358  35.469   2.729
21374W        W92990  16.226  19.607  13.531
21375W        W92991  37.607  23.337  12.837
21376W        W92992  17.646   1.488  12.009
21377W        W92993  14.266  17.262   0.429
21378W        W92994  21.610  35.513  13.885
21379W        W92995  12.564  22.705   0.208
21380W        W92996  15.109   1.524  12.949
21381W        W92997  28.614  35.858  14.735
21382W        W92998  25.518  22.930   4.823
21383W        W92999  33.588   0.806   0.499
21384W        W93000   2.339  17.257   1.436
21385W        W93001  11.402  14.260  14.424
21386W        W93002  24.441  37.381   3.804
21387W        W93003  40.605   2.751  14.452
21388W        W93004  28.728  31.312   0.709
21389W        W93005   0.669  25.587  12.150
21390W        W93006   6.396  23.305   1.357
21391W        W93007  20.524  19.599   0.428
21392W        W93008  40.516   9.238  14.808
21393W        W93009  14.905   0.301   1.965
21394W        W93010  24.935  42.472  11.623
21395W        W93011  43.134  39.869   0.928
21396W        W93012   4.879  36.624  12.572
21397W        W93013   2.727  11.381   3.700
21398W        W93014  19.607  35.575   0.937
21399W        W93015  40.488  37.257   2.746
21400W        W93016  12.121  12.699  12.632
21401W        W93017   3.206  42.041   1.791
21402W        W93018  43.875   6.555  11.587
21403W        W93019  14.660  31.863   1.867
21404W        W93020  33.959  39.533   3.329
21405W        W93021  27.296  27.584  13.259
21406W        W93022   5.357  23.582   4.292
21407W        W93023   9.633  25.763  12.080
21408W        W93024  40.467  28.392  12.054
21409W        W93025  19.702  31.573  13.315
21410W        W93026  43.431  28.013   1.018
21411W        W93027   9.345  33.604  14.941
21412W        W93028  41.482  11.845   1.336
21413W        W93029   4.454  29.834   3.233
21414W        W93030  27.996  37.310  12.944
21415W        W93031  37.656  17.660  14.810
21416W        W93032  21.541  10.924  13.816
21417W        W93033  18.242   0.987  11.653
21418W        W93034  42.992  26.751   2.317
21419W        W93035   4.752   4.764  12.564
21420W        W93036  21.296  26.167   3.770
21421W        W93037  37.039  35.907   0.028
21422W        W93038  35.781   5.220   2.731
21423W        W93039  26.147   0.953  10.618
21424W        W93040  18.074  31.645  13.933
21425W        W93041  33.381  16.203  14.337
21426W        W93042  40.763  44.703   4.348
21427W        W93043   0.762  22.926   1.518
21428W        W93044   7.327   2.218   4.835
21429W        W93045  20.972  39.048   0.902
21430W        W93046  19.241  38.236   1.874
21431W        W93047  18.701  38.461  12.559
21432W        W93048  39.424  10.025   0.184
21433W        W93049  33.446  16.710  10.705
21434W        W93050   3.985  22.589   0.259
21435W        W93051  17.694  41.956   1.226
21436W        W93052  30.558  11.265  13.701
21437W        W93053  13.834   6.708   1.401
21438W        W93054  10.632  38.652  11.833
21439W        W93055   8.944  11.446  13.345
21440W        W93056  44.984  22.935  13.040
21441W        W93057  32.023   6.019   2.279
21442W        W93058  36.572  33.896  14.516
21443W        W93059  23.969  43.388  11.214
21444W        W93060  35.623  29.700  12.466
21445W        W93061   6.948  39.624   3.256
21446W        W93062  10.955  24.584  13.611
21447W        W93063  44.114   8.576  11.986
21448W        W93064  36.535  29.879  10.869
21449W        W93065  23.142  10.715   4.844
21450W        W93066  38.392  16.110  13.908
21451W        W93067  25.968  33.557   0.007
21452W        W93068  33.459  33.873   0.577
21453W        W93069  36.455  15.331   3.307
21454W        W93070  32.902  23.711  11.176
21455W        W93071  34.886  16.881  12.570
21456W        W93072  32.994  16.171   1.619
21457W        W93073  35.194   5.905  12.501
21458W        W93074  32.387  26.190   1.855
21459W        W93075   7.255  37.763   0.430
21460W        W93076  38.624   0.811   3.570
21461W        W93077  23.253  36.574   3.753
21462W        W93078  14.850  34.345   3.843
21463W        W93079  25.169  12.894  11.107
21464W        W93080  36.969   2.733   1.527
21465W        W93081  41.013  10.718  13.857
21466W        W93082  29.937  15.602   5.007
21467W        W93083  38.096  36.490   4.363
21468W        W93084  29.780  20.049   4.091
21469W        W93085  33.866  26.985  13.969
21470W        W93086  13.333   0.795  12.961
21471W        W93087  18.211  19.286   0.309
21472W        W93088   2.303  18.799   4.111
21473W        W93089  24.174   2.692  14.772
21474W        W93090  26.236  36.408   2.223
21475W        W93091  38.992  26.926  12.119
21476W        W93092  14.432  35.938   1.907
21477W        W93093  36.145  41.308  11.017
21478W        W93094  20.194   9.690   2.718
21479W        W93095  37.022  11.693  11.897
21480W        W93096  10.855  42.081   4.276
21481W        W93097  36.529  15.339  12.951
21482W        W93098  15.742  33.135  10.648
21483W        W93099  38.802   5.132   0.777
21484W        W93100  33.000  37.792  14.215
21485W        W93101  21.484   1.837  13.047
21486W        W93102  13.418  11.873  11.110
21487W        W93103   6.664  40.889  11.696
21488W        W93104  43.061  25.783   1.854
21489W        W93105   6.650   8.066  14.833
21490W        W93106  12.583  33.017  14.942
21491W        W93107  44.469  23.676   2.409
21492W        W93108  36.940  41.822  14.281
21493W        W93109  42.236  24.953  12.740
21494W        W93110  19.617  16.310  11.087
21495W        W93111  28.304  19.627   0.501
21496W        W93112  25.738  42.666   4.425
21497W        W93113  43.998  44.734   2.377
21498W        W93114  21.381  44.787  10.703
21499W        W93115  25.298  29.216   2.265
21500W        W93116  15.608  14.618  12.759
21501W        W93117  22.564  13.630  13.143
21502W        W93118   9.571  31.611   3.802
21503W        W93119  33.572  12.729  10.551
21504W        W93120  15.664  38.601   2.341
21505W        W93121  34.637  10.145  11.108
21506W        W93122  33.550  38.570   3.259
21507W        W93123  43.721  42.909   2.524
21508W        W93124  40.919  35.527   1.462
21509W        W93125  18.285   4.167  10.706
21510W        W93126  32.600  21.696  10.984
21511W        W93127  42.469  17.773  13.425
21512W        W93128  37.434  12.477  13.394
21513W        W93129  41.439  41.693   1.843
21514W        W93130  23.708  43.232  13.980
21515W        W93131  31.109  27.733   0.140
21516W        W93132  37.535  12.350   2.119
21517W        W93133  33.153  33.105   1.248
21518W        W93134  38.766  36.544  13.852
21519W        W93135  17.179   2.958   3.228
21520W        W93136  25.982   2.252  13.364
21521W        W93137  35.779  44.955  14.899
21522W        W93138  30.976  17.949   2.400
21523W        W93139  40.454  26.729   4.070
21524W        W93140   1.967  39.832  12.681
21525W        W93141  28.412  18.629   4.426
21526W        W93142  30.982  29.595  14.793
21527W        W93143  20.133   7.584  11.048
21528W        W93144  11.936  41.713   0.421
21529W        W93145  23.611  19.789  13.351
21530W        W93146   0.765  22.949  11.479
21531W        W93147   0.294  23.165  11.588
21532W        W93148  13.890  23.287  12.015
21533W        W93149  16.506  29.083   0.480
21534W        W93150  39.357  21.532  14.376
21535W        W93151  24.684  23.018   3.191
21536W        W93152  23.079  19.734  10.816
21537W        W93153  43.461  42.069   1.383
21538W        W93154  12.905  25.402   3.319
21539W        W93155  16.171  20.199   3.795
21540W        W93156  35.543  39.795   2.218
21541W        W93157  17.854  17.499  11.807
21542W        W93158  41.412  29.090   4.354
21543W        W93159  40.253  43.977  14.975
21544W        W93160  33.388  18.963  12.957
21545W        W93161  38.635  21.515   0.008
21546W        W93162  10.725  44.794  11.743
21547W        W93163  44.699  44.988   1.849
21548W        W93164  40.992  17.558   3.723
21549W        W93165  24.268  12.297   1.778
21550W        W93166  18.230  44.359   9.814
21551W        W93167  24.239   4.167  12.937
21552W        W93168   5.313   1.795   4.191
21553W        W93169  10.822   4.354   2.445
21554W        W93170   9.304  40.472  13.993
21555W        W93171  19.184  24.071   0.944
21556W        W93172  12.529   4.807  11.935
21557W        W93173  17.411  23.546   3.540
21558W        W93174  13.162  41.284   3.430
21559W        W93175  21.477  39.068  14.721
21560W        W93176   8.229  24.223  10.714
21561W        W93177  38.514  43.834   4.471
21562W        W93178  43.213  35.337   4.212
21563W        W93179  30.433  43.245  13.961
21564W        W93180  30.087  30.381   0.733
21565W        W93181   8.866  28.128  11.147
21566W        W93182  20.313   3.101   3.323
21567W        W93183  36.934   7.008  12.858
21568W        W93184  25.061  44.706   3.426
21569W        W93185   6.416   6.204   4.027
21570W        W93186  21.318  18.522  13.106
21571W        W93187  24.595  36.326   1.591
21572W        W93188  16.300  15.336   3.790
21573W        W93189   4.219  34.302  11.902
21574W        W93190  27.726  31.907  13.522
21575W        W93191  12.882  14.433   2.507
21576W        W93192  17.266  23.127  13.288
21577W        W93193  17.472  33.072  12.381
21578W        W93194  40.140  32.090   4.705
21579W        W93195  35.953  11.863  12.513
21580W        W93196   6.309  31.533  11.032
21581W        W93197   1.732  43.060  12.963
21582W        W93198  17.469  42.378   2.416
21583W        W93199  11.229   1.031   4.973
21584W        W93200  16.812  20.240   2.869
21585W        W93201  18.224  32.377   9.978
21586W        W93202  12.795  20.763   0.784
21587W        W93203  34.456   8.223   1.810
21588W        W93204  27.325  43.913  12.845
21589W        W93205  42.356  15.454  14.393
21590W        W93206  20.726  16.335  11.827
21591W        W93207   5.286   6.372   0.707
21592W        W93208   5.727   1.526   3.201
21593W        W93209  16.055  33.917   4.611
21594W        W93210  34.940   9.164  12.504
21595W        W93211  19.809   3.200   3.267
21596W        W93212   9.634  16.217  14.765
21597W        W93213  39.888  15.735  14.403
21598W        W93214  26.703  27.747   0.253
21599W        W93215  32.152  11.397   1.988
21600W        W93216  44.327   2.739  11.050
21601W        W93217  34.649  20.179  11.154
21602W        W93218  11.240  19.253  12.070
21603W        W93219  32.669  17.820  12.423
21604W        W93220  13.330  12.386  12.245
21605W        W93221  36.649  38.001   2.120
21606W        W93222  13.580   6.617  14.813
21607W        W93223  29.672  32.183   3.644
21608W        W93224  31.366  29.415  11.399
21609W        W93225  10.944   6.765  14.897
21610W        W93226  10.350  38.992  14.382
21611W        W93227  29.341   5.546   4.255
21612W        W93228  42.874  37.815   0.809
21613W        W93229  37.096  32.998  12.436
21614W        W93230  10.906  44.032   1.418
21615W        W93231  17.160   7.915   3.579
21616W        W93232  17.226  22.044  10.689
21617W        W93233   9.720  36.357   4.207
21618W        W93234  24.776   2.360   0.508
21619W        W93235  15.153  19.250   0.359
21620W        W93236  38.769  32.673  12.928
21621W        W93237  17.125  11.803  11.638
21622W        W93238  33.309   7.450   2.457
21623W        W93239  33.986   0.085   1.272
21624W        W93240  25.591  13.575   0.374
21625W        W93241   6.772  41.318  14.531
21626W        W93242  31.911  37.819  11.351
21627W        W93243  29.938  22.703   2.371
21628W        W93244  18.560  14.643  11.905
21629W        W93245  25.904  13.861   2.307
21630W        W93246  19.116   8.132   1.236
21631W        W93247  39.956  24.251   3.272
21632W        W93248  37.737  39.957   3.130
21633W        W93249  31.849  10.439   1.860
21634W        W93250  13.901  11.903  13.799
21635W        W93251  21.358  29.709   1.298
21636W        W93252  40.707   3.446  11.039
21637W        W93253   9.155   1.318   2.346
21638W        W93254  11.329  23.555  12.718
21639W        W93255  35.612  34.337   2.834
21640W        W93256   2.463  21.541  10.232
21641W        W93257  19.259  12.689  12.609
21642W        W93258  15.565  19.226   9.654
21643W        W93259  35.354  34.881   4.270
21644W        W93260  15.572  28.534   3.276
21645W        W93261  14.295   5.418   2.240
21646W        W93262  40.709  13.072   2.969
21647W        W93263   9.637   6.310   3.224
21648W        W93264  33.970  25.102  10.470
21649W        W93265  23.059  20.350  14.647
21650W        W93266   8.417  43.684  13.933
21651W        W93267   6.688   6.357  13.945
21652W        W93268  40.660  23.817   2.277
21653W        W93269   1.779  18.349  11.504
21654W        W93270   8.982  27.401   4.562
21655W        W93271  38.063  30.765  10.692
21656W        W93272  30.338  22.478  13.778
21657W        W93273   3.920  17.840   4.653
21658W        W93274  13.948   7.840   3.657
21659W        W93275  36.286  41.643   3.604
21660W        W93276  40.033   8.813   3.456
21661W        W93277   3.459  13.725   1.816
21662W        W93278   2.750   6.773  13.322
21663W        W93279  31.884  27.870  12.025
21664W        W93280   5.916   7.081  14.124
21665W        W93281  22.187  32.449  10.670
21666W        W93282  17.344  14.163  13.105
21667W        W93283  43.006  38.123   3.131
21668W        W93284  43.084  16.919   0.800
21669W        W93285  29.924   2.525   1.337
21670W        W93286  32.186  12.798  14.565
21671W        W93287   2.037  27.178  11.396
21672W        W93288  12.422  21.949  12.345
21673W        W93289  29.402  37.206   5.101
21674W        W93290  40.429  20.110  14.461
21675W        W93291  24.753  21.788  12.923
21676W        W93292  15.973   5.539  12.386
21677W        W93293  17.604  19.810  14.499
21678W        W93294   6.433  18.290   0.891
21679W        W93295  20.057  11.666   0.207
21680W        W93296   4.920   4.801  10.949
21681W        W93297  28.100  43.502   1.474
21682W        W93298  37.134  22.400  12.919
21683W        W93299  16.810   3.808   0.003
21684W        W93300   7.951  31.695  13.838
21685W        W93301  29.143  25.848  13.442
21686W        W93302   9.182   6.306   4.083
21687W        W93303  19.649  38.122  14.425
21688W        W93304   2.263  15.095   2.196
21689W        W93305  23.048  13.687   2.374
21690W        W93306  17.716  20.631   2.747
21691W        W93307  25.794   4.739  12.210
21692W        W93308  44.236  29.011   2.699
21693W        W93309  37.639   0.454  10.761
21694W        W93310  30.500  31.929   1.309
21695W        W93311  21.085  22.082  13.826
21696W        W93312   7.756   5.157   3.808
21697W        W93313   5.457  10.561   4.689
21698W        W93314  36.397  26.602   0.734
21699W        W93315  24.408  18.376  10.567
21700W        W93316   2.322  19.510  12.910
21701W        W93317  36.991  41.461   3.106
21702W        W93318  13.330  15.551  13.880
21703W        W93319  41.953  39.064  12.487
21704W        W93320  14.834  20.287   1.815
21705W        W93321  29.229  34.522  13.054
21706W        W93322  24.293  32.992  14.541
21707W        W93323  33.118  25.427   4.154
21708W        W93324  41.315  25.924   2.325
21709W        W93325  37.501  39.161  12.158
21710W        W93326  28.395  36.914   1.036
21711W        W93327  26.471  36.626  13.566
21712W        W93328  42.503   8.147   2.750
21713W        W93329  18.941  24.279   4.030
21714W        W93330  37.905  19.295  13.234
21715W        W93331  42.447   8.724  12.039
21716W        W93332  31.451  24.232   3.968
21717W        W93333  34.022  10.885  12.149
21718W        W93334  31.855  32.907  10.969
21719W        W93335   7.420  35.842   1.307
21720W        W93336   0.044  38.878   5.066
21721W        W93337  16.574  40.028  12.948
21722W        W93338   9.647   8.163   4.451
21723W        W93339  31.103   0.722  13.498
21724W        W93340  23.160  13.557  10.564
21725W        W93341   6.826  17.572  14.311
21726W        W93342   4.786  28.513  14.351
21727W        W93343   9.726  17.003  14.803
21728W        W93344  24.555  32.356  11.005
21729W        W93345  42.521  32.100  13.563
21730W        W93346  19.554  39.519   2.358
21731W        W93347   9.269   2.554  13.990
21732W        W93348  38.639  44.784  13.717
21733W        W93349   2.238  14.003   2.661
21734W        W93350  17.208   8.679  10.687
21735W        W93351   7.407   1.398   3.651
21736W        W93352   9.131  17.118  12.984
21737W        W93353  21.194   6.818  10.874
21738W        W93354  27.037  11.644  10.716
21739W        W93355  18.240  27.012  14.521
21740W        W93356  10.414  17.682   0.342
21741W        W93357  30.410   8.394   0.337
21742W        W93358  38.985  26.431  14.398
21743W        W93359  26.495  42.564   2.400
21744W        W93360   5.721  14.049  13.336
21745W        W93361  18.221  10.371  13.892
21746W        W93362  28.451  25.520  13.000
21747W        W93363  30.425  31.947  14.043
21748W        W93364  37.846  15.174   4.782
21749W        W93365   1.873  14.277  11.902
21750W        W93366  20.681  34.812   1.109
21751W        W93367  23.866  38.041   4.588
21752W        W93368  18.184  16.636   4.512
21753W        W93369  43.655   0.340  14.824
21754W        W93370   3.211  16.138  13.027
21755W        W93371  27.970  35.987  11.908
21756W        W93372  35.943  41.277  14.743
21757W        W93373   7.433  39.005  11.730
21758W        W93374   6.427  36.139   0.538
21759W        W93375   6.740  36.857  11.689
21760W        W93376  27.247  38.023   1.810
21761W        W93377  21.643   9.699  14.413
21762W        W93378  16.483  12.339   0.423
21763W        W93379  35.320  15.816   2.876
21764W        W93380  34.777  40.943   1.491
21765W        W93381  27.903  22.647   1.115
21766W        W93382  40.742  31.846   1.869
21767W        W93383  12.733  38.146  12.559
21768W        W93384  24.008   0.016   2.434
21769W        W93385  23.842  26.681   0.244
21770W        W93386  24.144  39.128   2.262
21771W        W93387  15.295  24.547  12.391
21772W        W93388   9.341  35.035   3.295
21773W        W93389  41.511  37.901  13.268
21774W        W93390  43.473  43.290   4.196
21775W        W93391  42.832  13.677   4.619
21776W        W93392   9.896  26.074   3.536
21777W        W93393  44.616  27.177   3.653
21778W        W93394   7.139  13.309   0.462
21779W        W93395  19.826  29.903  13.853
21780W        W93396  36.235  14.674  14.434
21781W        W93397  30.168   2.161  13.112
21782W        W93398   1.993   8.764   1.283
21783W        W93399   6.112  38.826  12.884
21784W        W93400  11.861  28.865   1.272
21785W        W93401  25.441  23.521  13.399
21786W        W93402  15.602   2.998  13.454
21787W        W93403   8.740   6.018   9.893
21788W        W93404  25.534  28.238   5.018
21789W        W93405  28.012  14.278   5.058
21790W        W93406  29.289  17.166  10.156
21791W        W93407   3.897   8.631   4.521
21792W        W93408   4.251  26.415   1.851
21793W        W93409  33.526  44.247  12.878
21794W        W93410  26.920  11.171  13.881
21795W        W93411  25.677   3.643  13.002
21796W        W93412  14.423  17.581   3.583
21797W        W93413  22.529  40.246  11.992
21798W        W93414  44.246  17.255  12.458
21799W        W93415   4.452  10.324   3.880
21800W        W93416  10.786   1.023   4.060
21801W        W93417  27.148   3.838   0.717
21802W        W93418  16.977  11.429  11.977
21803W        W93419   7.301  10.660   1.444
21804W        W93420  19.112  10.317  10.291
21805W        W93421   7.404  30.192  13.557
21806W        W93422  36.858  12.154  14.816
21807W        W93423  43.415   0.050  10.569
21808W        W93424   5.306  34.967  13.207
21809W        W93425  24.121  34.479   2.175
21810W        W93426  13.772   8.361   2.385
21811W        W93427  19.745  40.266   4.057
21812W        W93428   5.378  20.180  13.949
21813W        W93429  36.915  42.322  13.423
21814W        W93430  29.181  29.645  12.103
21815W        W93431  27.615   6.717  12.533
21816W        W93432  38.900  24.974   0.641
21817W        W93433  39.488  14.597   0.899
21818W        W93434   6.715  43.498  13.393
21819W        W93435  16.875   6.902  13.447
21820W        W93436  16.259  34.909   2.362
21821W        W93437   9.571  18.439   3.531
21822W        W93438   9.184  19.555   2.140
21823W        W93439  36.774  32.294  13.009
21824W        W93440  13.006  44.053   2.185
21825W        W93441  18.440   4.905  13.103
21826W        W93442   9.598  37.559  14.840
21827W        W93443  28.444  23.236  12.895
21828W        W93444  44.904  29.429   4.124
21829W        W93445  12.914  26.019  14.478
21830W        W93446  39.468   2.780   3.509
21831W        W93447   0.437  10.704   0.500
21832W        W93448  28.560  26.871  12.539
21833W        W93449  21.210  22.772  14.393
21834W        W93450  16.093  22.563   4.719
21835W        W93451   6.245   0.991   0.567
21836W        W93452  15.340  21.121  12.475
21837W        W93453  27.205  14.699  12.051
21838W        W93454  21.060  21.297  13.394
21839W        W93455  42.731  33.663   2.857
21840W        W93456  32.674  21.568   4.033
21841W        W93457   3.938  14.672  11.208
21842W        W93458  43.909  36.152   2.207
21843W        W93459  39.513  29.896   1.426
21844W        W93460  40.124   8.999  11.117
21845W        W93461  39.606  34.916   3.601
21846W        W93462  26.951  32.794  11.914
21847W        W93463  34.699  11.379  11.951
21848W        W93464  22.772  12.598   3.261
21849W        W93465  23.654  26.934  10.600
21850W        W93466  43.991  39.541   1.726
21851W        W93467  21.193  35.531   0.549
21852W        W93468  19.733  41.415   1.894
21853W        W93469  37.282  28.272  13.888
21854W        W93470  41.794  44.333   0.421
21855W        W93471  37.469  42.600  11.997
21856W        W93472  18.937  43.944   4.933
21857W        W93473  44.293  36.860  12.715
21858W        W93474  21.754   1.738   2.679
21859W        W93475  32.453   6.297   4.741
21860W        W93476  10.824   9.557  11.923
21861W        W93477  40.531  30.818   4.160
21862W        W93478  24.653  11.375  12.646
21863W        W93479   9.286  36.601   2.426
21864W        W93480  42.814  32.036  12.372
21865W        W93481   5.863  43.670  13.830
21866W        W93482  28.780  15.966   9.772
21867W        W93483  22.107  28.026   4.096
21868W        W93484  12.398  14.319   5.223
21869W        W93485  26.385  33.176  12.003
21870W        W93486  39.296  37.375   2.002
21871W        W93487  10.767  34.000   3.133
21872W        W93488  36.978  29.418   0.860
21873W        W93489  40.530   7.940   4.549
21874W        W93490  27.859  16.947   4.220
21875W        W93491  17.340  24.898  11.724
21876W        W93492  44.472   9.926  10.629
21877W        W93493  43.916  23.122   1.420
21878W        W93494  28.490  42.522  12.929
21879W        W93495  25.556  25.412  14.960
21880W        W93496  19.260   2.338  13.525
21881W        W93497  24.077   9.456  14.396
21882W        W93498  35.969  31.794   3.163
21883W        W93499  34.909  28.906  14.534
21884W        W93500  33.186  24.012   2.447
21885W        W93501   0.320  26.252  14.856
21886W        W93502   8.860  30.965   2.704
21887W        W93503  23.791  44.610  11.572
21888W        W93504   3.617  12.620  14.553
21889W        W93505  42.809  28.149   3.340
21890W        W93506  16.997  44.913  12.968
21891W        W93507   3.971  14.733  12.617
21892W        W93508  22.736   4.655   2.207
21893W        W93509  18.513  16.619  12.883
21894W        W93510   2.279   8.515  10.112
21895W        W93511  23.753  13.758   2.582
21896W        W93512   3.004  19.843  14.813
21897W        W93513   2.652  21.320  14.647
21898W        W93514  44.489   5.975   2.274
21899W        W93515  12.180   9.075  11.658
21900W        W93516  13.646  33.034  14.844
21901W        W93517   3.818  36.040  14.739
21902W        W93518  40.166  13.727   4.141
21903W        W93519  13.780  38.299   1.935
21904W        W93520  32.864  42.983  14.992
21905W        W93521  41.314   5.847   1.873
21906W        W93522  26.003  22.610   4.709
21907W        W93523  26.035  28.466  11.685
21908W        W93524  27.183   5.341   3.382
21909W        W93525  31.573  13.255   0.741
21910W        W93526  16.120  40.440   1.381
21911W        W93527  33.981  27.464   4.537
21912W        W93528  36.426  41.572   1.485
21913W        W93529  25.196   6.611  10.742
21914W        W93530  37.688  32.358   3.466
21915W        W93531  31.954   2.241  13.337
21916W        W93532   0.442  11.761   1.324
21917W        W93533  33.076  34.609   3.745
21918W        W93534  22.150  23.035  12.276
21919W        W93535  31.544  30.558  13.967
21920W        W93536   8.878   6.667   1.787
21921W        W93537  31.110  26.608  12.669
21922W        W93538  13.732  10.818   4.363
21923W        W93539  30.689  30.347   3.644
21924W        W93540  23.146  36.112  14.891
21925W        W93541  21.549  21.102  10.613
21926W        W93542   6.458  40.341  11.564
21927W        W93543  30.026  40.369   2.949
21928W        W93544  22.324   4.458   2.492
21929W        W93545   1.909  40.909  11.892
21930W        W93546  44.518   6.804  14.419
21931W        W93547  27.482  22.575   0.746
21932W        W93548  15.736  32.602  12.058
21933W        W93549  42.548  12.853  11.944
21934W        W93550  12.235  14.016  12.823
21935W        W93551   7.802  10.639   1.206
21936W        W93552   0.278   6.676   1.829
21937W        W93553  11.373  29.425   0.998
21938W        W93554  23.752  39.000  14.342
21939W        W93555  14.162  27.363   2.072
21940W        W93556  25.094  37.045  14.893
21941W        W93557  19.433  27.117  12.546
21942W        W93558  14.924   4.307   5.721
21943W        W93559  27.444  16.796  14.865
21944W        W93560  16.654  35.725   1.504
21945W        W93561  33.718  31.574  13.973
21946W        W93562  38.910   6.185  10.850
21947W        W93563  38.436  17.388  11.955
21948W        W93564   5.873  11.385   3.673
21949W        W93565  36.067  39.538   0.977
21950W        W93566  21.533  25.114   2.704
21951W        W93567  16.147  15.681  10.192
21952W        W93568  18.578  41.856   4.266
21953W        W93569  14.036   1.732  13.428
21954W        W93570  18.600  27.938   3.788
21955W        W93571  26.507  39.253  12.024
21956W        W93572   2.501   7.369  10.709
21957W        W93573  35.981   3.997  11.635
21958W        W93574  11.065  26.737   3.737
21959W        W93575  24.533  25.604  14.958
21960W        W93576   9.892  39.979  11.194
21961W        W93577  11.741   6.240  14.721
21962W        W93578  28.349  15.621   1.853
21963W        W93579  10.134  20.723  12.460
21964W        W93580  12.242  13.129   2.164
21965W        W93581  10.815  21.289  12.184
21966W        W93582  14.091  14.653   3.244
21967W        W93583  28.405  43.826   2.742
21968W        W93584  44.860   2.292  13.344
21969W        W93585  16.183   4.371   2.399
21970W        W93586  29.980   6.437   1.225
21971W        W93587  36.889  18.189  13.184
21972W        W93588   7.838  10.074  11.153
21973W        W93589  22.635  20.921   5.009
21974W        W93590   0.473  28.611   1.921
21975W        W93591  38.982   4.906  13.450
21976W        W93592  16.254  24.650  12.878
21977W        W93593  22.658   3.904   0.611
21978W        W93594  31.519  43.813   9.647
21979W        W93595   8.216  17.023   1.475
21980W        W93596  34.038  34.540   4.512
21981W        W93597  25.148  37.637   0.959
21982W        W93598  28.566  28.960   2.733
21983W        W93599  33.800  31.758   9.928
21984W        W93600  30.009   1.215   2.762
21985W        W93601  41.037   6.362   3.728
21986W        W93602  28.969  34.644  14.527
21987W        W93603  43.762   3.794  12.611
21988W        W93604   4.788  14.648   2.700
21989W        W93605  41.985  13.827   2.375
21990W        W93606   3.764  22.470  12.508
21991W        W93607   1.834  11.861   2.387
21992W        W93608  42.456  36.280  10.713
21993W        W93609  11.844  17.790  14.869
21994W        W93610  39.631  13.378   9.967
21995W        W93611  10.185  23.368  11.265
21996W        W93612  43.376  40.694  12.365
21997W        W93613  21.324  42.590  12.174
21998W        W93614  29.892   6.831  12.252
21999W        W93615   3.682  44.849   0.282
22000W        W93616  21.241  26.723   1.944
22001W        W93617  11.718  11.621   0.697
22002W        W93618  41.821  44.868  13.076
22003W        W93619  11.152  37.566   0.937
22004W        W93620  15.529  38.916  14.196
22005W        W93621  30.961   4.509   2.243
22006W        W93622  11.731   0.774   3.067
22007W        W93623  33.490  17.291   3.257
22008W        W93624  18.483  28.252  11.897
22009W        W93625   5.152   0.355  10.202
22010W        W93626  36.739   0.091  13.347
22011W        W93627  29.398  43.871   0.277
22012W        W93628  21.536   6.798   1.674
22013W        W93629   3.390  39.381   2.906
22014W        W93630   9.765   9.086  12.725
22015W        W93631  23.041  26.132  10.749
22016W        W93632  20.237  30.168  14.360
22017W        W93633  43.050  32.177   4.052
22018W        W93634   5.113   5.902   2.232
22019W        W93635   6.086  34.955   1.908
22020W        W93636  38.312  33.586  12.966
22021W        W93637  29.495  34.241  11.391
22022W        W93638  42.430  13.148   2.697
22023W        W93639  13.568  40.494   1.294
22024W        W93640  19.695  18.276  11.977
22025W        W93641  41.345  11.360   1.530
22026W        W93642  28.662  32.465   0.898
22027W        W93643  20.106  33.422  11.761
22028W        W93644  16.099  41.257   1.783
22029W        W93645  14.137  23.498   1.425
22030W        W93646  31.088  22.625  12.397
22031W        W93647   9.668  40.919  11.380
22032W        W93648  14.127  28.667   2.740
22033W        W93649  42.970  42.658   5.351
22034W        W93650  21.698  39.090   1.864
22035W        W93651  20.303  21.582   3.183
22036W        W93652  27.085  32.303  12.812
22037W        W93653  40.477  13.626  10.656
22038W        W93654  31.054  10.361  10.947
22039W        W93655  42.332   5.915  13.892
22040W        W93656  23.096  35.493   2.789
22041W        W93657  36.956  34.502   2.595
22042W        W93658  16.071  21.674  14.316
22043W        W93659   7.288  34.894   4.929
22044W        W93660   6.728  20.088   0.993
22045W        W93661  18.551  28.103   1.683
22046W        W93662  13.016  26.706  12.061
22047W        W93663   6.425   2.016  12.870
22048W        W93664  22.375  31.170   0.458
22049W        W93665  34.973  21.215  10.618
22050W        W93666   9.842   8.786   4.605
22051W        W93667  19.804  13.419  12.103
22052W        W93668  22.592  35.035   3.274
22053W        W93669   9.445  34.321   1.826
22054W        W93670  14.319  21.569   1.078
22055W        W93671  35.668  13.122   1.088
22056W        W93672  11.622  15.536   3.762
22057W        W93673  19.622  29.620  12.032
22058W        W93674  39.788   8.469   5.004
22059W        W93675  19.525   8.185   0.479
22060W        W93676  25.033  42.693  10.782
22061W        W93677   7.275  32.411  11.638
22062W        W93678   5.439  43.269   0.100
22063W        W93679  24.171  11.864   1.336
22064W        W93680  18.385  15.210  10.600
22065W        W93681  19.997  44.769   2.607
22066W        W93682  20.095  27.303   4.637
22067W        W93683   4.316  26.886  12.336
22068W        W93684  13.849   7.292  13.519
22069W        W93685  28.095  37.079  14.790
22070W        W93686   0.229  27.714   1.038
22071W        W93687  18.312  11.208  11.227
22072W        W93688  13.196  36.823   4.664
22073W        W93689  29.107   9.184  12.001
22074W        W93690   2.342  10.320   2.480
22075W        W93691  14.066  14.171   1.645
22076W        W93692  18.547  41.958  10.696
22077W        W93693  28.908  28.531  10.279
22078W        W93694  10.548  13.752  12.532
22079W        W93695  15.273  16.615   4.133
22080W        W93696  36.077  10.636   1.970
22081W        W93697  21.506  35.832   2.385
22082W        W93698  40.641  20.874  14.719
22083W        W93699   7.916  37.562   1.310
22084W        W93700   8.413  17.255   0.090
22085W        W93701  35.067  14.625   3.761
22086W        W93702   8.731  14.229  11.529
22087W        W93703  23.714  13.883  12.557
22088W        W93704  11.267   8.403   4.618
22089W        W93705  36.328   1.812   4.356
22090W        W93706  43.959   0.015  11.617
22091W        W93707  14.223  23.648  11.497
22092W        W93708  36.248  35.307   4.044
22093W        W93709   2.294  12.733   9.591
22094W        W93710  20.008  20.784  10.586
22095W        W93711   5.452  16.638   1.338
22096W        W93712   7.161  31.501  14.279
22097W        W93713  41.927  34.039   2.752
22098W        W93714  18.035  10.272   2.198
22099W        W93715   8.881   7.854  10.691
22100W        W93716  27.426  34.114  14.447
22101W        W93717  10.739   9.696  14.962
22102W        W93718  25.537  22.010  14.940
22103W        W93719  38.086  38.606   3.336
22104W        W93720  21.702  32.699   0.021
22105W        W93721  39.473  41.904  10.858
22106W        W93722  13.824  38.327  13.106
22107W        W93723  34.299   8.816   2.984
22108W        W93724  38.178   2.008   0.430
22109W        W93725  24.161  31.203  13.085
22110W        W93726  11.832  36.409   1.264
22111W        W93727  11.074  39.425   2.816
22112W        W93728   2.448  29.498   1.286
22113W        W93729  38.312  20.283  10.747
22114W        W93730   6.983  11.779   1.139
22115W        W93731  43.636  25.293  10.581
22116W        W93732  25.454  10.849   1.305
22117W        W93733  13.579   4.187   5.395
22118W        W93734   0.463  38.469  10.947
22119W        W93735  32.368  30.428   1.443
22120W        W93736   8.787  41.376  12.386
22121W        W93737  20.255  38.648   3.366
22122W        W93738  15.713   3.221   5.401
22123W        W93739  42.692   6.139  12.067
22124W        W93740   4.346  39.150  14.457
22125W        W93741  19.725   2.449   4.637
22126W        W93742  35.923  21.396  11.521
22127W        W93743  40.021   2.199   0.307
22128W        W93744  24.118  19.797   2.455
22129W        W93745  18.785  13.745  14.844
22130W        W93746   2.705   1.844   3.445
22131W        W93747  32.576  23.121  13.462
22132W        W93748   4.561   0.804   3.418
22133W        W93749  43.909  40.475   1.996
22134W        W93750  34.845   5.749   2.692
22135W        W93751  40.672  18.968   4.851
22136W        W93752   0.256  17.274   2.882
22137W        W93753  20.241   3.066  10.681
22138W        W93754  37.337   3.312   0.494
22139W        W93755  31.115   8.442  12.872
22140W        W93756   5.955  14.981   2.242
22141W        W93757  11.389   7.003   4.199
22142W        W93758  24.894  26.026  13.519
22143W        W93759  17.239  34.906  10.729
22144W        W93760   5.205  11.392   1.883
22145W        W93761   2.644   8.155  13.021
22146W        W93762  36.069  32.534   4.127
22147W        W93763  22.469   3.699  10.315
22148W        W93764  36.910  26.522   3.645
22149W        W93765  22.570   5.691   2.364
22150W        W93766   9.224  27.668   0.485
22151W        W93767  23.267  26.012   1.066
22152W        W93768  40.069  16.797  13.508
22153W        W93769   7.907  29.144   4.068
22154W        W93770   3.426  19.771   1.647
22155W        W93771  11.239  15.410   1.454
22156W        W93772  11.469  35.157   2.637
22157W        W93773  12.870  22.062  14.346
22158W        W93774  27.226  19.474   3.427
22159W        W93775  35.539  23.281  14.539
22160W        W93776  22.869   7.823  10.127
22161W        W93777  42.294  11.450  11.166
22162W        W93778  39.205  43.117   1.150
22163W        W93779  16.686  11.811  10.814
22164W        W93780  16.822   6.897  12.156
22165W        W93781   0.944  28.724   2.640
22166W        W93782  23.077   2.872  11.569
22167W        W93783   2.401   1.431   3.039
22168W        W93784  40.781  25.804  13.744
22169W        W93785  21.678   5.481   2.805
22170W        W93786   8.761   3.630  10.670
22171W        W93787  27.248  16.096   3.660
22172W        W93788  36.448  42.381  14.989
22173W        W93789   7.549   0.083  11.090
22174W        W93790  32.697   7.338   4.698
22175W        W93791  39.763   6.330  14.930
22176W        W93792  31.151  42.357  11.585
22177W        W93793  32.146   2.429  14.375
22178W        W93794   3.265  25.400   1.746
22179W        W93795  31.132  26.555   1.993
22180W        W93796  26.636  14.281   3.788
22181W        W93797   7.167  42.267  12.016
22182W        W93798  27.720   3.761  13.927
22183W        W93799  19.740  22.620   2.698
22184W        W93800  30.369   1.848   4.041
22185W        W93801  27.897  31.535   0.385
22186W        W93802   7.082  24.753   0.391
22187W        W93803  33.090  17.853  14.394
22188W        W93804  20.036  31.668  12.131
22189W        W93805  14.178  30.195  14.865
22190W        W93806  27.940  27.153   4.545
22191W        W93807  36.871  17.675   0.404
22192W        W93808   0.544   4.837   1.391
22193W        W93809   1.373  30.208   1.846
22194W        W93810   4.724  18.629  11.139
22195W        W93811  15.597  39.540   2.237
22196W        W93812  20.383  30.233   4.970
22197W        W93813  43.241   0.436  12.059
22198W        W93814  44.098  34.933   9.790
22199W        W93815  43.301  34.570   2.665
22200W        W93816   0.044  10.170   1.597
22201W        W93817  34.319  20.682   0.946
22202W        W93818  19.877  15.595   1.615
22203W        W93819   2.692  12.693   2.689
22204W        W93820  11.890   0.216  10.885
22205W        W93821  36.542  20.962  12.255
22206W        W93822  43.114  10.283   1.811
22207W        W93823   1.586  34.491  13.560
22208W        W93824  41.922  41.913   3.118
22209W        W93825  22.654  42.792   2.822
22210W        W93826   0.371  18.758   0.726
22211W        W93827  43.067   6.112   2.176
22212W        W93828  27.026  31.333   1.975
22213W        W93829  20.817  30.668  13.792
22214W        W93830  22.790  33.384  13.734
22215W        W93831  25.596  42.014  10.957
22216W        W93832  11.792  43.649   1.265
22217W        W93833  10.776   3.293  13.277
22218W        W93834  12.833  35.092   4.525
22219W        W93835  23.103  10.790   3.356
22220W        W93836  10.720   7.987   4.270
22221W        W93837  22.811  26.688  12.328
22222W        W93838  41.789  15.186  13.704
22223W        W93839  22.901  11.894  10.776
22224W        W93840  25.992  30.153   2.950
22225W        W93841  19.301  42.358   4.196
22226W        W93842  17.149   3.201  13.330
22227W        W93843   9.962  34.716  12.554
22228W        W93844  14.190  31.586  13.450
22229W        W93845  15.537  26.158   4.302
22230W        W93846  23.784  27.096  11.506
22231W        W93847  12.235   3.697   5.041
22232W        W93848  26.608  25.637  14.929
22233W        W93849   9.386  11.636   1.267
22234W        W93850  41.042  23.460  12.991
22235W        W93851  19.116  18.295  13.758
22236W        W93852   6.281  35.625  13.497
22237W        W93853  35.825  26.743   1.749
22238W        W93854  23.044  30.510  14.355
22239W        W93855  40.481   3.012  12.168
22240W        W93856   7.527  38.799   3.107
22241W        W93857   6.670  16.269  14.077
22242W        W93858  36.123  28.060   2.272
22243W        W93859   6.268   0.544  12.779
22244W        W93860  29.077  23.915  13.755
22245W        W93861  13.608  32.350   2.623
22246W        W93862  35.101  13.652  12.389
22247W        W93863  27.805  26.712  11.126
22248W        W93864  17.554  30.205   3.267
22249W        W93865  31.087  22.940   3.084
22250W        W93866  17.640  34.597   0.799
22251W        W93867  13.222  37.968   4.640
22252W        W93868  23.732  11.557   4.397
22253W        W93869  40.400  26.104  10.602
22254W        W93870  41.462  22.575  11.216
22255W        W93871  21.630  20.383  12.668
22256W        W93872  38.911  44.153   4.603
22257W        W93873   3.787  41.555   4.608
22258W        W93874  30.278  42.046   0.123
22259W        W93875   6.409  30.136  11.000
22260W        W93876  12.219  13.506  11.539
22261W        W93877  24.626  40.514  13.343
22262W        W93878  27.932   1.595  12.391
22263W        W93879  41.845  18.883   3.370
22264W        W93880  26.644  39.198   2.830
22265W        W93881   8.968  36.836   4.718
22266W        W93882   2.781  26.601   3.493
22267W        W93883  32.386  34.463   1.421
22268W        W93884   6.645  24.702   3.364
22269W        W93885  38.885  37.048   4.594
22270W        W93886   9.784   4.329   2.387
22271W        W93887  33.426  21.017  12.966
22272W        W93888   4.834  33.306   1.888
22273W        W93889  16.923  30.718   0.218
22274W        W93890  43.674   0.991   3.433
22275W        W93891  27.044  10.705   2.239
22276W        W93892  43.982  20.676  13.822
22277W        W93893  28.632  38.043   2.966
22278W        W93894   1.778  10.691  10.806
22279W        W93895  35.557  39.993   4.422
22280W        W93896  12.191  38.979   4.630
22281W        W93897  39.398  15.609  14.605
22282W        W93898  24.930  36.772  13.904
22283W        W93899  32.477  34.569   1.946
22284W        W93900  36.043   0.542  13.991
22285W        W93901  43.513  35.152  13.006
22286W        W93902  37.895  28.477   2.230
22287W        W93903  14.925  13.190   2.337
22288W        W93904   0.028  24.448   2.751
22289W        W93905  42.922   0.263  12.433
22290W        W93906   7.964   7.983   3.315
22291W        W93907  31.186  11.104   2.364
22292W        W93908   8.813  28.909   3.707
22293W        W93909   5.746  12.720   4.883
22294W        W93910   2.741  34.469   3.496
22295W        W93911  16.710  19.562   5.305
22296W        W93912  17.733  44.236  14.760
22297W        W93913  29.120  43.716  14.031
22298W        W93914  10.172  17.171   2.694
22299W        W93915   5.763  33.576  13.487
22300W        W93916  35.687  31.484   4.699
22301W        W93917  38.781   7.638   1.654
22302W        W93918  28.575  14.583  13.858
22303W        W93919   4.436  44.270   0.309
22304W        W93920  35.473  16.277  14.468
22305W        W93921  20.499  35.198   0.825
22306W        W93922  17.247  17.736  13.296
22307W        W93923  28.012   4.206   3.247
22308W        W93924  28.433   3.324  13.701
22309W        W93925  41.395   1.453  12.564
22310W        W93926  24.478   5.390  13.327
22311W        W93927  18.764  44.457   4.680
22312W        W93928   0.804   4.942  13.945
22313W        W93929   3.165   4.494  12.034
22314W        W93930  24.192  40.096   2.250
22315W        W93931  44.705  43.154  14.709
22316W        W93932  33.313  35.065  11.043
22317W        W93933   6.483  16.573  11.132
22318W        W93934  42.292  15.036  11.944
22319W        W93935  11.175  28.872   3.351
22320W        W93936  18.092  43.751  13.078
22321W        W93937  16.588  32.131  13.874
22322W        W93938  35.530  12.411  11.857
22323W        W93939   6.439  43.810  13.039
22324W        W93940  36.264  17.777   1.936
22325W        W93941   2.294   8.237   4.124
22326W        W93942  34.991   7.907   2.261
22327W        W93943  25.210  42.290   4.973
22328W        W93944  15.678   8.522   1.932
22329W        W93945  36.146  44.821  12.976
22330W        W93946  26.947   3.347  12.121
22331W        W93947   3.394   0.792   2.229
22332W        W93948  25.464   6.614  12.061
22333W        W93949  17.236   5.927   1.018
22334W        W93950  30.934  30.429  12.188
22335W        W93951   8.349  24.293   4.731
22336W        W93952  33.886  39.937  14.355
22337W        W93953  30.231  27.190   1.780
22338W        W93954  31.072  30.422   4.607
22339W        W93955  16.327  27.617  14.625
22340W        W93956  13.326  14.078  13.958
22341W        W93957   4.971  23.159   0.966
22342W        W93958   3.195   8.640  11.517
22343W        W93959  33.556  41.756   4.192
22344W        W93960  43.725  14.704   3.175
22345W        W93961  35.434  20.552  12.439
22346W        W93962  13.481  13.525   0.841
22347W        W93963  27.469   6.249  14.397
22348W        W93964  12.617  40.410   2.209
22349W        W93965  21.996  16.762   2.218
22350W        W93966   9.890  11.240   2.625
22351W        W93967  42.332   5.277   4.472
22352W        W93968  23.714   3.765  12.097
22353W        W93969  32.538  29.165  11.938
22354W        W93970  23.722  16.774  11.126
22355W        W93971  13.741  27.517   4.652
22356W        W93972   2.199  34.475   1.734
22357W        W93973   1.899  34.966  12.396
22358W        W93974   4.824  14.632  12.237
22359W        W93975   4.065  19.627  11.635
22360W        W93976  25.568   3.348   1.868
22361W        W93977   7.812  25.297   3.747
22362W        W93978   9.692  36.067  11.504
22363W        W93979  21.662  44.311  10.682
22364W        W93980  22.708  26.702  12.865
22365W        W93981  40.409  14.307   3.538
22366W        W93982  37.823   2.223  13.734
22367W        W93983  39.701  28.175  11.254
22368W        W93984  44.870   7.700  11.546
22369W        W93985  15.175  43.956   4.349
22370W        W93986   4.901  22.613  14.616
22371W        W93987   1.728   4.021  11.218
22372W        W93988  33.202  41.892  13.298
22373W        W93989  19.342  29.654  10.863
22374W        W93990   9.196  28.927  13.546
22375W        W93991  17.345  32.915   4.070
22376W        W93992  24.575  17.655  11.419
22377W        W93993  24.601  24.264   3.210
22378W        W93994  30.202  40.324  12.812
22379W        W93995  23.102  17.393   4.141
22380W        W93996  44.139  34.074   2.010
22381W        W93997  36.870  39.215  12.479
22382W        W93998  18.159  22.145   3.172
22383W        W93999  21.623  43.557   0.253
22384W        W94000  34.363  42.835   4.545
22385W        W94001  24.185  23.364  13.587
22386W        W94002  16.810  40.086  13.894
22387W        W94003  11.704  31.461  13.367
22388W        W94004  43.295   7.682   4.885
22389W        W94005  37.574  39.561   0.309
22390W        W94006  16.272  11.690  12.966
22391W        W94007  32.785  24.757   2.725
22392W        W94008  36.609  19.237   2.484
22393W        W94009  11.336  29.210  11.711
22394W        W94010  42.979  11.930  13.468
22395W        W94011  18.044  21.277   4.795
22396W        W94012  25.902  25.600  12.177
22397W        W94013  34.429  13.170  13.254
22398W        W94014   6.442   9.790  12.918
22399W        W94015  34.624  43.588  13.849
22400W        W94016  16.331  17.108  12.480
22401W        W94017  40.294   1.423   3.803
22402W        W94018  13.250  30.081   2.915
22403W        W94019  30.241   2.842  12.075
22404W        W94020  28.148  36.445  12.006
22405W        W94021  29.640  35.445   4.678
22406W        W94022  31.590   2.402  12.542
22407W        W94023  18.410  18.590   1.552
22408W        W94024  37.504  33.838   0.809
22409W        W94025  24.734  19.068   1.734
22410W        W94026   6.442  38.766   2.270
22411W        W94027  14.746   8.647   1.736
22412W        W94028   0.223   4.905   0.468
22413W        W94029  29.363  27.670   4.687
22414W        W94030  22.783   2.930   0.835
22415W        W94031   4.028   6.133  12.487
22416W        W94032  20.818  28.134  13.026
22417W        W94033  34.932  25.549  13.334
22418W        W94034  38.259  41.536   1.379
22419W        W94035   9.801  33.980   3.528
22420W        W94036  30.963  27.932   5.033
22421W        W94037  18.839  32.485  11.071
22422W        W94038   5.318  42.447  12.081
22423W        W94039   9.639  13.568   3.856
22424W        W94040  36.828   7.829   3.769
22425W        W94041  12.383   8.194  12.625
22426W        W94042  17.062  31.085  11.576
22427W        W94043  31.728  10.346   0.626
22428W        W94044   4.723  20.063  13.283
22429W        W94045   4.258   9.715  10.896
22430W        W94046   1.182   5.380   4.259
22431W        W94047  13.334   1.644   2.217
22432W        W94048  34.537  37.473  14.348
22433W        W94049   8.112  20.684  14.710
22434W        W94050  12.276  40.772   4.635
22435W        W94051   7.625  21.992  14.532
22436W        W94052  16.108  39.502   2.284
22437W        W94053  12.843  39.521  13.568
22438W        W94054  36.312  19.040  14.433
22439W        W94055  28.674  26.197   0.342
22440W        W94056  15.301  29.087   2.341
22441W        W94057  43.014  29.218  11.125
22442W        W94058  26.032  38.751   2.583
22443W        W94059  34.108  38.341   2.710
22444W        W94060  30.309  21.675  10.721
22445W        W94061  21.132  38.577   9.913
22446W        W94062  41.751  25.705   4.623
22447W        W94063  23.591  33.397   4.126
22448W        W94064  19.538   1.796   3.279
22449W        W94065  33.115  15.564  11.117
22450W        W94066  37.300  12.868  12.488
22451W        W94067  33.750  41.146  14.435
22452W        W94068  38.113  33.143   4.485
22453W        W94069  41.411  16.241   3.692
22454W        W94070  39.966  25.689   1.283
22455W        W94071  17.681   5.611   4.701
22456W        W94072   1.310   9.181   3.716
22457W        W94073   1.909  24.273  14.884
22458W        W94074  22.217  34.162  12.070
22459W        W94075  34.562   8.681  14.567
22460W        W94076  25.127  35.432   2.425
22461W        W94077  23.002  23.972  13.702
22462W        W94078  23.614  24.855  12.449
22463W        W94079  37.683  30.461   0.323
22464W        W94080  38.559   5.770   4.008
22465W        W94081  10.624   4.928  11.840
22466W        W94082  36.899  33.070  14.769
22467W        W94083  25.974  10.595   0.436
22468W        W94084  36.323  32.855  14.062
22469W        W94085  28.700   8.470  10.755
22470W        W94086  11.150  23.169  11.122
22471W        W94087  18.145  40.110  10.734
22472W        W94088  11.458  26.723   4.656
22473W        W94089  34.056  17.195  12.440
22474W        W94090  27.918  14.324  11.194
22475W        W94091  37.921  23.475   5.045
22476W        W94092  11.359  20.813   2.741
22477W        W94093  17.347   0.449  12.379
22478W        W94094  16.351   3.394   2.926
22479W        W94095   6.407  43.749   3.219
22480W        W94096  18.101   1.756  12.104
22481W        W94097  34.695  34.445   2.894
22482W        W94098  33.536   7.339  13.790
22483W        W94099  16.820  23.507  11.620
22484W        W94100  31.016   8.932   1.214
22485W        W94101  25.244  39.843  13.016
22486W        W94102  36.894  34.168  14.812
22487W        W94103  11.217  33.527  13.777
22488W        W94104  28.408  44.483   1.669
22489W        W94105  34.606  43.945  11.617
22490W        W94106  36.078  34.162   2.713
22491W        W94107  26.247  12.946  14.562
22492W        W94108   5.278  25.555  14.259
22493W        W94109  28.970  19.350  13.682
22494W        W94110  43.874  33.733  11.950
22495W        W94111  41.616  36.565   2.837
22496W        W94112  12.579  17.743   3.224
22497W        W94113   1.729   4.004   3.678
22498W        W94114  23.280  28.828  12.450
22499W        W94115  26.751  12.145  11.121
22500W        W94116  32.107  36.816   3.925
22501W        W94117   6.297  37.488  12.907
22502W        W94118  25.092  16.413  11.141
22503W        W94119  23.117  24.700  12.518
22504W        W94120  20.633  18.586  13.324
22505W        W94121  25.671  44.832  11.361
22506W        W94122  40.697  30.558   2.717
22507W        W94123  12.222  32.991  12.455
22508W        W94124  27.595  29.184  11.575
22509W        W94125  10.349  44.955   1.302
22510W        W94126   9.307   6.869  10.692
22511W        W94127  44.707  10.228   1.169
22512W        W94128  39.957   5.509   3.654
22513W        W94129   9.725  14.544   4.195
22514W        W94130   9.939  24.025   3.206
22515W        W94131  36.355  31.098  10.742
22516W        W94132  43.307  31.424  13.331
22517W        W94133  25.880  37.409  11.238
22518W        W94134  33.002  18.342   3.637
22519W        W94135  44.046  19.341  13.300
22520W        W94136   3.679   7.211   2.312
22521W        W94137   4.581  35.418  13.097
22522W        W94138  23.079  43.971   2.743
22523W        W94139  36.400  43.365  12.012
22524W        W94140  15.603  34.048  14.704
22525W        W94141   1.554  31.512  14.502
22526W        W94142  10.063  30.184  13.876
22527W        W94143   0.524  28.189   3.430
22528W        W94144   0.712  43.535  12.145
22529W        W94145   9.135  42.871  13.384
22530W        W94146  27.104   4.435   4.522
22531W        W94147  17.879  43.779  10.985
22532W        W94148  31.102  24.593   2.893
22533W        W94149  40.010   2.661   2.170
22534W        W94150  19.320  22.590   1.905
22535W        W94151  36.951   8.377   0.751
22536W        W94152  22.913  12.619  14.020
22537W        W94153  29.000  12.569  13.867
22538W        W94154  22.982  34.441   1.713
22539W        W94155  44.487  44.206  13.954
22540W        W94156  21.767  15.291   2.849
22541W        W94157  38.443  38.994  11.235
22542W        W94158  38.546   1.783   3.871
22543W        W94159  12.762  37.966  11.461
22544W        W94160   7.823   7.256  12.483
22545W        W94161  36.394  13.140   4.304
22546W        W94162  33.093   8.360   4.521
22547W        W94163  41.532  12.368  11.974
22548W        W94164  26.210  28.470  13.496
22549W        W94165  10.119  34.613   4.228
22550W        W94166  32.717  26.662  14.379
22551W        W94167   0.935  12.131   4.077
22552W        W94168  11.570  30.594   0.262
22553W        W94169  28.029   0.920   0.525
22554W        W94170  22.584   2.191  11.267
22555W        W94171   9.879  19.262  14.211
22556W        W94172  29.144  12.275  10.503
22557W        W94173  43.034  21.458  12.075
22558W        W94174   1.359  28.676   4.587
22559W        W94175  25.055  13.411   3.340
22560W        W94176   5.252  31.977   1.832
22561W        W94177  26.633  39.029  11.584
22562W        W94178  38.180  44.176   2.859
22563W        W94179  32.941  21.251  13.058
22564W        W94180  17.621  24.057  14.449
22565W        W94181   0.983  12.715  13.967
22566W        W94182  25.650  15.253  10.595
22567W        W94183  40.486   0.078  14.208
22568W        W94184  29.807  28.342   3.681
22569W        W94185  21.160  32.719  12.126
22570W        W94186  13.231  37.731   0.243
22571W        W94187  30.450   5.295   2.511
22572W        W94188  33.232   5.291  11.330
22573W        W94189  26.485  15.796  12.992
22574W        W94190  30.857  31.878  11.904
22575W        W94191  21.191  30.949  11.854
22576W        W94192  23.199  36.547  14.595
22577W        W94193  22.677  32.245   5.202
22578W        W94194  10.257  36.820  10.669
22579W        W94195  34.577   9.222   1.351
22580W        W94196   7.417   5.231   2.799
22581W        W94197  33.216  22.553   4.689
22582W        W94198  44.789  41.519  10.808
22583W        W94199  28.522   4.336  14.817
22584W        W94200  27.891  39.331  11.622
22585W        W94201  38.520   5.428   0.448
22586W        W94202  39.659  28.925  10.523
22587W        W94203  39.387  12.760   3.355
22588W        W94204  10.781  10.860   2.840
22589W        W94205   2.718  19.652   2.998
22590W        W94206  38.644   3.997   3.191
22591W        W94207   5.835  18.593   0.006
22592W        W94208  36.005  36.021   2.865
22593W        W94209  38.064  20.188  11.223
22594W        W94210  30.259  44.475   5.041
22595W        W94211  15.911   8.300  12.480
22596W        W94212  12.898  29.249  14.724
22597W        W94213  39.941  35.871   0.829
22598W        W94214  42.874  41.325   0.959
22599W        W94215  34.969  32.040  12.025
22600W        W94216  32.199   2.388  11.182
22601W        W94217  21.613   9.563   2.803
22602W        W94218  16.073   7.829  14.828
22603W        W94219   1.877  25.235  10.842
22604W        W94220  21.495   8.242  14.053
22605W        W94221  30.943  37.944  10.442
22606W        W94222   0.767  16.810  10.792
22607W        W94223  26.293  19.660   3.740
22608W        W94224  25.972   9.309   1.112
22609W        W94225  32.589  36.129   2.640
22610W        W94226   0.750  31.999   0.559
22611W        W94227  29.078  21.776   2.300
22612W        W94228  23.795   5.223   2.664
22613W        W94229  10.009   8.394  11.995
22614W        W94230  29.970  22.302   4.211
22615W        W94231  19.316  15.267   3.752
22616W        W94232  33.510  19.691   1.735
22617W        W94233  37.326   5.025   1.693
22618W        W94234  23.408  29.721   0.325
22619W        W94235  27.992  18.368   4.573
22620W        W94236  29.389  37.033   1.825
22621W        W94237   2.767   1.362   0.994
22622W        W94238  32.172  34.784   5.029
22623W        W94239  17.672  39.808   3.878
22624W        W94240   4.233  10.729  12.523
22625W        W94241  28.156   3.556  12.130
22626W        W94242  36.132   9.676  14.844
22627W        W94243   2.137   8.164  13.073
22628W        W94244   6.927   2.167   0.654
22629W        W94245  36.176  37.853  12.012
22630W        W94246  28.671  35.059   3.663
22631W        W94247  23.282  41.752  11.478
22632W        W94248  27.204  29.939   4.820
22633W        W94249   0.454  35.504  14.998
22634W        W94250   9.709  13.277   0.891
22635W        W94251   2.807  32.503  12.166
22636W        W94252  34.942  28.776   4.759
22637W        W94253  26.501  21.051  14.230
22638W        W94254   4.957  19.066   1.306
22639W        W94255   7.204  12.787  14.736
22640W        W94256  13.245  12.668   3.873
22641W        W94257  10.543   5.165   2.360
22642W        W94258  17.271   0.019   9.806
22643W        W94259  16.482  43.888   3.229
22644W        W94260  40.416  26.321  11.070
22645W        W94261  25.140  33.573   3.761
22646W        W94262  19.520  42.876   3.298
22647W        W94263   4.887  26.929   4.061
22648W        W94264  13.171   2.942   2.726
22649W        W94265  15.512   0.902  13.406
22650W        W94266  40.501   3.618  14.123
22651W        W94267   8.121  41.018   3.121
22652W        W94268  23.609  10.103   0.742
22653W        W94269  40.632  31.354  12.420
22654W        W94270   9.287  35.695   2.239
22655W        W94271  11.240  44.909  11.512
22656W        W94272   6.472  37.499  14.503
22657W        W94273  17.048  44.318  13.985
22658W        W94274  39.602  33.899  14.518
22659W        W94275  23.500  35.508  12.299
22660W        W94276  43.228  18.649   0.849
22661W        W94277  20.561  21.080  13.415
22662W        W94278  15.407  31.015   1.549
22663W        W94279  36.473  35.855  12.904
22664W        W94280  13.179  44.224  10.422
22665W        W94281  13.413  11.416   1.163
22666W        W94282  10.932  15.609   3.185
22667W        W94283  19.679  34.083   0.254
22668W        W94284  26.911  35.554  10.528
22669W        W94285  10.690  29.841  13.977
22670W        W94286  18.086   6.228   3.344
22671W        W94287  43.085  34.883   4.038
22672W        W94288   9.677  16.270  10.885
22673W        W94289  35.834  28.783  12.050
22674W        W94290  24.628   0.386   4.915
22675W        W94291  25.285  15.608  10.519
22676W        W94292  33.189  19.330   3.819
22677W        W94293  14.154  30.240  12.936
22678W        W94294   6.686  21.740   0.875
22679W        W94295  11.647   4.030   2.278
22680W        W94296  16.161  34.362  11.119
22681W        W94297  27.523   1.535   0.930
22682W        W94298   9.245   9.817  13.840
22683W        W94299  32.460   5.729   2.337
22684W        W94300  37.126   3.914  12.033
22685W        W94301  29.675  34.847  12.460
22686W        W94302  13.047  16.217   2.857
22687W        W94303  21.005  12.093  13.979
22688W        W94304  36.210   8.908  14.180
22689W        W94305  31.010  11.251   4.085
22690W        W94306  13.608  12.336  11.775
22691W        W94307  11.026  35.992   2.124
22692W        W94308  18.907  17.966  10.507
22693W        W94309  23.925  41.213   4.582
22694W        W94310  42.906  39.057   2.070
22695W        W94311  20.316  19.237   3.834
22696W        W94312  25.444  34.031  11.273
22697W        W94313  42.512  41.013   2.284
22698W        W94314  36.600  13.267   3.597
22699W        W94315   0.540  27.164  11.498
22700W        W94316  37.620  21.527  12.935
22701W        W94317  23.100   2.177  13.598
22702W        W94318   7.443  44.944  12.899
22703W        W94319  27.534  21.620  13.223
22704W        W94320   7.044  33.965  12.409
22705W        W94321  35.605  40.874  12.595
22706W        W94322  20.809  10.893  14.386
22707W        W94323  20.288  29.737   3.197
22708W        W94324  17.090  13.813  10.723
22709W        W94325   0.796   9.285   1.816
22710W        W94326  26.068  36.998   3.894
22711W        W94327   5.395   8.148   1.306
22712W        W94328  37.084   5.490  14.888
22713W        W94329  44.802  18.707   2.137
22714W        W94330   7.752  15.581   2.679
22715W        W94331  21.666   3.862   0.103
22716W        W94332  37.119  43.869  10.555
22717W        W94333  23.031   6.392  11.080
22718W        W94334  35.358   6.426   1.713
22719W        W94335  32.969  37.695   3.250
22720W        W94336  21.508  28.881  11.096
22721W        W94337  17.580  37.739   3.761
22722W        W94338   9.894  30.496  11.003
22723W        W94339  29.136   4.775   3.214
22724W        W94340  20.693   5.792   0.008
22725W        W94341  12.291   4.258   3.245
22726W        W94342  36.497  32.641   3.869
22727W        W94343  31.533  38.547  10.960
22728W        W94344  43.374  41.735  13.032
22729W        W94345  15.179  17.237   5.031
22730W        W94346  14.115  36.724  13.858
22731W        W94347  17.603  18.725  10.613
22732W        W94348  11.774   9.792   0.324
22733W        W94349  16.302  27.220  11.714
22734W        W94350  28.656  37.558  10.126
22735W        W94351   3.904   7.699   0.909
22736W        W94352  32.675  22.553   4.705
22737W        W94353  23.476  34.441   1.396
22738W        W94354  25.125  11.842   2.357
22739W        W94355  15.157  21.457   0.674
22740W        W94356   4.243  43.400   2.735
22741W        W94357   5.382  26.488   1.845
22742W        W94358   5.260  14.155   3.225
22743W        W94359  22.845  44.160   1.892
22744W        W94360  37.986  16.272   1.777
22745W        W94361  22.328   6.640   4.125
22746W        W94362  21.261  27.886   2.787
22747W        W94363  12.055  26.216  12.556
22748W        W94364  35.779  28.543  13.950
22749W        W94365  44.365   4.031  11.980
22750W        W94366  11.786  42.970   1.829
22751W        W94367  15.857  40.603  11.544
22752W        W94368  28.640  12.621  14.913
22753W        W94369  20.059  20.799  12.436
22754W        W94370  15.778   1.896  13.064
22755W        W94371  25.020   5.261  13.604
22756W        W94372  32.133   0.205  14.253
22757W        W94373  11.446  33.858   2.566
22758W        W94374  10.768  23.577  13.515
22759W        W94375  11.222  23.629  11.299
22760W        W94376  33.113  23.887  11.615
22761W        W94377  39.603  13.593  12.442
22762W        W94378   9.894  11.301   1.712
22763W        W94379  39.601  40.090  11.127
22764W        W94380   7.115  33.944   0.745
22765W        W94381   8.887  32.425   0.777
22766W        W94382  25.846  22.551   1.979
22767W        W94383   7.602  12.357   2.233
22768W        W94384  34.115   6.138   0.477
22769W        W94385  20.141  40.580   3.835
22770W        W94386   1.303   6.379   3.290
22771W        W94387  38.170  16.550  13.162
22772W        W94388  42.287  32.007  11.592
22773W        W94389  22.575   7.552   1.033
22774W        W94390  14.238  19.213  11.998
22775W        W94391  33.473  27.486  14.310
22776W        W94392  28.116  29.618   3.903
22777W        W94393   4.554  30.122  13.417
22778W        W94394  34.065   3.925   1.418
22779W        W94395  10.734  10.816   1.800
22780W        W94396  44.736  28.539   1.205
22781W        W94397   4.138  44.983  12.363
22782W        W94398  36.374  31.968  10.705
22783W        W94399  36.115  35.996  11.946
22784W        W94400  40.687  44.846   0.234
22785W        W94401  37.380  18.029  13.034
22786W        W94402  29.905   5.649  13.291
22787W        W94403   2.627  41.509  12.176
22788W        W94404  39.897  15.727  10.964
22789W        W94405  24.452  20.777  12.081
22790W        W94406   9.874  20.379  12.062
22791W        W94407  27.172  18.197  11.862
22792W        W94408  39.478  39.925  13.314
22793W        W94409  13.165  41.421   2.900
22794W        W94410  41.593  27.950   2.759
22795W        W94411  25.924   2.998   2.079
22796W        W94412  33.704  15.835  12.020
22797W        W94413  15.207  41.467  11.699
22798W        W94414   4.421  26.037   2.280
22799W        W94415  31.314   8.022   2.677
22800W        W94416  40.315  24.674  14.853
22801W        W94417  36.319  34.403  13.361
22802W        W94418  42.355  23.069  10.868
22803W        W94419  16.332  35.618  13.014
22804W        W94420  26.512  42.052   2.396
22805W        W94421  28.942   4.213   4.196
22806W        W94422  16.746  29.452   3.290
22807W        W94423  10.379  13.892   3.765
22808W        W94424   4.837  28.251   4.114
22809W        W94425  36.317  13.756   4.930
22810W        W94426  32.514   5.164   4.906
22811W        W94427  15.294  32.871  11.930
22812W        W94428  24.163  42.561  13.368
22813W        W94429  19.835   2.056   4.954
22814W        W94430  40.778  12.214   2.746
22815W        W94431  34.345  24.946   2.977
22816W        W94432  16.981   3.493   2.457
22817W        W94433  34.361  24.151  11.924
22818W        W94434  19.302  16.695  11.201
22819W        W94435  13.316  44.930   4.459
22820W        W94436  29.260  37.912   4.659
22821W        W94437  40.291  42.495  14.070
22822W        W94438   3.983  43.433  10.319
22823W        W94439  25.911  21.144  10.581
22824W        W94440   8.307  25.461   3.276
22825W        W94441  21.968  13.511   3.088
22826W        W94442   7.366  41.128   3.060
22827W        W94443  14.568  35.541  12.007
22828W        W94444   1.949   5.513  13.464
22829W        W94445  19.074  29.839  12.082
22830W        W94446  15.645   5.475   3.228
22831W        W94447  42.364  11.220   2.660
22832W        W94448  15.679   6.517   4.151
22833W        W94449  25.727  44.334  14.383
22834W        W94450  20.050  16.123   3.367
22835W        W94451  30.579  31.651   1.753
22836W        W94452  41.199  32.369  10.425
22837W        W94453  10.447  31.464   3.135
22838W        W94454   0.908   6.881   4.818
22839W        W94455  34.866  18.055   1.415
22840W        W94456  31.612  42.119   4.596
22841W        W94457  21.022   4.369  11.391
22842W        W94458  19.008  36.197   0.371
22843W        W94459  43.237  20.103   1.325
22844W        W94460  26.919  10.302  12.528
22845W        W94461  35.954  16.503  12.554
22846W        W94462  39.061  13.067  13.391
22847W        W94463  14.902  26.089  12.054
22848W        W94464   6.782   1.267   0.176
22849W        W94465  40.050  37.881   0.199
22850W        W94466  41.835  43.737  12.402
22851W        W94467  25.620  40.562  12.865
22852W        W94468  35.313  27.654  14.326
22853W        W94469  44.047  11.852  14.775
22854W        W94470  29.022  14.090  10.012
22855W        W94471  44.284  21.314  14.935
22856W        W94472  15.178  33.963  11.696
22857W        W94473  10.780   4.402  11.973
22858W        W94474  10.478  39.730   2.396
22859W        W94475  41.038  18.873   2.244
22860W        W94476  22.522  38.014   3.283
22861W        W94477   2.425  23.821   4.249
22862W        W94478  23.981  12.747   1.676
22863W        W94479  42.024  29.969  11.148
22864W        W94480  10.191  33.701   4.602
22865W        W94481  18.851  44.922  11.565
22866W        W94482  34.132  15.049   2.654
22867W        W94483  19.554  40.801  12.007
22868W        W94484   8.819  10.134   4.871
22869W        W94485  23.151  12.684  10.967
22870W        W94486  41.781  21.050   2.164
22871W        W94487   7.706   5.932   1.673
22872W        W94488  14.683   5.670  13.461
22873W        W94489  13.184   6.372   1.852
22874W        W94490  40.975   8.768  14.944
22875W        W94491   4.941  22.739  13.106
22876W        W94492  18.979  32.865  13.477
22877W        W94493  26.157  12.879   4.671
22878W        W94494  20.197  29.050  12.417
22879W        W94495  43.373  20.782  10.690
22880W        W94496  34.793  31.912  10.726
22881W        W94497  17.406  39.901  12.986
22882W        W94498  16.692  40.581  11.194
22883W        W94499  36.916   4.161  10.705
22884W        W94500   0.296   0.779   0.370
22885W        W94501  24.624  44.876   3.631
22886W        W94502   0.763  34.605   1.229
22887W        W94503  42.853  16.314   2.909
22888W        W94504  35.261   0.545  11.483
22889W        W94505  34.543  18.757  13.894
22890W        W94506   9.139  44.011  10.572
22891W        W94507  15.797  19.223   0.543
22892W        W94508  16.882  33.650  10.723
22893W        W94509  43.802  37.953   2.502
22894W        W94510   5.645  17.836   0.982
22895W        W94511  24.165  16.660   4.487
22896W        W94512   1.868  35.677   4.245
22897W        W94513  22.731  25.400   1.364
22898W        W94514  16.577  44.547   9.970
22899W        W94515  36.284  35.795   0.318
22900W        W94516  18.829  44.423   0.907
22901W        W94517  39.133  22.172   1.769
22902W        W94518   2.834  13.873  13.756
22903W        W94519  34.437   1.959  12.115
22904W        W94520  29.886  10.632   1.778
22905W        W94521  19.857  18.397   0.931
22906W        W94522  10.998  15.293  11.348
22907W        W94523  15.083  38.047  11.718
22908W        W94524  32.630  36.495   4.735
22909W        W94525   9.215  43.357   1.746
22910W        W94526  35.471  37.978   1.706
22911W        W94527  22.238  34.645   2.862
22912W        W94528  23.539  22.617  12.986
22913W        W94529  26.706  39.275   4.123
22914W        W94530   9.332  13.605   2.631
22915W        W94531   6.717  10.288  14.401
22916W        W94532  15.289  18.012  13.796
22917W        W94533  15.062  35.471   1.476
22918W        W94534  35.691  18.196  11.425
22919W        W94535  34.094  38.116   4.515
22920W        W94536  23.250  35.599   3.660
22921W        W94537  27.063   1.825   4.654
22922W        W94538   0.820   9.800   4.375
22923W        W94539   8.676  24.698  12.708
22924W        W94540  16.035  19.405  10.957
22925W        W94541  10.405  13.810   0.814
22926W        W94542  12.944   1.562  11.540
22927W        W94543  20.162   5.938   4.382
22928W        W94544   6.863  26.602   1.363
22929W        W94545  39.391  14.229   1.345
22930W        W94546  21.513  14.723  10.716
22931W        W94547  18.027   3.950   4.948
22932W        W94548  18.697  33.660   0.382
22933W        W94549  29.048  17.326  12.329
22934W        W94550  16.002  18.987   5.529
22935W        W94551  21.051   0.050  10.993
22936W        W94552  41.395  18.545  11.925
22937W        W94553   0.277   1.899   2.793
22938W        W94554  20.253  23.837  10.987
22939W        W94555  14.837  16.614  13.870
22940W        W94556  38.539  26.211   1.289
22941W        W94557  40.286   0.520   1.877
22942W        W94558  21.971  41.979   1.390
22943W        W94559  33.762  16.697  13.146
22944W        W94560  24.699  15.567   2.805
22945W        W94561   7.365  31.093   4.366
22946W        W94562  23.599   6.635   2.811
22947W        W94563  24.413  40.061  11.065
22948W        W94564  43.364   9.915   0.350
22949W        W94565  13.514  16.857  10.714
22950W        W94566  33.535   0.666   3.533
22951W        W94567  36.604  12.436   1.676
22952W        W94568  18.225   6.215  14.742
22953W        W94569  28.918  15.668   5.031
22954W        W94570  32.895  39.062  14.916
22955W        W94571   1.023  35.619   4.534
22956W        W94572  15.732  17.791   3.797
22957W        W94573  18.339  33.960   2.716
22958W        W94574  22.931  34.057  11.354
22959W        W94575  19.245  43.547   1.607
22960W        W94576  36.077  29.485  12.537
22961W        W94577  29.057  36.056  14.515
22962W        W94578  28.621  31.079  13.246
22963W        W94579   5.281  25.594   4.632
22964W        W94580  39.453  14.728  11.033
22965W        W94581  33.550  35.271  12.831
22966W        W94582  17.994   0.867  10.782
22967W        W94583  33.593  22.279  13.395
22968W        W94584  13.535  15.039   1.430
22969W        W94585  27.279  20.720   0.345
22970W        W94586  40.265  12.262   2.684
22971W        W94587  21.648  37.133  14.850
22972W        W94588   2.355   8.339   0.824
22973W        W94589  25.135  35.827  14.817
22974W        W94590  44.362   3.938  14.243
22975W        W94591   2.745  10.259  14.832
22976W        W94592  28.705  14.701   4.315
22977W        W94593  24.033   8.849   5.124
22978W        W94594  44.289  30.129   4.287
22979W        W94595  36.543  17.171  13.095
22980W        W94596  32.355  32.891  14.913
22981W        W94597  33.834  21.001   3.096
22982W        W94598  17.552  29.722   1.276
22983W        W94599   0.593  22.699   5.460
22984W        W94600  13.524  28.755   1.244
22985W        W94601  40.813  14.061  13.371
22986W        W94602   1.280  27.992  10.617
22987W        W94603  31.579   5.470   3.697
22988W        W94604  44.919   5.349  14.440
22989W        W94605  37.197   3.383   4.923
22990W        W94606  29.994  37.093   4.939
22991W        W94607  27.597  37.138   1.490
22992W        W94608  29.547  16.487   3.178
22993W        W94609  11.291  44.449  14.858
22994W        W94610  23.518  44.491  11.049
22995W        W94611  21.576  18.590  10.703
22996W        W94612  26.476  22.724   0.797
22997W        W94613  32.569   5.225  14.390
22998W        W94614   7.073  33.431  10.269
22999W        W94615  31.622  42.362  13.477
23000W        W94616  36.457   7.183  12.081
23001W        W94617  16.769  32.781   1.338
23002W        W94618  41.325   3.210   2.924
23003W        W94619   0.157   5.908  13.352
23004W        W94620  36.190  19.098   1.650
23005W        W94621  30.988  30.662   9.566
23006W        W94622  40.396  26.699   1.316
23007W        W94623  42.770  25.585  13.759
23008W        W94624  31.605  21.200  12.333
23009W        W94625   2.237  39.387  12.904
23010W        W94626  40.931   0.616   2.285
23011W        W94627  28.529   6.954  14.802
23012W        W94628  39.413  37.023  12.876
23013W        W94629  44.838  27.651   2.385
23014W        W94630  19.582  42.892   2.341
23015W        W94631  35.985  37.649  12.467
23016W        W94632  21.023   9.408  10.634
23017W        W94633  17.765  41.095  11.858
23018W        W94634   6.855  41.293  12.064
23019W        W94635   8.804  32.055   1.805
23020W        W94636  34.139  13.626  13.505
23021W        W94637  30.701  13.395  14.571
23022W        W94638  22.895   7.708   3.756
23023W        W94639  34.086  18.946  14.550
23024W        W94640  25.115  11.766   4.359
23025W        W94641  21.243  24.240   4.075
23026W        W94642   8.413   6.243  11.696
23027W        W94643   0.121  35.383  14.374
23028W        W94644  33.427   8.838  10.205
23029W        W94645  33.598  36.147  13.296
23030W        W94646  40.958  33.486   0.926
23031W        W94647  13.312  44.079  13.919
23032W        W94648   1.151  12.708  11.575
23033W        W94649  15.067  30.796  13.854
23034W        W94650  40.284   1.025  13.880
23035W        W94651  11.424  13.853   4.532
23036W        W94652  35.028   0.639  13.033
23037W        W94653  33.358  44.928  10.485
23038W        W94654   2.260   3.936   0.258
23039W        W94655  14.553  20.615  13.346
23040W        W94656  13.810  18.720  14.946
23041W        W94657  12.747  30.152  14.773
23042W        W94658  42.735  30.646  11.982
23043W        W94659  13.673  29.110  12.050
23044W        W94660  44.569   2.702  11.609
23045W        W94661  25.237  31.597  14.391
23046W        W94662   5.156  15.857  11.548
23047W        W94663  42.934  21.439   0.727
23048W        W94664  37.794  43.084   0.784
23049W        W94665  13.672  10.528  13.051
23050W        W94666  36.044  17.793  10.608
23051W        W94667  44.889  27.456  11.580
23052W        W94668  11.443   1.188  11.818
23053W        W94669  41.273  17.160   2.712
23054W        W94670  29.142   2.879   0.764
23055W        W94671  25.249  38.184   2.804
23056W        W94672   6.228  43.374  14.695
23057W        W94673  10.507  18.274   3.512
23058W        W94674  38.594   5.307   2.257
23059W        W94675   7.184  40.538  14.417
23060W        W94676  43.924  22.473  13.921
23061W        W94677  13.116  34.184  14.499
23062W        W94678  13.157  24.430  11.502
23063W        W94679   0.664   2.971   1.880
23064W        W94680  44.338  17.061  13.398
23065W        W94681   7.893  10.925   4.068
23066W        W94682   2.905  26.026   4.589
23067W        W94683   8.581  44.317  14.439
23068W        W94684  32.136  15.206  11.969
23069W        W94685   0.220  33.181   3.642
23070W        W94686   3.204  44.817   3.276
23071W        W94687  30.831  18.796  11.661
23072W        W94688  12.359  44.328   0.963
23073W        W94689   0.941  42.383   2.310
23074W        W94690  22.207  15.166   4.554
23075W        W94691  33.440  15.813   0.316
23076W        W94692  40.855  35.085   2.205
23077W        W94693  38.629   2.202  13.219
23078W        W94694  29.145  32.263   2.781
23079W        W94695  20.021  22.179   4.417
23080W        W94696   8.658  25.620  11.258
23081W        W94697  18.016  34.470  10.750
23082W        W94698  27.755  12.962   3.201
23083W        W94699  33.603  33.004   3.924
23084W        W94700  21.778   6.565  11.522
23085W        W94701  29.590   8.406   1.278
23086W        W94702  26.525  20.907   1.397
23087W        W94703   7.341  18.516   3.682
23088W        W94704  40.402  28.042   1.648
23089W        W94705  44.451  14.077   3.141
23090W        W94706  15.195   5.382   2.156
23091W        W94707  41.810  34.407   3.112
23092W        W94708  15.196   6.915  10.615
23093W        W94709   3.483   9.666  12.011
23094W        W94710  28.055   5.868   9.508
23095W        W94711  22.580  36.154  12.041
23096W        W94712  23.377  21.199  12.536
23097W        W94713   8.765  22.642  14.501
23098W        W94714  11.612   4.025  10.755
23099W        W94715  17.570  33.203   3.670
23100W        W94716  20.792   0.921   4.583
23101W        W94717   3.877  26.763   3.485
23102W        W94718  42.926  35.967  11.948
23103W        W94719  30.846  30.583  10.074
23104W        W94720  20.156  19.047  13.870
23105W        W94721  23.526  36.791   4.167
23106W        W94722   9.815   4.723   2.703
23107W        W94723   5.723  27.048   4.698
23108W        W94724  19.120   8.915   0.779
23109W        W94725   8.207  21.144  10.549
23110W        W94726   0.346   8.326   1.230
23111W        W94727  41.008  38.777  11.044
23112W        W94728  24.559   1.511  14.803
23113W        W94729   2.299  20.569   4.786
23114W        W94730  33.449  13.200   1.217
23115W        W94731  33.056  17.145  12.862
23116W        W94732  14.151  41.316  11.053
23117W        W94733  29.247  33.951   2.562
23118W        W94734  30.049  31.164   0.530
23119W        W94735  10.202  20.533   3.262
23120W        W94736  23.199  13.578   3.689
23121W        W94737  35.635  29.057  13.137
23122W        W94738   2.488  15.243   1.733
23123W        W94739  33.157  32.057   4.783
23124W        W94740  23.170   1.276  14.804
23125W        W94741   0.039  10.731   4.744
23126W        W94742  31.248  41.829  11.474
23127W        W94743   7.444   6.280   2.785
23128W        W94744  10.664  32.803  11.334
23129W        W94745  13.942  39.025   0.532
23130W        W94746   0.266   8.226   4.116
23131W        W94747  29.428  22.260   4.353
23132W        W94748  16.803  42.546  14.898
23133W        W94749  20.087  23.009  13.074
23134W        W94750  19.979   4.389   2.444
23135W        W94751  33.975  21.299  10.303
23136W        W94752  15.296  33.852   0.078
23137W        W94753  14.333  40.210  14.350
23138W        W94754  13.660   0.754   1.426
23139W        W94755  34.573  19.042  11.889
23140W        W94756  28.167   9.609  13.075
23141W        W94757  32.849  21.472   0.854
23142W        W94758  12.650  18.106   2.860
23143W        W94759  12.416  15.239  13.503
23144W        W94760  26.677   7.779  11.534
23145W        W94761  44.560  21.945  10.331
23146W        W94762  21.800  36.300   4.224
23147W        W94763  44.680  21.789   0.565
23148W        W94764  10.817   5.605  14.119
23149W        W94765  35.332  20.833   0.333
23150W        W94766  19.520   1.375   0.156
23151W        W94767   1.520   7.027   1.397
23152W        W94768  21.048  19.951  10.690
23153W        W94769  37.017   0.425   1.750
23154W        W94770  13.502  24.064   1.867
23155W        W94771  38.975   8.924   0.026
23156W        W94772   9.193  44.348   4.406
23157W        W94773  32.203   8.377  12.393
23158W        W94774   6.369   1.457   4.562
23159W        W94775  16.592  19.558  14.852
23160W        W94776   6.159  24.286   0.208
23161W        W94777   6.144   4.245   4.314
23162W        W94778   5.007   4.346   3.635
23163W        W94779  23.419  31.147   3.856
23164W        W94780   5.405  41.976  10.679
23165W        W94781  43.408  17.966  14.178
23166W        W94782   8.382  33.622  13.702
23167W        W94783  35.158  40.949  11.834
23168W        W94784  21.267  24.088  14.264
23169W        W94785   1.854  37.955  13.858
23170W        W94786  28.083  11.088   2.299
23171W        W94787  13.204  32.305   1.673
23172W        W94788  34.822  38.988   0.421
23173W        W94789   6.152  27.276  11.597
23174W        W94790  43.477  18.811   2.675
23175W        W94791  43.429  37.613  13.056
23176W        W94792  20.620  19.798  13.969
23177W        W94793  44.467  13.144  12.490
23178W        W94794  30.615  24.562   1.891
23179W        W94795  20.473  25.615  11.379
23180W        W94796  15.306   1.163   0.338
23181W        W94797   7.917  41.966   4.271
23182W        W94798  44.364   7.974  11.441
23183W        W94799   8.432  44.258  11.586
23184W        W94800  44.742  36.873  11.876
23185W        W94801  42.368  23.757  14.319
23186W        W94802  16.076  15.476  12.344
23187W        W94803  32.595  20.298  14.239
23188W        W94804   6.495  36.658   1.679
23189W        W94805  41.484  21.756   4.691
23190W        W94806  27.560   4.826   1.280
23191W        W94807  28.024  26.604  13.979
23192W        W94808  36.898   6.522   0.033
23193W        W94809  25.028   3.653  11.626
23194W        W94810  24.076  19.613  13.445
23195W        W94811   4.488  34.072   3.240
23196W        W94812  30.711  15.855  11.047
23197W        W94813   5.257  42.240   2.811
23198W        W94814  26.123  43.103  13.784
23199W        W94815  21.671  29.665  12.145
23200W        W94816  43.183  27.954   4.629
23201W        W94817  31.717  37.580  11.759
23202W        W94818  26.459   1.205   0.074
23203W        W94819  31.889   5.653  12.337
23204W        W94820   5.713  39.912   4.389
23205W        W94821  44.953  17.261  14.877
23206W        W94822  26.445   1.965  12.052
23207W        W94823  10.871  16.378  13.194
23208W        W94824  20.512  17.126  14.709
23209W        W94825  40.334  15.803  12.105
23210W        W94826  33.578  42.085   2.675
23211W        W94827  16.623  27.900  14.980
23212W        W94828   4.859  24.438  11.207
23213W        W94829   3.535  43.089   2.481
23214W        W94830  30.584  11.269  14.762
23215W        W94831  31.211  13.176   3.547
23216W        W94832   8.518  44.739  11.170
23217W        W94833  13.838  16.868  13.102
23218W        W94834  36.114   3.546  13.358
23219W        W94835  31.488  42.399   1.270
23220W        W94836   2.547  22.490   0.005
23221W        W94837   3.187  27.440   3.670
23222W        W94838   6.710  32.013  14.188
23223W        W94839  22.455  26.353  14.897
23224W        W94840  41.580   7.142   1.324
23225W        W94841   0.423   2.163  11.119
23226W        W94842  22.653  30.648   4.080
23227W        W94843  20.926  16.216   1.938
23228W        W94844  22.754  17.682   0.746
23229W        W94845  34.358  18.322   1.405
23230W        W94846  37.043  16.098  11.915
23231W        W94847   1.996  19.169   3.636
23232W        W94848  35.465  21.687  14.312
23233W        W94849  38.648   7.770   2.361
23234W        W94850  27.528   1.896   4.401
23235W        W94851  24.760  42.543  12.456
23236W        W94852   8.706  44.402   4.247
23237W        W94853   5.080  26.201  13.102
23238W        W94854  42.301  17.308   1.804
23239W        W94855  12.105   5.732  14.196
23240W        W94856  40.819  23.871  11.666
23241W        W94857   7.854  31.539   2.857
23242W        W94858  10.214  37.103   4.406
23243W        W94859  33.336  40.008   3.832
23244W        W94860  16.091  22.988  14.821
23245W        W94861  38.609  25.564  13.007
23246W        W94862   4.374   1.245  14.443
23247W        W94863   2.270  12.856   0.398
23248W        W94864  20.213  12.659   3.496
23249W        W94865  42.778   3.740   5.162
23250W        W94866  44.335  15.094   4.171
23251W        W94867  17.069  33.892   1.834
23252W        W94868  37.860  44.049   2.400
23253W        W94869  27.736  10.216   2.220
23254W        W94870   3.734  28.549   4.772
23255W        W94871  31.125   8.792  11.893
23256W        W94872  21.868  36.979  12.043
23257W        W94873   7.607  13.636  14.982
23258W        W94874  44.061  41.423  14.920
23259W        W94875   3.350   2.405  12.164
23260W        W94876  27.542  34.257   0.368
23261W        W94877   8.640  24.739  12.105
23262W        W94878  42.924  26.659   3.353
23263W        W94879  27.543  26.669   1.349
23264W        W94880  13.307  42.332  13.510
23265W        W94881  28.764  13.244   0.320
23266W        W94882   7.382  16.731  13.826
23267W        W94883   4.904  12.660   2.663
23268W        W94884  29.073  36.759   0.671
23269W        W94885  14.899  14.768   3.983
23270W        W94886  15.680  25.589   0.043
23271W        W94887  35.167  37.081   0.404
23272W        W94888  16.198  13.351   1.879
23273W        W94889  31.984  15.836  14.420
23274W        W94890  26.697  30.320  11.966
23275W        W94891  13.673  18.861  14.119
23276W        W94892   8.924  13.275   2.721
23277W        W94893   0.392   8.233  13.284
23278W        W94894  35.541  36.880   2.697
23279W        W94895  10.614   0.806  14.957
23280W        W94896  36.955  24.564   0.218
23281W        W94897  40.896  32.945  13.746
23282W        W94898  20.218   5.648  12.235
23283W        W94899  18.303  39.017   2.416
23284W        W94900   0.845   2.619  12.830
23285W        W94901  40.413  37.657  12.529
23286W        W94902  25.232  28.755  13.956
23287W        W94903  33.015  21.554  12.407
23288W        W94904  25.562  42.737  10.641
23289W        W94905  43.505  35.595  14.866
23290W        W94906  25.474   0.430   3.727
23291W        W94907  42.890  30.483   2.913
23292W        W94908  29.328  18.025   2.747
23293W        W94909  15.257  30.467   2.245
23294W        W94910  20.613  34.211  12.508
23295W        W94911  28.134  13.847   2.357
23296W        W94912  41.788  38.540  13.804
23297W        W94913   1.913  22.244   2.179
23298W        W94914   2.524   1.058  12.880
23299W        W94915   6.870  43.644   1.764
23300W        W94916  24.690   2.828  11.573
23301W        W94917   4.030  39.744  11.154
23302W        W94918  28.879  37.161  10.394
23303W        W94919  43.976  37.104  12.426
23304W        W94920  15.313  14.889  11.946
23305W        W94921  38.853  17.831  13.874
23306W        W94922   7.182  21.166  14.548
23307W        W94923  31.046  31.069  13.436
23308W        W94924  42.343   5.406   1.241
23309W        W94925   6.669  42.826  13.940
23310W        W94926  27.135  19.061  13.836
23311W        W94927  25.862  17.772   3.389
23312W        W94928  15.159  23.241   0.003
23313W        W94929  42.994  40.815   4.111
23314W        W94930  17.068  25.199   0.485
23315W        W94931  21.149  13.629  14.351
23316W        W94932  42.484  20.473   2.431
23317W        W94933  27.760  20.179  14.078
23318W        W94934  35.453   0.037   1.359
23319W        W94935  32.990  33.805   0.839
23320W        W94936  37.298  20.552  12.968
23321W        W94937  26.553  13.181  11.215
23322W        W94938  37.942  15.188  12.383
23323W        W94939  25.284  14.296   4.314
23324W        W94940   5.640  32.486   0.365
23325W        W94941  14.177  27.365  13.714
23326W        W94942   3.299  13.561  12.918
23327W        W94943   1.386  41.105  12.643
23328W        W94944  14.021   8.775  14.834
23329W        W94945   0.751  42.900  13.424
23330W        W94946  42.600  30.990  13.021
23331W        W94947  37.918   2.440   1.366
23332W        W94948  15.395  29.977   4.539
23333W        W94949   9.284  32.966   0.473
23334W        W94950  14.046  22.797   3.653
23335W        W94951  18.808  23.710  10.910
23336W        W94952   0.989  17.615   0.560
23337W        W94953  42.553   7.311  11.628
23338W        W94954  11.349   5.365  11.220
23339W        W94955  40.029  29.068   2.609
23340W        W94956  12.643   8.744  10.910
23341W        W94957  28.478  10.477   0.300
23342W        W94958  10.307  39.482   1.233
23343W        W94959  27.709   6.245  12.341
23344W        W94960  27.368  19.224  11.946
23345W        W94961   8.737  24.959   0.391
23346W        W94962  37.065  44.612  11.036
23347W        W94963  24.568   9.710   1.969
23348W        W94964  28.148  31.627   4.641
23349W        W94965  30.804  39.660  12.031
23350W        W94966  32.374   5.714  14.555
23351W        W94967  33.702   1.734   2.754
23352W        W94968   6.324  17.652   2.749
23353W        W94969   4.015  33.091  11.113
23354W        W94970  44.362  27.819   9.993
23355W        W94971  15.977  42.677   4.706
23356W        W94972  13.380   3.272  11.209
23357W        W94973  28.614  25.050   2.820
23358W        W94974  28.959  30.976  12.033
23359W        W94975  12.121  31.534   2.657
23360W        W94976  39.801  27.722   2.870
23361W        W94977  15.409  17.555  12.358
23362W        W94978  31.710  38.929  10.649
23363W        W94979  29.440   2.711   4.602
23364W        W94980   4.449   6.331  13.322
23365W        W94981  25.765   0.785   4.202
23366W        W94982   3.722  10.268  14.861
23367W        W94983  15.093  31.281  10.584
23368W        W94984   4.898  18.548   2.280
23369W        W94985   3.710  42.987  10.143
23370W        W94986  22.611  36.420   2.753
23371W        W94987  29.835  29.695   4.108
23372W        W94988  26.972  44.023   4.580
23373W        W94989  23.703  26.046   0.455
23374W        W94990  34.068   9.256   3.148
23375W        W94991  44.954  19.027  12.510
23376W        W94992  35.926  16.674   2.198
23377W        W94993  35.434  10.133  10.688
23378W        W94994   0.529  34.466   2.334
23379W        W94995  23.557  43.384   1.257
23380W        W94996  30.858   4.177   3.186
23381W        W94997  43.992  39.237  10.725
23382W        W94998  44.351   3.658  10.759
23383W        W94999   0.680  34.090  12.161
23384W        W95000  20.282  12.639   4.028
23385W        W95001  23.051  35.113   4.552
23386W        W95002  39.288  23.074  10.613
23387W        W95003  10.293  38.911   2.415
23388W        W95004  44.702  43.814  13.191
23389W        W95005  16.789  18.476  12.158
23390W        W95006  28.333  32.502   0.495
23391W        W95007   3.361   0.441   4.661
23392W        W95008  10.380  32.144   3.834
23393W        W95009  38.301  34.847  14.380
23394W        W95010   5.731   8.831  10.681
23395W        W95011  15.533  43.341  13.737
23396W        W95012   7.312  10.178   2.704
23397W        W95013  14.597   5.867  12.457
23398W        W95014  32.904  34.074  12.897
23399W        W95015  20.494  30.386  12.064
23400W        W95016   7.749  31.623  10.822
23401W        W95017  40.180  20.612  10.520
23402W        W95018  28.406   8.312   4.122
23403W        W95019  44.746  13.227  14.067
23404W        W95020  31.187  20.239  12.890
23405W        W95021  34.932  13.624   3.583
23406W        W95022  24.728   4.856   0.680
23407W        W95023   3.845  33.990  14.369
23408W        W95024  34.339  19.892   1.229
23409W        W95025   3.883  24.903  14.351
23410W        W95026  23.094  17.067  14.902
23411W        W95027  39.364  24.674  10.501
23412W        W95028  14.194  17.753  11.991
23413W        W95029   7.727  31.143   1.654
23414W        W95030  15.394  20.590   3.575
23415W        W95031   2.896  32.715  14.964
23416W        W95032  28.184  17.363  12.668
23417W        W95033  19.755   4.212  12.692
23418W        W95034   5.785  33.383   1.460
23419W        W95035  11.104   2.356   4.590
23420W        W95036  43.521  24.764  12.021
23421W        W95037   0.249  36.776   3.175
23422W        W95038  42.581  29.312   0.817
23423W        W95039  39.997   2.245   1.854
23424W        W95040  36.546  44.298   0.406
23425W        W95041  14.319  42.430  13.317
23426W        W95042  36.772   6.163   3.522
23427W        W95043  25.249  40.940  10.464
23428W        W95044  14.428  33.051  11.273
23429W        W95045  32.895  17.049   4.183
23430W        W95046  30.392  20.801  12.106
23431W        W95047  44.548  20.250  13.075
23432W        W95048  22.469  34.922  12.754
23433W        W95049  35.014  41.742  12.943
23434W        W95050  42.286  44.972  12.775
23435W        W95051  41.334  10.743   2.803
23436W        W95052  29.489  11.625  13.494
23437W        W95053  32.046  15.072   0.878
23438W        W95054   1.510  38.586   0.932
23439W        W95055  25.303  27.979  13.477
23440W        W95056  44.346  28.033  12.035
23441W        W95057  26.473  14.605   0.323
23442W        W95058  25.546  14.071   0.199
23443W        W95059  15.326  30.651   3.696
23444W        W95060  17.827  44.295  13.295
23445W        W95061  40.845  17.631  12.923
23446W        W95062  15.501  36.321   0.917
23447W        W95063  39.081  26.562   3.723
23448W        W95064  37.606  33.058  12.413
23449W        W95065  29.582  32.915  10.629
23450W        W95066  12.672  35.221  12.452
23451W        W95067  20.624  39.863   3.550
23452W        W95068  22.282  11.907  10.946
23453W        W95069  32.377  26.527   0.918
23454W        W95070  44.735   6.629  13.413
23455W        W95071   8.221  18.616   3.113
23456W        W95072  29.490  27.849   2.717
23457W        W95073   2.426  34.494  13.098
23458W        W95074   3.099  16.447  13.440
23459W        W95075  26.711  12.470   1.847
23460W        W95076  35.008  24.724  12.014
23461W        W95077   9.399  12.733  11.261
23462W        W95078  44.219  20.223  11.589
23463W        W95079  13.390  25.927  12.398
23464W        W95080   3.178  30.513   1.910
23465W        W95081  25.625   0.321  11.554
23466W        W95082  43.368   5.919  14.830
23467W        W95083  42.419  36.823   3.311
23468W        W95084  22.622   1.442  10.654
23469W        W95085  24.054   0.858   3.507
23470W        W95086  24.062  15.439  11.593
23471W        W95087  26.664  44.715   3.699
23472W        W95088  20.771  11.664   2.790
23473W        W95089   4.967  36.443   4.012
23474W        W95090  21.219  37.873  12.860
23475W        W95091   3.835  28.456   2.894
23476W        W95092  32.054  40.862  11.493
23477W        W95093  44.939  14.251  12.939
23478W        W95094   0.021  37.592   1.128
23479W        W95095  35.528  30.591  10.862
23480W        W95096   7.624   9.804  13.926
23481W        W95097   6.312  10.132  10.634
23482W        W95098  27.252  40.561   2.604
23483W        W95099  36.375  43.170   0.889
23484W        W95100   6.791  22.781   1.924
23485W        W95101  44.511  37.081  12.302
23486W        W95102   3.367   4.434   2.406
23487W        W95103  28.030  39.845  14.409
23488W        W95104   7.855   0.240   4.914
23489W        W95105   3.207  31.672   1.999
23490W        W95106  25.398  25.476  12.184
23491W        W95107   8.939   7.463  13.345
23492W        W95108  16.512  38.493   3.101
23493W        W95109  21.529  26.454  14.555
23494W        W95110  23.167  25.481   2.800
23495W        W95111  42.905  30.274  10.264
23496W        W95112  42.873  24.241   2.007
23497W        W95113  23.545  30.460  14.526
23498W        W95114  31.301  16.262   2.549
23499W        W95115   2.721  43.465   9.823
23500W        W95116  35.974  14.296  10.617
23501W        W95117  13.813  30.181   1.232
23502W        W95118  40.856  26.198  12.173
23503W        W95119   8.699  34.433   3.400
23504W        W95120  33.567  26.701   1.803
23505W        W95121  39.893  14.987  12.991
23506W        W95122  21.129   9.984  11.581
23507W        W95123  14.884  37.257   3.284
23508W        W95124  39.456  30.276  10.767
23509W        W95125  16.977  32.932  13.313
23510W        W95126  17.685  23.702   2.230
23511W        W95127  21.078   7.224   4.881
23512W        W95128  36.553  22.641   1.455
23513W        W95129   1.749   5.323   3.092
23514W        W95130  29.588  23.151   4.315
23515W        W95131   4.537  23.693  13.467
23516W        W95132  38.491  10.248   1.751
23517W        W95133   5.415   0.442  13.042
23518W        W95134  23.242  29.513  14.392
23519W        W95135   9.285   4.015   3.489
23520W        W95136  38.651   5.383   3.125
23521W        W95137  21.993  19.793  12.960
23522W        W95138   7.223  35.403  14.931
23523W        W95139  27.261   0.988  13.432
23524W        W95140  11.814   1.378   1.679
23525W        W95141  32.973  28.072   3.217
23526W        W95142   4.297  36.416   2.173
23527W        W95143  31.020  40.494   3.465
23528W        W95144  37.968  41.078  14.263
23529W        W95145  14.668   0.721   3.384
23530W        W95146   2.033  37.675  13.431
23531W        W95147   2.733  41.720   3.128
23532W        W95148  41.629  13.601  11.236
23533W        W95149  40.392  33.326   0.286
23534W        W95150  12.501  20.544  13.355
23535W        W95151  22.327   1.858   0.796
23536W        W95152  21.997  20.114   2.395
23537W        W95153  14.759  31.162   3.241
23538W        W95154   2.831  23.740  14.849
23539W        W95155   1.942  24.722  11.484
23540W        W95156  41.934  32.073   2.126
23541W        W95157   1.832  11.058   1.314
23542W        W95158  35.603   1.740   2.794
23543W        W95159  20.127  40.071  13.396
23544W        W95160  15.817  10.952  11.010
23545W        W95161  16.587  10.797   1.337
23546W        W95162   2.695  33.027   2.675
23547W        W95163  27.854   7.265  11.894
23548W        W95164  16.151  14.508   4.175
23549W        W95165  43.032  26.011  11.617
23550W        W95166  13.245  10.353  12.828
23551W        W95167  43.637  35.283   5.000
23552W        W95168  18.339  24.002  11.096
23553W        W95169  27.481  12.343  14.266
23554W        W95170  15.447   2.792   4.454
23555W        W95171  10.093  41.919  13.073
23556W        W95172  30.694  37.352   2.747
23557W        W95173  34.282  19.199  13.756
23558W        W95174  23.156  30.661   3.226
23559W        W95175   9.460  10.122  14.742
23560W        W95176  17.788  19.659   0.360
23561W        W95177  30.635  24.453   0.968
23562W        W95178  41.769   6.411  14.410
23563W        W95179  42.041  27.766  11.754
23564W        W95180  33.886  27.024   1.492
23565W        W95181   5.792  33.323   2.383
23566W        W95182  39.011  31.138  13.067
23567W        W95183  37.382  40.341  14.760
23568W        W95184  43.731  20.211  11.856
23569W        W95185   3.659   6.307  14.900
23570W        W95186   1.234   6.697   1.746
23571W        W95187   7.232  31.756   1.162
23572W        W95188  21.324  39.250   3.252
23573W        W95189  44.229  28.147  11.542
23574W        W95190   3.687   5.961   3.758
23575W        W95191  43.021  14.101   4.846
23576W        W95192  17.314   6.501  13.535
23577W        W95193  23.619  15.387  13.899
23578W        W95194  20.268  26.642  10.534
23579W        W95195  10.885  42.297   3.294
23580W        W95196  36.462   7.884   4.137
23581W        W95197  33.040  20.254   1.428
23582W        W95198  17.124  33.668   0.598
23583W        W95199  41.415  10.709   1.705
23584W        W95200  30.531   9.512   4.145
23585W        W95201   3.283  31.808   4.286
23586W        W95202  26.316   8.971   1.275
23587W        W95203  29.704  19.583  11.493
23588W        W95204  19.502  22.247  12.788
23589W        W95205  24.492  19.520   2.204
23590W        W95206  39.392   2.490  12.987
23591W        W95207   1.581  38.431   4.580
23592W        W95208  10.983  13.686   2.791
23593W        W95209  13.062  19.252  13.408
23594W        W95210  10.276  21.198  11.437
23595W        W95211  35.418  26.447   1.888
23596W        W95212   2.419  25.505  12.530
23597W        W95213  30.392  26.441   2.659
23598W        W95214  14.132   2.779   3.698
23599W        W95215  12.748  40.570   0.249
23600W        W95216  25.746  20.767   3.276
23601W        W95217  35.173  32.561  14.958
23602W        W95218  40.033  38.998  14.430
23603W        W95219  39.948  19.538   4.309
23604W        W95220  42.304  39.999  11.148
23605W        W95221  13.041  17.920  12.089
23606W        W95222  28.216  27.615   3.142
23607W        W95223  16.725   0.794   3.786
23608W        W95224  29.173  28.645   2.839
23609W        W95225   4.894   4.998   0.658
23610W        W95226  10.387  36.933  11.945
23611W        W95227  28.906  28.140   1.172
23612W        W95228  13.824   4.894   0.379
23613W        W95229  30.664  27.427   1.879
23614W        W95230  19.057  22.444   1.476
23615W        W95231  28.021   4.731   3.252
23616W        W95232  27.315   5.829   3.292
23617W        W95233  43.077  18.542  12.896
23618W        W95234  38.027  24.706  14.708
23619W        W95235  35.211  13.092   0.845
23620W        W95236   4.908  41.841  12.578
23621W        W95237  34.956  27.449  11.508
23622W        W95238   0.804   2.826  12.355
23623W        W95239  43.578  34.587   0.333
23624W        W95240   8.368  27.139   2.714
23625W        W95241  41.548   1.335  14.376
23626W        W95242  39.113  41.005  14.885
23627W        W95243  30.595  15.587   3.746
23628W        W95244  21.957  30.852   2.731
23629W        W95245  17.303  21.879   2.478
23630W        W95246  25.658   5.438  11.055
23631W        W95247  30.637  30.183   5.372
23632W        W95248  37.090  41.420   0.780
23633W        W95249  24.595   0.761  10.818
23634W        W95250  28.963   4.321   2.666
23635W        W95251  18.018  42.763   3.168
23636W        W95252  16.473  33.602  11.584
23637W        W95253  15.213  26.195  14.440
23638W        W95254  44.371  16.952  11.594
23639W        W95255  11.811  28.212   1.855
23640W        W95256  14.394  36.731   4.089
23641W        W95257   6.403  31.542   3.213
23642W        W95258  16.667  17.775   2.845
23643W        W95259  17.577  12.681  12.094
23644W        W95260  22.494   2.724   2.296
23645W        W95261  43.300   5.533  11.131
23646W        W95262  42.500   5.426  14.104
23647W        W95263   9.919  23.825  12.019
23648W        W95264  32.395  18.396  12.351
23649W        W95265  27.795  20.790   5.066
23650W        W95266   6.065  22.199   3.328
23651W        W95267   0.961  17.809   3.637
23652W        W95268  13.598  34.637  12.951
23653W        W95269  27.719  17.284  12.919
23654W        W95270  36.971  26.536  11.471
23655W        W95271  31.712  34.956  12.910
23656W        W95272  35.179   9.311   3.087
23657W        W95273   0.039  22.295  14.379
23658W        W95274   2.913  15.805  11.155
23659W        W95275  29.407   8.580   2.662
23660W        W95276   2.168  21.111   4.814
23661W        W95277  44.299  10.124   0.351
23662W        W95278  39.585  25.758  11.920
23663W        W95279   6.122  16.484   3.753
23664W        W95280  14.118  44.945   2.242
23665W        W95281  40.766  43.422   0.263
23666W        W95282  17.643  17.706   0.228
23667W        W95283  16.268   5.915  11.384
23668W        W95284  12.913   6.392   1.415
23669W        W95285  35.957  44.489  14.274
23670W        W95286  23.215  14.589   3.785
23671W        W95287  15.631  36.929   0.628
23672W        W95288  29.410  18.575  11.703
23673W        W95289  19.126  29.856   0.634
23674W        W95290  26.179  10.126  12.936
23675W        W95291  20.642  12.872   3.659
23676W        W95292  39.593  39.793  10.714
23677W        W95293  29.445  31.663   0.161
23678W        W95294  28.128  20.820   4.676
23679W        W95295  40.565  30.050   2.804
23680W        W95296  19.786  38.518   3.163
23681W        W95297  33.439  37.549  13.103
23682W        W95298  28.227  14.755   2.161
23683W        W95299   7.806  42.229   1.902
23684W        W95300   7.891   8.245   1.308
23685W        W95301   9.599   1.761   0.919
23686W        W95302   5.453  39.831  10.825
23687W        W95303  31.053   8.428  11.536
23688W        W95304   7.807  11.303   3.724
23689W        W95305  26.473  10.116   2.674
23690W        W95306   5.733  13.332  14.605
23691W        W95307  38.760  41.559   1.188
23692W        W95308  38.227  27.092  14.211
23693W        W95309   7.953  42.285  11.575
23694W        W95310  39.368  24.747   3.257
23695W        W95311  33.057  27.513   0.045
23696W        W95312  40.837  23.087  13.290
23697W        W95313  23.213  11.713   3.814
23698W        W95314  27.452  15.676   4.481
23699W        W95315  13.706  42.438  12.594
23700W        W95316  21.559  14.266   0.366
23701W        W95317  41.433  18.578   3.276
23702W        W95318   8.843  12.150   4.657
23703W        W95319  18.275  28.500   1.496
23704W        W95320   7.247  15.348   0.219
23705W        W95321  29.629  14.265  13.724
23706W        W95322  21.150  21.799  13.402
23707W        W95323  17.190  15.671   0.500
23708W        W95324  39.837  20.942  11.152
23709W        W95325  25.046  29.066  11.000
23710W        W95326  27.925  12.228   4.091
23711W        W95327  21.193  34.053   3.539
23712W        W95328  41.793  20.086  13.920
23713W        W95329   9.902   8.741  11.581
23714W        W95330  16.157   9.194   3.926
23715W        W95331  11.272  33.643  14.771
23716W        W95332  42.798  29.229  14.471
23717W        W95333  10.867   0.265   0.762
23718W        W95334  36.030  27.948  13.328
23719W        W95335   3.114  36.714  11.692
23720W        W95336  31.081  12.213   2.634
23721W        W95337   6.812   7.094   4.148
23722W        W95338  38.946  43.444  11.232
23723W        W95339  15.597  21.583  10.838
23724W        W95340  39.986   5.113  13.381
23725W        W95341   2.519   8.734   4.183
23726W        W95342  18.771  31.736  14.395
23727W        W95343  19.068  28.385   0.491
23728W        W95344  41.806   0.396   3.263
23729W        W95345   4.181  15.943   0.714
23730W        W95346  15.342   8.556   5.011
23731W        W95347  13.835  42.308  13.499
23732W        W95348  36.894  23.355   3.184
23733W        W95349  20.450  17.765  13.430
23734W        W95350  24.640  23.341  13.308
23735W        W95351  12.080  19.013   1.300
23736W        W95352   7.827   0.855  10.656
23737W        W95353  16.149   0.587  14.501
23738W        W95354  23.982  21.615  13.564
23739W        W95355  18.188   7.543  11.986
23740W        W95356  19.598  18.643   0.373
23741W        W95357  39.892   5.883  14.254
23742W        W95358   7.672  21.613   2.785
23743W        W95359   6.020  12.160  11.987
23744W        W95360  36.464   3.273   0.031
23745W        W95361   1.731  28.894  13.504
23746W        W95362  42.840  29.002   4.844
23747W        W95363   0.814  34.283   4.110
23748W        W95364  23.649  31.900  14.573
23749W        W95365  44.476  36.765   3.649
23750W        W95366  23.641  26.432  10.284
23751W        W95367  28.018  42.213   3.243
23752W        W95368  38.915   3.538   4.169
23753W        W95369  33.941  19.384   2.362
23754W        W95370  10.646  11.726   4.349
23755W        W95371  14.855  34.530  13.379
23756W        W95372  25.938   9.637   0.017
23757W        W95373  44.090  38.000  12.525
23758W        W95374   4.918  30.426   3.881
23759W        W95375  28.515  16.719   1.024
23760W        W95376  40.416  27.006  13.097
23761W        W95377   8.500  23.506  10.758
23762W        W95378   8.928  32.982  12.935
23763W        W95379  37.471  20.823   4.822
23764W        W95380  38.083  41.340   0.937
23765W        W95381  32.956  14.719   4.609
23766W        W95382  15.144  37.065   2.379
23767W        W95383  40.933   8.207  14.046
23768W        W95384   0.225   3.321   2.298
23769W        W95385  38.470  26.094   3.644
23770W        W95386   6.284  27.197  14.368
23771W        W95387  27.966  16.720  13.429
23772W        W95388  38.154  41.302  14.988
23773W        W95389  41.313  36.038   3.701
23774W        W95390  42.998  24.452  11.203
23775W        W95391  16.126   6.010  10.783
23776W        W95392  44.127  13.408   2.781
23777W        W95393  15.148  30.930   4.156
23778W        W95394  25.618  30.715   4.661
23779W        W95395  20.142  19.703   2.248
23780W        W95396   8.907  35.065   0.290
23781W        W95397  31.519  26.277  12.724
23782W        W95398   5.630  17.836  11.490
23783W        W95399  38.097   8.432   0.535
23784W        W95400   4.369  39.972   2.340
23785W        W95401  41.865  40.884  11.978
23786W        W95402  11.586  12.720   1.782
23787W        W95403  21.926   1.477   2.271
23788W        W95404  27.619   5.868  11.035
23789W        W95405  26.917  16.329  14.534
23790W        W95406  15.072  12.939  12.027
23791W        W95407  11.720   2.217  12.515
23792W        W95408  11.860  24.716   3.163
23793W        W95409  14.688  41.832   2.986
23794W        W95410  34.087  24.335   1.330
23795W        W95411  24.538  39.406   1.998
23796W        W95412  32.554  42.961   2.929
23797W        W95413  38.870  27.734  14.830
23798W        W95414  30.416  35.065  10.722
23799W        W95415  18.687   0.461   1.682
23800W        W95416  30.935  36.016  10.642
23801W        W95417  39.754  43.925   0.883
23802W        W95418  35.854   8.916   3.594
23803W        W95419  32.657  42.877   0.465
23804W        W95420   3.911  21.568   3.180
23805W        W95421  11.342  30.933  13.993
23806W        W95422  31.639  41.964  11.133
23807W        W95423  20.569  43.836  12.311
23808W        W95424   0.457  44.243   4.400
23809W        W95425  29.477  32.262  11.236
23810W        W95426  24.978  27.815  10.598
23811W        W95427  18.840   4.396  13.802
23812W        W95428  33.617   5.862   0.426
23813W        W95429  33.092  34.939  10.587
23814W        W95430  42.899  15.138  12.061
23815W        W95431  33.385   8.284  14.772
23816W        W95432  42.758  22.091   3.692
23817W        W95433  28.637  11.588  11.131
23818W        W95434  40.245   5.309  11.276
23819W        W95435  41.301  42.480  10.590
23820W        W95436  22.017  28.970  10.380
23821W        W95437  12.917  43.032   2.664
23822W        W95438  43.359  17.210  14.235
23823W        W95439   1.267   3.712   0.285
23824W        W95440  11.754  28.033   4.595
23825W        W95441  24.771  41.601  13.452
23826W        W95442  10.715  32.423   0.679
23827W        W95443  31.313  11.592   4.366
23828W        W95444  18.032  27.513   0.817
23829W        W95445   2.034  14.831   0.371
23830W        W95446  17.933  21.081  11.169
23831W        W95447   3.600  32.195  10.749
23832W        W95448  42.521  10.815   0.257
23833W        W95449  41.571   5.961  11.067
23834W        W95450  29.620   7.657  13.925
23835W        W95451   6.429  13.747  12.790
23836W        W95452  24.588  39.283   1.463
23837W        W95453  17.603  24.938   4.682
23838W        W95454   2.295  30.538   0.010
23839W        W95455  16.390  29.982   0.487
23840W        W95456  44.647  21.047   1.662
23841W        W95457   5.738  23.094  10.640
23842W        W95458  28.727  10.076   2.318
23843W        W95459  31.891  41.958  12.798
23844W        W95460  29.112  12.235   4.885
23845W        W95461  18.226  14.561   3.265
23846W        W95462  25.698   3.761  11.024
23847W        W95463   2.420  11.739   1.283
23848W        W95464  30.464   8.633   3.268
23849W        W95465   7.878  34.366  11.882
23850W        W95466  20.638   6.783   1.080
23851W        W95467  44.921  16.200  11.503
23852W        W95468  19.352   0.775  12.826
23853W        W95469   4.423  29.081   5.002
23854W        W95470   6.078  20.064   1.195
23855W        W95471  21.855  12.294  13.812
23856W        W95472  19.467  33.536  11.992
23857W        W95473   3.926  36.476   4.660
23858W        W95474  37.880   7.246  11.559
23859W        W95475   9.757  30.073   4.579
23860W        W95476  14.178  14.864  13.487
23861W        W95477   4.409  11.780  12.001
23862W        W95478   5.435  37.920  10.372
23863W        W95479  34.180  23.339   1.355
23864W        W95480  33.306  43.319   1.360
23865W        W95481  38.503  13.423  10.454
23866W        W95482  27.034   2.059  14.756
23867W        W95483  20.698   4.927   2.290
23868W        W95484   5.943   7.758  13.842
23869W        W95485  13.118  34.009  11.505
23870W        W95486  16.487  41.326   4.846
23871W        W95487  27.904   0.930   1.433
23872W        W95488   8.811  42.482  10.997
23873W        W95489  30.110  12.532  13.522
23874W        W95490   1.603  12.769   3.920
23875W        W95491  32.603  27.701  14.783
23876W        W95492  10.697  35.598   3.721
23877W        W95493   9.364  23.141  12.609
23878W        W95494  10.266  20.123   0.237
23879W        W95495  37.109  28.415   1.706
23880W        W95496  43.543   6.941   1.391
23881W        W95497   9.269  39.115  12.421
23882W        W95498  44.179  12.901   2.753
23883W        W95499  40.645   2.457  14.872
23884W        W95500  37.510  42.354   3.815
23885W        W95501  20.552   2.242   4.055
23886W        W95502  16.050   0.283   1.331
23887W        W95503   9.153  21.300   3.402
23888W        W95504  37.866  13.441   3.298
23889W        W95505  39.642  35.169  12.554
23890W        W95506  42.442  12.497   4.465
23891W        W95507   7.347  22.271   1.235
23892W        W95508  43.983  43.059  11.961
23893W        W95509  43.653  17.752  13.061
23894W        W95510   6.891   1.456  11.584
23895W        W95511  29.546  10.632   3.277
23896W        W95512  16.660   5.309  13.096
23897W        W95513  39.721   4.778   3.268
23898W        W95514  33.907   4.174   2.810
23899W        W95515   0.535  40.793  12.531
23900W        W95516   4.121  40.590  13.422
23901W        W95517   3.205  17.609   0.442
23902W        W95518  34.919  10.845   1.679
23903W        W95519  31.077  14.823  13.045
23904W        W95520  16.654  39.534   2.198
23905W        W95521  35.561  44.610  10.518
23906W        W95522  16.529  11.301  11.549
23907W        W95523  24.575   5.398   0.432
23908W        W95524   4.735   3.486  12.105
23909W        W95525  23.362  16.776  11.517
23910W        W95526  17.250  10.565   4.126
23911W        W95527  28.435  33.916   0.505
23912W        W95528  40.243  15.865  11.609
23913W        W95529   0.365  30.173   1.728
23914W        W95530  36.936  31.866   5.365
23915W        W95531  10.388  19.255  14.353
23916W        W95532  37.218  39.969   1.233
23917W        W95533  21.194  14.332  13.859
23918W        W95534   0.610   8.485  12.911
23919W        W95535   3.241  28.676   3.654
23920W        W95536  29.925   2.585  12.400
23921W        W95537  43.971  10.105  12.041
23922W        W95538  12.133  17.268   4.712
23923W        W95539  39.011  30.968   3.154
23924W        W95540  33.413   9.359   4.647
23925W        W95541  38.966   3.940   2.223
23926W        W95542  23.767   7.336   1.586
23927W        W95543  12.328  13.552  13.063
23928W        W95544  40.634   8.925  10.397
23929W        W95545   0.004  15.575   1.412
23930W        W95546   6.908  12.240   1.437
23931W        W95547  33.573  11.425   0.881
23932W        W95548  31.363  13.687   4.796
23933W        W95549  27.495   0.269   1.252
23934W        W95550  25.560  18.063  10.236
23935W        W95551  12.329  19.130  13.804
23936W        W95552  13.805  27.526  10.600
23937W        W95553  43.750  13.753  14.856
23938W        W95554  39.250  10.194  14.274
23939W        W95555  16.540  25.559   3.095
23940W        W95556  12.357  15.698  13.960
23941W        W95557   0.934   9.776   1.743
23942W        W95558  41.933   0.399  10.670
23943W        W95559  20.067  17.199   0.529
23944W        W95560  21.088  17.783  11.033
23945W        W95561  22.172  39.733   2.390
23946W        W95562  32.072  19.091   4.566
23947W        W95563  32.624  28.946  10.217
23948W        W95564  36.112  16.838   4.586
23949W        W95565   4.508  12.116   1.440
23950W        W95566  21.166  20.264  12.449
23951W        W95567  18.550  32.802   1.336
23952W        W95568   5.389  35.085  13.698
23953W        W95569  20.805  11.262  14.888
23954W        W95570  12.505  34.613  11.766
23955W        W95571   1.469  12.670  13.820
23956W        W95572  19.179   8.823   2.083
23957W        W95573  26.092  39.267   3.289
23958W        W95574  32.672   5.936  12.429
23959W        W95575  18.659   2.729  12.502
23960W        W95576  30.439  30.903  10.118
23961W        W95577  24.015   0.292  12.033
23962W        W95578  33.054  39.110   1.862
23963W        W95579  24.732  28.425  10.993
23964W        W95580  42.340  16.087   2.340
23965W        W95581  42.548  39.099  11.945
23966W        W95582  39.122  21.695  14.963
23967W        W95583  28.214  31.676  13.452
23968W        W95584  32.185  38.850  13.591
23969W        W95585  44.521  22.257   3.299
23970W        W95586  15.830  16.262   0.463
23971W        W95587   7.238   7.609  11.531
23972W        W95588   5.209   4.942  11.722
23973W        W95589  42.387  27.243   1.034
23974W        W95590  42.585   9.855   1.300
23975W        W95591  20.381  22.234   3.553
23976W        W95592  40.590   4.345   2.331
23977W        W95593  24.737  43.866  11.949
23978W        W95594  20.114  32.534   0.750
23979W        W95595  14.152   2.417  12.344
23980W        W95596  22.297  17.123  14.472
23981W        W95597  38.861   1.267  14.339
23982W        W95598  29.044  18.217  12.033
23983W        W95599   2.659   1.700   4.307
23984W        W95600  30.015   4.821   3.771
23985W        W95601  33.458  38.131   1.941
23986W        W95602  10.276   7.150   0.598
23987W        W95603  38.347  39.490  11.353
23988W        W95604  37.816  39.651  12.536
23989W        W95605   6.941   8.429   3.882
23990W        W95606  18.561  19.321   1.421
23991W        W95607  32.360   5.657   4.146
23992W        W95608  26.643   7.270  14.163
23993W        W95609   3.453  22.418   3.651
23994W        W95610  21.881  21.532   3.204
23995W        W95611  29.206  27.730  13.331
23996W        W95612   7.776  32.997  14.889
23997W        W95613   2.697  20.243  12.967
23998W        W95614  44.205  40.477   3.779
23999W        W95615   1.843  32.544   2.662
24000W        W95616  35.585  37.362  10.706
24001W        W95617  18.129  23.251   1.009
24002W        W95618  42.029  13.851  12.512
24003W        W95619  10.409  18.146   1.925
24004W        W95620  15.926  15.146  14.504
24005W        W95621  18.075  16.706   3.178
24006W        W95622  12.590  29.635   1.877
24007W        W95623  35.175  35.566  13.362
24008W        W95624  43.138  13.102   5.361
24009W        W95625  39.494  34.070  11.155
24010W        W95626   1.885  24.745  14.598
24011W        W95627  44.046  11.751  12.641
24012W        W95628  33.398  27.208  13.881
24013W        W95629   8.936  39.912   0.380
24014W        W95630  31.899  17.289   1.808
24015W        W95631  33.041  35.047  14.516
24016W        W95632  30.986   9.424   1.388
24017W        W95633  21.114   5.154   0.685
24018W        W95634  33.826  25.986  14.408
24019W        W95635  20.576  24.449  14.808
24020W        W95636   2.932  19.207  14.168
24021W        W95637  36.860  23.158   0.339
24022W        W95638  35.083  35.779  14.686
24023W        W95639   3.175  16.187   1.223
24024W        W95640  44.795  11.735  13.947
24025W        W95641  20.451  35.362  13.349
24026W        W95642  34.598  41.202  14.809
24027W        W95643  32.905  23.107  12.195
24028W        W95644  21.493  24.992   1.811
24029W        W95645  26.396  23.819   2.189
24030W        W95646  22.006  22.536   0.330
24031W        W95647  37.711   7.080   4.612
24032W        W95648  41.975  28.459   1.858
24033W        W95649   5.236  24.040   3.052
24034W        W95650  19.680  35.106  10.653
24035W        W95651   0.386  19.035   3.163
24036W        W95652  27.971  26.291   4.712
24037W        W95653   3.418  17.283  13.529
24038W        W95654  35.428  36.151   3.507
24039W        W95655  40.917   7.174  14.169
24040W        W95656   0.568  22.074  13.513
24041W        W95657   0.902   3.819  14.353
24042W        W95658  29.876  42.912  13.341
24043W        W95659   7.198  31.584   2.119
24044W        W95660  10.164  27.596   4.122
24045W        W95661   9.117  18.906   2.690
24046W        W95662  15.804  44.009  12.033
24047W        W95663  24.117  33.934  14.934
24048W        W95664  37.442  10.650  14.479
24049W        W95665   5.938  38.088   3.676
24050W        W95666  36.086  17.536  14.291
24051W        W95667  15.288   0.547  12.766
24052W        W95668  28.005   4.129  14.859
24053W        W95669  42.475  23.490   0.694
24054W        W95670  41.189   6.426   0.850
24055W        W95671  26.686  29.550   1.371
24056W        W95672   8.302  30.409   1.502
24057W        W95673  39.803  20.390  14.894
24058W        W95674  11.147  42.314  13.999
24059W        W95675  30.157  12.851   2.223
24060W        W95676  24.213  11.772   3.604
24061W        W95677   3.681  42.716   0.482
24062W        W95678  39.976   3.188   2.671
24063W        W95679   6.063  26.302   1.457
24064W        W95680  29.981   0.191   2.648
24065W        W95681  33.907  30.891   2.788
24066W        W95682  15.071  42.513   2.248
24067W        W95683  17.765  39.303   3.946
24068W        W95684  29.961  43.761  11.165
24069W        W95685  34.064  36.882  11.022
24070W        W95686  31.897   7.974  14.916
24071W        W95687  20.088  15.107   3.279
24072W        W95688  28.433  20.106   3.158
24073W        W95689   7.789  33.679  10.704
24074W        W95690   7.817  33.851  11.683
24075W        W95691  13.409  26.547   3.284
24076W        W95692  17.113  43.736   1.273
24077W        W95693  27.664  37.309  11.133
24078W        W95694  14.522   1.901  13.485
24079W        W95695   5.520  30.094  14.364
24080W        W95696  27.760  20.896   1.315
24081W        W95697  16.111  43.131  10.526
24082W        W95698  29.368  25.990   3.003
24083W        W95699   9.901  18.134   1.063
24084W        W95700  26.595  22.321  14.314
24085W        W95701  40.409   6.966   1.826
24086W        W95702   9.168  18.824   1.713
24087W        W95703   8.415  37.557   2.184
24088W        W95704   8.205  28.266   1.795
24089W        W95705   3.480   5.235  13.318
24090W        W95706  20.208  37.541   4.213
24091W        W95707   0.749  33.922   2.183
24092W        W95708  43.414  22.052  11.483
24093W        W95709   8.754  25.245  11.948
24094W        W95710  32.919  24.415   0.745
24095W        W95711  44.533  27.263  12.434
24096W        W95712  21.589  11.361  13.012
24097W        W95713  20.066  13.673   1.274
24098W        W95714  32.184   7.306  13.833
24099W        W95715  13.348  16.358   1.830
24100W        W95716  26.173   8.609  10.502
24101W        W95717  35.855  17.983   1.268
24102W        W95718  10.924  20.536   2.726
24103W        W95719  28.610  40.858   4.304
24104W        W95720   9.583   4.857  10.238
24105W        W95721  22.429   9.146   3.291
24106W        W95722   3.917  36.382   3.333
24107W        W95723  13.213   6.598  11.977
24108W        W95724  32.542  34.088   4.536
24109W        W95725  14.712  33.492   3.764
24110W        W95726  31.617   7.068   2.746
24111W        W95727  27.486   1.912   3.891
24112W        W95728  34.544  13.814  10.733
24113W        W95729  15.351  33.965  10.664
24114W        W95730  32.026  29.122   1.241
24115W        W95731   0.420  31.695   0.264
24116W        W95732  34.423  44.330  12.946
24117W        W95733  27.240  15.040  11.167
24118W        W95734   6.018  30.628  12.420
24119W        W95735   4.260   3.194  12.135
24120W        W95736  29.134   6.049  11.722
24121W        W95737  20.139  31.349  13.457
24122W        W95738  31.588  32.592   0.844
24123W        W95739   4.598   5.862   2.297
24124W        W95740   6.870  10.834   1.201
24125W        W95741   9.306  37.609   0.258
24126W        W95742  23.243  40.106   4.478
24127W        W95743  40.900   6.273  12.027
24128W        W95744   8.623  23.000  12.006
24129W        W95745  19.450  20.585   1.619
24130W        W95746  22.717  35.156   1.640
24131W        W95747   6.293  12.000  11.562
24132W        W95748  15.175   8.758  12.631
24133W        W95749  19.310  17.021  13.051
24134W        W95750  20.284  19.182   1.445
24135W        W95751  42.235  32.444   2.336
24136W        W95752  12.213  16.782  10.718
24137W        W95753  14.722   5.487  12.862
24138W        W95754  19.255  30.578   1.186
24139W        W95755  10.795   1.922   4.731
24140W        W95756  26.467  24.689  10.751
24141W        W95757   3.015  12.217   5.011
24142W        W95758  28.326  43.895  13.064
24143W        W95759  44.340   6.681   1.992
24144W        W95760   1.374  33.293  14.793
24145W        W95761  19.571  31.190   4.719
24146W        W95762  37.759  22.343   4.509
24147W        W95763  10.206  40.063  11.588
24148W        W95764   0.722  27.726   3.285
24149W        W95765  17.585  15.266   4.607
24150W        W95766  11.552  43.680  11.929
24151W        W95767  22.615  21.602  13.068
24152W        W95768  26.170  18.465   0.671
24153W        W95769  24.209  34.497  12.576
24154W        W95770  21.605  39.995  11.019
24155W        W95771  20.597  18.060  14.751
24156W        W95772  30.495   5.223   1.984
24157W        W95773  31.352   9.901  11.106
24158W        W95774  42.310  28.490   3.711
24159W        W95775   9.714  32.556  10.558
24160W        W95776   1.401  37.032  14.416
24161W        W95777  30.452  43.467   1.781
24162W        W95778  31.040   6.828   1.968
24163W        W95779   3.660  22.114   9.665
24164W        W95780  17.270  20.113   2.657
24165W        W95781  11.325  41.543   4.175
24166W        W95782  25.174   5.611   1.302
24167W        W95783  29.387  10.711   1.908
24168W        W95784  17.736  33.456   3.225
24169W        W95785  41.900  25.543  14.810
24170W        W95786  10.442   5.937  13.950
24171W        W95787   0.926  19.034  13.430
24172W        W95788  15.803  13.760   1.332
24173W        W95789  29.388  27.856  14.968
24174W        W95790  35.136  33.266  11.035
24175W        W95791  41.752  16.720   2.304
24176W        W95792   8.266  33.101   1.033
24177W        W95793  40.389  34.857  14.725
24178W        W95794  43.529  30.117  13.466
24179W        W95795  21.286  33.961   2.163
24180W        W95796   7.283  18.002   3.699
24181W        W95797  40.384  39.530  12.296
24182W        W95798  33.508   9.706   3.643
24183W        W95799  41.530   1.488  10.636
24184W        W95800  16.966  28.421  10.820
24185W        W95801  33.533  40.444   3.604
24186W        W95802  26.713  15.328  14.770
24187W        W95803  25.868  35.113  12.043
24188W        W95804  35.310  32.273   4.243
24189W        W95805  15.935  24.956   1.388
24190W        W95806   7.946  36.777  14.909
24191W        W95807   6.868  30.047   4.244
24192W        W95808  42.239  33.730  14.948
24193W        W95809  20.040  15.621   3.169
24194W        W95810   6.345  37.834  10.897
24195W        W95811  29.094  14.703   1.680
24196W        W95812  29.290  25.334   0.351
24197W        W95813  37.059   4.890   0.719
24198W        W95814  37.638  10.844  14.016
24199W        W95815   8.271  30.421  10.448
24200W        W95816   8.846  25.750   1.341
24201W        W95817  40.523  37.580  13.314
24202W        W95818   0.587  42.843   3.808
24203W        W95819  20.852  32.841   1.209
24204W        W95820   5.367  20.739   2.723
24205W        W95821  25.226  32.131   2.654
24206W        W95822  18.284  12.351   0.030
24207W        W95823  23.768  36.100   2.777
24208W        W95824   6.334   8.411   1.704
24209W        W95825  24.704   6.805  10.781
24210W        W95826   8.289  30.927  12.578
24211W        W95827  11.365  15.807   4.136
24212W        W95828   1.451   3.389  10.650
24213W        W95829  41.426  22.446   0.222
24214W        W95830  38.908  39.028  12.496
24215W        W95831  14.365  15.508  14.892
24216W        W95832  29.109   6.534   4.624
24217W        W95833  17.263  34.945   0.873
24218W        W95834   6.856   6.946  12.181
24219W        W95835   7.329  35.658  12.024
24220W        W95836   6.804  18.534   2.455
24221W        W95837  19.473  40.337  11.144
24222W        W95838  41.009  17.760   4.209
24223W        W95839  20.952   7.883  13.366
24224W        W95840  39.842  19.387  14.507
24225W        W95841  41.540  19.907   4.631
24226W        W95842  11.147  27.657   3.783
24227W        W95843   4.986  27.679   3.705
24228W        W95844  21.155  41.121  11.950
24229W        W95845  33.985  12.797  14.039
24230W        W95846  23.997  23.802   1.211
24231W        W95847  43.051   5.780   0.968
24232W        W95848  20.246  17.804   1.734
24233W        W95849  32.162  17.665  11.044
24234W        W95850  30.994  39.118   2.334
24235W        W95851  12.590  27.884  13.414
24236W        W95852   8.066  13.720  13.455
24237W        W95853  21.089  29.136  14.536
24238W        W95854  43.854  19.504  10.779
24239W        W95855  16.680   9.595  12.912
24240W        W95856   6.670  25.486   4.293
24241W        W95857  32.628  10.675  11.548
24242W        W95858  16.375  23.099  10.970
24243W        W95859  12.838  33.969   1.957
24244W        W95860  42.391  18.271   0.834
24245W        W95861  34.581   9.319   2.238
24246W        W95862  22.717   8.805  12.500
24247W        W95863  25.531  39.264  11.142
24248W        W95864  39.587  42.350   0.108
24249W        W95865  14.601   6.763   1.818
24250W        W95866  38.336   3.235   3.634
24251W        W95867  44.851  33.630  13.489
24252W        W95868  32.599  29.415  11.180
24253W        W95869  25.268   6.884  14.972
24254W        W95870  20.340  25.967   3.896
24255W        W95871  38.017   9.788   4.197
24256W        W95872  23.990  43.000  12.506
24257W        W95873  38.734  40.890   4.241
24258W        W95874  44.918  24.943   0.004
24259W        W95875  17.741  17.108   1.042
24260W        W95876  20.563  23.655   1.260
24261W        W95877  37.959  12.443  11.246
24262W        W95878  16.642  12.437   4.853
24263W        W95879   8.572   6.691   1.336
24264W        W95880  39.980   7.196  14.392
24265W        W95881  30.639   6.552  14.751
24266W        W95882   8.424   5.269  10.776
24267W        W95883  25.051  10.397  11.091
24268W        W95884   7.678  14.745  11.809
24269W        W95885  18.491   4.733   4.685
24270W        W95886  19.545  27.930  10.952
24271W        W95887   8.920  20.134   1.340
24272W        W95888  19.311  23.997  12.057
24273W        W95889  32.992  11.738   1.476
24274W        W95890  39.258  38.985   4.937
24275W        W95891  29.617  19.117  13.981
24276W        W95892  30.548  19.219  14.059
24277W        W95893  15.524   1.801   1.497
24278W        W95894  20.142  43.038   3.293
24279W        W95895  38.337  16.653   1.774
24280W        W95896  11.744   9.448  12.490
24281W        W95897   8.290  28.001  13.340
24282W        W95898   7.150   0.307  10.329
24283W        W95899  21.175  38.743  13.007
24284W        W95900  15.052  30.912   1.937
24285W        W95901  25.980  26.025   3.777
24286W        W95902  14.116  33.478   2.334
24287W        W95903   1.385   6.523   2.419
24288W        W95904  23.052  38.581  12.083
24289W        W95905  41.394   7.630  13.505
24290W        W95906  26.835  26.503   3.728
24291W        W95907  24.497   8.246   1.927
24292W        W95908  32.762  30.340   4.198
24293W        W95909  32.808   5.041   1.915
24294W        W95910  30.515  30.643  11.868
24295W        W95911  30.860  40.914  14.785
24296W        W95912  30.313  36.792   4.159
24297W        W95913   3.234  30.727  11.100
24298W        W95914  17.897  35.370   0.381
24299W        W95915  17.291  38.610  11.574
24300W        W95916  10.441  19.520  12.004
24301W        W95917  44.720  25.702  11.048
24302W        W95918   0.904  33.640  12.031
24303W        W95919  34.064   0.423   4.618
24304W        W95920  32.517  36.946   3.644
24305W        W95921  29.583  18.851   2.794
24306W        W95922  32.353  13.795  12.981
24307W        W95923  23.202  12.820   0.460
24308W        W95924  10.666   2.384   1.352
24309W        W95925   0.367   4.216   4.157
24310W        W95926  10.638   2.857  13.055
24311W        W95927  22.686  38.926  10.102
24312W        W95928  14.363  25.103   3.866
24313W        W95929  13.030  29.561  13.514
24314W        W95930  10.377  44.834   4.071
24315W        W95931  37.457   5.395  12.385
24316W        W95932  30.399  19.797   0.987
24317W        W95933  25.709  28.981  13.936
24318W        W95934   9.370  15.648   4.948
24319W        W95935  41.343  26.053   2.862
24320W        W95936  37.048  27.936  10.402
24321W        W95937  39.955  38.954   0.373
24322W        W95938  15.180  19.298   9.990
24323W        W95939  10.555  34.456   3.296
24324W        W95940  17.289  18.619  14.371
24325W        W95941  29.365   3.164  10.713
24326W        W95942  25.485  34.459  11.700
24327W        W95943  25.675  22.147  12.016
24328W        W95944  33.502  10.125  13.421
24329W        W95945   3.297  10.601  11.694
24330W        W95946  10.162  12.155   3.367
24331W        W95947  21.669  41.031  11.743
24332W        W95948  43.974  25.112  12.353
24333W        W95949  19.928  40.954  13.053
24334W        W95950  37.067  25.468  14.858
24335W        W95951  25.114  30.655  11.520
24336W        W95952  43.757   2.848   1.460
24337W        W95953   0.806  30.153   2.396
24338W        W95954  38.419  37.529  14.393
24339W        W95955  14.228  10.029   3.281
24340W        W95956  28.201  14.579  10.184
24341W        W95957   7.753   0.815  13.473
24342W        W95958  41.058  13.101   4.521
24343W        W95959  31.113   3.888  10.667
24344W        W95960   4.900  24.936  12.628
24345W        W95961  43.167  17.627   0.850
24346W        W95962  27.436   8.760  12.415
24347W        W95963  15.614  17.629   2.014
24348W        W95964  41.508  43.983  11.639
24349W        W95965   7.457  18.260   0.776
24350W        W95966  16.935  11.386   0.095
24351W        W95967  26.090  20.843  12.546
24352W        W95968  29.662  30.847  11.455
24353W        W95969   1.296   4.694  11.218
24354W        W95970  23.752  27.075   4.069
24355W        W95971   6.949  39.579  12.444
24356W        W95972  41.939  23.324  11.055
24357W        W95973  28.220  14.327  13.565
24358W        W95974   9.795   0.797   4.936
24359W        W95975  16.828   5.857   1.349
24360W        W95976   3.415  43.766   4.189
24361W        W95977  29.055   1.499  11.072
24362W        W95978  34.872  35.138   4.387
24363W        W95979  20.644  10.726  11.140
24364W        W95980  24.628  19.173  13.020
24365W        W95981   0.040  35.439   1.803
24366W        W95982  36.749  10.597  14.758
24367W        W95983  31.464  35.390  12.140
24368W        W95984  41.692  43.357  11.032
24369W        W95985  11.381  36.514  11.210
24370W        W95986  12.653  29.997   0.316
24371W        W95987   7.874  28.547  11.873
24372W        W95988   4.134  28.823  11.627
24373W        W95989  44.509  43.569   4.580
24374W        W95990  28.999  28.808  10.710
24375W        W95991  16.655  30.437  12.958
24376W        W95992   4.531   1.823   5.065
24377W        W95993  38.522  28.975   2.946
24378W        W95994   6.293   1.760   4.146
24379W        W95995   9.394   6.736   2.914
24380W        W95996  38.403  23.961  10.961
24381W        W95997   7.708  39.791   4.637
24382W        W95998  42.782  32.955   3.652
24383W        W95999  14.298  17.103   3.739
24384W        W96000  21.659  35.019  14.935
24385W        W96001  16.416  40.333  10.748
24386W        W96002  38.951  21.182   0.924
24387W        W96003  43.298   7.936   2.393
24388W        W96004  26.256  12.315  11.199
24389W        W96005  38.107  11.322   0.599
24390W        W96006  16.618   5.188  14.139
24391W        W96007   3.783   6.919   0.445
24392W        W96008  43.944  18.867   0.808
24393W        W96009   8.176  10.609  10.651
24394W        W96010  40.094  35.303  13.358
24395W        W96011  41.211  11.330  13.904
24396W        W96012   2.981  12.115   2.403
24397W        W96013  33.622  26.627  14.731
24398W        W96014  32.420  23.540   1.376
24399W        W96015  25.504  21.183   3.098
24400W        W96016   9.281   3.376  14.748
24401W        W96017  32.915   3.847  13.335
24402W        W96018  28.144  22.204  14.249
24403W        W96019  44.230  14.585   0.847
24404W        W96020  37.046  32.604   2.479
24405W        W96021  22.956  28.436  11.241
24406W        W96022  25.938  37.003  11.559
24407W        W96023  33.527  13.269  14.285
24408W        W96024   7.292  10.707   1.943
24409W        W96025  17.750   9.265   4.359
24410W        W96026  25.105  39.288   4.148
24411W        W96027  44.311  13.772  11.543
24412W        W96028  36.583  22.186   0.759
24413W        W96029   7.822  28.176   4.258
24414W        W96030  40.273   3.822  14.987
24415W        W96031  25.146   2.358  14.580
24416W        W96032  24.281  17.886   1.316
24417W        W96033   2.358  19.464   3.352
24418W        W96034   4.285   5.613  14.504
24419W        W96035  40.308  35.952   1.953
24420W        W96036  44.717  37.603  11.502
24421W        W96037  12.858  34.042  13.549
24422W        W96038   5.435  19.179  12.479
24423W        W96039   3.412  31.394  11.585
24424W        W96040  15.015  18.710  11.175
24425W        W96041  34.944  15.096  14.482
24426W        W96042  29.958  37.148   1.068
24427W        W96043  15.750  20.920  14.906
24428W        W96044  43.417   1.468  14.490
24429W        W96045   3.819  28.942   3.111
24430W        W96046  40.000  26.131  11.979
24431W        W96047  18.576  10.222   2.233
24432W        W96048  32.237   9.242  13.431
24433W        W96049  33.273  42.272  11.418
24434W        W96050  37.021  31.119  14.239
24435W        W96051  13.114  39.910  11.997
24436W        W96052  11.345  24.756  14.988
24437W        W96053  20.035  44.905  12.256
24438W        W96054   7.474  35.807  13.775
24439W        W96055  15.794  31.561  11.631
24440W        W96056  10.215  17.477   2.278
24441W        W96057  44.026  29.383   1.784
24442W        W96058  43.038  41.574   3.164
24443W        W96059  33.005  13.816   2.195
24444W        W96060  32.991  41.091  13.921
24445W        W96061   4.997  20.829  10.358
24446W        W96062  33.449  23.406   3.038
24447W        W96063  32.660  43.439   4.463
24448W        W96064   0.227   4.216  11.127
24449W        W96065  34.148   1.842   1.917
24450W        W96066   2.788   0.308   2.918
24451W        W96067  15.966   5.502  11.461
24452W        W96068  35.609   1.498  13.778
24453W        W96069   5.670   3.810  11.865
24454W        W96070  36.571  34.876  13.731
24455W        W96071  33.348  11.817  12.669
24456W        W96072  19.168  30.508  12.046
24457W        W96073  38.270  39.362   4.095
24458W        W96074  42.960  16.654  12.304
24459W        W96075   1.683  15.529  10.458
24460W        W96076   1.766  32.056   4.129
24461W        W96077  41.286  37.455  13.098
24462W        W96078   7.409  23.721  14.040
24463W        W96079  31.710  16.322   1.766
24464W        W96080  38.310  15.250  10.653
24465W        W96081  24.264  16.454  14.794
24466W        W96082  44.291  41.819  13.515
24467W        W96083  18.576  14.140  11.940
24468W        W96084   0.075   4.980   3.662
24469W        W96085  22.122  22.200  11.075
24470W        W96086  20.745  15.159   1.702
24471W        W96087  16.820  38.334  13.548
24472W        W96088  32.881  20.296   4.734
24473W        W96089  29.101  16.076   4.622
24474W        W96090  16.050  27.425   3.488
24475W        W96091  16.632  19.509  12.383
24476W        W96092  30.397  10.114   1.731
24477W        W96093  26.535  16.265   0.937
24478W        W96094  17.338   2.228   2.503
24479W        W96095  29.233  25.550  11.888
24480W        W96096  11.697  12.346  10.380
24481W        W96097   2.790  37.652   1.812
24482W        W96098  32.551   5.024  13.549
24483W        W96099  27.026   1.805  11.997
24484W        W96100   8.843  14.206  13.388
24485W        W96101  20.747  34.968   3.141
24486W        W96102  15.531  26.518   3.660
24487W        W96103  31.404  16.004   1.302
24488W        W96104  28.343  30.916  12.851
24489W        W96105  43.787  19.019   2.257
24490W        W96106  31.722   4.223   0.998
24491W        W96107  41.026  27.217   1.390
24492W        W96108  23.674  30.006   2.190
24493W        W96109  18.614  35.025   3.370
24494W        W96110  32.982   7.999   0.006
24495W        W96111   6.207  44.073  11.107
24496W        W96112  21.306  25.187  14.817
24497W        W96113  26.099  43.351   1.205
24498W        W96114  37.467  14.809   1.659
24499W        W96115   3.476  27.393   4.901
24500W        W96116  15.539  16.832  13.485
24501W        W96117   5.004  25.099  11.954
24502W        W96118  40.423   0.261   3.285
24503W        W96119   4.764  10.896   3.730
24504W        W96120  20.658  20.559  13.410
24505W        W96121  19.104  43.773  14.699
24506W        W96122  41.686  23.045  14.523
24507W        W96123   8.390   8.251  10.936
24508W        W96124  30.288  41.778   1.510
24509W        W96125   4.847  25.738   0.846
24510W        W96126  37.495   7.132   3.314
24511W        W96127   5.496   2.854   4.147
24512W        W96128  29.405  28.749   1.208
24513W        W96129  10.883  14.712   4.802
24514W        W96130   4.217   5.835  10.605
24515W        W96131  32.666  29.961  11.156
24516W        W96132  22.270  19.119   0.093
24517W        W96133  16.235  24.535   1.950
24518W        W96134  41.440  23.392   2.262
24519W        W96135  44.440  29.199   0.458
24520W        W96136   1.708  23.105   3.114
24521W        W96137  24.229  41.582  12.550
24522W        W96138  29.909   4.352  13.389
24523W        W96139  34.981  40.403  14.645
24524W        W96140  27.622  11.576  13.877
24525W        W96141  13.389  12.148   0.684
24526W        W96142   9.416  30.598  13.350
24527W        W96143   7.509  35.048  14.305
24528W        W96144  27.034  34.011  12.383
24529W        W96145   2.943  37.935  14.077
24530W        W96146  41.894  25.929   0.739
24531W        W96147  35.062  29.366  11.059
24532W        W96148  15.315  32.396  12.849
24533W        W96149  10.853  13.014  13.027
24534W        W96150  29.324   7.531   1.175
24535W        W96151  33.020  26.556  11.488
24536W        W96152  29.132   1.758   4.613
24537W        W96153   9.061  25.676  13.399
24538W        W96154   8.735  33.458  13.066
24539W        W96155  15.833   2.804  13.034
24540W        W96156  30.466  11.675   0.044
24541W        W96157  21.143   0.785  14.795
24542W        W96158  24.344  18.668  13.045
24543W        W96159   1.885  24.801  12.104
24544W        W96160   6.382   3.448  12.974
24545W        W96161   8.946  18.453   4.106
24546W        W96162   9.663   3.322  14.374
24547W        W96163  40.533  24.605   0.348
24548W        W96164  29.018  17.659  11.921
24549W        W96165   5.804   4.515  12.383
24550W        W96166  40.800  28.466  13.583
24551W        W96167  21.879   6.073  11.604
24552W        W96168  33.527   5.186  10.237
24553W        W96169  16.105  43.483   0.867
24554W        W96170   5.283   1.964   1.372
24555W        W96171  42.756  12.720  12.378
24556W        W96172  44.321  40.557   2.463
24557W        W96173  30.091  20.197   3.150
24558W        W96174  33.403   5.716   4.151
24559W        W96175  12.237  33.531  12.384
24560W        W96176  24.124  16.581  14.294
24561W        W96177  17.078  30.831  12.485
24562W        W96178   7.897   8.099   4.867
24563W        W96179  22.107  41.479  11.032
24564W        W96180  24.760  33.140  12.393
24565W        W96181  43.901  43.812  12.391
24566W        W96182  43.515  26.576   3.685
24567W        W96183   9.119  29.537   0.258
24568W        W96184  31.909  44.201  14.157
24569W        W96185  26.043  28.282   2.830
24570W        W96186  36.004  32.432  14.040
24571W        W96187  40.055  41.021   0.927
24572W        W96188  22.608  32.879   4.686
24573W        W96189   8.907  38.544  11.951
24574W        W96190  16.436  32.639   0.919
24575W        W96191  16.558   6.343   2.329
24576W        W96192  42.386   3.542  12.524
24577W        W96193  21.247   1.867   4.216
24578W        W96194   2.269  17.133  14.280
24579W        W96195  14.163  41.457   0.437
24580W        W96196  28.647   8.310   2.275
24581W        W96197   7.454  28.646   3.668
24582W        W96198   5.221  19.175   1.728
24583W        W96199   9.194  20.567   2.336
24584W        W96200  13.631  25.438  11.146
24585W        W96201  18.204  19.990  13.404
24586W        W96202  37.598  23.108  13.309
24587W        W96203  43.042  24.255  13.411
24588W        W96204  18.817  18.899   1.674
24589W        W96205  19.808  18.275  10.568
24590W        W96206  42.542  25.483  10.629
24591W        W96207  23.540  25.725  12.979
24592W        W96208   0.441  26.890  11.050
24593W        W96209  18.138  12.434   0.873
24594W        W96210  31.907  24.601  12.932
24595W        W96211  30.867  36.940   4.386
24596W        W96212  35.639  27.624   3.644
24597W        W96213   6.225   8.464   0.675
24598W        W96214   9.904   5.867   1.988
24599W        W96215  43.738  23.068  14.902
24600W        W96216  44.837  15.194   4.156
24601W        W96217   7.900  42.418   2.390
24602W        W96218   5.042  12.185  13.376
24603W        W96219   6.520  33.799  11.204
24604W        W96220  16.815  12.166  12.164
24605W        W96221  18.761  17.338   1.705
24606W        W96222  32.426  22.557   1.884
24607W        W96223  15.330   8.963  14.017
24608W        W96224  16.859   2.887   4.256
24609W        W96225  40.518  41.814   0.853
24610W        W96226  17.307  16.930   2.763
24611W        W96227   4.889  14.330   3.693
24612W        W96228  43.868  38.982   0.875
24613W        W96229  28.601  36.319  11.043
24614W        W96230   7.951  43.997  11.965
24615W        W96231  38.570   0.656   3.065
24616W        W96232  27.737  16.636   4.613
24617W        W96233  11.455  18.658  10.676
24618W        W96234  30.540  21.767   4.503
24619W        W96235   7.753  19.297   4.598
24620W        W96236  11.700  34.962   2.205
24621W        W96237  18.063  38.094   1.037
24622W        W96238  44.309  44.525   0.926
24623W        W96239  39.387  41.747   4.374
24624W        W96240   2.379  22.831  14.123
24625W        W96241   5.118  41.141   0.990
24626W        W96242  17.593  22.647  13.814
24627W        W96243  29.566  11.401  14.845
24628W        W96244   1.786  31.170  14.805
24629W        W96245  27.432  42.040  14.707
24630W        W96246  20.014  14.385  12.372
24631W        W96247  31.388  42.497  13.946
24632W        W96248  37.949  43.421  13.076
24633W        W96249   7.074  14.429   2.367
24634W        W96250  29.989  28.850  10.269
24635W        W96251  11.173   1.513  12.310
24636W        W96252  34.401   2.662  14.542
24637W        W96253  23.242  30.876   2.334
24638W        W96254  30.187  27.691   5.229
24639W        W96255  12.890  30.051   1.775
24640W        W96256  17.482   5.308  12.533
24641W        W96257  26.857  42.840  14.400
24642W        W96258  16.049  30.940  10.459
24643W        W96259  42.777  39.379  10.850
24644W        W96260  28.436  18.060  10.355
24645W        W96261  42.265   2.247  12.092
24646W        W96262  29.123  27.013   2.729
24647W        W96263  30.161  13.618   4.112
24648W        W96264  37.232  37.244  11.440
24649W        W96265  36.590  19.632   0.823
24650W        W96266  15.239   0.940   1.267
24651W        W96267  13.368  37.922   2.848
24652W        W96268   4.708  37.886  13.064
24653W        W96269   8.157  23.973   1.890
24654W        W96270  28.934   4.207  13.696
24655W        W96271  42.538   7.408  13.934
24656W        W96272  13.803  27.823   2.724
24657W        W96273  36.354  17.466   2.352
24658W        W96274   5.932   3.804   4.153
24659W        W96275  40.806   7.868   3.328
24660W        W96276  42.545  12.925   0.820
24661W        W96277  26.038  12.637  14.940
24662W        W96278   5.259  15.613   1.863
24663W        W96279   5.174  32.003  14.340
24664W        W96280  28.924  29.660   1.282
24665W        W96281  20.038   9.342  12.915
24666W        W96282  23.738  28.446   1.763
24667W        W96283  17.627   8.185  12.138
24668W        W96284  23.623  17.607   3.056
24669W        W96285  14.148  20.565  14.783
24670W        W96286   0.022  23.664   3.895
24671W        W96287   8.130  12.873   1.747
24672W        W96288  26.926  42.352   3.830
24673W        W96289  44.373  17.478   3.757
24674W        W96290  15.408   4.929   4.572
24675W        W96291  13.071  32.537   4.125
24676W        W96292   0.395  18.104  12.927
24677W        W96293  36.456  41.269  10.160
24678W        W96294  37.419  43.200  12.999
24679W        W96295  19.080  34.562  12.613
24680W        W96296  41.869  21.024   2.668
24681W        W96297   7.760  36.811   2.205
24682W        W96298  12.398  44.752   4.661
24683W        W96299  29.435  12.308   2.407
24684W        W96300  34.839  44.034   4.758
24685W        W96301  19.812  36.800  11.163
24686W        W96302  19.596  41.747  14.073
24687W        W96303   6.817  10.364   2.606
24688W        W96304  38.889  21.208   3.544
24689W        W96305  19.525  27.995   1.871
24690W        W96306  40.584   6.191  13.151
24691W        W96307  43.565  26.126   2.410
24692W        W96308  17.295  13.615   3.266
24693W        W96309  20.065  32.973  14.759
24694W        W96310  28.088   6.334  10.736
24695W        W96311   7.224  19.732  13.099
24696W        W96312  40.463  24.778   3.609
24697W        W96313  32.402  30.881  14.848
24698W        W96314  31.978  12.603   2.688
24699W        W96315   5.937  12.303   4.625
24700W        W96316   4.311  38.368   4.186
24701W        W96317  35.048   8.656  14.371
24702W        W96318   1.296  15.566   1.487
24703W        W96319  21.266  22.617   3.636
24704W        W96320  30.892  42.703   1.889
24705W        W96321  28.532  19.709  13.139
24706W        W96322  15.574  36.375   5.069
24707W        W96323  24.557  40.186  14.883
24708W        W96324  34.676  26.648  11.140
24709W        W96325  28.674  30.644  14.545
24710W        W96326  13.187  18.474  10.904
24711W        W96327   5.783  22.967   0.008
24712W        W96328   7.800   4.693   3.577
24713W        W96329  14.391  11.709  12.611
24714W        W96330  19.409  25.640   3.216
24715W        W96331  17.258  38.055   4.009
24716W        W96332  10.335  41.513  12.322
24717W        W96333  22.663  42.304  11.960
24718W        W96334  27.525  33.336   3.201
24719W        W96335   5.982  12.787   3.437
24720W        W96336  22.075  36.452  14.538
24721W        W96337  35.061   5.684  12.959
24722W        W96338  34.078  36.048   4.558
24723W        W96339   1.764   0.456   4.096
24724W        W96340   5.372  32.936   4.468
24725W        W96341  26.975   5.284   0.190
24726W        W96342  12.217   1.329  10.514
24727W        W96343  16.949  37.578  11.052
24728W        W96344  10.125  28.626  12.538
24729W        W96345  37.615  34.639  12.838
24730W        W96346   1.656  23.990   4.006
24731W        W96347   8.239  40.770   2.678
24732W        W96348  33.506  29.579  10.235
24733W        W96349  43.050   6.168   1.318
24734W        W96350  11.270  42.918   1.749
24735W        W96351  30.333  31.080  13.177
24736W        W96352  38.501  40.829   3.793
24737W        W96353   3.981  33.520   3.965
24738W        W96354  21.332   2.255   3.200
24739W        W96355  16.270  22.526   2.788
24740W        W96356  33.993  28.526   2.695
24741W        W96357  28.372  30.152  12.947
24742W        W96358  43.155  17.671  13.121
24743W        W96359  15.705  31.353   4.361
24744W        W96360  21.248  25.031   0.756
24745W        W96361  34.964  29.798   2.874
24746W        W96362  44.707  10.838   3.359
24747W        W96363   9.896  13.178   4.361
24748W        W96364   7.669  37.005   4.063
24749W        W96365  19.111  31.855   0.132
24750W        W96366  35.246  24.971   4.598
24751W        W96367  28.859  24.242   1.814
24752W        W96368  25.110  14.723   4.572
24753W        W96369  23.197   3.858   0.741
24754W        W96370  36.377  21.524  11.064
24755W        W96371   6.949  40.370   4.214
24756W        W96372   8.206   5.390  13.550
24757W        W96373  16.641  16.155   4.593
24758W        W96374  19.233  42.928  13.260
24759W        W96375  41.859  16.070   1.193
24760W        W96376  15.764  13.935   4.912
24761W        W96377  17.356   1.287  13.445
24762W        W96378   8.901  17.036   4.783
24763W        W96379  13.212  23.611  11.105
24764W        W96380  26.389   0.307  12.027
24765W        W96381  29.444  22.226  10.407
24766W        W96382  38.294   9.317  11.497
24767W        W96383  42.517   0.882  12.810
24768W        W96384  36.264  15.704  11.536
24769W        W96385  38.820  23.718  14.978
24770W        W96386  16.003  13.624   0.023
24771W        W96387  37.590  30.357  13.346
24772W        W96388  15.750  14.275  14.033
24773W        W96389  21.164  11.246   4.121
24774W        W96390  20.443  14.266  10.957
24775W        W96391   2.859  36.010   0.904
24776W        W96392  38.021  20.530  11.707
24777W        W96393  41.323  35.570   2.898
24778W        W96394  14.676   9.137   1.532
24779W        W96395  27.401  38.654  12.077
24780W        W96396  20.242  27.519  14.011
24781W        W96397  15.825  20.197   2.888
24782W        W96398  32.996  12.078   0.760
24783W        W96399  35.386  38.842  10.733
24784W        W96400  42.091  18.293  14.430
24785W        W96401  11.102  25.896   1.763
24786W        W96402  35.102  12.230   1.354
24787W        W96403   6.003  39.831   3.086
24788W        W96404  33.530  24.141  10.932
24789W        W96405  38.816  28.175  11.607
24790W        W96406   4.853   1.557   4.222
24791W        W96407  15.003  41.484   0.422
24792W        W96408   2.539  19.793  10.710
24793W        W96409  39.872   6.852   4.278
24794W        W96410   3.335  41.017  12.381
24795W        W96411  26.107  11.069  11.676
24796W        W96412   5.573  27.047   3.358
24797W        W96413  42.821   3.457   2.785
24798W        W96414  32.430   7.440   2.864
24799W        W96415  43.035  17.875   1.876
24800W        W96416   6.928  43.702   3.226
24801W        W96417  17.857  41.541  11.120
24802W        W96418  12.583   4.749   0.888
24803W        W96419  26.254   7.805  13.451
24804W        W96420  14.330  29.441  10.599
24805W        W96421  26.708  25.992  14.339
24806W        W96422  31.922  43.382  11.004
24807W        W96423  29.000   0.084  14.347
24808W        W96424   1.362  24.187   1.410
24809W        W96425  44.045  23.992  13.398
24810W        W96426  29.175  43.290   3.814
24811W        W96427  11.353   2.297   3.638
24812W        W96428  39.403  43.461   3.698
24813W        W96429  37.137  27.741   3.227
24814W        W96430  16.702  26.555  12.927
24815W        W96431  12.239  27.519  11.119
24816W        W96432  14.891  32.691  12.866
24817W        W96433  26.383  42.970   2.109
24818W        W96434   6.462   3.938  14.760
24819W        W96435  10.289   5.912  12.483
24820W        W96436   5.910   8.609  11.236
24821W        W96437  13.664  14.218  14.879
24822W        W96438  25.881  13.679   0.810
24823W        W96439  34.571  18.667  13.372
24824W        W96440  26.252  35.601   1.450
24825W        W96441  37.335  27.603   2.142
24826W        W96442  20.816   5.270   1.419
24827W        W96443  21.978  25.718  14.278
24828W        W96444  32.008  33.821  12.549
24829W        W96445  24.001  27.449  14.338
24830W        W96446  28.169  10.915   0.420
24831W        W96447  22.735  40.992  10.662
24832W        W96448  37.986  28.060   3.834
24833W        W96449  20.584  17.772   0.774
24834W        W96450  38.282  27.693   4.092
24835W        W96451  31.527   2.344  10.116
24836W        W96452   0.965   2.814   4.634
24837W        W96453  12.746   5.321   3.559
24838W        W96454  29.439  34.535   2.403
24839W        W96455   0.780   3.364  14.561
24840W        W96456  34.213  13.283  11.985
24841W        W96457  10.176   6.487  11.085
24842W        W96458   2.170  21.483   3.184
24843W        W96459  29.501  11.268  13.863
24844W        W96460   8.727   6.900   4.133
24845W        W96461  44.059  12.211   0.255
24846W        W96462   2.859   5.839   4.317
24847W        W96463  36.149   6.488  14.512
24848W        W96464  41.874  44.732  12.564
24849W        W96465   1.837   7.355  11.768
24850W        W96466  13.581  14.152   1.393
24851W        W96467  19.659  16.505   1.688
24852W        W96468  24.973  25.736  12.128
24853W        W96469   9.274  10.380  12.389
24854W        W96470   2.324  29.606  10.725
24855W        W96471  41.553  26.896   4.172
24856W        W96472  28.809  39.629   0.128
24857W        W96473  11.176  15.302   3.663
24858W        W96474  16.295  42.454  14.951
24859W        W96475  17.621  29.513  13.042
24860W        W96476   3.302  44.592  11.902
24861W        W96477  10.807  30.557  12.834
24862W        W96478   5.851  27.687   1.398
24863W        W96479  26.566  39.525   3.261
24864W        W96480  43.489  18.053   4.725
24865W        W96481  29.019  34.068  11.203
24866W        W96482   9.622   7.741  11.160
24867W        W96483  31.224  15.796  11.145
24868W        W96484   7.913   5.411  11.612
24869W        W96485  35.274   1.335  11.118
24870W        W96486  28.978  42.711  13.025
24871W        W96487  27.498  33.516  13.464
24872W        W96488  36.431  16.265  12.669
24873W        W96489  33.377  28.155  12.841
24874W        W96490  24.530  25.104   1.264
24875W        W96491  41.416  37.171  10.645
24876W        W96492  13.509  39.334  12.801
24877W        W96493   0.980  17.769   2.824
24878W        W96494   8.630  19.138   2.460
24879W        W96495   6.786  30.990  14.857
24880W        W96496  36.044  28.567   2.438
24881W        W96497  31.052  37.278  10.740
24882W        W96498  23.972  33.797  11.087
24883W        W96499  37.618   4.391   2.710
24884W        W96500  38.050  38.325  14.058
24885W        W96501  27.578   0.967   4.610
24886W        W96502   1.476  11.780  12.885
24887W        W96503   0.957  32.035   3.750
24888W        W96504   5.724  14.917  11.057
24889W        W96505  30.726  31.606   3.249
24890W        W96506  30.914  42.437  12.666
24891W        W96507   1.109  37.536   2.435
24892W        W96508  33.079  27.452  11.637
24893W        W96509   8.185  34.002  10.679
24894W        W96510   0.264   1.408   2.952
24895W        W96511  13.715  11.481  11.226
24896W        W96512  35.572  10.287  12.498
24897W        W96513  16.190  31.124   4.318
24898W        W96514   3.091  19.253  13.655
24899W        W96515  24.788  44.892  11.187
24900W        W96516  16.817  42.996  14.489
24901W        W96517  24.305  41.375   1.625
24902W        W96518  11.633   1.913  14.895
24903W        W96519  14.652  37.828   0.440
24904W        W96520  32.164  37.870  13.479
24905W        W96521  33.654  18.978  12.508
24906W        W96522  39.076   8.831  12.475
24907W        W96523  40.061  26.007   0.439
24908W        W96524   8.861  41.511  14.434
24909W        W96525  36.465   6.696   1.735
24910W        W96526  36.297  39.819   3.203
24911W        W96527  34.186  38.144  11.120
24912W        W96528  15.963  27.075  10.216
24913W        W96529   4.049  37.325  14.745
24914W        W96530  20.699  22.779   2.641
24915W        W96531   0.058  37.356   5.279
24916W        W96532  40.923  14.555   1.951
24917W        W96533  19.044   2.299   4.799
24918W        W96534  23.267  27.160  11.452
24919W        W96535  41.512  22.091   3.257
24920W        W96536  36.173  27.127  13.028
24921W        W96537  28.091  34.054   3.425
24922W        W96538  17.198  33.017   4.572
24923W        W96539  32.944   0.261  10.301
24924W        W96540  36.915  36.810   2.306
24925W        W96541  36.448  40.044   4.612
24926W        W96542  24.961   8.578  10.730
24927W        W96543  11.318  42.516   0.900
24928W        W96544  33.488  41.834   1.737
24929W        W96545  30.863  29.418  11.243
24930W        W96546   3.433   7.343  13.863
24931W        W96547  33.930  14.101  11.663
24932W        W96548  13.079  16.421  13.570
24933W        W96549   9.950  31.400  11.184
24934W        W96550  21.610  17.839  12.366
24935W        W96551  12.608  34.838  13.936
24936W        W96552  17.134  40.805   2.813
24937W        W96553  22.368  36.386  10.596
24938W        W96554  29.932  42.037   2.471
24939W        W96555  20.505  29.005  11.977
24940W        W96556  26.092  37.997  11.867
24941W        W96557  41.060  21.501   1.523
24942W        W96558   7.275  42.964  11.633
24943W        W96559  24.935  40.068  12.675
24944W        W96560  40.642  34.974   3.705
24945W        W96561   3.281  37.520   1.842
24946W        W96562  27.945   3.892  10.699
24947W        W96563  29.364  16.682  14.493
24948W        W96564   7.377  22.047   2.824
24949W        W96565  40.360  43.074   3.768
24950W        W96566  35.531  37.118  13.468
24951W        W96567   5.539  14.664  12.839
24952W        W96568  19.588  12.035   5.067
24953W        W96569  41.250   9.142   0.962
24954W        W96570  14.810  24.009  10.377
24955W        W96571   7.464  24.266   1.273
24956W        W96572  25.973  15.816   4.900
24957W        W96573  24.251   6.125   1.250
24958W        W96574   7.699  15.202  11.567
24959W        W96575   0.693  33.947  13.073
24960W        W96576  31.971   6.810   2.428
24961W        W96577  29.158   0.517   1.256
24962W        W96578   3.108  35.811  12.868
24963W        W96579  29.213  30.674   2.837
24964W        W96580  14.754  28.366  13.012
24965W        W96581   4.674  35.314   2.740
24966W        W96582  13.778  40.866   3.420
24967W        W96583  36.424  35.774   2.681
24968W        W96584  14.070  39.305   2.709
24969W        W96585  25.567  22.507   3.404
24970W        W96586  11.585  26.827   5.176
24971W        W96587  33.499  16.364   1.633
24972W        W96588  44.426  11.992  11.742
24973W        W96589  22.552  14.172   4.536
24974W        W96590  19.865  14.714  13.445
24975W        W96591  19.061  20.145  10.609
24976W        W96592  31.960   8.244   1.680
24977W        W96593   4.022   7.097   2.724
24978W        W96594  26.528  17.554  12.971
24979W        W96595  10.135  27.185  12.403
24980W        W96596  34.603  11.174  14.458
24981W        W96597  33.030  19.763   2.734
24982W        W96598   6.794  27.705   4.239
24983W        W96599  38.878  15.260   4.805
24984W        W96600  39.011  36.951   4.108
24985W        W96601  18.838  35.868   3.722
24986W        W96602  37.524  15.051  13.553
24987W        W96603  29.694   2.740  14.817
24988W        W96604  16.292   0.538   0.916
24989W        W96605  13.949  30.010   1.859
24990W        W96606   9.994  42.764   3.226
24991W        W96607  36.774   2.214  13.475
24992W        W96608   0.509  38.666   3.212
24993W        W96609  10.222   9.665   4.220
24994W        W96610  44.706   7.777   1.368
24995W        W96611  37.137  13.334   4.861
24996W        W96612  26.105  32.653   4.586
24997W        W96613  11.235  42.988   0.170
24998W        W96614  38.134  33.870  10.676
24999W        W96615  37.193  40.955   1.754
25000W        W96616  20.519   3.936   0.036
25001W        W96617  24.730  17.713  14.682
25002W        W96618  17.840  20.471  12.799
25003W        W96619  39.437  36.498   0.401
25004W        W96620  12.928  14.819   2.137
25005W        W96621  19.262  18.574  11.176
25006W        W96622  21.653  37.138   1.769
25007W        W96623  39.552  20.019  12.015
25008W        W96624  19.582  26.100  13.059
25009W        W96625  43.331  44.218  13.918
25010W        W96626  10.253  23.424  14.805
25011W        W96627  33.438  43.210  14.397
25012W        W96628  28.405  32.868  11.362
25013W        W96629  16.793  37.620  14.876
25014W        W96630  26.094  16.132  11.629
25015W        W96631   8.561  20.195   1.717
25016W        W96632  10.346  36.403  14.674
25017W        W96633  29.678  13.891   3.625
25018W        W96634  23.982   7.386   4.920
25019W        W96635  41.782  30.181  14.546
25020W        W96636   3.679  10.601   4.129
25021W        W96637   0.521  30.618  13.209
25022W        W96638  20.612  30.238  11.582
25023W        W96639  31.634  30.228  12.648
25024W        W96640   8.094  24.201  12.844
25025W        W96641  41.090  29.694   5.084
25026W        W96642   6.896   3.263   1.401
25027W        W96643  23.095  44.928   2.523
25028W        W96644  25.670  19.325  13.543
25029W        W96645  13.766   6.253   3.898
25030W        W96646  18.245   9.129  13.390
25031W        W96647   6.742  20.932  12.471
25032W        W96648  44.285  29.806  12.008
25033W        W96649  35.929  43.430  12.912
25034W        W96650  37.579  10.811  11.703
25035W        W96651  37.892  32.543   2.487
25036W        W96652  26.707  14.122   4.718
25037W        W96653  23.082  29.160   4.924
25038W        W96654  32.482  42.053   1.760
25039W        W96655  17.164  36.123  11.606
25040W        W96656  33.533  24.131   4.732
25041W        W96657  14.862  17.758   0.884
25042W        W96658  11.311  38.537  13.899
25043W        W96659  15.859   3.330  10.599
25044W        W96660  43.086  27.655   0.873
25045W        W96661  42.383  22.993   3.295
25046W        W96662   2.346  27.990   3.181
25047W        W96663  28.193   5.491   3.651
25048W        W96664  31.539  18.483  12.468
25049W        W96665  41.807  21.660  13.447
25050W        W96666  24.575  15.790  12.837
25051W        W96667  40.987  34.177   4.139
25052W        W96668  23.568   9.920   4.934
25053W        W96669  26.548  16.720   0.677
25054W        W96670   1.625  14.094  12.322
25055W        W96671  13.399  37.521  12.849
25056W        W96672  26.049  30.944  11.113
25057W        W96673  28.680  32.493  12.574
25058W        W96674  32.016  13.151  13.852
25059W        W96675  15.165  15.640   2.828
25060W        W96676  26.840  29.847  12.050
25061W        W96677  33.936  28.222  11.127
25062W        W96678  11.262   2.951  12.803
25063W        W96679  31.716  10.342   4.350
25064W        W96680  25.754  19.227   3.352
25065W        W96681  28.122   1.699  12.976
25066W        W96682  28.110   8.199   2.222
25067W        W96683  14.927  32.673   2.415
25068W        W96684  13.270   2.336  14.309
25069W        W96685  44.441   2.458   0.484
25070W        W96686  40.012   6.342  14.473
25071W        W96687  20.920  42.008  12.463
25072W        W96688  29.481  11.793   0.162
25073W        W96689  14.262  35.017  12.088
25074W        W96690  34.026  33.214   0.205
25075W        W96691  28.741  10.902   4.171
25076W        W96692   1.991  41.984   0.256
25077W        W96693  16.152  11.279   3.739
25078W        W96694   9.848  14.900  10.658
25079W        W96695   7.385  33.083  12.969
25080W        W96696  38.057  28.990   2.221
25081W        W96697  34.857  44.014   0.160
25082W        W96698  13.209  38.933   2.628
25083W        W96699  42.789  15.147  14.542
25084W        W96700  24.575   7.831   2.330
25085W        W96701  34.091   7.916   0.399
25086W        W96702  31.472   4.618  12.428
25087W        W96703   1.797  33.456  14.062
25088W        W96704  14.821  20.121  14.382
25089W        W96705  36.344  13.347  10.279
25090W        W96706  41.380   9.677   1.853
25091W        W96707  39.001  19.788   3.348
25092W        W96708  25.220  28.576   3.396
25093W        W96709  28.037  41.181  10.678
25094W        W96710  38.381  44.180  10.982
25095W        W96711  41.939  42.855  11.685
25096W        W96712  43.956  32.081  14.345
25097W        W96713  32.688  14.329  11.116
25098W        W96714  13.338   4.160  10.364
25099W        W96715  43.918  22.147   1.130
25100W        W96716  15.340  44.809  12.088
25101W        W96717  33.054  37.826  14.722
25102W        W96718  15.476  31.185  13.820
25103W        W96719  16.811  11.273   1.293
25104W        W96720  20.086  30.403  11.610
25105W        W96721   9.707  28.192  11.727
25106W        W96722  42.765  40.562   1.475
25107W        W96723  37.861  12.749  13.399
25108W        W96724   5.392  44.478   2.472
25109W        W96725  29.672  19.063   1.408
25110W        W96726  32.475  15.396  12.970
25111W        W96727   1.513  21.798   0.447
25112W        W96728  40.070   8.806  12.406
25113W        W96729   0.767  36.962   9.861
25114W        W96730   9.765  14.758   2.440
25115W        W96731  23.501  14.730   1.051
25116W        W96732  13.454   1.611  11.630
25117W        W96733  17.588  30.115  10.547
25118W        W96734   2.870  34.777  11.473
25119W        W96735  28.047   1.890  10.265
25120W        W96736  27.540  37.679   0.313
25121W        W96737  44.828  43.023  13.764
25122W        W96738  28.051   5.314   4.109
25123W        W96739  41.776  17.540   0.911
25124W        W96740  29.512  35.817  14.771
25125W        W96741  13.105  42.599  12.050
25126W        W96742  22.531  40.063  13.383
25127W        W96743  16.093  13.850   2.111
25128W        W96744  14.147  33.244  13.972
25129W        W96745  32.407  33.609   2.326
25130W        W96746  21.217  32.732   1.697
25131W        W96747  43.641  23.566   1.732
25132W        W96748  24.011  35.648  14.179
25133W        W96749  37.758   3.967  13.402
25134W        W96750  37.407  43.363  14.987
25135W        W96751  15.535   9.848   1.194
25136W        W96752  26.158  10.099  10.707
25137W        W96753  12.372   7.661   0.286
25138W        W96754   3.678   1.430   2.713
25139W        W96755   5.041  12.367   4.935
25140W        W96756  29.989  13.534  14.939
25141W        W96757  38.096   7.647  10.674
25142W        W96758  34.852  35.349   1.116
25143W        W96759  11.228  42.292  11.413
25144W        W96760  37.472  25.925   3.506
25145W        W96761  22.189  14.285  12.679
25146W        W96762  24.600  36.306  10.943
25147W        W96763   3.797  11.306   0.518
25148W        W96764   1.639  40.861   1.426
25149W        W96765  37.208  35.815  12.606
25150W        W96766  14.139  32.096   4.819
25151W        W96767  43.260   9.172   3.673
25152W        W96768  37.197  10.150  12.203
25153W        W96769  38.825   7.292  14.339
25154W        W96770   3.348  44.064  11.953
25155W        W96771   3.463  18.900   0.843
25156W        W96772  35.974   9.923  10.366
25157W        W96773  29.113  14.514   3.628
25158W        W96774  11.184   1.437   3.141
25159W        W96775  14.099  19.221   4.375
25160W        W96776  40.226  34.446   0.015
25161W        W96777   9.211  41.417   1.905
25162W        W96778  35.507  32.093  12.076
25163W        W96779   5.252  10.104  13.822
25164W        W96780  20.528   1.545  12.557
25165W        W96781   0.708  44.879  11.931
25166W        W96782  18.604   0.024  12.026
25167W        W96783  42.310  38.645  13.822
25168W        W96784  33.596   3.334  14.358
25169W        W96785  21.520  16.607   2.070
25170W        W96786  18.015  35.964   1.342
25171W        W96787  24.950   3.738   2.938
25172W        W96788  32.145  44.727   1.456
25173W        W96789  36.202  17.102  12.155
25174W        W96790  32.933  35.372  13.473
25175W        W96791  40.153  36.828  10.746
25176W        W96792  30.885  36.344  14.371
25177W        W96793  10.923  13.803   0.857
25178W        W96794  24.243   4.169   1.334
25179W        W96795  17.747  22.203  14.027
25180W        W96796  44.444  32.074   0.548
25181W        W96797  34.001  17.777  11.645
25182W        W96798  38.720  35.003   0.840
25183W        W96799   6.930  24.681   3.823
25184W        W96800  15.659   0.898   3.173
25185W        W96801   8.359  31.365   0.326
25186W        W96802  23.531  27.202  13.067
25187W        W96803  41.678   4.227  11.432
25188W        W96804  26.164  34.887  12.433
25189W        W96805  24.057  26.626  13.847
25190W        W96806  31.287  20.109   0.758
25191W        W96807  35.667  28.640   0.843
25192W        W96808  24.903  23.725   4.924
25193W        W96809   8.939  23.548   2.200
25194W        W96810  39.830  14.426  12.173
25195W        W96811   2.573  35.028   0.449
25196W        W96812   3.471  11.825   2.391
25197W        W96813  19.170  17.236  14.397
25198W        W96814  30.705   3.663  13.523
25199W        W96815  27.991  17.019   2.153
25200W        W96816  36.077  26.861   4.015
25201W        W96817  15.149   7.384   0.276
25202W        W96818  26.794  35.997  11.453
25203W        W96819  16.299   5.868   1.424
25204W        W96820  27.595  16.064  11.022
25205W        W96821  37.238  34.472  11.979
25206W        W96822  34.437  28.275   2.318
25207W        W96823  37.051   8.859  13.408
25208W        W96824  31.126  17.549  11.565
25209W        W96825  23.445  17.790   2.623
25210W        W96826   1.841  30.387   1.686
25211W        W96827  37.535  12.419  10.933
25212W        W96828  36.184  40.210  13.877
25213W        W96829  44.716  39.334   4.546
25214W        W96830   6.166  33.089   0.802
25215W        W96831  41.025  26.933  10.891
25216W        W96832  39.829  14.677  13.484
25217W        W96833   8.705  13.603   4.825
25218W        W96834   0.112  30.967   0.321
25219W        W96835  22.500  22.446   4.211
25220W        W96836  41.408  15.686   4.566
25221W        W96837  32.019  39.320  12.565
25222W        W96838   9.836  43.784   3.797
25223W        W96839  19.977   1.348   4.357
25224W        W96840   4.172  44.902   4.594
25225W        W96841  40.043  33.453   1.039
25226W        W96842   7.542  39.913   3.640
25227W        W96843   2.408  22.201   0.421
25228W        W96844  42.976   2.359  10.700
25229W        W96845  34.020  28.196   0.654
25230W        W96846  27.189   4.463  14.486
25231W        W96847  17.662   7.687  14.026
25232W        W96848  26.689  22.285   2.245
25233W        W96849  33.792   3.644   1.892
25234W        W96850   8.800   8.626   1.251
25235W        W96851  14.577  37.518   1.962
25236W        W96852  16.105  36.434   4.699
25237W        W96853  40.003  28.203  12.135
25238W        W96854  39.541  25.784   4.192
25239W        W96855  15.346  43.322  11.463
25240W        W96856  22.902  31.428   0.561
25241W        W96857  35.907  30.225   2.150
25242W        W96858   2.522   5.451  14.375
25243W        W96859  32.564  22.632   2.932
25244W        W96860   2.813   7.400   0.477
25245W        W96861  21.287   7.796   2.784
25246W        W96862   1.315   9.698   4.602
25247W        W96863  40.903  21.811   2.519
25248W        W96864  23.111  34.853  12.449
25249W        W96865  34.887   1.290   1.893
25250W        W96866  16.353  10.297  13.928
25251W        W96867  27.204  25.412   4.199
25252W        W96868  40.915  30.183  12.086
25253W        W96869  19.979  35.993   4.765
25254W        W96870  26.054  17.779  11.578
25255W        W96871  15.845  11.707   1.191
25256W        W96872  21.937   7.374   2.800
25257W        W96873  43.533  41.475   3.292
25258W        W96874   2.931  12.218   4.467
25259W        W96875   7.822  32.601   2.771
25260W        W96876  44.606   3.913  12.858
25261W        W96877  26.729   1.897  11.608
25262W        W96878  30.781  23.268   0.414
25263W        W96879  22.461  24.197   3.012
25264W        W96880   0.212   7.564   2.247
25265W        W96881  32.069  32.890   2.865
25266W        W96882   7.805  31.170  13.813
25267W        W96883  30.007   1.382  11.283
25268W        W96884   8.404  12.461   1.863
25269W        W96885   0.676  36.549  14.530
25270W        W96886  25.677  12.668   1.949
25271W        W96887  26.928  29.412   0.494
25272W        W96888   5.467   0.258  12.032
25273W        W96889   6.220  38.691   4.975
25274W        W96890  16.605  33.654  14.813
25275W        W96891  17.162  15.104   0.545
25276W        W96892  38.502  34.074  13.045
25277W        W96893  40.955  28.966   0.353
25278W        W96894   0.779   9.214  11.557
25279W        W96895  10.900  36.922  11.996
25280W        W96896  17.532  19.207   3.456
25281W        W96897   8.741   0.979  14.480
25282W        W96898  36.860   0.882   4.098
25283W        W96899  36.988  10.277   2.042
25284W        W96900  32.081  16.089  12.052
25285W        W96901  29.341  35.988   1.789
25286W        W96902   5.345  36.966  10.923
25287W        W96903   2.421  25.632  13.033
25288W        W96904  27.397  36.403   3.646
25289W        W96905  32.556   8.788   0.739
25290W        W96906   6.121   1.808  11.621
25291W        W96907  15.729   4.875   5.010
25292W        W96908   8.651  33.994   3.689
25293W        W96909  20.020  10.527  14.128
25294W        W96910   3.955  34.019  13.452
25295W        W96911  30.007  20.201   4.727
25296W        W96912  25.671  43.479  13.781
25297W        W96913  11.133  21.065   0.441
25298W        W96914  31.928  23.638   1.061
25299W        W96915  43.226   9.237  13.070
25300W        W96916  31.687  29.739  14.474
25301W        W96917   5.015  37.702   5.009
25302W        W96918  37.984  26.631  14.319
25303W        W96919  17.106  38.529  10.477
25304W        W96920  36.060   5.694   0.628
25305W        W96921  28.428  24.696  11.597
25306W        W96922  24.845  16.177  13.072
25307W        W96923  40.338  31.147   2.724
25308W        W96924   0.951  28.714   2.121
25309W        W96925  35.028  13.743  10.544
25310W        W96926  42.743  23.268  12.599
25311W        W96927   8.353   7.810   4.923
25312W        W96928  19.076  19.216  13.924
25313W        W96929  36.629  30.775  11.475
25314W        W96930  23.044  14.211   2.699
25315W        W96931  28.228  44.826  14.058
25316W        W96932  29.681  18.151  10.338
25317W        W96933  40.249  34.997   1.688
25318W        W96934  15.372  17.516   2.850
25319W        W96935   8.917  37.004  12.714
25320W        W96936  13.170  38.829  13.059
25321W        W96937  25.584   2.746   2.443
25322W        W96938  36.482   2.045  12.583
25323W        W96939  41.588  27.892  11.913
25324W        W96940   0.804  41.459   0.290
25325W        W96941  35.867   9.766   0.269
25326W        W96942  13.889  27.230  11.966
25327W        W96943  33.121   3.678  13.979
25328W        W96944  10.817  25.686  13.062
25329W        W96945  29.731  27.774  11.500
25330W        W96946  43.525  26.898  12.640
25331W        W96947  19.817  32.412  14.812
25332W        W96948  29.023   4.261  14.939
25333W        W96949   3.280  43.504   2.790
25334W        W96950  43.503   7.726   3.959
25335W        W96951   4.368  17.087   3.757
25336W        W96952  23.529  10.770   2.435
25337W        W96953  13.149  13.535  13.591
25338W        W96954  37.953  35.163  13.614
25339W        W96955  42.761  10.613   3.247
25340W        W96956  32.089  44.066   4.570
25341W        W96957   1.467   1.944   3.291
25342W        W96958  31.868  25.967   0.440
25343W        W96959  18.205  14.607  12.407
25344W        W96960  26.944  14.146  11.447
25345W        W96961   6.491  35.964  13.970
25346W        W96962  19.131   5.666  10.728
25347W        W96963  26.932  40.303   0.384
25348W        W96964  20.370  37.624  12.933
25349W        W96965  14.605  19.626  13.051
25350W        W96966  40.077  16.663  14.213
25351W        W96967  19.609   7.813  12.525
25352W        W96968   6.367  13.393   2.777
25353W        W96969  15.864  12.178   0.923
25354W        W96970  16.721  42.406  13.445
25355W        W96971  35.578  34.540   0.485
25356W        W96972  33.291  24.058  14.359
25357W        W96973  15.613  12.390   5.067
25358W        W96974  22.481  15.330   1.381
25359W        W96975  12.009   8.139   4.151
25360W        W96976  39.937  12.948   2.234
25361W        W96977  17.608  41.988  11.239
25362W        W96978  30.191   5.968   1.215
25363W        W96979   4.278  22.397   3.303
25364W        W96980  39.576   7.284   2.179
25365W        W96981  16.791   2.908  12.129
25366W        W96982  25.104  23.255   4.702
25367W        W96983  32.636  18.747  10.492
25368W        W96984  34.352  41.429   0.742
25369W        W96985  29.539   5.050   3.759
25370W        W96986  37.011  26.502  10.479
25371W        W96987   9.319   1.749   2.566
25372W        W96988   7.818  20.436   0.517
25373W        W96989  28.386  23.654  14.739
25374W        W96990  20.025  13.068   4.269
25375W        W96991  38.228  35.019   0.689
25376W        W96992  20.831   0.947  11.197
25377W        W96993  21.015  26.702  12.069
25378W        W96994   7.257  20.669  14.711
25379W        W96995  42.908  40.115  14.513
25380W        W96996   5.487  36.529   1.949
25381W        W96997  14.019  22.497  13.513
25382W        W96998  43.283   7.668   0.951
25383W        W96999  14.883  36.954  11.913
25384W        W97000  43.398  10.194  14.913
25385W        W97001  27.479  14.382   5.113
25386W        W97002  20.317  36.830  12.030
25387W        W97003   8.920  19.043   3.267
25388W        W97004  14.753  37.382  11.151
25389W        W97005   3.351  41.035  11.878
25390W        W97006  32.534  31.237  12.662
25391W        W97007   8.290   9.603  10.645
25392W        W97008   9.818  43.021   4.483
25393W        W97009  10.174  38.058   3.186
25394W        W97010  27.822  10.874  12.870
25395W        W97011  21.027   6.846   1.836
25396W        W97012  12.385  42.317  13.056
25397W        W97013  40.938  20.902  11.172
25398W        W97014   4.738   4.313   2.212
25399W        W97015  10.337  18.783   3.260
25400W        W97016  12.811  24.094   1.100
25401W        W97017  15.188  20.107  13.396
25402W        W97018  25.920  41.464   3.757
25403W        W97019   8.786  21.569  11.043
25404W        W97020  31.033   6.515  11.785
25405W        W97021  18.586  44.176   1.297
25406W        W97022  28.128   7.637  10.672
25407W        W97023   6.832   7.661  13.777
25408W        W97024  30.832  30.651   3.218
25409W        W97025  41.384  31.736   3.638
25410W        W97026  24.307  39.900   3.826
25411W        W97027  31.594  35.040   3.693
25412W        W97028  27.185  21.059  10.262
25413W        W97029  37.786  22.607   3.715
25414W        W97030  32.876  35.900  14.312
25415W        W97031   7.807  15.990  10.940
25416W        W97032  23.205  29.462   2.843
25417W        W97033  19.669  11.928   4.126
25418W        W97034  23.127  12.127  14.978
25419W        W97035  24.455  11.190  10.699
25420W        W97036  33.611  36.603   1.919
25421W        W97037   7.919  16.586   1.217
25422W        W97038  33.085  42.006   0.066
25423W        W97039  20.485  29.573   3.735
25424W        W97040  37.989  26.687  12.418
25425W        W97041   6.840  11.821  12.338
25426W        W97042  32.225  27.571   4.188
25427W        W97043  21.542  32.619   2.391
25428W        W97044  41.820   7.734  11.417
25429W        W97045   2.279  27.213   0.329
25430W        W97046  28.620  31.842   4.734
25431W        W97047  13.639   4.017   1.363
25432W        W97048  18.298  20.187  12.906
25433W        W97049  16.835  22.601   0.910
25434W        W97050  17.677  33.766   4.926
25435W        W97051  13.644  12.896   4.163
25436W        W97052  27.591  36.996   4.933
25437W        W97053  15.898   6.966   1.846
25438W        W97054  10.913  38.543   4.506
25439W        W97055  39.480  41.060  12.026
25440W        W97056  28.694  14.047  13.865
25441W        W97057  29.178   2.435   1.420
25442W        W97058  26.028  29.541  12.174
25443W        W97059  21.108  16.832   3.832
25444W        W97060  34.077  43.880   5.241
25445W        W97061  39.091   9.302   2.764
25446W        W97062  43.218  27.333  13.276
25447W        W97063  38.832  39.390   2.874
25448W        W97064   7.169  16.736   2.415
25449W        W97065  21.049  22.473  11.876
25450W        W97066  31.876  28.774  12.383
25451W        W97067  24.212   9.096   3.948
25452W        W97068  43.659  18.187  12.414
25453W        W97069  11.612  12.182  11.984
25454W        W97070  19.457  43.480  10.151
25455W        W97071  25.657  29.374   2.881
25456W        W97072  39.397  13.465  13.393
25457W        W97073   8.342  35.013   3.207
25458W        W97074  14.820  44.738  12.653
25459W        W97075   4.394  17.776  11.221
25460W        W97076  24.120  13.375   1.478
25461W        W97077   7.835   2.049   4.951
25462W        W97078  42.945  25.172   3.244
25463W        W97079  18.269  11.950  14.378
25464W        W97080  19.156   1.489   0.892
25465W        W97081  18.064  15.812  12.994
25466W        W97082  29.000  22.337  12.411
25467W        W97083  41.999   5.948  14.458
25468W        W97084   6.673  25.567  10.688
25469W        W97085  15.862  39.399  11.578
25470W        W97086  28.224  14.098   3.787
25471W        W97087  15.700  39.594  13.296
25472W        W97088  15.845  17.695   4.294
25473W        W97089  21.818  25.188   4.489
25474W        W97090  25.499  27.202   1.306
25475W        W97091  38.602  17.362  13.939
25476W        W97092  38.042  29.510  12.608
25477W        W97093  18.669  34.148  11.125
25478W        W97094   9.432   5.931   4.919
25479W        W97095  32.347  18.692   3.265
25480W        W97096  35.172   0.670  10.704
25481W        W97097  33.076  14.668   1.945
25482W        W97098  17.340  23.507  14.617
25483W        W97099   6.368  18.795  13.326
25484W        W97100  21.268  34.586  11.157
25485W        W97101  43.792  21.463   0.065
25486W        W97102  28.137  35.460   4.471
25487W        W97103  18.004   9.701   3.839
25488W        W97104  38.274  37.882  10.716
25489W        W97105  15.598   8.670   4.581
25490W        W97106  14.821  17.447   1.303
25491W        W97107  24.084  36.858   2.324
25492W        W97108  43.892  37.044   4.587
25493W        W97109   5.248  34.385   0.932
25494W        W97110   2.836   5.515   3.343
25495W        W97111  34.844  10.366   0.829
25496W        W97112   8.695  24.160   0.126
25497W        W97113  30.136  35.579   4.572
25498W        W97114  10.062   1.343   5.032
25499W        W97115  23.627   2.408   4.138
25500W        W97116   3.431   0.042   2.777
25501W        W97117  26.514  13.979  10.771
25502W        W97118  44.047  10.454   1.787
25503W        W97119  33.033  44.820   3.106
25504W        W97120  25.598  27.088   4.463
25505W        W97121  37.776  41.630   4.911
25506W        W97122  19.761  19.156   1.418
25507W        W97123  36.168   4.276   0.229
25508W        W97124   5.476  14.149  13.930
25509W        W97125  10.383  16.982   2.250
25510W        W97126  22.716   9.250   0.473
25511W        W97127  26.989  14.995   2.705
25512W        W97128   4.434  39.539   2.700
25513W        W97129  37.558   7.403   5.041
25514W        W97130  17.760  20.702   0.497
25515W        W97131  14.948  21.146  14.349
25516W        W97132   8.822  32.408   3.758
25517W        W97133  40.881  38.347  13.101
25518W        W97134   6.864   7.705   4.766
25519W        W97135   5.803  28.131   2.333
25520W        W97136  32.891  10.846  14.466
25521W        W97137  29.426  22.066  11.413
25522W        W97138  39.439  40.542  11.959
25523W        W97139   7.898  38.708  14.456
25524W        W97140  25.943   9.673  12.895
25525W        W97141  19.445   2.945  12.260
25526W        W97142  17.561  11.110  10.656
25527W        W97143  42.731   9.151   3.667
25528W        W97144  35.858   8.933  10.717
25529W        W97145  22.565  21.321   1.476
25530W        W97146  18.134   8.867   2.708
25531W        W97147   0.311   6.331  11.847
25532W        W97148   6.226   2.433   2.872
25533W        W97149  29.039   3.343  12.122
25534W        W97150  31.717  30.160  14.785
25535W        W97151  15.568  37.594  10.791
25536W        W97152  29.125   7.852   3.446
25537W        W97153  35.314  26.448  13.678
25538W        W97154  13.714  41.467   0.719
25539W        W97155  19.033  27.192  13.931
25540W        W97156  20.105  28.780   4.642
25541W        W97157  43.924   3.956  10.690
25542W        W97158  44.417  40.130   0.281
25543W        W97159  28.942  44.797   0.808
25544W        W97160   1.847  33.467  11.600
25545W        W97161   8.752  13.130  10.724
25546W        W97162   1.035  30.734  12.708
25547W        W97163  11.448  10.673  13.054
25548W        W97164  17.691   0.898   2.375
25549W        W97165   9.262  15.562  10.544
25550W        W97166  27.558  17.745   1.210
25551W        W97167  15.242  12.610   0.337
25552W        W97168  20.771  23.110  11.141
25553W        W97169  33.971  29.535  13.800
25554W        W97170   6.136  18.738   0.918
25555W        W97171   8.478   2.631   4.225
25556W        W97172  18.547   6.320   2.100
25557W        W97173   0.157   3.734  11.215
25558W        W97174  31.209  12.084   4.438
25559W        W97175  27.039  42.526   2.006
25560W        W97176  37.011  25.226  11.158
25561W        W97177  25.138  10.365  13.530
25562W        W97178  25.750  27.441   4.904
25563W        W97179   6.289  31.469  12.021
25564W        W97180  12.685   3.323  10.176
25565W        W97181  26.526  17.207  14.877
25566W        W97182  37.414  20.564   0.786
25567W        W97183   1.462  42.352  11.065
25568W        W97184  34.950   9.681  11.259
25569W        W97185   1.466  39.822  12.897
25570W        W97186  34.356  27.932  12.823
25571W        W97187  22.729  20.276   2.868
25572W        W97188  39.979  27.111   2.329
25573W        W97189  40.283  24.625  12.065
25574W        W97190  39.319  23.573   5.194
25575W        W97191  37.503  23.624   3.280
25576W        W97192  11.832  12.504   5.044
25577W        W97193  32.599  35.417   0.411
25578W        W97194  23.977  27.695   0.292
25579W        W97195  15.567  38.016  12.596
25580W        W97196  41.411  38.893   2.769
25581W        W97197  43.284  20.053   0.801
25582W        W97198  31.609  28.169  10.768
25583W        W97199   5.734  36.089  11.148
25584W        W97200  44.539  27.761   0.744
25585W        W97201  24.325  38.972  14.294
25586W        W97202  26.728  30.834  10.618
25587W        W97203  34.051  28.240  13.428
25588W        W97204  15.942  14.464   5.031
25589W        W97205   2.334  43.824  11.951
25590W        W97206   5.020   1.252  12.853
25591W        W97207  35.077  29.620   0.200
25592W        W97208  31.090  27.609   2.127
25593W        W97209  22.028  11.575  14.365
25594W        W97210  18.312  44.245   4.549
25595W        W97211  44.332  10.911   3.721
25596W        W97212  27.504  15.120   3.718
25597W        W97213  43.093  14.521  11.673
25598W        W97214  41.589   5.647  14.582
25599W        W97215  39.866   8.543   2.680
25600W        W97216  21.077   4.952  13.294
25601W        W97217  22.182  14.025  14.981
25602W        W97218  36.324   1.553  12.605
25603W        W97219  19.289   3.247   2.218
25604W        W97220  13.596  30.643   4.611
25605W        W97221  22.549   6.147   4.151
25606W        W97222  23.154  18.694   1.335
25607W        W97223  14.276   3.342   4.740
25608W        W97224  18.830  35.488   3.295
25609W        W97225  16.360   2.502  14.429
25610W        W97226  44.451  25.085  13.299
25611W        W97227  23.513  28.791   1.406
25612W        W97228  28.163   4.652   0.704
25613W        W97229  13.669  28.994  14.677
25614W        W97230  20.810  18.772   3.347
25615W        W97231  20.247  11.221   2.036
25616W        W97232   8.199  31.861   2.209
25617W        W97233  40.002  21.112  13.897
25618W        W97234   8.239  23.759   4.554
25619W        W97235  35.353  12.206   0.896
25620W        W97236  44.626  20.544  11.182
25621W        W97237  18.617  41.807   1.244
25622W        W97238  15.159   0.014  13.011
25623W        W97239  12.190  44.994  11.256
25624W        W97240  19.066  43.338  14.431
25625W        W97241  27.631  25.430  10.712
25626W        W97242  19.705  38.969   1.715
25627W        W97243  37.687   5.009   0.861
25628W        W97244  21.246  33.901   0.358
25629W        W97245   0.013   4.841  11.929
25630W        W97246  14.101  39.932   4.399
25631W        W97247  32.538  27.629   4.616
25632W        W97248  11.580  20.538   2.302
25633W        W97249  35.946  41.037   2.135
25634W        W97250  42.907   8.724  14.244
25635W        W97251  10.719  36.422  13.857
25636W        W97252  11.197   1.046   4.423
25637W        W97253   4.271  42.841   0.730
25638W        W97254  31.401  34.387   1.148
25639W        W97255  36.422  35.277  14.373
25640W        W97256  16.696  17.047   1.012
25641W        W97257   0.351  29.043  13.091
25642W        W97258  32.485  11.203  14.408
25643W        W97259   7.862  31.477   0.284
25644W        W97260  26.514   4.259   2.859
25645W        W97261  39.009   2.928  13.815
25646W        W97262   3.348  25.121  10.063
25647W        W97263   5.882  16.470  14.821
25648W        W97264  14.544  27.864   1.305
25649W        W97265  34.967  18.436  14.581
25650W        W97266  21.748  30.094   3.371
25651W        W97267  44.956  21.701   3.695
25652W        W97268  25.412  38.099  12.399
25653W        W97269  27.971   9.750   3.393
25654W        W97270  44.532  35.053  12.955
25655W        W97271   5.755  38.968   0.553
25656W        W97272  25.212  38.943   1.231
25657W        W97273  40.043  40.824  12.476
25658W        W97274  16.609  29.818  14.786
25659W        W97275  15.346  29.006   3.249
25660W        W97276  32.646  24.608  14.414
25661W        W97277  23.717  14.291  13.489
25662W        W97278  37.583   8.375   4.790
25663W        W97279  36.897  29.874  13.840
25664W        W97280  32.715  11.794   3.678
25665W        W97281  21.157  23.933   5.001
25666W        W97282  16.289  16.140  10.395
25667W        W97283  38.683  35.628   0.440
25668W        W97284  39.514  44.025  11.581
25669W        W97285  18.623   0.438  13.051
25670W        W97286   6.300  26.571   4.157
25671W        W97287  44.768  25.124   4.474
25672W        W97288   3.042  22.047   2.870
25673W        W97289  25.624  34.012   0.471
25674W        W97290  39.314  42.523   1.986
25675W        W97291  21.258   5.629   4.162
25676W        W97292   3.085  28.397   4.107
25677W        W97293  23.631  29.282  11.145
25678W        W97294   0.365   6.879  11.651
25679W        W97295  21.047  42.176   1.288
25680W        W97296  19.552  31.899  14.050
25681W        W97297  15.158   2.232  13.611
25682W        W97298   0.731  44.268   1.139
25683W        W97299   4.941   8.448   1.398
25684W        W97300  20.615  31.967  14.207
25685W        W97301   4.782  11.947   5.077
25686W        W97302   1.665  20.558   2.309
25687W        W97303  20.077  27.313   3.133
25688W        W97304  19.722  14.782  12.518
25689W        W97305  20.890  22.462  13.052
25690W        W97306  27.747  32.913  12.646
25691W        W97307   1.507   1.201   1.686
25692W        W97308  16.245  15.179  14.080
25693W        W97309  19.330  26.141  11.085
25694W        W97310  16.992  34.531   0.772
25695W        W97311  34.655  12.676  14.411
25696W        W97312  18.099   4.338  14.713
25697W        W97313  21.974  27.957   0.919
25698W        W97314  29.548  29.258   1.349
25699W        W97315  36.965  23.072  10.745
25700W        W97316  22.529  32.487   4.289
25701W        W97317  21.623  34.505  14.763
25702W        W97318  19.771  16.672  12.582
25703W        W97319  29.915  30.299   2.075
25704W        W97320  37.943  12.235   2.398
25705W        W97321  41.535  22.127  13.564
25706W        W97322  10.542  32.989  10.458
25707W        W97323  21.964  14.701   1.691
25708W        W97324  31.492  27.930   5.076
25709W        W97325  30.054  37.301   1.947
25710W        W97326  20.010  19.344  11.186
25711W        W97327   2.588   3.879   2.792
25712W        W97328  31.430  30.346   2.262
25713W        W97329  14.771   2.274  14.408
25714W        W97330  23.559  39.581   0.742
25715W        W97331   3.768  25.564  10.718
25716W        W97332  40.751  22.196   2.202
25717W        W97333  27.105  21.704   0.489
25718W        W97334   6.480  32.487   0.583
25719W        W97335  29.995  20.020   0.712
25720W        W97336  36.536  43.007  13.919
25721W        W97337  18.202   3.360   2.207
25722W        W97338  28.793  35.086   4.410
25723W        W97339  13.516  32.335   1.267
25724W        W97340  25.667  37.929  14.020
25725W        W97341  19.553  19.980  10.758
25726W        W97342   1.923  40.322  11.594
25727W        W97343  28.283  35.115  10.945
25728W        W97344   5.418   8.691   1.296
25729W        W97345  43.093  13.919   3.648
25730W        W97346  22.094  29.987   0.659
25731W        W97347  41.374   3.147   2.424
25732W        W97348   1.581   2.921   1.252
25733W        W97349   5.014  22.873   1.388
25734W        W97350  10.400  14.775   4.631
25735W        W97351  39.654   2.702  10.766
25736W        W97352  36.908  43.529   2.286
25737W        W97353  39.538   6.695  11.312
25738W        W97354  10.181   7.172   3.115
25739W        W97355  38.786  29.570  11.735
25740W        W97356  19.353  39.838  11.173
25741W        W97357   3.884   2.240  12.231
25742W        W97358   9.388   0.983   2.694
25743W        W97359   9.651  20.594   3.294
25744W        W97360  16.836  18.450   4.331
25745W        W97361  10.356  37.232   2.726
25746W        W97362  21.787  40.543   2.203
25747W        W97363  30.525  13.673   3.656
25748W        W97364  20.978   9.603   1.996
25749W        W97365  23.273  35.210  11.951
25750W        W97366  17.878  22.232   0.084
25751W        W97367  10.476   0.763   2.853
25752W        W97368  32.551  20.789  14.139
25753W        W97369  36.573  12.136   4.178
25754W        W97370  22.652  12.739  10.833
25755W        W97371  23.678  39.323   4.274
25756W        W97372  38.140  10.875  14.077
25757W        W97373  13.316   3.186  13.776
25758W        W97374   5.394  28.444   0.945
25759W        W97375  13.666  44.424  10.543
25760W        W97376  29.106  19.216   4.320
25761W        W97377  15.790  19.389  13.310
25762W        W97378  39.473  19.657   2.197
25763W        W97379  37.869   3.216   1.761
25764W        W97380   2.916  43.634  11.499
25765W        W97381  18.603  36.510   1.944
25766W        W97382  10.452   4.450  11.579
25767W        W97383  24.600   5.955  14.105
25768W        W97384   7.421  31.343  11.571
25769W        W97385   9.099  25.857  10.719
25770W        W97386  19.735   8.652   2.191
25771W        W97387  40.373  36.621   2.381
25772W        W97388  33.954  30.139   3.227
25773W        W97389   2.039  34.807  12.879
25774W        W97390  33.837  10.631  13.920
25775W        W97391  21.996  17.456  10.717
25776W        W97392  37.728  35.179   4.100
25777W        W97393  35.700   5.872  12.355
25778W        W97394   2.208  16.520   1.918
25779W        W97395  39.745  15.720  10.461
25780W        W97396  27.361  29.933  12.061
25781W        W97397  12.712  23.269  11.555
25782W        W97398  33.073   4.163   3.890
25783W        W97399  31.977  20.478  14.771
25784W        W97400  26.652  21.756   4.517
25785W        W97401   8.097  44.302   0.472
25786W        W97402  13.609  41.755   2.869
25787W        W97403   9.738  23.963  14.478
25788W        W97404  29.227  41.573  11.604
25789W        W97405  16.230   4.393  10.890
25790W        W97406  10.231  12.230  14.512
25791W        W97407  42.537  40.110   1.338
25792W        W97408  25.439  27.575  11.237
25793W        W97409   9.149  41.696   2.374
25794W        W97410  33.766  42.364   1.919
25795W        W97411  39.108   7.545  13.812
25796W        W97412  28.171  14.928  14.862
25797W        W97413  29.964  32.014  10.997
25798W        W97414  41.012   0.958   4.182
25799W        W97415  17.681   7.176  14.083
25800W        W97416  18.476  30.671   1.760
25801W        W97417  29.917  28.978  13.061
25802W        W97418  21.698  43.300  14.246
25803W        W97419  33.451   4.812  10.604
25804W        W97420  24.026  44.419   1.205
25805W        W97421   4.858  33.378   0.999
25806W        W97422  43.571  17.727  14.967
25807W        W97423   7.844  33.890  14.520
25808W        W97424   8.139  20.108   3.529
25809W        W97425   9.155   9.324  10.670
25810W        W97426   2.486  41.510   3.567
25811W        W97427  44.215  18.374   0.266
25812W        W97428  31.581  12.808   4.726
25813W        W97429  20.700  38.022  12.890
25814W        W97430  43.950  27.155   0.683
25815W        W97431  41.391  36.525  11.024
25816W        W97432  33.031  13.401   3.848
25817W        W97433  20.657  14.833   0.339
25818W        W97434  30.316   8.906   0.433
25819W        W97435   2.854   0.336   3.891
25820W        W97436   5.144  21.066   0.514
25821W        W97437  22.280  15.278   2.767
25822W        W97438  21.933   4.308   4.438
25823W        W97439   3.677  14.106  13.383
25824W        W97440  40.256   3.946   3.265
25825W        W97441  44.004   5.455  12.924
25826W        W97442  26.030  19.499   0.733
25827W        W97443  26.882  40.510  13.902
25828W        W97444  18.298  30.422   1.302
25829W        W97445  18.795  29.573   4.942
25830W        W97446  10.432   0.425  10.542
25831W        W97447  15.898   9.379  12.755
25832W        W97448   7.466  13.763   1.727
25833W        W97449  23.646  26.997   3.101
25834W        W97450  33.700  22.531   2.160
25835W        W97451  13.766  20.461  12.988
25836W        W97452  31.646  13.323  11.555
25837W        W97453  34.898   5.915  11.598
25838W        W97454  41.309  31.196   1.299
25839W        W97455  34.579  21.673   2.043
25840W        W97456  17.652  25.684   1.949
25841W        W97457  41.157  44.948  11.589
25842W        W97458  35.496  12.059  10.521
25843W        W97459  13.175  18.782  14.304
25844W        W97460  16.591  11.842   0.232
25845W        W97461  26.488  27.724   4.981
25846W        W97462   3.317  24.435   4.341
25847W        W97463   1.663  15.551  14.954
25848W        W97464   0.271  35.906   1.901
25849W        W97465  23.479  34.322   3.280
25850W        W97466   0.424  27.947  13.407
25851W        W97467  12.619  33.250  10.630
25852W        W97468  26.172  25.674  13.544
25853W        W97469   7.791   2.366  11.703
25854W        W97470  26.304  15.136  14.493
25855W        W97471  17.186  33.363  11.042
25856W        W97472  30.696  36.844  14.358
25857W        W97473   1.495   0.846  10.475
25858W        W97474  31.855   1.680  10.617
25859W        W97475  44.403  28.011  13.493
25860W        W97476  26.272  39.790  12.933
25861W        W97477   9.880  23.181  13.346
25862W        W97478  29.203  38.632  12.931
25863W        W97479  29.896  17.013   0.900
25864W        W97480  15.173  37.408   3.684
25865W        W97481  37.818  41.688  11.638
25866W        W97482  38.546  44.735   3.356
25867W        W97483  19.521   3.060  11.017
25868W        W97484  27.539  33.408   4.102
25869W        W97485  27.351  10.601   4.850
25870W        W97486  37.450  26.653  14.134
25871W        W97487  11.313  14.643   1.208
25872W        W97488  42.396   0.844   3.842
25873W        W97489  16.315  16.100   3.239
25874W        W97490  31.199   7.368  14.889
25875W        W97491   0.540  44.719  14.538
25876W        W97492  31.904  40.051   2.706
25877W        W97493   9.235  17.370  11.243
25878W        W97494  36.819  32.591   2.948
25879W        W97495   4.517   0.865   1.830
25880W        W97496  27.280  18.206   2.417
25881W        W97497  34.968  29.671   0.845
25882W        W97498  11.807  27.464   2.609
25883W        W97499  33.674  42.059  13.556
25884W        W97500   4.381   5.343  10.540
25885W        W97501  18.162  31.470  11.232
25886W        W97502  32.982  23.231   1.343
25887W        W97503  14.738  11.301  14.388
25888W        W97504  23.877   7.884   3.732
25889W        W97505  39.111  28.014   3.700
25890W        W97506  37.612  36.901  11.149
25891W        W97507  35.549   1.255  11.988
25892W        W97508   6.364   2.683  11.464
25893W        W97509  32.853  29.672  13.027
25894W        W97510  41.359  17.951  12.933
25895W        W97511  11.675  30.776  11.126
25896W        W97512  40.262   0.953   2.823
25897W        W97513  31.912  38.034  13.905
25898W        W97514  14.882  36.097   2.128
25899W        W97515   5.768   8.047  12.495
25900W        W97516  32.895   3.396   3.275
25901W        W97517   4.497   8.090  13.181
25902W        W97518  12.102  31.882  10.699
25903W        W97519   1.622  27.973  13.303
25904W        W97520  32.687  30.497   0.806
25905W        W97521   1.635  18.969  13.872
25906W        W97522  24.911  17.049   4.614
25907W        W97523  12.748  27.344  12.435
25908W        W97524   6.152  43.874  10.637
25909W        W97525  33.842  27.058   3.821
25910W        W97526   4.290  23.846  11.500
25911W        W97527  43.015  20.504   3.765
25912W        W97528   9.380  12.931  12.144
25913W        W97529  29.621  23.194   3.430
25914W        W97530  38.346  21.888   2.165
25915W        W97531  27.004  32.306  14.825
25916W        W97532  29.586  35.315   2.809
25917W        W97533   1.233  17.656  10.491
25918W        W97534  12.336   4.129   4.230
25919W        W97535   2.752  18.566   4.242
25920W        W97536  18.326  14.376  11.540
25921W        W97537  15.534  44.597   3.824
25922W        W97538  40.989  18.597  12.242
25923W        W97539  10.752  35.522  10.679
25924W        W97540  12.725  35.540  11.564
25925W        W97541  19.541  31.101  14.545
25926W        W97542  27.603   5.886  13.510
25927W        W97543  18.008   8.250   1.854
25928W        W97544  43.937  30.160   1.396
25929W        W97545  27.033  33.063  14.388
25930W        W97546   8.839  17.053   0.394
25931W        W97547  15.293  27.165  12.968
25932W        W97548  40.268  29.004   4.022
25933W        W97549   6.167  44.707   0.263
25934W        W97550  18.293  35.390  10.988
25935W        W97551  12.364  11.871  12.926
25936W        W97552  29.988   0.448   4.093
25937W        W97553  25.976  29.996  14.420
25938W        W97554  20.324  41.803   1.903
25939W        W97555  11.880  27.615  11.930
25940W        W97556   9.145  15.051  12.923
25941W        W97557  20.188   2.710   1.915
25942W        W97558  40.581  32.034   0.898
25943W        W97559  19.805  23.582  10.971
25944W        W97560  12.877  26.187   0.373
25945W        W97561  37.039  43.053   4.396
25946W        W97562  44.869  28.161   1.628
25947W        W97563  27.150   9.133   3.754
25948W        W97564  11.085  10.791   4.515
25949W        W97565   0.465   0.766   4.138
25950W        W97566  26.700  20.325  11.964
25951W        W97567  14.720  36.668   4.512
25952W        W97568  35.037   7.359   1.051
25953W        W97569  21.583  27.063   0.250
25954W        W97570  14.216  38.270  13.870
25955W        W97571   7.644  11.861  14.851
25956W        W97572  17.757  34.915   1.302
25957W        W97573  12.801  21.288   2.372
25958W        W97574   6.759  43.019  11.625
25959W        W97575  31.870   3.339  10.784
25960W        W97576  41.378  36.629  12.518
25961W        W97577  31.868  37.906   4.551
25962W        W97578  28.547  36.531   1.986
25963W        W97579  29.934  24.439  13.001
25964W        W97580  20.667  40.242   3.934
25965W        W97581  40.795  32.206  12.548
25966W        W97582  16.840  38.424  14.453
25967W        W97583   3.472   7.958  14.976
25968W        W97584  10.160   6.873  14.291
25969W        W97585  43.748  38.256   1.279
25970W        W97586  26.492  38.407  13.144
25971W        W97587  10.590  13.312  11.165
25972W        W97588  35.043  38.933   5.150
25973W        W97589  44.280   1.966  14.303
25974W        W97590  33.200  10.840   3.736
25975W        W97591  12.542  13.340   1.021
25976W        W97592  32.497  42.521  12.500
25977W        W97593  11.394  21.289  12.772
25978W        W97594  14.516  23.668   4.046
25979W        W97595  24.525  26.499   3.181
25980W        W97596  34.441   0.418   5.003
25981W        W97597  44.369  34.626  11.072
25982W        W97598  19.040  33.390  11.031
25983W        W97599  14.764   9.419   3.679
25984W        W97600  34.659  18.675   3.233
25985W        W97601   4.258   7.846   3.071
25986W        W97602  10.243  31.825  11.118
25987W        W97603  44.833  25.842  11.712
25988W        W97604  42.254  21.197   3.712
25989W        W97605  11.267  31.475  14.029
25990W        W97606  38.083  25.547   1.010
25991W        W97607  30.160   4.875   1.761
25992W        W97608  28.072  34.119  12.690
25993W        W97609  32.882   9.660  12.859
25994W        W97610  28.488   3.948   4.161
25995W        W97611  24.615  40.460  12.829
25996W        W97612  15.118   3.493  14.084
25997W        W97613   8.657  21.508   4.599
25998W        W97614  18.525  43.794   0.243
25999W        W97615  44.868   6.845  14.789
26000W        W97616  36.540  18.693   1.709
26001W        W97617   9.639  19.590   4.216
26002W        W97618  38.925  36.651   1.379
26003W        W97619  17.827   0.558   2.756
26004W        W97620  11.778  33.335  12.208
26005W        W97621   1.963  23.449  10.634
26006W        W97622   0.316   7.926  11.699
26007W        W97623   7.332  24.494   0.823
26008W        W97624  31.635  17.136  14.485
26009W        W97625   7.708  31.940   1.329
26010W        W97626  22.365  41.804   2.895
26011W        W97627  31.898  44.170   9.604
26012W        W97628  29.755   2.768   2.269
26013W        W97629  11.836  11.178   4.132
26014W        W97630  21.761  34.113  10.676
26015W        W97631   8.161   8.702   3.854
26016W        W97632   4.013  16.316  11.903
26017W        W97633  15.726  22.804   2.500
26018W        W97634  18.606   1.933   2.121
26019W        W97635   1.845  33.118  12.109
26020W        W97636  34.195  17.277   2.882
26021W        W97637  38.944   9.911  12.115
26022W        W97638   9.341  19.242  13.475
26023W        W97639  44.327   9.750   4.199
26024W        W97640  44.460   7.391   1.160
26025W        W97641  43.348  25.676   2.253
26026W        W97642  12.821  32.920   3.676
26027W        W97643  12.676  12.716   2.815
26028W        W97644  44.543  44.291   1.836
26029W        W97645  37.601  29.240  12.572
26030W        W97646  42.337  30.127  13.316
26031W        W97647   7.914  21.546   2.328
26032W        W97648  41.057  23.706  12.524
26033W        W97649  30.100   2.140  12.595
26034W        W97650  37.343  12.138  11.981
26035W        W97651   6.382  25.103  14.910
26036W        W97652  16.752  27.432   0.374
26037W        W97653   3.922  11.614  12.982
26038W        W97654  24.134  27.139  10.667
26039W        W97655  43.929  31.511   2.002
26040W        W97656  30.885  28.149  13.859
26041W        W97657  10.723  29.003  14.877
26042W        W97658  23.681   5.752  12.998
26043W        W97659  14.598  20.812   4.547
26044W        W97660  39.501   7.941  11.155
26045W        W97661   5.064   0.985  13.699
26046W        W97662  16.185  27.228  12.797
26047W        W97663  33.953  42.709   3.362
26048W        W97664  27.281  24.937   3.041
26049W        W97665  36.523  25.001  13.878
26050W        W97666  23.284  13.349   0.391
26051W        W97667  17.717   6.619  13.187
26052W        W97668  15.852  13.860  12.874
26053W        W97669  30.386   5.235  14.372
26054W        W97670  20.312   5.604   3.142
26055W        W97671   3.206  32.125  11.087
26056W        W97672  33.420  38.554  11.208
26057W        W97673  38.452  26.951   3.224
26058W        W97674  43.482  30.675   3.103
26059W        W97675   5.278  14.650  11.078
26060W        W97676  10.122   1.928  13.282
26061W        W97677  30.486  34.646  12.881
26062W        W97678  35.509   0.817   3.781
26063W        W97679  27.698  19.334  13.990
26064W        W97680  15.547  37.958  13.870
26065W        W97681  17.852  18.091   2.556
26066W        W97682  41.378  14.359   0.517
26067W        W97683   7.326   2.460   3.671
26068W        W97684  24.996  42.395  13.089
26069W        W97685  14.448  10.682  14.983
26070W        W97686  36.187  19.578   3.133
26071W        W97687  31.188  14.966   2.620
26072W        W97688  12.445  27.675   1.464
26073W        W97689  29.969  13.021  13.491
26074W        W97690   0.386  33.700  13.914
26075W        W97691  16.346  43.277   0.460
26076W        W97692  27.645  37.074  14.521
26077W        W97693  10.186   9.020   1.892
26078W        W97694   7.489   9.265  13.396
26079W        W97695  37.765  44.087  14.458
26080W        W97696  14.817  27.213   3.731
26081W        W97697  21.121   5.874   4.599
26082W        W97698  10.158  34.002  12.560
26083W        W97699  23.159  17.068  10.705
26084W        W97700   4.721   9.177  10.424
26085W        W97701  44.327  37.938  10.014
26086W        W97702  25.676  32.965  14.557
26087W        W97703  33.061  20.234  13.994
26088W        W97704   6.600  33.513  13.954
26089W        W97705  40.796  17.855  10.275
26090W        W97706  10.257  13.535   1.802
26091W        W97707  36.008  27.754   0.368
26092W        W97708  14.243  22.809   2.322
26093W        W97709  13.799  16.335   4.938
26094W        W97710   6.663  22.578  11.047
26095W        W97711  25.980  31.678  11.623
26096W        W97712  12.381   4.950  14.846
26097W        W97713  26.625  38.341   4.489
26098W        W97714  24.157  35.020   1.423
26099W        W97715  33.582  41.546   2.732
26100W        W97716  28.243   3.344   2.781
26101W        W97717  38.244  31.883   4.162
26102W        W97718  12.118   3.181   0.322
26103W        W97719  13.745  17.776   4.009
26104W        W97720  10.945  31.628   3.205
26105W        W97721  18.242   9.849  13.862
26106W        W97722   4.017  12.297   1.301
26107W        W97723  34.086  23.036   2.279
26108W        W97724  37.409  39.618  13.878
26109W        W97725  43.505   7.783   1.880
26110W        W97726  24.629  37.556  13.501
26111W        W97727  29.951  42.972  14.858
26112W        W97728  44.308   7.661   3.265
26113W        W97729  42.777  34.632   1.915
26114W        W97730  38.960   4.730   0.482
26115W        W97731  23.790  11.119  11.718
26116W        W97732  25.752   7.591  13.477
26117W        W97733   3.882  17.515  12.452
26118W        W97734  36.738  21.322  11.360
26119W        W97735  20.971  26.772   4.554
26120W        W97736   2.173   0.103   0.850
26121W        W97737  40.754  36.341   0.532
26122W        W97738  15.647  12.397  14.164
26123W        W97739   3.098  27.595  10.753
26124W        W97740  22.417   5.222  13.400
26125W        W97741   9.326  17.769   2.539
26126W        W97742  34.411  29.368  12.040
26127W        W97743  17.861  12.736  13.963
26128W        W97744  34.313  43.781   5.697
26129W        W97745  10.597  22.560   0.861
26130W        W97746  15.355  19.995  10.724
26131W        W97747   8.806  10.385   3.126
26132W        W97748  40.001  25.522   0.251
26133W        W97749  34.498  21.950  13.724
26134W        W97750  29.306   0.499   3.118
26135W        W97751  39.853   2.447   3.708
26136W        W97752  32.674  16.192  11.616
26137W        W97753   8.610  11.153   2.016
26138W        W97754   6.843  27.433   1.384
26139W        W97755  23.296  28.002  12.098
26140W        W97756  36.499  43.302   0.412
26141W        W97757  15.797  40.995   4.405
26142W        W97758  38.659  13.878  14.521
26143W        W97759  15.483  21.108  11.765
26144W        W97760  35.906  22.457   2.832
26145W        W97761  37.031  43.360   2.841
26146W        W97762  13.098  44.541   1.389
26147W        W97763  29.640  42.788   4.561
26148W        W97764  15.664  20.348   0.703
26149W        W97765  15.268  21.859   0.353
26150W        W97766  39.394  17.082   3.716
26151W        W97767  13.366  37.455  10.078
26152W        W97768  20.593  30.990   3.651
26153W        W97769  15.628  31.620   2.529
26154W        W97770  12.240  10.693   1.431
26155W        W97771  28.697   1.288   3.252
26156W        W97772  13.886  12.815  14.968
26157W        W97773  17.751  16.110  14.866
26158W        W97774   3.275  32.102  14.017
26159W        W97775  33.320  40.428   3.132
26160W        W97776  32.380  24.435  13.891
26161W        W97777  40.658  13.836   0.438
26162W        W97778  12.459   9.099   1.392
26163W        W97779   7.532  14.494   2.659
26164W        W97780  41.005  35.084  11.143
26165W        W97781  30.494  28.595   3.217
26166W        W97782  27.986  38.801  13.451
26167W        W97783  42.030  33.869   1.038
26168W        W97784  34.014  15.467   1.373
26169W        W97785  14.582  13.187   4.620
26170W        W97786  27.914  31.909   2.153
26171W        W97787  38.144  13.237  14.811
26172W        W97788  29.129  21.048   0.381
26173W        W97789  15.542  35.510  12.536
26174W        W97790  10.322  42.337  12.836
26175W        W97791  24.479  13.779   3.964
26176W        W97792  37.840  20.225  12.089
26177W        W97793  43.077  26.411  14.263
26178W        W97794  10.459  32.871   9.761
26179W        W97795   9.618  27.741  14.497
26180W        W97796  15.882  31.968   2.202
26181W        W97797  19.873   1.879   1.361
26182W        W97798   7.826  10.817   2.240
26183W        W97799  23.716  43.251  14.910
26184W        W97800  15.895   5.919   4.618
26185W        W97801  35.583  15.326   2.817
26186W        W97802  18.860  19.833  12.355
26187W        W97803  40.605  44.287   4.064
26188W        W97804  41.939  25.966  13.373
26189W        W97805  10.808  44.339  12.374
26190W        W97806   5.706   0.827  11.381
26191W        W97807  15.832  12.528   2.718
26192W        W97808  26.869   1.590   2.153
26193W        W97809   4.214  18.094  11.595
26194W        W97810  37.590  32.792  11.574
26195W        W97811  12.423  44.153  11.418
26196W        W97812   2.221  12.227  13.202
26197W        W97813  43.244  26.248  14.736
26198W        W97814  33.574  22.014   1.287
26199W        W97815  34.626  22.217  12.882
26200W        W97816  37.902  22.216   2.712
26201W        W97817  16.871  23.206  14.852
26202W        W97818  13.586   1.278  14.874
26203W        W97819  36.437  22.932  12.903
26204W        W97820  43.014  21.038   1.105
26205W        W97821  23.936  35.336  13.247
26206W        W97822   1.238  40.823  14.394
26207W        W97823   9.863   3.765  13.021
26208W        W97824   3.839  27.248   1.789
26209W        W97825  19.604  32.040  11.080
26210W        W97826  23.248  40.975   4.109
26211W        W97827  26.658  44.048   1.322
26212W        W97828  35.047   4.877   0.456
26213W        W97829  10.888  34.469   3.717
26214W        W97830  24.870  38.521   2.737
26215W        W97831   5.773  21.650   3.270
26216W        W97832  19.031   3.691  13.926
26217W        W97833  22.082  18.259   3.623
26218W        W97834  11.906  18.296   0.812
26219W        W97835  24.648  37.664  14.019
26220W        W97836  20.522   4.381  14.748
26221W        W97837  10.636   5.358   3.316
26222W        W97838  33.421  36.508   2.410
26223W        W97839  11.109   9.325   0.859
26224W        W97840  24.197  21.690   0.301
26225W        W97841  35.453  44.149  10.706
26226W        W97842  35.521  21.821   1.309
26227W        W97843  37.267  39.961  10.890
26228W        W97844  24.062  41.062  11.372
26229W        W97845   8.748  35.332   3.299
26230W        W97846   3.182  28.015   0.981
26231W        W97847  23.971  19.866  10.777
26232W        W97848  32.478  18.797  14.968
26233W        W97849  33.820   8.578  13.774
26234W        W97850  41.193  12.130  12.334
26235W        W97851  38.951  23.572   3.590
26236W        W97852  13.241   3.698  13.856
26237W        W97853  26.469  32.474   2.356
26238W        W97854   2.377  35.826   0.947
26239W        W97855  15.683  25.890  11.555
26240W        W97856   9.533  35.079   2.786
26241W        W97857  21.671  30.288   0.826
26242W        W97858  28.003  11.254   0.799
26243W        W97859  29.082  40.787   1.602
26244W        W97860   2.974   4.715  11.196
26245W        W97861  23.699  27.740   1.493
26246W        W97862   4.908   5.471   0.449
26247W        W97863  43.781  14.959   0.053
26248W        W97864  14.680  32.581  14.308
26249W        W97865  19.081  39.502   3.306
26250W        W97866  19.922  40.950  14.339
26251W        W97867   6.955  38.772   0.312
26252W        W97868  43.925  37.873   1.583
26253W        W97869   8.213  43.508  14.992
26254W        W97870  34.564  15.306  12.024
26255W        W97871  34.004  12.263  14.949
26256W        W97872  39.053  29.397   3.592
26257W        W97873  12.334  11.239   3.379
26258W        W97874  10.753   1.392  11.988
26259W        W97875  20.975  37.343   3.794
26260W        W97876  43.736  32.200  13.872
26261W        W97877  29.943  34.467  14.985
26262W        W97878  30.903  11.738  12.962
26263W        W97879   4.460  38.756  11.106
26264W        W97880  18.611   1.684   0.253
26265W        W97881   1.190  16.813   3.902
26266W        W97882  41.473  21.058   3.023
26267W        W97883  12.353  11.274   1.120
26268W        W97884  12.335   7.627  10.779
26269W        W97885  23.229  27.254   4.200
26270W        W97886  38.289  22.632  10.434
26271W        W97887  31.908  16.045   4.138
26272W        W97888  36.739  35.573  12.583
26273W        W97889  18.313  25.406  13.974
26274W        W97890  19.829   6.384  14.233
26275W        W97891   0.368   5.454  10.638
26276W        W97892  29.157  17.539  14.851
26277W        W97893  18.654  26.563   2.447
26278W        W97894  20.707  20.710  11.614
26279W        W97895  44.471  22.591  13.961
26280W        W97896  34.603   7.922   0.019
26281W        W97897  22.656   0.781  14.292
26282W        W97898  20.394  10.170   2.703
26283W        W97899   2.228  44.259  12.403
26284W        W97900  42.404  25.964  13.853
26285W        W97901  19.704  28.044   0.019
26286W        W97902  20.670  33.403  14.435
26287W        W97903  40.871   1.512   0.790
26288W        W97904  20.763  28.496   0.759
26289W        W97905   6.263  15.158   4.522
26290W        W97906  23.961  43.851  14.335
26291W        W97907   7.825  38.816   4.101
26292W        W97908  23.334  11.049  13.536
26293W        W97909   4.709  40.401  13.110
26294W        W97910  10.111  22.533   0.676
26295W        W97911  32.205  39.358   0.329
26296W        W97912   7.067  12.348   2.269
26297W        W97913  15.520  42.502  14.496
26298W        W97914  17.383  13.175  11.494
26299W        W97915  26.633  18.553  11.670
26300W        W97916   7.979  25.569  14.370
26301W        W97917   7.302   6.732  10.966
26302W        W97918  29.117  27.429  14.792
26303W        W97919  29.490   3.152   3.266
26304W        W97920  26.628  38.051   3.188
26305W        W97921  11.953  28.683   3.864
26306W        W97922  32.044  10.107  14.851
26307W        W97923  34.968  41.327   2.709
26308W        W97924  44.434  13.039   0.689
26309W        W97925  10.134   8.912  12.002
26310W        W97926  29.113  32.870  13.652
26311W        W97927  35.897  13.741  12.534
26312W        W97928   5.622   7.340  12.980
26313W        W97929   8.455  32.206   2.891
26314W        W97930  25.980  29.518   0.676
26315W        W97931  12.177  20.601   2.853
26316W        W97932  43.307   2.065  14.086
26317W        W97933  39.743   2.694  13.335
26318W        W97934  33.425  35.894   2.399
26319W        W97935   2.799   3.761  12.726
26320W        W97936  12.884  11.215   1.819
26321W        W97937   3.808  25.550   4.466
26322W        W97938  35.972  27.547  11.423
26323W        W97939   1.838  12.772   2.209
26324W        W97940  41.560  32.373  12.805
26325W        W97941  39.024  11.101   1.434
26326W        W97942  12.615  30.525   1.881
26327W        W97943  34.092  28.684  12.185
26328W        W97944   1.270  41.905   3.140
26329W        W97945  41.951  20.805  11.206
26330W        W97946  17.372  32.154  12.902
26331W        W97947  21.122  27.210  11.957
26332W        W97948  21.668  23.024  12.096
26333W        W97949  18.313  30.414  12.619
26334W        W97950  10.131  21.733   3.272
26335W        W97951  39.891  25.505  11.558
26336W        W97952  10.078  27.843   5.006
26337W        W97953  40.380  29.061   3.005
26338W        W97954  33.636  35.269  11.448
26339W        W97955  43.609   2.639  13.181
26340W        W97956   8.495  22.708  12.584
26341W        W97957  12.627  25.545  14.369
26342W        W97958  23.164  34.432   3.713
26343W        W97959  27.901  29.601  12.449
26344W        W97960  32.481  25.176   2.736
26345W        W97961   4.408  41.100   4.714
26346W        W97962   7.792  39.324   4.149
26347W        W97963  34.018  44.011   2.193
26348W        W97964  33.612  20.196   3.080
26349W        W97965  37.915  16.253  10.564
26350W        W97966  33.559  23.746   2.664
26351W        W97967  29.953  24.915  14.742
26352W        W97968  33.086  15.398   4.389
26353W        W97969  25.230  43.148  10.890
26354W        W97970  34.251  14.278  10.606
26355W        W97971  17.287  40.615  10.556
26356W        W97972  38.768  38.372   2.189
26357W        W97973  40.099   2.982   5.011
26358W        W97974   7.616  37.024  14.252
26359W        W97975  20.113   5.956   0.786
26360W        W97976  37.274  10.769   4.235
26361W        W97977  19.595  25.620  11.611
26362W        W97978  27.631   7.407  10.617
26363W        W97979   1.935  15.843   0.330
26364W        W97980  40.618   1.010   3.730
26365W        W97981  19.803  42.433  10.660
26366W        W97982  29.043  21.357   1.702
26367W        W97983  11.300  35.998   1.208
26368W        W97984  26.591   5.205  14.284
26369W        W97985  16.356  32.222  14.444
26370W        W97986  33.290  29.552  11.671
26371W        W97987  14.876  18.488   1.430
26372W        W97988  18.310  34.473   3.648
26373W        W97989   7.167  44.277  12.061
26374W        W97990   9.123  18.182   3.283
26375W        W97991  28.345  33.365  12.085
26376W        W97992  23.100  12.855  13.036
26377W        W97993  15.654  41.672  14.823
26378W        W97994  42.428  24.555   2.178
26379W        W97995   9.720  33.757  12.489
26380W        W97996  42.536  18.056   0.237
26381W        W97997   7.395  41.284  12.890
26382W        W97998  39.729  43.284  12.801
26383W        W97999  20.044   0.763   9.987
26384W        W98000   4.653   7.737  12.793
26385W        W98001  26.349   9.546  11.103
26386W        W98002   4.749   1.971   2.226
26387W        W98003  37.116  14.409   0.245
26388W        W98004  23.070  32.571   3.162
26389W        W98005  38.349  19.948   2.857
26390W        W98006  18.839  20.176  14.988
26391W        W98007  16.538  29.044   3.674
26392W        W98008  27.620  34.635   1.805
26393W        W98009  13.594   4.467  12.030
26394W        W98010   9.656  15.879   1.764
26395W        W98011  32.813  42.288   4.913
26396W        W98012  28.365  10.161  10.248
26397W        W98013  41.045  42.570  14.911
26398W        W98014   4.277  14.658   3.837
26399W        W98015   8.344  43.333  12.076
26400W        W98016  44.059  18.643   4.366
26401W        W98017  12.879  16.260  11.456
26402W        W98018  34.117  10.666  12.610
26403W        W98019  25.728  24.131  10.627
26404W        W98020   3.900  38.880  14.337
26405W        W98021   1.937  35.411  10.758
26406W        W98022  28.985  33.024   2.115
26407W        W98023  39.827  33.058  14.832
26408W        W98024   9.883  35.431   2.667
26409W        W98025  23.728   6.328  11.608
26410W        W98026  15.298  22.624   3.221
26411W        W98027  42.255  16.329  11.132
26412W        W98028   2.204  42.575  10.350
26413W        W98029  32.873   0.892  11.938
26414W        W98030  37.310  43.597  13.479
26415W        W98031  14.604  24.952   2.914
26416W        W98032   9.976  38.487  13.818
26417W        W98033   2.455  30.030  14.948
26418W        W98034  33.858  14.456   1.329
26419W        W98035  27.117  25.603  14.828
26420W        W98036  27.610  28.540   3.185
26421W        W98037   5.718  25.595   2.929
26422W        W98038  14.263   2.470  10.436
26423W        W98039   7.767  36.179  10.272
26424W        W98040  18.144  24.113  14.535
26425W        W98041  24.025  11.016  14.140
26426W        W98042  32.614  14.141   4.467
26427W        W98043  13.381   3.198  10.693
26428W        W98044  16.593  30.603  13.899
26429W        W98045  12.772  14.955  12.079
26430W        W98046  38.105  40.339  11.089
26431W        W98047  11.843  44.781   4.577
26432W        W98048  41.076   3.446   2.116
26433W        W98049   9.555   0.536   0.497
26434W        W98050  16.152  36.617   1.276
26435W        W98051  19.309  14.866  14.429
26436W        W98052  16.390   6.610   0.366
26437W        W98053  21.385  15.230  10.634
26438W        W98054  10.198  30.568  14.998
26439W        W98055  19.210   6.408   4.779
26440W        W98056   1.966   9.146  13.878
26441W        W98057   6.856  21.968   1.342
26442W        W98058  12.643   4.919  14.017
26443W        W98059   3.253  22.495  13.479
26444W        W98060  15.595   6.240   1.245
26445W        W98061   2.431   9.763  12.680
26446W        W98062   7.538  23.639   3.117
26447W        W98063   6.057  12.935  14.517
26448W        W98064   5.045  39.461   3.350
26449W        W98065  15.823  27.554   2.175
26450W        W98066  18.952   2.964   0.773
26451W        W98067   9.364  37.585   2.642
26452W        W98068  22.699   4.450   2.859
26453W        W98069  11.341  25.122   0.442
26454W        W98070  18.647  18.795  13.120
26455W        W98071  23.138  13.121   2.289
26456W        W98072  29.039  44.579  12.955
26457W        W98073  11.331  38.751  12.529
26458W        W98074  37.836  37.508  10.758
26459W        W98075   8.406  25.096   1.886
26460W        W98076  41.351  11.782  14.713
26461W        W98077  28.196  23.194  12.398
26462W        W98078  28.087  18.655   1.194
26463W        W98079  29.438   1.392  14.411
26464W        W98080  13.534  15.858   1.818
26465W        W98081  22.234   1.541  11.830
26466W        W98082   7.352  21.662  13.572
26467W        W98083   6.763  13.932   4.742
26468W        W98084  34.389  37.844  14.671
26469W        W98085  14.120   4.022   1.900
26470W        W98086   8.460  17.238   4.612
26471W        W98087  11.523   9.505  14.917
26472W        W98088  37.058   5.761   3.728
26473W        W98089   8.661  30.505  14.585
26474W        W98090  10.429   1.857   0.349
26475W        W98091  40.992  17.524  11.209
26476W        W98092   6.619  25.061   5.095
26477W        W98093   5.352  15.628   3.250
26478W        W98094  15.196  42.378  13.842
26479W        W98095   8.736  34.580   4.892
26480W        W98096   0.825   8.226  11.479
26481W        W98097   8.895  24.631  10.819
26482W        W98098  25.029  27.460  10.960
26483W        W98099  14.924  21.056   0.420
26484W        W98100  15.344  43.315  14.976
26485W        W98101  19.775  19.561  12.497
26486W        W98102   0.978  27.533   1.935
26487W        W98103  19.493   0.332   1.393
26488W        W98104  16.700   6.687  13.900
26489W        W98105  37.585  40.574   4.128
26490W        W98106   1.604  19.533   0.249
26491W        W98107  28.927  25.703   3.126
26492W        W98108  41.298  11.139   4.615
26493W        W98109   5.142  39.045   1.184
26494W        W98110  17.164  13.650   4.137
26495W        W98111  22.694  19.901   4.142
26496W        W98112  31.421  17.536  13.316
26497W        W98113   7.449  29.685  13.373
26498W        W98114  44.474  12.264  13.286
26499W        W98115  27.690  35.085   2.809
26500W        W98116  30.985  34.157   4.127
26501W        W98117   4.968  13.196   4.780
26502W        W98118  44.969  14.592  14.421
26503W        W98119  35.900  20.662   2.380
26504W        W98120  16.148  12.471  14.029
26505W        W98121  23.627  31.631   0.002
26506W        W98122  39.769  30.745   1.237
26507W        W98123   6.875  39.897   1.370
26508W        W98124   4.074  30.616   3.217
26509W        W98125   2.877  29.407   4.090
26510W        W98126  35.323  11.205  12.567
26511W        W98127  33.010  37.960   3.707
26512W        W98128  16.792  19.482   1.140
26513W        W98129   9.786  12.374  11.160
26514W        W98130  18.695  31.661   0.634
26515W        W98131  18.199  32.140   2.987
26516W        W98132  36.915   9.856  14.260
26517W        W98133  16.123  32.846   4.562
26518W        W98134  15.130  25.921   1.814
26519W        W98135  41.865  26.504  11.124
26520W        W98136   6.005  35.423   1.244
26521W        W98137  25.824  34.449  13.504
26522W        W98138   9.410  44.822   0.389
26523W        W98139  40.038  44.390  12.794
26524W        W98140  17.051  41.987  14.557
26525W        W98141  12.380  26.160  11.683
26526W        W98142  18.559  15.100   2.607
26527W        W98143  34.958  18.718   0.465
26528W        W98144   2.512  23.152   1.832
26529W        W98145  11.440  14.239   2.244
26530W        W98146   2.519   4.432   1.890
26531W        W98147  25.107  21.315  11.126
26532W        W98148  17.253  22.632   4.098
26533W        W98149   6.673  40.423   3.101
26534W        W98150  39.553  37.816  14.491
26535W        W98151  44.715  24.911   4.006
26536W        W98152  18.357  18.278   4.563
26537W        W98153  22.121  41.831   3.390
26538W        W98154  16.198  12.819   1.807
26539W        W98155  25.474  36.384   4.779
26540W        W98156  28.553  23.815   4.878
26541W        W98157  44.987  29.080  12.422
26542W        W98158   2.791  31.601   3.936
26543W        W98159  20.156  23.219   1.974
26544W        W98160  35.374   6.500  13.935
26545W        W98161   5.404  41.649  11.473
26546W        W98162  43.510  36.303   0.423
26547W        W98163  10.727  21.260  11.152
26548W        W98164  11.275  25.275  14.910
26549W        W98165  41.305  17.986   2.627
26550W        W98166  21.518  16.390   0.179
26551W        W98167   6.368  33.670  11.691
26552W        W98168   8.442  20.256   4.315
26553W        W98169   0.784  15.706   1.953
26554W        W98170   4.416  24.560  13.446
26555W        W98171  44.258  12.653   2.306
26556W        W98172  21.519  13.834   3.289
26557W        W98173   1.179   1.993  12.061
26558W        W98174  22.756  30.587   0.926
26559W        W98175  44.837  38.521  11.543
26560W        W98176  37.387   0.756   0.267
26561W        W98177  12.697   0.910   1.789
26562W        W98178  22.576   7.587  12.366
26563W        W98179  43.980   6.291   4.632
26564W        W98180  34.842  37.032   3.157
26565W        W98181  35.009  18.792   4.580
26566W        W98182  40.400   3.730   1.486
26567W        W98183  14.742  17.994   1.349
26568W        W98184  32.701  41.081   4.395
26569W        W98185  10.263  37.883   1.862
26570W        W98186  43.170   1.410  10.533
26571W        W98187  22.061  12.117  14.826
26572W        W98188   9.250  26.136  13.601
26573W        W98189   9.765   1.459  13.999
26574W        W98190  25.084  20.582   1.736
26575W        W98191  13.207   1.871  13.032
26576W        W98192  37.849  15.115   2.927
26577W        W98193  20.599  11.665   1.004
26578W        W98194  11.123  30.865   2.312
26579W        W98195  29.500   1.457   2.676
26580W        W98196  17.729  42.475  11.111
26581W        W98197  38.114  28.665  13.096
26582W        W98198  22.043   5.840   3.726
26583W        W98199   3.074  43.611   1.303
26584W        W98200  21.769  19.526  11.139
26585W        W98201  19.386  44.352   4.068
26586W        W98202   8.819  26.247   2.215
26587W        W98203   1.459   5.595  11.079
26588W        W98204  34.232   4.674  13.049
26589W        W98205  14.665  20.252   4.599
26590W        W98206   3.181  12.342  14.465
26591W        W98207  11.292   2.499  13.982
26592W        W98208  31.121  21.023  14.844
26593W        W98209  44.672  16.660  10.643
26594W        W98210  15.594  15.665   1.650
26595W        W98211  38.931   5.568  10.141
26596W        W98212  36.006  44.958  14.446
26597W        W98213  35.217  37.119  14.536
26598W        W98214   5.259  15.575  11.959
26599W        W98215   6.408  32.172   3.799
26600W        W98216  35.643  23.926   0.510
26601W        W98217  10.484  16.096  11.109
26602W        W98218   7.687  31.371  13.334
26603W        W98219  12.191   2.727  11.770
26604W        W98220  13.237  20.207   1.179
26605W        W98221  33.702  20.797  12.556
26606W        W98222  28.617   2.477  13.313
26607W        W98223  18.733   0.894   1.384
26608W        W98224  33.762  42.849  12.158
26609W        W98225  13.391  18.194   0.530
26610W        W98226  39.980  20.107  11.708
26611W        W98227  20.605   8.798   4.675
26612W        W98228  35.633  42.544  14.919
26613W        W98229   6.668   8.666  10.462
26614W        W98230  38.053  23.245  14.462
26615W        W98231  17.559  16.710   3.212
26616W        W98232  27.606  21.673   3.300
26617W        W98233  15.231  33.540  14.104
26618W        W98234   3.842   6.162   0.802
26619W        W98235   9.705  37.156   0.793
26620W        W98236  35.963  28.521   4.700
26621W        W98237  33.006  26.126   2.258
26622W        W98238  24.269  29.532  14.761
26623W        W98239  37.879  14.246  10.563
26624W        W98240  31.071  19.686  11.634
26625W        W98241   3.436   6.798  10.601
26626W        W98242  35.046  44.330   0.519
26627W        W98243  27.958  15.583  12.557
26628W        W98244   8.172  16.960   0.957
26629W        W98245  34.259  21.506  13.525
26630W        W98246  15.850  20.018  14.858
26631W        W98247  42.342  36.268  12.443
26632W        W98248  15.270  28.120   3.269
26633W        W98249   2.261   7.326  11.507
26634W        W98250   3.014  42.455  13.093
26635W        W98251  26.440  34.106   4.263
26636W        W98252  44.485  36.273   2.713
26637W        W98253  34.582  31.154  13.368
26638W        W98254  30.460  10.663   2.453
26639W        W98255   1.194  20.228   0.909
26640W        W98256  36.638  39.337  10.267
26641W        W98257  24.567  34.610   0.231
26642W        W98258  28.920  35.836  12.932
26643W        W98259  10.717  39.902   1.020
26644W        W98260  26.150  37.506   2.580
26645W        W98261   1.988  10.902  13.411
26646W        W98262   1.849  10.342   0.859
26647W        W98263  40.080  15.261  14.545
26648W        W98264  25.996  22.618   0.506
26649W        W98265  43.520  15.731  11.531
26650W        W98266   3.882  17.552  14.795
26651W        W98267  37.494  20.061   0.973
26652W        W98268  19.098  32.479  11.976
26653W        W98269   9.474  44.648  14.001
26654W        W98270   0.745  18.699  13.879
26655W        W98271  28.987  13.582  14.804
26656W        W98272   3.137  37.069  11.332
26657W        W98273  26.597  42.588  10.697
26658W        W98274  38.652  33.922  10.779
26659W        W98275  11.343  31.370  14.895
26660W        W98276  36.314  28.639  12.999
26661W        W98277  43.797  16.361   1.162
26662W        W98278   3.837  19.559   5.262
26663W        W98279   1.974  16.167  14.940
26664W        W98280  25.256  14.763  13.013
26665W        W98281  32.537  29.619   3.724
26666W        W98282  21.289  34.928  13.626
26667W        W98283  28.110  21.983  13.112
26668W        W98284  36.577   4.774   2.323
26669W        W98285  32.924  24.638  11.010
26670W        W98286  26.312   9.602   1.886
26671W        W98287  22.735  42.296   3.791
26672W        W98288  32.405  35.426  14.041
26673W        W98289  26.535  42.040  11.534
26674W        W98290  33.627   3.069   3.133
26675W        W98291  12.873  36.861   1.511
26676W        W98292   0.371  42.524   0.972
26677W        W98293  14.234  14.691   3.728
26678W        W98294  34.174  22.236   0.470
26679W        W98295   6.333  15.580   4.831
26680W        W98296  44.805  43.410   1.505
26681W        W98297   2.470  25.020   1.335
26682W        W98298   9.340  26.116   0.542
26683W        W98299  31.303   5.329  13.866
26684W        W98300  42.759  25.937  12.046
26685W        W98301   6.989  26.109  10.761
26686W        W98302  14.167  18.588  10.639
26687W        W98303  17.597  14.869   4.262
26688W        W98304   5.165  34.002   2.356
26689W        W98305   0.778  16.477   2.417
26690W        W98306  30.374  10.314   4.583
26691W        W98307  35.130   6.018  10.593
26692W        W98308  11.712   6.691   3.050
26693W        W98309  16.594  34.368  12.041
26694W        W98310  31.689   9.462  12.088
26695W        W98311  40.078   7.325   4.168
26696W        W98312  29.068  37.302  14.365
26697W        W98313  31.527  17.981  12.448
26698W        W98314  37.336  39.344  14.319
26699W        W98315  29.339  42.424  10.779
26700W        W98316   8.470   4.800   4.368
26701W        W98317  29.459   6.392   1.363
26702W        W98318  36.092  14.136   3.637
26703W        W98319  10.567  17.490   1.753
26704W        W98320  37.748   2.964   2.649
26705W        W98321  12.642  30.067  11.549
26706W        W98322  32.140   2.950  14.454
26707W        W98323  34.298  44.977  13.646
26708W        W98324  22.173  36.432   2.456
26709W        W98325  38.032  23.516   4.146
26710W        W98326   9.906  30.133  14.371
26711W        W98327  33.130  34.787   2.260
26712W        W98328  18.256  43.417  12.092
26713W        W98329  37.702  12.124   1.178
26714W        W98330  14.055   6.870   0.942
26715W        W98331  27.882  11.702   3.633
26716W        W98332  32.008  31.075  14.319
26717W        W98333  25.653  20.608   3.774
26718W        W98334  33.358   2.794   0.378
26719W        W98335  11.370   8.746   3.933
26720W        W98336   8.913  36.514  12.917
26721W        W98337  10.393  14.280   3.380
26722W        W98338  27.130  28.666  12.874
26723W        W98339   7.731  39.082  13.883
26724W        W98340  21.753  27.460  12.904
26725W        W98341  41.527  12.840   2.841
26726W        W98342  44.868   8.334   2.465
26727W        W98343  21.307  34.109  13.030
26728W        W98344  37.938  40.392  10.584
26729W        W98345  19.147  30.878  14.805
26730W        W98346   8.382  20.661  11.413
26731W        W98347  14.600  35.911  14.986
26732W        W98348  43.539  19.345   0.207
26733W        W98349  38.951  40.448   0.475
26734W        W98350  27.602  30.424  12.125
26735W        W98351   3.137  13.065   1.615
26736W        W98352  10.388   8.818   0.766
26737W        W98353  30.092  25.567   3.300
26738W        W98354  26.568  20.537   3.886
26739W        W98355  11.065  42.108  14.787
26740W        W98356  44.051  15.644  11.351
26741W        W98357  44.494  14.837  14.023
26742W        W98358   8.814  25.494   4.609
26743W        W98359  34.960  27.221   0.214
26744W        W98360  15.519   3.492   1.919
26745W        W98361  42.847  13.231  12.379
26746W        W98362  32.106   8.081   1.187
26747W        W98363  33.409  39.338  13.734
26748W        W98364  35.039  38.315  14.723
26749W        W98365   1.958   9.423   3.237
26750W        W98366  41.570  37.514   0.885
26751W        W98367  41.730   4.337  10.542
26752W        W98368  19.751  14.624   2.237
26753W        W98369  28.074  38.538  12.346
26754W        W98370  15.791  40.335   1.815
26755W        W98371   2.389  25.926   4.493
26756W        W98372  25.292  12.630  11.525
26757W        W98373  23.465  43.447  11.072
26758W        W98374  40.223  41.427  13.902
26759W        W98375   6.788  30.361   1.850
26760W        W98376  18.358  43.877  11.903
26761W        W98377  37.540  19.665   4.210
26762W        W98378  23.679  23.493   1.491
26763W        W98379  10.811   4.289   4.175
26764W        W98380  43.032   7.979   1.873
26765W        W98381  10.279  23.667  11.676
26766W        W98382  11.429  27.080  12.461
26767W        W98383  25.682   3.277  10.936
26768W        W98384   3.515  25.182   0.768
26769W        W98385  37.011  20.567   3.041
26770W        W98386  43.587   7.249  11.511
26771W        W98387  35.602  17.269  11.175
26772W        W98388   5.506   4.627   2.366
26773W        W98389  21.102  11.769  11.539
26774W        W98390  42.490  28.108  13.745
26775W        W98391  13.603  39.938  12.183
26776W        W98392  12.818  34.936   2.374
26777W        W98393  17.775  31.096   2.184
26778W        W98394   9.125   3.058  13.932
26779W        W98395  42.767  38.129   9.801
26780W        W98396  35.458   9.299  13.116
26781W        W98397  12.027   8.269   0.002
26782W        W98398  42.350  18.496   3.309
26783W        W98399  41.746   8.129  11.049
26784W        W98400  28.875  23.052  14.059
26785W        W98401  26.395  10.591  13.068
26786W        W98402   4.816   9.867   0.308
26787W        W98403  11.303   9.834  12.644
26788W        W98404  25.718  20.164   2.208
26789W        W98405  18.800  15.831  12.591
26790W        W98406   2.282   0.334  10.660
26791W        W98407  10.645   6.913  13.360
26792W        W98408  21.543  10.363   1.173
26793W        W98409  11.842   4.724  11.562
26794W        W98410  13.960  33.845   0.306
26795W        W98411  12.403  10.935  12.908
26796W        W98412  31.702  43.675   0.372
26797W        W98413  28.583  37.353  14.744
26798W        W98414  36.832  44.553   1.283
26799W        W98415  33.469  28.694   0.268
26800W        W98416   1.284  27.168   1.719
26801W        W98417   6.657  43.530  11.572
26802W        W98418  36.076  28.056   4.937
26803W        W98419  36.412  21.684  12.655
26804W        W98420  33.191   4.768  11.213
26805W        W98421   7.093   7.830   2.718
26806W        W98422   4.926  14.118  12.227
26807W        W98423  40.434  13.044   2.113
26808W        W98424  29.876  12.201   4.189
26809W        W98425  35.958  34.959  11.135
26810W        W98426  16.667   7.393  11.697
26811W        W98427   4.724  14.113   0.243
26812W        W98428  10.748  29.842  14.942
26813W        W98429   1.988  28.510   2.890
26814W        W98430  13.058  28.636  13.992
26815W        W98431  18.726  12.556   2.679
26816W        W98432   7.354   7.281   4.189
26817W        W98433  39.032  29.897   3.667
26818W        W98434  15.771  18.770  13.973
26819W        W98435  27.666  33.829   1.263
26820W        W98436  11.869  19.819  10.819
26821W        W98437  32.825  38.192   3.158
26822W        W98438  24.250  23.659  11.126
26823W        W98439   8.357  31.109   2.725
26824W        W98440  44.039  24.952  10.707
26825W        W98441  10.728  41.090   2.703
26826W        W98442  20.046  34.761   3.320
26827W        W98443  15.086  36.528  14.483
26828W        W98444  30.368   4.495  11.980
26829W        W98445  10.763   5.904   2.124
26830W        W98446  22.554  37.750   4.207
26831W        W98447  21.350  25.693   4.124
26832W        W98448   5.772  17.789   4.085
26833W        W98449  10.575  38.863   3.650
26834W        W98450  24.983   6.171  13.809
26835W        W98451  38.363  39.855  10.967
26836W        W98452  14.271  43.016   2.158
26837W        W98453  19.307  15.272   2.883
26838W        W98454  35.782  37.586   4.821
26839W        W98455  15.299  13.755   1.194
26840W        W98456  29.994  38.326   1.822
26841W        W98457  30.492   5.736   3.352
26842W        W98458  11.414   8.877  10.642
26843W        W98459  36.539  34.932   3.697
26844W        W98460   6.523  39.067   4.101
26845W        W98461  30.345   9.227   1.938
26846W        W98462  14.816  26.916  12.933
26847W        W98463  27.985  12.744   2.713
26848W        W98464  37.360  24.653   1.934
26849W        W98465  33.916  35.616  13.936
26850W        W98466  35.550  20.328  11.990
26851W        W98467  21.556   4.500   0.743
26852W        W98468  27.220  40.504  11.172
26853W        W98469  30.477  38.450   0.852
26854W        W98470  43.019  28.467   2.107
26855W        W98471  12.369  35.091  13.129
26856W        W98472  31.614  27.284   1.790
26857W        W98473   3.888  29.499   4.423
26858W        W98474  44.865  29.207   2.247
26859W        W98475  31.058   1.345  11.172
26860W        W98476  44.445  40.441   1.193
26861W        W98477  35.133  25.919   0.506
26862W        W98478  38.126  40.871  14.701
26863W        W98479  15.095   4.929   2.761
26864W        W98480  21.741  28.490  14.222
26865W        W98481  29.889  11.633  11.923
26866W        W98482  37.903  41.472   3.207
26867W        W98483  42.261  32.848  14.017
26868W        W98484   6.448  32.468  10.311
26869W        W98485   1.935   1.712  10.577
26870W        W98486   3.574  21.486  14.357
26871W        W98487  13.138  35.318   1.766
26872W        W98488  37.503  12.651   4.296
26873W        W98489  28.388  12.319   3.267
26874W        W98490  32.231  17.622  13.790
26875W        W98491   4.632  34.932  13.908
26876W        W98492  18.763  31.814   4.920
26877W        W98493   1.217   3.404  13.137
26878W        W98494  26.732   7.785  12.465
26879W        W98495   4.881   5.356   3.758
26880W        W98496  22.748  34.932  11.033
26881W        W98497  28.446   1.325  10.942
26882W        W98498  10.885  10.472   0.646
26883W        W98499   2.781  31.990   0.378
26884W        W98500  17.695  18.526  14.677
26885W        W98501   4.016  42.935   4.374
26886W        W98502  33.437  18.568   2.568
26887W        W98503  30.903  30.535   5.084
26888W        W98504  27.814  13.386   4.981
26889W        W98505   8.618   3.224  13.025
26890W        W98506  13.688   8.357   1.180
26891W        W98507  40.257   9.202   3.789
26892W        W98508  11.727  29.027   0.136
26893W        W98509  17.725   8.187  13.944
26894W        W98510  40.533   4.895  12.410
26895W        W98511  25.775  25.149   2.825
26896W        W98512   1.138   7.313  12.909
26897W        W98513  29.041   6.439   0.687
26898W        W98514  15.044  10.095  12.599
26899W        W98515  36.904  27.424  10.536
26900W        W98516  44.833  40.300  10.556
26901W        W98517  17.803   4.719   2.706
26902W        W98518  32.896  21.628  10.581
26903W        W98519  27.675   4.661   1.926
26904W        W98520  32.895  13.739   0.834
26905W        W98521   0.280  39.176  11.684
26906W        W98522   0.277  39.650   3.549
26907W        W98523  19.443  28.133  14.135
26908W        W98524  31.909  12.167  11.453
26909W        W98525  23.667  22.278   3.222
26910W        W98526  40.307  38.919  13.999
26911W        W98527  38.677  32.567   0.227
26912W        W98528   8.776  39.123  14.853
26913W        W98529  28.648  38.800  11.643
26914W        W98530  19.746   4.701  13.915
26915W        W98531  44.349  24.478  11.407
26916W        W98532   2.442  32.345   4.467
26917W        W98533  17.065   4.146  12.110
26918W        W98534  10.177  26.198   1.801
26919W        W98535  33.831  16.155   0.275
26920W        W98536  26.556  16.743   1.191
26921W        W98537  11.800  27.471  13.393
26922W        W98538  39.101   7.273  12.260
26923W        W98539  41.962  32.633   3.339
26924W        W98540  40.400   1.297  13.445
26925W        W98541  11.163  13.205  14.823
26926W        W98542   2.239  19.594  14.049
26927W        W98543  25.175  33.884  14.043
26928W        W98544   2.722  11.726  13.401
26929W        W98545  31.580  42.818   3.562
26930W        W98546   5.140  12.421   3.658
26931W        W98547  26.049   6.746   1.192
26932W        W98548  30.130  16.665   4.291
26933W        W98549  29.976  17.857  14.116
26934W        W98550  30.512  21.038  12.555
26935W        W98551  21.519  10.130  11.939
26936W        W98552  34.677  13.598  12.687
26937W        W98553  28.894  40.647  10.748
26938W        W98554  40.376  34.911   0.245
26939W        W98555  36.827  12.148  12.091
26940W        W98556  22.236  30.269   4.754
26941W        W98557  14.403  44.326   1.716
26942W        W98558  16.078  39.531   1.395
26943W        W98559  24.241   2.401   0.913
26944W        W98560  37.354  12.242   2.583
26945W        W98561   3.377  34.992  12.446
26946W        W98562  44.710   1.000   2.201
26947W        W98563  28.086  36.894   4.147
26948W        W98564   5.356   4.160  13.038
26949W        W98565  12.584  37.088  11.334
26950W        W98566  10.837  40.937   2.229
26951W        W98567  17.834  36.671  12.327
26952W        W98568   9.692   9.441  13.501
26953W        W98569  32.412  38.511   2.264
26954W        W98570  35.925  26.557  12.497
26955W        W98571  22.647  13.694  11.847
26956W        W98572   9.711  35.302   4.366
26957W        W98573  33.317   9.320  10.405
26958W        W98574  11.710  41.508  10.683
26959W        W98575  17.032  43.990   3.840
26960W        W98576  13.197  40.812   0.406
26961W        W98577  39.433  35.462   4.287
26962W        W98578  12.218  14.279   4.679
26963W        W98579  21.702  44.096   4.154
26964W        W98580  21.533  30.604   2.905
26965W        W98581  21.798   8.611  11.588
26966W        W98582  37.049   3.750  10.993
26967W        W98583  25.237   8.079  12.584
26968W        W98584  12.601   9.668  14.694
26969W        W98585  35.563  35.504   3.313
26970W        W98586  15.801  32.368  11.106
26971W        W98587   5.487   6.831  14.907
26972W        W98588  24.540   2.414   2.865
26973W        W98589  37.152  22.567  11.883
26974W        W98590  44.799   9.770   2.366
26975W        W98591  33.651  43.960  12.465
26976W        W98592   8.352   8.903   0.918
26977W        W98593  12.866  33.067   0.368
26978W        W98594  12.307  26.910   4.125
26979W        W98595  25.508  29.601  13.370
26980W        W98596   7.918  38.902  14.933
26981W        W98597  30.374  10.293  13.288
26982W        W98598  38.934  44.451  14.824
26983W        W98599   4.193  39.769   3.161
26984W        W98600  18.853  28.574  13.192
26985W        W98601  27.911  28.572   3.625
26986W        W98602   4.968  21.542   0.390
26987W        W98603   9.715   0.513  12.033
26988W        W98604  32.411   0.019  10.940
26989W        W98605  18.370  25.155   0.046
26990W        W98606   1.283  42.896   2.932
26991W        W98607  40.501  36.839  12.875
26992W        W98608  28.649  19.579   5.025
26993W        W98609  23.112  34.356  12.692
26994W        W98610  35.019  42.203   0.051
26995W        W98611  33.462  21.947  12.020
26996W        W98612  27.508  18.590   0.514
26997W        W98613  17.711  12.159   2.952
26998W        W98614  11.064   5.180  12.064
26999W        W98615  37.805  30.058  14.250
27000W        W98616  18.848  44.157   0.444
27001W        W98617   4.205  29.496   0.793
27002W        W98618  35.741  27.251  14.455
27003W        W98619  21.666  19.694  12.075
27004W        W98620  14.175  15.023  12.967
27005W        W98621  29.520  29.683  14.937
27006W        W98622  21.545  12.753   0.380
27007W        W98623  28.064  25.000   9.877
27008W        W98624   3.502  10.623   0.489
27009W        W98625  44.528  41.289   3.227
27010W        W98626   4.571  18.375  14.722
27011W        W98627  16.022  16.052   9.439
27012W        W98628  37.908  26.928   3.827
27013W        W98629  16.959  33.091  12.337
27014W        W98630   9.878  42.337  12.612
27015W        W98631   5.957   6.718  12.531
27016W        W98632  39.419  21.786   1.283
27017W        W98633  40.516   0.539  10.684
27018W        W98634  27.230  10.750   0.753
27019W        W98635  17.710   6.587   3.701
27020W        W98636  19.991  15.167   0.878
27021W        W98637  30.664  27.692  11.611
27022W        W98638  19.965  23.721   1.874
27023W        W98639  43.903  14.364  13.742
27024W        W98640  29.987  28.440   2.323
27025W        W98641  24.229   9.656  13.816
27026W        W98642  39.861  43.689   3.145
27027W        W98643   1.363  18.097  14.008
27028W        W98644  13.056   7.678   2.329
27029W        W98645  42.960   7.279   0.230
27030W        W98646  41.950  17.560  13.956
27031W        W98647  40.272  39.006   4.606
27032W        W98648  27.141   1.457   4.018
27033W        W98649  12.631  41.607   2.906
27034W        W98650  37.110  18.261   3.181
27035W        W98651  21.579  31.724  12.977
27036W        W98652   4.270  15.353   4.937
27037W        W98653  30.114   1.025   1.448
27038W        W98654  40.303  29.465   3.780
27039W        W98655  24.859  36.576   1.974
27040W        W98656  44.555  41.470  10.353
27041W        W98657  42.322  38.295   4.227
27042W        W98658  21.496  44.289   3.719
27043W        W98659  44.892  30.051  13.370
27044W        W98660  21.581  15.731   0.915
27045W        W98661   3.706  15.689  11.370
27046W        W98662  21.476   1.968   3.615
27047W        W98663  24.138   7.983  10.656
27048W        W98664  39.430  11.182  12.012
27049W        W98665  10.196  11.673   1.889
27050W        W98666  33.956   0.250   2.824
27051W        W98667  31.179  20.070   4.075
27052W        W98668  31.067  26.726  13.591
27053W        W98669  11.817  38.271   2.349
27054W        W98670   4.998   6.249   1.824
27055W        W98671  38.242   7.798  13.669
27056W        W98672  20.818   6.647   3.937
27057W        W98673  21.126  18.529   0.978
27058W        W98674   1.898   5.660   4.143
27059W        W98675  41.083  30.952  13.001
27060W        W98676  38.641  42.469   1.292
27061W        W98677   3.267  23.946   0.545
27062W        W98678   3.008  33.315  13.004
27063W        W98679   2.608  10.104   3.347
27064W        W98680  37.140   5.681   3.222
27065W        W98681  34.353  36.609  13.243
27066W        W98682  26.321  32.171  10.539
27067W        W98683  44.396  35.807   0.451
27068W        W98684   6.275  29.570   3.735
27069W        W98685   2.055   7.362  12.742
27070W        W98686  27.206  11.072  11.920
27071W        W98687  37.073  35.557   0.389
27072W        W98688   2.697  34.709   3.986
27073W        W98689  23.229   8.863  12.610
27074W        W98690   5.754  38.816   1.916
27075W        W98691   6.168   1.707  12.533
27076W        W98692  38.109   5.460   2.082
27077W        W98693  26.783  16.247  12.989
27078W        W98694  33.800   1.926   5.249
27079W        W98695  40.264  26.198  11.541
27080W        W98696   7.448  29.289  11.052
27081W        W98697   7.639  28.727  13.294
27082W        W98698  34.697  35.794   1.332
27083W        W98699  16.010  24.690  13.568
27084W        W98700  43.364   2.453  14.416
27085W        W98701  29.746  39.014  13.510
27086W        W98702  29.056  41.063   2.540
27087W        W98703  14.859  18.219   3.192
27088W        W98704  40.949  34.547  10.399
27089W        W98705  28.462  28.346   1.328
27090W        W98706  28.437  15.572  11.633
27091W        W98707  10.251  31.323  12.411
27092W        W98708  44.089  24.622   1.421
27093W        W98709   4.206  40.339  12.973
27094W        W98710   1.976  24.591  13.136
27095W        W98711  41.058  19.765   2.246
27096W        W98712  29.103   6.511  11.950
27097W        W98713  18.200  12.940  11.943
27098W        W98714  10.854  30.944   2.769
27099W        W98715  30.293  16.094   2.259
27100W        W98716   4.313   0.940   0.924
27101W        W98717  40.844  33.573   2.232
27102W        W98718  20.971  16.392  10.456
27103W        W98719  23.707   9.131  11.104
27104W        W98720   2.826  18.522   1.744
27105W        W98721   8.308  43.864  14.403
27106W        W98722  30.088  24.772  13.379
27107W        W98723  16.092  25.936  10.432
27108W        W98724  36.437   6.707  14.887
27109W        W98725   3.220   4.431  13.471
27110W        W98726  10.800   7.328  12.411
27111W        W98727  13.168  10.409  11.069
27112W        W98728  31.026  29.083  14.951
27113W        W98729  43.678  39.510  12.113
27114W        W98730  14.269  35.513  14.845
27115W        W98731  34.366  13.999  12.637
27116W        W98732  38.591  35.968   3.812
27117W        W98733   9.990  27.000   3.491
27118W        W98734  20.964   8.737   1.621
27119W        W98735  40.196  43.792   2.176
27120W        W98736  11.478  20.006   3.133
27121W        W98737  30.174   6.835   1.472
27122W        W98738  19.220   4.675  14.039
27123W        W98739  37.646   0.223  12.686
27124W        W98740   6.987  26.966   1.733
27125W        W98741   2.304  35.667  12.854
27126W        W98742   9.278  28.431  11.008
27127W        W98743   6.267  16.702   0.084
27128W        W98744  23.459  43.037   1.842
27129W        W98745  43.487  39.294  13.964
27130W        W98746  33.185  20.087   3.378
27131W        W98747  31.056  24.746  14.987
27132W        W98748   1.018   9.773   3.722
27133W        W98749  38.083  34.686  11.432
27134W        W98750  18.015  26.586   1.324
27135W        W98751  25.373  35.808   2.069
27136W        W98752  14.717  30.309   1.146
27137W        W98753  19.221  33.126  13.091
27138W        W98754   7.259  36.296  14.676
27139W        W98755  42.806  13.432   1.899
27140W        W98756  24.516  30.608   3.266
27141W        W98757  44.429  30.043  14.620
27142W        W98758  34.136   9.892  11.853
27143W        W98759  20.723  35.010  14.185
27144W        W98760  29.525  38.449  14.776
27145W        W98761   1.158  42.860   2.400
27146W        W98762  42.713   3.876   0.795
27147W        W98763  44.074   6.515  14.229
27148W        W98764  39.868  39.333   2.343
27149W        W98765  15.027  44.972  13.544
27150W        W98766  24.090  40.875  13.896
27151W        W98767  20.609  32.101  13.711
27152W        W98768  28.669   3.707  11.975
27153W        W98769  26.075   1.729   0.710
27154W        W98770  29.892  44.031  13.739
27155W        W98771   9.210  42.592   3.932
27156W        W98772  17.415   1.021  13.886
27157W        W98773  31.723  26.493  13.163
27158W        W98774  16.742  28.339   3.250
27159W        W98775  31.505   7.245   0.294
27160W        W98776  22.011  18.229   4.130
27161W        W98777  42.197  44.525  14.428
27162W        W98778  36.371  32.195   1.852
27163W        W98779  42.815  44.799  13.454
27164W        W98780  14.600   7.354  10.634
27165W        W98781  43.659   0.883   0.531
27166W        W98782  19.554  28.515  14.846
27167W        W98783  25.598  12.487  14.042
27168W        W98784   3.326  37.791  13.251
27169W        W98785  16.284   0.297  13.494
27170W        W98786  38.432  26.362  12.385
27171W        W98787  13.990  44.614  13.534
27172W        W98788  42.929   4.755   4.110
27173W        W98789  29.188  32.632  12.662
27174W        W98790  24.250  32.426   0.284
27175W        W98791  15.022  24.467  10.575
27176W        W98792  40.054  20.006   0.844
27177W        W98793  44.657   3.289   3.544
27178W        W98794  33.326  29.289   4.926
27179W        W98795  26.585  37.333  13.844
27180W        W98796  41.290  38.332  13.431
27181W        W98797  23.010  29.517   2.320
27182W        W98798   7.516  16.315   2.361
27183W        W98799  37.971  14.244  13.758
27184W        W98800  15.132  28.545   2.963
27185W        W98801  39.925  42.302   4.151
27186W        W98802   4.866  27.232   0.262
27187W        W98803  31.078  43.264  11.898
27188W        W98804  40.722   5.980  14.839
27189W        W98805  33.648  12.784   3.842
27190W        W98806  38.345   9.140   1.865
27191W        W98807  35.115  39.077   3.500
27192W        W98808  18.864  21.394   3.582
27193W        W98809   1.216   0.881  11.993
27194W        W98810  37.329  19.372   3.476
27195W        W98811  37.953  28.153   4.342
27196W        W98812  43.877   4.507   2.722
27197W        W98813  36.546  13.397   1.469
27198W        W98814  12.167  34.977   0.751
27199W        W98815  34.318  20.782   1.501
27200W        W98816  29.623  14.627   4.183
27201W        W98817  33.079   1.966  14.453
27202W        W98818  13.271  13.712   1.325
27203W        W98819  23.508  30.060  14.915
27204W        W98820   2.455  31.170   0.228
27205W        W98821  39.923  27.772  13.879
27206W        W98822  34.036  17.952  14.863
27207W        W98823  40.236   2.193   3.948
27208W        W98824  35.398  20.802   2.304
27209W        W98825  19.124   9.076  14.469
27210W        W98826   5.181  40.435   1.244
27211W        W98827  26.782  14.762  11.132
27212W        W98828   0.477  32.487  11.677
27213W        W98829  43.042  16.244   2.394
27214W        W98830  11.267  19.556  13.046
27215W        W98831  15.874   8.412  14.481
27216W        W98832  10.150  33.636   1.316
27217W        W98833  35.988  29.926   3.675
27218W        W98834  37.949  38.856  12.140
27219W        W98835  26.997  20.016   1.266
27220W        W98836  34.899  35.271  10.052
27221W        W98837  35.563  21.529   1.758
27222W        W98838  19.478  43.923   1.364
27223W        W98839  35.122  13.219  10.641
27224W        W98840  30.920  39.387  13.396
27225W        W98841  25.991  36.408  11.096
27226W        W98842  23.074  21.451   1.349
27227W        W98843  25.585  22.746   1.189
27228W        W98844   0.238  14.613   3.209
27229W        W98845  39.077  13.657   4.563
27230W        W98846  16.864  10.606   0.497
27231W        W98847  19.065  34.399  12.130
27232W        W98848  18.152  44.244   1.904
27233W        W98849  36.927  36.772  14.909
27234W        W98850   5.702  40.998  12.500
27235W        W98851  35.196   2.038   0.654
27236W        W98852  23.123  27.037  14.804
27237W        W98853  33.413   2.338   4.084
27238W        W98854  27.637  11.646  12.366
27239W        W98855  17.077  36.464  13.341
27240W        W98856  13.758  14.071  12.355
27241W        W98857  13.593  29.019   1.690
27242W        W98858  38.437  15.843  11.356
27243W        W98859  24.367   0.488   0.864
27244W        W98860  39.225  18.601  12.983
27245W        W98861  44.933   8.683   2.843
27246W        W98862  21.781  40.962   2.791
27247W        W98863  21.446  37.534  11.492
27248W        W98864   0.003  44.338  11.214
27249W        W98865  19.701   5.913  14.032
27250W        W98866  23.714  16.307   1.898
27251W        W98867  25.973  33.670   1.365
27252W        W98868  26.548  33.656  13.241
27253W        W98869  27.992  15.301  11.724
27254W        W98870   7.076  27.612   2.872
27255W        W98871  40.739  16.309  14.928
27256W        W98872  20.799   3.882  11.608
27257W        W98873   8.050  16.272   3.069
27258W        W98874  33.623  12.843   2.772
27259W        W98875  10.736  44.910  10.725
27260W        W98876  21.306  28.696  12.211
27261W        W98877  39.513  32.175  11.866
27262W        W98878  17.270  18.746  14.892
27263W        W98879  42.001  15.723  13.113
27264W        W98880  16.864   6.284   4.640
27265W        W98881  13.557  30.863  10.583
27266W        W98882  13.394  34.577   3.762
27267W        W98883  31.036  42.768  14.829
27268W        W98884  36.506  36.572   3.143
27269W        W98885  22.558  36.625  12.288
27270W        W98886  31.129  22.650   4.575
27271W        W98887  18.218   5.766   0.986
27272W        W98888  36.469  39.193   0.019
27273W        W98889  23.866  27.895   4.161
27274W        W98890   4.747  32.185   3.243
27275W        W98891  28.254  17.727   1.150
27276W        W98892  34.003   1.560  14.477
27277W        W98893   9.462   0.085  13.684
27278W        W98894  37.441  27.503   4.736
27279W        W98895  17.106  30.505  14.767
27280W        W98896  13.031   9.200   3.194
27281W        W98897   5.308  41.239   0.512
27282W        W98898   7.313   8.538   1.951
27283W        W98899  17.015   2.981   4.737
27284W        W98900  16.185  42.365   3.264
27285W        W98901  42.591  30.532  13.535
27286W        W98902  18.007  13.937  14.351
27287W        W98903   5.375  41.965   3.796
27288W        W98904   1.090  43.865  14.255
27289W        W98905  30.411   9.826  11.937
27290W        W98906   7.182  33.043   0.725
27291W        W98907  18.840  38.933  14.816
27292W        W98908  35.048  43.435  11.229
27293W        W98909  13.972  16.521  14.255
27294W        W98910   7.799  25.043  14.570
27295W        W98911  17.589  19.004   2.437
27296W        W98912  27.692  23.675   4.665
27297W        W98913  16.153   2.049  14.410
27298W        W98914  30.859  38.476  13.580
27299W        W98915   6.204  35.417   4.653
27300W        W98916  38.953  10.265   0.259
27301W        W98917  30.149  41.872   2.902
27302W        W98918   2.751  24.036   0.292
27303W        W98919  37.510  30.467  14.355
27304W        W98920  44.438  14.687  12.349
27305W        W98921  39.766  23.213  14.404
27306W        W98922  44.268  32.010  12.433
27307W        W98923  27.078  17.803  10.868
27308W        W98924   2.721  23.316   2.287
27309W        W98925  26.991  23.618   1.263
27310W        W98926  11.916   4.748  14.746
27311W        W98927  31.073   2.287   4.700
27312W        W98928  13.943   5.363   1.344
27313W        W98929  44.243  19.182   2.450
27314W        W98930  28.841  18.642  14.507
27315W        W98931  14.060  30.669   2.933
27316W        W98932   7.218  43.972  10.786
27317W        W98933  40.461  38.080   3.285
27318W        W98934  20.537  13.118   4.126
27319W        W98935  40.227  39.428  13.858
27320W        W98936  21.568  36.310  14.441
27321W        W98937  15.139  13.800  12.578
27322W        W98938  39.192   9.741  13.446
27323W        W98939  13.235   9.205   4.152
27324W        W98940  44.924  34.400   4.199
27325W        W98941  31.140  14.665  13.949
27326W        W98942  29.676  17.614   3.258
27327W        W98943  19.393  17.614  11.201
27328W        W98944  31.914  39.291  13.598
27329W        W98945   8.063  33.682   2.325
27330W        W98946  33.687  23.172   5.067
27331W        W98947   9.250  20.150  11.590
27332W        W98948  36.330  32.949   1.544
27333W        W98949  11.875  19.387  13.863
27334W        W98950   6.025  21.042   0.839
27335W        W98951  41.730  30.584   2.727
27336W        W98952  43.438  36.596   2.641
27337W        W98953  40.822  27.849   3.707
27338W        W98954  20.327  42.910   1.493
27339W        W98955   2.698  32.055   1.274
27340W        W98956  34.150  34.404  14.007
27341W        W98957  36.856  39.374   3.437
27342W        W98958  44.066  25.739   0.765
27343W        W98959  39.169  20.141   1.051
27344W        W98960  33.247  44.279   3.201
27345W        W98961   2.006  25.862  13.217
27346W        W98962  38.963   3.870  11.907
27347W        W98963   8.055  14.184   1.380
27348W        W98964  35.367  34.997  11.946
27349W        W98965  16.506  39.522  12.896
27350W        W98966   1.036  25.630  14.986
27351W        W98967  43.036  23.077   1.384
27352W        W98968  23.254  18.522   0.347
27353W        W98969  23.527   0.956  13.375
27354W        W98970  17.132   9.083  11.976
27355W        W98971  36.870  35.459   1.803
27356W        W98972  36.319  12.276   1.040
27357W        W98973  22.697  29.464  13.585
27358W        W98974  28.205  37.470   4.057
27359W        W98975  16.438  24.937  11.975
27360W        W98976   9.048  41.339   3.220
27361W        W98977  26.805  44.216  13.354
27362W        W98978  22.475   4.918   3.741
27363W        W98979  27.657  23.059   0.354
27364W        W98980  31.967  41.010   1.377
27365W        W98981  26.011   0.329   4.419
27366W        W98982  36.359  12.801   3.870
27367W        W98983   2.517  12.210  10.741
27368W        W98984  14.613   3.277  12.100
27369W        W98985   8.325  24.165   0.888
27370W        W98986  30.589  28.588   0.558
27371W        W98987  10.541  40.220  13.003
27372W        W98988  28.007  20.091  11.063
27373W        W98989  12.105  15.638   0.837
27374W        W98990  21.719   4.127  14.201
27375W        W98991  24.041   9.680  14.879
27376W        W98992  14.557  19.164   2.241
27377W        W98993  24.050  11.493  10.500
27378W        W98994  10.808  22.352  10.206
27379W        W98995  25.582  33.907   4.792
27380W        W98996  15.796  32.096   4.190
27381W        W98997   5.341  10.498   0.688
27382W        W98998  12.330  31.147  13.337
27383W        W98999  13.672  37.379   3.578
27384W        W99000   1.639  24.315   0.331
27385W        W99001  43.721  10.993   0.906
27386W        W99002  18.490  37.548   3.658
27387W        W99003   4.166  43.996  12.432
27388W        W99004  27.951  40.837   1.771
27389W        W99005  37.906  16.356  14.967
27390W        W99006   0.872  23.660   1.965
27391W        W99007  29.093  26.533  14.095
27392W        W99008   0.208  44.789   3.210
27393W        W99009  25.282  27.963  14.377
27394W        W99010   5.355   0.770   0.655
27395W        W99011   0.883   7.175  12.461
27396W        W99012  35.291  35.022  13.332
27397W        W99013   4.427  20.099  12.849
27398W        W99014   5.241  11.075  13.912
27399W        W99015  21.475  17.736   4.678
27400W        W99016  30.686  44.845  12.478
27401W        W99017  36.623   6.636   3.640
27402W        W99018  11.961  30.170   4.768
27403W        W99019   8.554  24.555  13.636
27404W        W99020   4.278  25.682  13.434
27405W        W99021   5.228  15.654   3.753
27406W        W99022  15.094  44.870  10.618
27407W        W99023  30.061  14.574   4.494
27408W        W99024   0.316  34.138   4.528
27409W        W99025  36.921  34.389  12.474
27410W        W99026  20.327  15.221   0.468
27411W        W99027   5.182  25.812   4.176
27412W        W99028   6.362   6.986  14.831
27413W        W99029  36.466   4.455   0.650
27414W        W99030  37.536  20.048  11.147
27415W        W99031  35.051  21.489  12.509
27416W        W99032  44.644  13.986   2.295
27417W        W99033  34.551  21.095  13.797
27418W        W99034  29.615   9.434  12.877
27419W        W99035  39.984  12.276  13.354
27420W        W99036  33.009  36.549  13.927
27421W        W99037   6.309  44.438  13.901
27422W        W99038  14.280  23.064   4.593
27423W        W99039  20.368  27.975  14.420
27424W        W99040  44.899  33.506  12.025
27425W        W99041   7.643  13.437  11.484
27426W        W99042  18.054   5.145  13.363
27427W        W99043  43.294   8.423   4.209
27428W        W99044   7.338   8.795  11.756
27429W        W99045   7.301  11.538   1.967
27430W        W99046   7.724   0.315   3.900
27431W        W99047  28.083   5.914  12.446
27432W        W99048  41.375  33.515  12.327
27433W        W99049  15.832  38.440   0.950
27434W        W99050  41.745  29.501   2.204
27435W        W99051  13.245  31.171   3.963
27436W        W99052   1.006  15.214   0.234
27437W        W99053  25.500  19.844   2.597
27438W        W99054  25.384  21.960   4.503
27439W        W99055  24.215  36.930   3.731
27440W        W99056  38.492  44.691   4.146
27441W        W99057   4.810   8.131  14.978
27442W        W99058  13.583   9.929   0.152
27443W        W99059  31.616  18.982  13.538
27444W        W99060  13.576  40.086  10.680
27445W        W99061  33.462  33.069   2.664
27446W        W99062  29.053   7.894  12.369
27447W        W99063  40.317  22.660  10.266
27448W        W99064   3.948  23.175   4.051
27449W        W99065  27.512  33.597   3.628
27450W        W99066  12.806  18.236   3.891
27451W        W99067  24.099  35.835   0.234
27452W        W99068  28.448  25.199   4.873
27453W        W99069  33.511  32.875  13.992
27454W        W99070  36.601   2.956   3.249
27455W        W99071  30.699   5.514   2.919
27456W        W99072  22.652  10.616  10.930
27457W        W99073  34.356  23.264  10.819
27458W        W99074  37.462   2.683   1.376
27459W        W99075  29.304  14.665  10.263
27460W        W99076  27.128  25.915   2.807
27461W        W99077  28.010  15.315   0.308
27462W        W99078   4.436  16.712   1.417
27463W        W99079  44.451   7.836   0.881
27464W        W99080  43.733  38.115  12.183
27465W        W99081  42.958  14.158  12.544
27466W        W99082  20.796   7.981   3.717
27467W        W99083  21.670  29.304   1.245
27468W        W99084  18.794  24.842   2.263
27469W        W99085  35.414  19.146  11.550
27470W        W99086   8.741  30.374   1.839
27471W        W99087  40.129  37.880  10.413
27472W        W99088  13.199   3.223   1.398
27473W        W99089  26.721  42.273  12.017
27474W        W99090  22.426   9.128  10.579
27475W        W99091  28.992   5.517   4.652
27476W        W99092   0.507  18.098  11.097
27477W        W99093  35.110  42.981  11.047
27478W        W99094  40.249  15.802   3.194
27479W        W99095  37.636  15.705   3.759
27480W        W99096  34.432  21.851  13.191
27481W        W99097  44.561  16.605   0.739
27482W        W99098   9.653  44.223   2.618
27483W        W99099  24.604  13.248   1.261
27484W        W99100  40.961  16.083   1.756
27485W        W99101  37.449  40.414  10.731
27486W        W99102  21.121  27.193   1.729
27487W        W99103  29.482  20.803   1.294
27488W        W99104  38.826  13.153  12.938
27489W        W99105  43.043  21.595   2.342
27490W        W99106   3.359  43.227  13.506
27491W        W99107  29.729  15.632  12.090
27492W        W99108  31.729  41.681  11.584
27493W        W99109  33.294  20.040  10.716
27494W        W99110  24.103  20.120   4.257
27495W        W99111  34.121  14.785   0.819
27496W        W99112   9.126   6.700  13.434
27497W        W99113  28.045  14.440  14.974
27498W        W99114  40.345  19.214   0.739
27499W        W99115   7.303  30.762   0.831
27500W        W99116  17.061   9.768   0.203
27501W        W99117  40.679  41.903  14.206
27502W        W99118  26.188  39.562   1.930
27503W        W99119  32.219   7.836  14.374
27504W        W99120  26.474  13.707   2.908
27505W        W99121  44.485  18.831   4.633
27506W        W99122  13.659  38.922   4.637
27507W        W99123  25.577  29.242   3.714
27508W        W99124  43.536  38.567   5.609
27509W        W99125   9.179  40.077   3.331
27510W        W99126   2.747  33.666   2.416
27511W        W99127  18.794  33.446  13.810
27512W        W99128  18.029  38.132  13.804
27513W        W99129  15.224  39.759  13.012
27514W        W99130  30.179  21.122  10.917
27515W        W99131   5.433   9.077  14.328
27516W        W99132  41.808  21.515   1.931
27517W        W99133  44.286  36.009  12.053
27518W        W99134  14.724   2.000   4.366
27519W        W99135  13.731  42.124   2.138
27520W        W99136  32.191  29.049  14.191
27521W        W99137  35.540  12.349   0.418
27522W        W99138   8.289  44.183  14.017
27523W        W99139  41.564  24.950   4.656
27524W        W99140  30.680   2.232   1.798
27525W        W99141   2.840   4.301  14.424
27526W        W99142  31.414   7.679  13.180
27527W        W99143  18.557   2.911   0.036
27528W        W99144  11.823  25.527   1.359
27529W        W99145  27.963  15.192   2.417
27530W        W99146  14.652  36.453  14.858
27531W        W99147  23.960  14.166   4.134
27532W        W99148   5.247   6.221   0.210
27533W        W99149  37.886  32.402  11.680
27534W        W99150  23.552  27.831   2.806
27535W        W99151  20.626   1.734  11.565
27536W        W99152  31.594  13.189  14.206
27537W        W99153  44.864   4.361   2.856
27538W        W99154   0.676  31.895   1.064
27539W        W99155   5.241  38.579   1.774
27540W        W99156   3.519  20.110  11.088
27541W        W99157   5.353   3.970   3.742
27542W        W99158  28.151   4.309   1.114
27543W        W99159  11.622  41.015  12.875
27544W        W99160  16.147  34.398  13.941
27545W        W99161  29.058  25.995  10.782
27546W        W99162  20.689  10.612   1.808
27547W        W99163  17.475   8.172   1.812
27548W        W99164  13.564  30.212   3.626
27549W        W99165   9.586   8.600  12.853
27550W        W99166  22.038  11.453   2.258
27551W        W99167   5.280  25.188  12.386
27552W        W99168   2.125   6.357   1.934
27553W        W99169  10.498  44.544  14.358
27554W        W99170  43.429  12.575   9.912
27555W        W99171   6.670   0.362   2.894
27556W        W99172  36.572   3.937   1.301
27557W        W99173   5.472  30.122  12.096
27558W        W99174  12.803   1.820  13.402
27559W        W99175  10.128   3.847   4.547
27560W        W99176  38.384  18.658  10.851
27561W        W99177  35.687  23.344  11.345
27562W        W99178  18.987  16.676   2.153
27563W        W99179  31.091  44.941   2.200
27564W        W99180   6.942  29.951  14.347
27565W        W99181   0.220  15.828   3.156
27566W        W99182  13.831  31.467  11.676
27567W        W99183  10.486   1.011  14.453
27568W        W99184  40.074   1.008  13.117
27569W        W99185   2.705   5.332   4.231
27570W        W99186   3.249  35.573  12.435
27571W        W99187  44.449  26.649  10.677
27572W        W99188  33.132   7.814   3.707
27573W        W99189  26.136   3.459   1.942
27574W        W99190  39.041   0.483  13.048
27575W        W99191  25.279  17.351   2.851
27576W        W99192  14.687  11.360  13.852
27577W        W99193  22.180   4.867  12.035
27578W        W99194   9.393  33.222   0.905
27579W        W99195  28.725   2.268   3.655
27580W        W99196  16.164  43.892  11.613
27581W        W99197  40.050  34.637   4.817
27582W        W99198  17.838  44.290  11.568
27583W        W99199  23.448  25.241   3.196
27584W        W99200   1.239  21.121   4.787
27585W        W99201  36.109   5.291   4.569
27586W        W99202  21.241  43.983  10.545
27587W        W99203  34.320  12.856   0.912
27588W        W99204  19.304  29.682   0.191
27589W        W99205   8.405  40.015   0.254
27590W        W99206  22.435   2.963  10.914
27591W        W99207  42.903   3.034   4.636
27592W        W99208  22.760  44.304   4.072
27593W        W99209  14.233   4.690  11.966
27594W        W99210  21.762   9.618   0.905
27595W        W99211  13.130   5.187   4.196
27596W        W99212  30.583  30.353   9.686
27597W        W99213   1.762  38.356   2.797
27598W        W99214   5.791  29.344   4.649
27599W        W99215  12.197   6.654   2.339
27600W        W99216  19.049  13.261   1.756
27601W        W99217  15.338  16.158   2.846
27602W        W99218  16.862  38.416  12.474
27603W        W99219  42.914   6.456   1.763
27604W        W99220  18.467  16.046   3.735
27605W        W99221  18.577   7.829  12.125
27606W        W99222   5.788  43.467  11.621
27607W        W99223   9.776  13.761   1.936
27608W        W99224   0.365   7.266   0.954
27609W        W99225  35.231   4.692   1.624
27610W        W99226  15.732  18.970  14.572
27611W        W99227  44.846  36.924   0.976
27612W        W99228  27.614  41.785   1.525
27613W        W99229  11.446  15.546   3.286
27614W        W99230  22.501  16.572  11.971
27615W        W99231   2.364   8.609   3.319
27616W        W99232   7.230  35.614  10.729
27617W        W99233   0.791  15.584  10.103
27618W        W99234  41.467   1.950  12.445
27619W        W99235  43.972   9.826  14.274
27620W        W99236  26.550   8.709   2.567
27621W        W99237  42.873  26.261   1.849
27622W        W99238  14.192  32.647   1.809
27623W        W99239   3.241  30.053   3.420
27624W        W99240  30.548  10.129   1.207
27625W        W99241   6.762  22.245   1.772
27626W        W99242  11.968  12.307   2.846
27627W        W99243   3.679  24.953   2.157
27628W        W99244  28.907  39.859   3.130
27629W        W99245  22.963  20.492  11.491
27630W        W99246  33.434   0.415  13.293
27631W        W99247   1.727   8.849   3.901
27632W        W99248  41.003   0.442   4.096
27633W        W99249  34.072   3.385   3.213
27634W        W99250  15.573  15.328   3.312
27635W        W99251  33.735  26.215   2.851
27636W        W99252  18.656  15.568  11.611
27637W        W99253  43.788  22.684  14.414
27638W        W99254  37.855  27.356   1.864
27639W        W99255  40.870  28.485   4.127
27640W        W99256  37.107  34.598  14.452
27641W        W99257  39.382  35.398  12.926
27642W        W99258  43.342  32.555  13.829
27643W        W99259  21.624  30.466   1.515
27644W        W99260   2.359  14.602   4.200
27645W        W99261  39.168   2.293  11.126
27646W        W99262  16.829  13.876   3.802
27647W        W99263  32.403  14.856   1.443
27648W        W99264  27.914  30.422  12.903
27649W        W99265  28.056  26.560   4.257
27650W        W99266   4.863  25.194   0.859
27651W        W99267  24.151  16.109   3.657
27652W        W99268  28.367  42.850   0.912
27653W        W99269  19.567  26.939  14.815
27654W        W99270  22.783   2.915   1.789
27655W        W99271  14.392  40.878  11.207
27656W        W99272  23.218   4.468   2.184
27657W        W99273  39.252   3.893  13.576
27658W        W99274  29.993  29.244  12.088
27659W        W99275   6.932  35.186  14.560
27660W        W99276  37.180  41.930   0.803
27661W        W99277  27.471  44.906   3.246
27662W        W99278  33.302  12.713   1.228
27663W        W99279  39.009  18.772  13.429
27664W        W99280   6.288  35.015   3.292
27665W        W99281  39.482   0.383  10.721
27666W        W99282  10.823  32.322   2.716
27667W        W99283   9.393   0.376   1.954
27668W        W99284   7.358  25.953  14.441
27669W        W99285   6.314  17.745  14.998
27670W        W99286  41.611  42.526  11.907
27671W        W99287  32.175  29.217  10.193
27672W        W99288  36.922  11.653   1.170
27673W        W99289  27.624  37.173   0.469
27674W        W99290  23.901  18.033  10.383
27675W        W99291   2.765  38.258   3.539
27676W        W99292  25.013  38.911   2.170
27677W        W99293  13.980   7.017   5.094
27678W        W99294  20.050  41.881  13.901
27679W        W99295  33.528  16.130  11.622
27680W        W99296  19.813  34.147   2.309
27681W        W99297  31.464  28.022   4.182
27682W        W99298  32.456  42.082   3.500
27683W        W99299  31.702  27.554   4.205
27684W        W99300  29.991  19.564   3.603
27685W        W99301  14.321   7.864   2.783
27686W        W99302  19.759  22.551   0.694
27687W        W99303  12.110  11.845   4.651
27688W        W99304  28.263  38.836  14.398
27689W        W99305  35.883  20.351   3.741
27690W        W99306  25.687  37.758  12.092
27691W        W99307  32.593   5.692   3.283
27692W        W99308  12.679  40.920   1.694
27693W        W99309  16.317  37.999  10.699
27694W        W99310  34.922   3.323  14.456
27695W        W99311   4.793   2.697   0.858
27696W        W99312   7.113  28.841  11.149
27697W        W99313  19.949  12.660  11.152
27698W        W99314  30.347  18.825  14.374
27699W        W99315   0.893  16.223   1.977
27700W        W99316  41.536  36.843   2.025
27701W        W99317  44.842   5.404   1.925
27702W        W99318   5.881  39.441   3.583
27703W        W99319  39.027   2.529  13.374
27704W        W99320  19.393  16.769  12.036
27705W        W99321  40.945  37.478  13.601
27706W        W99322  42.395  38.941   2.128
27707W        W99323   1.623  39.034  10.739
27708W        W99324  11.798  22.342  14.966
27709W        W99325  37.977  42.959  12.832
27710W        W99326  35.512  33.756   1.835
27711W        W99327  23.049   3.873  10.757
27712W        W99328  43.810  19.172   3.272
27713W        W99329  23.109  42.326  10.824
27714W        W99330  15.901  22.378   1.799
27715W        W99331  30.202  11.125  11.890
27716W        W99332  23.506  13.533   2.176
27717W        W99333   9.570  16.048  13.903
27718W        W99334  35.957  17.140   2.401
27719W        W99335  16.410  20.804  10.405
27720W        W99336  14.630  35.690   2.352
27721W        W99337  42.999  14.492   1.942
27722W        W99338  32.526  26.122  10.681
27723W        W99339   7.138   9.560  11.920
27724W        W99340   2.280   3.883  11.436
27725W        W99341  39.978  23.413   1.794
27726W        W99342  25.597  14.760  12.570
27727W        W99343  36.003  17.202  14.713
27728W        W99344  31.106  35.561   0.860
27729W        W99345   5.285   6.762   1.611
27730W        W99346  19.634  27.555   3.281
27731W        W99347  40.299  43.852  11.119
27732W        W99348  36.422  11.136   0.338
27733W        W99349  11.382  24.435  12.044
27734W        W99350   8.931   4.239   2.887
27735W        W99351  10.577   4.699   2.162
27736W        W99352   4.637  12.649   3.692
27737W        W99353  27.491  33.983  11.998
27738W        W99354   5.220  18.906  12.849
27739W        W99355  18.985   3.695   1.186
27740W        W99356  31.368  20.744   4.680
27741W        W99357  29.895  36.807   0.684
27742W        W99358   7.292  25.252  12.846
27743W        W99359  41.251   5.670  12.378
27744W        W99360  28.913   9.424  13.918
27745W        W99361  15.739  18.266   0.966
27746W        W99362  35.650   8.639  14.818
27747W        W99363  27.752   7.646  12.644
27748W        W99364  20.802   2.214  13.822
27749W        W99365   7.844  20.153   0.066
27750W        W99366  10.698  28.219   4.689
27751W        W99367  26.615  41.307  14.333
27752W        W99368  34.649   1.063   4.271
27753W        W99369   6.772   3.474   2.743
27754W        W99370  20.625  21.025  10.828
27755W        W99371   0.783  16.729   1.931
27756W        W99372  37.024  17.597   3.615
27757W        W99373  25.177   6.662   1.313
27758W        W99374  31.933  38.845  11.119
27759W        W99375   0.721  43.825  13.349
27760W        W99376  43.550  12.046  12.268
27761W        W99377  26.601   0.070   1.310
27762W        W99378  12.862  44.235   1.034
27763W        W99379  42.732  23.325   2.367
27764W        W99380  40.731   1.705  13.079
27765W        W99381  13.728  14.721  11.175
27766W        W99382  20.094  16.600   3.160
27767W        W99383   0.941  14.572   2.249
27768W        W99384  22.592  13.596  14.412
27769W        W99385  34.137  15.118   4.468
27770W        W99386  11.230  42.564  11.848
27771W        W99387  23.979  15.856   3.240
27772W        W99388  19.559  42.336   2.831
27773W        W99389  16.047   1.825  13.501
27774W        W99390  41.812   4.342  12.466
27775W        W99391  44.235  30.959   4.265
27776W        W99392  40.399  25.652   3.851
27777W        W99393  26.710   0.231  10.801
27778W        W99394   7.833  36.290   2.182
27779W        W99395   8.277  21.486   3.822
27780W        W99396  35.653  14.830   4.241
27781W        W99397  16.430  14.390   3.344
27782W        W99398   9.600  12.187  12.106
27783W        W99399  28.967  23.169  11.670
27784W        W99400  28.862  44.295   3.928
27785W        W99401  36.818  39.792   3.116
27786W        W99402  32.137  26.042   4.794
27787W        W99403  15.771  41.259  12.342
27788W        W99404  17.355  17.104   0.712
27789W        W99405   7.678  35.418  13.381
27790W        W99406  43.169  44.250  11.378
27791W        W99407  24.505  44.322  11.990
27792W        W99408  11.429   8.778   4.955
27793W        W99409  12.393  39.529  13.933
27794W        W99410  43.258  32.012  11.540
27795W        W99411  29.161  37.467  10.693
27796W        W99412  15.539   0.182   2.182
27797W        W99413  32.015  33.069  11.408
27798W        W99414   0.533  30.922  12.508
27799W        W99415  13.593  27.658  11.906
27800W        W99416  37.056   1.341   3.919
27801W        W99417   9.728  10.368  12.147
27802W        W99418  18.034  16.495  13.557
27803W        W99419  14.861  24.616   0.724
27804W        W99420  14.619  38.219   3.369
27805W        W99421  38.090  11.197  11.108
27806W        W99422  29.516  41.134  11.414
27807W        W99423  43.995  32.397   0.511
27808W        W99424  29.209  14.526  14.943
27809W        W99425  17.854   4.906  13.950
27810W        W99426  28.601  44.167   3.130
27811W        W99427  14.423   6.725   5.038
27812W        W99428   5.653  34.036   0.669
27813W        W99429   8.790  14.461  14.841
27814W        W99430  31.610  16.766   0.871
27815W        W99431  35.577   9.409   4.387
27816W        W99432  23.718  24.467  11.516
27817W        W99433  31.213  17.795   1.446
27818W        W99434  35.310  43.710   4.273
27819W        W99435  18.740  32.635   0.274
27820W        W99436  15.355  14.532   4.089
27821W        W99437  27.982  21.597  13.535
27822W        W99438   3.722   3.354  13.836
27823W        W99439   1.988   9.496   2.004
27824W        W99440  27.146  40.060   0.802
27825W        W99441  20.231  33.576  14.196
27826W        W99442  20.632  37.075   4.124
27827W        W99443  19.245  13.221  14.217
27828W        W99444  36.997  14.646   1.532
27829W        W99445  21.954  42.336  14.252
27830W        W99446  25.242  21.691   0.305
27831W        W99447  32.682  37.030   0.384
27832W        W99448  15.016  36.208   0.855
27833W        W99449  24.630  24.480  13.616
27834W        W99450  20.047  38.302  14.915
27835W        W99451   6.654  41.992   2.130
27836W        W99452   4.418  26.778   3.787
27837W        W99453  11.101  28.450   1.405
27838W        W99454  16.998   7.115   4.895
27839W        W99455  17.102   3.770  11.728
27840W        W99456  26.087   5.689  12.175
27841W        W99457  31.565  30.487   2.741
27842W        W99458  11.175  34.625  12.955
27843W        W99459   0.787  32.892  11.521
27844W        W99460   0.682  40.169  14.479
27845W        W99461   9.699  15.190   0.455
27846W        W99462  33.443  18.778   0.372
27847W        W99463  10.250  43.374   4.380
27848W        W99464   8.639  20.185   0.766
27849W        W99465   3.397  39.905   2.747
27850W        W99466  35.148   6.846  13.582
27851W        W99467   6.788  28.199   2.115
27852W        W99468   9.118   6.935   2.188
27853W        W99469  13.602  44.329   0.464
27854W        W99470  30.617   3.240  14.821
27855W        W99471  38.370  35.919   1.803
27856W        W99472  10.855  31.271   0.056
27857W        W99473  30.036  19.305   4.652
27858W        W99474  32.152   6.331  14.359
27859W        W99475   6.207  41.524  10.214
27860W        W99476  23.003  21.270  14.406
27861W        W99477  15.238  27.100   1.424
27862W        W99478  17.742  37.252   3.199
27863W        W99479  29.951  32.968  11.467
27864W        W99480  11.947  44.134   1.262
27865W        W99481   2.387  27.954  11.972
27866W        W99482  35.851  11.700   2.599
27867W        W99483  24.058  37.668  14.561
27868W        W99484  18.218  35.976  12.534
27869W        W99485  29.566  39.569   1.624
27870W        W99486  16.254  11.554   1.472
27871W        W99487  31.138  42.276   1.714
27872W        W99488   2.325  19.245  13.350
27873W        W99489   9.631  40.234   2.420
27874W        W99490  18.938  42.474   1.894
27875W        W99491  39.896  19.011  11.427
27876W        W99492  26.412  27.444  13.762
27877W        W99493  38.395  23.073  10.682
27878W        W99494  30.461  39.098   3.169
27879W        W99495  23.506  25.771  11.186
27880W        W99496  15.402  40.133   4.970
27881W        W99497  20.971   4.365   0.042
27882W        W99498  36.547   3.403  11.165
27883W        W99499  27.028  41.426   4.313
27884W        W99500  23.140  36.469  11.035
27885W        W99501  17.868  42.922   1.304
27886W        W99502  14.902   2.732   9.468
27887W        W99503  22.609  43.369   0.523
27888W        W99504  20.214  14.280  11.412
27889W        W99505  17.354  22.133  14.377
27890W        W99506  11.148  15.151  13.829
27891W        W99507  28.102  11.911   3.145
27892W        W99508   0.926  20.020  13.565
27893W        W99509  35.973  33.981   1.875
27894W        W99510  22.104  41.921  11.335
27895W        W99511  22.712  16.165   3.773
27896W        W99512  12.278  33.453  11.409
27897W        W99513  12.917  40.049   2.674
27898W        W99514  19.149  24.438   1.349
27899W        W99515  35.984   8.822   0.199
27900W        W99516  20.327   3.928   4.768
27901W        W99517   0.157   5.179   3.180
27902W        W99518   6.469  17.587  11.084
27903W        W99519  26.392  13.334   1.752
27904W        W99520  33.985  31.421  11.637
27905W        W99521  30.903  30.886  14.591
27906W        W99522   3.395  29.104   3.921
27907W        W99523   4.344  37.645  12.794
27908W        W99524  29.664  24.971  12.126
27909W        W99525  17.429   3.250  12.475
27910W        W99526  38.312  14.317  11.950
27911W        W99527  32.573  44.526  10.625
27912W        W99528  34.170  29.572   4.029
27913W        W99529  16.135  24.944  12.441
27914W        W99530   6.136  25.146  11.970
27915W        W99531   0.814  42.026   4.083
27916W        W99532  27.963  39.591  14.840
27917W        W99533   3.088   3.417   3.777
27918W        W99534  43.086  13.593  11.767
27919W        W99535  11.719  23.217   4.708
27920W        W99536  15.841  38.461  12.527
27921W        W99537  31.978  29.677  14.012
27922W        W99538  22.171  11.832  11.433
27923W        W99539  32.006   6.205  12.317
27924W        W99540  12.317  13.720  11.979
27925W        W99541  29.373   2.487   0.179
27926W        W99542  40.385  24.289  14.284
27927W        W99543  28.886  17.798   0.296
27928W        W99544  11.796   1.287  12.835
27929W        W99545  41.470   2.236   3.149
27930W        W99546  17.245  12.242  11.876
27931W        W99547  41.904  19.128  14.033
27932W        W99548  23.555  22.907   0.285
27933W        W99549  12.141  12.655  13.522
27934W        W99550  17.692  27.662   2.268
27935W        W99551  11.592  34.391  11.702
27936W        W99552  42.420   7.413  14.487
27937W        W99553  21.041  25.415   2.670
27938W        W99554  44.262  22.754   0.516
27939W        W99555  31.587  35.970  13.730
27940W        W99556  17.090   5.002  13.439
27941W        W99557  40.951   4.756   3.723
27942W        W99558   8.473  21.427  10.196
27943W        W99559  44.584  37.552   4.043
27944W        W99560  36.633  13.253  12.429
27945W        W99561  14.124   3.757  13.446
27946W        W99562  12.630   8.098  13.099
27947W        W99563  43.587   3.312   3.456
27948W        W99564   0.851   1.518  13.552
27949W        W99565  28.663  30.793   0.772
27950W        W99566  30.592  42.681   2.298
27951W        W99567  17.079  34.188   9.966
27952W        W99568   2.231  21.326  13.519
27953W        W99569  35.535  27.470  12.237
27954W        W99570  10.388  16.747  10.743
27955W        W99571  34.887  23.726  13.860
27956W        W99572  32.632  26.687   0.462
27957W        W99573  32.971  28.545  10.231
27958W        W99574  22.053  14.155  10.669
27959W        W99575  29.028   2.905   2.722
27960W        W99576   8.190   1.239   4.028
27961W        W99577  23.596   8.687   0.640
27962W        W99578  39.029  17.506   0.242
27963W        W99579  37.993  44.845  12.578
27964W        W99580  12.564   0.164   0.663
27965W        W99581  16.069   5.197   0.446
27966W        W99582  20.624  36.596   4.907
27967W        W99583   6.650  41.439  13.545
27968W        W99584  25.698   7.189   3.521
27969W        W99585  33.058   2.161   2.692
27970W        W99586  20.012  41.477   0.437
27971W        W99587  12.142  19.205   3.447
27972W        W99588  38.511  27.426  12.575
27973W        W99589  12.434   0.026  10.807
27974W        W99590  11.470  35.448  12.080
27975W        W99591  37.857  10.107   4.562
27976W        W99592  36.296  31.613  11.067
27977W        W99593   8.306  19.316   2.851
27978W        W99594  44.769  14.286   0.872
27979W        W99595  42.636   5.330   2.362
27980W        W99596  30.459  40.894   1.241
27981W        W99597  16.950   3.348   3.484
27982W        W99598  29.722  13.961  13.299
27983W        W99599  41.056  23.724   0.619
27984W        W99600  43.019   6.746  14.476
27985W        W99601  25.730   2.477  11.133
27986W        W99602  24.103  20.660   1.837
27987W        W99603  11.415  36.536   0.002
27988W        W99604   2.811  38.275  12.046
27989W        W99605   3.654  35.935   3.237
27990W        W99606   6.966   0.327  14.528
27991W        W99607  18.848  16.782   2.648
27992W        W99608  14.844  12.915  14.616
27993W        W99609  31.397  10.759  14.474
27994W        W99610  36.329  44.286  11.484
27995W        W99611   5.881  22.014  13.372
27996W        W99612  37.829  13.041  12.971
27997W        W99613  20.254  30.984  12.458
27998W        W99614  42.601  22.584  11.608
27999W        W99615   0.570  11.145   0.209
28000W        W99616  21.120  19.323   2.731
28001W        W99617  23.511  12.140   4.693
28002W        W99618  24.090  23.730   1.740
28003W        W99619   0.839   4.902  11.123
28004W        W99620  20.751   2.999   3.579
28005W        W99621  36.500  12.047  13.544
28006W        W99622  27.167   1.555  13.339
28007W        W99623  38.865  17.803   3.160
28008W        W99624  21.450  41.862   1.371
28009W        W99625  26.187  39.988   4.057
28010W        W99626  28.479  24.124  13.325
28011W        W99627  18.815  24.632  14.404
28012W        W99628   7.791  26.161   3.342
28013W        W99629   9.137  35.404  14.635
28014W        W99630  27.109  24.058   0.705
28015W        W99631  34.951  14.782  14.910
28016W        W99632  33.129   1.173   2.902
28017W        W99633  37.426   4.440   4.126
28018W        W99634  10.609  22.431  12.846
28019W        W99635   1.452  20.159  11.213
28020W        W99636   8.152  40.079   4.586
28021W        W99637  18.586  39.962  12.383
28022W        W99638  27.714  30.681   2.133
28023W        W99639  31.046  44.783  13.870
28024W        W99640  23.851  24.200  11.051
28025W        W99641   8.396   8.187   3.085
28026W        W99642   1.435  33.490  11.181
28027W        W99643  35.415  18.287  10.979
28028W        W99644   1.731   0.326   0.980
28029W        W99645  35.797   1.017  13.864
28030W        W99646   9.801  39.464  12.131
28031W        W99647  28.143   9.212   0.295
28032W        W99648  16.998   7.141  14.382
28033W        W99649  21.653  11.424  14.693
28034W        W99650  43.266  24.490   1.750
28035W        W99651  40.784  15.842  13.477
28036W        W99652  41.612  13.804   5.140
28037W        W99653  24.098   3.525  11.646
28038W        W99654  11.502  20.632   3.560
28039W        W99655  22.456  32.412   4.794
28040W        W99656   7.824  17.730   4.824
28041W        W99657  22.587  33.372   3.191
28042W        W99658  14.866  35.203   2.296
28043W        W99659  38.245  15.508   0.036
28044W        W99660  35.686  11.799   1.692
28045W        W99661  16.666  15.704   0.540
28046W        W99662  32.827  12.979   1.230
28047W        W99663  20.337  29.518   4.258
28048W        W99664  19.262  39.613   1.309
28049W        W99665   0.751  24.793   9.913
28050W        W99666  29.443  30.262   9.479
28051W        W99667  37.814  34.973   3.230
28052W        W99668  10.205   2.059  14.497
28053W        W99669  43.255  18.337   2.001
28054W        W99670  30.496   0.961  12.040
28055W        W99671  10.334  13.234   4.112
28056W        W99672  15.749  11.634   4.056
28057W        W99673  36.434  33.565  10.313
28058W        W99674  44.770  44.858  11.843
28059W        W99675  41.210   8.618  13.374
28060W        W99676  14.602   3.725   2.308
28061W        W99677  37.108   7.182  11.105
28062W        W99678  40.424  15.433  13.482
28063W        W99679  30.192  42.298   4.722
28064W        W99680   9.767  30.692   0.609
28065W        W99681   4.896   1.972  13.905
28066W        W99682  35.834  31.053  12.370
28067W        W99683  38.865  31.128   1.637
28068W        W99684  23.014  12.415  11.653
28069W        W99685  20.513  21.096   3.171
28070W        W99686  10.176  18.248  11.633
28071W        W99687   5.416  39.649  12.898
28072W        W99688  33.614   3.502  13.848
28073W        W99689  38.498  30.414  14.729
28074W        W99690   2.973  44.312   1.381
28075W        W99691   6.449  41.323   3.392
28076W        W99692  32.265  29.116  12.349
28077W        W99693  32.209  14.617  11.151
28078W        W99694  41.601  26.196   0.394
28079W        W99695  35.337   4.901  14.863
28080W        W99696   4.428   9.174  12.641
28081W        W99697  10.491  12.256   1.240
28082W        W99698  12.673  37.880   3.876
28083W        W99699  19.596  11.650   0.876
28084W        W99700  33.019  14.029   3.176
28085W        W99701  39.877  36.281   3.282
28086W        W99702  36.503  42.998   1.439
28087W        W99703  29.457  33.385   1.283
28088W        W99704  24.206  30.147  13.892
28089W        W99705   7.197  35.624  13.366
28090W        W99706  25.149   0.477  11.628
28091W        W99707  30.827  44.768   4.803
28092W        W99708  10.631  40.349  14.072
28093W        W99709  12.411  34.484  12.354
28094W        W99710  21.188  30.212  11.136
28095W        W99711  20.744  27.617   0.249
28096W        W99712  15.995  19.313   2.348
28097W        W99713   2.845  25.054   4.741
28098W        W99714  41.007  25.745  12.435
28099W        W99715   6.628  42.362   4.259
28100W        W99716   5.403  17.688  13.578
28101W        W99717   9.843  29.368   3.362
28102W        W99718  20.442   0.169  11.412
28103W        W99719  27.649  25.569  11.607
28104W        W99720   9.137  35.821   1.725
28105W        W99721  24.608   5.683  12.142
28106W        W99722  38.292  23.213   1.692
28107W        W99723  21.440  39.024   3.779
28108W        W99724  34.454  22.643   2.569
28109W        W99725  34.025  19.700  12.991
28110W        W99726  41.357  15.295  13.987
28111W        W99727   2.870  32.011  11.900
28112W        W99728  43.286  15.391  14.341
28113W        W99729  29.391   0.392  12.544
28114W        W99730   9.799  20.574  13.087
28115W        W99731   9.681  28.090   4.795
28116W        W99732  34.406   3.415   2.716
28117W        W99733  26.724   6.915  13.057
28118W        W99734   9.350  36.972  12.422
28119W        W99735  42.519  27.146  12.693
28120W        W99736   3.170  22.550  11.189
28121W        W99737  27.717  11.106  11.959
28122W        W99738  42.592   3.663  10.759
28123W        W99739  28.727  14.829  12.045
28124W        W99740  30.484  24.415  12.569
28125W        W99741  29.727  11.731   4.054
28126W        W99742  41.803  17.601  10.566
28127W        W99743  13.178  38.975   3.158
28128W        W99744  30.356  38.950   4.612
28129W        W99745  24.707  36.536  13.479
28130W        W99746   0.385  36.543   3.668
28131W        W99747  13.929  17.187   1.867
28132W        W99748  23.231  24.088   0.810
28133W        W99749  10.107  28.194  13.408
28134W        W99750  30.196  23.694  11.083
28135W        W99751  26.706  23.104   3.627
28136W        W99752  30.505  31.331   3.660
28137W        W99753  13.185   7.144   0.401
28138W        W99754  19.224  35.432   4.652
28139W        W99755  21.947  23.482   0.275
28140W        W99756  31.422  40.367   0.828
28141W        W99757  32.177  36.281   0.103
28142W        W99758  19.025  14.609   0.330
28143W        W99759   5.359  36.377   2.442
28144W        W99760  43.094   1.043  13.829
28145W        W99761  21.535  19.339   2.422
28146W        W99762  22.908  10.305   1.211
28147W        W99763  16.865  39.107   2.411
28148W        W99764  21.459  30.087   2.933
28149W        W99765   9.260  32.965   1.381
28150W        W99766  33.181  25.755   2.845
28151W        W99767  13.004  38.429   4.522
28152W        W99768  41.781  29.564   3.726
28153W        W99769   9.581  28.103  14.142
28154W        W99770  39.985   2.829  12.025
28155W        W99771  12.714  11.238   2.682
28156W        W99772  16.175  13.906   0.435
28157W        W99773  34.893   9.830  13.633
28158W        W99774  30.159  18.219   3.693
28159W        W99775  13.301  19.119   0.672
28160W        W99776  37.050  19.321   0.846
28161W        W99777   5.070  15.070   2.755
28162W        W99778  41.198  40.722   3.184
28163W        W99779   4.249   1.321   1.865
28164W        W99780  41.254  29.095  11.559
28165W        W99781   0.442  43.115  11.638
28166W        W99782  11.861  42.485  14.948
28167W        W99783  41.302   0.881   1.077
28168W        W99784  13.760   9.643   1.701
28169W        W99785  13.228   9.649   0.448
28170W        W99786  39.483  37.325  14.336
28171W        W99787  14.533   5.770   2.701
28172W        W99788  21.889  34.544   2.311
28173W        W99789  10.729  31.431  12.914
28174W        W99790  36.990  38.472  11.230
28175W        W99791   5.932  16.203   0.897
28176W        W99792  11.864  40.900   3.748
28177W        W99793  40.762  29.917   3.308
28178W        W99794   1.085  25.625  11.224
28179W        W99795   3.953  13.063  14.937
28180W        W99796  11.403  23.240   0.861
28181W        W99797  37.363   7.828   2.684
28182W        W99798  36.001  12.101   0.333
28183W        W99799  11.942  27.575   0.260
28184W        W99800  14.757  20.823  11.096
28185W        W99801  28.177  40.520   2.334
28186W        W99802  10.160   6.701   0.158
28187W        W99803  26.224   4.789  12.511
28188W        W99804  26.902  11.121   1.626
28189W        W99805  18.885  24.770  13.439
28190W        W99806  40.106   1.842  14.447
28191W        W99807  10.859  15.301   1.835
28192W        W99808  35.775   1.763  14.938
28193W        W99809  34.252  35.416  14.931
28194W        W99810  37.432   4.860  14.337
28195W        W99811  39.562   4.489   2.854
28196W        W99812  10.312  44.473   2.196
28197W        W99813  15.132  15.780   0.298
28198W        W99814  36.453  11.912   3.353
28199W        W99815  22.064  23.116   1.859
28200W        W99816  35.591  10.859   0.450
28201W        W99817   0.011   6.243   1.006
28202W        W99818  44.699   8.935  10.875
28203W        W99819  30.485  37.334   5.044
28204W        W99820  19.013   4.844   4.727
28205W        W99821  39.981  39.419   4.693
28206W        W99822  32.906  36.041   4.791
28207W        W99823  35.470   1.045   1.337
28208W        W99824  37.086  24.336   3.053
28209W        W99825  35.811  19.117   0.313
28210W        W99826  16.461  15.298  10.057
28211W        W99827  11.553  32.978   1.374
28212W        W99828  15.805  29.422   3.239
28213W        W99829  23.570  13.525  13.984
28214W        W99830  22.906  17.711  11.623
28215W        W99831  36.153  26.071  12.458
28216W        W99832  37.399  34.444  13.446
28217W        W99833  23.151  20.174  14.148
28218W        W99834  32.379   5.788   1.449
28219W        W99835  15.266  25.194   2.151
28220W        W99836  17.435  16.565   2.348
28221W        W99837  33.059  35.018   4.607
28222W        W99838  33.871  32.918  12.794
28223W        W99839  33.449  14.295   1.058
28224W        W99840  11.612  16.663  12.607
28225W        W99841  34.844  42.525   2.836
28226W        W99842  24.924  24.183   4.184
28227W        W99843   4.715  32.943   2.723
28228W        W99844  20.979  29.020   1.724
28229W        W99845  39.966   5.687  12.047
28230W        W99846  12.574   7.752   2.516
28231W        W99847   5.149  37.647   2.773
28232W        W99848  21.731   7.675  12.992
28233W        W99849  15.294  32.102  11.471
28234W        W99850  22.234   5.175  10.812
28235W        W99851  17.458  35.178  11.165
28236W        W99852   1.307  26.138   2.614
28237W        W99853   4.934  30.091  14.352
28238W        W99854  19.139   0.418  11.480
28239W        W99855  26.087   8.311  13.499
28240W        W99856  35.377  39.121  12.065
28241W        W99857  22.372  22.192   1.450
28242W        W99858  12.071   8.848  13.508
28243W        W99859   7.169   8.392  11.096
28244W        W99860   6.065   1.791  10.726
28245W        W99861  26.184  27.478   4.537
28246W        W99862   6.746   0.360  12.558
28247W        W99863  39.880  43.754  12.984
28248W        W99864  22.681  10.414  13.986
28249W        W99865  29.183  24.490  11.932
28250W        W99866  43.669  41.324   2.319
28251W        W99867  15.868   6.512  11.970
28252W        W99868  39.899  19.551   4.843
28253W        W99869  15.613   8.286   1.467
28254W        W99870  25.529  24.502  14.294
28255W        W99871  31.762  29.321   1.645
28256W        W99872   4.665  25.922  12.270
28257W        W99873   7.166   7.008   0.907
28258W        W99874  13.264  24.901  10.568
28259W        W99875  38.479  18.080   0.561
28260W        W99876  21.800   5.296   0.089
28261W        W99877  37.989  10.726   5.369
28262W        W99878   3.646  40.687  12.136
28263W        W99879  27.007  43.279  14.132
28264W        W99880   0.215  38.569   1.892
28265W        W99881  15.150   0.889  14.925
28266W        W99882  16.660  17.662  10.695
28267W        W99883  40.048  28.969  12.772
28268W        W99884  30.417  25.385   3.719
28269W        W99885  13.444  17.717  11.441
28270W        W99886   0.788  43.028   2.799
28271W        W99887   6.996  38.839  10.813
28272W        W99888  16.801  11.221  12.419
28273W        W99889  34.099   6.836   3.661
28274W        W99890  44.770  33.059  10.466
28275W        W99891  30.085  27.138   0.062
28276W        W99892   4.552  34.867  11.194
28277W        W99893  26.186  10.808  12.597
28278W        W99894  33.928  36.119  14.484
28279W        W99895  14.760  42.484  14.654
28280W        W99896   9.580   5.446   2.092
28281W        W99897  40.885  32.433   2.777
28282W        W99898   8.357  10.905  12.013
28283W        W99899  39.316   2.333  14.485
28284W        W99900  39.446  31.275  14.520
28285W        W99901   0.207  33.068  12.815
28286W        W99902  32.538  40.828   0.603
28287W        W99903  10.124  11.831  10.699
28288W        W99904   7.854   3.428   4.132
28289W        W99905  14.371   6.862   3.632
28290W        W99906  43.903  21.600   0.892
28291W        W99907  34.608  23.599  14.293
28292W        W99908   3.444   2.965  13.701
28293W        W99909  29.459  10.750  10.814
28294W        W99910  16.825  31.055   1.681
28295W        W99911  27.526  44.314   0.170
28296W        W99912  42.916   4.000  14.815
28297W        W99913  34.572  26.116   3.532
28298W        W99914  38.700   8.345   1.334
28299W        W99915  33.180  31.457  13.042
28300W        W99916  25.477   1.244  10.554
28301W        W99917   4.202  28.157   1.468
28302W        W99918  44.308   7.433  13.481
28303W        W99919  26.066   0.218   2.948
28304W        W99920  34.100  31.681   4.117
28305W        W99921  44.153  30.631   4.984
28306W        W99922  28.761  26.940   3.654
28307W        W99923  23.786  39.380   2.618
28308W        W99924  29.978  18.313  13.844
28309W        W99925  34.074  12.103   1.446
28310W        W99926  35.135  43.081   1.252
28311W        W99927  40.434  10.397  12.502
28312W        W99928  38.139  29.446  14.376
28313W        W99929  32.890  25.036  13.550
28314W        W99930  39.637  33.479   1.365
28315W        W99931  41.794   2.530   2.700
28316W        W99932  29.026   9.531   0.713
28317W        W99933   1.804  10.300  11.760
28318W        W99934  33.282  27.372   4.874
28319W        W99935  31.913   8.666  13.847
28320W        W99936  13.414  12.740  13.009
28321W        W99937  31.984   1.939   4.316
28322W        W99938  31.534  33.108  12.614
28323W        W99939  14.221  36.535   4.575
28324W        W99940   1.502  32.123  11.557
28325W        W99941  21.605  19.866  12.581
28326W        W99942  28.621  34.296   3.227
28327W        W99943  44.690  44.722   3.357
28328W        W99944  32.868   8.635   1.422
28329W        W99945  22.177  19.314   3.725
28330W        W99946  15.704   4.713  12.941
28331W        W99947  11.948  26.656   4.768
28332W        W99948   4.847  37.489  10.856
28333W        W99949  35.891  27.161   3.576
28334W        W99950  40.510   2.213  10.495
28335W        W99951  26.203  11.642   4.921
28336W        W99952  22.437  18.019   3.902
28337W        W99953  28.133  22.946  13.278
28338W        W99954  11.597  22.726   0.230
28339W        W99955   2.643   3.290  12.892
28340W        W99956  10.913  21.066   2.553
28341W        W99957  17.768  34.425   4.327
28342W        W99958  22.677  15.117   3.091
28343W        W99959  14.032  20.499  10.726
28344W        W99960  24.909  20.224  11.617
28345W        W99961  14.386  15.182   2.378
28346W        W99962  15.536   5.710  14.090
28347W        W99963  26.064  18.040   0.985
28348W        W99964  26.162  39.882  14.348
28349W        W99965   2.172  33.583  10.714
28350W        W99966  14.648   4.488   4.923
28351W        W99967  40.786  10.248  13.928
28352W        W99968  30.979  40.037  11.247
28353W        W99969  33.935   4.900  10.085
28354W        W99970  34.124  16.376  14.923
28355W        W99971  11.185   5.733  14.454
28356W        W99972  21.529  25.488   0.798
28357W        W99973  14.577  14.363  14.241
28358W        W99974  30.100  40.880   0.863
28359W        W99975  36.565  23.755  14.429
28360W        W99976   9.874  20.142   3.196
28361W        W99977   3.168   7.081   3.212
28362W        W99978  23.927  31.439  13.929
28363W        W99979  10.604  27.674  11.189
28364W        W99980   9.168  32.665   2.452
28365W        W99981  14.036  24.640  14.081
28366W        W99982  11.786  13.726  14.789
28367W        W99983   5.910  42.049   2.645
28368W        W99984  36.261   4.745   1.921
28369W        W99985  31.956   7.446   2.681
28370W        W99986   1.681   2.000   1.294
28371W        W99987   9.139  42.698   1.860
28372W        W99988  28.243  25.563   4.294
28373W        W99989   5.425  18.246   3.651
28374W        W99990   0.242   3.146  11.891
28375W        W99991  16.276  22.103   4.851
28376W        W99992  30.859  36.644  11.462
28377W        W99993  33.494  31.073  11.660
28378W        W99994  14.174  17.739  10.459
28379W        W99995  15.822  26.520   1.004
28380W        W99996  16.071  37.992  12.467
28381W        W99997   3.474  33.104   3.128
28382W        W99998   0.258   9.396  14.307
28383W        W99999  41.320  26.454   4.069
28384W        W    0  23.061   3.200   2.184
28385W        W    1  43.738   4.220  11.201
28386W        W    2  14.383  16.667   1.131
28387W        W    3  43.815  15.766   3.937
28388W        W    4  11.096  14.266   4.553
28389W        W    5  39.374  24.239  10.845
28390W        W    6  44.526  24.660  13.018
28391W        W    7  11.683  38.312  14.149
28392W        W    8  38.570  44.245   3.241
28393W        W    9   3.265  24.636   2.314
28394W        W   10  43.578  20.141   2.631
28395W        W   11  31.967  11.266   2.841
28396W        W   12  12.680  40.038  14.491
28397W        W   13  20.580   4.264  14.217
28398W        W   14  44.350  20.051   1.463
28399W        W   15   2.269  34.573   0.378
28400W        W   16   0.201  34.379  11.225
28401W        W   17  43.267  35.570   1.110
28402W        W   18  22.726  34.717   3.747
28403W        W   19  12.652  12.541   0.423
28404W        W   20  38.338   5.814  14.495
28405W        W   21   4.912   0.483  11.423
28406W        W   22  39.826  40.926   0.447
28407W        W   23  16.234   5.385   2.309
28408W        W   24  41.761   7.348  14.634
28409W        W   25   2.194   3.713   3.681
28410W        W   26   0.373   4.685  11.053
28411W        W   27  13.132  37.835  11.807
28412W        W   28  32.626   6.729   3.328
28413W        W   29  19.699  44.580  12.998
28414W        W   30  33.955  30.036  12.282
28415W        W   31  36.417   1.433   0.313
28416W        W   32  39.859  26.692   4.197
28417W        W   33   3.300  32.518  12.363
28418W        W   34  15.522   6.320  12.342
28419W        W   35  44.184  15.739   1.659
28420W        W   36  34.788  11.339  10.755
28421W        W   37  30.212  26.778   4.770
28422W        W   38  43.437  29.488  12.958
28423W        W   39  25.163  11.377   2.603
28424W        W   40  38.846  26.958   3.951
28425W        W   41  33.615  10.205   0.258
28426W        W   42  39.116  10.881  12.604
28427W        W   43  30.866  10.135  13.398
28428W        W   44  35.550  31.184  13.339
28429W        W   45  11.323   1.506  12.818
28430W        W   46  38.370  22.767  12.284
28431W        W   47  23.778  16.839   1.906
28432W        W   48  28.522  20.709  10.434
28433W        W   49  19.495  19.642  13.135
28434W        W   50  26.433  35.601  13.529
28435W        W   51  42.272  10.718   1.724
28436W        W   52  26.970  42.453  11.059
28437W        W   53  22.579  32.379   3.368
28438W        W   54  27.108  42.277   4.661
28439W        W   55  30.428  36.290  11.655
28440W        W   56  15.014  18.763   4.624
28441W        W   57  19.318  21.154  14.913
28442W        W   58   5.779  11.666   1.378
28443W        W   59   8.646  39.994  11.953
28444W        W   60  20.121  38.889   2.928
28445W        W   61   2.178  22.726   1.838
28446W        W   62  32.944  35.913   1.619
28447W        W   63  16.576  41.431   1.845
28448W        W   64  22.235  18.601   2.173
28449W        W   65  19.215  34.736  13.093
28450W        W   66  25.562  31.080  12.477
28451W        W   67  27.154  18.082  14.001
28452W        W   68   6.683   1.490  10.635
28453W        W   69  25.141  27.713   3.262
28454W        W   70   6.438   7.225   1.510
28455W        W   71   5.460  31.383   1.513
28456W        W   72  44.438  16.356   0.299
28457W        W   73   5.683  23.220  11.531
28458W        W   74  33.788   0.839  14.993
28459W        W   75  16.538  23.483   0.903
28460W        W   76  43.361  40.888  14.812
28461W        W   77   7.816   5.709   3.734
28462W        W   78  40.418   5.417  12.103
28463W        W   79  21.737  19.977   4.148
28464W        W   80  36.220  41.278  11.962
28465W        W   81  14.080  39.068   4.350
28466W        W   82   9.113   4.229   1.638
28467W        W   83  10.575   0.919  12.129
28468W        W   84  32.994  43.772  14.457
28469W        W   85  22.540  44.391  11.078
28470W        W   86   1.938   1.441   3.811
28471W        W   87  19.273  18.138   2.211
28472W        W   88  28.245  26.407  13.530
28473W        W   89   2.281  34.007  12.923
28474W        W   90  24.137  35.809   0.763
28475W        W   91   5.913  10.564  14.950
28476W        W   92  12.137   4.826   3.193
28477W        W   93   6.260  36.707   2.309
28478W        W   94  42.984  14.422  14.590
28479W        W   95  33.722  16.358  13.562
28480W        W   96  24.242  21.985  14.495
28481W        W   97  17.102  25.789   4.288
28482W        W   98  31.051   6.852  14.820
28483W        W   99  42.626  36.348   1.243
28484W        W  100   9.328  14.375  12.198
28485W        W  101  28.922  26.018   0.766
28486W        W  102  21.278   1.007  12.959
28487W        W  103  28.194  43.740  11.627
28488W        W  104   7.837  21.484   3.253
28489W        W  105  22.214  23.899  11.661
28490W        W  106   6.279  12.117   1.720
28491W        W  107  21.503  42.968  11.427
28492W        W  108  41.334  14.786   1.211
28493W        W  109  29.516  16.095  12.077
28494W        W  110  11.694  33.055  10.448
28495W        W  111  41.128   1.366  13.059
28496W        W  112   1.999   1.705  13.476
28497W        W  113  21.164  31.432  13.919
28498W        W  114  11.773  43.903   1.708
28499W        W  115   4.642  14.844  13.087
28500W        W  116  16.270   5.168   1.842
28501W        W  117   5.412  43.447  12.386
28502W        W  118  13.401  39.367  14.808
28503W        W  119  21.302  30.047  12.118
28504W        W  120   8.008  26.403  11.196
28505W        W  121  35.616  11.288   4.743
28506W        W  122  29.686   9.761  11.675
28507W        W  123  32.088  42.983   3.667
28508W        W  124  15.460  20.518   2.735
28509W        W  125  30.830  15.538  11.447
28510W        W  126  10.818  38.419   3.586
28511W        W  127  40.612  25.207   3.979
28512W        W  128  41.081  31.102   0.759
28513W        W  129  30.561  24.017  10.976
28514W        W  130  43.442  39.425  14.470
28515W        W  131  11.545  28.009  14.277
28516W        W  132  28.737  20.480   2.889
28517W        W  133   2.213  27.659   3.704
28518W        W  134  17.634   0.012  12.041
28519W        W  135  19.514  16.548  13.018
28520W        W  136   4.443  32.854  11.296
28521W        W  137   7.436   1.893  12.032
28522W        W  138   0.509  18.219  11.974
28523W        W  139  10.907  40.646  11.031
28524W        W  140  39.492  22.052  14.351
28525W        W  141   3.812  24.620   1.704
28526W        W  142  24.448  21.053   1.253
28527W        W  143  27.744  12.155   1.377
28528W        W  144  37.002  16.301   4.683
28529W        W  145  29.729  14.357  11.487
28530W        W  146   0.206  15.332   3.779
28531W        W  147  42.288   6.921  11.866
28532W        W  148  16.084  39.111  13.365
28533W        W  149   6.909  37.639  14.746
28534W        W  150   2.258  10.611  13.036
28535W        W  151  30.507   3.280  11.984
28536W        W  152   4.360  37.270  13.800
28537W        W  153   8.242  37.659   4.495
28538W        W  154  12.682  10.380  14.873
28539W        W  155  26.164  42.795  11.775
28540W        W  156  22.755  16.014  12.795
28541W        W  157  26.535  14.712   2.745
28542W        W  158  24.933  22.406  12.982
28543W        W  159  38.059   7.563  11.924
28544W        W  160  20.184  36.593   3.535
28545W        W  161  40.940  37.233  11.852
28546W        W  162  30.515  25.620  14.529
28547W        W  163  40.832  39.914   2.655
28548W        W  164  21.593  19.495   3.441
28549W        W  165  12.822  18.960   0.870
28550W        W  166   0.915  20.620  10.621
28551W        W  167  11.232  43.856   1.817
28552W        W  168  26.673   4.166  14.475
28553W        W  169  23.586  25.046   1.705
28554W        W  170  16.160   9.615  12.078
28555W        W  171  40.921   2.917  12.434
28556W        W  172  43.933  40.011   4.566
28557W        W  173  27.530  24.509   1.193
28558W        W  174  38.344  20.411   0.964
28559W        W  175  26.659  20.093  10.632
28560W        W  176   1.197  36.900   1.135
28561W        W  177  42.268  12.031   3.968
28562W        W  178  13.152  14.103  12.053
28563W        W  179  21.177  20.943   0.357
28564W        W  180  32.585  39.917   1.672
28565W        W  181  10.541  19.824   5.094
28566W        W  182  18.665  25.620   3.649
28567W        W  183  40.881  31.953  12.993
28568W        W  184   0.927  14.426  11.101
28569W        W  185   6.925  40.972   0.413
28570W        W  186  19.737  13.936  12.073
28571W        W  187  44.768  37.311  10.953
28572W        W  188  26.156  32.895  13.321
28573W        W  189   3.660  26.071   2.800
28574W        W  190   3.418  38.555   4.252
28575W        W  191  31.100  17.126  10.759
28576W        W  192  29.749   5.634  12.554
28577W        W  193   7.088  16.141   4.851
28578W        W  194  15.941  13.163  13.293
28579W        W  195   9.741  13.902   2.443
28580W        W  196  24.751  12.200   1.661
28581W        W  197  14.899  32.456  14.821
28582W        W  198  40.463   0.628   0.951
28583W        W  199   6.741  26.332   4.270
28584W        W  200  24.781  19.691   3.193
28585W        W  201  27.984  30.594  14.976
28586W        W  202  19.593   6.373  10.386
28587W        W  203  32.647  30.148   3.731
28588W        W  204  24.877   2.353  10.831
28589W        W  205  30.006  31.918   1.433
28590W        W  206  11.142  43.326  12.701
28591W        W  207   4.293  10.629   3.066
28592W        W  208  35.634  12.343  10.912
28593W        W  209  16.643  21.011  12.046
28594W        W  210   3.826   4.145   3.117
28595W        W  211  14.171   3.648   1.511
28596W        W  212  35.009  38.135  12.414
28597W        W  213  23.673  22.833  14.496
28598W        W  214  42.714  32.094  10.656
28599W        W  215  39.135  30.691   3.763
28600W        W  216   7.847  43.966   2.701
28601W        W  217  14.126  30.620   4.210
28602W        W  218  41.697  33.084   3.728
28603W        W  219  19.734   2.572   2.877
28604W        W  220  37.952  38.938   4.001
28605W        W  221   0.045  10.621  13.502
28606W        W  222  21.951  43.003   4.134
28607W        W  223  25.479   5.094  10.730
28608W        W  224   9.383   8.423  14.168
28609W        W  225   8.278  21.228  12.020
28610W        W  226   6.244  39.994   4.548
28611W        W  227  31.017   7.366  13.018
28612W        W  228  40.362  20.205   3.801
28613W        W  229  44.695  34.045  14.275
28614W        W  230  17.527  31.418  11.983
28615W        W  231   5.031  23.995  10.985
28616W        W  232  26.321   7.714   0.617
28617W        W  233  29.399  18.100   1.225
28618W        W  234  19.605  10.706   3.163
28619W        W  235  28.928  19.691   4.137
28620W        W  236  21.595  15.565  13.487
28621W        W  237  28.193  44.815  12.938
28622W        W  238   1.395  33.118  10.809
28623W        W  239  12.207  44.426  12.660
28624W        W  240  42.368   2.897   1.068
28625W        W  241  11.368  44.423   0.734
28626W        W  242  34.485   1.130   5.057
28627W        W  243  39.249  16.063   0.807
28628W        W  244  30.625  27.702  13.954
28629W        W  245  16.098  17.188   0.849
28630W        W  246  40.735  44.788   3.854
28631W        W  247  12.618  30.868   1.386
28632W        W  248  36.816   0.164   3.600
28633W        W  249   5.618  16.639   4.644
28634W        W  250   8.831  12.174   1.791
28635W        W  251  10.084  36.859   1.802
28636W        W  252  41.399  39.513  10.986
28637W        W  253  25.498  39.419  10.643
28638W        W  254  14.040  31.379  12.149
28639W        W  255   1.227  33.535  12.426
28640W        W  256   3.184  43.834  14.358
28641W        W  257  35.011   9.868  13.123
28642W        W  258   5.749  11.738  12.208
28643W        W  259  39.072  13.499   2.205
28644W        W  260   8.844  33.438  11.519
28645W        W  261   3.330  29.093  12.320
28646W        W  262  34.815  39.627   0.403
28647W        W  263  20.881  21.783  12.957
28648W        W  264  33.597   5.273   1.665
28649W        W  265  14.281  26.519   2.882
28650W        W  266  37.839  26.895  13.898
28651W        W  267  21.848  42.373  11.371
28652W        W  268  20.064   7.849   1.445
28653W        W  269  36.086  27.591   1.425
28654W        W  270  31.123  31.461  13.089
28655W        W  271  33.413  44.796  12.073
28656W        W  272  35.896   8.972  13.034
28657W        W  273  24.685  11.668  14.402
28658W        W  274  20.409   3.018   2.401
28659W        W  275   9.119  31.926  12.395
28660W        W  276  20.580   8.828   0.710
28661W        W  277  31.393   4.373  12.906
28662W        W  278  38.565   4.765   2.291
28663W        W  279  44.025  10.134  13.523
28664W        W  280  10.870  26.079   0.316
28665W        W  281  40.843  37.622   2.874
28666W        W  282  33.592  20.122   2.091
28667W        W  283  31.910   2.438   2.115
28668W        W  284  29.174   4.541  11.375
28669W        W  285  24.475  41.943   4.527
28670W        W  286  20.780  24.990  11.926
28671W        W  287  34.838  23.939   1.585
28672W        W  288   2.921  37.868   0.444
28673W        W  289  35.880  11.407  13.870
28674W        W  290  21.598  18.893   2.679
28675W        W  291  31.109  15.585   1.228
28676W        W  292  22.202  39.514   1.443
28677W        W  293   1.408  19.821   3.100
28678W        W  294  41.946  11.850  10.666
28679W        W  295   8.192  14.106   3.311
28680W        W  296  18.328  32.073  13.037
28681W        W  297  17.109  37.181   4.813
28682W        W  298  21.240   7.289   3.407
28683W        W  299  11.384  26.618  14.012
28684W        W  300  41.303  16.631   4.674
28685W        W  301   9.976   3.726  11.894
28686W        W  302   8.720  18.534   3.282
28687W        W  303   8.409  13.841  14.969
28688W        W  304  22.353  23.158  14.033
28689W        W  305   2.512  33.486   3.770
28690W        W  306  20.618  41.219   2.387
28691W        W  307  33.603  22.669   0.345
28692W        W  308   1.713  37.425  11.689
28693W        W  309  24.098  13.137   0.750
28694W        W  310  33.986  29.306   2.096
28695W        W  311  17.601   4.764   1.559
28696W        W  312  28.696   3.148  11.807
28697W        W  313  44.444  15.547  10.463
28698W        W  314  12.091  32.488  12.525
28699W        W  315   5.609  23.214   2.768
28700W        W  316  22.294  43.909  10.940
28701W        W  317  37.486  28.772  12.387
28702W        W  318  37.385  34.654   3.288
28703W        W  319  39.413  16.854  14.910
28704W        W  320   1.057  15.220  11.984
28705W        W  321  33.069  19.168   1.484
28706W        W  322  44.960  33.787  11.132
28707W        W  323   4.778  41.377  10.679
28708W        W  324  21.928  41.800  13.583
28709W        W  325  22.828   6.370  12.880
28710W        W  326  37.361  11.320   0.257
28711W        W  327  17.476  23.788   1.741
28712W        W  328   6.657  20.649   3.275
28713W        W  329   5.226  15.749   4.273
28714W        W  330   3.036  21.534  13.409
28715W        W  331  40.964  10.775   1.454
28716W        W  332  19.413  36.464  13.057
28717W        W  333  43.463  23.357   1.277
28718W        W  334  43.050   4.851  12.395
28719W        W  335  12.339  18.642  12.923
28720W        W  336  14.224  42.497  12.408
28721W        W  337   0.733  20.118   0.417
28722W        W  338  16.026  41.162  10.670
28723W        W  339   8.179  40.103  13.934
28724W        W  340   5.850  17.253  10.727
28725W        W  341  23.627  16.917   3.627
28726W        W  342  23.742  38.651  10.902
28727W        W  343   1.885  36.141  12.003
28728W        W  344  18.786  39.810   1.279
28729W        W  345   2.748  43.524   2.738
28730W        W  346  15.335  21.190   1.413
28731W        W  347  33.525  38.457  13.691
28732W        W  348  11.394  33.985   1.758
28733W        W  349   8.618  18.135   1.299
28734W        W  350   2.856   2.462  13.951
28735W        W  351  21.099  16.207   1.457
28736W        W  352  29.676  33.859   4.544
28737W        W  353  20.025  44.820   4.607
28738W        W  354   1.507  34.106  14.510
28739W        W  355  10.746  20.125   3.746
28740W        W  356  23.233  14.393  12.036
28741W        W  357  17.224   7.705  11.891
28742W        W  358  44.764  29.348  10.378
28743W        W  359  30.959  27.018  14.558
28744W        W  360  21.529  19.803  14.821
28745W        W  361  16.241  30.075   2.777
28746W        W  362   7.899  40.117   2.039
28747W        W  363   7.896  42.349  13.559
28748W        W  364  20.721  20.571  12.518
28749W        W  365  23.039  25.540   4.627
28750W        W  366  26.104   7.806   1.619
28751W        W  367  38.076  17.549   3.745
28752W        W  368   8.963  40.380  11.921
28753W        W  369  22.072  43.991   4.502
28754W        W  370  10.418   1.564   4.695
28755W        W  371  44.821  41.301  14.604
28756W        W  372  29.424  44.171  12.348
28757W        W  373  40.841   9.204   3.631
28758W        W  374  16.162   5.462   4.638
28759W        W  375   1.919   4.865  12.359
28760W        W  376  29.187  38.553   2.197
28761W        W  377   2.486  21.044  13.125
28762W        W  378  33.299  20.291   3.840
28763W        W  379   9.138  37.914  14.042
28764W        W  380  39.960  20.604   4.411
28765W        W  381  21.024  32.949  10.674
28766W        W  382   3.719   9.179   2.403
28767W        W  383   8.292  39.766  14.773
28768W        W  384  25.458   9.590  11.089
28769W        W  385  25.532  38.478  10.726
28770W        W  386   6.789   8.192  13.814
28771W        W  387  33.866  35.793   2.671
28772W        W  388   8.447  22.811   4.156
28773W        W  389  43.414  12.738   1.787
28774W        W  390  44.950  43.912   2.327
28775W        W  391   3.282  16.876   3.390
28776W        W  392  36.415  24.578   2.334
28777W        W  393  42.066  19.064   0.399
28778W        W  394  20.529   8.289   1.812
28779W        W  395  26.584  13.410  11.672
28780W        W  396  10.784   4.796  12.303
28781W        W  397  24.564   3.017   1.890
28782W        W  398  11.024   1.986   1.365
28783W        W  399  19.659   6.798   1.015
28784W        W  400   3.084  25.933  10.186
28785W        W  401   6.677  14.806  13.491
28786W        W  402  32.069  32.426   1.628
28787W        W  403  15.828  30.459  13.159
28788W        W  404  25.937  33.893   0.875
28789W        W  405  27.500  38.863   3.309
28790W        W  406  42.980   4.410  10.756
28791W        W  407  33.188  44.760  14.975
28792W        W  408  13.857  41.962  14.309
28793W        W  409  32.018  26.612  14.917
28794W        W  410  14.115  10.414  11.942
28795W        W  411  35.452  32.871  11.060
28796W        W  412   9.076  26.284  14.075
28797W        W  413  33.607  15.281   3.033
28798W        W  414  40.465  10.183   4.468
28799W        W  415  15.299  42.580  10.213
28800W        W  416   5.391  28.008  14.971
28801W        W  417  15.633  38.561  10.963
28802W        W  418  39.787   6.908   1.201
28803W        W  419   0.724  33.616   0.263
28804W        W  420  17.157  26.515   1.365
28805W        W  421  38.143  21.670  13.628
28806W        W  422  34.747  38.619  14.447
28807W        W  423  44.342   1.028  10.537
28808W        W  424  30.635  39.605   3.170
28809W        W  425   4.777  22.066   2.781
28810W        W  426  44.307  12.310  13.838
28811W        W  427  16.721  38.035   3.266
28812W        W  428  14.938  31.200   0.139
28813W        W  429  30.261  30.640   0.292
28814W        W  430  37.813   9.989   3.753
28815W        W  431  27.630  34.907   1.223
28816W        W  432  40.748  10.220   0.310
28817W        W  433  37.090  12.071  10.219
28818W        W  434  13.056  21.054   1.744
28819W        W  435  27.723  31.986  12.137
28820W        W  436  11.665  11.140  12.985
28821W        W  437  10.005   2.709  11.831
28822W        W  438   0.021  29.493   1.818
28823W        W  439  17.927  42.933  11.038
28824W        W  440  27.541  13.662   1.936
28825W        W  441   8.705  20.056  12.438
28826W        W  442  10.315  12.647   1.522
28827W        W  443  19.759   5.242   3.246
28828W        W  444  24.314  26.764   0.502
28829W        W  445  32.193  42.884   1.417
28830W        W  446  28.598   9.110   4.636
28831W        W  447  24.099  41.774  10.655
28832W        W  448  33.213  27.445   2.388
28833W        W  449   0.674   0.075  11.039
28834W        W  450  44.853  28.826  11.062
28835W        W  451   4.663   6.011  11.300
28836W        W  452  30.846  22.607  13.909
28837W        W  453  19.772   1.232  14.369
28838W        W  454   5.896  20.728   2.282
28839W        W  455  40.334   1.982   2.173
28840W        W  456  28.205  44.745   4.200
28841W        W  457  35.686  36.479   1.671
28842W        W  458   6.735  13.038  14.743
28843W        W  459  13.013  40.945  14.936
28844W        W  460  32.921  40.836  10.680
28845W        W  461  29.021   3.445   4.920
28846W        W  462   5.651  43.015   4.587
28847W        W  463  43.960  19.336  11.620
28848W        W  464   5.251  32.454  13.863
28849W        W  465   5.253  32.015   3.258
28850W        W  466   6.849  25.995  14.547
28851W        W  467  19.690  24.950  12.149
28852W        W  468   1.709  32.420  13.308
28853W        W  469  41.224  28.902   0.800
28854W        W  470  25.845  16.869   5.064
28855W        W  471  27.244  21.188  13.424
28856W        W  472  25.220  26.464   1.298
28857W        W  473  35.013  29.061   2.351
28858W        W  474  40.116  24.069   1.017
28859W        W  475  27.580  39.379   3.256
28860W        W  476   8.579  11.715  12.515
28861W        W  477   0.304  41.810  13.540
28862W        W  478  33.795  23.201   4.280
28863W        W  479  36.142  24.070  13.777
28864W        W  480  11.332  14.755  12.058
28865W        W  481  27.041   7.376   3.167
28866W        W  482  15.967  28.174   0.445
28867W        W  483  20.596  19.771  12.979
28868W        W  484  25.993  20.211   1.763
28869W        W  485   5.910   4.415   4.753
28870W        W  486  18.564  22.441   3.292
28871W        W  487  22.083  34.114  14.909
28872W        W  488   4.877  42.990  11.380
28873W        W  489  13.547  38.113   2.416
28874W        W  490  33.551  32.783  11.163
28875W        W  491   5.065  36.493  14.388
28876W        W  492  38.490  29.424  13.310
28877W        W  493  25.053  39.559   0.883
28878W        W  494  43.791  25.243   3.162
28879W        W  495  33.143  14.753   2.750
28880W        W  496  28.942   6.642  10.617
28881W        W  497  18.803  34.085   2.468
28882W        W  498  21.052  17.634   4.400
28883W        W  499  27.967  25.706  12.921
28884W        W  500  20.520  27.505   3.334
28885W        W  501  21.236  17.228   0.405
28886W        W  502  23.438  21.823  13.497
28887W        W  503  12.688  36.522   0.704
28888W        W  504   6.373   4.399  11.660
28889W        W  505  20.623   9.985  14.482
28890W        W  506  15.007   2.406  14.881
28891W        W  507   2.193  24.655   2.267
28892W        W  508  39.563  40.519   4.037
28893W        W  509   3.384  19.649  13.420
28894W        W  510  21.785  39.581   2.040
28895W        W  511  42.416  22.574  10.663
28896W        W  512  31.881  29.673  11.527
28897W        W  513   5.682  10.862   0.860
28898W        W  514   2.837  37.022   4.772
28899W        W  515  22.935   7.666  13.474
28900W        W  516  29.083   2.384  12.105
28901W        W  517  31.741  28.204   0.418
28902W        W  518  17.650  19.009  11.991
28903W        W  519  33.079  12.616  11.887
28904W        W  520  13.413  32.338   4.533
28905W        W  521  22.495  26.422   1.263
28906W        W  522   0.763  10.369   0.249
28907W        W  523  35.073  38.864   2.169
28908W        W  524  16.545   0.768  14.196
28909W        W  525  25.169   7.360  12.887
28910W        W  526  22.000   0.733  14.796
28911W        W  527  44.517  19.577   0.677
28912W        W  528  21.650  30.082  10.571
28913W        W  529   9.807   4.783   1.774
28914W        W  530   6.436  18.821   3.187
28915W        W  531  10.857  20.151  14.583
28916W        W  532  13.922   4.172  12.541
28917W        W  533  14.859  15.353  11.041
28918W        W  534   0.260  38.983   4.139
28919W        W  535   0.421  19.778   0.913
28920W        W  536  31.967  43.907  10.035
28921W        W  537  26.688  11.472   4.834
28922W        W  538  40.460  42.445   2.732
28923W        W  539  10.875  44.010  10.758
28924W        W  540  44.378  35.529  13.980
28925W        W  541  28.033   3.595  14.889
28926W        W  542  21.679  38.474  11.526
28927W        W  543   4.266   4.475   4.240
28928W        W  544  38.284  21.213  12.456
28929W        W  545  21.202  42.727   3.179
28930W        W  546  31.230  37.100   2.242
28931W        W  547   1.652  41.371  11.963
28932W        W  548  18.599   5.407   3.652
28933W        W  549   4.528   7.265  14.820
28934W        W  550  42.548   2.712   4.150
28935W        W  551  16.817  35.952  14.507
28936W        W  552  23.645  29.602  10.719
28937W        W  553  43.858  32.027   2.131
28938W        W  554  27.029  32.275  10.040
28939W        W  555   9.890  13.908   3.526
28940W        W  556  32.455  44.562  11.135
28941W        W  557  16.853  10.981  14.281
28942W        W  558  29.465  25.482   3.808
28943W        W  559   1.739  20.584  13.391
28944W        W  560  22.966  41.752   3.637
28945W        W  561   9.719  31.402   2.584
28946W        W  562  13.250  28.432  14.845
28947W        W  563  33.607  28.604  14.780
28948W        W  564  28.720   3.326   2.607
28949W        W  565   0.876  25.581  11.679
28950W        W  566  39.422  42.218   4.087
28951W        W  567  29.490   1.779  11.197
28952W        W  568   7.843  37.947   4.685
28953W        W  569  24.139  31.463   1.879
28954W        W  570  12.091  20.471   2.320
28955W        W  571  40.449   1.774   4.175
28956W        W  572  30.603  19.170   0.414
28957W        W  573  40.441  25.698   1.487
28958W        W  574  26.913  15.581   3.651
28959W        W  575   5.108   2.968  13.040
28960W        W  576  13.181  28.077   4.150
28961W        W  577  27.556  20.017   4.737
28962W        W  578  38.047  25.490   1.512
28963W        W  579  25.058  31.381  12.599
28964W        W  580  19.583  30.426  12.417
28965W        W  581  32.103  11.194   0.461
28966W        W  582  18.108   8.698   4.693
28967W        W  583  15.296   2.304  14.448
28968W        W  584  42.625   5.829   2.184
28969W        W  585  24.942   4.846   2.438
28970W        W  586  22.985  24.934  12.063
28971W        W  587  38.656  13.971   0.971
28972W        W  588  34.855  24.928   2.824
28973W        W  589  40.779  44.016   3.251
28974W        W  590  27.822   5.464  10.734
28975W        W  591  30.144  15.659  14.008
28976W        W  592   3.336  27.008  11.684
28977W        W  593  38.371  18.497  14.852
28978W        W  594  34.779  40.010  11.226
28979W        W  595  42.833  39.393  14.939
28980W        W  596  29.386  42.949   0.718
28981W        W  597  18.803  13.703   1.839
28982W        W  598  16.931  29.072   0.824
28983W        W  599  41.567  14.758  11.522
28984W        W  600  19.501   7.950  13.591
28985W        W  601  24.187  32.163  12.812
28986W        W  602  18.277  41.408   5.147
28987W        W  603   6.724  33.018  13.899
28988W        W  604  16.304  16.179   1.401
28989W        W  605  29.433  39.028  11.158
28990W        W  606  29.006  37.029   3.366
28991W        W  607  32.456  44.257   0.768
28992W        W  608  34.591   5.443  12.961
28993W        W  609   2.671  21.171  12.635
28994W        W  610   6.141  43.334   0.718
28995W        W  611  27.675  36.260   0.104
28996W        W  612  16.368  20.460  11.545
28997W        W  613  20.952   6.214   4.226
28998W        W  614  14.248  35.451   1.830
28999W        W  615  14.449  31.369  14.413
29000W        W  616  22.274   9.300   4.794
29001W        W  617  26.501  19.680  12.507
29002W        W  618  36.432  44.306   2.341
29003W        W  619  35.298  22.712   0.783
29004W        W  620  38.331  20.578  12.133
29005W        W  621  28.055   1.833   2.142
29006W        W  622  13.738  23.869   4.166
29007W        W  623  43.484  37.529  14.392
29008W        W  624  12.373  14.722  13.541
29009W        W  625  29.931  22.046  11.184
29010W        W  626  35.928  34.844   0.750
29011W        W  627  40.045  42.381  14.841
29012W        W  628  32.085  19.646   4.407
29013W        W  629   0.914  15.118   1.678
29014W        W  630  36.430   6.321  12.643
29015W        W  631  44.781  19.778   1.311
29016W        W  632   0.427   8.506   3.702
29017W        W  633  33.111  31.935   1.006
29018W        W  634  38.760   9.174   1.294
29019W        W  635   6.370   8.818   3.387
29020W        W  636  23.514  16.110   3.239
29021W        W  637  15.681  32.647   2.935
29022W        W  638  30.241  39.486   2.760
29023W        W  639  10.280   3.235  14.985
29024W        W  640   0.632  28.567   0.778
29025W        W  641  32.619  29.678  14.492
29026W        W  642  18.498   8.240   3.253
29027W        W  643   6.035  38.384  12.468
29028W        W  644  31.408   7.557  12.689
29029W        W  645  18.367  31.619   1.884
29030W        W  646  36.616  42.971  11.065
29031W        W  647  37.792  38.209   1.808
29032W        W  648  37.641  17.019  13.629
29033W        W  649  23.022  44.098  11.640
29034W        W  650  29.729   1.341  12.111
29035W        W  651  36.903  13.825  12.583
29036W        W  652  31.103  41.743   1.766
29037W        W  653   5.210  15.877  13.275
29038W        W  654  19.409   6.344   4.304
29039W        W  655  20.982  37.465   4.631
29040W        W  656  32.078  41.383   3.349
29041W        W  657   1.819   9.505   4.581
29042W        W  658  25.194  38.329  13.460
29043W        W  659  16.574  14.364   1.446
29044W        W  660  36.349   5.372   3.722
29045W        W  661   2.901   5.177   4.839
29046W        W  662  38.404   6.263   2.273
29047W        W  663  27.370   3.816   2.524
29048W        W  664  16.024   3.634   3.218
29049W        W  665   5.800   4.214   2.580
29050W        W  666   5.381  44.245  11.610
29051W        W  667  35.049  15.829   0.013
29052W        W  668  27.033  27.208   4.439
29053W        W  669  36.044  19.905  14.500
29054W        W  670  26.460   1.873   2.325
29055W        W  671  33.402  26.519   4.457
29056W        W  672   1.196  24.042  10.034
29057W        W  673  37.943   8.408   4.039
29058W        W  674  34.536   4.856   0.337
29059W        W  675  32.380  44.346   1.674
29060W        W  676  12.240  24.042   3.108
29061W        W  677  42.515  31.706   1.576
29062W        W  678  15.112   7.522  14.342
29063W        W  679  18.898  31.149  13.870
29064W        W  680  36.346  18.328   1.398
29065W        W  681  44.787  13.345   0.917
29066W        W  682  34.217   9.681  12.555
29067W        W  683  23.502  31.153   1.230
29068W        W  684  34.121  20.566  11.847
29069W        W  685  30.114  25.225  12.897
29070W        W  686   2.167  16.199   3.090
29071W        W  687  20.152   5.852  13.252
29072W        W  688  13.315  31.905   0.350
29073W        W  689  12.641  37.501   1.824
29074W        W  690  32.452   0.493  13.455
29075W        W  691  44.775  21.183  13.591
29076W        W  692   0.837   0.129  14.581
29077W        W  693  32.160  17.997  13.464
29078W        W  694  39.691  11.194  13.310
29079W        W  695  27.951  27.729  12.253
29080W        W  696  16.788  17.625   3.318
29081W        W  697   4.839  28.961  14.599
29082W        W  698  18.649   3.307   4.650
29083W        W  699  10.311  41.089   2.413
29084W        W  700  20.018  33.658   4.184
29085W        W  701   3.948  29.852   2.689
29086W        W  702  18.422   6.953  13.843
29087W        W  703  42.385   9.397   2.076
29088W        W  704  21.458  34.440   3.181
29089W        W  705   0.844   5.900   0.883
29090W        W  706  39.375  14.017   2.705
29091W        W  707  12.436  15.702  12.013
29092W        W  708  33.428  21.464  10.685
29093W        W  709  43.849   0.579  10.270
29094W        W  710  19.634   4.448  11.721
29095W        W  711  15.681  32.373   1.452
29096W        W  712  32.971  21.049  12.565
29097W        W  713  36.476  35.377  10.612
29098W        W  714  15.109  32.107  14.289
29099W        W  715   2.290  10.647  10.768
29100W        W  716  15.323  44.858   1.839
29101W        W  717  37.286  14.656  11.198
29102W        W  718  29.179  40.478  12.580
29103W        W  719  42.295  15.757   4.373
29104W        W  720  16.209  23.515  12.695
29105W        W  721   7.417  23.605  14.542
29106W        W  722  35.520  13.681   1.829
29107W        W  723  19.240  25.151  11.986
29108W        W  724  15.727  15.607   2.141
29109W        W  725  14.836   9.364  11.493
29110W        W  726   1.362  24.697  10.622
29111W        W  727  21.690  24.859   2.281
29112W        W  728  12.874  29.881   2.646
29113W        W  729  31.903  22.694   2.283
29114W        W  730  30.685  23.554   2.713
29115W        W  731  44.346  31.076   4.765
29116W        W  732   6.320  10.432   5.076
29117W        W  733  26.101   7.214   0.961
29118W        W  734   0.880  39.255   9.998
29119W        W  735  35.969  34.551   4.524
29120W        W  736   6.347  40.937   4.356
29121W        W  737  18.061  43.878   0.979
29122W        W  738  37.517  33.708  11.239
29123W        W  739  30.386  10.593   1.950
29124W        W  740   9.376  25.714  11.579
29125W        W  741  41.490  29.970  13.065
29126W        W  742   8.635  18.768  13.627
29127W        W  743  21.934  12.924  12.433
29128W        W  744  35.605  13.204   3.116
29129W        W  745  31.540  20.296  12.068
29130W        W  746  13.153   8.708  11.610
29131W        W  747  34.029  21.685   4.740
29132W        W  748  17.602  23.692   3.084
29133W        W  749   6.720   9.074   3.130
29134W        W  750  41.876  24.617  12.860
29135W        W  751  30.606  30.256   4.415
29136W        W  752  14.093  32.472  13.280
29137W        W  753   4.307  35.134   0.195
29138W        W  754  11.461  31.310  11.109
29139W        W  755  21.125  15.322  12.465
29140W        W  756   2.665   1.692  14.576
29141W        W  757  21.631   7.322  13.356
29142W        W  758  11.961  10.251   3.386
29143W        W  759  41.835  42.881  13.165
29144W        W  760   2.027  17.756  14.524
29145W        W  761  38.038  36.463   3.851
29146W        W  762  25.555  12.713   3.866
29147W        W  763  30.412   6.423   0.313
29148W        W  764  27.440  33.760   0.441
29149W        W  765  20.377   1.834   1.375
29150W        W  766  37.440  43.869   2.690
29151W        W  767  38.835  36.456   4.922
29152W        W  768  30.165   2.412  13.561
29153W        W  769  21.521  36.618   2.685
29154W        W  770  32.624  28.657  10.658
29155W        W  771  30.440  18.930  10.714
29156W        W  772  35.149  24.433  10.380
29157W        W  773  20.484  21.113   2.311
29158W        W  774   8.848   7.243  11.683
29159W        W  775   9.961  25.992  10.788
29160W        W  776  17.682   2.482  11.086
29161W        W  777  12.682  15.257  13.939
29162W        W  778   8.314   2.476   0.801
29163W        W  779  33.947  44.453   4.485
29164W        W  780  26.689  14.033   0.448
29165W        W  781  35.402  31.380   2.738
29166W        W  782  11.343  39.852   0.643
29167W        W  783  20.027  33.968   0.929
29168W        W  784  27.053  41.772  12.618
29169W        W  785  19.659   6.887   0.516
29170W        W  786  23.764  21.389  12.232
29171W        W  787  33.980  37.756  14.958
29172W        W  788   9.683  44.384   3.095
29173W        W  789  42.470   7.393   4.585
29174W        W  790  22.448  26.212  11.583
29175W        W  791  37.428  10.367  13.987
29176W        W  792  21.222  22.678   0.802
29177W        W  793  34.127  28.657  14.747
29178W        W  794   3.908  11.815   1.660
29179W        W  795  35.671   3.208   3.120
29180W        W  796  22.639  10.856   3.627
29181W        W  797  42.341   0.409   0.520
29182W        W  798  25.794  19.166  14.898
29183W        W  799  18.782  19.728   3.788
29184W        W  800  35.423  19.995  12.356
29185W        W  801  10.736  16.538  12.712
29186W        W  802   9.418  18.718   1.208
29187W        W  803  19.290  11.675  13.540
29188W        W  804  34.615  22.005  11.642
29189W        W  805  21.458  31.512  13.478
29190W        W  806   8.615  30.555  14.077
29191W        W  807  10.610  12.275  11.799
29192W        W  808   4.664   7.934   0.477
29193W        W  809  22.065  16.012   3.174
29194W        W  810  24.911  38.361  13.938
29195W        W  811  16.869  14.896  12.617
29196W        W  812  26.044  11.112   1.784
29197W        W  813  33.155   8.888  14.952
29198W        W  814  29.076  36.122  11.097
29199W        W  815  37.468  16.352   3.090
29200W        W  816  20.524  15.773   0.413
29201W        W  817  15.046   5.295   0.287
29202W        W  818   5.175   9.375  14.734
29203W        W  819  42.315  35.966   0.422
29204W        W  820  16.264  36.098   1.443
29205W        W  821  39.285   6.162  14.764
29206W        W  822  15.749  10.795  11.491
29207W        W  823   3.867  29.541   3.893
29208W        W  824   5.651   5.157   1.892
29209W        W  825  34.023  22.552  13.433
29210W        W  826   2.362  43.499   0.614
29211W        W  827  13.330  14.581  12.031
29212W        W  828  18.633   4.662   1.433
29213W        W  829  15.182  35.074   4.232
29214W        W  830  38.388  27.042   4.642
29215W        W  831  31.841   6.901   0.635
29216W        W  832  35.306   4.966   2.759
29217W        W  833  41.958  17.737   4.688
29218W        W  834  33.336  24.959  13.919
29219W        W  835  29.270  10.450  12.869
29220W        W  836  40.423  24.309   1.365
29221W        W  837  16.707  11.475  14.246
29222W        W  838  44.210  13.067   0.194
29223W        W  839  35.974   6.468  11.389
29224W        W  840  29.113  37.930  12.355
29225W        W  841   6.138  28.358  11.187
29226W        W  842  10.738  21.250  13.527
29227W        W  843  15.356  12.340   0.967
29228W        W  844  37.936  18.258  12.079
29229W        W  845  31.441  36.858   1.834
29230W        W  846   4.466  35.377  10.659
29231W        W  847  14.662  41.018   3.397
29232W        W  848  33.022  14.053   0.261
29233W        W  849   0.445  17.195   3.902
29234W        W  850  12.260  12.666   2.428
29235W        W  851  13.833  44.997   4.096
29236W        W  852  36.409   1.025   1.440
29237W        W  853  30.040  34.980   3.353
29238W        W  854  41.941  15.789   2.182
29239W        W  855  13.280  44.874  12.384
29240W        W  856  35.642  24.138   2.233
29241W        W  857  24.176  19.889   2.975
29242W        W  858  25.701  42.450   4.896
29243W        W  859  23.247  25.984   1.883
29244W        W  860   9.680  34.360  14.402
29245W        W  861   5.184  20.488  14.403
29246W        W  862  20.321  37.291  10.062
29247W        W  863  10.616  36.872   1.867
29248W        W  864  25.927  39.075  13.542
29249W        W  865  25.118  40.556  11.953
29250W        W  866  17.625  31.461  11.177
29251W        W  867  25.702  32.448  14.513
29252W        W  868  14.801  10.607   2.917
29253W        W  869  41.139   8.947   0.400
29254W        W  870  40.275  12.111  11.582
29255W        W  871  33.192   2.258  12.539
29256W        W  872   1.346  34.518  11.090
29257W        W  873   5.388  44.791   4.214
29258W        W  874  28.870  37.052  12.923
29259W        W  875  18.744   8.025  12.577
29260W        W  876  44.883  40.785  10.774
29261W        W  877  24.190  18.108   2.991
29262W        W  878  27.837  37.588   1.330
29263W        W  879  20.526  35.207  12.536
29264W        W  880  27.644  16.118  14.388
29265W        W  881  23.964   8.785   3.604
29266W        W  882  14.562   1.199   3.612
29267W        W  883  37.654  38.870   2.672
29268W        W  884  30.494  33.085  10.781
29269W        W  885   4.454  21.590   0.304
29270W        W  886  31.020   5.894   3.079
29271W        W  887  32.888  25.470  10.664
29272W        W  888   2.526  17.377  10.749
29273W        W  889  16.613   1.223   1.895
29274W        W  890  42.558   6.603  12.920
29275W        W  891  42.975  34.158   2.770
29276W        W  892  41.874   1.467   0.944
29277W        W  893  16.323  12.359   2.815
29278W        W  894   6.352  44.006   4.015
29279W        W  895   8.684  34.283  11.080
29280W        W  896  29.007  42.715   5.055
29281W        W  897  34.340  32.483  11.195
29282W        W  898   2.189   3.213  13.119
29283W        W  899  25.282  15.939  11.299
29284W        W  900   4.252  39.286  11.933
29285W        W  901  44.508   1.825  14.767
29286W        W  902  13.831   0.367   3.676
29287W        W  903  21.108  13.151  14.530
29288W        W  904  23.819  12.570   3.082
29289W        W  905  16.787  39.568  14.822
29290W        W  906  12.440   6.167  14.509
29291W        W  907  17.377   0.423   4.202
29292W        W  908  44.819  22.101   4.085
29293W        W  909  32.546  11.743  12.091
29294W        W  910  31.389  12.056  10.599
29295W        W  911   7.365  26.876   3.337
29296W        W  912   0.770  18.802   1.116
29297W        W  913  14.330  38.704   9.794
29298W        W  914  15.658  44.042   1.938
29299W        W  915   4.191  44.879   1.939
29300W        W  916  18.309  19.529   1.825
29301W        W  917  11.212  31.314   3.658
29302W        W  918  32.276   4.685   2.351
29303W        W  919  19.323  39.817  14.821
29304W        W  920  11.656  32.488   3.760
29305W        W  921   1.774   2.141   2.639
29306W        W  922  13.753  27.896   1.828
29307W        W  923  16.884  17.091  12.576
29308W        W  924  29.402   7.618   2.828
29309W        W  925  43.771  30.944   0.840
29310W        W  926  19.158  12.280   1.118
29311W        W  927   9.325  15.007  10.591
29312W        W  928  25.444  41.525  11.147
29313W        W  929  14.201  28.150   2.793
29314W        W  930   4.222  27.667  14.595
29315W        W  931  42.321  26.373  14.839
29316W        W  932  13.697  23.132  10.967
29317W        W  933  33.648   0.380  10.559
29318W        W  934  42.795  44.503   1.376
29319W        W  935  24.693  33.861   4.697
29320W        W  936   6.261  34.433  14.333
29321W        W  937   5.307  19.680  12.530
29322W        W  938  42.278  34.400  14.370
29323W        W  939  27.893  32.495   4.374
29324W        W  940  27.486  37.415  13.546
29325W        W  941  35.392  14.168  14.213
29326W        W  942  39.869   5.546   0.202
29327W        W  943   0.852  41.207  12.578
29328W        W  944  21.519  36.288   3.151
29329W        W  945  26.420  18.195   1.357
29330W        W  946  35.871   9.756  13.337
29331W        W  947  31.657  43.931  10.430
29332W        W  948  22.595  19.208   4.568
29333W        W  949  13.400  16.129  11.376
29334W        W  950   6.913  33.472   0.900
29335W        W  951  32.370  33.089   4.882
29336W        W  952   4.447  42.342  12.059
29337W        W  953  43.017  18.031   2.386
29338W        W  954  11.684  16.198  12.873
29339W        W  955  21.595  19.997  10.792
29340W        W  956  15.699  33.190  12.058
29341W        W  957   0.477  25.557  13.122
29342W        W  958  13.385  31.363  10.629
29343W        W  959  44.242  30.129   3.216
29344W        W  960  39.342   8.226  10.742
29345W        W  961  43.084  30.963   2.935
29346W        W  962  35.147   7.234   4.123
29347W        W  963  43.286  21.348   1.948
29348W        W  964  21.241  18.249   0.380
29349W        W  965  35.343   3.420   2.765
29350W        W  966  34.239   6.708  13.330
29351W        W  967   9.579  24.065   4.199
29352W        W  968  13.844  37.578  14.861
29353W        W  969  13.086   1.261   2.449
29354W        W  970  22.093  44.502   1.359
29355W        W  971   0.413  37.712   1.667
29356W        W  972  25.505   8.811   2.753
29357W        W  973   6.392   3.470   1.309
29358W        W  974  37.170  35.316  12.463
29359W        W  975  41.107  19.039   4.570
29360W        W  976  37.258  22.454   1.937
29361W        W  977   6.754  10.907   1.691
29362W        W  978   1.425  11.405   0.775
29363W        W  979   6.944  27.905   0.232
29364W        W  980   9.127   7.773  11.133
29365W        W  981  35.994   2.987  12.975
29366W        W  982  32.424  39.143  10.264
29367W        W  983   0.946  15.744   4.612
29368W        W  984  11.693  36.466  13.585
29369W        W  985  34.893  20.097   0.733
29370W        W  986  32.418  40.752   2.858
29371W        W  987  34.790  33.471  14.889
29372W        W  988   9.942  39.361   4.792
29373W        W  989  38.821  38.993   0.446
29374W        W  990  44.719  28.135   4.563
29375W        W  991  26.670   2.827  14.787
29376W        W  992  44.205  10.369   1.293
29377W        W  993   5.024  22.359   1.412
29378W        W  994  13.128  44.555   4.151
29379W        W  995  28.028  18.961   1.830
29380W        W  996  21.662  17.597  10.344
29381W        W  997   8.821  24.587   4.609
29382W        W  998  30.843  29.409   4.174
29383W        W  999  41.376  10.171  14.804
29384W        W 1000  31.776  22.847   5.097
29385W        W 1001  27.245  28.898   4.684
29386W        W 1002  42.637  44.285  11.288
29387W        W 1003   0.969  26.264   0.685
29388W        W 1004  33.898  36.815  14.899
29389W        W 1005  17.360  15.820  13.486
29390W        W 1006   9.904   3.203  12.432
29391W        W 1007   9.282  19.355  10.505
29392W        W 1008  25.465  33.733   2.890
29393W        W 1009  26.363  11.732   0.421
29394W        W 1010  40.427  11.974   3.066
29395W        W 1011  24.774  22.219   0.210
29396W        W 1012  21.253  33.391   0.459
29397W        W 1013  24.743   4.868  14.737
29398W        W 1014   7.142  11.888   3.984
29399W        W 1015  42.860  28.715   0.758
29400W        W 1016  22.204  24.969   4.736
29401W        W 1017   2.959   7.730   2.280
29402W        W 1018  27.967  24.657  13.003
29403W        W 1019  16.352  42.519  13.079
29404W        W 1020  39.789  36.000   1.990
29405W        W 1021  20.419  43.522   4.220
29406W        W 1022  34.330  11.725  12.158
29407W        W 1023  35.978   7.201   0.834
29408W        W 1024   2.315  29.160   1.651
29409W        W 1025  22.338  19.975  11.564
29410W        W 1026  21.538   2.858   2.167
29411W        W 1027  43.589   8.052  14.287
29412W        W 1028  39.814  33.239   1.793
29413W        W 1029   5.188   0.048  13.311
29414W        W 1030  28.174   9.724   0.445
29415W        W 1031   8.384   1.013  14.855
29416W        W 1032  42.292  22.905   4.130
29417W        W 1033  37.004  34.625  13.867
29418W        W 1034   6.230  22.632   3.104
29419W        W 1035  32.714  28.192   1.860
29420W        W 1036   8.913  14.017   1.412
29421W        W 1037  13.407  38.444   1.571
29422W        W 1038  40.909  26.272  13.512
29423W        W 1039  27.268  14.934   3.169
29424W        W 1040  37.958  18.301   1.761
29425W        W 1041  44.513  23.572  11.911
29426W        W 1042  21.011  16.665  13.088
29427W        W 1043  41.189  38.003   4.635
29428W        W 1044  11.905  12.808  12.201
29429W        W 1045  27.640   6.773  14.623
29430W        W 1046   8.832  23.003   2.340
29431W        W 1047  10.929  12.112   2.139
29432W        W 1048  24.290  28.100   2.300
29433W        W 1049   4.252  17.819   2.255
29434W        W 1050  14.789  32.001  10.124
29435W        W 1051  38.922   1.457   0.776
29436W        W 1052  14.352  27.524  10.681
29437W        W 1053  15.592  18.076  11.831
29438W        W 1054   6.486   2.440   0.632
29439W        W 1055  28.604  14.273  10.258
29440W        W 1056  37.846   8.350  11.902
29441W        W 1057   1.315  44.920   3.197
29442W        W 1058   0.923  38.518  14.212
29443W        W 1059  18.748   7.056   4.215
29444W        W 1060  40.815  28.030   4.649
29445W        W 1061  16.335  43.512   4.293
29446W        W 1062  37.805  15.504  11.053
29447W        W 1063  26.085  27.380  13.265
29448W        W 1064  28.977  16.204  13.344
29449W        W 1065  41.546   6.117  13.530
29450W        W 1066  44.335   2.811  10.534
29451W        W 1067   5.907  37.901  10.623
29452W        W 1068  40.794   0.775  11.897
29453W        W 1069  30.579  38.330   4.035
29454W        W 1070   8.877   8.117   1.399
29455W        W 1071  29.222  42.546  12.032
29456W        W 1072  30.665  11.750  13.475
29457W        W 1073   7.800   0.549   3.444
29458W        W 1074   7.174  30.021  12.952
29459W        W 1075  18.536  23.967   4.122
29460W        W 1076  27.933  26.073  14.829
29461W        W 1077  18.011  27.011   0.966
29462W        W 1078  35.626  33.851  11.606
29463W        W 1079   1.152   7.605  12.472
29464W        W 1080  38.328  40.733  10.743
29465W        W 1081   0.010  32.154  12.520
29466W        W 1082   9.372  35.372  12.861
29467W        W 1083  44.037  16.291   2.186
29468W        W 1084  42.003   3.004  12.903
29469W        W 1085   1.913  28.229   3.332
29470W        W 1086  23.473  20.000  10.581
29471W        W 1087  25.470  25.183  11.517
29472W        W 1088  28.975  34.391  14.991
29473W        W 1089  30.181   1.245  12.343
29474W        W 1090  14.825   3.803  14.895
29475W        W 1091  28.024  21.231   2.274
29476W        W 1092  30.340  40.627   1.697
29477W        W 1093  33.012  32.325  14.602
29478W        W 1094  14.858  37.918  13.063
29479W        W 1095  32.647  30.537   1.893
29480W        W 1096  34.643   6.781   0.824
29481W        W 1097  12.203  41.021   2.914
29482W        W 1098  23.976   3.963  12.520
29483W        W 1099  37.512  17.563   2.833
29484W        W 1100  20.207  16.602  13.926
29485W        W 1101  28.228  11.327   3.678
29486W        W 1102  40.495  34.054  12.480
29487W        W 1103  28.476  12.330  11.604
29488W        W 1104  22.647  19.240  11.058
29489W        W 1105  31.583  20.215   5.019
29490W        W 1106  27.137  34.889  14.613
29491W        W 1107  12.842  32.090  13.082
29492W        W 1108   0.926  14.042  11.454
29493W        W 1109  31.436  10.960   4.040
29494W        W 1110  35.294  38.477   1.013
29495W        W 1111  23.596  17.262   4.020
29496W        W 1112  22.032  15.804   0.659
29497W        W 1113  14.323  37.437  14.895
29498W        W 1114  23.205   4.413   2.707
29499W        W 1115  43.354  40.083  14.781
29500W        W 1116  16.982  35.789   3.125
29501W        W 1117   4.938   7.847  13.485
29502W        W 1118  15.050  43.123  14.280
29503W        W 1119  44.100  39.288   3.695
29504W        W 1120   5.698   3.255  13.860
29505W        W 1121  43.670  20.464   4.316
29506W        W 1122  12.986  19.799  14.556
29507W        W 1123  27.179  13.469   3.284
29508W        W 1124   3.328  21.477   3.830
29509W        W 1125  27.413  30.834   1.168
29510W        W 1126  12.595  15.184  12.477
29511W        W 1127  10.291   1.836   3.799
29512W        W 1128  12.322  22.261   4.138
29513W        W 1129   8.864  43.811   0.183
29514W        W 1130   5.294   4.837   4.839
29515W        W 1131   8.987  13.218   4.561
29516W        W 1132   7.325  26.550  10.751
29517W        W 1133  39.833  43.234   3.943
29518W        W 1134  24.026  43.310  14.375
29519W        W 1135  36.893  25.919  14.052
29520W        W 1136  22.298  24.701  13.885
29521W        W 1137  42.292  23.175  12.827
29522W        W 1138   1.807  17.368  14.276
29523W        W 1139  31.912  12.119   2.498
29524W        W 1140  29.156  11.833  13.864
29525W        W 1141   0.770   0.348  11.743
29526W        W 1142  12.694  24.343   0.377
29527W        W 1143  10.395   1.674   2.807
29528W        W 1144  40.403  38.485  11.386
29529W        W 1145  39.519  44.894  14.782
29530W        W 1146   3.481  23.074   1.665
29531W        W 1147  17.394  32.362  11.222
29532W        W 1148   7.981  20.192  10.786
29533W        W 1149  26.561  44.437   4.514
29534W        W 1150   3.786  33.507   4.934
29535W        W 1151  23.075  26.016  12.952
29536W        W 1152  22.293  20.206   0.104
29537W        W 1153  16.662   2.329   1.808
29538W        W 1154  31.361  17.303   1.812
29539W        W 1155  16.159   3.457   2.450
29540W        W 1156  39.728  29.575  14.824
29541W        W 1157  25.726  24.383  12.816
29542W        W 1158  42.911  44.884   1.725
29543W        W 1159  26.936  14.457   5.158
29544W        W 1160  21.024  40.516   0.712
29545W        W 1161  35.427  41.452   3.578
29546W        W 1162  31.909  31.958  14.328
29547W        W 1163  11.686  10.595   0.657
29548W        W 1164  24.224  22.504   2.320
29549W        W 1165  26.055  10.200   0.765
29550W        W 1166   4.497  13.531   1.794
29551W        W 1167  41.348  22.188   0.776
29552W        W 1168  17.674  38.274   3.672
29553W        W 1169  12.356  12.112   1.688
29554W        W 1170  17.166   8.822   3.768
29555W        W 1171  33.941  31.073  13.982
29556W        W 1172  31.048  16.056   4.709
29557W        W 1173  28.432  15.143  13.981
29558W        W 1174  25.903   4.748  10.920
29559W        W 1175  24.011   4.643   3.339
29560W        W 1176  23.309  27.193   2.290
29561W        W 1177  31.596  31.023   5.030
29562W        W 1178  40.734   2.737   1.469
29563W        W 1179  18.589  28.937  12.836
29564W        W 1180  15.697  33.857   1.803
29565W        W 1181  12.912  29.092  12.466
29566W        W 1182   2.364   8.950   2.578
29567W        W 1183   2.288  16.398  12.293
29568W        W 1184  14.037  26.496  12.000
29569W        W 1185   8.793  14.063   4.114
29570W        W 1186  34.430  27.650   4.309
29571W        W 1187  23.521  26.976   4.532
29572W        W 1188   3.214  14.496   1.186
29573W        W 1189  44.434  26.269   2.622
29574W        W 1190   5.191  13.411   0.579
29575W        W 1191  16.319  25.959  12.407
29576W        W 1192  38.559  38.082   0.419
29577W        W 1193  17.042  43.013   1.916
29578W        W 1194  40.182  31.941   2.586
29579W        W 1195  22.992  19.676   3.763
29580W        W 1196  12.754  29.247   2.191
29581W        W 1197   3.750  40.846  14.303
29582W        W 1198  34.597  20.342   1.222
29583W        W 1199  14.128  30.579  13.398
29584W        W 1200  11.679  13.243  13.120
29585W        W 1201  15.636  23.356   0.206
29586W        W 1202   9.186  29.601  12.345
29587W        W 1203  44.875  30.438   4.207
29588W        W 1204  12.712  32.079  14.089
29589W        W 1205   8.308  23.817   0.489
29590W        W 1206  15.663  19.099  11.170
29591W        W 1207   7.633  31.272   2.147
29592W        W 1208  29.274  18.019   0.011
29593W        W 1209  21.069   5.461   1.947
29594W        W 1210  20.659  22.228   1.780
29595W        W 1211  27.772  31.463  11.992
29596W        W 1212  18.163  27.411  11.155
29597W        W 1213  44.523  35.721   4.949
29598W        W 1214  43.778  31.898   4.563
29599W        W 1215  27.482  17.575  14.321
29600W        W 1216  17.815  30.975  12.041
29601W        W 1217   4.858  30.501   4.699
29602W        W 1218  26.751   6.261  10.716
29603W        W 1219  37.836   6.250  11.620
29604W        W 1220  43.967  32.892  10.605
29605W        W 1221  11.866  12.807  14.898
29606W        W 1222  44.916  15.370  14.852
29607W        W 1223  20.194   8.406  10.696
29608W        W 1224  26.620  26.478  11.624
29609W        W 1225  19.582  33.553   0.236
29610W        W 1226  27.625  31.039  11.709
29611W        W 1227  41.879  18.138  13.075
29612W        W 1228  12.206  24.596   1.337
29613W        W 1229   3.377  37.992   4.159
29614W        W 1230  34.122  13.646   3.814
29615W        W 1231   5.196  43.860  11.007
29616W        W 1232  16.265  43.434  14.978
29617W        W 1233  39.855  21.765   4.793
29618W        W 1234  26.083  19.788   4.624
29619W        W 1235  24.732  43.266  10.667
29620W        W 1236   7.874  13.182  11.894
29621W        W 1237   8.627  36.092  11.394
29622W        W 1238   9.407  43.856   4.432
29623W        W 1239   3.768   7.771  12.497
29624W        W 1240  39.831  15.573   1.276
29625W        W 1241  44.005  35.261   0.845
29626W        W 1242  14.660  11.791  11.478
29627W        W 1243  21.516   9.211  10.746
29628W        W 1244  44.658   8.995   3.259
29629W        W 1245  13.143  17.202   4.217
29630W        W 1246  13.932  12.841   1.843
29631W        W 1247  35.989  37.238   1.814
29632W        W 1248  29.967   6.645  13.402
29633W        W 1249   0.941   3.426   3.571
29634W        W 1250  39.049  39.607  13.368
29635W        W 1251  25.218   4.219  12.533
29636W        W 1252  14.796  22.724   3.118
29637W        W 1253  37.692  21.065   4.043
29638W        W 1254  16.257  19.835  12.570
29639W        W 1255  12.201   6.425   3.720
29640W        W 1256  40.265  41.919   4.038
29641W        W 1257   4.977  23.523  14.485
29642W        W 1258   4.475  27.915   1.854
29643W        W 1259  33.196  43.741   3.151
29644W        W 1260  19.862  44.464  13.819
29645W        W 1261  24.143  36.369   2.507
29646W        W 1262   5.738   6.569  10.855
29647W        W 1263  16.641  32.797   0.445
29648W        W 1264   4.946  16.593   4.228
29649W        W 1265  40.905  31.566  14.747
29650W        W 1266  39.350  34.520  11.942
29651W        W 1267   6.819  31.021   4.504
29652W        W 1268   5.040  17.076  12.949
29653W        W 1269  41.840   6.654   0.481
29654W        W 1270   2.291  43.431  14.265
29655W        W 1271  37.952  33.725  11.495
29656W        W 1272  16.779   4.923   3.258
29657W        W 1273  27.053  13.367   3.777
29658W        W 1274  38.363  14.380  10.617
29659W        W 1275  42.491   1.326   4.108
29660W        W 1276  28.385  18.246   1.324
29661W        W 1277  36.155   2.517   2.654
29662W        W 1278  42.262   7.806   4.815
29663W        W 1279  10.612  16.596  11.180
29664W        W 1280  13.837  19.710   3.687
29665W        W 1281  37.925  39.611  14.442
29666W        W 1282  25.072  37.125   0.949
29667W        W 1283  11.361   3.411   4.943
29668W        W 1284   9.641  23.494   1.118
29669W        W 1285  21.199  24.677   2.301
29670W        W 1286  23.788  29.564   0.009
29671W        W 1287  32.106  10.586  13.399
29672W        W 1288  39.595  29.356   0.339
29673W        W 1289   1.236  13.710   4.197
29674W        W 1290  28.067   0.729   3.477
29675W        W 1291  23.424  36.029  11.636
29676W        W 1292  32.041  21.526   4.302
29677W        W 1293   5.364  38.398  10.623
29678W        W 1294  33.642  32.037  12.440
29679W        W 1295  14.244  33.344   2.848
29680W        W 1296  40.251  33.632   3.023
29681W        W 1297  22.039   3.200  13.363
29682W        W 1298  17.355  26.928   4.806
29683W        W 1299   5.634  29.323   4.147
29684W        W 1300   4.862  14.190  12.748
29685W        W 1301  27.748   8.702  14.169
29686W        W 1302   3.371  29.424  14.755
29687W        W 1303  37.474  40.791   2.153
29688W        W 1304  34.898  25.124  12.462
29689W        W 1305  21.636  38.530  10.555
29690W        W 1306   4.392  21.505   0.929
29691W        W 1307  43.889  29.944   3.536
29692W        W 1308   0.819   6.468  11.983
29693W        W 1309  43.975  17.072  12.883
29694W        W 1310   2.841  40.250  10.652
29695W        W 1311  37.437  22.043   2.220
29696W        W 1312   9.910  20.610   2.847
29697W        W 1313   7.673  34.809  11.645
29698W        W 1314  10.591   1.993   3.385
29699W        W 1315  28.983  35.436  11.612
29700W        W 1316   4.120  43.859   4.626
29701W        W 1317  13.533  20.795   0.393
29702W        W 1318  40.353  10.533   1.177
29703W        W 1319  44.369   7.409   0.109
29704W        W 1320   8.362   2.992  13.817
29705W        W 1321  21.481   0.013  13.454
29706W        W 1322   0.804  43.930  11.409
29707W        W 1323  12.539  27.779   2.795
29708W        W 1324  39.552  15.060  11.586
29709W        W 1325  24.129  33.992  10.566
29710W        W 1326   4.766  26.217  14.002
29711W        W 1327  16.557  23.771   3.299
29712W        W 1328  38.947  41.780  12.262
29713W        W 1329  19.626   4.320   0.261
29714W        W 1330   2.778   9.239   0.949
29715W        W 1331  28.192  11.765   4.081
29716W        W 1332   3.582  19.155  13.530
29717W        W 1333  11.694  17.673   2.212
29718W        W 1334   0.314  15.125   2.399
29719W        W 1335  16.211   5.182   4.171
29720W        W 1336   9.938  44.792   3.253
29721W        W 1337  31.140  33.684  14.941
29722W        W 1338   1.268  11.158   2.426
29723W        W 1339  33.279   7.561   4.171
29724W        W 1340  23.412   1.788   1.896
29725W        W 1341  21.783  38.330  11.014
29726W        W 1342  13.799  42.970   0.953
29727W        W 1343  43.780   3.996   2.612
29728W        W 1344  11.313   4.435   2.269
29729W        W 1345  20.542  12.375   4.812
29730W        W 1346  32.450   1.791   4.530
29731W        W 1347  23.419  44.471  14.818
29732W        W 1348  34.056  30.568  12.140
29733W        W 1349  41.333  22.728  14.772
29734W        W 1350  29.411  12.260   3.296
29735W        W 1351  15.371   7.723   4.661
29736W        W 1352  31.945  23.924  10.446
29737W        W 1353  28.396   7.164   3.276
29738W        W 1354  38.165  17.695  14.727
29739W        W 1355  23.517  43.066  10.743
29740W        W 1356   6.775  30.588  14.532
29741W        W 1357  18.114  28.678  12.930
29742W        W 1358  26.797  33.963  10.677
29743W        W 1359  30.630   5.859   1.478
29744W        W 1360  14.674  12.614   1.811
29745W        W 1361   7.257  43.770   0.219
29746W        W 1362  44.784  37.107  11.423
29747W        W 1363  28.005  34.578   1.442
29748W        W 1364  38.020  40.765   1.850
29749W        W 1365  30.171  27.713   1.799
29750W        W 1366  30.081  32.009   3.887
29751W        W 1367  12.753  23.156   4.709
29752W        W 1368  13.088  43.524   2.848
29753W        W 1369  19.184  31.643  11.316
29754W        W 1370  29.662  29.120   9.945
29755W        W 1371  15.261  41.049   5.040
29756W        W 1372  25.387  43.023  14.524
29757W        W 1373  35.086  13.906   1.231
29758W        W 1374  36.865   4.640  13.894
29759W        W 1375  38.250  44.868  10.315
29760W        W 1376   9.767  32.983   3.691
29761W        W 1377  32.220   5.890  12.671
29762W        W 1378  26.288  38.953  14.813
29763W        W 1379  13.067  41.477  11.130
29764W        W 1380  27.635  43.311   1.267
29765W        W 1381  31.003   2.894  14.794
29766W        W 1382  25.592  23.056  13.628
29767W        W 1383   4.703  28.052  14.133
29768W        W 1384   0.853  41.062   3.114
29769W        W 1385  30.756  41.437   0.401
29770W        W 1386  38.891  40.603  14.476
29771W        W 1387  17.317   8.894   0.371
29772W        W 1388  44.151  15.394   4.567
29773W        W 1389   0.861  28.326  14.149
29774W        W 1390  14.922   3.339   3.180
29775W        W 1391  14.600  29.457  13.029
29776W        W 1392   6.761  40.985  10.723
29777W        W 1393  13.092  36.929  14.978
29778W        W 1394  34.647  42.751  12.092
29779W        W 1395  16.247   1.392  11.155
29780W        W 1396  10.254   8.130   4.934
29781W        W 1397  23.952  28.850   3.889
29782W        W 1398  28.719  14.127   3.636
29783W        W 1399  19.031   3.525   3.784
29784W        W 1400  28.556   9.628  14.374
29785W        W 1401  20.370  18.311   0.484
29786W        W 1402  38.106   2.975  10.709
29787W        W 1403   9.613   3.465   2.953
29788W        W 1404  38.124  42.324   4.076
29789W        W 1405  35.350  40.318  10.728
29790W        W 1406  35.632  17.091   0.920
29791W        W 1407   4.241  24.928  10.769
29792W        W 1408  15.734  27.925   0.843
29793W        W 1409   3.757  28.078  10.580
29794W        W 1410  18.668   9.607   0.911
29795W        W 1411  39.569  34.438  14.459
29796W        W 1412   6.233  43.844  14.937
29797W        W 1413   0.308  10.919  12.134
29798W        W 1414   8.660  27.202   3.138
29799W        W 1415  16.138  26.360  11.919
29800W        W 1416  30.812  13.611   1.679
29801W        W 1417   1.969  20.693   0.747
29802W        W 1418  38.053  42.510   4.942
29803W        W 1419   8.269  40.854   1.306
29804W        W 1420   0.813  26.728  11.475
29805W        W 1421  33.461  27.924   3.280
29806W        W 1422  27.941  14.832  11.502
29807W        W 1423  12.578  24.835   0.387
29808W        W 1424  43.001  41.225   2.638
29809W        W 1425  34.128   5.331  11.024
29810W        W 1426  32.695  23.397   1.812
29811W        W 1427  37.084  16.981   4.505
29812W        W 1428   3.343  39.527  11.934
29813W        W 1429  16.170  26.948   3.324
29814W        W 1430  44.992  39.570  11.586
29815W        W 1431  17.623  35.392   2.460
29816W        W 1432   5.323   9.736  12.862
29817W        W 1433  26.373  42.674   0.412
29818W        W 1434  16.669  13.230  11.900
29819W        W 1435   8.768  21.523   0.307
29820W        W 1436   1.526  19.996  12.083
29821W        W 1437  38.181  35.171   2.703
29822W        W 1438  18.502  18.689  10.869
29823W        W 1439   1.044  35.903  13.446
29824W        W 1440  43.564  25.178  14.902
29825W        W 1441   5.617  13.588   2.217
29826W        W 1442  32.496   6.219  10.305
29827W        W 1443  36.634   8.928   2.480
29828W        W 1444  21.562  13.421   2.676
29829W        W 1445  30.615  35.554  12.603
29830W        W 1446  14.128  15.467  10.707
29831W        W 1447  40.815  27.412   0.221
29832W        W 1448  43.494   2.306   2.689
29833W        W 1449  10.610  41.249   3.178
29834W        W 1450  38.567  10.203   3.186
29835W        W 1451  10.152  19.204   0.266
29836W        W 1452  31.370  29.073   3.377
29837W        W 1453  24.743  35.525   3.700
29838W        W 1454  25.102  42.572   0.791
29839W        W 1455  34.506  21.548  14.044
29840W        W 1456  12.862  43.599   2.393
29841W        W 1457   4.236  38.073  14.329
29842W        W 1458  21.010  16.390   2.836
29843W        W 1459  25.908  27.621  11.018
29844W        W 1460  32.425  28.416  11.059
29845W        W 1461  28.656  18.336   3.467
29846W        W 1462  42.071   8.958   3.671
29847W        W 1463  17.825   6.616   4.658
29848W        W 1464  21.606  38.959   0.211
29849W        W 1465  25.713   4.256   0.401
29850W        W 1466   7.664   6.284   0.412
29851W        W 1467   9.133  29.888  10.534
29852W        W 1468  43.470  26.915   1.389
29853W        W 1469  37.915   3.709  13.866
29854W        W 1470  28.763  25.523   4.280
29855W        W 1471  32.108  11.795  11.752
29856W        W 1472  12.271  27.941   4.302
29857W        W 1473  24.557  27.741   4.074
29858W        W 1474  32.020  15.171   4.514
29859W        W 1475  11.197  32.169   0.789
29860W        W 1476  40.591  39.500  11.312
29861W        W 1477  35.719  43.454   3.258
29862W        W 1478  44.412  24.090  11.987
29863W        W 1479  33.438  12.813  12.200
29864W        W 1480  12.828   2.914  10.984
29865W        W 1481  28.669  23.700  11.148
29866W        W 1482  14.581  31.926   0.986
29867W        W 1483  12.434  29.903  11.104
29868W        W 1484   2.437  10.065   3.854
29869W        W 1485  26.951   3.841  12.330
29870W        W 1486  11.656   1.267   3.134
29871W        W 1487  20.654  34.876  11.221
29872W        W 1488  28.911  43.192  11.120
29873W        W 1489  41.081  42.773   2.328
29874W        W 1490   5.443  16.884  13.236
29875W        W 1491  33.116   0.314   2.840
29876W        W 1492   1.567  15.052   0.237
29877W        W 1493   8.572   3.401  10.224
29878W        W 1494   3.796  22.260   0.655
29879W        W 1495  27.706  11.573   3.170
29880W        W 1496  36.528  24.427  12.051
29881W        W 1497  17.734  31.032   1.686
29882W        W 1498  28.752   8.741  11.768
29883W        W 1499  32.957  34.211  14.859
29884W        W 1500  16.558  35.606  13.461
29885W        W 1501  21.070  35.817  13.234
29886W        W 1502   8.313  16.362  11.092
29887W        W 1503   8.692  22.110  11.996
29888W        W 1504   8.794  42.105   0.774
29889W        W 1505  15.786   0.034   1.716
29890W        W 1506  12.631  22.619   3.358
29891W        W 1507  14.865  43.478  11.510
29892W        W 1508  43.154   0.714  12.506
29893W        W 1509   1.414  19.061  14.338
29894W        W 1510  33.977   4.324   0.838
29895W        W 1511  10.670  15.194   4.856
29896W        W 1512  29.645  43.453  11.471
29897W        W 1513  17.742  20.730  10.846
29898W        W 1514  17.986  15.634  14.974
29899W        W 1515   9.346  24.628  14.764
29900W        W 1516  18.663  36.318  10.479
29901W        W 1517  23.485   8.234   0.929
29902W        W 1518  29.635  16.745  14.930
29903W        W 1519  28.132  43.807   1.061
29904W        W 1520  35.600   6.616  13.487
29905W        W 1521   4.294  23.513  14.273
29906W        W 1522   2.695  38.156   1.976
29907W        W 1523   6.348  25.002  10.670
29908W        W 1524   2.570   9.822   2.912
29909W        W 1525  36.632  38.565  12.375
29910W        W 1526   0.768  33.842  13.566
29911W        W 1527  35.104  42.543  13.348
29912W        W 1528   4.907   3.265   9.684
29913W        W 1529   5.685  20.555  13.522
29914W        W 1530  34.312  36.054   2.710
29915W        W 1531  10.301   7.500  13.592
29916W        W 1532  30.608  26.514  13.798
29917W        W 1533  32.830   8.175   0.463
29918W        W 1534  27.403  31.741   2.958
29919W        W 1535  31.439  36.933  12.041
29920W        W 1536  15.302  43.823  14.863
29921W        W 1537  18.992  17.776  14.932
29922W        W 1538  35.378  34.557  13.580
29923W        W 1539  34.149  13.392  14.885
29924W        W 1540   6.192  32.687  14.038
29925W        W 1541  44.166   1.286  11.447
29926W        W 1542  41.968  29.077  13.747
29927W        W 1543  40.429  13.706  11.633
29928W        W 1544   7.595  37.896   3.640
29929W        W 1545  15.721  13.028   2.681
29930W        W 1546  18.134  44.903  13.810
29931W        W 1547  27.714   2.379   3.725
29932W        W 1548   3.432  15.639   3.360
29933W        W 1549   8.645  38.022  13.767
29934W        W 1550  28.570  22.826  11.683
29935W        W 1551  25.150  40.007  11.702
29936W        W 1552   3.690   0.265  11.891
29937W        W 1553  33.380  10.393  13.850
29938W        W 1554  44.030  38.635  13.062
29939W        W 1555   2.247  14.734   1.823
29940W        W 1556  15.792  35.966  11.623
29941W        W 1557  27.907  31.037   1.162
29942W        W 1558   2.363  25.230   5.501
29943W        W 1559  33.150   7.530  11.269
29944W        W 1560   6.639  24.522   0.244
29945W        W 1561  10.466  23.671   0.800
29946W        W 1562  16.602  34.681   1.684
29947W        W 1563   3.443   9.957  10.681
29948W        W 1564  35.935  31.912   4.955
29949W        W 1565  39.516   2.815  13.796
29950W        W 1566  29.377   7.363  10.204
29951W        W 1567  21.690   8.103  11.572
29952W        W 1568  23.285   7.390  11.805
29953W        W 1569   9.136  10.839  14.404
29954W        W 1570  36.459   5.709   1.971
29955W        W 1571  34.861  16.296  13.888
29956W        W 1572  19.320  38.123  11.047
29957W        W 1573   5.269  38.201   1.424
29958W        W 1574  36.319  16.574  11.088
29959W        W 1575  40.900  31.463   0.284
29960W        W 1576   6.019  40.450  11.815
29961W        W 1577   1.830  37.860  10.970
29962W        W 1578  28.972  18.224   3.081
29963W        W 1579  29.927   4.959  10.779
29964W        W 1580   7.443  38.687   0.531
29965W        W 1581  43.906  22.691   1.834
29966W        W 1582  41.089   3.795  10.987
29967W        W 1583   2.307  23.168  11.741
29968W        W 1584   1.929   4.404   2.654
29969W        W 1585  28.018   2.150  14.523
29970W        W 1586   9.152   8.863  14.051
29971W        W 1587  44.444  19.494  11.602
29972W        W 1588  29.433   9.389  11.069
29973W        W 1589   2.489   5.185  10.712
29974W        W 1590  32.192  33.374  13.315
29975W        W 1591   0.806   9.203   0.899
29976W        W 1592  22.785  27.226   2.389
29977W        W 1593  26.273  14.295  14.499
29978W        W 1594  20.021  12.203   3.097
29979W        W 1595  33.673  28.572  13.328
29980W        W 1596  36.626  18.876  14.867
29981W        W 1597   1.882   2.983  13.998
29982W        W 1598  35.147  43.472  11.729
29983W        W 1599  40.025  10.893  13.575
29984W        W 1600  21.864  24.013   0.898
29985W        W 1601  19.029  11.760   1.192
29986W        W 1602  26.117  38.936  10.979
29987W        W 1603  41.373  11.654   3.804
29988W        W 1604  25.893  15.262  11.048
29989W        W 1605  40.488  21.298  13.728
29990W        W 1606  44.375  16.721  12.987
29991W        W 1607  42.883  12.609  12.854
29992W        W 1608   0.366  36.443   4.191
29993W        W 1609  18.870  38.086   0.332
29994W        W 1610   9.345   6.661   3.452
29995W        W 1611  36.933  12.554   4.973
29996W        W 1612   7.923  10.104  12.056
29997W        W 1613   3.753  30.745  10.784
29998W        W 1614   2.633  33.538  14.733
29999W        W 1615  20.077  21.245   4.114
30000W        W 1616  21.212   6.269  13.161
30001W        W 1617  23.548   5.833  11.469
30002W        W 1618   4.953  16.229  13.652
30003W        W 1619  19.958  13.731  13.856
30004W        W 1620  27.523  33.217   4.578
30005W        W 1621  20.085  44.443   0.333
30006W        W 1622  37.077   2.048  14.595
30007W        W 1623  12.571  18.107  13.275
30008W        W 1624   2.710  28.723   0.364
30009W        W 1625  42.586  31.341   4.164
30010W        W 1626  35.837  24.240   1.349
30011W        W 1627  36.971  37.375   3.601
30012W        W 1628  14.579  44.861   3.559
30013W        W 1629  23.516   2.425   2.524
30014W        W 1630  38.342  28.022  13.840
30015W        W 1631  20.796  14.523  12.539
30016W        W 1632  40.538  40.589   3.750
30017W        W 1633  43.489  25.998  12.522
30018W        W 1634   1.872  34.465   2.688
30019W        W 1635   9.296  18.571  13.874
30020W        W 1636  35.665  40.449   0.845
30021W        W 1637   9.310  29.485   0.761
30022W        W 1638  35.099  19.810   3.923
30023W        W 1639  41.932  33.652   3.127
30024W        W 1640   5.793   7.479  10.523
30025W        W 1641  16.022  18.810  12.483
30026W        W 1642  41.062   1.698  12.217
30027W        W 1643   2.153   2.409   4.563
30028W        W 1644  22.118   2.862  11.881
30029W        W 1645  19.148  44.406   5.022
30030W        W 1646  41.932  15.777   3.257
30031W        W 1647  18.600   1.865  10.267
30032W        W 1648  10.164  36.034   4.230
30033W        W 1649   1.905   1.213  11.608
30034W        W 1650  17.585  38.460  11.164
30035W        W 1651  30.292  25.264  14.909
30036W        W 1652   0.935   1.067   4.139
30037W        W 1653   3.030  16.113   2.771
30038W        W 1654  25.069  28.558  11.602
30039W        W 1655  15.104   1.352  10.694
30040W        W 1656   7.851  33.508   4.245
30041W        W 1657   9.468  35.865  13.403
30042W        W 1658  33.398  37.624   4.130
30043W        W 1659   0.477  14.879   3.605
30044W        W 1660  40.088  11.899  11.141
30045W        W 1661   1.326  20.959   3.825
30046W        W 1662  14.898  15.511   0.671
30047W        W 1663  12.148   0.999   1.832
30048W        W 1664  25.377  34.915  11.962
30049W        W 1665  19.394  20.097   4.702
30050W        W 1666  39.096  37.960  14.285
30051W        W 1667  29.766   6.345  14.561
30052W        W 1668  39.810  22.127  13.007
30053W        W 1669  41.831  35.285  14.376
30054W        W 1670  25.743  30.586  13.318
30055W        W 1671  14.052  18.218  12.689
30056W        W 1672  32.541  41.855  12.981
30057W        W 1673  36.848  26.735   3.185
30058W        W 1674  17.494  19.994   4.818
30059W        W 1675  17.258  28.192   0.887
30060W        W 1676  37.335  19.887   2.754
30061W        W 1677   2.327   8.630  14.986
30062W        W 1678  39.442   8.935  14.152
30063W        W 1679  42.380  21.019  10.973
30064W        W 1680   1.521  25.767   3.341
30065W        W 1681  38.089  10.305  12.873
30066W        W 1682   5.813  28.486  13.551
30067W        W 1683   4.444  32.504   1.233
30068W        W 1684  36.594  23.061  13.997
30069W        W 1685   8.111  12.223   2.250
30070W        W 1686  35.014   2.134  10.972
30071W        W 1687   8.133   5.128  14.997
30072W        W 1688  13.229  32.610  14.419
30073W        W 1689  34.694   6.245   2.296
30074W        W 1690  11.787  26.953  10.532
30075W        W 1691   3.821   8.202   3.793
30076W        W 1692  18.343  15.810   4.178
30077W        W 1693  34.300  27.206  14.778
30078W        W 1694  20.103  40.395  13.885
30079W        W 1695   4.643  28.595   0.405
30080W        W 1696  41.625  34.636   3.845
30081W        W 1697  22.500   3.227  10.014
30082W        W 1698  11.731  18.601   2.939
30083W        W 1699  36.648  33.889  11.601
30084W        W 1700   9.223   2.382  13.008
30085W        W 1701  15.121  27.284   0.931
30086W        W 1702   8.326  31.153  12.077
30087W        W 1703  33.688   0.509   1.354
30088W        W 1704  24.023   1.881   2.447
30089W        W 1705  26.058  18.260  12.511
30090W        W 1706  26.726  23.280   1.934
30091W        W 1707   6.774  14.358  13.922
30092W        W 1708  28.189  18.585  11.357
30093W        W 1709  11.689  37.966   3.808
30094W        W 1710  36.889  44.893  10.622
30095W        W 1711   1.735   7.375   0.371
30096W        W 1712  16.547  14.789  13.880
30097W        W 1713  29.468  26.026   2.474
30098W        W 1714  19.598  40.634  12.802
30099W        W 1715  12.139  31.422  11.029
30100W        W 1716  43.931   5.542  10.733
30101W        W 1717  20.079   7.310   3.776
30102W        W 1718  26.815  19.246   2.198
30103W        W 1719  30.666  29.690   0.550
30104W        W 1720  40.802  38.808  12.908
30105W        W 1721  42.778  28.529   4.617
30106W        W 1722  16.130  10.599   4.751
30107W        W 1723  19.541  11.227  13.419
30108W        W 1724  35.414   3.698   4.650
30109W        W 1725  14.399  32.055   0.450
30110W        W 1726   4.652  16.298   0.303
30111W        W 1727  35.328  16.699   2.703
30112W        W 1728  42.009  12.184  11.913
30113W        W 1729   2.358   0.477   2.623
30114W        W 1730   6.293  29.960  11.815
30115W        W 1731  10.489  40.066  14.522
30116W        W 1732  34.813  34.571  10.804
30117W        W 1733   3.464  29.873   0.096
30118W        W 1734  34.042  15.418   2.263
30119W        W 1735  38.496   5.827   1.892
30120W        W 1736  25.468  43.300   5.026
30121W        W 1737  21.074  26.618   2.414
30122W        W 1738   3.767  28.421  12.820
30123W        W 1739  11.867  23.027  11.708
30124W        W 1740   7.968  37.041   0.372
30125W        W 1741  22.441  17.862   4.548
30126W        W 1742  19.306  22.665  11.725
30127W        W 1743  19.693  12.610  10.702
30128W        W 1744  26.082  13.351   0.423
30129W        W 1745   9.380  33.995  11.211
30130W        W 1746  17.070  13.222   1.418
30131W        W 1747   4.746  33.945  13.000
30132W        W 1748  31.841  20.994   3.551
30133W        W 1749   6.466  12.606   2.297
30134W        W 1750   7.202  41.243  11.102
30135W        W 1751  15.388   0.351  13.779
30136W        W 1752  44.399   4.972  12.471
30137W        W 1753   4.443  32.415   3.628
30138W        W 1754   9.572  28.142   1.280
30139W        W 1755   2.344  13.594  12.602
30140W        W 1756  15.234  27.673  12.949
30141W        W 1757  41.371  37.092  14.382
30142W        W 1758  20.071   1.301   1.938
30143W        W 1759   9.852  39.114   2.095
30144W        W 1760  16.569  31.237  14.363
30145W        W 1761   5.966  17.513   1.252
30146W        W 1762  19.553  17.437  14.037
30147W        W 1763  37.831  38.559  10.602
30148W        W 1764  44.239  34.104  12.015
30149W        W 1765  34.451  25.900   0.916
30150W        W 1766  22.039   0.863  10.723
30151W        W 1767  38.350  29.584   4.253
30152W        W 1768  10.622  27.413   0.216
30153W        W 1769  20.565  19.263  12.987
30154W        W 1770  24.644  43.474   3.782
30155W        W 1771  35.389   4.010  14.524
30156W        W 1772  31.637  34.037  12.165
30157W        W 1773   8.117  43.036   1.175
30158W        W 1774  31.613  12.082   0.370
30159W        W 1775  21.240  44.248  11.461
30160W        W 1776  14.730  21.341  11.142
30161W        W 1777  19.287  35.578  10.707
30162W        W 1778   8.747   8.223   4.396
30163W        W 1779   5.255  30.710  13.296
30164W        W 1780  40.857  42.428  11.559
30165W        W 1781  35.846  34.117  11.988
30166W        W 1782   8.880  28.531  11.853
30167W        W 1783  18.577   2.253  12.405
30168W        W 1784  31.020  13.313  15.000
30169W        W 1785  22.108  40.571  14.019
30170W        W 1786  32.647  31.331  14.814
30171W        W 1787  41.221   0.370   4.878
30172W        W 1788  40.804  28.727  14.345
30173W        W 1789  36.320  36.073  13.777
30174W        W 1790   9.783  36.599  10.583
30175W        W 1791   4.662  11.093  11.181
30176W        W 1792  28.774   9.177   2.430
30177W        W 1793  23.115   5.802   2.642
30178W        W 1794  13.256  14.112   3.765
30179W        W 1795  14.366   0.772  14.401
30180W        W 1796   5.325  28.490   2.310
30181W        W 1797   2.360  29.604   4.186
30182W        W 1798   9.881   2.385  13.351
30183W        W 1799  42.742  20.919  13.112
30184W        W 1800  13.005  24.982  14.238
30185W        W 1801   5.176  32.241  14.813
30186W        W 1802  42.577   1.245  13.149
30187W        W 1803  23.708  38.304  12.959
30188W        W 1804  31.141   9.433  14.832
30189W        W 1805  28.607  37.508  11.615
30190W        W 1806  28.107  10.824   3.545
30191W        W 1807  22.613  10.177   4.088
30192W        W 1808  24.129  17.682  12.029
30193W        W 1809  25.420  15.290   4.171
30194W        W 1810  42.849  40.955  13.054
30195W        W 1811  44.035  31.524  14.455
30196W        W 1812  27.420  27.004   0.907
30197W        W 1813  25.126  20.739  12.432
30198W        W 1814  13.148  12.938   3.024
30199W        W 1815  10.719  12.707   1.932
30200W        W 1816  44.524  20.956   0.755
30201W        W 1817   2.468  41.352   2.182
30202W        W 1818  35.049  27.883   1.797
30203W        W 1819  16.143  44.307   2.611
30204W        W 1820  20.746  17.700   1.604
30205W        W 1821   8.116   9.624  13.970
30206W        W 1822  30.060  35.597   0.138
30207W        W 1823   7.762  11.741   1.818
30208W        W 1824  23.953  43.949  13.308
30209W        W 1825   3.723  12.757   4.748
30210W        W 1826  39.309  33.648  14.918
30211W        W 1827  38.888   6.671   2.806
30212W        W 1828  13.093  35.312  10.967
30213W        W 1829  44.240  20.378  13.473
30214W        W 1830   7.402  30.876   3.893
30215W        W 1831  33.949  42.336  13.879
30216W        W 1832   8.314  36.476  10.657
30217W        W 1833  42.488  16.536  13.474
30218W        W 1834  38.808  32.700   4.250
30219W        W 1835  31.039  28.144  14.828
30220W        W 1836  28.983  32.096   1.736
30221W        W 1837   7.614   0.316   1.704
30222W        W 1838  22.661   4.279  11.608
30223W        W 1839  33.061  30.282  11.140
30224W        W 1840  31.976  35.794   0.847
30225W        W 1841  22.484  38.421  11.561
30226W        W 1842  13.518  30.408  14.121
30227W        W 1843  44.549  25.728  14.476
30228W        W 1844  11.300  40.582  11.684
30229W        W 1845  44.285  30.922  12.240
30230W        W 1846  18.794   2.862  12.982
30231W        W 1847  32.467   0.811   4.314
30232W        W 1848  44.276  26.438   3.087
30233W        W 1849  26.803  35.543   2.269
30234W        W 1850  18.889  35.682   0.421
30235W        W 1851  12.777  11.170  11.982
30236W        W 1852   8.088  31.402   2.390
30237W        W 1853  21.185  16.185  13.625
30238W        W 1854  32.908  15.281   3.755
30239W        W 1855  13.757  18.279   0.901
30240W        W 1856   9.791  38.060   1.522
30241W        W 1857  34.827  39.172   3.077
30242W        W 1858  25.750  39.608   0.189
30243W        W 1859  10.207  13.842   2.223
30244W        W 1860  11.742  37.498  11.068
30245W        W 1861   5.737  41.887  13.873
30246W        W 1862  38.687  44.552  11.143
30247W        W 1863   9.416  37.620  13.722
30248W        W 1864  39.824   9.306  14.072
30249W        W 1865  34.344  16.316  13.962
30250W        W 1866  10.673  21.893   1.299
30251W        W 1867  27.126  42.896  13.238
30252W        W 1868  18.780  19.169  10.838
30253W        W 1869   0.284  10.406  13.939
30254W        W 1870  42.919   1.261   4.409
30255W        W 1871   0.926  33.615   1.671
30256W        W 1872  11.214  23.937  14.484
30257W        W 1873  36.356  11.776   4.850
30258W        W 1874  13.775  20.644   4.154
30259W        W 1875  40.535  36.843   1.912
30260W        W 1876  35.624  19.345  12.019
30261W        W 1877  38.443   6.786   3.556
30262W        W 1878  21.653  22.171   2.776
30263W        W 1879  12.563  19.127   2.640
30264W        W 1880  28.862   9.306  12.459
30265W        W 1881   7.451   8.510   1.376
30266W        W 1882  13.836  29.502   0.979
30267W        W 1883   3.279  32.574   3.987
30268W        W 1884  22.525   6.301  11.965
30269W        W 1885  19.652  20.567  13.524
30270W        W 1886  29.099  18.825  11.344
30271W        W 1887  18.592   2.326   4.482
30272W        W 1888   6.735  14.296  13.405
30273W        W 1889   5.277   3.774   2.812
30274W        W 1890  21.265  33.427  10.209
30275W        W 1891  10.775   8.175   3.743
30276W        W 1892   6.437  40.293  12.097
30277W        W 1893  29.903  23.121   4.688
30278W        W 1894  23.505  15.164   1.348
30279W        W 1895   9.734  42.538   1.374
30280W        W 1896  33.535   4.454   1.941
30281W        W 1897   3.402  14.202   1.989
30282W        W 1898   8.733  42.774  14.971
30283W        W 1899   0.727  44.783   4.084
30284W        W 1900  33.340  34.291  13.124
30285W        W 1901  43.372  35.503   5.393
30286W        W 1902  32.077  12.806  12.145
30287W        W 1903  14.261  42.749   1.709
30288W        W 1904  11.675  28.504  10.683
30289W        W 1905  11.892  10.433  13.508
30290W        W 1906  16.655  40.875   0.315
30291W        W 1907  13.152  21.318   0.862
30292W        W 1908   7.124   6.318   0.413
30293W        W 1909  32.107   5.723   2.723
30294W        W 1910  34.415  15.884   1.758
30295W        W 1911  43.922  37.587  12.865
30296W        W 1912  41.302   7.260  12.354
30297W        W 1913   9.204  25.925   3.463
30298W        W 1914  23.114   6.691   3.616
30299W        W 1915  10.379  33.979  12.099
30300W        W 1916  43.790  24.001  14.777
30301W        W 1917   5.638  33.634  14.006
30302W        W 1918  19.189   1.522  11.582
30303W        W 1919   3.836  38.280   4.404
30304W        W 1920  42.606   7.248   1.434
30305W        W 1921  15.479  18.322   2.257
30306W        W 1922  41.072  30.436   1.770
30307W        W 1923  13.856  15.517   0.001
30308W        W 1924   3.196  10.704   0.054
30309W        W 1925  21.226  21.739  12.556
30310W        W 1926  31.940  12.632   1.727
30311W        W 1927  28.094  39.319   4.524
30312W        W 1928  17.043  41.998   4.541
30313W        W 1929  42.299  20.982   2.343
30314W        W 1930   1.719   2.974   2.172
30315W        W 1931  17.271  22.089  13.394
30316W        W 1932  40.394   9.239   3.293
30317W        W 1933  16.537  43.331  10.305
30318W        W 1934  37.214  21.758   3.120
30319W        W 1935  23.643  18.272   4.078
30320W        W 1936  40.580   3.760   2.855
30321W        W 1937   7.251  11.046  12.437
30322W        W 1938  44.169  20.856   1.709
30323W        W 1939  38.587  19.820   4.249
30324W        W 1940  16.731  24.683   1.882
30325W        W 1941   1.706  38.398  12.925
30326W        W 1942  37.303  20.260   4.582
30327W        W 1943  33.030   4.747   0.697
30328W        W 1944  27.576   8.855  11.181
30329W        W 1945  29.631  39.677  11.572
30330W        W 1946  44.317  19.242   4.904
30331W        W 1947   1.476  23.019  14.111
30332W        W 1948  14.394   3.522  14.926
30333W        W 1949  21.704  11.276   4.868
30334W        W 1950  24.679  33.302  14.715
30335W        W 1951  30.263  34.494   3.479
30336W        W 1952  25.157  12.305  14.317
30337W        W 1953  23.234  13.545  12.421
30338W        W 1954  17.843  14.588   2.388
30339W        W 1955  42.035  39.120   2.432
30340W        W 1956  10.109  13.052   2.738
30341W        W 1957  31.146  12.707   1.346
30342W        W 1958  38.452  34.446   3.623
30343W        W 1959  11.367  37.478  11.437
30344W        W 1960  26.675  13.525   3.333
30345W        W 1961  36.517  38.993   1.834
30346W        W 1962  24.526  26.952   0.044
30347W        W 1963   1.718  30.964  11.144
30348W        W 1964  35.389  15.367  12.033
30349W        W 1965   2.352  23.570  11.429
30350W        W 1966  19.857  15.544  14.989
30351W        W 1967  10.113  43.717  13.445
30352W        W 1968  38.769  35.629   4.144
30353W        W 1969   6.720  42.488   3.770
30354W        W 1970  17.633   3.818   3.723
30355W        W 1971  38.842   0.876   4.087
30356W        W 1972   7.178  26.911  13.350
30357W        W 1973  21.151  15.310  13.480
30358W        W 1974   8.605   5.429  12.591
30359W        W 1975  29.474  17.529   2.794
30360W        W 1976  29.954   2.847   4.673
30361W        W 1977   1.838   1.892   2.183
30362W        W 1978  43.879  24.183  12.009
30363W        W 1979  30.966  28.092  13.343
30364W        W 1980  10.347  30.650  11.640
30365W        W 1981  15.846   6.939  12.411
30366W        W 1982  38.293  12.891   2.175
30367W        W 1983  37.933  16.548  10.974
30368W        W 1984  35.537   8.422  11.016
30369W        W 1985  40.291  12.610   3.707
30370W        W 1986  31.611  20.516  11.256
30371W        W 1987  10.297  32.432  13.824
30372W        W 1988  15.003   2.252   2.597
30373W        W 1989   3.844  37.002   4.679
30374W        W 1990  16.505  33.025  13.134
30375W        W 1991   3.002  20.068   1.192
30376W        W 1992  34.762  11.293   2.409
30377W        W 1993  42.794   0.736  12.125
30378W        W 1994  32.603  43.349   3.701
30379W        W 1995  19.109  14.051  12.506
30380W        W 1996  24.069  39.613   2.164
30381W        W 1997  11.167  19.680   2.352
30382W        W 1998  33.099   7.391   0.869
30383W        W 1999  10.280  37.874  12.946
30384W        W 2000  26.511  24.184  11.596
30385W        W 2001  22.150  19.394   1.776
30386W        W 2002   7.377  38.289   0.867
30387W        W 2003  41.018  10.971  14.303
30388W        W 2004  30.142  23.290  14.030
30389W        W 2005   2.681  14.123   2.423
30390W        W 2006  21.180   6.113  14.553
30391W        W 2007  15.735  43.173  11.190
30392W        W 2008  25.554  35.434  11.802
30393W        W 2009  15.285   9.697  13.406
30394W        W 2010  15.267   3.138   2.801
30395W        W 2011   9.040  14.027  11.892
30396W        W 2012   4.324  34.664  12.737
30397W        W 2013  17.644  23.202  10.461
30398W        W 2014   7.102  11.298   3.356
30399W        W 2015  30.374  35.352   3.823
30400W        W 2016  25.221  43.858   1.164
30401W        W 2017  29.461  22.567  12.216
30402W        W 2018  40.535  10.689  12.923
30403W        W 2019   8.754  43.015  14.497
30404W        W 2020   7.087  37.434  12.150
30405W        W 2021  33.327  21.831  13.393
30406W        W 2022  10.425  42.004   2.226
30407W        W 2023  22.847  16.766   0.803
30408W        W 2024   2.186  39.293   0.267
30409W        W 2025   6.985   9.755   3.808
30410W        W 2026  13.737  31.996  12.412
30411W        W 2027  14.525   2.736  11.662
30412W        W 2028  24.603   7.517   4.211
30413W        W 2029   1.743  28.210  10.794
30414W        W 2030  36.021  11.753   2.068
30415W        W 2031  39.573   8.694   2.267
30416W        W 2032   0.955  40.936   0.237
30417W        W 2033   9.630  32.869   2.281
30418W        W 2034  28.120  22.498  12.905
30419W        W 2035   0.764  43.963  12.396
30420W        W 2036  24.084  21.802  14.034
30421W        W 2037   5.898  35.365  12.471
30422W        W 2038  15.750  39.029  13.766
30423W        W 2039  11.934  33.638  13.803
30424W        W 2040  24.761   9.767   0.917
30425W        W 2041   5.299   1.305   4.031
30426W        W 2042  34.171  33.050  13.718
30427W        W 2043  41.635  20.586  14.590
30428W        W 2044  35.023  25.666   3.260
30429W        W 2045  29.656  15.821  10.509
30430W        W 2046  43.905  34.052  10.612
30431W        W 2047  44.398  23.997   2.929
30432W        W 2048  37.768  20.057   4.468
30433W        W 2049  41.568  20.295  12.494
30434W        W 2050  30.912  34.325  11.073
30435W        W 2051   4.662  27.617   0.554
30436W        W 2052  42.562  27.031   1.466
30437W        W 2053  42.570  16.812   0.814
30438W        W 2054   2.988   4.678   1.702
30439W        W 2055  29.715  41.602  11.727
30440W        W 2056  14.282   1.289  13.497
30441W        W 2057  33.219  15.291   4.874
30442W        W 2058  17.537  30.465  11.169
30443W        W 2059  31.425  32.933   0.275
30444W        W 2060  34.233  27.769   2.168
30445W        W 2061  22.978  21.235  12.214
30446W        W 2062   5.181  17.205   5.051
30447W        W 2063  36.961  40.320  13.084
30448W        W 2064  33.451  42.584   2.732
30449W        W 2065  42.952  21.074   2.259
30450W        W 2066  33.726   6.390  12.955
30451W        W 2067  26.712  40.270   1.790
30452W        W 2068   2.059  43.062   1.276
30453W        W 2069   5.918  27.050  11.199
30454W        W 2070  42.511   0.746   1.888
30455W        W 2071  19.524  11.894   1.326
30456W        W 2072  27.745  36.764  11.991
30457W        W 2073  17.668  34.137   3.357
30458W        W 2074   4.247  35.321   0.973
30459W        W 2075  38.891  24.936   3.347
30460W        W 2076  16.862  40.285   3.292
30461W        W 2077  37.537  19.166   4.346
30462W        W 2078  40.782  23.136   1.775
30463W        W 2079  11.310  20.112  11.371
30464W        W 2080  16.538   0.288   2.369
30465W        W 2081  30.474  11.359   3.131
30466W        W 2082  37.416  20.976   2.359
30467W        W 2083  38.083  28.571  10.614
30468W        W 2084  33.596  31.672  14.827
30469W        W 2085  39.758   0.972  13.811
30470W        W 2086  10.690  19.631  13.901
30471W        W 2087  41.232  19.601   0.230
30472W        W 2088  38.470  32.521   1.175
30473W        W 2089  32.170   1.870   2.777
30474W        W 2090  17.067   9.604  13.589
30475W        W 2091  22.190  20.654   4.099
30476W        W 2092  31.049  24.109  13.945
30477W        W 2093   7.856  26.058  14.529
30478W        W 2094  33.985  13.895  14.863
30479W        W 2095  17.533   9.342  11.710
30480W        W 2096  28.249  29.687   0.454
30481W        W 2097  10.173  11.247  14.087
30482W        W 2098  38.843  24.891  10.304
30483W        W 2099   7.848  20.704   0.968
30484W        W 2100  39.478   7.522   2.624
30485W        W 2101  38.491   6.659   0.955
30486W        W 2102   5.776   3.287   4.208
30487W        W 2103  32.880  26.281  11.916
30488W        W 2104  42.512  37.970  10.212
30489W        W 2105  17.739   0.060   5.428
30490W        W 2106  39.387  20.059  13.359
30491W        W 2107  33.180  40.980  12.058
30492W        W 2108  16.279  44.630   3.228
30493W        W 2109  13.447   3.044  14.292
30494W        W 2110   1.532  22.074   3.104
30495W        W 2111  23.860  31.925  11.427
30496W        W 2112   7.626   7.371  12.010
30497W        W 2113  44.995   7.423   4.120
30498W        W 2114   3.966  12.288   4.685
30499W        W 2115  24.769   2.031  14.295
30500W        W 2116  32.628  38.067  14.924
30501W        W 2117  11.592   4.770   4.020
30502W        W 2118  35.152  29.017   3.329
30503W        W 2119  11.563  32.509  14.247
30504W        W 2120  15.470  36.216  10.347
30505W        W 2121  36.032  35.807   3.779
30506W        W 2122  38.660  29.401   1.950
30507W        W 2123  37.623  19.504  14.808
30508W        W 2124   0.759  23.750   2.444
30509W        W 2125  14.316  40.794   2.688
30510W        W 2126  36.648   6.353   2.236
30511W        W 2127  24.956  27.320  13.016
30512W        W 2128  15.417   7.818   3.631
30513W        W 2129  24.543  32.635  10.587
30514W        W 2130  34.461   4.232   1.677
30515W        W 2131   8.688   1.859  13.312
30516W        W 2132  35.892  12.623   5.156
30517W        W 2133  24.112   5.189   3.413
30518W        W 2134  27.107  11.336   2.852
30519W        W 2135  41.044  42.117   0.134
30520W        W 2136  13.863  13.238  12.427
30521W        W 2137  39.148  34.836   2.657
30522W        W 2138  13.000  20.507  11.004
30523W        W 2139  27.629   7.662  11.575
30524W        W 2140  33.623   7.696   3.803
30525W        W 2141  16.150  18.757  14.878
30526W        W 2142  40.814  31.097   1.220
30527W        W 2143  34.618  30.603  12.509
30528W        W 2144  37.620  32.973   9.839
30529W        W 2145  23.464   2.515  13.473
30530W        W 2146  22.294  23.613  14.324
30531W        W 2147  20.785  21.559   2.302
30532W        W 2148  33.043  30.661   2.822
30533W        W 2149  10.130   3.783   3.007
30534W        W 2150  15.157  31.341  11.981
30535W        W 2151  32.052  43.438  10.237
30536W        W 2152  11.024  25.039   4.008
30537W        W 2153  32.728   4.690   3.280
30538W        W 2154   1.429  15.665   2.425
30539W        W 2155  28.183   8.830  14.403
30540W        W 2156  40.450  17.659  13.865
30541W        W 2157  13.643  41.955  11.573
30542W        W 2158  39.524  27.253   3.306
30543W        W 2159  37.485  16.680  14.914
30544W        W 2160  17.839  38.789   3.326
30545W        W 2161  30.638  23.669  11.969
30546W        W 2162  19.053  33.025  12.605
30547W        W 2163  33.556   5.881  10.597
30548W        W 2164  26.700   4.184   1.316
30549W        W 2165  11.346  14.711   2.637
30550W        W 2166  17.602  41.037  12.347
30551W        W 2167  44.748   9.716  13.738
30552W        W 2168   5.949   3.253   1.776
30553W        W 2169  32.428   2.444  14.814
30554W        W 2170  34.579  28.014   4.629
30555W        W 2171   3.861  39.481   1.739
30556W        W 2172  16.176  42.874  12.098
30557W        W 2173  17.676   7.827  12.521
30558W        W 2174   5.289  44.467   0.917
30559W        W 2175  37.825  10.447   4.962
30560W        W 2176  12.795  35.582   0.999
30561W        W 2177   4.189  11.145   1.336
30562W        W 2178  43.982  40.002  12.380
30563W        W 2179   7.811   3.937   1.880
30564W        W 2180  22.209  35.316   1.654
30565W        W 2181  29.117  22.189  13.204
30566W        W 2182  12.261  44.157  14.011
30567W        W 2183  44.851  10.680  13.984
30568W        W 2184  30.026  12.595  11.626
30569W        W 2185  38.065  21.140  12.938
30570W        W 2186  14.086  32.427  12.009
30571W        W 2187   7.181  37.368   5.196
30572W        W 2188  33.284  43.574  11.615
30573W        W 2189   6.400  14.714   3.169
30574W        W 2190  27.591  31.463  13.786
30575W        W 2191  33.037  16.529   0.810
30576W        W 2192  14.228  12.067   1.293
30577W        W 2193  17.183  44.862   2.813
30578W        W 2194  24.038   6.277  11.155
30579W        W 2195  33.959  40.137  12.832
30580W        W 2196  44.550  28.588   4.334
30581W        W 2197  20.766  29.479   1.864
30582W        W 2198   6.643   8.840  12.894
30583W        W 2199  32.459  25.158  10.328
30584W        W 2200   4.406  27.628   2.308
30585W        W 2201  11.259   0.018  13.532
30586W        W 2202  18.727   6.904  14.742
30587W        W 2203  20.183   8.605  11.167
30588W        W 2204   5.439  26.576   4.699
30589W        W 2205  32.577  18.604  10.995
30590W        W 2206  25.170  39.529  11.491
30591W        W 2207   6.410  27.498   3.761
30592W        W 2208  32.842  30.431  11.692
30593W        W 2209  31.125  42.133  11.095
30594W        W 2210   7.161   0.892  13.360
30595W        W 2211  18.433   7.155  13.344
30596W        W 2212  30.243  23.000   2.740
30597W        W 2213   9.307  15.181   4.696
30598W        W 2214  25.955   0.274  13.526
30599W        W 2215  27.622  41.641  13.997
30600W        W 2216  40.482  28.622  13.943
30601W        W 2217  26.629  28.463   4.735
30602W        W 2218   9.183   8.685   1.797
30603W        W 2219  11.690  41.485   0.024
30604W        W 2220  42.804  30.955  13.949
30605W        W 2221  42.569  30.516   4.055
30606W        W 2222  41.565   9.128   0.124
30607W        W 2223  17.313   5.833   1.532
30608W        W 2224  14.603   4.005   5.449
30609W        W 2225  23.418  21.148   0.376
30610W        W 2226  22.983   4.862   4.717
30611W        W 2227  33.019  36.898  10.690
30612W        W 2228  43.865  40.545   4.696
30613W        W 2229  17.614  32.708   1.224
30614W        W 2230  40.212  24.096  10.655
30615W        W 2231  18.719  23.998   0.221
30616W        W 2232  42.270  33.456  12.550
30617W        W 2233  21.096   6.659   0.408
30618W        W 2234  10.019  41.699   1.257
30619W        W 2235  32.832  38.430  12.004
30620W        W 2236  19.172  15.029   3.321
30621W        W 2237  12.725  25.995  13.134
30622W        W 2238  14.216  34.832   0.509
30623W        W 2239   1.117  32.619  14.299
30624W        W 2240  37.086  40.434   1.040
30625W        W 2241  38.919   9.672  11.082
30626W        W 2242  42.046  34.153  13.999
30627W        W 2243   9.276  40.444  12.598
30628W        W 2244  32.350  30.074   0.790
30629W        W 2245  24.723   8.368   0.982
30630W        W 2246   0.689  17.762  13.607
30631W        W 2247  17.788   4.307   2.267
30632W        W 2248  42.222  18.418   2.758
30633W        W 2249   2.798  18.305   2.728
30634W        W 2250  35.730  31.653   3.622
30635W        W 2251   1.098  33.952   0.433
30636W        W 2252  16.595  36.017   3.360
30637W        W 2253  37.007   7.013  14.841
30638W        W 2254   9.149   2.334   4.735
30639W        W 2255  28.213  11.322  13.353
30640W        W 2256   2.301  12.757   4.505
30641W        W 2257   4.059  26.961   0.962
30642W        W 2258   9.355   2.745   3.925
30643W        W 2259  34.374   5.911  14.079
30644W        W 2260   0.423  24.312  13.912
30645W        W 2261  25.000  40.513  11.092
30646W        W 2262  31.207   8.240  12.420
30647W        W 2263  38.385  23.573   2.873
30648W        W 2264  36.615  15.418   1.476
30649W        W 2265  17.801  32.677  12.436
30650W        W 2266  36.099  23.324   3.398
30651W        W 2267  12.495   2.028   4.182
30652W        W 2268  36.601   1.317   4.697
30653W        W 2269  23.998   1.422   1.253
30654W        W 2270  38.113  11.233  12.356
30655W        W 2271  21.009  20.332  14.239
30656W        W 2272  14.157  42.811  14.585
30657W        W 2273   3.008  19.698  11.566
30658W        W 2274  26.339   3.658  13.426
30659W        W 2275  30.278  34.831   1.813
30660W        W 2276  41.456  29.999   4.529
30661W        W 2277   7.477  20.943   1.709
30662W        W 2278  11.855   7.643   0.236
30663W        W 2279  34.344  44.141   3.745
30664W        W 2280  42.273  30.956  10.534
30665W        W 2281   0.317  10.003  13.123
30666W        W 2282  27.960   4.509  10.413
30667W        W 2283  27.495  31.372   1.213
30668W        W 2284  26.191  41.626  14.109
30669W        W 2285  38.817  12.218  12.892
30670W        W 2286   9.254   3.260  13.400
30671W        W 2287  25.199  35.036  13.306
30672W        W 2288  23.611  10.629  13.471
30673W        W 2289  21.659  29.511  11.659
30674W        W 2290  14.833  36.092  14.287
30675W        W 2291  30.529  27.080   3.299
30676W        W 2292  20.645   8.473  14.076
30677W        W 2293  41.501   6.218  11.533
30678W        W 2294  17.388  37.939   1.731
30679W        W 2295  19.465  22.491   3.211
30680W        W 2296  22.493   8.799   2.184
30681W        W 2297  26.491  28.681   0.298
30682W        W 2298  34.430  39.007   1.631
30683W        W 2299   5.392   8.427  10.572
30684W        W 2300   9.630  29.423   2.050
30685W        W 2301  18.088  12.744  14.756
30686W        W 2302   4.137   3.247  12.928
30687W        W 2303   7.192  14.764  13.499
30688W        W 2304  29.577  12.037   2.004
30689W        W 2305  42.442  32.878  13.077
30690W        W 2306  38.218   7.231   4.676
30691W        W 2307  23.600  10.097   1.846
30692W        W 2308   5.462  10.029  11.034
30693W        W 2309  16.614  18.279  13.331
30694W        W 2310  35.070  42.501   0.459
30695W        W 2311   0.928  41.757  10.695
30696W        W 2312   4.886  23.893   1.326
30697W        W 2313   3.193  24.095  12.380
30698W        W 2314  44.727  14.091  14.376
30699W        W 2315  15.543  18.801  11.601
30700W        W 2316   6.352  13.268   3.663
30701W        W 2317  31.988   5.623  10.972
30702W        W 2318  43.321  12.793  13.274
30703W        W 2319  23.389  40.490   1.931
30704W        W 2320  39.729  20.103   2.726
30705W        W 2321  36.514  13.203   2.013
30706W        W 2322  22.324  43.828   2.165
30707W        W 2323   1.563  19.430   3.717
30708W        W 2324  24.168  11.376  11.979
30709W        W 2325  28.994   5.428  11.116
30710W        W 2326  26.138  15.055  10.577
30711W        W 2327  16.035  30.760  11.219
30712W        W 2328  26.123  42.291   2.653
30713W        W 2329  12.095  42.797  12.951
30714W        W 2330  26.627  36.517  14.490
30715W        W 2331  34.615  12.052   3.181
30716W        W 2332  44.387  33.620  11.921
30717W        W 2333   2.230  18.017   0.363
30718W        W 2334   6.843  20.799  14.348
30719W        W 2335  15.236  41.949   3.003
30720W        W 2336   8.663  23.434   1.326
30721W        W 2337  18.978   2.007  11.606
30722W        W 2338  17.074  29.919  12.570
30723W        W 2339   6.776  15.982   0.008
30724W        W 2340   9.283  22.463  11.077
30725W        W 2341  32.618  38.284  14.203
30726W        W 2342   7.316  27.235   1.393
30727W        W 2343   3.304  36.777   1.277
30728W        W 2344   4.358  24.678   1.358
30729W        W 2345   6.505   7.344   4.577
30730W        W 2346  30.631  14.593   0.898
30731W        W 2347   1.417  20.563  11.527
30732W        W 2348  16.118  38.550   0.426
30733W        W 2349  24.091  42.535   0.735
30734W        W 2350  25.093  16.687  14.450
30735W        W 2351  30.605  14.284  14.928
30736W        W 2352  35.165  18.738   3.175
30737W        W 2353   6.169  31.480   4.175
30738W        W 2354  28.696   6.784   0.892
30739W        W 2355  41.603  38.322  12.676
30740W        W 2356  44.463  28.451   2.353
30741W        W 2357  17.690  36.288  12.965
30742W        W 2358  44.312  19.064  12.954
30743W        W 2359  24.991  30.893   3.475
30744W        W 2360  20.083  44.106   3.442
30745W        W 2361  30.660  30.708   4.659
30746W        W 2362  43.007  44.008   2.682
30747W        W 2363  15.096  35.640   0.055
30748W        W 2364  21.740  25.393   2.286
30749W        W 2365  37.848  21.531  12.124
30750W        W 2366   7.862   2.512  10.705
30751W        W 2367  16.629  34.196  13.654
30752W        W 2368  43.295  20.256  14.278
30753W        W 2369  29.678   0.881   2.316
30754W        W 2370   1.028  34.911  11.147
30755W        W 2371  37.059  17.097   1.409
30756W        W 2372  36.412  32.584  11.967
30757W        W 2373   8.457   0.092  10.758
30758W        W 2374  35.438  40.564  14.873
30759W        W 2375  38.504   3.735   2.323
30760W        W 2376  22.168  35.658   3.116
30761W        W 2377  25.583  26.155   0.255
30762W        W 2378  24.207  29.395  14.242
30763W        W 2379  28.791  20.019   1.771
30764W        W 2380  15.226  42.822   1.215
30765W        W 2381  29.962   2.945   3.090
30766W        W 2382  31.456  15.330  14.859
30767W        W 2383  29.181  37.394  12.454
30768W        W 2384  17.690  38.026   0.634
30769W        W 2385  37.150  44.220   4.516
30770W        W 2386  34.487  13.301   3.697
30771W        W 2387  31.344  10.334   0.956
30772W        W 2388  42.548  11.711  10.784
30773W        W 2389  31.023  19.637   2.699
30774W        W 2390  33.643  38.405   1.231
30775W        W 2391   1.138  30.943   1.352
30776W        W 2392   6.344  17.303  10.597
30777W        W 2393  35.481  29.969   0.314
30778W        W 2394  32.897   7.768   1.847
30779W        W 2395  39.394  42.496  12.559
30780W        W 2396  41.516   5.448  11.061
30781W        W 2397  20.663  34.706  12.531
30782W        W 2398  10.213  44.947  10.486
30783W        W 2399   8.885  40.746  13.033
30784W        W 2400  23.425   7.153   0.747
30785W        W 2401  34.091   3.479   2.301
30786W        W 2402  39.058  27.571   0.523
30787W        W 2403  40.388  31.967  12.871
30788W        W 2404  10.619  44.706   4.536
30789W        W 2405  38.373  27.167  10.808
30790W        W 2406  44.449  26.001   1.778
30791W        W 2407  32.354   7.187  10.043
30792W        W 2408  28.849   0.247   0.524
30793W        W 2409   9.914  10.836  14.867
30794W        W 2410  44.932  33.976   3.081
30795W        W 2411   9.118  43.353  11.575
30796W        W 2412   0.749  13.534  11.534
30797W        W 2413   5.476  40.589  13.557
30798W        W 2414  17.431  14.174  12.581
30799W        W 2415   9.301   7.676   4.859
30800W        W 2416  19.737  20.665   2.091
30801W        W 2417  23.298  13.245   1.804
30802W        W 2418  41.471  27.435   2.227
30803W        W 2419  37.161  44.423   0.884
30804W        W 2420  18.278  21.291  12.958
30805W        W 2421  33.559  34.150  11.441
30806W        W 2422  13.575  15.634   5.026
30807W        W 2423  44.732  38.501   2.794
30808W        W 2424  12.673  33.909   3.870
30809W        W 2425   5.367  43.324  10.272
30810W        W 2426  21.201  35.038  12.126
30811W        W 2427  10.927  37.003   0.258
30812W        W 2428  14.729   4.370   4.436
30813W        W 2429  20.732   9.270   4.797
30814W        W 2430  17.880   3.364   3.095
30815W        W 2431  37.302  28.699   0.276
30816W        W 2432  23.110  31.194  11.182
30817W        W 2433  32.896  33.162  11.999
30818W        W 2434  31.937  44.761  11.848
30819W        W 2435  31.229   5.374  10.550
30820W        W 2436  23.615  32.118  13.443
30821W        W 2437  28.947  31.541  10.838
30822W        W 2438   5.202  42.449   2.347
30823W        W 2439  23.435  12.641   4.740
30824W        W 2440   3.898  27.004   2.632
30825W        W 2441  38.511   3.234   2.240
30826W        W 2442  12.592  19.111  14.738
30827W        W 2443   7.632  32.505  14.030
30828W        W 2444  24.693  33.005   3.178
30829W        W 2445  15.696  29.731   3.726
30830W        W 2446  29.429  30.037   4.228
30831W        W 2447  26.740  38.942  13.920
30832W        W 2448   6.970   6.832   0.415
30833W        W 2449  13.673  27.699  13.900
30834W        W 2450  32.602  12.845  11.505
30835W        W 2451  37.924   8.655  11.479
30836W        W 2452  36.078  26.171   0.440
30837W        W 2453  43.708  37.638  13.901
30838W        W 2454  21.267  22.115   3.449
30839W        W 2455  10.092  32.896  14.943
30840W        W 2456   6.516   8.893   1.420
30841W        W 2457  38.818  31.594   1.908
30842W        W 2458  14.050  17.195  14.963
30843W        W 2459   6.850  16.887   3.303
30844W        W 2460  23.990  26.942  12.435
30845W        W 2461  10.854  37.654   2.200
30846W        W 2462  36.941  27.007  12.117
30847W        W 2463  24.663  20.859   2.617
30848W        W 2464  43.427  23.209  12.724
30849W        W 2465  40.836  35.007  12.114
30850W        W 2466  25.338   6.115  12.000
30851W        W 2467  43.323  22.935  10.598
30852W        W 2468  12.347  38.915   0.763
30853W        W 2469  35.875  40.817   4.607
30854W        W 2470  24.935  14.208  11.072
30855W        W 2471  39.909  33.695  13.261
30856W        W 2472  37.871  12.181  13.284
30857W        W 2473   1.829  23.542   0.953
30858W        W 2474   4.953  30.621   1.299
30859W        W 2475  17.646   7.880  13.508
30860W        W 2476   7.703   9.193  12.915
30861W        W 2477  21.269  38.419  10.917
30862W        W 2478  14.312  29.804   3.701
30863W        W 2479   4.420  32.114  12.434
30864W        W 2480  33.056   8.595  10.650
30865W        W 2481  38.744  40.308   3.266
30866W        W 2482  11.592   5.351   4.238
30867W        W 2483  29.963  27.249   5.441
30868W        W 2484  28.943  25.210   3.666
30869W        W 2485  34.343   8.347  14.897
30870W        W 2486  10.905   3.020   0.125
30871W        W 2487  25.031   0.013  14.324
30872W        W 2488  21.010  39.537  13.384
30873W        W 2489  27.030  25.577   4.717
30874W        W 2490  29.577   8.860   3.066
30875W        W 2491  20.959  22.682   1.738
30876W        W 2492  15.207  35.961   4.947
30877W        W 2493  36.845  41.309   1.596
30878W        W 2494  18.695  26.534  10.692
30879W        W 2495  14.549  15.309  11.915
30880W        W 2496   3.841  28.120  10.030
30881W        W 2497  10.314  11.304  14.582
30882W        W 2498  41.758  29.436   4.542
30883W        W 2499  32.505  37.999   3.901
30884W        W 2500  26.092   8.436  12.458
30885W        W 2501  14.280  35.817   0.416
30886W        W 2502   0.679  11.535  11.448
30887W        W 2503   2.518  27.236  14.845
30888W        W 2504   2.441  34.815  14.966
30889W        W 2505  43.318  35.962   9.895
30890W        W 2506  15.663  24.259  11.970
30891W        W 2507  24.559  19.475  13.408
30892W        W 2508  20.571  40.266   0.837
30893W        W 2509  44.494  16.516  14.337
30894W        W 2510  17.972  21.723  12.273
30895W        W 2511   2.981  22.375   4.615
30896W        W 2512  28.852  10.792   1.887
30897W        W 2513  21.975  32.832   2.218
30898W        W 2514  16.215  40.118   4.545
30899W        W 2515  18.623  23.180  12.071
30900W        W 2516   7.292  12.005   4.464
30901W        W 2517  44.265   8.139   4.158
30902W        W 2518  11.228  38.134  13.591
30903W        W 2519   0.474  12.490  14.005
30904W        W 2520  16.049  42.338   0.412
30905W        W 2521  34.251  31.421  11.181
30906W        W 2522  18.324   5.693  14.938
30907W        W 2523  23.638   5.699   2.701
30908W        W 2524   5.452  19.606   1.881
30909W        W 2525   4.164  35.095  12.953
30910W        W 2526  28.797  15.572   0.134
30911W        W 2527  12.844  27.996  13.865
30912W        W 2528   3.420  44.780  13.064
30913W        W 2529  26.703  33.141   4.067
30914W        W 2530   3.407  44.432  10.945
30915W        W 2531  29.999  11.304   1.439
30916W        W 2532  27.032  35.386   4.208
30917W        W 2533  38.234  20.605   0.477
30918W        W 2534  10.491  25.316   3.848
30919W        W 2535  43.451   9.628  14.873
30920W        W 2536  34.049  19.952  12.520
30921W        W 2537  10.716  20.936  10.757
30922W        W 2538  39.917  44.686  13.993
30923W        W 2539  26.480   8.259   1.952
30924W        W 2540   2.262  30.129  11.470
30925W        W 2541  30.411  33.099   4.692
30926W        W 2542  38.369   6.283  11.644
30927W        W 2543  33.040  37.941   1.245
30928W        W 2544  32.427  25.018   4.040
30929W        W 2545  21.682  37.464   1.286
30930W        W 2546  31.119  18.806  13.325
30931W        W 2547  22.064  16.674  12.917
30932W        W 2548  39.048  28.215   2.329
30933W        W 2549   5.986  43.332   0.181
30934W        W 2550  15.123  15.102   5.622
30935W        W 2551   7.514  36.998   0.132
30936W        W 2552   8.785   3.989   4.149
30937W        W 2553  31.427  18.110  13.923
30938W        W 2554  26.354  27.365  12.821
30939W        W 2555  38.743  27.604  13.018
30940W        W 2556  12.825  23.021  14.880
30941W        W 2557  21.309  12.711   4.151
30942W        W 2558  27.679   3.932   2.923
30943W        W 2559  12.577  36.232  12.785
30944W        W 2560   9.350  38.810  12.010
30945W        W 2561  14.265  33.616  12.626
30946W        W 2562   4.944  19.765  11.149
30947W        W 2563   5.091   7.229  13.914
30948W        W 2564  23.452  13.129  10.874
30949W        W 2565  23.017  11.622  10.349
30950W        W 2566  31.891  12.841   0.867
30951W        W 2567  37.577  23.546   4.662
30952W        W 2568  33.958   7.600  13.320
30953W        W 2569  38.813  12.208   4.333
30954W        W 2570  21.780  24.139   4.058
30955W        W 2571  16.502  26.221  11.101
30956W        W 2572  35.892  38.487  14.786
30957W        W 2573   6.460  23.590   0.364
30958W        W 2574  17.425  12.876   1.293
30959W        W 2575  14.966  26.093   2.267
30960W        W 2576  34.634  16.754  13.742
30961W        W 2577   0.886  37.480  12.104
30962W        W 2578  26.566  21.973   2.678
30963W        W 2579  17.796  16.260   3.210
30964W        W 2580  34.150   7.264  11.103
30965W        W 2581   0.193   6.592   4.890
30966W        W 2582  33.192  15.717   1.439
30967W        W 2583  26.021  25.231   0.470
30968W        W 2584  28.578   7.875   1.784
30969W        W 2585  10.318  18.309  12.987
30970W        W 2586  42.729  37.155  10.861
30971W        W 2587  21.090  28.230  12.160
30972W        W 2588  37.533  31.124   1.027
30973W        W 2589  11.282  30.569  12.140
30974W        W 2590  43.924   7.492   1.795
30975W        W 2591  28.992  26.624  14.588
30976W        W 2592  13.277  42.271   4.591
30977W        W 2593   2.354   6.810   1.744
30978W        W 2594   5.484  15.293   0.942
30979W        W 2595   3.217  27.914   4.226
30980W        W 2596  23.286  12.222  12.063
30981W        W 2597  18.185  15.148  12.495
30982W        W 2598  10.264  24.434   1.347
30983W        W 2599  25.727  37.988  12.807
30984W        W 2600  43.786  18.333  11.619
30985W        W 2601  44.035  34.412   5.140
30986W        W 2602  15.594  38.554  12.084
30987W        W 2603  12.743  35.896   1.428
30988W        W 2604   1.417  30.619  11.409
30989W        W 2605  40.993  36.633   3.774
30990W        W 2606  42.947  35.747  10.965
30991W        W 2607  23.521  37.903   0.405
30992W        W 2608  40.811  43.349   3.821
30993W        W 2609  30.549  40.450  13.854
30994W        W 2610   1.234  21.764   4.114
30995W        W 2611  31.940  40.659   2.694
30996W        W 2612  37.418  17.147  14.087
30997W        W 2613   7.381  41.218   0.269
30998W        W 2614  18.110   2.322  10.741
30999W        W 2615  32.543  36.594  14.943
31000W        W 2616  39.551  44.433  11.906
31001W        W 2617  37.877  16.059   0.413
31002W        W 2618  44.730  38.539   5.790
31003W        W 2619  19.487  22.194   2.468
31004W        W 2620  18.106  23.738   3.238
31005W        W 2621  26.458   2.666  11.733
31006W        W 2622  29.101  35.588  11.088
31007W        W 2623   4.869  20.571  12.352
31008W        W 2624  40.969  28.121  14.933
31009W        W 2625  16.059  37.804  13.869
31010W        W 2626   4.299   9.428  14.966
31011W        W 2627  34.902   2.963   1.913
31012W        W 2628  22.515  43.444  11.107
31013W        W 2629  30.414  33.428  12.970
31014W        W 2630  13.658  20.899  10.703
31015W        W 2631  35.496  37.111   3.794
31016W        W 2632   6.462   9.126   4.372
31017W        W 2633  35.993   9.384   1.678
31018W        W 2634   3.329  27.379   3.151
31019W        W 2635   0.884  13.191   2.949
31020W        W 2636  20.995  11.356   0.798
31021W        W 2637  19.764  15.860  11.972
31022W        W 2638   6.762   2.958   2.790
31023W        W 2639  36.173  36.777  11.993
31024W        W 2640  41.932   9.268  14.775
31025W        W 2641  22.507  24.092  10.953
31026W        W 2642  43.761  27.882   1.885
31027W        W 2643  32.424  34.527  13.013
31028W        W 2644  43.863  44.757  14.319
31029W        W 2645  13.794   2.453   0.537
31030W        W 2646  22.322  11.647   3.800
31031W        W 2647  32.684  34.901  12.773
31032W        W 2648  42.059  39.404   3.757
31033W        W 2649  36.804  37.993  13.459
31034W        W 2650  21.790  34.876  12.073
31035W        W 2651  36.557  10.719   1.240
31036W        W 2652  40.415  28.513   1.412
31037W        W 2653  20.686  16.291   4.416
31038W        W 2654  16.644  11.651  14.747
31039W        W 2655  36.151   7.960   3.269
31040W        W 2656  10.597  22.291   0.397
31041W        W 2657  33.707  14.325   3.546
31042W        W 2658   8.722   2.330  14.838
31043W        W 2659  33.575  40.769   4.400
31044W        W 2660   6.737  22.711  12.129
31045W        W 2661  26.433  30.304  12.909
31046W        W 2662  13.548  35.911   2.480
31047W        W 2663  41.399   9.072  11.124
31048W        W 2664  11.865  11.878   3.662
31049W        W 2665  28.858  30.061  14.968
31050W        W 2666  26.546   6.697   3.543
31051W        W 2667  17.002  11.817   3.601
31052W        W 2668  27.115  37.834  13.052
31053W        W 2669  19.328  41.310  13.390
31054W        W 2670  21.687  15.581  11.127
31055W        W 2671  28.267  12.932  11.196
31056W        W 2672  17.282   8.471   4.943
31057W        W 2673   1.453  35.432   4.077
31058W        W 2674  19.585  44.726  10.964
31059W        W 2675  20.777   9.234   1.651
31060W        W 2676  24.272   2.779   2.628
31061W        W 2677   5.608  34.803   9.988
31062W        W 2678  34.855  13.134   2.389
31063W        W 2679   3.496  30.359  14.914
31064W        W 2680  39.995  10.488  14.560
31065W        W 2681  18.015  19.217  13.957
31066W        W 2682  32.259   9.778  11.452
31067W        W 2683  21.185  31.600   2.267
31068W        W 2684  23.584   8.319  13.819
31069W        W 2685  19.031  13.165   4.164
31070W        W 2686   4.489  43.317  10.203
31071W        W 2687  18.689  31.287  14.686
31072W        W 2688  43.131  27.457  11.098
31073W        W 2689  28.326  38.861  13.060
31074W        W 2690  28.413  17.756  14.303
31075W        W 2691  32.026  14.597   4.032
31076W        W 2692  42.047  23.483   4.942
31077W        W 2693  33.060  30.756  10.988
31078W        W 2694  37.063  40.432   0.535
31079W        W 2695  15.349  19.990   2.806
31080W        W 2696  34.628  39.236  14.927
31081W        W 2697  17.144  23.061  10.555
31082W        W 2698  16.741  15.769   4.986
31083W        W 2699  21.630  37.982  11.667
31084W        W 2700  37.452  11.127  12.077
31085W        W 2701   3.530  20.580  11.428
31086W        W 2702  42.061   3.353   3.709
31087W        W 2703  19.146  11.409   0.764
31088W        W 2704  29.530   4.217   3.314
31089W        W 2705   7.355  41.562  11.539
31090W        W 2706  32.876  39.403   4.110
31091W        W 2707  13.498  22.677   1.301
31092W        W 2708  25.589  13.864  10.597
31093W        W 2709  34.012   9.349  13.405
31094W        W 2710  32.835  32.610   3.077
31095W        W 2711   1.001  32.618  12.971
31096W        W 2712  21.472  32.146  13.896
31097W        W 2713  22.664  25.202   4.671
31098W        W 2714  35.333   7.838  12.561
31099W        W 2715  15.615   9.182   4.442
31100W        W 2716  37.357  30.355  11.854
31101W        W 2717  33.184   2.964  11.868
31102W        W 2718   8.189   4.284   1.929
31103W        W 2719  11.401  11.169  12.137
31104W        W 2720  20.164  29.639  13.110
31105W        W 2721  20.740  42.702  13.480
31106W        W 2722  12.313  30.910   0.256
31107W        W 2723  32.189   1.478  11.197
31108W        W 2724  38.035  21.199   0.963
31109W        W 2725  13.732  12.387   1.955
31110W        W 2726  39.786  39.891  12.004
31111W        W 2727  31.425   3.936  11.091
31112W        W 2728  18.020  19.783   2.753
31113W        W 2729  12.302  34.837   2.280
31114W        W 2730  36.278  38.462  11.529
31115W        W 2731   9.868  39.658  13.995
31116W        W 2732  40.038   0.080   2.835
31117W        W 2733  25.363   0.454  14.872
31118W        W 2734  23.950  23.198   2.746
31119W        W 2735  44.258  25.464  11.030
31120W        W 2736  12.760  36.171  14.735
31121W        W 2737  38.372  44.380  13.945
31122W        W 2738   2.864  22.962  11.118
31123W        W 2739  35.165  26.403   1.353
31124W        W 2740  15.872  10.731  14.516
31125W        W 2741  15.849  23.219   2.809
31126W        W 2742  21.302  21.164   2.740
31127W        W 2743   9.698  36.106  12.988
31128W        W 2744   0.398  30.404   4.881
31129W        W 2745  28.652  30.814   1.751
31130W        W 2746  13.933  30.935   5.127
31131W        W 2747  41.067  41.272  14.891
31132W        W 2748   8.879   7.379   2.400
31133W        W 2749  39.810   5.420  14.411
31134W        W 2750  19.712  41.446   3.296
31135W        W 2751  39.131   2.022  13.102
31136W        W 2752  11.329  38.642   3.223
31137W        W 2753  41.946  29.023   1.292
31138W        W 2754  20.414  39.281   2.770
31139W        W 2755  12.001  15.293   4.394
31140W        W 2756  23.151  42.804  14.200
31141W        W 2757  25.005  38.089   1.890
31142W        W 2758  37.798   1.326  10.730
31143W        W 2759  36.101  10.437  12.544
31144W        W 2760  20.712  43.518   3.805
31145W        W 2761  27.067  29.124  13.196
31146W        W 2762  42.032  37.905   3.230
31147W        W 2763   0.164  19.590  11.246
31148W        W 2764  31.978  27.903   5.469
31149W        W 2765  36.540   2.788   4.566
31150W        W 2766  38.728  44.745  10.659
31151W        W 2767  28.861  15.282  14.244
31152W        W 2768  15.563   7.668   0.573
31153W        W 2769  41.020  27.137  13.608
31154W        W 2770  39.476   7.169   0.501
31155W        W 2771   8.648  35.500   4.692
31156W        W 2772  37.387  26.727   1.091
31157W        W 2773   0.802   3.760   0.492
31158W        W 2774  14.747  25.135  12.041
31159W        W 2775  15.820  38.925   1.141
31160W        W 2776  40.105  19.760   3.853
31161W        W 2777  19.573  13.855   1.349
31162W        W 2778  11.103  17.322  10.249
31163W        W 2779  36.429  19.558  14.380
31164W        W 2780  14.810  24.555  12.617
31165W        W 2781  23.650  19.090  12.838
31166W        W 2782  31.424   2.234   1.224
31167W        W 2783  22.940  43.348   0.963
31168W        W 2784  31.956  43.508   9.716
31169W        W 2785  40.751  36.984   2.373
31170W        W 2786  37.254  12.993   5.236
31171W        W 2787   5.781  39.788  13.519
31172W        W 2788  41.297   8.491  12.482
31173W        W 2789  16.294  12.082  11.498
31174W        W 2790  17.631  29.227  10.996
31175W        W 2791   7.652  40.996  12.555
31176W        W 2792  32.425  39.493  10.656
31177W        W 2793   5.793  31.882  13.046
31178W        W 2794  15.766  35.841   3.265
31179W        W 2795  44.320  21.781  11.665
31180W        W 2796  24.042  22.682   2.794
31181W        W 2797   0.014  21.556   4.642
31182W        W 2798  43.316  13.683   4.401
31183W        W 2799  11.458  28.649   3.730
31184W        W 2800  17.683  23.434  13.530
31185W        W 2801   9.369  25.605   1.208
31186W        W 2802  31.590  14.290  13.939
31187W        W 2803   0.292   6.159   1.834
31188W        W 2804   0.831  29.580   4.511
31189W        W 2805  14.806   1.255  14.409
31190W        W 2806  38.558  10.889   2.192
31191W        W 2807  40.391  33.708   2.468
31192W        W 2808  43.798  10.131   0.559
31193W        W 2809  29.995  27.365  11.013
31194W        W 2810   6.113   9.463   0.929
31195W        W 2811   6.837  25.518  12.876
31196W        W 2812  31.642  31.730  13.322
31197W        W 2813   4.182  27.163   4.533
31198W        W 2814   8.323  43.464  12.661
31199W        W 2815  10.366  33.547  11.834
31200W        W 2816  33.471  41.154   4.710
31201W        W 2817  39.478  28.617   3.207
31202W        W 2818  41.460   9.588  11.114
31203W        W 2819  33.927  28.166  14.758
31204W        W 2820  15.797  17.174  12.428
31205W        W 2821  32.180  43.378  12.414
31206W        W 2822  26.583   4.192   3.425
31207W        W 2823  36.887   2.294   1.265
31208W        W 2824  20.571  12.317   3.665
31209W        W 2825   4.000  40.944   2.952
31210W        W 2826  20.948  25.585   3.161
31211W        W 2827  18.058  37.927   3.653
31212W        W 2828  27.504  40.022   3.336
31213W        W 2829  31.692  14.148  14.438
31214W        W 2830  39.525  33.438   3.309
31215W        W 2831  38.106   4.343  13.434
31216W        W 2832  42.470  42.968   3.823
31217W        W 2833  16.249  33.839  12.543
31218W        W 2834   0.543   7.444   4.785
31219W        W 2835   8.419  37.114  14.049
31220W        W 2836  29.163   9.185   3.808
31221W        W 2837  27.429  14.952   1.178
31222W        W 2838  16.095  29.363   3.652
31223W        W 2839  24.618   4.963   4.090
31224W        W 2840  22.542  18.827   2.818
31225W        W 2841  31.897   6.891  10.661
31226W        W 2842  10.379   1.827  10.394
31227W        W 2843  32.019  28.459   4.292
31228W        W 2844  18.760   1.064   5.165
31229W        W 2845  34.104   6.699  12.828
31230W        W 2846  20.741  11.134   1.828
31231W        W 2847  22.235  35.348  12.578
31232W        W 2848  25.053  21.661  11.671
31233W        W 2849  31.002  11.636   4.792
31234W        W 2850  44.299  15.051  10.925
31235W        W 2851  27.721  25.773   1.149
31236W        W 2852  34.993  33.478   4.085
31237W        W 2853  42.020  21.599   0.408
31238W        W 2854  12.322   3.693   0.249
31239W        W 2855   4.351  14.669  10.595
31240W        W 2856  36.570   1.972   3.656
31241W        W 2857  22.524  24.983  14.396
31242W        W 2858   0.225  11.444   1.678
31243W        W 2859  20.693  24.115   2.748
31244W        W 2860  17.826  36.610  10.708
31245W        W 2861  18.658   8.842   1.859
31246W        W 2862  38.621  18.517   0.288
31247W        W 2863  22.570   7.307   5.064
31248W        W 2864  11.841   4.403   3.059
31249W        W 2865  26.037  38.053   0.963
31250W        W 2866  24.149  27.073   1.131
31251W        W 2867  30.886  37.418   0.258
31252W        W 2868   6.782  32.547   3.815
31253W        W 2869  43.569  37.849   0.567
31254W        W 2870   6.756  19.831   2.413
31255W        W 2871  12.724  29.631   3.396
31256W        W 2872  37.620  36.045  12.342
31257W        W 2873   0.293  10.931  13.868
31258W        W 2874  25.057  20.420  12.848
31259W        W 2875  41.344   0.793  11.805
31260W        W 2876  26.103  40.414   3.801
31261W        W 2877  30.144   2.471   3.222
31262W        W 2878   0.697  12.185  13.168
31263W        W 2879  10.089  36.998  14.066
31264W        W 2880   0.715  17.714   4.762
31265W        W 2881   6.839  27.057  13.000
31266W        W 2882  42.931  16.295  13.609
31267W        W 2883  18.807  37.301  13.403
31268W        W 2884  26.514  11.541   3.620
31269W        W 2885  10.044  38.103  12.470
31270W        W 2886  27.388  13.183   0.670
31271W        W 2887   9.997   1.149  14.410
31272W        W 2888  23.539  37.508   2.717
31273W        W 2889  27.127  40.328   2.134
31274W        W 2890  34.771   6.397  10.957
31275W        W 2891  11.235  43.040  13.338
31276W        W 2892  17.539   0.438   0.012
31277W        W 2893  38.857  24.215  14.810
31278W        W 2894   9.764  24.949   4.614
31279W        W 2895  43.492  29.794  11.477
31280W        W 2896  11.178  16.539  11.941
31281W        W 2897  32.167  24.520  13.391
31282W        W 2898   5.913  14.773   4.583
31283W        W 2899  29.983   6.695   0.218
31284W        W 2900   2.897   5.557  12.321
31285W        W 2901  17.532  24.946  14.510
31286W        W 2902  43.493  29.525   0.938
31287W        W 2903  17.509   8.219   2.683
31288W        W 2904  29.039  40.624  12.069
31289W        W 2905  14.199  11.171   2.399
31290W        W 2906  21.458   2.490  11.186
31291W        W 2907  37.848   5.876  11.190
31292W        W 2908  23.577  21.010  13.915
31293W        W 2909  16.089   1.378  14.928
31294W        W 2910   0.781  41.518   2.861
31295W        W 2911   4.999  33.504  14.895
31296W        W 2912  21.257   4.859  12.504
31297W        W 2913  10.829  44.004  11.281
31298W        W 2914  30.137  42.516  14.976
31299W        W 2915  10.893  10.152  14.324
31300W        W 2916  21.003  32.077   2.332
31301W        W 2917  23.626  38.869  12.141
31302W        W 2918   0.745  38.624   2.757
31303W        W 2919   2.623   4.211  11.192
31304W        W 2920  10.627  15.395   3.548
31305W        W 2921   0.471  11.828   3.995
31306W        W 2922  38.314  27.156  10.298
31307W        W 2923  11.887  31.473   2.195
31308W        W 2924  20.704   1.832   0.459
31309W        W 2925  40.069  25.800   4.207
31310W        W 2926   7.803  41.254  13.553
31311W        W 2927  30.509  26.451   3.653
31312W        W 2928  36.543  24.947  10.498
31313W        W 2929  24.979   8.441   1.912
31314W        W 2930  13.759  29.691  13.437
31315W        W 2931  21.504  36.814   4.109
31316W        W 2932   4.409  43.527  12.484
31317W        W 2933   4.503  26.632  11.505
31318W        W 2934   9.529  15.729   2.937
31319W        W 2935  41.417  25.499  14.999
31320W        W 2936  44.504  28.971  11.605
31321W        W 2937   4.654  14.339   1.235
31322W        W 2938  22.291  28.447  12.014
31323W        W 2939  30.223  28.575  12.986
31324W        W 2940  31.503  38.387  11.974
31325W        W 2941  23.011  39.913  12.679
31326W        W 2942  38.004  17.067  11.579
31327W        W 2943   0.184   1.891   3.704
31328W        W 2944   5.584  21.151   2.262
31329W        W 2945   3.142  37.486   3.838
31330W        W 2946  31.477   1.968  14.993
31331W        W 2947  15.497  10.903  12.827
31332W        W 2948  43.343  32.125  14.818
31333W        W 2949   4.280   6.288   2.311
31334W        W 2950   4.341  31.161  12.087
31335W        W 2951  26.387  10.494   4.622
31336W        W 2952  33.490  19.785   3.850
31337W        W 2953  23.898  16.276  11.207
31338W        W 2954  34.034  36.045  10.867
31339W        W 2955  19.616   3.764  12.467
31340W        W 2956   3.181  25.435  13.726
31341W        W 2957  22.292  11.262   2.720
31342W        W 2958  40.365  31.546   4.759
31343W        W 2959  22.468  37.530  12.502
31344W        W 2960  31.606  44.535  12.160
31345W        W 2961   0.061  25.503  11.383
31346W        W 2962  31.091  18.419   2.243
31347W        W 2963  15.564  33.606   2.266
31348W        W 2964  15.136  38.493   1.657
31349W        W 2965  44.197  44.286   5.111
31350W        W 2966  29.482   2.892   3.738
31351W        W 2967  41.274  24.180   2.949
31352W        W 2968   5.171  42.596  12.545
31353W        W 2969  24.275  12.346   4.292
31354W        W 2970  19.099  24.760   0.366
31355W        W 2971  17.654  36.914  14.869
31356W        W 2972   0.145  28.266  13.046
31357W        W 2973   0.920   4.103  11.572
31358W        W 2974  36.026  42.005   0.446
31359W        W 2975  21.115  41.323  10.692
31360W        W 2976  10.409   1.503  11.465
31361W        W 2977  26.139  23.961   0.751
31362W        W 2978  37.485  14.273   1.895
31363W        W 2979  17.935  30.497   1.668
31364W        W 2980  37.043   2.723   0.455
31365W        W 2981  25.120  32.401   1.962
31366W        W 2982  25.012  22.556  10.632
31367W        W 2983   1.804  42.799  10.576
31368W        W 2984  12.760  18.494   4.755
31369W        W 2985   2.446  22.342  12.091
31370W        W 2986  23.824  20.170   1.157
31371W        W 2987   7.166  24.721   2.100
31372W        W 2988  17.200   1.266  10.874
31373W        W 2989   2.964  31.403   1.428
31374W        W 2990   7.277  27.110   4.638
31375W        W 2991  32.351  41.779  12.072
31376W        W 2992  14.340  27.744  12.575
31377W        W 2993   5.235  35.133   4.101
31378W        W 2994   9.323  39.004   1.879
31379W        W 2995   1.713  24.940   1.112
31380W        W 2996  28.703  38.355   1.297
31381W        W 2997   8.834   4.019   2.091
31382W        W 2998  44.974   2.394   3.667
31383W        W 2999  35.337  20.244   4.087
31384W        W 3000  26.130  24.854  12.102
31385W        W 3001  44.889  11.813  10.667
31386W        W 3002  10.655  34.953   1.917
31387W        W 3003  14.240  16.962  12.796
31388W        W 3004  35.214  38.989   0.891
31389W        W 3005  33.377  18.097  12.107
31390W        W 3006   3.264  19.347  14.969
31391W        W 3007  19.222  31.140  11.172
31392W        W 3008  20.987   2.006   3.780
31393W        W 3009   4.778  20.676  11.869
31394W        W 3010  40.581  37.495   2.288
31395W        W 3011  34.059  12.237   2.316
31396W        W 3012  24.044   4.844   2.405
31397W        W 3013  23.125  17.690   3.723
31398W        W 3014  17.397  18.285  11.609
31399W        W 3015  41.923  19.415   3.550
31400W        W 3016   0.686   6.768  13.610
31401W        W 3017  44.737  10.185  11.009
31402W        W 3018  19.229  37.540  13.634
31403W        W 3019  30.634  18.636  11.130
31404W        W 3020   3.928  33.202  13.964
31405W        W 3021  14.911  15.366  14.356
31406W        W 3022   9.110  21.322   4.234
31407W        W 3023  33.974  15.800  10.604
31408W        W 3024  41.573  39.392   0.423
31409W        W 3025  31.769  32.243  13.326
31410W        W 3026  21.476   5.007  12.984
31411W        W 3027  32.011  24.070  14.996
31412W        W 3028  43.574  24.554   0.477
31413W        W 3029  41.103  13.356   1.252
31414W        W 3030  44.028  25.367  11.505
31415W        W 3031  13.138  24.978  12.449
31416W        W 3032   6.937  14.220  11.240
31417W        W 3033   1.253  41.794  11.957
31418W        W 3034  22.629  12.831  12.503
31419W        W 3035  19.784  36.540   0.812
31420W        W 3036   8.569  30.138  11.179
31421W        W 3037  34.106   0.778  14.061
31422W        W 3038  37.547  26.655   1.583
31423W        W 3039  31.392  19.623   1.531
31424W        W 3040   6.290   0.224  12.351
31425W        W 3041  24.534   0.529  14.889
31426W        W 3042  30.142  42.061  13.735
31427W        W 3043  30.180  24.276   1.157
31428W        W 3044  38.472   9.532   5.647
31429W        W 3045   4.756  35.298   0.960
31430W        W 3046  11.376   4.880  12.446
31431W        W 3047  44.949  38.840  14.429
31432W        W 3048  13.365  38.583  11.142
31433W        W 3049   9.287  28.613   4.647
31434W        W 3050  30.170   3.553   1.300
31435W        W 3051  35.081  25.440   2.776
31436W        W 3052  16.548  19.167   2.423
31437W        W 3053  31.939  21.041   4.086
31438W        W 3054  17.020  38.904  11.228
31439W        W 3055   9.686  30.621   0.107
31440W        W 3056  10.999  37.302   5.030
31441W        W 3057  28.700   9.436  13.425
31442W        W 3058  29.920  11.829   4.548
31443W        W 3059  41.426  39.462  14.361
31444W        W 3060  33.862  42.461  10.887
31445W        W 3061  35.460  22.154  11.652
31446W        W 3062   1.924  31.803   1.764
31447W        W 3063  34.570  18.558  12.846
31448W        W 3064  21.495  33.663   1.729
31449W        W 3065  44.751   3.271  14.854
31450W        W 3066  41.800   1.878   1.736
31451W        W 3067  23.592  29.952   3.533
31452W        W 3068   3.573  30.387   4.154
31453W        W 3069   1.716  21.591   2.951
31454W        W 3070   8.308   5.357   0.456
31455W        W 3071   1.465  29.672   3.604
31456W        W 3072  25.660  15.114  13.880
31457W        W 3073   9.241  24.240   0.715
31458W        W 3074  22.719  19.699   4.875
31459W        W 3075  24.663  15.161   3.731
31460W        W 3076  38.939  32.127  11.978
31461W        W 3077  37.496  37.835   2.096
31462W        W 3078  23.694  19.770   0.272
31463W        W 3079  29.072  37.391   4.679
31464W        W 3080  18.507  23.721  12.078
31465W        W 3081  26.135   6.832  12.445
31466W        W 3082   2.134  44.915   0.306
31467W        W 3083  10.695  23.279   0.437
31468W        W 3084  30.961  41.916  13.837
31469W        W 3085  14.226  35.945   3.268
31470W        W 3086  37.607  22.071  11.126
31471W        W 3087  28.965  21.730  13.318
31472W        W 3088  10.661   4.236  14.104
31473W        W 3089   0.450   9.859   3.004
31474W        W 3090  18.073  33.121  12.486
31475W        W 3091   2.540  14.743  11.105
31476W        W 3092  13.860  15.540   3.198
31477W        W 3093  31.456  41.568   0.970
31478W        W 3094  40.325   3.761  10.712
31479W        W 3095  35.869  11.012  13.027
31480W        W 3096  31.870  24.864  12.465
31481W        W 3097  20.474  11.617   0.509
31482W        W 3098  10.608  25.505  13.487
31483W        W 3099   9.212  25.262  12.479
31484W        W 3100  16.792   3.311   0.225
31485W        W 3101   5.247  30.820   3.284
31486W        W 3102  36.559  38.026  11.562
31487W        W 3103  22.295   2.452   3.633
31488W        W 3104   3.278  27.263  14.425
31489W        W 3105  27.139  18.404   4.888
31490W        W 3106  35.576   6.977  13.856
31491W        W 3107   5.243  40.600   1.730
31492W        W 3108  17.713  29.981   2.829
31493W        W 3109   6.143  23.397  10.746
31494W        W 3110  18.299  34.584  13.924
31495W        W 3111  11.612  32.103  10.660
31496W        W 3112   3.785   6.897  12.086
31497W        W 3113  33.382   9.332  14.810
31498W        W 3114  43.926  16.135  12.157
31499W        W 3115  18.897  35.166  14.465
31500W        W 3116  41.367   8.945   3.228
31501W        W 3117  20.148  10.652   1.931
31502W        W 3118  31.983   2.704   0.799
31503W        W 3119   9.727  23.257  11.050
31504W        W 3120  17.565   8.632   0.885
31505W        W 3121  31.853  28.177  11.638
31506W        W 3122  23.583  42.071   4.614
31507W        W 3123  21.579  44.612   4.121
31508W        W 3124  40.881  21.521  14.346
31509W        W 3125  41.785  34.505  10.947
31510W        W 3126  21.208  37.523   2.438
31511W        W 3127  30.128   2.851  11.574
31512W        W 3128  15.537   5.217  11.521
31513W        W 3129  10.747   5.924   3.137
31514W        W 3130   0.735  11.308   0.920
31515W        W 3131   0.876  38.005  11.975
31516W        W 3132  44.135  14.701  14.798
31517W        W 3133  27.486   2.998   2.885
31518W        W 3134   9.199   6.393   2.223
31519W        W 3135  38.275  35.407   1.680
31520W        W 3136  42.834  33.635   4.264
31521W        W 3137  11.295  11.702  11.990
31522W        W 3138  18.584  35.867  10.718
31523W        W 3139  19.304  32.977  11.182
31524W        W 3140  35.262   8.316  13.387
31525W        W 3141  41.516  12.176   0.891
31526W        W 3142   3.321  12.773   3.369
31527W        W 3143  26.459  37.428   3.182
31528W        W 3144  26.980  20.450   3.593
31529W        W 3145   7.366  14.840   0.178
31530W        W 3146  35.046  12.372   3.207
31531W        W 3147  28.550  10.086   1.403
31532W        W 3148   0.722   1.345   5.001
31533W        W 3149   2.176  30.908   1.047
31534W        W 3150  26.633  21.521   0.369
31535W        W 3151   3.368   1.310  14.343
31536W        W 3152   3.704   9.703   3.659
31537W        W 3153  32.971   2.634   4.199
31538W        W 3154  24.779  10.654   2.900
31539W        W 3155   7.888  10.163   2.903
31540W        W 3156  10.783  34.957   0.497
31541W        W 3157   0.992  16.594  11.214
31542W        W 3158  42.005  35.546  10.357
31543W        W 3159  36.893  36.847   4.761
31544W        W 3160  36.596   4.850   0.962
31545W        W 3161  23.182  22.678   3.407
31546W        W 3162  42.541  24.138  13.436
31547W        W 3163  24.324   7.723   2.783
31548W        W 3164  19.832  41.468  14.437
31549W        W 3165   2.157  24.107  12.582
31550W        W 3166  44.915  36.051   4.190
31551W        W 3167   9.463  21.168   4.617
31552W        W 3168  34.443   9.180  10.659
31553W        W 3169  24.529  17.243  12.669
31554W        W 3170  10.742  19.190  12.424
31555W        W 3171  34.751  28.752   4.224
31556W        W 3172  18.801   6.545   2.955
31557W        W 3173   7.855  17.830  10.406
31558W        W 3174  10.189  15.742  13.255
31559W        W 3175  31.666  44.812  11.401
31560W        W 3176  27.944   6.473  14.377
31561W        W 3177  21.920  41.272   4.215
31562W        W 3178  19.563  25.136   1.571
31563W        W 3179  37.857  39.765   1.822
31564W        W 3180   4.356  12.758  14.821
31565W        W 3181  37.164  17.573  14.966
31566W        W 3182   0.481   2.264   3.090
31567W        W 3183  26.051   6.242   1.051
31568W        W 3184  37.059  18.413   1.733
31569W        W 3185  43.665  16.322   4.569
31570W        W 3186  37.605  21.500   1.107
31571W        W 3187  38.964  35.424  14.990
31572W        W 3188  27.427   9.795  13.814
31573W        W 3189  38.993   2.225   2.751
31574W        W 3190   4.890  38.717   4.717
31575W        W 3191  41.506  18.131  11.633
31576W        W 3192  18.230   9.881  12.277
31577W        W 3193  26.250   6.718  13.202
31578W        W 3194  34.102  34.535   0.414
31579W        W 3195  27.539  30.924   3.333
31580W        W 3196  32.337   4.039  13.760
31581W        W 3197  11.371  14.346  13.356
31582W        W 3198  36.124  18.555  12.498
31583W        W 3199   3.412  36.507   4.549
31584W        W 3200  19.319   5.995  11.850
31585W        W 3201  41.838   9.916   1.810
31586W        W 3202  34.613   1.560   4.183
31587W        W 3203  15.890  42.905  14.416
31588W        W 3204  42.302   7.827  14.158
31589W        W 3205  40.339  15.063   4.102
31590W        W 3206  24.689   4.434   1.410
31591W        W 3207  10.139  41.496   0.171
31592W        W 3208  28.560  25.993  10.958
31593W        W 3209  29.978   6.837   2.883
31594W        W 3210  16.867   3.380   2.976
31595W        W 3211  33.073   8.601  11.559
31596W        W 3212   5.276  11.715   1.255
31597W        W 3213  20.127  10.630   0.580
31598W        W 3214  32.624  32.335   1.851
31599W        W 3215  16.425  37.664   3.041
31600W        W 3216   7.675  19.753  10.746
31601W        W 3217  27.229  25.679   0.947
31602W        W 3218  13.286  29.468  10.472
31603W        W 3219   3.133  33.697  14.791
31604W        W 3220   9.862  44.760  11.636
31605W        W 3221   0.893   0.487  12.687
31606W        W 3222  43.968  33.063  13.538
31607W        W 3223  27.402  17.791   1.743
31608W        W 3224  31.144  25.161   4.971
31609W        W 3225  17.776  40.061   1.238
31610W        W 3226  32.937   9.134   0.626
31611W        W 3227  26.681  38.536  13.605
31612W        W 3228  31.304  30.582  11.886
31613W        W 3229  39.259  38.300  14.652
31614W        W 3230  21.171   5.214   4.496
31615W        W 3231   5.785   4.722  10.550
31616W        W 3232   3.050  30.975  11.544
31617W        W 3233  31.374   0.235  11.449
31618W        W 3234   4.678  22.635  12.124
31619W        W 3235  13.973   5.715   5.021
31620W        W 3236   6.429  27.866   0.364
31621W        W 3237  43.782   9.274  11.645
31622W        W 3238  12.606  24.109   2.765
31623W        W 3239  23.973   5.037   1.042
31624W        W 3240   6.025  28.924   1.805
31625W        W 3241  28.978  41.292   3.321
31626W        W 3242  42.004  33.916   4.243
31627W        W 3243  29.479  27.936   0.878
31628W        W 3244  43.272  39.016   1.196
31629W        W 3245   7.827  35.336  11.983
31630W        W 3246  39.026   9.791   4.048
31631W        W 3247  17.310  18.758  12.921
31632W        W 3248  25.793  31.401  14.411
31633W        W 3249  11.632  28.044   0.174
31634W        W 3250  39.614  11.304  11.100
31635W        W 3251  27.752  42.125   1.891
31636W        W 3252  40.843  34.415   2.666
31637W        W 3253  14.432  32.070  13.440
31638W        W 3254   1.807  21.271   1.209
31639W        W 3255  35.934  37.598  11.053
31640W        W 3256  21.752   4.786  12.359
31641W        W 3257  29.639  13.592   4.074
31642W        W 3258   5.030   9.175  13.962
31643W        W 3259  38.473  38.589   0.126
31644W        W 3260  14.702  22.650   2.130
31645W        W 3261  20.048  26.292   3.049
31646W        W 3262   2.358   6.017   4.837
31647W        W 3263  17.331  35.067  12.720
31648W        W 3264  32.551  28.594  14.678
31649W        W 3265   0.016  34.541   2.329
31650W        W 3266  25.419  43.540   4.167
31651W        W 3267  43.255   9.243   0.839
31652W        W 3268  32.641  25.251   0.817
31653W        W 3269  24.236  36.789   0.427
31654W        W 3270  26.184  23.234   3.621
31655W        W 3271  14.227  31.035  13.638
31656W        W 3272  36.445   6.394  11.176
31657W        W 3273  32.791  21.571  11.450
31658W        W 3274  44.781  13.770  14.801
31659W        W 3275  31.436   0.543  11.044
31660W        W 3276  43.999  23.834   2.656
31661W        W 3277  37.922  17.074   5.160
31662W        W 3278  23.764  27.523  14.858
31663W        W 3279  44.732  32.984   3.664
31664W        W 3280  21.172  22.147   1.969
31665W        W 3281  29.664  24.466  12.153
31666W        W 3282   2.677  12.550  12.369
31667W        W 3283  29.570  36.801  11.523
31668W        W 3284  31.996  25.194  12.065
31669W        W 3285  27.564  20.461  12.389
31670W        W 3286  17.805   8.173   0.973
31671W        W 3287  31.029  35.519   1.778
31672W        W 3288  30.707  31.509   4.132
31673W        W 3289  22.346  19.086   1.397
31674W        W 3290  44.436  39.786   1.810
31675W        W 3291   8.203  20.306  14.305
31676W        W 3292   2.947  21.742   1.977
31677W        W 3293  35.834  22.503  13.737
31678W        W 3294  33.080  30.601   1.193
31679W        W 3295  24.564  35.952   0.473
31680W        W 3296  37.277  17.628   4.106
31681W        W 3297   9.701  35.838   4.346
31682W        W 3298  19.285  11.319   1.266
31683W        W 3299  43.539   8.285   2.719
31684W        W 3300   4.840  25.826  10.211
31685W        W 3301  30.889  30.904   1.038
31686W        W 3302  30.501  25.239   1.819
31687W        W 3303  27.035  16.017   2.692
31688W        W 3304  14.948  41.920   4.018
31689W        W 3305  32.651   0.413  10.706
31690W        W 3306  43.189  39.481  11.147
31691W        W 3307  11.412  29.371  13.279
31692W        W 3308   4.467  37.363   0.082
31693W        W 3309  12.194  16.153   4.141
31694W        W 3310  36.626  33.595  11.181
31695W        W 3311  15.843  42.933   3.813
31696W        W 3312  29.117  23.570  14.762
31697W        W 3313  42.753  26.514   3.827
31698W        W 3314  22.723  24.750   2.389
31699W        W 3315  11.173  19.166  13.386
31700W        W 3316   2.296  40.447   3.732
31701W        W 3317  41.565  33.016   4.218
31702W        W 3318  40.291   9.779   2.687
31703W        W 3319   1.499   1.857  13.370
31704W        W 3320  32.420  15.114   3.033
31705W        W 3321  43.964  32.151   4.133
31706W        W 3322   1.480  27.073   0.731
31707W        W 3323  15.044  33.147  12.681
31708W        W 3324  33.338  23.766  13.283
31709W        W 3325  18.112  21.012  14.319
31710W        W 3326  35.621  25.105   4.178
31711W        W 3327  11.358   9.307  12.810
31712W        W 3328  11.318  25.646   1.350
31713W        W 3329  34.577  27.032   1.726
31714W        W 3330  35.042  31.856   1.805
31715W        W 3331  16.297  30.381   3.763
31716W        W 3332  43.046  15.268   4.027
31717W        W 3333  40.922  42.712  14.273
31718W        W 3334  24.639   8.187  13.225
31719W        W 3335  43.828  12.066   1.782
31720W        W 3336   4.334  34.273  14.494
31721W        W 3337  42.568  35.395  12.181
31722W        W 3338  20.347  35.807   0.919
31723W        W 3339  16.780  24.891  11.558
31724W        W 3340   0.202  20.696  11.948
31725W        W 3341  26.566   3.757  11.054
31726W        W 3342  37.004   6.706  14.399
31727W        W 3343  24.066  14.599  12.430
31728W        W 3344   0.229  21.508   3.211
31729W        W 3345  36.920  44.525   2.357
31730W        W 3346  42.159  37.342   5.007
31731W        W 3347  19.453  38.761   0.683
31732W        W 3348  32.585  43.849  13.028
31733W        W 3349  15.818  42.823  10.840
31734W        W 3350  19.631  22.616  11.072
31735W        W 3351   4.296  21.969   2.985
31736W        W 3352  10.135   3.868   4.045
31737W        W 3353  14.190  33.420   0.512
31738W        W 3354  30.236  22.085   1.803
31739W        W 3355   7.267  42.939  14.784
31740W        W 3356  36.042  25.476  14.864
31741W        W 3357  30.468  27.137  11.181
31742W        W 3358  19.842   4.821   2.688
31743W        W 3359   8.911  33.939   2.628
31744W        W 3360  15.009  21.044   1.868
31745W        W 3361  24.599   1.003  14.682
31746W        W 3362  40.502  21.441  14.704
31747W        W 3363  23.858  38.028  12.514
31748W        W 3364  34.919  24.696   2.352
31749W        W 3365   7.674  10.781   3.638
31750W        W 3366  11.818   1.028   4.097
31751W        W 3367   7.725  10.330  10.701
31752W        W 3368  44.187   5.845  11.996
31753W        W 3369  10.749  25.701   0.678
31754W        W 3370  32.384   1.918  14.949
31755W        W 3371  26.117  32.997   0.300
31756W        W 3372   2.320  26.303   1.815
31757W        W 3373  22.728  34.537   2.749
31758W        W 3374  23.437  19.531   0.666
31759W        W 3375  27.553  30.390   4.264
31760W        W 3376   8.892   5.856  12.409
31761W        W 3377  41.886   7.986  11.886
31762W        W 3378  29.509  10.230  12.474
31763W        W 3379  19.446   9.134   1.222
31764W        W 3380  24.408  41.311  10.766
31765W        W 3381   2.359  22.247   4.215
31766W        W 3382   9.718  23.479  14.258
31767W        W 3383  24.592   5.881   3.806
31768W        W 3384  42.770  24.103  14.833
31769W        W 3385  19.603  23.626  12.863
31770W        W 3386  37.880  21.494   4.362
31771W        W 3387  33.530  11.308   4.842
31772W        W 3388  26.603  23.905   0.532
31773W        W 3389   0.823  15.790  14.383
31774W        W 3390  14.466   5.332   1.165
31775W        W 3391   8.044  23.675   3.199
31776W        W 3392  27.563  42.300   1.392
31777W        W 3393  26.089  28.087  11.129
31778W        W 3394  28.017   5.586  12.054
31779W        W 3395  10.288  16.726  12.570
31780W        W 3396  34.346  13.185   2.345
31781W        W 3397  42.430  26.696  11.797
31782W        W 3398  38.996  36.909  11.147
31783W        W 3399  15.677  42.360  12.338
31784W        W 3400  42.269  12.597  11.624
31785W        W 3401  16.632  21.711   1.479
31786W        W 3402  26.020  36.481   1.751
31787W        W 3403  13.695  38.591  14.108
31788W        W 3404  42.878  40.126   0.504
31789W        W 3405  29.368   0.409  14.074
31790W        W 3406   8.783  33.547   1.621
31791W        W 3407  11.044  32.718  13.364
31792W        W 3408  23.473  11.837   1.851
31793W        W 3409  12.492  11.998  12.089
31794W        W 3410  24.649  30.649   1.745
31795W        W 3411  26.399  39.016   5.107
31796W        W 3412  12.590  28.469  11.247
31797W        W 3413  15.431   7.889  12.872
31798W        W 3414  35.950   6.624   0.041
31799W        W 3415  36.025  44.228   3.241
31800W        W 3416  26.483  11.912   4.534
31801W        W 3417  16.412  17.152   1.818
31802W        W 3418  11.807  15.055  10.791
31803W        W 3419   4.272  42.904   3.647
31804W        W 3420  31.906  38.610   4.007
31805W        W 3421  15.800  15.343   0.457
31806W        W 3422   3.947   4.766  10.321
31807W        W 3423  11.168  19.497  13.804
31808W        W 3424  24.766  26.674  14.332
31809W        W 3425  44.873  26.282  13.916
31810W        W 3426  11.220  19.199   3.087
31811W        W 3427  23.952   7.393   2.997
31812W        W 3428  17.979  25.195   3.238
31813W        W 3429  27.113  40.891  14.340
31814W        W 3430  44.082  16.821  14.792
31815W        W 3431  24.058  32.122   3.238
31816W        W 3432  11.584  41.028  11.656
31817W        W 3433  18.149  29.414   2.278
31818W        W 3434   1.309  41.394   1.438
31819W        W 3435  15.322  37.481  14.873
31820W        W 3436  22.465  17.878  14.325
31821W        W 3437  13.892  28.122   2.286
31822W        W 3438   6.786  28.051   3.582
31823W        W 3439  16.255  23.100  11.890
31824W        W 3440   9.558  30.148  11.207
31825W        W 3441   6.754  34.005   2.378
31826W        W 3442  44.009  24.706  13.059
31827W        W 3443  28.490  23.649   1.464
31828W        W 3444  34.652  24.678  12.437
31829W        W 3445  44.725  11.409   0.424
31830W        W 3446   9.151  39.441  11.084
31831W        W 3447   0.530  27.948  14.223
31832W        W 3448  32.605   3.245   4.774
31833W        W 3449   6.733   9.373   2.269
31834W        W 3450   0.517   2.662   4.427
31835W        W 3451   4.746  22.032  10.417
31836W        W 3452   4.330   1.022   4.737
31837W        W 3453  29.198  32.941   1.271
31838W        W 3454   1.428  32.555   1.891
31839W        W 3455   0.027   0.381   4.123
31840W        W 3456  44.749   6.876   4.824
31841W        W 3457  21.111  40.009   3.721
31842W        W 3458  38.984  15.719   1.229
31843W        W 3459  19.149  22.765   0.509
31844W        W 3460   1.330   4.175  12.497
31845W        W 3461  23.555  27.243  13.579
31846W        W 3462   1.911  39.408   4.822
31847W        W 3463   0.744  22.582  13.423
31848W        W 3464  43.419  19.155   0.931
31849W        W 3465   7.850  19.250  10.669
31850W        W 3466  29.057   4.926  11.036
31851W        W 3467  42.354  27.637   1.966
31852W        W 3468  23.773  42.905  11.182
31853W        W 3469  31.574   1.309   5.510
31854W        W 3470  40.084  37.609   2.223
31855W        W 3471  30.579  14.215  11.706
31856W        W 3472  12.237  39.339   0.502
31857W        W 3473  10.115  31.546   3.525
31858W        W 3474  28.097  22.873  13.780
31859W        W 3475  28.961  21.191  13.917
31860W        W 3476  22.549  34.886  14.245
31861W        W 3477  37.500  11.320   0.797
31862W        W 3478   3.279   8.920  12.622
31863W        W 3479  33.433   3.006  12.332
31864W        W 3480  12.367  26.211   0.367
31865W        W 3481  14.195  24.101   4.041
31866W        W 3482  21.693  31.036  11.649
31867W        W 3483  11.832  18.639   2.442
31868W        W 3484  38.572  21.975   3.417
31869W        W 3485  29.233  37.463  10.128
31870W        W 3486  10.088   9.729   2.873
31871W        W 3487  37.752   3.386   5.036
31872W        W 3488  43.024  32.572  14.852
31873W        W 3489  42.494  29.981  12.341
31874W        W 3490   0.643  15.831   2.806
31875W        W 3491  14.372  30.623  10.567
31876W        W 3492   2.415  30.429   3.615
31877W        W 3493  16.665   5.331   2.595
31878W        W 3494  28.851  23.566  12.913
31879W        W 3495  18.321  43.874   2.698
31880W        W 3496  37.029  13.207   2.808
31881W        W 3497  37.333  39.636   3.181
31882W        W 3498  23.686  19.548   2.600
31883W        W 3499  24.505  14.549  12.166
31884W        W 3500  43.385   5.131   0.298
31885W        W 3501  24.196   7.849   4.189
31886W        W 3502  21.849  11.651   4.524
31887W        W 3503  38.970  19.222   3.395
31888W        W 3504  40.481  39.416  11.807
31889W        W 3505  10.893  28.950  12.579
31890W        W 3506   4.591  27.670   2.803
31891W        W 3507  30.489  22.624  11.147
31892W        W 3508  32.065   9.960  10.147
31893W        W 3509  13.669  24.221   1.386
31894W        W 3510  14.782  36.487  13.443
31895W        W 3511  10.666   9.717   1.440
31896W        W 3512   5.116  44.487  13.005
31897W        W 3513  31.146  40.743   4.870
31898W        W 3514  12.781  36.509  11.510
31899W        W 3515  29.842  36.660   1.286
31900W        W 3516  20.787  24.286  14.332
31901W        W 3517   6.524  21.734  13.535
31902W        W 3518   8.035  38.285  11.316
31903W        W 3519  11.116  12.896  12.480
31904W        W 3520  33.343   7.163   0.318
31905W        W 3521  24.706  34.176  12.900
31906W        W 3522   0.065   4.826   9.989
31907W        W 3523  17.215  35.800  13.833
31908W        W 3524  10.287  41.788  10.567
31909W        W 3525  24.672   6.499   4.264
31910W        W 3526  30.052  42.524   3.778
31911W        W 3527  19.773   6.115  12.828
31912W        W 3528   6.440  31.219  13.375
31913W        W 3529  16.142   4.136  11.986
31914W        W 3530   0.920  21.261   2.237
31915W        W 3531  20.349  35.166   4.253
31916W        W 3532  33.045  16.342  10.582
31917W        W 3533  27.527  42.732   4.010
31918W        W 3534   3.413  36.348   0.254
31919W        W 3535  37.917  43.356  14.893
31920W        W 3536  24.960  15.116   0.288
31921W        W 3537  14.262  21.184  13.527
31922W        W 3538   2.700  29.099  11.656
31923W        W 3539  30.181  18.002   0.877
31924W        W 3540  32.905  42.399   1.415
31925W        W 3541  43.512  11.131   1.600
31926W        W 3542   0.711  31.490  14.896
31927W        W 3543   3.718   2.857  11.260
31928W        W 3544  20.950  32.939   0.504
31929W        W 3545   4.375  27.816  12.356
31930W        W 3546  16.126  20.603  12.866
31931W        W 3547  29.805   1.562  10.839
31932W        W 3548  40.926  34.458   4.601
31933W        W 3549  41.450   9.740  13.818
31934W        W 3550  41.070  40.867   2.311
31935W        W 3551  41.507  14.066   0.919
31936W        W 3552  36.318  35.033   2.370
31937W        W 3553  12.115  23.094  10.946
31938W        W 3554  36.291   5.665  11.645
31939W        W 3555   0.416  13.420  10.711
31940W        W 3556  35.882  44.892   2.724
31941W        W 3557  28.717   4.280  11.267
31942W        W 3558  25.249  35.117   2.895
31943W        W 3559   8.709  10.335   0.823
31944W        W 3560  33.852  32.387   1.331
31945W        W 3561   4.061  41.531   0.862
31946W        W 3562  19.593  44.535   4.779
31947W        W 3563  41.331   3.920  12.901
31948W        W 3564  14.652  44.908  12.201
31949W        W 3565   3.383   7.208  11.949
31950W        W 3566  12.935  35.643   3.801
31951W        W 3567  44.327  37.666   0.830
31952W        W 3568  23.027  20.011   2.318
31953W        W 3569  19.082  12.043  10.507
31954W        W 3570  23.205  20.527   1.415
31955W        W 3571  30.798  26.861  12.066
31956W        W 3572  12.721  43.342   0.407
31957W        W 3573   2.471  38.936   3.315
31958W        W 3574  23.288   0.560   0.281
31959W        W 3575  42.880  30.603   0.938
31960W        W 3576  29.241  14.653  11.131
31961W        W 3577   8.696  21.240   3.638
31962W        W 3578  43.917  36.053  13.905
31963W        W 3579  28.473  40.940  10.809
31964W        W 3580  17.732  21.274   0.462
31965W        W 3581  40.096  16.647   3.121
31966W        W 3582   2.669  35.070   2.280
31967W        W 3583   0.042  28.065  12.553
31968W        W 3584  25.399   1.888   3.527
31969W        W 3585  12.695  13.353  13.807
31970W        W 3586  11.367  36.969  10.625
31971W        W 3587  44.296  16.886   4.617
31972W        W 3588  16.049  15.147  13.572
31973W        W 3589  21.013  21.679   1.786
31974W        W 3590  23.092  27.671   0.511
31975W        W 3591  11.892  13.163  10.609
31976W        W 3592  37.139   0.147  12.652
31977W        W 3593  25.558  29.478  14.762
31978W        W 3594   3.404  35.522  11.157
31979W        W 3595  31.265   6.686   2.752
31980W        W 3596  29.155  23.223  12.159
31981W        W 3597  23.060   0.193  13.517
31982W        W 3598  24.079  17.276   2.922
31983W        W 3599   1.582  23.333  14.521
31984W        W 3600  16.585   3.358  13.707
31985W        W 3601  38.224  34.445  10.115
31986W        W 3602   8.830   2.250   1.726
31987W        W 3603  41.920  12.319   4.502
31988W        W 3604  30.421  24.694  13.895
31989W        W 3605  33.907  13.182  13.357
31990W        W 3606   5.678   5.659  13.965
31991W        W 3607   4.382  28.534   2.687
31992W        W 3608  27.804  18.820  12.825
31993W        W 3609  14.222  29.944  12.512
31994W        W 3610   1.952   7.698   2.107
31995W        W 3611  17.268  30.067  10.927
31996W        W 3612  13.303  16.458  14.883
31997W        W 3613  44.294  26.804   3.534
31998W        W 3614   4.033  15.217   2.615
31999W        W 3615  20.798  11.335   1.356
32000W        W 3616   9.726   1.407   2.658
32001W        W 3617  43.318  27.706  14.221
32002W        W 3618  39.404  20.620  11.677
32003W        W 3619  35.301   6.874  14.454
32004W        W 3620  43.468  26.575   2.177
32005W        W 3621  16.575  42.336   2.904
32006W        W 3622  10.188  24.109   0.351
32007W        W 3623  32.437  16.114  14.496
32008W        W 3624  11.597  17.335  14.943
32009W        W 3625  22.724  13.789   3.696
32010W        W 3626  12.712   9.168   1.843
32011W        W 3627  41.251  44.690  13.098
32012W        W 3628  17.667  43.357  11.175
32013W        W 3629  39.979  15.836  13.332
32014W        W 3630   4.245  40.229  11.057
32015W        W 3631   7.979   7.489  11.633
32016W        W 3632  13.695  17.611  10.230
32017W        W 3633  20.583   4.060  13.481
32018W        W 3634   2.313   0.405   3.145
32019W        W 3635  35.588   7.142  10.708
32020W        W 3636  34.392  37.748  11.372
32021W        W 3637  38.902  17.045  14.834
32022W        W 3638  42.473  21.384   4.144
32023W        W 3639  27.162  38.132   4.098
32024W        W 3640   5.729  42.062   0.213
32025W        W 3641  27.712  15.494   4.091
32026W        W 3642  39.818  29.420   0.772
32027W        W 3643  40.934  29.132   4.733
32028W        W 3644  32.136  28.648   1.487
32029W        W 3645  21.521  10.309   3.408
32030W        W 3646  11.131  14.924   1.600
32031W        W 3647  14.724  36.585  11.592
32032W        W 3648  22.508  40.072  10.737
32033W        W 3649  14.797   4.876  13.997
32034W        W 3650   2.124  44.039  10.308
32035W        W 3651   1.367  11.678  13.387
32036W        W 3652  23.286  32.840   0.440
32037W        W 3653  37.880  44.256   1.479
32038W        W 3654  33.165  27.980   0.756
32039W        W 3655  42.316   1.455   2.951
32040W        W 3656  12.080   4.898  10.170
32041W        W 3657  11.042  31.021  12.906
32042W        W 3658  40.802  22.284   2.725
32043W        W 3659  10.398   0.447  13.297
32044W        W 3660  37.366  33.477  12.574
32045W        W 3661  12.196  35.537   3.249
32046W        W 3662  30.437  21.072  13.405
32047W        W 3663  36.478  22.188  14.332
32048W        W 3664  28.925   5.133  14.376
32049W        W 3665  40.325   3.168  14.308
32050W        W 3666  35.649  17.005  10.718
32051W        W 3667  38.862  38.204  14.992
32052W        W 3668  38.102  14.584   0.048
32053W        W 3669   3.730  25.095  10.418
32054W        W 3670  18.003   3.440  12.790
32055W        W 3671  36.505  26.277  11.507
32056W        W 3672   3.544  16.491  12.032
32057W        W 3673  15.691  36.666  10.544
32058W        W 3674  32.057  43.700  14.153
32059W        W 3675   7.746  43.432   2.738
32060W        W 3676  44.971  31.230   2.297
32061W        W 3677   2.434  32.571   2.741
32062W        W 3678  22.495  40.346   5.109
32063W        W 3679  21.700  16.075   4.714
32064W        W 3680  23.595  28.439   4.543
32065W        W 3681  34.985  28.441  11.615
32066W        W 3682  44.037  19.761   0.581
32067W        W 3683  19.199   6.037  11.109
32068W        W 3684   1.209  34.460   1.503
32069W        W 3685  31.898  37.583  13.068
32070W        W 3686  33.772  35.952  12.497
32071W        W 3687   9.556  25.758   3.807
32072W        W 3688   2.185  35.052  11.465
32073W        W 3689  13.218  23.544   1.225
32074W        W 3690  42.331  23.477  11.524
32075W        W 3691  35.660  36.104   2.030
32076W        W 3692  21.595  14.238  10.915
32077W        W 3693  37.380  11.918  12.496
32078W        W 3694  18.769  30.584   0.292
32079W        W 3695  36.919  36.294   3.807
32080W        W 3696  16.354   6.238  13.336
32081W        W 3697  40.341  33.193   1.707
32082W        W 3698  26.922   6.028   2.928
32083W        W 3699  11.373  14.701   4.607
32084W        W 3700  26.468  17.274   1.852
32085W        W 3701  28.863  40.751  14.738
32086W        W 3702  32.576  19.735  14.887
32087W        W 3703  20.715  29.347  14.241
32088W        W 3704  17.875  10.301  11.157
32089W        W 3705  42.875  27.193   3.144
32090W        W 3706  14.283  38.530   3.134
32091W        W 3707  11.269  12.479   4.590
32092W        W 3708  41.252  39.823   4.191
32093W        W 3709  39.963  35.780  10.739
32094W        W 3710  41.243  41.435  13.863
32095W        W 3711  38.412  43.324  12.128
32096W        W 3712  14.220   5.054   3.236
32097W        W 3713   4.866  40.446  14.076
32098W        W 3714  42.306  34.977  12.005
32099W        W 3715  44.763  14.832   1.725
32100W        W 3716  44.925  41.761   1.364
32101W        W 3717   1.858  40.824   2.939
32102W        W 3718   5.720  24.202   3.167
32103W        W 3719  25.251  42.863  13.145
32104W        W 3720  14.724  13.297  14.992
32105W        W 3721  24.131   5.841  13.371
32106W        W 3722  33.136  23.295   3.798
32107W        W 3723  39.994  18.631   3.178
32108W        W 3724   6.745  10.648  13.506
32109W        W 3725  32.915  18.726  13.258
32110W        W 3726   0.423  28.099  11.024
32111W        W 3727  20.120   9.430  10.806
32112W        W 3728  42.284  14.388   4.581
32113W        W 3729   7.408   6.204  12.489
32114W        W 3730   4.803  35.370   1.845
32115W        W 3731  39.454  43.249  10.295
32116W        W 3732  40.908  35.897   2.638
32117W        W 3733  14.683  29.300  14.927
32118W        W 3734  44.260  13.740  14.815
32119W        W 3735  17.278   8.454  11.197
32120W        W 3736  42.340  16.333   2.792
32121W        W 3737  12.071  16.740   2.988
32122W        W 3738  21.306  22.055  12.968
32123W        W 3739  27.220  35.843   2.121
32124W        W 3740  20.515   3.026  14.759
32125W        W 3741  33.773  30.399  14.328
32126W        W 3742  26.346  40.505  11.568
32127W        W 3743  10.878   4.838  10.616
32128W        W 3744   7.967  21.255  10.061
32129W        W 3745  39.552  33.113  11.684
32130W        W 3746  23.204  23.698   3.113
32131W        W 3747   7.757   4.630  11.154
32132W        W 3748  30.204  17.658  12.614
32133W        W 3749  42.462   7.845  13.142
32134W        W 3750  41.452  10.283  11.925
32135W        W 3751  13.331   3.927  11.387
32136W        W 3752  21.308  11.587   4.508
32137W        W 3753  34.442  31.669  11.591
32138W        W 3754  11.206  22.108  11.977
32139W        W 3755  18.152  44.748  11.123
32140W        W 3756  36.737  13.647   2.113
32141W        W 3757   6.858  21.532   0.439
32142W        W 3758  27.449  44.354  13.812
32143W        W 3759  20.212  25.567  13.576
32144W        W 3760  11.822   1.478  14.697
32145W        W 3761   2.458  10.543   0.916
32146W        W 3762   5.968  30.917   2.069
32147W        W 3763  31.961  32.867  12.728
32148W        W 3764   4.018  19.761  12.925
32149W        W 3765  37.954  35.028   4.546
32150W        W 3766  39.033  33.986   1.579
32151W        W 3767   7.382   9.540   1.249
32152W        W 3768  42.743  37.101  12.625
32153W        W 3769  11.414  35.684   1.657
32154W        W 3770   8.723   3.209   1.736
32155W        W 3771   2.225  21.445  14.907
32156W        W 3772  27.266  28.172  11.717
32157W        W 3773  36.037   8.453  12.417
32158W        W 3774  17.622  27.590  12.377
32159W        W 3775  27.480  13.632  10.871
32160W        W 3776  29.693  43.284   3.813
32161W        W 3777  32.115  44.747   5.087
32162W        W 3778   6.747   0.947  10.657
32163W        W 3779  33.898  29.162  13.317
32164W        W 3780   9.327   0.444   2.467
32165W        W 3781  38.522  13.902  10.651
32166W        W 3782  24.493   6.359  13.662
32167W        W 3783   4.278  33.831  11.543
32168W        W 3784   6.494  43.345   0.236
32169W        W 3785  21.213  23.607   0.750
32170W        W 3786  19.202  31.396  14.896
32171W        W 3787  37.605  40.310  14.278
32172W        W 3788  22.466  34.533  13.466
32173W        W 3789   7.869  26.945  14.978
32174W        W 3790  30.535  16.687   3.201
32175W        W 3791  29.394  24.963   3.747
32176W        W 3792   9.321  27.194  10.743
32177W        W 3793  42.990  11.167  12.111
32178W        W 3794  15.944  44.535  11.423
32179W        W 3795  14.734  18.528   4.251
32180W        W 3796  13.115   0.020   4.931
32181W        W 3797  40.985  16.275  12.571
32182W        W 3798  29.487  44.478   2.678
32183W        W 3799  41.308  20.235  14.816
32184W        W 3800  11.253  35.115  14.533
32185W        W 3801  34.521  32.009   0.024
32186W        W 3802   4.687   8.244   1.813
32187W        W 3803  28.652  31.782   1.476
32188W        W 3804  41.751  22.938  13.501
32189W        W 3805  33.928  22.674   2.609
32190W        W 3806   5.984  27.572  13.040
32191W        W 3807  18.983  29.150  13.098
32192W        W 3808  22.211  24.021   4.485
32193W        W 3809   6.095   7.445   1.892
32194W        W 3810  42.084  30.579  13.435
32195W        W 3811  22.933  21.659  14.762
32196W        W 3812  12.782  17.706   0.526
32197W        W 3813   3.492  18.420   1.868
32198W        W 3814  18.690   3.042  10.199
32199W        W 3815  16.539  37.142  12.840
32200W        W 3816  10.429  34.405  12.380
32201W        W 3817   4.810  32.753  13.852
32202W        W 3818  32.391  27.088  10.934
32203W        W 3819  33.435  41.017  11.620
32204W        W 3820   8.629  35.898   1.865
32205W        W 3821   7.710  24.120   3.163
32206W        W 3822   4.972  40.380  11.614
32207W        W 3823  21.054  20.201   0.919
32208W        W 3824   7.774   2.347  11.182
32209W        W 3825  30.122  30.737   1.765
32210W        W 3826   7.296  23.588   0.926
32211W        W 3827  14.647  31.959  12.598
32212W        W 3828  23.667  26.135  12.040
32213W        W 3829   6.715   0.672  13.021
32214W        W 3830  41.853  10.971   1.872
32215W        W 3831  18.570   9.273   2.233
32216W        W 3832  27.466   9.369   1.722
32217W        W 3833  42.459   1.745  12.950
32218W        W 3834  12.291  36.788  11.609
32219W        W 3835  11.108  37.490   0.393
32220W        W 3836  43.930  16.692  12.365
32221W        W 3837  28.986  44.773  11.604
32222W        W 3838  43.406  33.128   1.346
32223W        W 3839  27.427   8.731  13.300
32224W        W 3840  39.982   3.663  11.672
32225W        W 3841  14.213  36.968   2.814
32226W        W 3842  27.562  27.544  10.675
32227W        W 3843  34.449   8.617  11.727
32228W        W 3844   0.988  24.063  11.426
32229W        W 3845  26.948  34.112   2.764
32230W        W 3846  22.478  10.213   5.052
32231W        W 3847  33.301  24.430  13.991
32232W        W 3848  18.319  12.724   1.286
32233W        W 3849  32.177  13.850   1.196
32234W        W 3850  26.372  16.785   9.704
32235W        W 3851   8.642  31.614  10.692
32236W        W 3852  21.598  33.960   3.851
32237W        W 3853  32.410  40.807   0.105
32238W        W 3854  24.099  30.929   1.882
32239W        W 3855   8.200   7.984   1.650
32240W        W 3856  43.320  16.257   3.240
32241W        W 3857  18.559  29.952   2.711
32242W        W 3858  41.388  42.211   1.861
32243W        W 3859  28.047  23.477  11.573
32244W        W 3860  38.314   0.413   3.831
32245W        W 3861  11.654  30.416   4.080
32246W        W 3862   9.472  12.046  13.987
32247W        W 3863  41.218  16.698  12.804
32248W        W 3864   1.941  22.402   5.326
32249W        W 3865  26.652   1.313   3.125
32250W        W 3866  38.647  14.030  12.514
32251W        W 3867  37.588  36.647  12.020
32252W        W 3868   1.394  37.289  14.881
32253W        W 3869  22.974   7.887  12.519
32254W        W 3870  34.882  44.880   4.616
32255W        W 3871   9.592   9.275   1.216
32256W        W 3872  14.678  12.049  14.934
32257W        W 3873   8.644  18.822   2.874
32258W        W 3874  29.160  10.282  14.692
32259W        W 3875  42.027   8.231  11.465
32260W        W 3876  25.327  18.072  12.026
32261W        W 3877   9.351  18.215   2.826
32262W        W 3878   3.226  41.312   4.131
32263W        W 3879  17.941  10.174  12.565
32264W        W 3880   3.000  10.167  14.260
32265W        W 3881  11.821  22.110   0.441
32266W        W 3882  14.668  36.507  12.094
32267W        W 3883  11.276  13.401  14.304
32268W        W 3884  17.721  32.078  13.772
32269W        W 3885  30.969   1.729  13.345
32270W        W 3886  36.501   6.909  14.416
32271W        W 3887  35.407  12.885   3.850
32272W        W 3888  21.356   3.436  10.405
32273W        W 3889  43.085  26.232   2.318
32274W        W 3890   0.231  14.845   1.936
32275W        W 3891   9.841  32.612  11.083
32276W        W 3892  11.232  36.049  11.467
32277W        W 3893  23.151  19.753   1.877
32278W        W 3894  31.924  34.466  14.881
32279W        W 3895  36.088   8.036   2.244
32280W        W 3896   3.243  21.453   2.314
32281W        W 3897  16.205   5.763   1.930
32282W        W 3898   1.474  11.373  13.971
32283W        W 3899  27.038   7.962   4.460
32284W        W 3900   7.449  37.486   2.673
32285W        W 3901  13.281   1.027  13.810
32286W        W 3902  20.167  16.840   4.967
32287W        W 3903  14.431  21.709   2.440
32288W        W 3904  21.790  28.679  13.751
32289W        W 3905  14.590   5.981  14.889
32290W        W 3906  41.921  21.979  10.766
32291W        W 3907  25.363  25.051   1.875
32292W        W 3908  36.014   2.448  13.883
32293W        W 3909  16.898  24.050  11.802
32294W        W 3910  41.880  36.860   3.246
32295W        W 3911  16.095  36.712   3.291
32296W        W 3912  43.846   8.281  10.666
32297W        W 3913  33.052  40.844   4.677
32298W        W 3914   0.671   1.348  10.631
32299W        W 3915   7.071   6.212  10.813
32300W        W 3916  43.131  21.020   4.988
32301W        W 3917  39.066  35.912   1.061
32302W        W 3918  13.196  21.262  10.853
32303W        W 3919   3.992  15.123   1.813
32304W        W 3920   8.362  33.242  12.325
32305W        W 3921  30.592   5.480   3.780
32306W        W 3922   1.297  30.650  13.232
32307W        W 3923  29.652  27.161  14.485
32308W        W 3924  23.603  20.056   2.427
32309W        W 3925  22.933  43.987  14.886
32310W        W 3926  25.506  23.477  10.499
32311W        W 3927  15.498  23.442  14.305
32312W        W 3928  43.026   6.431  11.790
32313W        W 3929   7.744  13.807  13.043
32314W        W 3930  15.468  31.230   0.215
32315W        W 3931  37.571   2.876  14.200
32316W        W 3932  32.660   2.817  10.608
32317W        W 3933   1.842  39.505   1.870
32318W        W 3934  41.918  40.601   2.695
32319W        W 3935  40.824  44.585  12.406
32320W        W 3936   8.425  16.021  14.408
32321W        W 3937   2.010  13.826   1.362
32322W        W 3938  29.943  29.847  13.045
32323W        W 3939  37.910   9.834  13.828
32324W        W 3940  12.449   7.393  11.505
32325W        W 3941  40.881  15.041   4.187
32326W        W 3942  35.790  22.887   0.483
32327W        W 3943   5.455  16.919  12.698
32328W        W 3944   7.714  15.783   3.691
32329W        W 3945   6.313  15.427   2.847
32330W        W 3946   5.695   3.668  13.456
32331W        W 3947  22.182  35.996  12.827
32332W        W 3948  27.464  25.643  13.928
32333W        W 3949   7.773  37.093   1.722
32334W        W 3950   6.477   9.162  12.179
32335W        W 3951  15.017  35.466  14.048
32336W        W 3952  42.279   7.145   2.809
32337W        W 3953  43.252   3.702  12.612
32338W        W 3954  41.213  23.974  12.954
32339W        W 3955  27.367  18.560  14.544
32340W        W 3956  16.795  16.798   2.866
32341W        W 3957   4.639   5.966   4.105
32342W        W 3958  18.357  29.061  14.841
32343W        W 3959  22.609  19.965   1.042
32344W        W 3960  30.944  25.921  14.452
32345W        W 3961  15.926  28.669  13.197
32346W        W 3962  36.311  13.298   5.167
32347W        W 3963  41.857  35.826  12.113
32348W        W 3964  23.232  22.158   2.129
32349W        W 3965  12.772  10.164   4.383
32350W        W 3966  33.998  24.493   4.156
32351W        W 3967   4.508  12.168  13.521
32352W        W 3968  18.156  20.314   2.700
32353W        W 3969  11.165   2.004  14.110
32354W        W 3970  22.666  21.522  13.962
32355W        W 3971   2.921   3.504  13.748
32356W        W 3972  19.814  43.646   1.668
32357W        W 3973  39.487   4.746  13.412
32358W        W 3974  27.627  16.122   0.484
32359W        W 3975  14.556   0.719  11.566
32360W        W 3976  28.656  12.083  11.197
32361W        W 3977  37.203  21.835  12.886
32362W        W 3978  22.007  44.222   0.925
32363W        W 3979  28.141  25.865  14.399
32364W        W 3980  31.137   0.962   2.491
32365W        W 3981   8.229  34.553   4.106
32366W        W 3982  44.831  35.666  12.489
32367W        W 3983  39.402   6.209   0.280
32368W        W 3984  40.968   8.329  12.042
32369W        W 3985  18.841   2.431   0.853
32370W        W 3986   7.265  38.573   3.666
32371W        W 3987  12.724  20.243   0.681
32372W        W 3988   3.935  37.835   1.239
32373W        W 3989   7.325  38.453  10.623
32374W        W 3990  22.717  28.571   0.461
32375W        W 3991  44.876  16.647  12.730
32376W        W 3992  10.181  14.179  14.914
32377W        W 3993  30.094  41.451  12.955
32378W        W 3994  20.994  21.186   0.824
32379W        W 3995   0.323  19.063  12.884
32380W        W 3996  13.096  27.254   3.677
32381W        W 3997  20.455   8.265   2.832
32382W        W 3998  16.666  44.946   4.554
32383W        W 3999  43.006   3.463  10.388
32384W        W 4000  21.178  36.361   0.479
32385W        W 4001  41.002   2.803  13.665
32386W        W 4002   3.245  40.038  13.548
32387W        W 4003   3.331  22.164  11.964
32388W        W 4004  42.504  28.384  12.021
32389W        W 4005  22.802  22.879   4.167
32390W        W 4006  44.498   7.590   4.154
32391W        W 4007  15.084   3.690  10.299
32392W        W 4008  17.171  28.525   0.014
32393W        W 4009  16.561  19.245   3.933
32394W        W 4010  30.954  11.143  12.544
32395W        W 4011  14.794  13.769   1.238
32396W        W 4012  42.843  10.768   1.247
32397W        W 4013  27.858  38.968  12.100
32398W        W 4014   8.379  35.059   4.097
32399W        W 4015  15.483  21.283   3.258
32400W        W 4016  30.903  31.929  13.293
32401W        W 4017  15.868  33.175   2.280
32402W        W 4018   8.114  12.594  10.650
32403W        W 4019  34.381  29.227  13.984
32404W        W 4020   0.644  30.985   1.190
32405W        W 4021   9.743   1.471  11.457
32406W        W 4022   7.242  29.522  12.336
32407W        W 4023   3.266  18.280  13.867
32408W        W 4024  17.732   1.953   2.691
32409W        W 4025  24.145   7.462  10.760
32410W        W 4026  34.488  26.944  12.445
32411W        W 4027   4.937   2.992   2.665
32412W        W 4028  28.552  15.317   4.538
32413W        W 4029  39.313  18.147   0.732
32414W        W 4030  44.271  30.543   1.351
32415W        W 4031  30.080  10.571   0.840
32416W        W 4032   8.738  38.916  13.865
32417W        W 4033   9.728  33.944   4.704
32418W        W 4034   2.821  34.981   3.565
32419W        W 4035  29.358   6.340   4.207
32420W        W 4036  39.158  14.371   4.121
32421W        W 4037  27.951  32.841   1.671
32422W        W 4038  16.272  26.759  11.020
32423W        W 4039  32.346  25.544  13.015
32424W        W 4040   6.796  28.524  13.460
32425W        W 4041   0.672  21.072  10.617
32426W        W 4042  16.303   3.999   5.023
32427W        W 4043  23.989  23.982   9.838
32428W        W 4044  28.093   6.712  14.919
32429W        W 4045  24.667  29.044  12.636
32430W        W 4046  19.549  37.705  11.952
32431W        W 4047  29.525  32.050   1.576
32432W        W 4048  33.400  20.173   0.722
32433W        W 4049  13.249  15.788   3.247
32434W        W 4050   7.702   0.192  13.273
32435W        W 4051   5.248  42.531   5.008
32436W        W 4052  38.069  14.680  12.314
32437W        W 4053  13.608  28.159  12.513
32438W        W 4054  19.939  30.905  11.595
32439W        W 4055  19.617  24.215   1.287
32440W        W 4056  14.482  13.488  11.670
32441W        W 4057   2.802  38.311  10.553
32442W        W 4058  44.820   6.756  11.644
32443W        W 4059  26.576  15.268   2.885
32444W        W 4060  18.609  26.514  11.594
32445W        W 4061   3.550  14.387   4.177
32446W        W 4062  22.609  11.253   3.926
32447W        W 4063   9.163  41.843   1.581
32448W        W 4064  28.934  33.558  12.902
32449W        W 4065  20.004  13.310  11.643
32450W        W 4066   4.317  25.532   2.436
32451W        W 4067   4.255   8.165   0.725
32452W        W 4068  39.753  18.622  13.034
32453W        W 4069  10.342  41.474   2.790
32454W        W 4070   1.299  23.525   2.230
32455W        W 4071  19.151  44.041   5.393
32456W        W 4072  39.545  39.213   1.208
32457W        W 4073  34.324   1.221  12.752
32458W        W 4074   8.313  42.337  13.115
32459W        W 4075  34.535   8.271   3.885
32460W        W 4076   8.175  12.728  12.459
32461W        W 4077  43.285  21.968   3.664
32462W        W 4078  21.645  21.949  13.332
32463W        W 4079  24.243  12.856   3.116
32464W        W 4080  25.227  16.180  12.709
32465W        W 4081  29.064  20.001   2.307
32466W        W 4082  11.992  19.777   4.035
32467W        W 4083  22.710  27.119   3.411
32468W        W 4084   4.714   0.634   2.245
32469W        W 4085  21.193  10.328  13.260
32470W        W 4086  22.595  38.303  12.060
32471W        W 4087  27.986  32.948   4.634
32472W        W 4088  19.591  40.040   2.211
32473W        W 4089  39.857   9.299   3.394
32474W        W 4090  19.043   0.789  14.660
32475W        W 4091  26.740  29.048  10.275
32476W        W 4092  22.585  12.687   0.459
32477W        W 4093  32.492  12.741   4.508
32478W        W 4094  35.961   2.193  12.552
32479W        W 4095  20.651   4.779   4.151
32480W        W 4096   2.255   3.989   1.161
32481W        W 4097  23.073   9.932   4.171
32482W        W 4098  18.533  32.725  10.740
32483W        W 4099  14.695   2.526  12.444
32484W        W 4100  27.858  24.111  10.109
32485W        W 4101  12.704  33.011  14.026
32486W        W 4102  44.439  44.263   4.034
32487W        W 4103  24.948  14.321   0.977
32488W        W 4104  20.098  15.910   5.070
32489W        W 4105  38.874  28.118   2.827
32490W        W 4106  12.598  27.519   3.238
32491W        W 4107  24.331   4.396  10.356
32492W        W 4108  39.874  17.840  14.179
32493W        W 4109  10.375  19.936  13.275
32494W        W 4110  17.760  13.865  13.845
32495W        W 4111  33.998  43.074  11.216
32496W        W 4112  23.197  14.120  14.967
32497W        W 4113   7.875  26.186   2.823
32498W        W 4114  15.821  14.867  11.942
32499W        W 4115  30.615  44.248   4.066
32500W        W 4116   2.033  29.521  13.448
32501W        W 4117  30.235  41.639  12.452
32502W        W 4118  14.288   4.150   1.424
32503W        W 4119  11.906   4.027  14.028
32504W        W 4120  32.191  16.283   1.952
32505W        W 4121  18.210  28.277   4.061
32506W        W 4122  19.083   4.407  11.011
32507W        W 4123  32.527  32.114   0.411
32508W        W 4124   2.557  20.222  12.065
32509W        W 4125  22.052  22.594  11.406
32510W        W 4126  14.361  24.215  14.061
32511W        W 4127  30.093  22.678   4.919
32512W        W 4128  30.526  35.199   2.800
32513W        W 4129   2.531  21.722  13.409
32514W        W 4130  34.255  20.214   3.688
32515W        W 4131  15.174  28.504   2.438
32516W        W 4132   0.596  38.041  13.256
32517W        W 4133  21.146  20.522  12.880
32518W        W 4134  33.904  17.580   4.854
32519W        W 4135  40.908   7.655   0.528
32520W        W 4136  36.754  34.621  11.157
32521W        W 4137  33.553  23.133  13.898
32522W        W 4138  18.859   0.901  14.156
32523W        W 4139   6.637   2.755  12.981
32524W        W 4140  22.092  35.397   2.185
32525W        W 4141  36.549  44.871  12.277
32526W        W 4142   4.542  31.421  11.238
32527W        W 4143  24.298   8.376  12.590
32528W        W 4144  44.894  13.802  11.673
32529W        W 4145  34.584  32.922  14.893
32530W        W 4146  43.866  29.429   3.551
32531W        W 4147  32.753  34.077  11.082
32532W        W 4148  42.731   5.142   1.504
32533W        W 4149  20.577   4.297   4.383
32534W        W 4150   6.346  28.630   1.031
32535W        W 4151  29.224  20.113   4.114
32536W        W 4152  31.934   5.450   1.405
32537W        W 4153  26.634   3.702   3.614
32538W        W 4154   8.280  22.612  14.283
32539W        W 4155  14.581   4.725  14.489
32540W        W 4156  30.685  36.356   1.465
32541W        W 4157  31.489  11.652  10.993
32542W        W 4158  34.472  41.324  11.597
32543W        W 4159  25.156  31.909  12.524
32544W        W 4160  38.547  34.831  10.738
32545W        W 4161  23.369  23.082  14.117
32546W        W 4162  27.549  35.299  11.630
32547W        W 4163  10.424  10.298  10.929
32548W        W 4164   1.783   0.214   3.249
32549W        W 4165  18.577   7.892  13.917
32550W        W 4166  42.017  25.645  14.328
32551W        W 4167  13.593   2.739   2.951
32552W        W 4168  25.365  23.223  11.613
32553W        W 4169  44.049  28.593   2.067
32554W        W 4170  42.074  11.223  10.216
32555W        W 4171  27.896   0.622  11.412
32556W        W 4172  17.061  22.075   0.768
32557W        W 4173  33.838   6.028   5.044
32558W        W 4174  36.926  39.541   1.028
32559W        W 4175   6.184   2.234   4.294
32560W        W 4176  11.055  43.862  12.588
32561W        W 4177  30.495  26.677  14.290
32562W        W 4178  20.826   8.178  11.648
32563W        W 4179  25.617  38.403  13.091
32564W        W 4180   2.269  22.782   4.085
32565W        W 4181   1.744   0.559  13.968
32566W        W 4182  15.239  11.876  11.982
32567W        W 4183  41.017  41.989   0.618
32568W        W 4184   2.144  21.827   4.436
32569W        W 4185  29.631   8.006  12.926
32570W        W 4186  41.412  27.908  14.689
32571W        W 4187  22.114   8.048  13.023
32572W        W 4188  35.015  37.771   2.738
32573W        W 4189  42.875  24.456   2.471
32574W        W 4190   6.141  20.106   3.797
32575W        W 4191  14.077   3.255   3.505
32576W        W 4192  19.995  13.603   4.202
32577W        W 4193  13.837  36.942  10.806
32578W        W 4194  41.413  41.408  14.368
32579W        W 4195  27.077   7.418   4.426
32580W        W 4196  35.437  15.847   5.053
32581W        W 4197  20.521  20.058   1.792
32582W        W 4198   9.104  10.870  12.464
32583W        W 4199  32.623   2.772  14.440
32584W        W 4200  11.274  37.634  11.946
32585W        W 4201  11.423  34.897  11.009
32586W        W 4202  22.922   4.989  10.872
32587W        W 4203  37.820  37.547  10.243
32588W        W 4204  21.504  26.682   1.488
32589W        W 4205  26.532  25.492   3.144
32590W        W 4206  34.534   9.867  13.993
32591W        W 4207  21.962  37.783   2.433
32592W        W 4208  32.140  30.137   3.672
32593W        W 4209  18.314  39.973  14.865
32594W        W 4210  17.349  39.093   4.218
32595W        W 4211  39.861   4.604   1.621
32596W        W 4212  26.971  26.734   2.330
32597W        W 4213  36.375  14.326  14.837
32598W        W 4214  22.257  41.877   2.368
32599W        W 4215  32.858  31.146   4.270
32600W        W 4216   8.145  28.113   3.393
32601W        W 4217  44.171  31.997  12.952
32602W        W 4218  18.570   3.007  13.456
32603W        W 4219  20.522  24.165  11.299
32604W        W 4220  33.886  25.007   4.983
32605W        W 4221   0.677   6.428   4.083
32606W        W 4222   5.064  24.937   4.128
32607W        W 4223  11.686  16.198   4.094
32608W        W 4224  30.972  10.808  14.786
32609W        W 4225  24.073   8.705   4.622
32610W        W 4226  39.001   3.350  13.122
32611W        W 4227  40.774   9.232  13.987
32612W        W 4228   1.943   8.636  13.776
32613W        W 4229   2.903   2.187  11.348
32614W        W 4230  17.671   2.233  11.546
32615W        W 4231   4.311  29.979  10.629
32616W        W 4232  37.806   0.521   0.450
32617W        W 4233  17.516   9.628   1.773
32618W        W 4234  44.462  11.842  13.570
32619W        W 4235  24.010  33.130   4.257
32620W        W 4236  15.388   4.191   4.292
32621W        W 4237   5.217   4.690  14.678
32622W        W 4238  22.973  12.587  12.194
32623W        W 4239  27.202  35.862   4.300
32624W        W 4240  36.954  16.860   2.341
32625W        W 4241  25.382   0.952   3.678
32626W        W 4242  14.724  31.401  12.582
32627W        W 4243  41.897   8.787   1.586
32628W        W 4244  33.118  33.213  14.967
32629W        W 4245  36.454  27.215  10.736
32630W        W 4246  23.566  13.202  11.376
32631W        W 4247  27.441  30.568   1.707
32632W        W 4248  44.411   5.467  14.071
32633W        W 4249  38.814  22.317  12.520
32634W        W 4250  19.181  10.548  11.329
32635W        W 4251  14.162  16.128   2.428
32636W        W 4252  14.785  22.774   0.754
32637W        W 4253  31.857  22.225  11.006
32638W        W 4254  27.008  32.129   1.005
32639W        W 4255  33.684   4.074  11.178
32640W        W 4256  27.058  28.557  11.972
32641W        W 4257  26.488  22.837  14.375
32642W        W 4258  11.345  14.442  11.435
32643W        W 4259  44.327   6.741  11.872
32644W        W 4260  40.876  29.384   2.681
32645W        W 4261   2.656   6.136   2.761
32646W        W 4262  29.823  44.748   1.914
32647W        W 4263  44.067  35.052   2.562
32648W        W 4264  33.666  18.653  14.397
32649W        W 4265  44.395  10.757  14.845
32650W        W 4266  18.818  22.697  13.024
32651W        W 4267  40.787  26.903  10.435
32652W        W 4268  39.861  25.205   1.081
32653W        W 4269  22.962  41.427   4.112
32654W        W 4270  33.799  13.944   1.260
32655W        W 4271  43.297  33.049  14.851
32656W        W 4272  30.545  12.813  13.421
32657W        W 4273  37.157  41.320   0.129
32658W        W 4274  30.496  33.477   1.412
32659W        W 4275  38.440  10.035   5.474
32660W        W 4276   7.446  18.155   2.562
32661W        W 4277  30.405   1.447   0.312
32662W        W 4278  10.684  27.962  11.660
32663W        W 4279  32.640  44.870   1.603
32664W        W 4280  33.207  12.123   4.081
32665W        W 4281   1.910   9.781  12.619
32666W        W 4282  15.330   3.519  14.963
32667W        W 4283  18.617   5.365  11.477
32668W        W 4284  41.915   8.390  12.829
32669W        W 4285   4.824  33.195  13.555
32670W        W 4286  40.378  42.443  12.443
32671W        W 4287  33.374  21.297  13.419
32672W        W 4288   1.984   8.228   2.220
32673W        W 4289   7.913   6.507   2.861
32674W        W 4290  37.577  34.608  11.573
32675W        W 4291   2.267  35.872   2.714
32676W        W 4292   4.868  10.690   0.694
32677W        W 4293  38.132  42.870  13.327
32678W        W 4294  11.752   2.629   2.791
32679W        W 4295  36.707  37.105  11.454
32680W        W 4296  12.724  16.299  10.631
32681W        W 4297   8.689  24.775   3.625
32682W        W 4298  29.034  21.392  11.972
32683W        W 4299   9.367  27.453  13.577
32684W        W 4300  34.474  27.989   0.771
32685W        W 4301  19.086  31.391   0.414
32686W        W 4302   6.850   2.708   0.890
32687W        W 4303  29.196   8.441   2.187
32688W        W 4304  19.209   5.931   0.683
32689W        W 4305  12.501   8.342   2.720
32690W        W 4306   9.652  34.469   0.287
32691W        W 4307  10.976  28.710  12.115
32692W        W 4308  11.608  16.037   3.621
32693W        W 4309   0.821   7.192   1.340
32694W        W 4310  26.923  10.925  13.098
32695W        W 4311  44.966  24.273  13.246
32696W        W 4312  42.431  40.971   3.243
32697W        W 4313   0.219  25.230   3.114
32698W        W 4314  36.928   1.926  11.667
32699W        W 4315   0.902   3.442   2.545
32700W        W 4316  29.749  25.407  14.903
32701W        W 4317   9.247  16.894   4.135
32702W        W 4318   1.209  29.103  14.389
32703W        W 4319  29.391  20.456   2.352
32704W        W 4320  19.080  37.546  13.025
32705W        W 4321  29.902  24.037   2.694
32706W        W 4322  27.108  44.411   0.659
32707W        W 4323   7.817  34.850   3.205
32708W        W 4324  23.533  19.175   4.248
32709W        W 4325   3.233  18.213   3.602
32710W        W 4326  24.703  16.182   2.024
32711W        W 4327   1.976  42.001   1.285
32712W        W 4328  33.182  41.558  13.969
32713W        W 4329  15.941  10.135   0.302
32714W        W 4330  28.004  21.688   1.765
32715W        W 4331  13.430  28.729   3.769
32716W        W 4332  31.650   0.352  14.384
32717W        W 4333  21.618  23.681   3.870
32718W        W 4334  15.365  39.972  13.462
32719W        W 4335  17.656   7.103   3.689
32720W        W 4336  22.139  23.930   2.678
32721W        W 4337   6.835  35.307   0.267
32722W        W 4338   2.671   2.152  14.326
32723W        W 4339  13.544  22.131   4.171
32724W        W 4340  15.265  13.152   2.926
32725W        W 4341  22.578  25.285  12.071
32726W        W 4342  36.557  32.664  13.283
32727W        W 4343  16.270  12.700   4.620
32728W        W 4344  30.210  34.046   3.713
32729W        W 4345  21.142  24.289  13.402
32730W        W 4346   7.223  13.184   1.820
32731W        W 4347  31.373  26.216  11.153
32732W        W 4348   1.462  21.714  12.529
32733W        W 4349  35.865  10.587   4.279
32734W        W 4350  14.055   8.462  10.721
32735W        W 4351  25.563  16.387  13.518
32736W        W 4352  17.811  30.819   4.647
32737W        W 4353  12.596  36.053  13.306
32738W        W 4354  28.987  21.998   4.511
32739W        W 4355   2.412  38.812  11.080
32740W        W 4356   0.809  22.519   0.284
32741W        W 4357   5.274   1.495   3.552
32742W        W 4358  20.185   4.588   3.172
32743W        W 4359  14.473  10.501   3.314
32744W        W 4360  31.705  24.675   0.190
32745W        W 4361  13.222  18.185  13.087
32746W        W 4362  10.540   4.438  10.331
32747W        W 4363  17.067   1.354   2.799
32748W        W 4364   7.521  19.334   4.123
32749W        W 4365  30.355   0.332   0.915
32750W        W 4366   1.807  21.320  12.433
32751W        W 4367  39.000   9.620   1.394
32752W        W 4368  44.685  16.330  11.043
32753W        W 4369   0.272   9.873  14.013
32754W        W 4370  30.600  19.511  11.507
32755W        W 4371  25.037  12.284   3.149
32756W        W 4372   9.048  32.480  11.685
32757W        W 4373  33.116   8.010  11.476
32758W        W 4374  36.101  19.325   0.877
32759W        W 4375   3.803  32.674   0.540
32760W        W 4376  31.996  11.888   0.703
32761W        W 4377  36.880  42.486   4.488
32762W        W 4378  35.201  34.508  13.084
32763W        W 4379  43.443  44.075  12.587
32764W        W 4380  25.880  29.662  13.789
32765W        W 4381  10.805  38.994   2.653
32766W        W 4382  43.515  23.785  10.765
32767W        W 4383  44.035   4.680   1.322
32768W        W 4384   5.195   1.331   0.659
32769W        W 4385  32.723  18.591   1.614
32770W        W 4386  18.988  24.425  12.171
32771W        W 4387   5.860   6.347   1.261
32772W        W 4388  22.816  32.212   0.981
32773W        W 4389   5.346   2.040  11.221
32774W        W 4390  32.960  11.853  13.065
32775W        W 4391  42.093  28.603   4.273
32776W        W 4392  41.719  33.536   2.681
32777W        W 4393  26.495  10.598   2.832
32778W        W 4394  23.541  25.808  14.296
32779W        W 4395  16.804  37.435   1.415
32780W        W 4396  18.276   5.998  11.017
32781W        W 4397   9.742  21.795   0.258
32782W        W 4398  38.628  19.759  14.060
32783W        W 4399  19.758  21.777   4.674
32784W        W 4400  16.289  18.424   3.338
32785W        W 4401  12.143   5.956   2.839
32786W        W 4402  23.644  21.649  11.111
32787W        W 4403  25.149  36.371   4.146
32788W        W 4404  13.588   9.848   2.295
32789W        W 4405  27.559  39.769  13.439
32790W        W 4406  29.608  15.768  13.886
32791W        W 4407  14.198   2.039   3.189
32792W        W 4408  16.219  31.475  13.941
32793W        W 4409  12.664  30.366  13.912
32794W        W 4410  29.758  31.605   0.582
32795W        W 4411  40.581  39.011  10.723
32796W        W 4412  35.096  18.262   4.064
32797W        W 4413   4.961  16.691   1.478
32798W        W 4414   1.833  27.979   1.470
32799W        W 4415  24.732  32.408  14.353
32800W        W 4416  27.382   9.283   3.344
32801W        W 4417  39.133  12.351  13.816
32802W        W 4418  16.356  31.706  14.402
32803W        W 4419  16.733  35.829  12.387
32804W        W 4420  33.511   4.461   0.545
32805W        W 4421  15.565  39.847  10.488
32806W        W 4422   5.641  42.965  12.507
32807W        W 4423  13.560  31.571  14.710
32808W        W 4424  15.383  32.855   3.710
32809W        W 4425  15.257  21.610  14.907
32810W        W 4426  13.250  29.496  11.943
32811W        W 4427  16.658  10.186  10.660
32812W        W 4428  31.409  42.796  11.531
32813W        W 4429  36.521  18.564  10.715
32814W        W 4430  10.276  21.107   1.380
32815W        W 4431  23.009  22.159   0.563
32816W        W 4432  11.626   3.025   0.385
32817W        W 4433  25.119  42.687  14.919
32818W        W 4434  13.691  11.048   1.488
32819W        W 4435  36.803   8.381   2.788
32820W        W 4436  25.138  32.480  11.248
32821W        W 4437   1.209  11.435  10.810
32822W        W 4438   7.339   7.256   1.384
32823W        W 4439   3.973   3.017   1.370
32824W        W 4440  29.700  33.412  12.412
32825W        W 4441  11.224  10.641   1.339
32826W        W 4442  38.049  14.394   5.012
32827W        W 4443  18.928  36.492   1.102
32828W        W 4444  19.580   5.002   1.817
32829W        W 4445  21.812  33.585  13.475
32830W        W 4446  18.735   7.127   2.215
32831W        W 4447  33.134  30.740   3.731
32832W        W 4448   2.965  11.272   4.743
32833W        W 4449  22.589   9.623  10.613
32834W        W 4450  38.842  41.194   9.985
32835W        W 4451  37.735  12.985   5.043
32836W        W 4452  25.070   8.658  13.138
32837W        W 4453   6.434  19.995  10.360
32838W        W 4454  40.967  14.772  10.841
32839W        W 4455  10.383  27.921  14.752
32840W        W 4456  38.244  13.176   3.087
32841W        W 4457  14.386  30.620  11.448
32842W        W 4458  11.601  12.439   0.430
32843W        W 4459   0.279  24.570  14.357
32844W        W 4460  35.654  44.306   4.532
32845W        W 4461  16.828  23.173  13.799
32846W        W 4462  26.280  28.026  11.648
32847W        W 4463  20.114  23.943   1.322
32848W        W 4464  24.703   3.668  12.938
32849W        W 4465   8.314   7.652   1.261
32850W        W 4466  25.258   4.814  13.360
32851W        W 4467  25.606   7.306  14.262
32852W        W 4468  30.192  38.968  11.592
32853W        W 4469  19.831   1.479   3.789
32854W        W 4470  43.706  16.117   3.583
32855W        W 4471  28.403   8.745  13.262
32856W        W 4472  35.423  30.907   0.823
32857W        W 4473  26.165  38.117   4.362
32858W        W 4474  38.456  18.572   2.248
32859W        W 4475  35.986  21.841   1.862
32860W        W 4476  28.652  31.640  11.844
32861W        W 4477  27.588  44.463   2.258
32862W        W 4478  41.248  36.431  10.135
32863W        W 4479  13.938   9.615   1.209
32864W        W 4480  27.131  33.212   2.834
32865W        W 4481  34.554  15.391   1.703
32866W        W 4482   3.667   4.187  13.260
32867W        W 4483  22.284  15.611  11.392
32868W        W 4484  38.818  20.276  10.585
32869W        W 4485  23.460  43.005   4.118
32870W        W 4486   1.755  10.100   2.684
32871W        W 4487  20.831  35.587   0.914
32872W        W 4488  27.091  19.981   3.394
32873W        W 4489  42.441  44.199  12.123
32874W        W 4490   0.406  18.127   4.903
32875W        W 4491  13.110   8.398   4.594
32876W        W 4492  30.603  24.128   3.389
32877W        W 4493  26.635  14.883  10.648
32878W        W 4494  39.279   3.230  11.411
32879W        W 4495   1.327  25.212  12.919
32880W        W 4496  40.013  25.224  12.949
32881W        W 4497   3.685  44.013  12.596
32882W        W 4498  26.640  14.803  14.742
32883W        W 4499   7.711   4.374  12.639
32884W        W 4500  40.837   1.831   2.935
32885W        W 4501  26.678  19.125   3.790
32886W        W 4502  12.093  19.541  13.398
32887W        W 4503  12.351  21.172   1.185
32888W        W 4504  14.529   6.646  11.768
32889W        W 4505  36.048  37.967  12.887
32890W        W 4506  19.698  24.611  10.992
32891W        W 4507  42.906  18.617  14.264
32892W        W 4508   6.061  24.083   1.914
32893W        W 4509  44.976  10.719  11.732
32894W        W 4510  39.739   1.772  10.561
32895W        W 4511  37.652  34.908  13.280
32896W        W 4512  19.575  44.095  13.241
32897W        W 4513  10.513   0.472  14.502
32898W        W 4514  11.337  10.651  12.163
32899W        W 4515   0.064   0.309  12.400
32900W        W 4516   6.764  32.926   1.651
32901W        W 4517  41.391  26.467   3.193
32902W        W 4518   1.148  31.938   1.300
32903W        W 4519  11.749   6.174   0.970
32904W        W 4520  42.043  11.344  14.853
32905W        W 4521  21.727  33.094  11.078
32906W        W 4522  24.443  44.979  13.152
32907W        W 4523  17.224  16.165  14.773
32908W        W 4524  15.256  35.067  11.673
32909W        W 4525   4.701  42.308   1.374
32910W        W 4526  16.069   3.697   0.456
32911W        W 4527  30.681  38.375  11.377
32912W        W 4528  22.459  41.272   4.206
32913W        W 4529  17.365  41.428  13.908
32914W        W 4530  15.505   4.457  10.196
32915W        W 4531  23.753  20.311  11.607
32916W        W 4532   0.358  17.229   0.696
32917W        W 4533  15.659   8.839  10.042
32918W        W 4534  15.656  44.703  13.024
32919W        W 4535  34.424  16.078  12.639
32920W        W 4536  41.351  44.891   4.642
32921W        W 4537  11.749  44.884  13.835
32922W        W 4538  17.322  11.088   0.942
32923W        W 4539  21.611  38.419  14.323
32924W        W 4540  34.277  36.012  12.548
32925W        W 4541  42.498   2.470   2.761
32926W        W 4542   5.074  12.925   3.721
32927W        W 4543   9.625  11.171   1.289
32928W        W 4544   9.652   9.955  13.542
32929W        W 4545  35.209   1.514  14.081
32930W        W 4546  39.004   0.264   1.650
32931W        W 4547  14.819   4.096   0.885
32932W        W 4548  27.551  23.669  12.270
32933W        W 4549  39.591   1.913   0.334
32934W        W 4550  19.044  44.985  14.067
32935W        W 4551  36.829  27.587  13.412
32936W        W 4552  23.799   0.766  11.890
32937W        W 4553  36.519  28.151  13.041
32938W        W 4554  42.277  14.380  11.313
32939W        W 4555  24.568  13.280  12.354
32940W        W 4556  44.298  32.823   2.850
32941W        W 4557  22.978  34.274   3.231
32942W        W 4558  39.500  25.925   1.343
32943W        W 4559   2.421  35.689  13.760
32944W        W 4560  44.950   9.061   4.646
32945W        W 4561  18.924  10.753  10.519
32946W        W 4562  19.685   6.281   1.143
32947W        W 4563   6.230   8.952   0.864
32948W        W 4564  37.177  26.631   1.949
32949W        W 4565  33.836  35.148  14.835
32950W        W 4566  22.479  22.583  11.086
32951W        W 4567   5.839  34.916  13.348
32952W        W 4568  37.829   5.579  12.045
32953W        W 4569  14.601  17.206   4.152
32954W        W 4570  36.538  30.681   1.782
32955W        W 4571   1.755  16.168   4.653
32956W        W 4572  33.895  42.182   3.463
32957W        W 4573  40.444  35.761   1.455
32958W        W 4574  16.993  15.772   0.007
32959W        W 4575  40.367  26.615  10.470
32960W        W 4576  21.472  13.126   3.726
32961W        W 4577  27.207   5.372   2.251
32962W        W 4578  36.987   8.630   2.256
32963W        W 4579  36.975  32.884  10.737
32964W        W 4580  30.978   5.030  12.011
32965W        W 4581   6.953  17.783  11.135
32966W        W 4582  27.593  21.279   4.151
32967W        W 4583  33.496  29.366  14.475
32968W        W 4584   4.979  22.289   9.876
32969W        W 4585  11.571  15.745  14.431
32970W        W 4586  37.141  28.919  12.039
32971W        W 4587  13.122   5.380  11.554
32972W        W 4588  10.597  40.518  14.980
32973W        W 4589   4.458   4.929  13.542
32974W        W 4590   4.940  21.644  10.718
32975W        W 4591  14.420   9.468   4.898
32976W        W 4592  15.090  44.781   3.609
32977W        W 4593   7.365  39.229   2.717
32978W        W 4594  41.817  20.306  11.177
32979W        W 4595   6.620  36.574   2.756
32980W        W 4596  30.208  29.129   2.818
32981W        W 4597   3.673  39.761   3.165
32982W        W 4598  29.525  16.348   0.254
32983W        W 4599  37.361  31.968   0.313
32984W        W 4600  23.755  26.417   2.848
32985W        W 4601  21.461  33.844   4.350
32986W        W 4602   6.130  23.699  11.188
32987W        W 4603  38.326  22.372   3.672
32988W        W 4604  39.953   2.945  14.035
32989W        W 4605  37.473  43.401   3.847
32990W        W 4606  18.230  24.527   0.698
32991W        W 4607  28.961  14.340  11.994
32992W        W 4608  42.522  36.475   4.598
32993W        W 4609  37.117  29.512  13.431
32994W        W 4610  44.316  43.944   3.109
32995W        W 4611  21.249   6.589   3.601
32996W        W 4612  31.207  26.414  13.145
32997W        W 4613   7.404  35.101  12.181
32998W        W 4614   0.213  32.016   1.264
32999W        W 4615  38.351  42.742  12.077
33000W        W 4616  24.616  26.104  12.080
33001W        W 4617   1.189  26.066   0.252
33002W        W 4618  15.597  43.274  13.190
33003W        W 4619  20.338  25.218  11.055
33004W        W 4620  29.967  43.784  11.848
33005W        W 4621  34.607  26.562  12.110
33006W        W 4622  31.637  36.003   2.242
33007W        W 4623  35.401  35.674   0.104
33008W        W 4624  19.718   0.262   4.141
33009W        W 4625   2.955  38.451   2.749
33010W        W 4626  21.985   2.676  13.361
33011W        W 4627  40.251  40.619  14.369
33012W        W 4628   9.313  44.472   4.887
33013W        W 4629  12.796  25.919   3.325
33014W        W 4630  44.140  12.378   2.749
33015W        W 4631  34.752   4.819   1.800
33016W        W 4632  41.255   5.258  14.789
33017W        W 4633  29.188   8.074   1.216
33018W        W 4634  33.606  23.872   3.164
33019W        W 4635  19.593  28.102   2.745
33020W        W 4636  12.153  26.389  14.922
33021W        W 4637  30.975  24.968   1.806
33022W        W 4638   1.838  38.103  11.986
33023W        W 4639  30.652  41.826  11.438
33024W        W 4640   2.936  13.985   2.002
33025W        W 4641  10.743  43.765  14.871
33026W        W 4642   9.946  19.478  11.899
33027W        W 4643   2.294  11.098  11.577
33028W        W 4644  11.280  19.309  11.171
33029W        W 4645  25.232  44.519  12.452
33030W        W 4646   3.987  27.747   1.934
33031W        W 4647  23.590  18.271  14.948
33032W        W 4648  44.878  44.746  12.352
33033W        W 4649  13.541  29.821   3.254
33034W        W 4650  42.282  22.266  14.426
33035W        W 4651  32.562  33.049   2.967
33036W        W 4652  24.279  42.580  10.363
33037W        W 4653  15.406   6.880  10.131
33038W        W 4654  27.991  24.368   0.886
33039W        W 4655  38.701  16.689   0.501
33040W        W 4656  20.083  43.005   1.019
33041W        W 4657  22.228  36.247  12.388
33042W        W 4658  28.693  13.174   3.174
33043W        W 4659  27.679  43.960   2.282
33044W        W 4660  31.886  33.384  12.893
33045W        W 4661   6.870  40.957  13.620
33046W        W 4662  41.727  44.520  13.440
33047W        W 4663   2.518  12.158   2.676
33048W        W 4664   6.994   8.713   1.235
33049W        W 4665  20.225   5.803   0.291
33050W        W 4666  13.995   5.933  11.690
33051W        W 4667  24.473   3.752  12.467
33052W        W 4668  34.093  43.429   1.288
33053W        W 4669  44.897  42.006  11.914
33054W        W 4670  41.325  17.190  13.647
33055W        W 4671   0.965  11.107   4.858
33056W        W 4672   0.505  33.145   0.320
33057W        W 4673  26.003   8.107   3.209
33058W        W 4674  36.795  10.861  11.003
33059W        W 4675  42.762  19.497   4.877
33060W        W 4676  27.124  34.368  12.023
33061W        W 4677  15.146  40.882   3.290
33062W        W 4678  35.319   5.391   3.684
33063W        W 4679   0.844  24.844   0.464
33064W        W 4680  11.517  29.557   4.259
33065W        W 4681  34.699   5.704  10.657
33066W        W 4682   8.887  37.579   2.427
33067W        W 4683  10.297  22.089  11.874
33068W        W 4684   2.998  30.442   4.971
33069W        W 4685   7.737  30.681   5.057
33070W        W 4686  32.711  41.389   2.206
33071W        W 4687  14.645   0.528  12.760
33072W        W 4688  34.344   0.251  14.536
33073W        W 4689  42.322   1.451   2.404
33074W        W 4690   6.311   5.696   0.279
33075W        W 4691   7.835  10.914  14.747
33076W        W 4692  18.879   7.595   4.177
33077W        W 4693  31.764  33.395  11.060
33078W        W 4694  38.910  30.374  13.797
33079W        W 4695  24.441   8.145  14.357
33080W        W 4696  39.432   6.941   4.013
33081W        W 4697  10.370  14.246  12.488
33082W        W 4698  40.050  44.873  11.064
33083W        W 4699   1.512  11.932   2.784
33084W        W 4700  27.247  39.599  12.226
33085W        W 4701  32.367  19.687   0.370
33086W        W 4702  29.568  20.571  12.835
33087W        W 4703  17.107   7.721   1.186
33088W        W 4704  15.350  18.069  12.303
33089W        W 4705  28.994  27.877   1.612
33090W        W 4706  39.417  39.333  14.757
33091W        W 4707  18.261  10.678   4.039
33092W        W 4708  30.533  44.038  13.494
33093W        W 4709  33.157  42.593  11.022
33094W        W 4710   2.510  15.812   3.828
33095W        W 4711  28.060  42.730  10.674
33096W        W 4712  19.720  13.693   4.640
33097W        W 4713   3.871  22.953  11.102
33098W        W 4714   0.842  27.077  13.364
33099W        W 4715  32.502  36.227  13.931
33100W        W 4716  36.534  11.825  10.102
33101W        W 4717  37.391  33.106  11.969
33102W        W 4718  12.246  24.072   0.254
33103W        W 4719  11.595  24.658   0.441
33104W        W 4720  28.464  28.037  10.734
33105W        W 4721  22.440   3.750  13.918
33106W        W 4722  29.407  22.629   0.849
33107W        W 4723  23.780  14.213   0.011
33108W        W 4724   6.901  14.367   0.818
33109W        W 4725  19.257   2.657  13.116
33110W        W 4726  27.669   4.245  14.460
33111W        W 4727   0.713  14.323   0.987
33112W        W 4728   7.404  19.636   2.785
33113W        W 4729  20.063  40.579  13.382
33114W        W 4730  36.424   4.835   1.436
33115W        W 4731  17.889  14.195   4.049
33116W        W 4732   2.754  13.102   2.354
33117W        W 4733  43.828  30.938  10.471
33118W        W 4734   5.919  31.035  14.498
33119W        W 4735  27.423  26.658   3.873
33120W        W 4736  38.846  16.729   1.856
33121W        W 4737  25.423   5.431  13.936
33122W        W 4738   4.234   3.917   4.854
33123W        W 4739   5.297  30.246   4.173
33124W        W 4740   4.399  33.033  13.904
33125W        W 4741   3.868  13.791   0.378
33126W        W 4742  37.424  34.754   4.127
33127W        W 4743  23.524  41.230   3.305
33128W        W 4744   1.304  36.591   2.375
33129W        W 4745  39.394  19.660   1.257
33130W        W 4746   7.416  24.639  10.688
33131W        W 4747  27.148  36.495  12.938
33132W        W 4748  14.086  31.968   3.441
33133W        W 4749  42.370  20.642   4.573
33134W        W 4750  12.215  30.621   4.734
33135W        W 4751  15.814  18.558  10.208
33136W        W 4752   8.103  15.900   4.950
33137W        W 4753  23.407  14.757  14.499
33138W        W 4754  16.230  21.530   2.249
33139W        W 4755  18.774   0.746  11.693
33140W        W 4756  29.684   1.433   1.795
33141W        W 4757  25.736  28.223   2.278
33142W        W 4758  24.701  21.574   1.223
33143W        W 4759   1.611   6.683   4.063
33144W        W 4760  39.080  19.222   4.980
33145W        W 4761   8.118  11.513   3.222
33146W        W 4762  32.535  25.286   4.467
33147W        W 4763   9.099   2.913   0.544
33148W        W 4764   4.544  26.127  13.483
33149W        W 4765  39.549  26.920  13.203
33150W        W 4766   4.201  32.814   3.413
33151W        W 4767  36.363  38.065  12.464
33152W        W 4768  12.665  16.749  13.479
33153W        W 4769  35.444   5.350   1.292
33154W        W 4770  20.974  12.606  11.077
33155W        W 4771   7.589  37.529   4.058
33156W        W 4772   7.658  16.491  14.921
33157W        W 4773  35.785  27.454   0.718
33158W        W 4774  42.807  31.516  13.088
33159W        W 4775  13.928  21.844  14.815
33160W        W 4776  34.056  40.742   3.683
33161W        W 4777  23.670  22.595   3.632
33162W        W 4778  17.748  15.724  11.782
33163W        W 4779  42.944  32.625   4.973
33164W        W 4780  20.827  18.263   1.673
33165W        W 4781   5.892  20.340  13.948
33166W        W 4782  41.925  14.742   2.471
33167W        W 4783  19.108  38.289   3.219
33168W        W 4784   2.359   9.334   4.694
33169W        W 4785  10.557  32.920  11.830
33170W        W 4786  32.842   1.026   0.307
33171W        W 4787  21.963  27.086  10.613
33172W        W 4788  19.798  12.388   0.444
33173W        W 4789  32.861  28.858   0.784
33174W        W 4790   9.438  28.913   2.859
33175W        W 4791  22.805  23.196  12.945
33176W        W 4792   7.307   0.408   4.669
33177W        W 4793  43.863  32.306   1.570
33178W        W 4794  11.157  11.166  13.014
33179W        W 4795  34.961  39.492  11.206
33180W        W 4796  15.699  18.247  13.555
33181W        W 4797   0.843  14.132  14.515
33182W        W 4798  27.239   6.944  12.914
33183W        W 4799  16.757  29.450  11.446
33184W        W 4800  18.968  27.493  13.506
33185W        W 4801  42.879  33.076  13.248
33186W        W 4802  10.140  44.171  14.338
33187W        W 4803  11.173  30.863  11.087
33188W        W 4804   4.712  23.201  12.415
33189W        W 4805  24.108   7.185  14.355
33190W        W 4806   8.158  33.451  13.261
33191W        W 4807  37.418  11.966  13.509
33192W        W 4808  37.974  35.630   2.644
33193W        W 4809  11.436  17.782  10.763
33194W        W 4810  26.334  28.626   1.006
33195W        W 4811  15.590  36.803   1.110
33196W        W 4812   2.749  36.330  11.684
33197W        W 4813  38.836  23.561  11.145
33198W        W 4814  34.986  36.066   4.668
33199W        W 4815  42.859  33.340   0.295
33200W        W 4816  28.999  11.321  14.772
33201W        W 4817   9.778  10.357   0.085
33202W        W 4818  32.643  23.726   3.706
33203W        W 4819  26.759  15.587   1.439
33204W        W 4820   8.091   2.392  14.169
33205W        W 4821  14.060  16.270   2.922
33206W        W 4822  32.544   9.892  10.455
33207W        W 4823   2.300   7.257   1.990
33208W        W 4824  11.553  16.567   3.752
33209W        W 4825  14.227  18.009  14.734
33210W        W 4826  20.131  29.986   1.368
33211W        W 4827  17.011  35.359  14.742
33212W        W 4828  37.439  28.902  13.501
33213W        W 4829  17.646  33.920   4.411
33214W        W 4830  18.481  26.526  13.381
33215W        W 4831   3.137  35.186   1.239
33216W        W 4832   6.331  11.748  11.096
33217W        W 4833  42.980  33.440   1.315
33218W        W 4834  26.963  41.018  13.419
33219W        W 4835  15.317   7.123  11.107
33220W        W 4836  19.801  32.402   4.586
33221W        W 4837  36.972   0.437   0.260
33222W        W 4838   0.829  40.858  14.748
33223W        W 4839   7.529  18.733  14.530
33224W        W 4840  38.632  32.968  11.460
33225W        W 4841  12.664  36.602  11.016
33226W        W 4842  32.136  11.455  12.561
33227W        W 4843  31.981   1.916  12.422
33228W        W 4844  42.899   0.391   1.848
33229W        W 4845  30.672  11.362  10.689
33230W        W 4846  18.560  29.039  13.915
33231W        W 4847  38.308  34.491   0.776
33232W        W 4848  39.211  17.593  12.911
33233W        W 4849  38.906  33.851  11.838
33234W        W 4850   4.793  42.444  10.687
33235W        W 4851  33.412  14.032   4.889
33236W        W 4852  39.490  18.521   3.688
33237W        W 4853  33.015  32.387   0.664
33238W        W 4854  16.994  26.114  14.968
33239W        W 4855  29.662  33.839   1.421
33240W        W 4856  29.839   9.359  14.765
33241W        W 4857  27.653  31.623  11.091
33242W        W 4858  29.986  14.716  10.645
33243W        W 4859  24.713  13.261   4.681
33244W        W 4860  20.297  44.461  13.409
33245W        W 4861  24.059  17.707   3.274
33246W        W 4862  13.425  43.617  14.908
33247W        W 4863  11.742  26.482   2.332
33248W        W 4864  33.816   7.709   2.919
33249W        W 4865  19.071  15.655  13.849
33250W        W 4866  32.603  34.339   3.627
33251W        W 4867  15.773  10.828  13.605
33252W        W 4868   0.735  26.034  11.911
33253W        W 4869  39.554  41.105  13.900
33254W        W 4870  24.591  18.453  13.503
33255W        W 4871  40.517  23.304   3.659
33256W        W 4872  13.150  44.998  13.925
33257W        W 4873  38.115  20.150  12.536
33258W        W 4874  44.219  34.913   5.072
33259W        W 4875  24.176  10.428  11.115
33260W        W 4876  16.088  35.925   4.632
33261W        W 4877  11.584  36.521   4.074
33262W        W 4878  27.241  16.517  12.939
33263W        W 4879  12.077  30.145   3.805
33264W        W 4880  43.864  38.064   3.983
33265W        W 4881   5.784  40.406   2.939
33266W        W 4882  36.164  33.666  14.262
33267W        W 4883   5.176   3.398   2.317
33268W        W 4884   7.874  33.090  12.088
33269W        W 4885   5.183  32.690   2.667
33270W        W 4886   6.810  13.877  13.710
33271W        W 4887  37.894  33.313   0.392
33272W        W 4888  35.128  36.953   4.612
33273W        W 4889  19.331  13.163   2.697
33274W        W 4890  22.263  30.165   1.386
33275W        W 4891  12.505   1.318   3.307
33276W        W 4892  30.445  13.969   4.846
33277W        W 4893   2.817  28.068  13.828
33278W        W 4894  27.952  16.771   2.915
33279W        W 4895  14.792  39.377   1.613
33280W        W 4896  30.467  22.725   1.780
33281W        W 4897   9.229  42.135   3.668
33282W        W 4898  26.442  36.798   2.509
33283W        W 4899  32.510  35.579   1.972
33284W        W 4900  20.622  28.504  14.838
33285W        W 4901  44.187  24.642   2.361
33286W        W 4902  11.706   6.675   4.458
33287W        W 4903  43.984  44.042   4.164
33288W        W 4904   5.683  16.712  12.026
33289W        W 4905  11.111  34.099   0.035
33290W        W 4906  12.568  25.610   2.345
33291W        W 4907  33.894  34.646  14.928
33292W        W 4908  12.918  33.909  14.063
33293W        W 4909  19.868  27.443  12.471
33294W        W 4910   9.828  35.114  13.932
33295W        W 4911   6.948   7.244   3.361
33296W        W 4912   8.397  35.614  12.970
33297W        W 4913  37.776  35.045   1.114
33298W        W 4914  23.198  35.326   1.905
33299W        W 4915   3.252  39.820  11.533
33300W        W 4916  34.445  35.185  13.133
33301W        W 4917  29.542  17.854   3.692
33302W        W 4918   6.814  23.608   1.222
33303W        W 4919   7.361  18.787   3.237
33304W        W 4920  20.196   1.127   3.940
33305W        W 4921  34.778  37.995  14.386
33306W        W 4922  20.688  17.387   0.426
33307W        W 4923  44.026  17.287  13.736
33308W        W 4924  41.661   0.717  14.201
33309W        W 4925  23.611  17.221  13.992
33310W        W 4926   6.775  38.369   2.765
33311W        W 4927  33.398   8.604   4.112
33312W        W 4928  32.990  30.008  10.712
33313W        W 4929   5.367  20.547   0.672
33314W        W 4930  32.372  14.750  11.879
33315W        W 4931   6.604  34.918   1.863
33316W        W 4932   1.989  38.636   3.196
33317W        W 4933   0.969   2.665  11.360
33318W        W 4934  19.804   1.545  14.763
33319W        W 4935   3.225   5.398  11.959
33320W        W 4936  41.982  41.629  11.488
33321W        W 4937  25.902  23.632   4.675
33322W        W 4938  33.518  31.186   2.606
33323W        W 4939  40.954  18.631  14.033
33324W        W 4940  24.101  12.801  12.023
33325W        W 4941  20.970  23.175   2.401
33326W        W 4942   1.523  41.553  11.508
33327W        W 4943   2.469  43.144   1.812
33328W        W 4944  19.556  43.452  14.538
33329W        W 4945  23.717  36.792   1.319
33330W        W 4946  20.803   0.345   0.366
33331W        W 4947  20.547   1.269  13.911
33332W        W 4948  25.288  10.709   0.801
33333W        W 4949   8.487   4.554   3.734
33334W        W 4950   3.414  32.840   0.001
33335W        W 4951  14.719  15.514   1.143
33336W        W 4952  10.597  44.438   1.219
33337W        W 4953  15.289  31.032  14.772
33338W        W 4954   8.499  17.074   3.251
33339W        W 4955  35.531  28.630  13.453
33340W        W 4956   3.721  16.838   3.107
33341W        W 4957   2.734  40.982   0.014
33342W        W 4958  34.311  17.744   3.107
33343W        W 4959  20.993   7.270  10.799
33344W        W 4960  17.338   4.434  12.463
33345W        W 4961  16.869  11.068  12.922
33346W        W 4962   5.176   3.278  13.776
33347W        W 4963   1.866   8.596  13.124
33348W        W 4964  43.917  10.590  10.681
33349W        W 4965  39.807  11.430  13.759
33350W        W 4966   0.906  10.201  10.195
33351W        W 4967  26.511  21.126  12.848
33352W        W 4968   5.830  25.908  11.533
33353W        W 4969  29.004  37.144   0.314
33354W        W 4970  37.065   0.997   0.621
33355W        W 4971  11.956  13.907   0.788
33356W        W 4972  35.012   3.521  11.464
33357W        W 4973  20.736   2.819  11.482
33358W        W 4974   6.831  40.801   4.448
33359W        W 4975   4.893  33.370   3.725
33360W        W 4976   2.842  16.796   3.089
33361W        W 4977   5.810   4.937   4.707
33362W        W 4978  11.231  27.694  10.543
33363W        W 4979  27.422   6.433   2.120
33364W        W 4980  37.336  13.068   0.259
33365W        W 4981  21.627  29.481   4.510
33366W        W 4982   0.460  40.413   4.646
33367W        W 4983   0.919  33.558  14.767
33368W        W 4984  12.078  12.305  12.965
33369W        W 4985   9.688  35.374  13.450
33370W        W 4986  17.694  39.721   2.203
33371W        W 4987  26.564   8.719   9.841
33372W        W 4988  27.994  19.972   0.270
33373W        W 4989  21.085   9.470  11.527
33374W        W 4990   6.231   4.743   4.488
33375W        W 4991  26.707   5.799   0.872
33376W        W 4992  41.264   0.702  13.874
33377W        W 4993  13.755  40.041  11.182
33378W        W 4994  36.616  11.223   1.246
33379W        W 4995  21.510  15.658  12.016
33380W        W 4996  11.105  41.512  11.390
33381W        W 4997  25.530  15.185  12.867
33382W        W 4998   8.873   9.646   1.813
33383W        W 4999  33.399   1.913   2.370
33384W        W 5000  21.150  25.551   3.652
33385W        W 5001  31.103  20.289   4.832
33386W        W 5002  35.478  22.772  14.602
33387W        W 5003  30.610  39.751   4.149
33388W        W 5004   7.763   7.663  12.890
33389W        W 5005  34.069  20.610   4.017
33390W        W 5006  41.844  27.934  10.671
33391W        W 5007  35.864   5.970  11.743
33392W        W 5008   6.941   2.195  12.922
33393W        W 5009  44.348  34.350  10.639
33394W        W 5010  30.636  43.500  13.543
33395W        W 5011  17.774   1.443   4.624
33396W        W 5012  31.142  12.552   4.048
33397W        W 5013  29.196  25.005  11.932
33398W        W 5014  43.279   0.399   4.716
33399W        W 5015  39.912  10.184  12.544
33400W        W 5016  43.340  15.811  13.000
33401W        W 5017  13.264  31.665  12.472
33402W        W 5018  22.055  20.274   1.879
33403W        W 5019   6.421  43.171   4.566
33404W        W 5020   1.244  27.209   4.407
33405W        W 5021   6.498  12.788  12.998
33406W        W 5022  32.659  42.894  14.068
33407W        W 5023  21.656  44.666  13.803
33408W        W 5024   5.653  39.052   1.040
33409W        W 5025  22.148  12.527  13.398
33410W        W 5026  30.415   3.327  10.698
33411W        W 5027  20.248  26.905   2.246
33412W        W 5028  34.401   1.479  10.727
33413W        W 5029  18.629  11.202  13.176
33414W        W 5030  15.637  29.661  14.424
33415W        W 5031   7.890  20.979   1.405
33416W        W 5032   7.984  11.696  12.107
33417W        W 5033  25.052  14.686  12.536
33418W        W 5034  18.757  20.520   3.432
33419W        W 5035  12.366  38.535  11.152
33420W        W 5036   9.750   0.013  11.181
33421W        W 5037  12.375  43.616   4.142
33422W        W 5038  16.733  28.866  14.324
33423W        W 5039  12.266   9.565  11.629
33424W        W 5040  34.717  24.626  11.502
33425W        W 5041  32.520   6.292  10.813
33426W        W 5042   4.840  11.312  10.736
33427W        W 5043  43.878  24.197  11.165
33428W        W 5044   2.994   4.465   0.736
33429W        W 5045  18.948  40.236  11.084
33430W        W 5046  15.432   0.419  11.673
33431W        W 5047  12.739  39.327  13.117
33432W        W 5048  34.038  44.521   0.284
33433W        W 5049   8.940  18.250   0.908
33434W        W 5050  11.841  19.192   1.752
33435W        W 5051  32.885  34.821  12.326
33436W        W 5052   5.392  25.787  12.901
33437W        W 5053  18.029  37.505   0.387
33438W        W 5054  42.899  26.905  14.351
33439W        W 5055   6.571  29.895   1.677
33440W        W 5056  25.598   4.414   3.225
33441W        W 5057  16.677  41.697  10.468
33442W        W 5058   8.766  14.344  10.594
33443W        W 5059  26.566  24.550   4.817
33444W        W 5060  36.163  24.351   3.318
33445W        W 5061   5.809  30.938   2.550
33446W        W 5062   9.717  16.898   1.708
33447W        W 5063  18.511   3.353  13.035
33448W        W 5064  19.589  40.312  11.887
33449W        W 5065  22.251  25.135  11.141
33450W        W 5066  18.631  39.031   4.468
33451W        W 5067   2.959  26.483   0.212
33452W        W 5068  28.070  43.315   1.966
33453W        W 5069  18.657  38.628  12.000
33454W        W 5070   1.309  14.738  12.391
33455W        W 5071  44.380  10.375  13.897
33456W        W 5072  38.292  10.717  14.973
33457W        W 5073   7.214   9.253   0.851
33458W        W 5074  16.099  31.462   1.242
33459W        W 5075  20.584   6.681   1.590
33460W        W 5076  35.651  13.650  13.480
33461W        W 5077  29.693   3.472   0.419
33462W        W 5078  15.268   1.035  12.946
33463W        W 5079  32.012  32.912  14.026
33464W        W 5080   6.701  38.977  10.394
33465W        W 5081  22.487   6.653   0.897
33466W        W 5082  34.675   5.986   3.755
33467W        W 5083  15.611  34.829   4.083
33468W        W 5084  43.406  32.159  13.449
33469W        W 5085  12.463  10.971  14.664
33470W        W 5086   8.745  31.055  12.874
33471W        W 5087  44.005  43.341  10.666
33472W        W 5088  14.629  35.919   4.255
33473W        W 5089  34.108  40.828  14.263
33474W        W 5090  22.685  14.199  12.533
33475W        W 5091  25.518   5.278  13.460
33476W        W 5092  22.227  15.313   0.717
33477W        W 5093  10.813  36.078   4.774
33478W        W 5094  32.480  28.113  14.481
33479W        W 5095  19.740  13.075  10.941
33480W        W 5096  41.878  34.830   0.836
33481W        W 5097  22.667  23.252  11.124
33482W        W 5098  42.045   1.325   0.470
33483W        W 5099  35.079  12.602   5.108
33484W        W 5100  43.515   7.920  10.839
33485W        W 5101  39.870   1.794   4.740
33486W        W 5102  32.445  38.817  11.119
33487W        W 5103   2.647  43.967  12.389
33488W        W 5104  30.942  35.954  12.030
33489W        W 5105   2.888  11.824   0.782
33490W        W 5106  12.129  29.243   4.788
33491W        W 5107  36.027  15.285  13.167
33492W        W 5108  36.598  29.485  12.541
33493W        W 5109  16.297  42.799   1.301
33494W        W 5110  38.905   7.344   4.628
33495W        W 5111  29.027  26.955  12.233
33496W        W 5112  21.027  32.874  12.610
33497W        W 5113  42.806  39.438  12.739
33498W        W 5114   7.627  20.321  11.628
33499W        W 5115  37.497  18.778  11.300
33500W        W 5116  16.690  25.390   0.940
33501W        W 5117  14.746  23.599   2.592
33502W        W 5118  15.191  44.057  12.638
33503W        W 5119   7.974  40.971   2.283
33504W        W 5120  43.204  22.030   1.221
33505W        W 5121  15.652   2.355   4.255
33506W        W 5122  39.931  38.857   2.033
33507W        W 5123  20.350   1.766  13.953
33508W        W 5124   9.895  17.079   1.235
33509W        W 5125  27.877  10.776  10.955
33510W        W 5126  42.310  10.665   0.702
33511W        W 5127  18.681  19.220   3.733
33512W        W 5128  18.557  38.143  13.807
33513W        W 5129  40.425   3.910  11.600
33514W        W 5130  39.787  22.138   1.129
33515W        W 5131   2.277  26.181   2.763
33516W        W 5132   7.894  18.190  13.060
33517W        W 5133  23.409  19.020  11.934
33518W        W 5134  24.871  25.507   0.361
33519W        W 5135  11.383  26.064  13.480
33520W        W 5136  14.607  27.579  13.522
33521W        W 5137   6.890  10.400   1.696
33522W        W 5138  15.060   2.365  12.015
33523W        W 5139  20.128  42.682  14.997
33524W        W 5140  41.273  15.671  12.412
33525W        W 5141  20.483  25.980   2.210
33526W        W 5142  36.548  16.126  10.936
33527W        W 5143  44.095  43.265   4.591
33528W        W 5144  23.159  43.181  12.796
33529W        W 5145  14.619  17.078  13.751
33530W        W 5146  38.046  40.102  14.479
33531W        W 5147  39.848  24.442  14.819
33532W        W 5148  42.919  26.351   0.235
33533W        W 5149  10.750  40.356   3.992
33534W        W 5150  24.697  24.176   0.994
33535W        W 5151  44.991   8.600  12.095
33536W        W 5152  38.863  33.534   3.782
33537W        W 5153  30.128  16.973   2.525
33538W        W 5154  22.014   1.358   0.525
33539W        W 5155  21.163  26.416  12.482
33540W        W 5156  31.123  14.296  14.769
33541W        W 5157  43.013   6.622   2.237
33542W        W 5158  17.998  16.131   0.813
33543W        W 5159  40.521  18.420   4.659
33544W        W 5160  36.325  21.834   0.479
33545W        W 5161  10.648  24.998  12.929
33546W        W 5162  16.102   4.691   1.999
33547W        W 5163   0.691  14.615   4.018
33548W        W 5164  44.821   5.338  14.976
33549W        W 5165  31.688  20.638   4.278
33550W        W 5166  39.495  19.516  13.129
33551W        W 5167  11.530  10.363   3.753
33552W        W 5168   5.876   0.888   3.975
33553W        W 5169  13.247  30.959   2.988
33554W        W 5170  36.475  39.533   4.603
33555W        W 5171  10.629  36.672   0.948
33556W        W 5172  40.249  32.689  13.352
33557W        W 5173   5.476  32.572  13.400
33558W        W 5174  13.827   3.638  12.547
33559W        W 5175  35.909   2.725  12.497
33560W        W 5176  18.254   5.270   1.178
33561W        W 5177  32.093  14.182  14.085
33562W        W 5178   9.840  26.189  12.239
33563W        W 5179  25.308  11.038  10.393
33564W        W 5180  13.205   5.968   1.513
33565W        W 5181  37.838   9.840  12.857
33566W        W 5182  28.678  31.107  11.566
33567W        W 5183  20.610  17.553   4.158
33568W        W 5184  13.171  40.444   2.918
33569W        W 5185   3.399  13.307  12.478
33570W        W 5186  13.297   4.844   0.380
33571W        W 5187  44.914  27.550  12.662
33572W        W 5188   7.778   3.925  14.382
33573W        W 5189  39.858  36.839  12.297
33574W        W 5190   0.010   4.862  14.313
33575W        W 5191   4.359  24.421  12.020
33576W        W 5192   5.140  19.547   2.311
33577W        W 5193  12.418  15.379  14.388
33578W        W 5194  29.094  12.758  13.377
33579W        W 5195  20.648   2.497  13.414
33580W        W 5196  42.547  33.832  10.687
33581W        W 5197  18.712   8.940   3.777
33582W        W 5198   3.363   1.232   0.348
33583W        W 5199  20.101   8.754   0.867
33584W        W 5200   5.802   5.727  12.189
33585W        W 5201  38.875  26.498  10.177
33586W        W 5202  18.103   8.216   3.832
33587W        W 5203  34.085  27.245  12.377
33588W        W 5204  39.718  38.284   1.015
33589W        W 5205  36.935  21.068   4.654
33590W        W 5206   6.462  24.055  14.868
33591W        W 5207  13.813  14.353   0.478
33592W        W 5208   4.802  11.837   1.113
33593W        W 5209  14.825  16.788   4.365
33594W        W 5210   9.802  14.827   1.907
33595W        W 5211  38.457   4.484   3.235
33596W        W 5212  11.156  34.560   0.282
33597W        W 5213   5.783   4.787   3.751
33598W        W 5214   7.856  39.756   2.406
33599W        W 5215  33.092  22.101  10.738
33600W        W 5216  37.709   6.316  13.997
33601W        W 5217   5.328  40.516   3.186
33602W        W 5218  24.853  35.939  12.341
33603W        W 5219  11.460  12.601   4.007
33604W        W 5220  20.175  28.518   4.201
33605W        W 5221   3.254   4.717  12.465
33606W        W 5222  15.268  41.058   0.288
33607W        W 5223   8.781  27.004   4.257
33608W        W 5224  10.803   6.086  14.311
33609W        W 5225  35.949  38.848   1.763
33610W        W 5226  41.563  22.563   3.485
33611W        W 5227   0.932  23.513   2.860
33612W        W 5228   7.224  17.122  10.660
33613W        W 5229   3.417  41.727  14.333
33614W        W 5230  18.653  32.853  11.673
33615W        W 5231  18.253   4.034  11.556
33616W        W 5232  24.019  32.146  12.312
33617W        W 5233  21.237  29.854  10.784
33618W        W 5234  15.284  20.581   1.881
33619W        W 5235   4.542  23.558   3.345
33620W        W 5236  35.143  23.682  12.082
33621W        W 5237  22.678  20.758  13.472
33622W        W 5238  16.300  15.635  13.279
33623W        W 5239  20.172   9.433  12.430
33624W        W 5240   3.387  33.833  12.001
33625W        W 5241   3.422  40.556  12.605
33626W        W 5242  36.854   5.515  13.046
33627W        W 5243   8.703  34.458   3.897
33628W        W 5244  32.592  17.512   3.445
33629W        W 5245   7.952   2.546  13.336
33630W        W 5246  36.098  34.547   3.094
33631W        W 5247   2.342   0.297  13.336
33632W        W 5248   5.831  41.920   0.783
33633W        W 5249   4.034  41.468  14.886
33634W        W 5250  23.937  30.166   1.428
33635W        W 5251  29.954   8.685   3.376
33636W        W 5252  26.506  21.685  13.506
33637W        W 5253  40.193  18.764   0.473
33638W        W 5254  12.133  10.747   4.137
33639W        W 5255  37.123  10.224  13.221
33640W        W 5256  26.635  37.532  14.330
33641W        W 5257  13.792  25.447  11.640
33642W        W 5258  21.241   9.569   4.603
33643W        W 5259  44.955  32.521  11.696
33644W        W 5260   9.219  39.850  14.669
33645W        W 5261  35.349  18.092  14.301
33646W        W 5262  12.284  16.317  12.833
33647W        W 5263  14.337  34.104  11.170
33648W        W 5264  29.009  40.035  13.393
33649W        W 5265  26.901  27.471  14.015
33650W        W 5266  22.730  29.659   2.746
33651W        W 5267  20.452  27.632  14.826
33652W        W 5268  13.256  33.177  10.377
33653W        W 5269  17.117  33.333  13.641
33654W        W 5270  34.579  11.121   1.952
33655W        W 5271  38.315  13.164  12.904
33656W        W 5272  31.924  42.593  11.480
33657W        W 5273  38.015  32.617   4.532
33658W        W 5274  29.543  25.160  14.434
33659W        W 5275  15.321  12.050  13.310
33660W        W 5276  33.456  35.991  12.115
33661W        W 5277  19.020  37.000  12.434
33662W        W 5278  20.788   5.440   3.249
33663W        W 5279  44.769  20.585   3.249
33664W        W 5280  44.957   9.396   0.399
33665W        W 5281  15.628  28.322  14.640
33666W        W 5282  13.265  39.587  12.384
33667W        W 5283  42.316   0.913   4.354
33668W        W 5284  15.379   6.476  14.959
33669W        W 5285   5.175  10.316   1.133
33670W        W 5286  23.691  32.090   1.475
33671W        W 5287  14.003  14.702   4.189
33672W        W 5288  28.703  34.104   0.926
33673W        W 5289   9.369  13.311  14.384
33674W        W 5290  13.139  16.369  11.896
33675W        W 5291  31.642  38.650  12.401
33676W        W 5292  37.441   6.173   4.584
33677W        W 5293  24.863  33.865   0.731
33678W        W 5294   1.010   6.392   0.957
33679W        W 5295  33.343  41.945   3.345
33680W        W 5296  29.940  29.254   1.804
33681W        W 5297  22.637  27.155  13.092
33682W        W 5298  22.997   2.460  10.445
33683W        W 5299  20.063   4.326   4.533
33684W        W 5300   2.154  39.051   2.927
33685W        W 5301   0.421  30.183  14.966
33686W        W 5302  21.965   2.039  12.981
33687W        W 5303   6.217   8.983   5.136
33688W        W 5304  21.664  29.943  11.082
33689W        W 5305  32.871  38.723   2.373
33690W        W 5306  13.347  42.279  14.960
33691W        W 5307   9.161  28.956  14.061
33692W        W 5308  22.144   2.804   4.251
33693W        W 5309  21.760  27.493   1.012
33694W        W 5310  44.423   2.831   4.245
33695W        W 5311  41.453  42.776  14.121
33696W        W 5312  24.987  39.283  13.834
33697W        W 5313  25.455  29.518   0.667
33698W        W 5314  28.458   1.295   4.521
33699W        W 5315  23.911  42.787   1.712
33700W        W 5316  27.909   7.662  10.193
33701W        W 5317  11.658  36.124   3.743
33702W        W 5318  15.895   1.925  10.631
33703W        W 5319  33.833  24.693   1.038
33704W        W 5320  44.493  40.857  13.924
33705W        W 5321  23.216  10.107  12.882
33706W        W 5322  32.410  25.672   1.757
33707W        W 5323  16.595  29.969   3.575
33708W        W 5324   7.609   2.587   0.377
33709W        W 5325  14.258  20.120   1.415
33710W        W 5326  36.532  23.525   1.579
33711W        W 5327   6.158  16.383  13.044
33712W        W 5328  17.911  43.289   9.856
33713W        W 5329  34.016  18.062  14.318
33714W        W 5330   1.647  38.893   2.870
33715W        W 5331   8.655  17.169   2.770
33716W        W 5332  16.959  42.399  12.356
33717W        W 5333  17.121  17.622   1.542
33718W        W 5334   6.689  25.538   4.911
33719W        W 5335  34.025   6.707  13.831
33720W        W 5336  42.989   2.763  11.736
33721W        W 5337  43.591  39.049  11.826
33722W        W 5338  34.120  15.741  14.254
33723W        W 5339   3.323  25.362  11.416
33724W        W 5340  30.254  44.893   4.253
33725W        W 5341   3.600  23.726   4.762
33726W        W 5342  13.528  40.481  11.477
33727W        W 5343  16.213  29.631   4.793
33728W        W 5344  10.554  38.561   4.080
33729W        W 5345   1.483   5.919  12.783
33730W        W 5346   2.963  28.246  12.068
33731W        W 5347   3.953  40.020   4.026
33732W        W 5348  14.641  21.482  12.404
33733W        W 5349  20.306  31.365  14.825
33734W        W 5350  22.768  11.728   4.075
33735W        W 5351  24.659   0.690   0.378
33736W        W 5352  32.016  10.309  14.341
33737W        W 5353  43.354   3.735  14.788
33738W        W 5354   2.935  32.228  14.413
33739W        W 5355  44.605  23.592   3.271
33740W        W 5356  20.553  11.703  14.985
33741W        W 5357  12.266  23.559   0.449
33742W        W 5358  11.069  27.140   1.349
33743W        W 5359  25.505  32.637  13.549
33744W        W 5360  32.681  44.974  11.372
33745W        W 5361  43.566  27.531  11.464
33746W        W 5362  38.611  43.059  13.499
33747W        W 5363  17.294  25.235   3.724
33748W        W 5364  28.544  14.102   1.773
33749W        W 5365   1.198  44.206   2.647
33750W        W 5366   5.020  12.196   1.421
33751W        W 5367   0.471  34.727  13.825
33752W        W 5368  11.820  31.994   1.309
33753W        W 5369  15.170  10.855   1.558
33754W        W 5370  27.133  44.536  11.171
33755W        W 5371  13.044  34.883  11.230
33756W        W 5372  20.537  42.357  11.136
33757W        W 5373  20.223  32.386  13.539
33758W        W 5374  34.950  31.619   3.014
33759W        W 5375   3.826  40.028   0.863
33760W        W 5376  42.068  29.499  14.894
33761W        W 5377   5.613  13.095   0.545
33762W        W 5378  40.247   0.656  11.127
33763W        W 5379   0.382  42.168   2.909
33764W        W 5380  13.730  30.813   0.365
33765W        W 5381  38.747  30.975  12.651
33766W        W 5382  37.538   7.921   5.060
33767W        W 5383  35.929  20.851   3.683
33768W        W 5384  16.092  27.397   4.521
33769W        W 5385  36.513  26.395  14.703
33770W        W 5386   7.394   1.740   0.001
33771W        W 5387  30.347  10.163   0.688
33772W        W 5388  27.882   4.297  13.115
33773W        W 5389  27.698  40.536   3.375
33774W        W 5390   7.335  40.960   0.777
33775W        W 5391  11.696  11.826  13.365
33776W        W 5392  17.181  30.687   3.638
33777W        W 5393  43.311  41.174   1.190
33778W        W 5394  32.654   8.597  12.606
33779W        W 5395  35.156  37.021  12.054
33780W        W 5396   2.389   1.996  13.357
33781W        W 5397  41.756  15.785  10.667
33782W        W 5398  27.905  33.470  10.331
33783W        W 5399  42.665  23.418  10.586
33784W        W 5400  11.817  22.733   2.014
33785W        W 5401  42.208  18.911   2.988
33786W        W 5402  40.322  16.582   4.326
33787W        W 5403  20.709  41.869   1.048
33788W        W 5404   1.475  28.399   4.170
33789W        W 5405   2.513  40.034  14.431
33790W        W 5406   2.955  37.443  13.319
33791W        W 5407  32.088  22.561  13.837
33792W        W 5408  36.585  26.673  13.788
33793W        W 5409  27.534  40.834   1.434
33794W        W 5410  31.500  13.635   3.584
33795W        W 5411  29.509  13.182  13.317
33796W        W 5412  35.597   2.134  13.008
33797W        W 5413  11.743  40.145   3.178
33798W        W 5414  23.450  24.346  12.401
33799W        W 5415  36.317  33.503  14.774
33800W        W 5416  38.091  21.549  11.652
33801W        W 5417  20.018  30.076  12.867
33802W        W 5418   4.318   3.429   1.336
33803W        W 5419  42.444   6.219   4.341
33804W        W 5420   3.511  19.095   4.800
33805W        W 5421  15.403  42.858   3.559
33806W        W 5422  22.526  38.501  14.702
33807W        W 5423  34.252  42.378   2.115
33808W        W 5424  13.486   5.256  13.944
33809W        W 5425  33.996  10.839  11.238
33810W        W 5426  12.815   0.808   3.242
33811W        W 5427  33.584  40.920  14.857
33812W        W 5428  35.969  13.126  11.938
33813W        W 5429  21.578   6.810  13.127
33814W        W 5430  41.077  26.050   3.322
33815W        W 5431  41.008  29.005  12.925
33816W        W 5432  18.119  42.988  14.882
33817W        W 5433  37.614  15.218   1.952
33818W        W 5434  43.873  19.098  13.801
33819W        W 5435  29.114  24.523  14.980
33820W        W 5436   2.775  35.212   4.063
33821W        W 5437  36.964  21.769  13.356
33822W        W 5438   5.691  42.367   3.455
33823W        W 5439  14.188  24.476   1.805
33824W        W 5440  28.190  40.556   4.181
33825W        W 5441  41.068  38.833   4.181
33826W        W 5442   2.284  39.085  12.442
33827W        W 5443  31.654  38.810  13.795
33828W        W 5444   1.038  24.714  12.167
33829W        W 5445  28.469   8.679   1.152
33830W        W 5446   9.747  12.204   1.883
33831W        W 5447  31.954   2.056  10.189
33832W        W 5448  28.543   6.863   2.477
33833W        W 5449  19.654  10.932  13.842
33834W        W 5450  42.778  42.757  11.512
33835W        W 5451  23.944  33.852   0.927
33836W        W 5452  39.793  19.216   2.249
33837W        W 5453  18.257  22.186  13.831
33838W        W 5454  44.286  15.288  13.877
33839W        W 5455  32.450   5.297   1.373
33840W        W 5456   8.018  16.030  13.324
33841W        W 5457   6.014  28.382  14.077
33842W        W 5458  29.590  18.796  11.044
33843W        W 5459  32.630  26.945  13.408
33844W        W 5460  26.905   4.422   2.548
33845W        W 5461  22.547  30.641   1.904
33846W        W 5462  31.476  43.534  12.060
33847W        W 5463  14.622  38.672  10.695
33848W        W 5464  15.429  10.379   1.308
33849W        W 5465  20.698  21.749   4.141
33850W        W 5466  30.269  30.104  14.625
33851W        W 5467  10.151  35.034   3.943
33852W        W 5468  30.088  14.569   2.984
33853W        W 5469   0.195  18.498   4.081
33854W        W 5470  35.864  26.188  12.894
33855W        W 5471  15.325  33.064  10.919
33856W        W 5472  25.209  44.430  14.473
33857W        W 5473   1.282  42.539  11.522
33858W        W 5474   1.215  11.831  13.881
33859W        W 5475  41.444  33.052  13.601
33860W        W 5476  21.046   1.061   1.730
33861W        W 5477  34.065  23.754   4.886
33862W        W 5478  12.878  14.550  11.766
33863W        W 5479  34.978  39.298  13.893
33864W        W 5480   0.037  16.266   0.031
33865W        W 5481  26.916  27.124   1.806
33866W        W 5482  33.889   8.560   1.370
33867W        W 5483  29.610  38.885  12.467
33868W        W 5484  14.256   9.871   1.910
33869W        W 5485   4.443  26.982   3.289
33870W        W 5486  43.543   8.388   0.648
33871W        W 5487  15.434   1.958   4.541
33872W        W 5488   1.743  36.790  13.608
33873W        W 5489  21.003  29.896   1.655
33874W        W 5490  26.803  38.814  12.993
33875W        W 5491  35.077  14.043  12.019
33876W        W 5492   3.474  22.157  11.467
33877W        W 5493  34.362  41.021  12.832
33878W        W 5494  38.328  25.205   4.060
33879W        W 5495   9.816  17.047   3.333
33880W        W 5496  28.368   1.383   2.248
33881W        W 5497  16.780  33.308   1.367
33882W        W 5498  28.739  13.079  11.027
33883W        W 5499  42.512  39.799  12.488
33884W        W 5500  17.113   1.399   0.104
33885W        W 5501   7.390  18.026   4.708
33886W        W 5502  23.924  24.287  14.889
33887W        W 5503  40.475   3.704  13.533
33888W        W 5504   3.117  19.230   1.029
33889W        W 5505  22.572   9.623   3.209
33890W        W 5506  26.300  22.142  11.981
33891W        W 5507   1.726  10.347   4.404
33892W        W 5508   7.783  15.147  13.023
33893W        W 5509   4.798  13.729   0.572
33894W        W 5510  12.338  12.134   1.163
33895W        W 5511  28.076  27.559   4.137
33896W        W 5512  36.031   6.608   1.454
33897W        W 5513  42.998  14.758  13.885
33898W        W 5514  40.821  44.767  13.919
33899W        W 5515  33.472  40.849  13.997
33900W        W 5516   0.414  23.481  12.981
33901W        W 5517  42.482  29.964  12.847
33902W        W 5518   8.208  24.946  12.507
33903W        W 5519  29.673  11.678   1.250
33904W        W 5520  44.098  13.829   1.647
33905W        W 5521  27.617  29.170   0.855
33906W        W 5522   4.762  34.536   1.491
33907W        W 5523  31.026  33.030  14.239
33908W        W 5524  31.083  26.301   4.586
33909W        W 5525  33.446   6.422   1.612
33910W        W 5526   9.711  35.658  12.431
33911W        W 5527  38.274  32.380   2.807
33912W        W 5528  41.810  24.046  14.725
33913W        W 5529  23.786   3.449  11.237
33914W        W 5530  44.416  34.683   1.224
33915W        W 5531  29.631  27.395  14.969
33916W        W 5532  26.449   4.938   4.176
33917W        W 5533   0.525  14.327   0.378
33918W        W 5534  20.853  36.833  11.157
33919W        W 5535  25.528  41.515   1.728
33920W        W 5536  23.269   2.271  11.911
33921W        W 5537  24.990  33.428   2.354
33922W        W 5538  32.123  34.861   0.713
33923W        W 5539  16.439  11.329   0.959
33924W        W 5540  18.656  32.167  10.716
33925W        W 5541   7.417  42.114  13.454
33926W        W 5542   1.586  13.263  11.182
33927W        W 5543   5.612  18.690   0.982
33928W        W 5544  35.935  21.170   5.024
33929W        W 5545  24.949   1.858  11.134
33930W        W 5546  29.500  27.153  12.032
33931W        W 5547  17.588  43.119   4.258
33932W        W 5548  43.014  25.779   2.626
33933W        W 5549  21.448  33.959  14.406
33934W        W 5550  22.523  42.418  13.557
33935W        W 5551  19.084   4.284   0.397
33936W        W 5552  20.418   7.371   2.782
33937W        W 5553  32.300  19.210  13.045
33938W        W 5554  36.843  21.962   2.805
33939W        W 5555  15.575  25.612  11.968
33940W        W 5556   0.342  41.248   2.865
33941W        W 5557   1.490  41.800  11.072
33942W        W 5558   3.035  11.626   2.217
33943W        W 5559   1.461   9.649   0.474
33944W        W 5560  12.171   3.452   1.190
33945W        W 5561  26.828  32.046   4.238
33946W        W 5562  39.732  19.728   3.503
33947W        W 5563   9.241  43.002   3.601
33948W        W 5564  18.589  22.612   0.043
33949W        W 5565  40.155  21.870  14.722
33950W        W 5566  32.619  40.290  11.088
33951W        W 5567  29.013  13.818  12.892
33952W        W 5568  11.945  32.217  11.048
33953W        W 5569  16.293  25.160  11.540
33954W        W 5570   9.068  28.057  11.951
33955W        W 5571  43.247  14.202   4.287
33956W        W 5572   3.853  36.932   1.381
33957W        W 5573  28.429  17.311   2.085
33958W        W 5574  19.702  35.471  14.940
33959W        W 5575  23.703  26.490   0.724
33960W        W 5576  22.365  41.378   1.153
33961W        W 5577   3.841   2.167   1.234
33962W        W 5578  40.492  41.872  13.734
33963W        W 5579  39.571  39.951   3.339
33964W        W 5580  44.638  24.447   4.178
33965W        W 5581  38.304  19.912   1.809
33966W        W 5582   4.319  26.887  10.466
33967W        W 5583   4.091   8.418  11.094
33968W        W 5584  23.431  23.967  10.851
33969W        W 5585  16.796  11.361   2.182
33970W        W 5586  25.267  24.290  12.557
33971W        W 5587  34.786  30.711  11.642
33972W        W 5588  18.478   9.457   1.370
33973W        W 5589  16.252  21.324  11.943
33974W        W 5590  15.302  18.454  10.291
33975W        W 5591  19.346   2.458  14.546
33976W        W 5592   7.745  39.973   1.003
33977W        W 5593  34.899  26.180   0.898
33978W        W 5594  10.944   0.391  10.585
33979W        W 5595  40.404  36.103   4.170
33980W        W 5596   4.762  26.665  10.659
33981W        W 5597  15.158  43.344   1.006
33982W        W 5598  23.710  22.901   4.044
33983W        W 5599  29.498  21.561   1.858
33984W        W 5600  43.617   1.045  13.761
33985W        W 5601  18.673  36.648  14.645
33986W        W 5602  25.741  17.597   2.915
33987W        W 5603  11.688  29.123  12.932
33988W        W 5604  15.778  36.799  13.849
33989W        W 5605  31.472  20.649   3.804
33990W        W 5606  15.824   4.392  10.595
33991W        W 5607  20.557   6.785  12.890
33992W        W 5608  24.882  23.264   1.614
33993W        W 5609  11.264  41.827  10.636
33994W        W 5610  30.553  38.716  13.929
33995W        W 5611   2.420  40.214   2.703
33996W        W 5612  10.360  39.451  13.332
33997W        W 5613  10.276  23.892   2.208
33998W        W 5614  11.598  33.930   0.138
33999W        W 5615  34.040  40.960   4.171
34000W        W 5616  31.537   5.638   0.991
34001W        W 5617  20.744  40.728   4.383
34002W        W 5618  21.147  23.914   2.896
34003W        W 5619  12.779  25.096   4.342
34004W        W 5620  30.348  41.372   2.946
34005W        W 5621  23.257  15.661  14.585
34006W        W 5622   5.155  16.058   0.400
34007W        W 5623  28.928   7.592  10.378
34008W        W 5624  38.504  34.342  13.525
34009W        W 5625  41.379   4.342   4.410
34010W        W 5626  44.290   0.455   3.361
34011W        W 5627   8.821  10.406  12.590
34012W        W 5628  27.798   2.034  12.687
34013W        W 5629   1.772  16.658   1.494
34014W        W 5630  35.072  15.779   2.405
34015W        W 5631  37.859  31.024  13.598
34016W        W 5632  28.153   2.221  13.024
34017W        W 5633  32.404   6.743  10.620
34018W        W 5634   2.777  29.416  11.261
34019W        W 5635  33.854  26.240   1.853
34020W        W 5636   6.887  38.392   1.061
34021W        W 5637  26.742   9.293   2.466
34022W        W 5638  43.868  36.343  10.415
34023W        W 5639  34.524   2.962   2.924
34024W        W 5640  13.623  27.199   0.790
34025W        W 5641  17.060   0.199   1.477
34026W        W 5642  21.167  29.566  11.812
34027W        W 5643  39.345  22.687  13.203
34028W        W 5644  33.977   1.286   0.905
34029W        W 5645  41.553  19.768   3.791
34030W        W 5646  38.135  34.843   4.090
34031W        W 5647  43.612   0.972  12.465
34032W        W 5648  23.386  24.540   1.781
34033W        W 5649  41.449   2.416  10.931
34034W        W 5650  31.548   0.222   2.180
34035W        W 5651  10.740  35.345  11.191
34036W        W 5652  26.636   8.596   5.078
34037W        W 5653   9.804   4.701   4.455
34038W        W 5654  10.194  16.752   0.198
34039W        W 5655   8.005  22.118  11.415
34040W        W 5656   8.734  39.086  10.586
34041W        W 5657   6.868  42.222  13.190
34042W        W 5658   9.179   5.868   4.380
34043W        W 5659  20.930  39.068  13.961
34044W        W 5660  10.118  44.343   2.799
34045W        W 5661  24.452  22.551  13.298
34046W        W 5662   8.143  39.361  14.428
34047W        W 5663  36.319   1.487   3.145
34048W        W 5664  38.838  12.372  10.982
34049W        W 5665  27.599   8.315  10.903
34050W        W 5666  25.545  39.847  13.662
34051W        W 5667   4.999  37.102  10.563
34052W        W 5668  43.364  29.926   3.380
34053W        W 5669  31.576  18.543   2.320
34054W        W 5670  40.715  30.303   4.119
34055W        W 5671  42.550  41.979  12.475
34056W        W 5672  44.255   6.041   0.022
34057W        W 5673   5.182   2.976   3.195
34058W        W 5674   4.197  30.468   1.887
34059W        W 5675   3.149  44.972   4.626
34060W        W 5676  26.720  43.789  11.186
34061W        W 5677  24.624  42.491  14.359
34062W        W 5678   0.719  22.747   3.172
34063W        W 5679  31.512  35.615  11.106
34064W        W 5680  16.328  28.104   0.819
34065W        W 5681  27.944  27.351  11.911
34066W        W 5682  39.556  31.098  13.922
34067W        W 5683  31.635  33.852  14.305
34068W        W 5684  41.893   4.487  11.825
34069W        W 5685  23.710  32.904  13.775
34070W        W 5686   3.093   9.662  14.328
34071W        W 5687   3.443  11.344  14.748
34072W        W 5688   8.167   8.232   2.121
34073W        W 5689  24.115  20.255   3.742
34074W        W 5690  23.453  43.472   0.784
34075W        W 5691  11.125  34.475  11.188
34076W        W 5692  15.386  14.720   2.410
34077W        W 5693  31.958  25.566  14.881
34078W        W 5694  33.613  13.949   2.356
34079W        W 5695   7.731  40.686   1.896
34080W        W 5696  10.523  41.521   0.513
34081W        W 5697  42.946  21.671   4.407
34082W        W 5698  35.059  30.652   3.205
34083W        W 5699   2.068  11.303   0.397
34084W        W 5700   4.010  39.124   0.425
34085W        W 5701   6.931  37.139  14.951
34086W        W 5702  22.585  18.019  14.835
34087W        W 5703  11.681   5.954   1.546
34088W        W 5704  29.049  15.183  13.332
34089W        W 5705  28.051  34.966   0.496
34090W        W 5706  30.180  35.766   4.083
34091W        W 5707   1.398  30.705   0.937
34092W        W 5708  42.818  44.322  11.749
34093W        W 5709  38.538   4.374  11.685
34094W        W 5710  40.973  26.973   0.465
34095W        W 5711  14.215  16.760   1.647
34096W        W 5712   5.700  11.315   1.775
34097W        W 5713  26.623   7.315   3.725
34098W        W 5714  33.671  33.952   1.517
34099W        W 5715  39.032  18.252  13.533
34100W        W 5716  20.872   7.187  13.013
34101W        W 5717   4.609   0.244   0.810
34102W        W 5718   2.935   8.469  11.945
34103W        W 5719   8.198  23.302   0.483
34104W        W 5720  20.249  15.867   1.838
34105W        W 5721  32.888  15.995  14.222
34106W        W 5722  35.131  42.023  13.352
34107W        W 5723  17.568  35.456   3.946
34108W        W 5724  14.189   0.513  14.812
34109W        W 5725  10.641   2.864  14.126
34110W        W 5726  14.384  36.092  14.555
34111W        W 5727  24.483  35.989   3.724
34112W        W 5728   1.777   6.813   4.531
34113W        W 5729  36.917  43.500  14.745
34114W        W 5730  30.427   4.362  13.253
34115W        W 5731  29.152  33.502   2.291
34116W        W 5732  14.267   7.891  13.490
34117W        W 5733  41.003  41.344   3.696
34118W        W 5734  14.696  14.886  14.258
34119W        W 5735  17.185  36.710   0.054
34120W        W 5736   8.252  40.916  10.505
34121W        W 5737  36.500  44.566   1.672
34122W        W 5738  16.518  29.805  14.266
34123W        W 5739  36.457  34.957  10.908
34124W        W 5740  38.730  29.926  13.999
34125W        W 5741   4.415  31.914   2.287
34126W        W 5742   8.364  21.992  11.042
34127W        W 5743  43.963  19.295  12.562
34128W        W 5744  31.403  36.690   0.799
34129W        W 5745   8.745   8.731   4.519
34130W        W 5746  35.757  22.288   1.425
34131W        W 5747   4.509  16.335   2.140
34132W        W 5748  44.198  23.264   0.553
34133W        W 5749  11.900  24.675   1.762
34134W        W 5750  24.664  42.540  13.456
34135W        W 5751  24.209  44.344  14.178
34136W        W 5752   0.267  31.964  12.077
34137W        W 5753   2.429  15.527   2.427
34138W        W 5754  42.434  36.017  10.276
34139W        W 5755  27.661  32.443   0.761
34140W        W 5756  22.780  35.844  11.675
34141W        W 5757   3.211  29.146   4.431
34142W        W 5758  43.744  43.457  11.160
34143W        W 5759  13.112   9.517  12.481
34144W        W 5760  41.995   6.634   5.097
34145W        W 5761  28.657   2.647   4.387
34146W        W 5762  20.380  38.454   0.276
34147W        W 5763  38.073   0.248  10.952
34148W        W 5764  24.148  40.859  10.907
34149W        W 5765  15.773  24.728   0.274
34150W        W 5766  23.722  23.528  13.848
34151W        W 5767  22.614  39.829   3.693
34152W        W 5768  37.053  42.816  12.153
34153W        W 5769  24.654  43.738   2.801
34154W        W 5770  16.106  20.193   1.374
34155W        W 5771  37.868  10.487   3.616
34156W        W 5772  30.705   1.304  12.447
34157W        W 5773  25.537  24.043  14.051
34158W        W 5774  44.818  11.321   2.909
34159W        W 5775  44.935  28.682   2.140
34160W        W 5776  38.476  20.270  11.596
34161W        W 5777  37.569  37.891   2.608
34162W        W 5778  23.814  37.956   2.754
34163W        W 5779   7.348  20.639  13.291
34164W        W 5780  20.969  14.474   2.804
34165W        W 5781  42.256  44.494   1.224
34166W        W 5782  21.855  10.105  11.283
34167W        W 5783   6.631  35.878   0.963
34168W        W 5784   3.269  33.363   4.216
34169W        W 5785   0.428  13.082  14.850
34170W        W 5786  23.189   9.174   3.761
34171W        W 5787  27.686  22.195   1.042
34172W        W 5788   7.706  32.906   1.762
34173W        W 5789  10.720  38.249  12.119
34174W        W 5790  23.431   2.193   4.584
34175W        W 5791   6.602  31.954  14.683
34176W        W 5792   2.440   2.003   1.723
34177W        W 5793  34.802   0.939  14.858
34178W        W 5794  27.041  15.705   1.839
34179W        W 5795  32.061  36.981  13.800
34180W        W 5796  40.384  44.486  13.914
34181W        W 5797  13.802  29.026   0.224
34182W        W 5798  31.470   8.660  13.485
34183W        W 5799   6.139  19.037  11.202
34184W        W 5800  44.271  34.346  13.381
34185W        W 5801  17.017  36.814  12.664
34186W        W 5802  22.753  23.108  14.982
34187W        W 5803  41.974   5.674  10.870
34188W        W 5804   9.640  37.012  11.551
34189W        W 5805   6.692  36.999   2.453
34190W        W 5806  43.742  28.511  13.572
34191W        W 5807  32.905  11.846   4.442
34192W        W 5808  13.925  17.590  11.564
34193W        W 5809  43.399  12.703   0.158
34194W        W 5810  22.364  17.570   4.140
34195W        W 5811   6.137  17.234  12.273
34196W        W 5812   5.808  37.374   0.227
34197W        W 5813  35.815  40.010  13.504
34198W        W 5814   7.787  41.839   3.346
34199W        W 5815  12.041  15.267   1.236
34200W        W 5816   6.307  38.608  13.691
34201W        W 5817  12.626  36.433   1.689
34202W        W 5818   2.542  35.536   3.695
34203W        W 5819  36.282  31.511   4.870
34204W        W 5820  43.272  13.643   4.900
34205W        W 5821  17.509   5.214  14.220
34206W        W 5822  41.105  16.663  13.302
34207W        W 5823  36.301   2.631  11.452
34208W        W 5824   2.412  11.285   2.384
34209W        W 5825   6.948  12.294  13.104
34210W        W 5826   5.243  22.177   0.011
34211W        W 5827   4.009  25.438   0.339
34212W        W 5828  12.669  43.798   0.781
34213W        W 5829  26.734  41.838   1.024
34214W        W 5830   4.393  23.355  14.792
34215W        W 5831  23.142  22.717  10.697
34216W        W 5832  23.748  44.339   2.378
34217W        W 5833  37.838  29.472   2.189
34218W        W 5834  16.318  19.288   1.918
34219W        W 5835   5.872  38.424  10.618
34220W        W 5836  30.924  10.252   3.743
34221W        W 5837  21.965  33.971  14.414
34222W        W 5838  31.107  41.535   3.604
34223W        W 5839  39.765  23.896   2.369
34224W        W 5840  10.820  23.632  10.966
34225W        W 5841  30.640  10.130   3.316
34226W        W 5842  36.769   4.688  10.595
34227W        W 5843   7.694  30.540   2.720
34228W        W 5844   2.028  32.530  14.984
34229W        W 5845  43.576  11.899   3.356
34230W        W 5846  19.149  15.563   3.317
34231W        W 5847  26.528  19.317   2.683
34232W        W 5848   7.421  36.323  13.831
34233W        W 5849   3.101   7.147  11.453
34234W        W 5850   4.284  42.386   1.090
34235W        W 5851  29.732   4.416   0.452
34236W        W 5852   7.279  22.058  11.843
34237W        W 5853  32.085  20.816   1.311
34238W        W 5854  44.882  37.179   1.458
34239W        W 5855  12.231   9.623  12.502
34240W        W 5856  19.712  29.324   2.546
34241W        W 5857  16.761  29.959  11.571
34242W        W 5858  23.473  20.762  11.593
34243W        W 5859  41.597   3.660   1.229
34244W        W 5860  26.014  42.717   5.332
34245W        W 5861   5.805  27.698  11.912
34246W        W 5862   0.859  11.808   3.071
34247W        W 5863  11.658   4.496  13.915
34248W        W 5864  10.270  11.331  10.649
34249W        W 5865  32.998   4.620  10.753
34250W        W 5866  26.816  41.771  14.415
34251W        W 5867  33.984   9.887  13.386
34252W        W 5868  16.379  17.146  13.367
34253W        W 5869  41.240  25.390  11.618
34254W        W 5870  15.664   4.953   3.182
34255W        W 5871  31.447  18.643   3.824
34256W        W 5872  11.193  27.973  12.871
34257W        W 5873   7.015  13.795  10.946
34258W        W 5874  18.079  17.881  13.995
34259W        W 5875   3.699  40.394  10.422
34260W        W 5876  43.504  41.014   4.055
34261W        W 5877  25.122   9.646   2.257
34262W        W 5878  21.010  33.612  12.053
34263W        W 5879  38.072  29.675  13.454
34264W        W 5880  10.851   0.969   3.168
34265W        W 5881   2.661  27.016  12.462
34266W        W 5882  34.516  19.731   1.672
34267W        W 5883  30.453  42.737  11.117
34268W        W 5884  30.857  10.264   1.906
34269W        W 5885  31.127   8.710  14.432
34270W        W 5886  30.204  27.781   3.621
34271W        W 5887  42.594  21.250  13.489
34272W        W 5888  28.572   3.300  12.293
34273W        W 5889   7.364  39.551  12.742
34274W        W 5890  41.856  34.980  11.704
34275W        W 5891  39.571  34.793   4.647
34276W        W 5892  40.949   8.435  11.529
34277W        W 5893   2.259  42.743  13.620
34278W        W 5894  35.042  14.096   3.892
34279W        W 5895  39.195  38.046  10.700
34280W        W 5896  40.266   2.532  14.066
34281W        W 5897  26.567  29.180  13.396
34282W        W 5898   2.555  38.521   0.780
34283W        W 5899  42.978  13.743   2.849
34284W        W 5900  29.507  36.197   1.273
34285W        W 5901  25.866   0.328  12.053
34286W        W 5902  11.276  22.040  10.383
34287W        W 5903  10.275   4.351   4.193
34288W        W 5904  18.548  24.028  10.591
34289W        W 5905  38.923  13.155   4.506
34290W        W 5906  18.793  36.817  11.168
34291W        W 5907  30.563  23.099   4.246
34292W        W 5908  31.149  41.818   2.698
34293W        W 5909   9.022  30.208  14.783
34294W        W 5910  18.153  22.779   4.598
34295W        W 5911  31.818  33.062   0.972
34296W        W 5912  29.129  18.784   1.319
34297W        W 5913  35.917  31.412   1.770
34298W        W 5914  42.919   5.965  11.611
34299W        W 5915   0.905  30.484  14.905
34300W        W 5916  18.003  35.516  12.407
34301W        W 5917   9.565  43.125   4.915
34302W        W 5918  36.580  38.961   3.658
34303W        W 5919   8.493   1.041  11.284
34304W        W 5920   9.049  39.832   1.362
34305W        W 5921  16.738  18.678   2.386
34306W        W 5922  40.374  20.792   1.609
34307W        W 5923  21.499  10.392  11.504
34308W        W 5924  14.676  18.775   1.053
34309W        W 5925  27.660  30.420   0.891
34310W        W 5926   0.372  36.842  10.191
34311W        W 5927  18.376  40.337   1.819
34312W        W 5928  38.350  43.504   3.570
34313W        W 5929  28.146  17.510  13.918
34314W        W 5930  27.007  29.676   3.069
34315W        W 5931  44.079  31.157   2.338
34316W        W 5932  22.147  21.477   2.639
34317W        W 5933  24.337  12.632  11.600
34318W        W 5934  36.557  21.126  13.212
34319W        W 5935  13.059  18.573  11.390
34320W        W 5936  17.516  14.048   3.066
34321W        W 5937  36.940   1.763  13.663
34322W        W 5938  12.811   3.808   9.993
34323W        W 5939  10.854   6.226  13.818
34324W        W 5940  18.369  38.794   3.313
34325W        W 5941  26.649   3.331   2.852
34326W        W 5942   3.730  23.002  12.496
34327W        W 5943  13.351  31.317  11.726
34328W        W 5944   2.902   9.992  13.335
34329W        W 5945  36.373  32.144   0.278
34330W        W 5946   2.099   4.488   2.176
34331W        W 5947  12.768  16.501   4.566
34332W        W 5948   5.008  11.760   0.324
34333W        W 5949  10.847  25.980  13.503
34334W        W 5950  10.273  17.345   3.169
34335W        W 5951  11.271   8.235   0.512
34336W        W 5952   5.776  22.610   1.842
34337W        W 5953  41.908  42.895  11.164
34338W        W 5954  23.603  38.603  10.403
34339W        W 5955  37.309  31.016   0.139
34340W        W 5956  24.885  28.927   2.276
34341W        W 5957  24.139  35.006   4.170
34342W        W 5958  36.335  29.560  12.091
34343W        W 5959  13.883  40.935  13.305
34344W        W 5960   8.360  36.438  11.661
34345W        W 5961   7.833  44.862   2.832
34346W        W 5962  16.839  11.281  13.743
34347W        W 5963  38.371   8.833   2.289
34348W        W 5964   6.375  42.250  13.021
34349W        W 5965  39.033  19.735  13.128
34350W        W 5966  20.680  12.805  12.857
34351W        W 5967  13.117  29.956  10.607
34352W        W 5968   2.481  18.793  11.541
34353W        W 5969   2.757  24.255  11.650
34354W        W 5970  29.258  32.913   4.650
34355W        W 5971  38.267  27.139  13.684
34356W        W 5972   2.088  13.359  11.198
34357W        W 5973  12.852   5.496  13.139
34358W        W 5974  34.955  22.504  13.395
34359W        W 5975   2.891   0.376   4.887
34360W        W 5976  17.185  40.581  14.541
34361W        W 5977   5.242  38.915   0.697
34362W        W 5978  36.536  17.562   0.829
34363W        W 5979  33.510  41.333   1.682
34364W        W 5980  17.105  17.640  14.339
34365W        W 5981  27.483  10.172   1.030
34366W        W 5982   2.997  14.940   1.323
34367W        W 5983   4.259  26.573  14.766
34368W        W 5984  21.142  43.218   1.646
34369W        W 5985  17.077  12.327   4.600
34370W        W 5986   1.351  12.619   1.905
34371W        W 5987   6.677  39.765   3.676
34372W        W 5988  43.697   1.856  12.928
34373W        W 5989   3.344  39.949  14.967
34374W        W 5990   8.760  24.457  13.168
34375W        W 5991  43.199   6.013  12.028
34376W        W 5992  15.097   7.183  11.999
34377W        W 5993   3.500   1.729   1.933
34378W        W 5994  35.940  42.584  11.097
34379W        W 5995  44.733  18.112  14.383
34380W        W 5996   7.287  11.760  11.173
34381W        W 5997   9.275  43.464  12.916
34382W        W 5998   0.305   0.261   0.373
34383W        W 5999  35.927  43.047   0.257
34384W        W 6000  21.312  11.266  13.423
34385W        W 6001  31.326  18.789   1.936
34386W        W 6002  22.239  28.118  14.392
34387W        W 6003  10.843  37.926   1.209
34388W        W 6004   9.236  21.096  13.904
34389W        W 6005  17.801  36.404   4.393
34390W        W 6006  17.818  13.621   4.723
34391W        W 6007  23.112   8.243   4.661
34392W        W 6008  36.690  11.947   0.831
34393W        W 6009  16.129  43.071  12.629
34394W        W 6010  28.602   5.798   0.599
34395W        W 6011  34.358  19.035   2.351
34396W        W 6012   5.725  18.714  11.022
34397W        W 6013  22.652  35.937   4.309
34398W        W 6014  24.915  25.254  14.898
34399W        W 6015  37.374  30.462   1.474
34400W        W 6016   8.404  16.676  11.494
34401W        W 6017   6.122  36.430   2.728
34402W        W 6018  12.669   2.509  10.687
34403W        W 6019  23.565  32.934   3.350
34404W        W 6020  10.723   7.874   4.780
34405W        W 6021  44.268   9.410  11.629
34406W        W 6022  18.460  12.730  11.114
34407W        W 6023  40.626  41.354  11.641
34408W        W 6024  37.226  32.546  13.043
34409W        W 6025   9.132  38.573   3.506
34410W        W 6026  39.991  25.174   2.833
34411W        W 6027  23.750   3.482  12.521
34412W        W 6028  26.293  44.942  10.714
34413W        W 6029   1.846   0.981   9.701
34414W        W 6030  37.583   9.925   9.745
34415W        W 6031  33.765   6.419  14.751
34416W        W 6032  14.386  16.330   4.975
34417W        W 6033  11.083  17.473   1.746
34418W        W 6034   0.227  26.507   0.921
34419W        W 6035  16.968  24.541  13.353
34420W        W 6036  28.613  44.308   2.642
34421W        W 6037   4.744  16.261  11.675
34422W        W 6038  15.339   6.392   0.822
34423W        W 6039  34.356  18.107  11.901
34424W        W 6040  43.869   5.343   4.406
34425W        W 6041   9.181  44.848  13.333
34426W        W 6042  27.501  40.847  14.826
34427W        W 6043  17.985  27.094  10.740
34428W        W 6044  12.643  40.081   0.374
34429W        W 6045  17.043  24.992   2.961
34430W        W 6046  20.186  31.867  13.459
34431W        W 6047  31.688  17.654  13.808
34432W        W 6048  37.524   9.294   4.851
34433W        W 6049   0.885  32.630   1.693
34434W        W 6050   3.902  42.413   2.390
34435W        W 6051  34.367   9.565  14.370
34436W        W 6052  18.183   8.359   4.307
34437W        W 6053  20.957  29.362   1.329
34438W        W 6054  25.190  39.556  13.440
34439W        W 6055  37.618   2.163  12.196
34440W        W 6056  31.716   6.707   1.889
34441W        W 6057  16.356  39.397  10.718
34442W        W 6058  22.988  20.932   2.407
34443W        W 6059   6.906  34.105  11.052
34444W        W 6060   7.905  43.441   1.409
34445W        W 6061  33.188  11.404  12.973
34446W        W 6062  26.629  22.455   9.673
34447W        W 6063  19.389   2.627   5.022
34448W        W 6064  23.434  17.757   1.253
34449W        W 6065  41.602  21.227   1.536
34450W        W 6066  29.608  21.080   0.175
34451W        W 6067  18.362  17.725   4.402
34452W        W 6068  20.218  13.133   3.240
34453W        W 6069  26.981  10.076  13.375
34454W        W 6070   1.444  18.582   3.997
34455W        W 6071   1.204  14.677   1.796
34456W        W 6072  20.197  40.008  11.184
34457W        W 6073   5.767  33.040   4.122
34458W        W 6074  16.810   6.401  13.479
34459W        W 6075  20.711  14.402   2.252
34460W        W 6076  14.128  34.828   1.015
34461W        W 6077  39.065   3.267  11.920
34462W        W 6078  19.599  28.047  11.554
34463W        W 6079  16.496  22.291  11.958
34464W        W 6080  34.627  36.147   5.042
34465W        W 6081  15.164  14.960   0.745
34466W        W 6082  29.945  39.070   4.062
34467W        W 6083   6.425  41.406  12.845
34468W        W 6084   5.840   5.639   1.765
34469W        W 6085  41.396   2.916  10.697
34470W        W 6086   3.714  21.803   3.627
34471W        W 6087  32.361   0.839  13.968
34472W        W 6088   4.353  20.705  12.193
34473W        W 6089  11.904  14.197  12.442
34474W        W 6090  20.857   5.937   3.326
34475W        W 6091  20.378  22.586  13.074
34476W        W 6092  29.618  38.570  12.052
34477W        W 6093   0.914  34.919   1.608
34478W        W 6094  12.264  36.038  11.993
34479W        W 6095   1.361  28.921  10.928
34480W        W 6096  32.960  28.596   5.688
34481W        W 6097  19.270  31.869  13.215
34482W        W 6098  27.724  32.871   3.320
34483W        W 6099  38.557   8.126  13.948
34484W        W 6100  19.441  14.940  12.108
34485W        W 6101  28.989  26.846   0.521
34486W        W 6102  41.741  33.404  11.963
34487W        W 6103  29.180  18.530   2.696
34488W        W 6104  43.029  43.975   4.244
34489W        W 6105  22.431  11.708  12.674
34490W        W 6106  12.869   8.370  14.436
34491W        W 6107  27.394  11.571   4.505
34492W        W 6108  43.029  23.618   1.181
34493W        W 6109  42.815   0.689  11.607
34494W        W 6110  11.709  39.992   0.302
34495W        W 6111  41.819  31.817   4.680
34496W        W 6112  34.504  30.247  14.323
34497W        W 6113  23.013  43.198  13.283
34498W        W 6114  12.136  19.220   4.901
34499W        W 6115  24.563  28.152  12.575
34500W        W 6116  15.232  38.939   2.304
34501W        W 6117   3.656  18.078   1.501
34502W        W 6118  29.205   4.175   2.211
34503W        W 6119  33.561  24.676   1.956
34504W        W 6120  18.343  30.086   0.913
34505W        W 6121  32.662   8.291  11.558
34506W        W 6122  36.630  13.376   4.732
34507W        W 6123   4.445  25.677   0.229
34508W        W 6124  10.287  21.207  10.597
34509W        W 6125  44.180  17.756  13.948
34510W        W 6126   1.349  13.195  10.736
34511W        W 6127  23.157  14.779   1.456
34512W        W 6128  10.599   4.168   0.914
34513W        W 6129  39.130  42.642   1.353
34514W        W 6130  31.519  22.188  10.581
34515W        W 6131  13.087  13.601  12.582
34516W        W 6132  40.431  25.616  10.880
34517W        W 6133   3.132   1.621   1.302
34518W        W 6134   7.143  34.912  12.633
34519W        W 6135   5.118  29.746   9.798
34520W        W 6136   2.780  44.104  10.473
34521W        W 6137  23.272  31.932  14.227
34522W        W 6138  27.793  29.440   2.297
34523W        W 6139  38.336  38.362   2.580
34524W        W 6140   8.801   4.478  12.318
34525W        W 6141  14.366  12.700  14.453
34526W        W 6142   0.875  13.018   1.251
34527W        W 6143  34.188   0.362  10.680
34528W        W 6144  31.307  34.861  13.375
34529W        W 6145   8.668  21.126  13.930
34530W        W 6146  16.433  36.944  13.601
34531W        W 6147  22.625  36.516  13.811
34532W        W 6148  31.073  41.245   4.738
34533W        W 6149  12.968   3.976   3.684
34534W        W 6150   7.935   8.268   2.835
34535W        W 6151   4.181  10.627  11.576
34536W        W 6152  40.504  40.769   0.971
34537W        W 6153  37.348  14.507   4.122
34538W        W 6154  31.501  22.748   4.215
34539W        W 6155  18.082  36.891   1.349
34540W        W 6156  16.711  33.433   4.579
34541W        W 6157  31.499  14.876   1.860
34542W        W 6158  22.517   1.445   3.990
34543W        W 6159  39.340  19.147  14.694
34544W        W 6160  30.946  14.336  12.041
34545W        W 6161  29.313  42.022   0.291
34546W        W 6162  44.517  36.785   2.662
34547W        W 6163  30.110  34.971  14.946
34548W        W 6164  18.757   5.873  11.642
34549W        W 6165  25.760  12.131  11.224
34550W        W 6166  15.876  41.743  13.971
34551W        W 6167  11.827  44.249  11.122
34552W        W 6168  42.878  38.836   1.603
34553W        W 6169  11.962  19.563   4.538
34554W        W 6170   0.837  21.561  14.939
34555W        W 6171   2.937   4.595  12.847
34556W        W 6172   4.276  17.850  12.549
34557W        W 6173  30.186  16.522   1.749
34558W        W 6174   7.710  26.728   1.710
34559W        W 6175  13.689  27.372   1.800
34560W        W 6176  38.335  11.201   3.154
34561W        W 6177   0.931  18.788   3.671
34562W        W 6178  10.810  43.668   3.634
34563W        W 6179  32.878  24.196   1.664
34564W        W 6180  18.107   3.284  11.041
34565W        W 6181  26.718  29.014  14.768
34566W        W 6182  12.916  25.174   3.783
34567W        W 6183   3.571  19.291   1.934
34568W        W 6184   6.735  38.345  13.427
34569W        W 6185  25.752  12.912  10.273
34570W        W 6186  21.750  34.818   4.525
34571W        W 6187  44.581  13.857   1.782
34572W        W 6188  18.820  18.585   4.294
34573W        W 6189   1.164  15.130   1.198
34574W        W 6190  32.105  13.251  14.906
34575W        W 6191  12.268  16.180   3.098
34576W        W 6192  18.308  21.823  11.911
34577W        W 6193  39.015  27.547   3.254
34578W        W 6194  19.294  32.438   2.356
34579W        W 6195  39.474  36.831  11.539
34580W        W 6196   3.511  11.851   3.855
34581W        W 6197  23.218  23.542  12.961
34582W        W 6198  25.189  34.174  13.090
34583W        W 6199  44.314  41.080   2.571
34584W        W 6200  21.467  14.318   2.779
34585W        W 6201  27.745  14.744  12.016
34586W        W 6202   6.342  37.049  14.256
34587W        W 6203  30.946  41.750   3.167
34588W        W 6204  42.508  15.614  13.156
34589W        W 6205  13.913  26.576   3.257
34590W        W 6206  37.636  14.177   4.777
34591W        W 6207  35.462  24.551  12.922
34592W        W 6208  30.087  32.891   4.363
34593W        W 6209  44.602  41.477  11.633
34594W        W 6210   2.649  29.251   2.692
34595W        W 6211   1.512   0.588   2.293
34596W        W 6212  25.461  17.243   0.895
34597W        W 6213  14.510  36.358   3.065
34598W        W 6214  25.501   1.375   1.941
34599W        W 6215  14.758   6.821   5.507
34600W        W 6216  29.699  44.454  11.901
34601W        W 6217  27.184  17.611  10.347
34602W        W 6218  37.918   6.854  13.293
34603W        W 6219  12.713  26.061  10.911
34604W        W 6220  18.726  20.979  13.182
34605W        W 6221   2.514  10.159   1.293
34606W        W 6222  40.543  32.697   4.084
34607W        W 6223   8.839   3.711   1.673
34608W        W 6224   0.848  29.195   3.244
34609W        W 6225  27.674  22.170  10.723
34610W        W 6226  34.148  28.441  13.911
34611W        W 6227  27.255   5.465  14.802
34612W        W 6228   3.121   8.331  11.113
34613W        W 6229  34.883  17.073   4.089
34614W        W 6230  27.609  38.340  12.488
34615W        W 6231  33.520  39.123   9.720
34616W        W 6232  29.969   3.922   3.306
34617W        W 6233   4.138  16.681  13.225
34618W        W 6234  13.363  39.788   1.365
34619W        W 6235   8.792  37.066   0.861
34620W        W 6236  10.276  12.988   1.912
34621W        W 6237   1.412  30.916   2.374
34622W        W 6238  12.475  10.276   3.332
34623W        W 6239  21.995  39.089  14.770
34624W        W 6240  24.482  35.427  12.623
34625W        W 6241  37.104  27.801  11.895
34626W        W 6242  40.958  23.023   3.664
34627W        W 6243  44.896  27.737  12.158
34628W        W 6244  16.532  18.040  14.808
34629W        W 6245  27.389  34.933   3.255
34630W        W 6246  28.943  10.281  11.601
34631W        W 6247  35.220  16.110  11.603
34632W        W 6248   8.569  44.556   1.952
34633W        W 6249  13.858  36.874  12.116
34634W        W 6250  42.343  18.009   4.163
34635W        W 6251  31.639   2.961   4.049
34636W        W 6252  35.455   9.990   1.726
34637W        W 6253  30.027  39.507  11.887
34638W        W 6254  16.115  18.163  12.778
34639W        W 6255  38.457   9.869  10.906
34640W        W 6256  38.216  24.199  12.577
34641W        W 6257   6.224   2.270  10.583
34642W        W 6258  26.750   1.073   2.287
34643W        W 6259  32.641   7.096  13.486
34644W        W 6260  18.286  32.070   4.818
34645W        W 6261  38.459  15.664   2.764
34646W        W 6262  44.154   8.343  11.070
34647W        W 6263   4.317   8.929   4.458
34648W        W 6264  41.543  27.299  13.529
34649W        W 6265  26.500   6.487  14.833
34650W        W 6266  26.769  20.724  14.536
34651W        W 6267  39.124  33.691  14.435
34652W        W 6268  34.972   8.791   0.448
34653W        W 6269  33.457  31.123  12.763
34654W        W 6270   0.198  13.790  10.998
34655W        W 6271  35.372  30.904  12.936
34656W        W 6272  27.128   7.249   3.949
34657W        W 6273  39.923  33.703   5.232
34658W        W 6274   7.852  41.801  13.585
34659W        W 6275  32.976  33.917  14.405
34660W        W 6276  14.166  23.611  10.759
34661W        W 6277   0.973  38.322  12.413
34662W        W 6278  41.389  10.178   1.737
34663W        W 6279  25.429  16.634  14.018
34664W        W 6280  36.106  34.299   3.549
34665W        W 6281  43.704  27.224  10.224
34666W        W 6282  36.950  27.419   0.374
34667W        W 6283  16.590  35.367   1.890
34668W        W 6284  19.930  25.785  14.860
34669W        W 6285  16.562  41.416   1.314
34670W        W 6286  28.329  31.883   9.588
34671W        W 6287  41.511  16.070   2.285
34672W        W 6288  13.351  36.878  12.150
34673W        W 6289  44.049   8.423  13.927
34674W        W 6290  38.759  27.090  13.490
34675W        W 6291   9.395  21.867   2.107
34676W        W 6292  27.547  43.385  11.013
34677W        W 6293  14.705  28.373   2.699
34678W        W 6294   2.557  44.006  11.505
34679W        W 6295   0.196   8.824  13.900
34680W        W 6296   9.871   9.920  14.413
34681W        W 6297   2.703  11.729   4.559
34682W        W 6298  41.055  12.550  12.042
34683W        W 6299  41.473  10.758  14.474
34684W        W 6300  38.835  44.264  12.531
34685W        W 6301  38.066  10.971   2.759
34686W        W 6302   5.490  18.826   3.354
34687W        W 6303  39.275  35.873  13.157
34688W        W 6304  18.779  35.347   2.778
34689W        W 6305  17.188  26.756  11.429
34690W        W 6306  44.410   0.805  11.489
34691W        W 6307  37.097  32.275  11.036
34692W        W 6308  22.828  23.399   4.214
34693W        W 6309  25.259  44.399  13.462
34694W        W 6310   6.395   4.702  13.428
34695W        W 6311  26.952   9.320  11.640
34696W        W 6312   3.504   4.626   1.865
34697W        W 6313  40.321  22.605   3.881
34698W        W 6314   8.826  22.507   5.291
34699W        W 6315  44.815   0.720   2.662
34700W        W 6316  19.054  21.153   0.909
34701W        W 6317  19.636  37.018   0.039
34702W        W 6318  27.145  11.590  14.060
34703W        W 6319  38.366  27.990  13.333
34704W        W 6320  40.058  37.782  14.663
34705W        W 6321  32.893  42.163  11.078
34706W        W 6322  38.321  34.031   4.535
34707W        W 6323  39.070  25.166   2.430
34708W        W 6324  38.931  27.141   2.959
34709W        W 6325  32.437  16.462   3.686
34710W        W 6326  37.004  17.623   1.399
34711W        W 6327  39.306  30.240  12.869
34712W        W 6328  24.758   1.915   4.693
34713W        W 6329  32.146  44.219   1.224
34714W        W 6330  17.094  21.244  12.066
34715W        W 6331   2.210  32.078  10.711
34716W        W 6332  27.135  43.945   0.425
34717W        W 6333  23.836  36.357   4.232
34718W        W 6334  15.653  23.102   1.233
34719W        W 6335  12.551   9.115  12.020
34720W        W 6336   8.248  23.077  13.516
34721W        W 6337  27.211  22.161  13.321
34722W        W 6338  43.018  13.416   3.823
34723W        W 6339  34.203   1.750   2.715
34724W        W 6340   4.853  23.287   5.138
34725W        W 6341  40.482  38.973  11.212
34726W        W 6342  39.901   9.040  14.511
34727W        W 6343  16.112  13.494   4.173
34728W        W 6344   4.698  13.648   4.613
34729W        W 6345  15.533  18.735  13.363
34730W        W 6346  39.378  33.077   1.191
34731W        W 6347  14.819  19.725   4.531
34732W        W 6348  18.393  28.055   5.047
34733W        W 6349  15.316  14.040  10.445
34734W        W 6350   4.753   9.703   0.792
34735W        W 6351  26.942   1.327  11.263
34736W        W 6352  12.667   1.205   4.563
34737W        W 6353  13.047  18.562   4.321
34738W        W 6354  16.710   1.896  12.576
34739W        W 6355  41.771  12.750  14.822
34740W        W 6356  26.069  38.403   2.205
34741W        W 6357  11.454  30.148   4.627
34742W        W 6358   3.722  26.661   2.992
34743W        W 6359  26.894  32.905   3.646
34744W        W 6360  29.464  30.019   3.404
34745W        W 6361  27.744   8.572   4.520
34746W        W 6362  43.928   1.416   4.107
34747W        W 6363  12.564  41.589  11.120
34748W        W 6364   1.674   0.750   4.741
34749W        W 6365  11.302  31.160  11.948
34750W        W 6366   0.223  16.590  13.119
34751W        W 6367  30.164  41.518   3.713
34752W        W 6368  10.693  37.674   0.771
34753W        W 6369  36.659  35.532  11.169
34754W        W 6370  32.876   1.520   1.508
34755W        W 6371  42.797  11.637   0.722
34756W        W 6372  18.010   9.449  11.988
34757W        W 6373  20.051  24.485  14.813
34758W        W 6374  17.295  42.252   4.142
34759W        W 6375  23.486   6.235   4.614
34760W        W 6376   9.457  39.522  11.497
34761W        W 6377  41.891   1.859   4.588
34762W        W 6378  30.151  26.054   3.604
34763W        W 6379  35.250  16.881   4.931
34764W        W 6380  41.570  43.799   1.279
34765W        W 6381   3.235  40.710   3.621
34766W        W 6382  31.198  32.476   0.402
34767W        W 6383  32.389  30.994   0.751
34768W        W 6384  19.217  14.359  10.789
34769W        W 6385   0.949   3.342   1.664
34770W        W 6386  20.834  30.334  12.457
34771W        W 6387  27.837  23.293  12.034
34772W        W 6388  41.428  21.915  14.813
34773W        W 6389  34.544   8.789   3.468
34774W        W 6390  12.406  17.769  11.622
34775W        W 6391  44.760  24.261   3.191
34776W        W 6392  13.567  12.603   0.896
34777W        W 6393  35.152  20.202  13.772
34778W        W 6394  33.400  12.367   2.691
34779W        W 6395  39.027   4.321   0.186
34780W        W 6396  12.747   2.208   0.744
34781W        W 6397  28.488   9.597   2.304
34782W        W 6398  18.462   4.829   0.943
34783W        W 6399  40.951   6.406  12.640
34784W        W 6400   8.845   7.736   4.583
34785W        W 6401   6.645  35.891  12.880
34786W        W 6402  40.788   0.951  13.978
34787W        W 6403   1.862  36.190   4.261
34788W        W 6404  39.758  41.594   2.904
34789W        W 6405  40.361  37.325  12.916
34790W        W 6406  17.238  44.547   3.248
34791W        W 6407  40.721  28.960   0.839
34792W        W 6408  33.625  14.288  12.948
34793W        W 6409  21.413   7.302   2.923
34794W        W 6410   6.195  29.118  14.903
34795W        W 6411  26.225  17.335  14.133
34796W        W 6412  39.111  22.633  10.037
34797W        W 6413  30.218  30.952   4.785
34798W        W 6414  43.123  43.478   2.667
34799W        W 6415   1.941  35.932  14.230
34800W        W 6416  36.869  41.663   1.195
34801W        W 6417   4.010   2.932  13.744
34802W        W 6418  41.349  11.169   0.767
34803W        W 6419  38.774  28.004  12.663
34804W        W 6420   4.443  14.336   3.005
34805W        W 6421  36.319   7.683   0.826
34806W        W 6422  30.420  11.644   4.638
34807W        W 6423  22.249  37.431   3.310
34808W        W 6424  21.575  42.238  12.435
34809W        W 6425  10.717  20.949   0.759
34810W        W 6426  33.040   3.914   3.155
34811W        W 6427  28.526   2.898  11.178
34812W        W 6428  15.150  15.077   3.213
34813W        W 6429  34.972   6.705   2.656
34814W        W 6430  25.129   6.150   0.400
34815W        W 6431  23.110   2.971   4.840
34816W        W 6432  39.657   8.831  10.980
34817W        W 6433  32.855  20.959   1.839
34818W        W 6434   3.634  39.521   1.287
34819W        W 6435   3.691  17.745   2.893
34820W        W 6436  28.385  13.536   9.620
34821W        W 6437  35.387   4.633  10.373
34822W        W 6438  31.923  23.947   4.624
34823W        W 6439  44.423  11.105   2.403
34824W        W 6440  14.009   7.700   5.070
34825W        W 6441   7.305   1.310   2.230
34826W        W 6442  32.621  31.939   4.761
34827W        W 6443  32.000   0.685  13.301
34828W        W 6444  23.338  31.382   2.228
34829W        W 6445  44.993  38.785   0.726
34830W        W 6446  19.803  15.170  13.745
34831W        W 6447  15.833  35.018   2.685
34832W        W 6448   7.098  34.708  14.381
34833W        W 6449  38.942  18.359   5.362
34834W        W 6450  40.616  31.544  11.941
34835W        W 6451  41.812  24.395  12.394
34836W        W 6452  42.278  39.059  12.913
34837W        W 6453  31.024  10.733   0.803
34838W        W 6454  32.676  33.629   1.867
34839W        W 6455  38.557   6.850   1.537
34840W        W 6456  15.292  15.109   5.124
34841W        W 6457   8.285  15.611   1.930
34842W        W 6458  38.766  16.637  11.188
34843W        W 6459  31.018  17.110   2.731
34844W        W 6460   8.415  22.594  10.542
34845W        W 6461  15.144  17.183   0.267
34846W        W 6462   4.140  15.810  13.876
34847W        W 6463  31.311  30.996  12.902
34848W        W 6464  31.656  22.203  13.735
34849W        W 6465  35.125  24.726   1.881
34850W        W 6466  41.352  44.329  14.867
34851W        W 6467  22.486  20.548  13.900
34852W        W 6468  37.375  13.597  10.258
34853W        W 6469  33.444  10.202   3.684
34854W        W 6470   2.304  40.822   3.180
34855W        W 6471  33.687  34.571  12.227
34856W        W 6472  37.435  24.889  13.840
34857W        W 6473  22.972   6.033  11.986
34858W        W 6474   0.404  39.763  14.262
34859W        W 6475  43.567   4.983   2.644
34860W        W 6476  24.041  41.506  11.106
34861W        W 6477   1.371   8.820  10.330
34862W        W 6478  32.312  16.200   2.448
34863W        W 6479  12.109  26.463   3.845
34864W        W 6480  23.635   6.720  10.977
34865W        W 6481  10.674  30.497   0.676
34866W        W 6482  35.934  38.101  11.030
34867W        W 6483  27.593  34.355  12.391
34868W        W 6484  33.213  34.523   4.616
34869W        W 6485  27.712  27.585   3.270
34870W        W 6486   9.428  22.095  14.936
34871W        W 6487  19.797  13.306   2.476
34872W        W 6488  36.394  34.399  14.777
34873W        W 6489  38.534  14.273   1.758
34874W        W 6490  23.699  29.664  12.582
34875W        W 6491  33.581  42.708  14.443
34876W        W 6492  11.906  35.611   4.246
34877W        W 6493   9.372  15.570   0.899
34878W        W 6494   0.600   0.445  14.977
34879W        W 6495  23.978  37.827   1.814
34880W        W 6496  25.629  14.445  11.592
34881W        W 6497   2.730  17.263   0.645
34882W        W 6498  42.163   2.876  10.812
34883W        W 6499  44.405  40.596  10.701
34884W        W 6500  24.310  20.144  12.681
34885W        W 6501  26.601  24.498   1.393
34886W        W 6502   0.933  32.946   0.530
34887W        W 6503  36.016  44.612  10.253
34888W        W 6504   9.302   1.842   1.337
34889W        W 6505   6.851  35.924   2.172
34890W        W 6506   2.230  13.310   4.601
34891W        W 6507  16.516  38.021  13.825
34892W        W 6508   7.087  10.242   2.161
34893W        W 6509  42.362  44.555   4.235
34894W        W 6510   6.631  31.507  14.295
34895W        W 6511  26.361  37.948  10.765
34896W        W 6512  32.142  37.830  11.978
34897W        W 6513   3.363  14.022   1.047
34898W        W 6514   8.274  34.886   0.781
34899W        W 6515   2.415  28.493  11.001
34900W        W 6516  30.693  14.381  11.213
34901W        W 6517  33.412  31.438  13.509
34902W        W 6518  18.179  42.129   1.252
34903W        W 6519  16.757  32.849  11.949
34904W        W 6520  36.426  31.569  11.927
34905W        W 6521  38.525   9.665  11.887
34906W        W 6522  10.889  17.799   2.702
34907W        W 6523  44.536  23.058  12.061
34908W        W 6524  12.385  21.459  13.536
34909W        W 6525  39.362  11.269   1.811
34910W        W 6526  11.023  17.305   3.840
34911W        W 6527  36.632   8.895  14.553
34912W        W 6528   6.311  11.373  13.820
34913W        W 6529  29.981  31.874  12.089
34914W        W 6530  38.642  11.905   0.251
34915W        W 6531  29.979  28.604  12.515
34916W        W 6532  39.079  28.739  10.705
34917W        W 6533  41.961   9.181   1.233
34918W        W 6534   2.893   0.272  14.613
34919W        W 6535   6.215  35.087  11.564
34920W        W 6536   5.138   7.633  13.021
34921W        W 6537  29.447  26.464   3.766
34922W        W 6538  41.695  34.558  12.021
34923W        W 6539   4.386  44.256  13.895
34924W        W 6540  31.115   7.251   4.901
34925W        W 6541  26.600  10.397   2.236
34926W        W 6542  31.494  19.200   3.862
34927W        W 6543  41.371  11.224   2.570
34928W        W 6544  41.776  12.786   3.750
34929W        W 6545   0.467  13.740  13.975
34930W        W 6546  12.010  29.448   4.313
34931W        W 6547   7.913   8.884  10.088
34932W        W 6548   1.007  25.895   1.761
34933W        W 6549  38.777   5.224  11.587
34934W        W 6550  41.117   7.855   1.837
34935W        W 6551  26.574   6.867  13.557
34936W        W 6552  39.977  41.812  13.628
34937W        W 6553  40.599  37.959  13.633
34938W        W 6554  33.176  36.781  14.381
34939W        W 6555  31.463  29.575  13.989
34940W        W 6556  33.059  33.949   1.696
34941W        W 6557  14.857  33.903  10.524
34942W        W 6558   3.699  21.567   1.366
34943W        W 6559  12.947  19.610  11.590
34944W        W 6560  42.349  31.642   2.581
34945W        W 6561  39.988  15.870   2.716
34946W        W 6562  15.651  31.529   0.971
34947W        W 6563  40.364  30.017   1.157
34948W        W 6564  41.436   9.344   2.905
34949W        W 6565   4.961  35.548   3.241
34950W        W 6566  37.528  37.785   4.155
34951W        W 6567  18.069   5.545   2.726
34952W        W 6568  38.501  11.500   1.359
34953W        W 6569  21.531  21.326  10.117
34954W        W 6570  10.447  10.864  14.845
34955W        W 6571  14.348  18.111   1.724
34956W        W 6572  42.278  24.130   1.418
34957W        W 6573  19.565  16.665   3.743
34958W        W 6574  28.054  38.307   0.749
34959W        W 6575  22.168  37.889   1.972
34960W        W 6576  41.884  25.636  12.061
34961W        W 6577  44.083  24.057  14.332
34962W        W 6578   9.651  26.553   4.171
34963W        W 6579  12.106  30.066  10.733
34964W        W 6580   2.592  16.709   2.287
34965W        W 6581   6.448  16.587   4.143
34966W        W 6582  30.022  40.841   4.292
34967W        W 6583  43.262  42.826  11.622
34968W        W 6584  14.599  29.457  11.686
34969W        W 6585  41.015  15.306  12.665
34970W        W 6586  19.458  23.277  14.650
34971W        W 6587   0.662   5.454  14.690
34972W        W 6588  29.585   6.730   1.819
34973W        W 6589  22.802  17.280  11.023
34974W        W 6590  36.567  25.775  13.370
34975W        W 6591  12.963  34.688   2.809
34976W        W 6592  17.009  33.515   0.114
34977W        W 6593  24.990  18.554   0.000
34978W        W 6594   1.436  10.830  11.180
34979W        W 6595  11.134  34.440   4.181
34980W        W 6596  39.344  15.505   2.804
34981W        W 6597  39.243  37.862  14.926
34982W        W 6598  39.505  33.560  13.561
34983W        W 6599  16.147  40.795  12.326
34984W        W 6600  36.504  33.104  11.162
34985W        W 6601  28.501  26.447   2.895
34986W        W 6602  30.264  18.088  11.331
34987W        W 6603  11.708  25.626  11.316
34988W        W 6604  10.335  31.627  10.595
34989W        W 6605   2.952  28.344   0.662
34990W        W 6606  38.621   8.209   1.842
34991W        W 6607  11.598  18.069  12.634
34992W        W 6608  10.362  31.965  14.072
34993W        W 6609  18.029   5.142   4.144
34994W        W 6610   3.793   9.377   1.691
34995W        W 6611   9.896  28.996   1.807
34996W        W 6612  28.895  42.898   0.875
34997W        W 6613  25.810  38.886  13.071
34998W        W 6614  37.917  43.953   0.449
34999W        W 6615  16.586  38.565  11.131
35000W        W 6616  33.438  42.546  10.590
35001W        W 6617   8.997  36.925  13.259
35002W        W 6618  20.765   0.510  13.370
35003W        W 6619   8.750   1.720   4.567
35004W        W 6620   2.323   4.812   3.606
35005W        W 6621  20.332  26.037  11.125
35006W        W 6622  20.085  38.627   1.811
35007W        W 6623   2.987  27.019   0.736
35008W        W 6624  35.418  28.617   3.566
35009W        W 6625  40.807  29.977  13.807
35010W        W 6626  42.621  22.815  13.063
35011W        W 6627   4.657  22.687  11.096
35012W        W 6628  10.711  12.163   4.038
35013W        W 6629   8.958  21.717   0.747
35014W        W 6630   9.436  27.167   2.804
35015W        W 6631  15.280   6.829  11.548
35016W        W 6632  13.632  15.875  12.944
35017W        W 6633   4.932  26.923  13.614
35018W        W 6634   5.441  11.913  13.147
35019W        W 6635   3.442  11.176  12.346
35020W        W 6636  10.309  10.201   2.248
35021W        W 6637   0.345  24.138   1.951
35022W        W 6638   0.518   1.910  13.510
35023W        W 6639  12.039  40.426   1.337
35024W        W 6640  16.325   5.694  13.786
35025W        W 6641  30.453  24.755  14.943
35026W        W 6642  10.202   0.731  10.897
35027W        W 6643  34.987  24.206   4.905
35028W        W 6644  43.452   9.956  13.400
35029W        W 6645   5.449  23.548   0.276
35030W        W 6646   3.807  37.745  14.516
35031W        W 6647  33.588  17.231   0.281
35032W        W 6648  14.794  25.117  12.878
35033W        W 6649  12.222   0.231  14.924
35034W        W 6650  23.048  39.537  11.883
35035W        W 6651  36.817  12.767   3.604
35036W        W 6652   1.813   8.395  11.185
35037W        W 6653  27.730  27.669  14.004
35038W        W 6654   4.310  20.109   0.065
35039W        W 6655  33.084   0.707   3.179
35040W        W 6656   0.233  19.582   4.469
35041W        W 6657  30.015  10.174  14.235
35042W        W 6658  38.972  15.670  12.146
35043W        W 6659  32.651  11.800  13.559
35044W        W 6660  40.309   7.230   2.898
35045W        W 6661   5.877  20.625  10.680
35046W        W 6662  26.452   7.294  12.376
35047W        W 6663   2.248  30.008   1.295
35048W        W 6664   6.526  34.895  14.397
35049W        W 6665  40.016  27.379   0.211
35050W        W 6666  17.215   4.483  14.604
35051W        W 6667  28.132   6.321   0.262
35052W        W 6668  40.310  28.419  13.449
35053W        W 6669  24.121  39.506  10.582
35054W        W 6670  36.915  43.770  13.862
35055W        W 6671  26.701   4.470  13.371
35056W        W 6672  20.045  32.297   0.282
35057W        W 6673  43.479  35.464  12.583
35058W        W 6674  18.912  10.118  12.202
35059W        W 6675  20.316  25.198  12.024
35060W        W 6676  20.691  39.990   1.812
35061W        W 6677  25.553  17.312  12.462
35062W        W 6678  19.040  29.982   4.393
35063W        W 6679  15.593   4.262   0.316
35064W        W 6680  18.516  22.284  11.996
35065W        W 6681  29.095   5.476   3.802
35066W        W 6682  43.839  19.166   2.760
35067W        W 6683   4.946  19.064   2.185
35068W        W 6684  16.197  41.768   1.717
35069W        W 6685  25.412  37.606  14.740
35070W        W 6686  20.665  22.129  11.939
35071W        W 6687  29.605  13.112  11.066
35072W        W 6688   5.124  25.839   3.286
35073W        W 6689  31.397   1.362  11.563
35074W        W 6690  17.374  30.425  10.189
35075W        W 6691  34.386   4.945   3.661
35076W        W 6692   0.917  33.087   0.026
35077W        W 6693  11.365  33.082   3.602
35078W        W 6694   3.253   6.963  14.834
35079W        W 6695  39.581   9.300  12.153
35080W        W 6696  36.993  13.811   4.525
35081W        W 6697  12.146  23.473  11.327
35082W        W 6698   6.048  13.377  14.174
35083W        W 6699  31.111  12.578   4.569
35084W        W 6700   7.857  36.369  12.062
35085W        W 6701  10.428   2.958   1.486
35086W        W 6702  16.346  38.998  12.920
35087W        W 6703  44.273  37.941  12.047
35088W        W 6704  40.485  37.947  12.116
35089W        W 6705  12.262  43.049   2.008
35090W        W 6706  38.454  12.388  10.634
35091W        W 6707  18.069  31.355  12.573
35092W        W 6708  24.259  39.899  13.264
35093W        W 6709  12.389  30.836   3.348
35094W        W 6710  20.259  27.154   2.691
35095W        W 6711   3.796   7.090   3.795
35096W        W 6712  15.838  20.184  10.712
35097W        W 6713   0.981  31.124   4.482
35098W        W 6714   5.961  41.294  10.724
35099W        W 6715   1.458   9.169   0.219
35100W        W 6716  32.581   3.702   1.370
35101W        W 6717  18.015  42.563   0.193
35102W        W 6718  31.946  23.053  10.433
35103W        W 6719  31.448  43.014  11.074
35104W        W 6720   0.166  12.346  14.434
35105W        W 6721  23.459   3.878  13.930
35106W        W 6722   0.855  39.411   4.718
35107W        W 6723  33.308  16.838   0.475
35108W        W 6724  38.625  41.227  11.995
35109W        W 6725  22.524  43.923  13.265
35110W        W 6726  38.344  17.102  14.299
35111W        W 6727   6.183  10.231   1.639
35112W        W 6728  29.094  13.814  11.926
35113W        W 6729  25.783  36.608   1.295
35114W        W 6730  19.580  37.832   1.845
35115W        W 6731  36.982  34.420   3.106
35116W        W 6732  34.885  34.675  13.472
35117W        W 6733  20.702   8.388  13.546
35118W        W 6734   2.866   2.209   3.109
35119W        W 6735   6.375  26.974   0.374
35120W        W 6736  35.614   0.827   1.786
35121W        W 6737   5.671  28.570   0.478
35122W        W 6738  23.024  15.696  11.822
35123W        W 6739  36.594   0.828  12.772
35124W        W 6740  11.549  32.471   4.273
35125W        W 6741  29.433  23.149  14.851
35126W        W 6742  38.943  27.413  11.964
35127W        W 6743  17.830  10.776  11.365
35128W        W 6744  11.753   2.903   4.624
35129W        W 6745   7.297  11.671  10.658
35130W        W 6746  43.371  38.833  12.414
35131W        W 6747  33.999   6.284  13.529
35132W        W 6748  31.435  23.456   1.127
35133W        W 6749   7.247  39.994   4.441
35134W        W 6750  24.570  25.296  12.688
35135W        W 6751   7.148  28.231   1.493
35136W        W 6752  28.958  12.807   0.616
35137W        W 6753  35.677   1.946  11.266
35138W        W 6754  33.564  23.559  10.800
35139W        W 6755  21.226   9.651  11.021
35140W        W 6756  28.500  31.294   1.608
35141W        W 6757  31.609   5.138   0.903
35142W        W 6758  26.479   3.980  12.454
35143W        W 6759  39.284  44.468  12.427
35144W        W 6760  14.041  19.682   4.158
35145W        W 6761  30.068  32.165  13.385
35146W        W 6762  15.685   3.669   2.639
35147W        W 6763  41.376  13.846   2.783
35148W        W 6764   2.434  34.617   2.230
35149W        W 6765  29.148  34.490   4.233
35150W        W 6766  36.054  40.061   4.180
35151W        W 6767   7.215  13.119   3.256
35152W        W 6768  18.222   3.655   0.715
35153W        W 6769  37.337  34.845   0.916
35154W        W 6770  36.952  43.748   4.621
35155W        W 6771  27.939   8.101  12.861
35156W        W 6772  33.367  23.028   3.366
35157W        W 6773  35.938   2.079   4.125
35158W        W 6774  33.828  37.872   2.773
35159W        W 6775   4.085  40.527   0.434
35160W        W 6776  29.065  18.358  14.061
35161W        W 6777  18.670   6.430  14.912
35162W        W 6778  40.739  34.087   2.290
35163W        W 6779  37.383  13.570   1.194
35164W        W 6780  41.813  11.315   4.539
35165W        W 6781  15.819  43.771  12.940
35166W        W 6782   3.592  15.078  12.491
35167W        W 6783  32.885  13.060  12.618
35168W        W 6784  29.118  41.322   2.102
35169W        W 6785  35.557  30.046   1.327
35170W        W 6786  16.746  21.658  12.779
35171W        W 6787  34.021   3.682   0.055
35172W        W 6788  42.897   3.763   2.332
35173W        W 6789  41.397  32.264  13.939
35174W        W 6790   8.943  44.756  12.600
35175W        W 6791  35.081  28.668   2.915
35176W        W 6792  11.188  27.884  11.853
35177W        W 6793  22.985  22.295   4.120
35178W        W 6794   5.040   4.288  13.432
35179W        W 6795  18.730  12.235  13.382
35180W        W 6796  35.664  18.739   3.246
35181W        W 6797   3.799  36.117   1.897
35182W        W 6798  30.449  36.522  11.163
35183W        W 6799  32.549   3.394   0.373
35184W        W 6800  29.715  39.488  11.092
35185W        W 6801   9.796   5.569   2.581
35186W        W 6802  26.162   3.944  14.773
35187W        W 6803   3.729  13.303  13.143
35188W        W 6804   9.318  13.071  11.662
35189W        W 6805  36.988   7.609   2.364
35190W        W 6806  33.368  44.217  12.077
35191W        W 6807  18.327  24.165  11.622
35192W        W 6808  39.779   0.412  11.122
35193W        W 6809   8.249  40.557   0.295
35194W        W 6810  30.916  29.732   3.249
35195W        W 6811  32.442   9.145  10.980
35196W        W 6812  12.763  17.552   2.780
35197W        W 6813  37.311  17.798   3.258
35198W        W 6814  27.172  36.279   0.326
35199W        W 6815  44.645  21.064  11.289
35200W        W 6816  32.892  25.543  14.917
35201W        W 6817   6.405  29.414   0.275
35202W        W 6818  36.937   2.205   3.335
35203W        W 6819  17.364  43.425   5.220
35204W        W 6820  11.450   1.929   4.333
35205W        W 6821  42.638  13.105   1.295
35206W        W 6822  35.968  44.336  10.713
35207W        W 6823   0.890  22.092  13.970
35208W        W 6824  12.439   7.682  13.370
35209W        W 6825  18.986   1.182  11.937
35210W        W 6826  13.374  20.866  11.140
35211W        W 6827  44.651  22.109   2.790
35212W        W 6828  19.599  43.200   1.778
35213W        W 6829  16.187  22.635  12.702
35214W        W 6830  12.130  29.481   2.052
35215W        W 6831  41.603  12.250  14.771
35216W        W 6832  19.370  34.663   1.334
35217W        W 6833  28.661   2.192  12.894
35218W        W 6834  29.539  38.793  13.937
35219W        W 6835  31.875  32.154   4.125
35220W        W 6836  14.167  18.003   3.765
35221W        W 6837  15.668  14.692   2.861
35222W        W 6838  25.609  19.570  12.490
35223W        W 6839  32.233  21.363   3.814
35224W        W 6840  23.573  42.880   1.343
35225W        W 6841  40.454  28.583   3.793
35226W        W 6842   7.173   0.088   0.797
35227W        W 6843  32.954  18.571   3.170
35228W        W 6844   8.561  13.628  14.356
35229W        W 6845  33.336  38.915   2.260
35230W        W 6846  25.695  39.988  14.547
35231W        W 6847  43.412  12.701  12.787
35232W        W 6848  34.328   9.292   2.705
35233W        W 6849  33.515  30.167   1.465
35234W        W 6850  15.431   4.941  10.044
35235W        W 6851  34.116  15.385  13.868
35236W        W 6852  44.342   8.097  10.626
35237W        W 6853  37.469  32.817   2.749
35238W        W 6854  39.512  34.041   3.744
35239W        W 6855   9.473  18.794  11.619
35240W        W 6856  32.548  30.122   2.344
35241W        W 6857   4.776   6.698  11.636
35242W        W 6858  35.060  23.072   1.122
35243W        W 6859   3.468  44.487   1.570
35244W        W 6860  14.132  33.241  12.316
35245W        W 6861  21.268  17.233   3.115
35246W        W 6862  34.301   0.880  11.898
35247W        W 6863  33.508  11.219  14.376
35248W        W 6864  15.691  32.026   0.830
35249W        W 6865  43.966  36.514   2.635
35250W        W 6866   7.706  12.123  12.074
35251W        W 6867  16.039  41.447   1.287
35252W        W 6868   9.199  10.057  12.779
35253W        W 6869   0.945  26.226  11.477
35254W        W 6870  23.896  41.304  10.670
35255W        W 6871  27.390  37.948  13.467
35256W        W 6872  35.443   0.746  11.928
35257W        W 6873  30.406  17.531   4.653
35258W        W 6874  10.398   4.476   5.090
35259W        W 6875  21.505  35.868  13.497
35260W        W 6876  38.877  41.696   2.952
35261W        W 6877  20.535  35.932  12.067
35262W        W 6878   9.327  37.394  10.597
35263W        W 6879  26.986  14.323   1.737
35264W        W 6880  29.386  16.904   4.637
35265W        W 6881  16.605  43.845   0.465
35266W        W 6882  34.456   5.151   0.995
35267W        W 6883   9.449  32.136   3.723
35268W        W 6884  40.963   8.733   3.874
35269W        W 6885   4.941  42.624  13.021
35270W        W 6886  21.484   2.332   2.278
35271W        W 6887   3.089  11.464   0.466
35272W        W 6888  14.644   1.511   2.755
35273W        W 6889  20.556   7.775   4.756
35274W        W 6890   0.317   8.475  14.744
35275W        W 6891   3.015   7.071  13.676
35276W        W 6892  31.851   4.988   2.339
35277W        W 6893  12.391  33.602   4.217
35278W        W 6894   3.854  37.981   0.017
35279W        W 6895  30.590   6.662  12.004
35280W        W 6896  17.130  11.852   1.880
35281W        W 6897  31.898  25.125   0.559
35282W        W 6898  13.192  10.077  12.397
35283W        W 6899  31.455  21.545   0.438
35284W        W 6900   3.264  30.065  12.754
35285W        W 6901  35.670   2.769   2.848
35286W        W 6902   0.446  42.700  14.893
35287W        W 6903   9.908  22.204  13.884
35288W        W 6904  12.872  39.369  14.872
35289W        W 6905  43.435  16.938   0.392
35290W        W 6906   9.659   8.934   1.754
35291W        W 6907  43.790  38.853  13.744
35292W        W 6908  25.092  13.554   1.871
35293W        W 6909   8.794  31.525  11.627
35294W        W 6910  31.605  40.724  14.333
35295W        W 6911  15.003  16.651   0.357
35296W        W 6912   6.244   5.705   4.206
35297W        W 6913   8.878  39.388   1.111
35298W        W 6914  37.544  43.834  14.840
35299W        W 6915  44.500  19.169  10.763
35300W        W 6916  30.181  15.760   4.588
35301W        W 6917  11.730  11.414  12.567
35302W        W 6918  44.205  28.931  14.478
35303W        W 6919  43.543  31.474  10.871
35304W        W 6920  35.412   7.691   2.541
35305W        W 6921  25.423  23.612   3.639
35306W        W 6922  30.616  31.062  12.530
35307W        W 6923  27.969   8.713   1.459
35308W        W 6924   9.839   5.833   3.621
35309W        W 6925  13.320  32.035  13.386
35310W        W 6926   6.127  13.562   2.334
35311W        W 6927   8.829  41.024  14.600
35312W        W 6928  37.722  12.730   3.769
35313W        W 6929  43.256  17.660   3.223
35314W        W 6930  43.135   5.495   5.096
35315W        W 6931  39.889   4.519   0.240
35316W        W 6932  24.928  20.189  13.843
35317W        W 6933  43.729  28.044  11.623
35318W        W 6934  15.997  26.051   0.060
35319W        W 6935   4.533  43.758  13.820
35320W        W 6936  11.940   0.418  11.354
35321W        W 6937  16.050  13.309  11.983
35322W        W 6938   1.899  43.289  10.584
35323W        W 6939   3.465  14.788   0.296
35324W        W 6940  30.371   3.254   3.151
35325W        W 6941  18.575   5.218   4.210
35326W        W 6942  20.324  42.411   4.125
35327W        W 6943  19.467   5.306  12.561
35328W        W 6944   1.357  35.018   4.378
35329W        W 6945  32.892   1.639   4.298
35330W        W 6946  42.817  21.948   0.864
35331W        W 6947  16.165  31.611  11.060
35332W        W 6948  10.562  40.838  10.312
35333W        W 6949  22.638   1.281  11.200
35334W        W 6950  15.186  44.408  13.978
35335W        W 6951  40.739  14.883  12.570
35336W        W 6952  31.356   0.553   1.759
35337W        W 6953  13.464  25.173  14.404
35338W        W 6954  39.044  42.152  14.479
35339W        W 6955  21.716   9.940  13.964
35340W        W 6956  42.819  38.089  12.373
35341W        W 6957   6.779   2.887   1.863
35342W        W 6958  23.767  10.205  11.648
35343W        W 6959  23.363  38.499  11.214
35344W        W 6960  36.557  24.211  13.432
35345W        W 6961  16.839   2.233  13.533
35346W        W 6962  15.812  20.669   3.844
35347W        W 6963  31.410  36.639  11.524
35348W        W 6964   2.512   0.802  10.656
35349W        W 6965  40.854  29.408  11.530
35350W        W 6966  40.681  30.202  10.896
35351W        W 6967  13.315   2.201  12.349
35352W        W 6968   0.454  24.726   1.336
35353W        W 6969   0.982  34.539  11.529
35354W        W 6970  26.677  28.377  12.967
35355W        W 6971  23.058  42.811   0.439
35356W        W 6972  30.029  37.110  11.374
35357W        W 6973  29.900  21.534   3.718
35358W        W 6974   3.724   8.709  11.537
35359W        W 6975  34.963  19.205   0.723
35360W        W 6976   1.363  20.778  13.916
35361W        W 6977  43.459  31.570   4.855
35362W        W 6978  23.711   3.125  11.682
35363W        W 6979  25.240  15.589   0.299
35364W        W 6980  27.481  24.634  12.812
35365W        W 6981  41.075  28.691   2.151
35366W        W 6982  26.179   8.233  14.403
35367W        W 6983  33.162  18.478   0.785
35368W        W 6984  24.865  12.566   4.173
35369W        W 6985  37.452   4.116  12.391
35370W        W 6986  11.373  34.493   1.757
35371W        W 6987   7.608  26.649  13.149
35372W        W 6988  22.781  33.082   0.656
35373W        W 6989  25.318   3.742  14.434
35374W        W 6990  15.949  18.546   2.980
35375W        W 6991  26.977   4.381   3.083
35376W        W 6992  37.093  23.159  13.436
35377W        W 6993  39.882  35.568  12.934
35378W        W 6994  23.032  10.900   4.382
35379W        W 6995  31.645  36.088   2.976
35380W        W 6996  23.983  38.944  13.879
35381W        W 6997  23.857  19.494   5.091
35382W        W 6998   3.867  30.240  10.721
35383W        W 6999  39.755  14.190  10.430
35384W        W 7000  33.901   5.444   2.377
35385W        W 7001   7.276   4.412  12.934
35386W        W 7002  16.651  43.324  11.154
35387W        W 7003  32.026  41.788   1.760
35388W        W 7004  15.257  24.913  10.737
35389W        W 7005   3.231  26.155  14.303
35390W        W 7006  35.169  24.124  14.142
35391W        W 7007  33.106  12.307  11.090
35392W        W 7008   0.498  22.518   1.334
35393W        W 7009  35.854   2.398  11.474
35394W        W 7010  25.678  33.810  14.194
35395W        W 7011  16.317  14.658  13.441
35396W        W 7012  16.082  20.671   1.163
35397W        W 7013  38.059  15.737  13.087
35398W        W 7014   9.116  18.372  12.476
35399W        W 7015  30.707  37.446   4.550
35400W        W 7016   4.924  44.836   0.871
35401W        W 7017   0.892  20.813   4.159
35402W        W 7018  10.395   1.469  13.970
35403W        W 7019  35.374   4.789  11.382
35404W        W 7020  35.900  44.522  11.659
35405W        W 7021  38.249  28.963  10.273
35406W        W 7022  39.654  28.165  14.893
35407W        W 7023  32.020  16.166   3.240
35408W        W 7024  24.011  33.463   2.900
35409W        W 7025  37.414   8.374   2.140
35410W        W 7026   1.825  26.968   0.348
35411W        W 7027   9.394  44.493  12.444
35412W        W 7028  12.368  30.089   1.770
35413W        W 7029  36.937  32.683   1.039
35414W        W 7030  42.587  37.562   1.161
35415W        W 7031  24.184   1.954  10.719
35416W        W 7032  36.836   7.505   1.699
35417W        W 7033  32.336   1.340  12.944
35418W        W 7034  22.548  17.294  12.379
35419W        W 7035  41.898  17.720  11.221
35420W        W 7036  20.716  36.413  11.964
35421W        W 7037   9.603  26.337  10.635
35422W        W 7038  44.062  23.928   0.252
35423W        W 7039  21.091  38.843   3.040
35424W        W 7040  26.189   6.179   2.476
35425W        W 7041  32.226  43.432  11.505
35426W        W 7042  14.047  29.905   3.253
35427W        W 7043  12.599  42.074  13.462
35428W        W 7044  28.373  25.562   2.342
35429W        W 7045   6.212   7.735   4.307
35430W        W 7046  25.304   6.176  12.515
35431W        W 7047  32.628  34.393  11.596
35432W        W 7048  43.754  36.667   2.162
35433W        W 7049  43.775  12.855  11.510
35434W        W 7050  29.460  21.802   3.631
35435W        W 7051  34.208  30.641  14.161
35436W        W 7052  41.094  33.858  13.959
35437W        W 7053  39.479  38.094   3.261
35438W        W 7054   3.307  15.471  11.098
35439W        W 7055  27.205  19.322   0.199
35440W        W 7056  20.080  37.020  12.464
35441W        W 7057   5.601  29.670   2.120
35442W        W 7058  43.229  41.200   0.224
35443W        W 7059  27.516  44.056  14.713
35444W        W 7060  33.192  10.655   4.889
35445W        W 7061  33.965  30.446   0.176
35446W        W 7062  21.011  32.476  10.892
35447W        W 7063   4.456  22.222   3.770
35448W        W 7064  15.662  29.680  10.790
35449W        W 7065  10.611  22.658   4.390
35450W        W 7066  13.777  25.186  13.543
35451W        W 7067  26.942  13.347  12.049
35452W        W 7068  43.211  13.248  13.946
35453W        W 7069  18.627  18.480  13.563
35454W        W 7070  18.848  13.719  13.399
35455W        W 7071  13.530  10.385   2.086
35456W        W 7072  21.534   3.530   1.359
35457W        W 7073  31.622  17.665  11.533
35458W        W 7074   8.317  11.107   2.927
35459W        W 7075  10.921  28.613   3.747
35460W        W 7076  25.967  14.444   2.385
35461W        W 7077   6.525  30.041   0.735
35462W        W 7078   6.976  19.089  12.494
35463W        W 7079  40.520  34.576  12.482
35464W        W 7080  11.809  12.759   1.330
35465W        W 7081   6.343   5.832  12.845
35466W        W 7082  24.618  27.079  10.867
35467W        W 7083   2.796   2.732   3.197
35468W        W 7084  11.067  32.116   2.288
35469W        W 7085  23.727   3.923   0.804
35470W        W 7086  26.541   8.064   1.480
35471W        W 7087  22.346  43.566  11.573
35472W        W 7088  41.672  26.508   0.808
35473W        W 7089   9.268   7.936   3.806
35474W        W 7090  26.123  14.839  13.947
35475W        W 7091  10.254  13.332  12.482
35476W        W 7092  11.406  15.138  13.362
35477W        W 7093   1.449  40.534  13.795
35478W        W 7094   0.784  36.853   3.210
35479W        W 7095  19.053   6.657   4.126
35480W        W 7096  41.980   2.155  14.846
35481W        W 7097  32.125  26.979   0.269
35482W        W 7098  15.025  39.792   1.869
35483W        W 7099  29.403  28.108   3.435
35484W        W 7100  17.760  27.182  14.380
35485W        W 7101  31.482  10.376  11.228
35486W        W 7102  10.258  37.723  10.227
35487W        W 7103   5.722  23.733  11.499
35488W        W 7104  31.145  35.536  10.718
35489W        W 7105  31.478   0.909  10.665
35490W        W 7106  32.001  23.315  14.315
35491W        W 7107  32.294  20.569  12.627
35492W        W 7108  32.196  17.186   3.229
35493W        W 7109  18.194  39.503   2.269
35494W        W 7110  44.745  21.585   4.200
35495W        W 7111  41.660  44.138   2.849
35496W        W 7112  42.922  18.141  14.017
35497W        W 7113  27.926  17.262  13.492
35498W        W 7114  26.793  31.497  13.341
35499W        W 7115  38.973   3.403  10.183
35500W        W 7116  12.070   6.707   1.837
35501W        W 7117  11.775  36.076  12.735
35502W        W 7118  28.330  44.092   9.761
35503W        W 7119  12.595  16.544   2.895
35504W        W 7120   4.791  32.079   5.401
35505W        W 7121  28.870  19.068   0.941
35506W        W 7122  31.411   3.796   1.128
35507W        W 7123  38.494  26.023   2.620
35508W        W 7124   6.430  11.278  12.970
35509W        W 7125  17.700  30.950   0.773
35510W        W 7126  24.322  43.075   3.907
35511W        W 7127  27.546  38.311  11.105
35512W        W 7128  11.313  30.949   0.808
35513W        W 7129  32.157  39.113   1.878
35514W        W 7130  42.316  14.541   4.077
35515W        W 7131  28.663  42.290   1.480
35516W        W 7132  40.342  38.369   4.104
35517W        W 7133  40.386   6.017   0.934
35518W        W 7134  20.585  22.625  12.083
35519W        W 7135  40.793  32.045  14.560
35520W        W 7136  16.590  34.122   0.013
35521W        W 7137  11.191  19.211   2.113
35522W        W 7138  37.480  36.331   2.715
35523W        W 7139  25.646  16.251   2.441
35524W        W 7140   8.268  29.453  10.705
35525W        W 7141  32.193   0.206   1.654
35526W        W 7142  33.994  41.421  13.565
35527W        W 7143  38.585  12.221  12.406
35528W        W 7144   8.937   2.250  12.146
35529W        W 7145  14.991  30.260  11.966
35530W        W 7146  13.504  31.457  13.085
35531W        W 7147  28.419  32.550  12.139
35532W        W 7148  32.919  32.744  14.268
35533W        W 7149  37.412  16.821   4.110
35534W        W 7150  40.351  37.103  13.418
35535W        W 7151  28.002  35.910   1.924
35536W        W 7152  43.555  19.162  13.412
35537W        W 7153   5.676   5.386   3.283
35538W        W 7154   7.122   9.758   0.851
35539W        W 7155  12.206   5.732   3.330
35540W        W 7156  10.241   5.019  13.908
35541W        W 7157  27.496  14.159  11.508
35542W        W 7158  33.305  38.399   2.366
35543W        W 7159   9.112  32.668  14.609
35544W        W 7160  41.000  35.962   0.805
35545W        W 7161  23.988  37.343   4.952
35546W        W 7162  37.541  12.353   1.609
35547W        W 7163  31.878  17.181  11.147
35548W        W 7164  14.784  13.129   1.846
35549W        W 7165  34.364  25.173  12.510
35550W        W 7166  30.453  26.803   0.728
35551W        W 7167   5.691  15.765   0.859
35552W        W 7168  26.892  40.447   4.644
35553W        W 7169   7.349   6.457   3.732
35554W        W 7170   2.326   1.977   2.871
35555W        W 7171  23.549  12.515   4.217
35556W        W 7172  35.901  14.047  11.058
35557W        W 7173  44.902  24.185   1.691
35558W        W 7174  31.725  14.631  12.508
35559W        W 7175  11.203   5.766   2.461
35560W        W 7176  38.526  14.870  14.420
35561W        W 7177  17.978  11.382   1.780
35562W        W 7178  21.559  24.348   2.178
35563W        W 7179  38.592   2.537   2.700
35564W        W 7180  17.634  35.480   3.405
35565W        W 7181   5.184  38.831  10.402
35566W        W 7182  22.224  41.073  10.738
35567W        W 7183  44.865  25.045  11.576
35568W        W 7184  17.138  26.267  11.518
35569W        W 7185  26.134  28.706  13.036
35570W        W 7186  24.591   6.892   2.021
35571W        W 7187   2.449  12.710  12.963
35572W        W 7188  24.010  22.006  12.893
35573W        W 7189  37.857  21.881   4.704
35574W        W 7190   5.913  31.915   2.360
35575W        W 7191  15.750  20.247  12.966
35576W        W 7192  16.840  21.077  12.525
35577W        W 7193  23.737  14.876  13.868
35578W        W 7194  40.907  15.243   0.210
35579W        W 7195  34.653  23.564   1.265
35580W        W 7196   9.474   9.441   3.712
35581W        W 7197   5.261   2.481   1.335
35582W        W 7198  21.771   9.354  11.160
35583W        W 7199   8.615  19.326  12.988
35584W        W 7200  17.236   0.426   1.034
35585W        W 7201  17.078  35.545  14.266
35586W        W 7202  24.973   1.058   1.028
35587W        W 7203  25.662  15.015   2.804
35588W        W 7204   2.853  28.334  11.218
35589W        W 7205  17.251  39.882  14.793
35590W        W 7206  35.492  15.079   4.673
35591W        W 7207   8.281  15.777   4.437
35592W        W 7208  30.365  23.547  12.841
35593W        W 7209   6.817  24.452  11.219
35594W        W 7210  11.942  40.267   3.794
35595W        W 7211  21.969   2.350  11.986
35596W        W 7212  29.488  13.682  14.026
35597W        W 7213  23.062   0.687  13.460
35598W        W 7214  35.297   5.086   0.858
35599W        W 7215  25.381  42.834   4.767
35600W        W 7216  35.556  41.785   4.253
35601W        W 7217  15.173  23.297   0.515
35602W        W 7218  36.609  15.789  11.919
35603W        W 7219  42.742  10.131  12.917
35604W        W 7220   9.602  12.137  13.030
35605W        W 7221  38.450  34.513   1.971
35606W        W 7222   1.999  30.918   0.188
35607W        W 7223  35.547  19.583   4.333
35608W        W 7224  38.552   9.332   4.663
35609W        W 7225  30.193  40.940   2.419
35610W        W 7226  12.441  20.662   3.851
35611W        W 7227   4.268   1.345  14.947
35612W        W 7228   1.247  37.347  13.364
35613W        W 7229  12.838  27.632   0.442
35614W        W 7230  23.737   4.292  13.872
35615W        W 7231   9.305  37.530   0.798
35616W        W 7232  27.305  35.484   2.962
35617W        W 7233  43.368   2.918   2.038
35618W        W 7234  15.592  34.955  12.869
35619W        W 7235  37.618  22.553   4.977
35620W        W 7236  29.928   0.809  14.591
35621W        W 7237   4.847  30.928  11.942
35622W        W 7238   4.813  31.971   0.920
35623W        W 7239  13.280  23.032   2.405
35624W        W 7240  14.330  29.767  12.003
35625W        W 7241  31.191  24.168   0.807
35626W        W 7242   4.654   0.930  14.014
35627W        W 7243   2.861   8.312   0.946
35628W        W 7244  29.176  18.209   4.782
35629W        W 7245  44.724   9.426   4.342
35630W        W 7246  24.286  30.139  11.084
35631W        W 7247   4.365  32.977  12.276
35632W        W 7248  35.591   4.290  12.913
35633W        W 7249  22.446  40.573  10.800
35634W        W 7250  24.054  19.169   4.283
35635W        W 7251  25.889   8.739  10.950
35636W        W 7252  22.779  37.113  13.421
35637W        W 7253  40.741  33.094  12.869
35638W        W 7254   1.488  17.331   4.595
35639W        W 7255  28.198  19.980  14.806
35640W        W 7256  21.972  17.677  11.561
35641W        W 7257  31.543  11.199   0.271
35642W        W 7258  40.622   1.488  13.916
35643W        W 7259  38.911  38.489   0.418
35644W        W 7260  28.517  21.110  10.000
35645W        W 7261  33.030  28.009   0.208
35646W        W 7262  17.300  38.471  13.416
35647W        W 7263  28.460  36.115   4.513
35648W        W 7264  37.088  39.562   0.504
35649W        W 7265  17.756  29.706   3.240
35650W        W 7266  26.949  31.590  10.663
35651W        W 7267   0.919  21.527  10.679
35652W        W 7268   5.567  40.865   2.846
35653W        W 7269  10.864  15.569   2.306
35654W        W 7270  20.762  31.126  14.014
35655W        W 7271   2.379   4.930   0.184
35656W        W 7272   6.952  41.291   1.940
35657W        W 7273  31.557   8.677  11.592
35658W        W 7274  32.112  25.700   1.316
35659W        W 7275  17.175  27.371  12.002
35660W        W 7276  20.359  17.108   4.215
35661W        W 7277  18.788  25.194   4.451
35662W        W 7278  32.415  43.795   0.996
35663W        W 7279  22.993  12.165   4.616
35664W        W 7280   0.688  38.393   0.426
35665W        W 7281  38.364   1.520  12.409
35666W        W 7282   8.296  15.873  14.922
35667W        W 7283  17.757   0.291  14.536
35668W        W 7284  30.264   5.751  14.743
35669W        W 7285  37.445  33.327  10.900
35670W        W 7286   3.750  35.568   3.652
35671W        W 7287  30.117   1.876  10.570
35672W        W 7288  10.316  37.330  10.587
35673W        W 7289  21.863  32.745   0.531
35674W        W 7290  15.274  27.002   0.512
35675W        W 7291  44.824  40.511  12.654
35676W        W 7292  24.540  18.100   2.029
35677W        W 7293   3.465  20.175   0.929
35678W        W 7294  44.525   0.423   4.216
35679W        W 7295  21.010  18.532  12.711
35680W        W 7296   3.431   3.995   2.145
35681W        W 7297  39.404   4.176  12.033
35682W        W 7298  22.658  22.724   2.318
35683W        W 7299   6.159   8.859  14.896
35684W        W 7300   4.035  19.252  11.237
35685W        W 7301  28.461  10.785  11.689
35686W        W 7302  10.942  18.637  10.781
35687W        W 7303  39.876  18.512  11.260
35688W        W 7304  14.248   2.939  10.723
35689W        W 7305  41.199  13.516   4.165
35690W        W 7306  23.736  30.264  13.438
35691W        W 7307  14.995  22.311   0.304
35692W        W 7308  14.650  12.145  10.638
35693W        W 7309  37.749  22.039  14.960
35694W        W 7310  20.237  29.572  13.596
35695W        W 7311  29.381  16.992  12.139
35696W        W 7312   6.442  37.936   0.517
35697W        W 7313  17.548  22.796   2.255
35698W        W 7314  15.102  26.517   2.542
35699W        W 7315  11.673  42.414  14.005
35700W        W 7316   5.368  38.752  11.421
35701W        W 7317  32.493  38.000  10.524
35702W        W 7318  26.100   7.915   2.139
35703W        W 7319  29.558  27.338   2.800
35704W        W 7320   6.741  34.841   2.368
35705W        W 7321  27.022  28.571  11.456
35706W        W 7322  41.022  27.509   4.094
35707W        W 7323  16.119  43.059   1.920
35708W        W 7324   8.780   6.435  14.025
35709W        W 7325   2.925  25.480  12.379
35710W        W 7326  17.271  14.227  14.914
35711W        W 7327   6.753  39.251   3.627
35712W        W 7328  19.434  42.098   0.553
35713W        W 7329  40.278  18.511   4.197
35714W        W 7330  27.057  18.220   3.199
35715W        W 7331  19.094  23.144  13.071
35716W        W 7332   3.922  23.237  10.679
35717W        W 7333  35.831  13.125   5.069
35718W        W 7334  27.795  27.076  10.640
35719W        W 7335  43.953  12.732  13.912
35720W        W 7336   0.954  35.824   4.047
35721W        W 7337  28.455  31.398  10.905
35722W        W 7338   1.979   3.425  11.618
35723W        W 7339  41.952  28.929   0.320
35724W        W 7340   3.264  33.900  13.948
35725W        W 7341  29.427   5.035   4.260
35726W        W 7342  41.897  23.999   4.668
35727W        W 7343   2.350  14.095   0.353
35728W        W 7344   1.784  12.760  14.681
35729W        W 7345   8.614   9.033   3.643
35730W        W 7346  34.920  40.440  13.075
35731W        W 7347  20.163  16.795  14.937
35732W        W 7348  39.477  22.254  11.090
35733W        W 7349   8.604  27.251  11.048
35734W        W 7350  16.106  14.682  12.954
35735W        W 7351  26.235  13.854  12.544
35736W        W 7352  29.240   9.197   3.291
35737W        W 7353  17.700  28.429  13.982
35738W        W 7354  22.606   6.293  14.335
35739W        W 7355  38.312  32.345  11.057
35740W        W 7356   3.230  43.965  10.797
35741W        W 7357  42.030  43.822   4.124
35742W        W 7358  26.215   2.361  14.223
35743W        W 7359  38.836  22.733   0.369
35744W        W 7360  11.143   5.933  13.086
35745W        W 7361  36.128  36.041  10.452
35746W        W 7362  37.266  37.028   3.849
35747W        W 7363   1.279  10.780  12.984
35748W        W 7364   4.715  31.894   1.864
35749W        W 7365  26.561  37.775   2.769
35750W        W 7366  42.937   3.274  10.863
35751W        W 7367   7.399  42.335   1.170
35752W        W 7368  26.188  13.184  10.412
35753W        W 7369  38.330  10.587  12.065
35754W        W 7370  17.198  16.490   4.558
35755W        W 7371  18.061  19.285  12.052
35756W        W 7372  30.858  13.805  14.033
35757W        W 7373  12.649  11.140  13.991
35758W        W 7374  22.092  31.948  14.706
35759W        W 7375  31.424  12.134   2.217
35760W        W 7376  17.732  26.766  12.972
35761W        W 7377  31.422  19.653   0.502
35762W        W 7378  17.458  37.529  11.079
35763W        W 7379   7.283  12.095  12.405
35764W        W 7380  35.051  37.589   1.254
35765W        W 7381  23.433  14.118   4.144
35766W        W 7382  21.821  13.145  11.986
35767W        W 7383  25.515  44.263  10.250
35768W        W 7384  11.282  26.720   0.023
35769W        W 7385  33.399  13.822  12.948
35770W        W 7386  31.220  29.611  10.938
35771W        W 7387  24.659  15.382  12.478
35772W        W 7388  18.531  34.661  11.817
35773W        W 7389  25.531  34.191  13.855
35774W        W 7390  41.754  27.402  11.967
35775W        W 7391  30.907  37.080  13.941
35776W        W 7392  39.890  17.819  10.643
35777W        W 7393  33.104  34.412  11.422
35778W        W 7394  28.994  23.676  11.547
35779W        W 7395  14.852   7.663   1.364
35780W        W 7396  27.180  14.647  13.378
35781W        W 7397  21.753  17.379   4.922
35782W        W 7398   7.704  39.388   3.653
35783W        W 7399  12.839  26.886   4.480
35784W        W 7400  29.833  35.091   1.920
35785W        W 7401  27.663  16.800  11.517
35786W        W 7402  37.379  32.835  11.102
35787W        W 7403   6.465   1.968   2.862
35788W        W 7404   0.364  18.113  10.611
35789W        W 7405   5.390   3.216   4.667
35790W        W 7406  25.900  37.531  14.925
35791W        W 7407  44.992  37.469   4.781
35792W        W 7408  17.279  21.528  10.604
35793W        W 7409  37.057  12.637  12.927
35794W        W 7410  40.475  40.577  13.469
35795W        W 7411  22.390   0.528   2.230
35796W        W 7412   2.805  14.929  13.885
35797W        W 7413  42.954   3.604  12.194
35798W        W 7414  20.060  19.796  10.674
35799W        W 7415  43.190  37.366  12.642
35800W        W 7416  11.259  13.277  12.819
35801W        W 7417  26.175  28.420  14.378
35802W        W 7418  33.682  29.792  12.633
35803W        W 7419  22.508  34.326   1.456
35804W        W 7420  38.478  25.151   1.409
35805W        W 7421  30.839  11.944  11.654
35806W        W 7422  22.139   8.267  11.397
35807W        W 7423  28.196   0.258  12.003
35808W        W 7424   0.326  15.125  13.811
35809W        W 7425  20.005   6.852  14.346
35810W        W 7426  41.915  16.303   3.090
35811W        W 7427  11.725  22.663   3.818
35812W        W 7428  21.999  14.328   2.829
35813W        W 7429  31.559  37.934   1.128
35814W        W 7430  43.785  32.997   2.844
35815W        W 7431  43.551  11.586   4.278
35816W        W 7432  14.769  22.744  13.906
35817W        W 7433  39.035   9.053  12.958
35818W        W 7434  26.932  44.372  13.820
35819W        W 7435  33.630   7.926  12.579
35820W        W 7436  12.667   8.986   0.773
35821W        W 7437  34.628  25.192  13.867
35822W        W 7438  24.163  21.987   2.354
35823W        W 7439  11.601   7.385  12.154
35824W        W 7440  41.827  22.697  12.060
35825W        W 7441  19.023  15.804   4.692
35826W        W 7442  26.963  29.014  10.743
35827W        W 7443  22.810  40.732  11.125
35828W        W 7444  43.504  30.367   1.745
35829W        W 7445  19.652   1.984   1.998
35830W        W 7446  35.102  34.879   0.239
35831W        W 7447  20.027   4.359   1.930
35832W        W 7448  13.193  41.538   4.370
35833W        W 7449  17.254  22.036  12.414
35834W        W 7450  25.090  15.690  12.901
35835W        W 7451  25.661  12.218   2.690
35836W        W 7452  34.542   6.216   4.203
35837W        W 7453  10.284  15.161  10.698
35838W        W 7454  30.927  38.000   0.904
35839W        W 7455   0.244  40.355  12.395
35840W        W 7456  43.356  23.139   4.638
35841W        W 7457  20.414  39.987  13.848
35842W        W 7458  39.328  34.892   3.170
35843W        W 7459  12.673   4.888   2.317
35844W        W 7460  30.408  29.060  13.253
35845W        W 7461   2.955  43.283  11.115
35846W        W 7462  26.388   0.339  11.177
35847W        W 7463   1.921  17.395   2.941
35848W        W 7464  19.062  42.422  11.465
35849W        W 7465   9.223   9.713  13.334
35850W        W 7466  31.141   5.509   0.657
35851W        W 7467  42.441  24.136   0.407
35852W        W 7468  30.528  21.521   3.322
35853W        W 7469  15.769  20.555   0.253
35854W        W 7470  33.828  31.482  12.280
35855W        W 7471  26.191   6.193  10.656
35856W        W 7472  15.067  26.944  13.393
35857W        W 7473   9.607  11.104  10.571
35858W        W 7474   9.999  29.323   4.111
35859W        W 7475  24.905  37.576  11.101
35860W        W 7476  33.795  41.846   3.093
35861W        W 7477  27.049  23.793   0.263
35862W        W 7478  17.666   1.249  10.650
35863W        W 7479  20.019  14.268  14.672
35864W        W 7480  36.548  29.415  11.640
35865W        W 7481  31.649  15.207   2.743
35866W        W 7482  13.140  38.146  14.780
35867W        W 7483  12.780  13.527   1.508
35868W        W 7484  19.000  42.252  10.732
35869W        W 7485  33.094  36.066   3.186
35870W        W 7486  21.553  32.234  12.896
35871W        W 7487  27.081  37.270   1.487
35872W        W 7488  18.200   6.948   1.938
35873W        W 7489  23.486   5.376  12.424
35874W        W 7490  16.787  12.233   1.262
35875W        W 7491  39.887  44.591   3.077
35876W        W 7492   5.837  11.763  11.709
35877W        W 7493  19.609  12.165   0.883
35878W        W 7494  19.596  31.632   2.937
35879W        W 7495  27.640  24.911   2.180
35880W        W 7496  42.914   7.822   2.718
35881W        W 7497  19.630  23.461   0.184
35882W        W 7498  28.962  13.410   2.297
35883W        W 7499  23.693  20.035  12.889
35884W        W 7500   9.862   8.776   0.726
35885W        W 7501   3.493  32.994  12.446
35886W        W 7502  26.971  39.983  13.928
35887W        W 7503  16.303  39.417   0.049
35888W        W 7504  15.247  24.645   2.899
35889W        W 7505  11.849   1.259   2.176
35890W        W 7506  33.227  42.812   1.308
35891W        W 7507  23.055  33.625   0.863
35892W        W 7508   8.468  24.693   1.532
35893W        W 7509  10.800  35.348   2.275
35894W        W 7510  34.187  33.610  10.141
35895W        W 7511   5.943  28.943   4.331
35896W        W 7512  39.957   4.850   2.785
35897W        W 7513  44.207  16.716   2.434
35898W        W 7514  38.138  11.261  13.304
35899W        W 7515  22.018  25.674   0.862
35900W        W 7516  19.632   9.142  14.348
35901W        W 7517  34.574  12.375   3.581
35902W        W 7518  15.090  17.987  10.175
35903W        W 7519  36.413  34.466  12.423
35904W        W 7520  20.852  41.974   2.721
35905W        W 7521  24.431  17.042   3.805
35906W        W 7522   7.176  44.838  12.486
35907W        W 7523   1.474   7.447  12.096
35908W        W 7524  11.179   0.917  14.968
35909W        W 7525  10.566   9.251   1.001
35910W        W 7526  15.495  30.354  11.936
35911W        W 7527  18.897  35.619  10.384
35912W        W 7528  34.761  35.869  11.580
35913W        W 7529  37.103  21.675  14.830
35914W        W 7530   5.590  44.376  10.238
35915W        W 7531  28.256   0.988   0.994
35916W        W 7532  20.013   4.791   1.645
35917W        W 7533  29.936  19.527   0.907
35918W        W 7534  22.057  25.980  14.744
35919W        W 7535  38.113  18.239   3.293
35920W        W 7536   2.635  28.935   5.028
35921W        W 7537  18.583   4.346   0.235
35922W        W 7538  34.841   9.755   0.300
35923W        W 7539  29.026  14.602  12.436
35924W        W 7540  19.466  12.770  14.098
35925W        W 7541  23.032  29.517   3.773
35926W        W 7542  33.703  11.462  12.967
35927W        W 7543   6.768  25.523  13.903
35928W        W 7544  20.762  12.893  14.263
35929W        W 7545  11.791  35.183  10.564
35930W        W 7546  41.830  35.465  12.867
35931W        W 7547  18.096  39.589  10.771
35932W        W 7548   7.123   9.050  13.061
35933W        W 7549  20.831  36.971   1.416
35934W        W 7550  15.155  43.866   1.936
35935W        W 7551  38.804  29.103  11.515
35936W        W 7552  41.529  32.955  11.775
35937W        W 7553  35.304  32.393  11.105
35938W        W 7554  22.139  23.712   3.797
35939W        W 7555  32.361  23.544  12.780
35940W        W 7556  13.548  20.165  11.786
35941W        W 7557  41.848  29.537   1.261
35942W        W 7558  18.496  34.876   4.590
35943W        W 7559  13.104  22.702   1.634
35944W        W 7560  41.873   4.684   2.156
35945W        W 7561  30.781  43.185   4.157
35946W        W 7562  26.617  40.903  14.966
35947W        W 7563  23.443  23.171  11.555
35948W        W 7564   8.454  26.554   1.266
35949W        W 7565  16.004  22.279   3.211
35950W        W 7566   9.650  15.540   4.306
35951W        W 7567  17.166   1.615   4.017
35952W        W 7568  41.559   7.697   2.066
35953W        W 7569  15.799  38.578   4.115
35954W        W 7570   5.820  40.057   0.747
35955W        W 7571   6.559  40.828  14.442
35956W        W 7572  34.910   4.386   0.492
35957W        W 7573   4.316  27.364  12.622
35958W        W 7574   0.125  31.823   3.259
35959W        W 7575   1.704   2.167  10.706
35960W        W 7576  26.324  26.561   3.558
35961W        W 7577   6.788  11.405   2.448
35962W        W 7578  38.677  30.839   3.573
35963W        W 7579  43.028   8.319  13.927
35964W        W 7580  20.018  34.179  13.445
35965W        W 7581  35.913   3.874   3.314
35966W        W 7582  37.903  19.110  11.143
35967W        W 7583  10.761  31.951  11.802
35968W        W 7584  21.262  29.944   4.814
35969W        W 7585  21.604  42.468  13.860
35970W        W 7586  17.058  18.293   3.698
35971W        W 7587  27.400  21.514  12.461
35972W        W 7588  36.216  29.521  14.349
35973W        W 7589  25.315  14.925  14.949
35974W        W 7590  42.416  18.625   2.145
35975W        W 7591  29.133   6.305  10.981
35976W        W 7592   3.475   6.661   3.218
35977W        W 7593  29.522   6.835   0.429
35978W        W 7594  43.220  33.278  14.378
35979W        W 7595   5.165   4.335   4.578
35980W        W 7596  34.087  20.599   0.111
35981W        W 7597  15.886  28.352   3.646
35982W        W 7598  26.973  32.500   0.297
35983W        W 7599  36.369  17.647  12.932
35984W        W 7600  27.260  14.106   1.312
35985W        W 7601   7.272   0.887  11.438
35986W        W 7602   4.352   4.194   3.711
35987W        W 7603   3.560  21.841   2.884
35988W        W 7604  18.609   9.580  14.959
35989W        W 7605  43.248   0.272   1.498
35990W        W 7606  32.518   0.013   4.831
35991W        W 7607  10.447  19.725   0.968
35992W        W 7608   2.387  31.900  12.148
35993W        W 7609  18.665   4.433   3.845
35994W        W 7610  44.276  33.147   1.689
35995W        W 7611   5.767  16.146   4.522
35996W        W 7612  27.947  14.560  13.168
35997W        W 7613  33.047   6.470   2.264
35998W        W 7614  29.562  25.961  10.617
35999W        W 7615  35.763   3.228  14.262
36000W        W 7616  44.954  18.096   3.296
36001W        W 7617  34.601  36.936   4.727
36002W        W 7618  20.136   2.024  11.586
36003W        W 7619   8.748   5.656  14.445
36004W        W 7620  27.263  17.363  12.110
36005W        W 7621  21.056  44.476  12.304
36006W        W 7622  23.533  24.136  11.890
36007W        W 7623   2.223  22.691   5.000
36008W        W 7624  18.459  36.012   4.674
36009W        W 7625  42.915   0.594   0.598
36010W        W 7626  20.762   4.535   2.868
36011W        W 7627  29.960  24.718   1.272
36012W        W 7628  26.672  40.024   4.862
36013W        W 7629  28.706  26.012   3.555
36014W        W 7630  20.634  18.103  11.056
36015W        W 7631  11.283  29.822   2.436
36016W        W 7632   5.159  19.808  10.674
36017W        W 7633  33.150  28.873   2.459
36018W        W 7634  39.897  43.285  12.248
36019W        W 7635   8.148  20.530   1.404
36020W        W 7636  32.247  17.795  14.262
36021W        W 7637  16.209  11.667  10.703
36022W        W 7638   2.327  37.860   1.756
36023W        W 7639  24.035  30.443  14.300
36024W        W 7640  19.471  33.275  14.785
36025W        W 7641  19.123   2.955  13.516
36026W        W 7642  10.891   0.726  12.506
36027W        W 7643  13.233  23.263   3.777
36028W        W 7644  22.612   3.979  14.365
36029W        W 7645  20.030  14.622  11.096
36030W        W 7646  38.449  39.973  11.564
36031W        W 7647   4.717  24.907  14.518
36032W        W 7648  35.382   3.411   1.219
36033W        W 7649  37.488  22.927   2.180
36034W        W 7650  19.694   7.080  13.747
36035W        W 7651  29.910  27.267  13.667
36036W        W 7652  36.024  39.996   2.410
36037W        W 7653  33.487  40.272  13.088
36038W        W 7654  29.946  39.223   0.842
36039W        W 7655  39.443  44.554   0.650
36040W        W 7656  20.421  31.617  11.419
36041W        W 7657  25.093  23.499  14.407
36042W        W 7658  16.869  37.908   0.425
36043W        W 7659  40.891  10.130   4.166
36044W        W 7660   4.795  28.132  12.173
36045W        W 7661  18.746   5.225  14.375
36046W        W 7662  20.282  37.038  14.575
36047W        W 7663  15.624   7.730   0.055
36048W        W 7664  22.141  35.229  12.084
36049W        W 7665  42.502  32.773   3.257
36050W        W 7666  32.484  14.707   4.317
36051W        W 7667  43.560   2.313   3.182
36052W        W 7668   3.662  26.477  11.099
36053W        W 7669   8.168  38.491  10.850
36054W        W 7670  15.738  13.364  11.561
36055W        W 7671   6.763  20.967   1.424
36056W        W 7672  31.015   4.608   2.819
36057W        W 7673  14.085   5.657  12.476
36058W        W 7674   8.348   8.823   0.405
36059W        W 7675  33.039   2.105  12.084
36060W        W 7676   0.064  37.279  10.158
36061W        W 7677   3.503  39.299   0.389
36062W        W 7678  33.055  44.256  14.990
36063W        W 7679   1.332  20.958   2.353
36064W        W 7680  31.151  18.783  12.069
36065W        W 7681  19.561  37.057  12.438
36066W        W 7682  28.236   4.851  12.522
36067W        W 7683  14.166  38.630   4.674
36068W        W 7684  12.555  15.552   2.668
36069W        W 7685  38.371  13.233   2.543
36070W        W 7686  39.958  22.054   3.232
36071W        W 7687  44.943  43.395  13.413
36072W        W 7688  31.686  38.284   2.749
36073W        W 7689   0.929  27.897  11.062
36074W        W 7690  25.646  41.400   3.173
36075W        W 7691   9.967  23.048   0.877
36076W        W 7692   2.878  41.025  12.087
36077W        W 7693  23.176  20.261   4.141
36078W        W 7694   0.761  34.487   1.814
36079W        W 7695  39.271  19.665   0.374
36080W        W 7696   6.035  10.593   4.545
36081W        W 7697   8.154  17.435   3.816
36082W        W 7698  35.431  10.909   4.407
36083W        W 7699   8.188  42.476  12.570
36084W        W 7700  28.945   5.700  14.440
36085W        W 7701  41.070   9.788   3.225
36086W        W 7702   0.373  32.364   4.170
36087W        W 7703  11.359  14.726  12.994
36088W        W 7704  36.420  38.409   2.368
36089W        W 7705  30.107  43.595  12.662
36090W        W 7706  42.767  17.593   2.265
36091W        W 7707   7.961  27.409   0.946
36092W        W 7708  14.636   1.811   1.428
36093W        W 7709  19.948  13.787   2.588
36094W        W 7710  12.431   3.309  14.367
36095W        W 7711  43.495  27.679   2.306
36096W        W 7712   0.285  17.549  11.394
36097W        W 7713  15.105   2.186  10.613
36098W        W 7714   0.946  20.085  14.944
36099W        W 7715  27.981  28.791  14.548
36100W        W 7716  28.151  11.332   2.747
36101W        W 7717  43.252  39.455  10.629
36102W        W 7718  39.436   0.968   0.372
36103W        W 7719  36.069  26.467   1.353
36104W        W 7720  30.397  19.488  13.341
36105W        W 7721  15.817  22.815   5.092
36106W        W 7722  13.428  23.152   1.520
36107W        W 7723  30.098  14.771   3.500
36108W        W 7724   7.982   1.199   2.817
36109W        W 7725  28.120  22.236   1.863
36110W        W 7726  15.118  20.738  10.663
36111W        W 7727   0.785  19.658   1.351
36112W        W 7728  20.774  23.605   2.642
36113W        W 7729  18.582  25.179   1.033
36114W        W 7730  12.692   5.168  14.473
36115W        W 7731   3.405  29.622  12.509
36116W        W 7732  43.034   6.417  13.038
36117W        W 7733   4.171   9.903   3.783
36118W        W 7734  34.500  29.972  11.098
36119W        W 7735  44.930   7.201  11.375
36120W        W 7736  40.571  42.893  13.733
36121W        W 7737   2.797  25.607   1.697
36122W        W 7738  36.554  25.436  14.792
36123W        W 7739  15.851  15.491   0.946
36124W        W 7740  12.088   5.818  12.878
36125W        W 7741  37.388  22.818  10.638
36126W        W 7742  14.244  30.191   2.854
36127W        W 7743  26.208   5.216  13.396
36128W        W 7744  33.636  43.502  13.464
36129W        W 7745   8.397  37.935   0.026
36130W        W 7746  16.595   5.185   4.576
36131W        W 7747  14.167  37.811  10.584
36132W        W 7748  40.853  27.930  10.713
36133W        W 7749  12.267  33.096   0.907
36134W        W 7750  24.210  25.278  10.334
36135W        W 7751  16.769  15.710   1.941
36136W        W 7752  33.024  10.428  13.469
36137W        W 7753  25.490  17.531   1.398
36138W        W 7754  39.732  14.495  12.914
36139W        W 7755  40.530  26.801  10.965
36140W        W 7756  36.983  16.573  14.826
36141W        W 7757  39.933  40.057   1.446
36142W        W 7758  40.076   5.490   1.460
36143W        W 7759   5.426  14.020  12.168
36144W        W 7760  22.672  38.618  10.554
36145W        W 7761  24.777   8.676  11.559
36146W        W 7762  12.860  32.982  14.507
36147W        W 7763  20.738  14.649  13.627
36148W        W 7764  18.032   0.734  12.061
36149W        W 7765  32.963  10.365   3.665
36150W        W 7766  16.600   4.824  13.314
36151W        W 7767  25.653   6.175  14.371
36152W        W 7768  35.417  17.771   2.384
36153W        W 7769  18.825  27.420  10.617
36154W        W 7770  18.536   3.351  14.280
36155W        W 7771  15.582   6.873   0.870
36156W        W 7772  15.635  32.811  13.004
36157W        W 7773  39.875  38.416   2.331
36158W        W 7774  39.623  38.106  12.020
36159W        W 7775  24.589  28.888  11.187
36160W        W 7776   3.417  41.040  12.893
36161W        W 7777   4.994  26.185   4.511
36162W        W 7778  39.446  44.936   1.026
36163W        W 7779  38.677  19.296  11.957
36164W        W 7780  38.561  27.499   1.697
36165W        W 7781   5.422   8.274   4.120
36166W        W 7782  34.062  27.467   4.028
36167W        W 7783  22.373  24.537   1.772
36168W        W 7784  34.964  23.019  13.404
36169W        W 7785   0.489  12.755   3.549
36170W        W 7786   5.898  43.361   1.674
36171W        W 7787   7.342  31.576   0.296
36172W        W 7788   8.925  29.920   3.516
36173W        W 7789   0.970  34.355   0.841
36174W        W 7790  18.591  23.928   2.372
36175W        W 7791  36.910  22.922   4.487
36176W        W 7792  12.303  14.574  14.806
36177W        W 7793   9.361  15.230  13.386
36178W        W 7794  35.930  41.369  14.245
36179W        W 7795  44.214  21.468  10.416
36180W        W 7796   3.988  35.044   4.581
36181W        W 7797   9.620  42.141  14.911
36182W        W 7798   8.400  29.211   3.571
36183W        W 7799  21.131  38.853   2.442
36184W        W 7800  13.298  40.071   5.287
36185W        W 7801  31.556  20.170  13.795
36186W        W 7802   4.718  42.599   0.929
36187W        W 7803  22.799  25.439  12.545
36188W        W 7804  35.318  23.206   4.063
36189W        W 7805   8.463  19.586  13.445
36190W        W 7806  25.475  14.623  11.136
36191W        W 7807  25.535  40.020  12.514
36192W        W 7808   6.435  44.808  12.011
36193W        W 7809  36.234  28.498  11.195
36194W        W 7810  29.106  25.003  10.723
36195W        W 7811  42.348  20.297   1.269
36196W        W 7812  19.673   9.339  12.557
36197W        W 7813  44.168  19.998  14.254
36198W        W 7814  37.560  23.491   3.774
36199W        W 7815  20.487  16.916   0.334
36200W        W 7816  33.387   7.914  12.134
36201W        W 7817  35.806   5.516  11.997
36202W        W 7818  38.866   9.541  13.041
36203W        W 7819  43.622  21.172   0.552
36204W        W 7820  37.787  37.690   1.689
36205W        W 7821  33.888   3.952  14.404
36206W        W 7822   0.565  16.000  13.824
36207W        W 7823  31.043  21.000  11.548
36208W        W 7824  20.649  35.191  11.651
36209W        W 7825  28.415  27.199   4.792
36210W        W 7826   6.888   2.924  14.057
36211W        W 7827  20.832  43.124   0.515
36212W        W 7828   6.861  33.545  13.512
36213W        W 7829  27.865  10.825   2.692
36214W        W 7830  40.712  18.439  14.500
36215W        W 7831  40.880  27.249  12.961
36216W        W 7832  31.117  39.602  13.820
36217W        W 7833   5.313  37.056   4.176
36218W        W 7834   6.799  27.643   4.956
36219W        W 7835  28.531  23.116   4.292
36220W        W 7836  39.636  26.921   0.654
36221W        W 7837  39.781  23.740   5.030
36222W        W 7838  28.975  22.547  12.876
36223W        W 7839   8.653  27.574   2.751
36224W        W 7840  28.613  13.526   5.013
36225W        W 7841   1.497   6.328  14.475
36226W        W 7842  37.365  40.106   5.018
36227W        W 7843  32.860   9.743  12.009
36228W        W 7844  44.466  17.545  10.732
36229W        W 7845  16.579   3.414  11.827
36230W        W 7846   8.435  42.847   3.177
36231W        W 7847  34.823  38.446  13.284
36232W        W 7848   8.173  20.689   0.233
36233W        W 7849  44.749  29.538  12.286
36234W        W 7850  42.025  29.638   2.799
36235W        W 7851   3.615  36.546  11.625
36236W        W 7852  36.471  35.521   2.185
36237W        W 7853  12.645  14.926  14.491
36238W        W 7854   3.455  34.151  11.269
36239W        W 7855  43.515   1.498  13.507
36240W        W 7856  17.574   6.399   2.234
36241W        W 7857  10.707  42.777   1.811
36242W        W 7858  36.958  25.502  10.674
36243W        W 7859  33.626  17.612  14.882
36244W        W 7860   7.904  19.409  13.341
36245W        W 7861   5.758  18.190  13.921
36246W        W 7862  35.222  39.977  12.490
36247W        W 7863  26.985   3.512   2.256
36248W        W 7864   4.931  15.666  12.500
36249W        W 7865  22.928  31.743   2.378
36250W        W 7866  18.392   7.914  11.626
36251W        W 7867   1.009  27.930   1.011
36252W        W 7868   2.881   0.251   0.142
36253W        W 7869   9.928  12.636  12.930
36254W        W 7870  36.070   7.943   4.503
36255W        W 7871  20.688  32.413  13.310
36256W        W 7872  16.811  40.804   3.245
36257W        W 7873  27.685  14.718   3.024
36258W        W 7874  23.272  23.181   4.086
36259W        W 7875   2.372  38.008   3.730
36260W        W 7876  30.402  27.425  12.531
36261W        W 7877  32.856  13.859  12.092
36262W        W 7878  28.211  36.817  12.360
36263W        W 7879  39.674  14.351   4.174
36264W        W 7880  18.633  40.833  12.341
36265W        W 7881   2.402  12.087  14.930
36266W        W 7882  19.360  35.930  11.102
36267W        W 7883  15.042  39.821  12.540
36268W        W 7884  35.120  30.465   4.698
36269W        W 7885  34.540   3.756   2.328
36270W        W 7886  28.540  44.952  13.651
36271W        W 7887  20.471  17.658  12.895
36272W        W 7888  20.736  34.251  14.794
36273W        W 7889  42.398   4.969  11.086
36274W        W 7890   7.372  37.328  10.684
36275W        W 7891  14.411   9.728  13.040
36276W        W 7892  38.832  10.645   3.160
36277W        W 7893  44.688  35.329   4.094
36278W        W 7894  35.780   2.409  10.532
36279W        W 7895  27.516  35.653  14.321
36280W        W 7896  34.419  40.032   1.851
36281W        W 7897  37.404   6.453  13.603
36282W        W 7898  43.499  33.060  12.026
36283W        W 7899  35.085  26.468   2.787
36284W        W 7900  43.295   9.245   2.655
36285W        W 7901  43.553   3.310  13.817
36286W        W 7902  19.985  25.712   4.728
36287W        W 7903  37.223   7.435  10.662
36288W        W 7904  14.416   1.355   1.267
36289W        W 7905  31.269  39.833   4.125
36290W        W 7906  15.475   4.163  11.542
36291W        W 7907  42.287  20.740   2.813
36292W        W 7908  17.092   7.399  10.992
36293W        W 7909  40.740  27.446   2.729
36294W        W 7910  38.943  35.471   0.856
36295W        W 7911  19.340   1.842  14.968
36296W        W 7912  36.504   5.455   0.398
36297W        W 7913  29.167  39.890   1.600
36298W        W 7914  19.245  35.173  10.390
36299W        W 7915  32.835  27.634   5.592
36300W        W 7916   3.648   0.234   1.116
36301W        W 7917  15.201  35.151  12.555
36302W        W 7918  43.493  16.190   5.043
36303W        W 7919  18.038   8.193   0.335
36304W        W 7920  30.020  37.092  12.329
36305W        W 7921   4.587  42.913   4.597
36306W        W 7922  15.834  38.649  13.412
36307W        W 7923  39.503  21.221   0.647
36308W        W 7924  43.014  30.811  13.469
36309W        W 7925  32.002  31.427  13.576
36310W        W 7926  10.446  22.200   4.575
36311W        W 7927  44.186  42.387  12.883
36312W        W 7928   0.194  19.028  11.359
36313W        W 7929  20.588   3.554  13.518
36314W        W 7930  42.740   4.851   0.732
36315W        W 7931  22.910  36.047  13.905
36316W        W 7932   1.260  36.383   3.154
36317W        W 7933  25.340  14.311   3.213
36318W        W 7934   4.191  30.036   1.272
36319W        W 7935   7.440  19.817  14.390
36320W        W 7936  27.222   3.443  12.536
36321W        W 7937  32.577  19.105  11.136
36322W        W 7938  18.633  24.527   1.363
36323W        W 7939  35.385   7.026  12.742
36324W        W 7940  13.320  34.866  10.760
36325W        W 7941  29.380  34.967  10.807
36326W        W 7942  34.039  29.375   1.582
36327W        W 7943   0.506  23.500  11.921
36328W        W 7944  26.607  43.332   0.877
36329W        W 7945  20.958   7.515  10.353
36330W        W 7946  43.702  34.425   1.718
36331W        W 7947  44.280  29.072  13.087
36332W        W 7948  29.211  19.706  11.527
36333W        W 7949   4.247  24.231   5.480
36334W        W 7950  10.852  44.977   4.158
36335W        W 7951  12.447  32.775  11.607
36336W        W 7952  25.428  27.568   0.334
36337W        W 7953  15.922  16.297  10.708
36338W        W 7954  33.009  35.715   2.104
36339W        W 7955  41.531  37.098  13.904
36340W        W 7956  44.847   0.498  10.651
36341W        W 7957   8.620  42.893  13.428
36342W        W 7958  42.408  25.812  12.999
36343W        W 7959   7.741   4.802  14.311
36344W        W 7960  16.937  13.392  14.672
36345W        W 7961   0.678  44.475  11.562
36346W        W 7962  33.460  39.731  13.169
36347W        W 7963  43.183  26.954  11.440
36348W        W 7964  11.090  32.419  12.494
36349W        W 7965   6.795  15.208  11.857
36350W        W 7966  15.307  36.500  14.961
36351W        W 7967  30.210   9.132   3.192
36352W        W 7968  42.346  20.273   0.755
36353W        W 7969  38.313  31.036  14.922
36354W        W 7970  13.203  24.867   1.958
36355W        W 7971  12.454  38.980  10.541
36356W        W 7972  34.520  25.433   4.462
36357W        W 7973  14.346   1.041   4.056
36358W        W 7974  42.554  24.491   1.683
36359W        W 7975   9.131  40.321   2.555
36360W        W 7976  19.963  38.015   4.185
36361W        W 7977  13.465  10.094   9.890
36362W        W 7978   0.383   6.929   1.394
36363W        W 7979   7.758  24.635   3.173
36364W        W 7980  27.739  17.571  12.430
36365W        W 7981  16.826  37.900  14.377
36366W        W 7982  10.119  33.514  11.064
36367W        W 7983   1.648  29.364  14.752
36368W        W 7984   7.436  29.057  12.522
36369W        W 7985   4.259  12.782   1.313
36370W        W 7986  29.725  23.277   1.838
36371W        W 7987   4.320   6.189   1.011
36372W        W 7988  27.225  22.502  12.915
36373W        W 7989  36.773   4.798   1.850
36374W        W 7990  42.951  37.941   4.099
36375W        W 7991  19.777  41.529  13.616
36376W        W 7992  28.102  15.614   4.639
36377W        W 7993  35.572  35.082   1.515
36378W        W 7994  37.411  36.847  13.445
36379W        W 7995   9.349  36.893  14.323
36380W        W 7996  35.967  11.634   3.120
36381W        W 7997   7.690  12.357  10.728
36382W        W 7998   3.937  28.533   1.241
36383W        W 7999   5.921  22.947   1.361
36384W        W 8000  13.386  32.449  13.060
36385W        W 8001  37.361  19.991  12.219
36386W        W 8002   5.959   2.832  14.107
36387W        W 8003  23.058  29.130   1.975
36388W        W 8004   5.343  20.982  14.464
36389W        W 8005  11.627  16.836  13.517
36390W        W 8006   0.551  28.149  12.622
36391W        W 8007  19.751  31.001   4.225
36392W        W 8008  10.184  20.156   3.623
36393W        W 8009  19.142  14.833  13.378
36394W        W 8010  13.107  36.109   2.889
36395W        W 8011  13.613  14.525  10.693
36396W        W 8012  40.177  26.911  13.999
36397W        W 8013  34.022  36.952  13.451
36398W        W 8014  20.591  25.565  12.817
36399W        W 8015   1.432  39.121   3.275
36400W        W 8016  34.671   1.953   1.805
36401W        W 8017  17.292  29.502  13.507
36402W        W 8018  13.087  28.069   0.212
36403W        W 8019  22.108  35.579  11.119
36404W        W 8020  28.555  31.336   4.610
36405W        W 8021  15.309  13.733  14.428
36406W        W 8022  32.075  32.827   4.495
36407W        W 8023  33.767   6.615   1.203
36408W        W 8024  32.108  35.039   3.608
36409W        W 8025  42.150  29.018   0.793
36410W        W 8026  10.168   1.162  11.174
36411W        W 8027  24.992  31.149  11.615
36412W        W 8028   5.290  21.233   2.684
36413W        W 8029  35.494  35.258   1.989
36414W        W 8030   3.257  35.525   0.819
36415W        W 8031  23.250   8.867  11.520
36416W        W 8032   3.884  41.492   0.377
36417W        W 8033  24.855  24.731  14.863
36418W        W 8034  43.402  35.419   0.630
36419W        W 8035   1.948  31.893  11.517
36420W        W 8036  39.551  18.610  12.557
36421W        W 8037  27.983  33.290   1.932
36422W        W 8038  14.921  28.140   0.352
36423W        W 8039  24.607  13.330   0.699
36424W        W 8040  15.792  10.589   4.094
36425W        W 8041  39.062  24.740  12.843
36426W        W 8042  12.131  38.503  13.905
36427W        W 8043  44.353  41.731   1.922
36428W        W 8044  14.416  15.672  11.082
36429W        W 8045  16.702   7.297  12.632
36430W        W 8046  21.736  43.324   1.335
36431W        W 8047  38.136  38.905  10.841
36432W        W 8048  26.964  30.613   0.994
36433W        W 8049  27.222   0.866   4.233
36434W        W 8050  37.472  33.610   3.316
36435W        W 8051  11.318  19.902   1.701
36436W        W 8052  19.070  31.871   3.060
36437W        W 8053  31.453   2.901  13.310
36438W        W 8054  43.487   9.795   4.678
36439W        W 8055  13.179  39.031   1.588
36440W        W 8056   6.896  34.311  10.580
36441W        W 8057  41.996  23.777   3.420
36442W        W 8058   1.872  29.168  13.085
36443W        W 8059  43.659  12.234  14.900
36444W        W 8060  40.903   7.623   2.358
36445W        W 8061  10.649  28.508  12.512
36446W        W 8062   7.268  25.427  13.956
36447W        W 8063   0.080  34.424  14.036
36448W        W 8064  18.350   5.911  13.013
36449W        W 8065  42.865  30.553   1.891
36450W        W 8066  10.145  29.229  13.577
36451W        W 8067  11.259  33.561  10.952
36452W        W 8068  24.010  34.796  13.077
36453W        W 8069  17.334  39.747   1.291
36454W        W 8070   9.807   3.108   0.481
36455W        W 8071   2.893   9.383   2.475
36456W        W 8072  11.330  42.491  14.996
36457W        W 8073   3.253   0.499   2.672
36458W        W 8074  25.124  33.119  12.043
36459W        W 8075  42.248  25.315  13.078
36460W        W 8076  35.939  19.306   4.546
36461W        W 8077  19.482  43.163   3.737
36462W        W 8078  29.002  20.586  11.204
36463W        W 8079  23.743  13.613   3.089
36464W        W 8080   9.138  36.920   4.060
36465W        W 8081  33.444  22.014   4.058
36466W        W 8082  34.707  21.016  11.472
36467W        W 8083  31.986   9.916   4.291
36468W        W 8084  15.090  37.528   1.463
36469W        W 8085  20.504   0.420   3.862
36470W        W 8086  32.462  34.884   2.409
36471W        W 8087   1.730  42.552  13.555
36472W        W 8088  19.346  23.600   9.999
36473W        W 8089  15.684  23.596  12.553
36474W        W 8090  44.478  28.543  11.320
36475W        W 8091  38.774   2.975  13.354
36476W        W 8092  20.171  26.716  13.385
36477W        W 8093  21.909  23.307  13.118
36478W        W 8094  14.317  10.218   0.212
36479W        W 8095  20.586  11.786   3.742
36480W        W 8096  24.439  31.043  13.535
36481W        W 8097  34.215  13.346   0.776
36482W        W 8098  18.735  13.506   3.652
36483W        W 8099  11.083  12.601   2.941
36484W        W 8100   3.790   8.808  12.469
36485W        W 8101  22.038   9.403  13.401
36486W        W 8102  28.682  29.951   2.812
36487W        W 8103  35.320  27.626  10.757
36488W        W 8104  10.581  16.844   4.248
36489W        W 8105  30.967  20.782   3.324
36490W        W 8106  27.113  39.690   4.812
36491W        W 8107  26.791  38.259   2.647
36492W        W 8108  37.843  12.207   0.681
36493W        W 8109  15.802   2.418   0.298
36494W        W 8110  26.272   9.162   2.177
36495W        W 8111   2.254  30.577   1.921
36496W        W 8112  39.501  15.018   2.759
36497W        W 8113  41.345  34.413   3.442
36498W        W 8114  39.931  23.543   1.294
36499W        W 8115  21.077  21.612  10.426
36500W        W 8116  33.984  24.213   3.135
36501W        W 8117  10.665  30.062  12.937
36502W        W 8118   7.835  10.590   0.170
36503W        W 8119   9.857  34.854   0.617
36504W        W 8120  36.537  37.986   4.653
36505W        W 8121  18.248  41.223  13.154
36506W        W 8122  10.885  39.390   4.296
36507W        W 8123  35.804  25.680  13.027
36508W        W 8124   6.288   9.705   1.676
36509W        W 8125  44.792  37.745  13.749
36510W        W 8126  29.407  25.012  14.934
36511W        W 8127  36.887  29.474   4.212
36512W        W 8128  13.617  35.010   3.623
36513W        W 8129   9.787  24.786   2.304
36514W        W 8130   0.916   2.737   0.369
36515W        W 8131  39.384  10.225  13.333
36516W        W 8132  42.896  12.759  10.722
36517W        W 8133  27.218   1.726  11.520
36518W        W 8134  15.257  44.918  14.028
36519W        W 8135   1.857  24.314  12.216
36520W        W 8136  24.411  38.830  11.707
36521W        W 8137  10.937  21.541  14.447
36522W        W 8138  27.127  27.469   0.985
36523W        W 8139   3.146  21.244  13.996
36524W        W 8140   1.880  26.429  12.439
36525W        W 8141  16.575  31.112  11.667
36526W        W 8142  31.700  38.247   3.690
36527W        W 8143   2.106  29.113   3.660
36528W        W 8144  42.913   7.516  14.773
36529W        W 8145   4.848   7.714   4.299
36530W        W 8146  20.598  23.656  11.335
36531W        W 8147  22.174   6.518  14.551
36532W        W 8148   6.333  21.686   2.495
36533W        W 8149  35.559  28.629   2.660
36534W        W 8150  41.655  40.487   3.143
36535W        W 8151  25.113  44.713  14.946
36536W        W 8152  44.286   3.169  14.683
36537W        W 8153  31.113  42.361  13.536
36538W        W 8154  24.652  20.973  10.263
36539W        W 8155  24.076  38.421  10.575
36540W        W 8156  35.362   8.718   1.414
36541W        W 8157  42.281  35.933   1.355
36542W        W 8158  12.544  14.208  11.047
36543W        W 8159  31.502  36.600   1.307
36544W        W 8160  14.262  33.585  11.104
36545W        W 8161  29.997  18.741   3.710
36546W        W 8162   5.637  40.729  12.029
36547W        W 8163  18.229  31.052   3.954
36548W        W 8164  35.068  21.688  13.803
36549W        W 8165  11.188  21.564  11.730
36550W        W 8166  26.139  16.693   4.576
36551W        W 8167  32.598  18.212   3.300
36552W        W 8168  42.773  40.273   4.165
36553W        W 8169  11.040  28.590  14.831
36554W        W 8170  21.162  22.644   4.524
36555W        W 8171  34.993  10.242   4.385
36556W        W 8172  13.276  20.603  13.842
36557W        W 8173  27.490  27.135  11.086
36558W        W 8174  25.746  29.033  12.197
36559W        W 8175  15.313  38.845  12.928
36560W        W 8176  17.070  38.088  14.797
36561W        W 8177  34.430  19.547   5.061
36562W        W 8178  38.927  31.738  13.073
36563W        W 8179  17.709  28.418   0.736
36564W        W 8180  20.762  40.320   4.937
36565W        W 8181  27.225  33.501  10.993
36566W        W 8182  19.565   3.056   2.815
36567W        W 8183  20.160   0.971  10.680
36568W        W 8184  34.334  20.877  11.122
36569W        W 8185  37.953  40.282  11.616
36570W        W 8186  19.190  35.837   2.783
36571W        W 8187  39.242   1.501  11.511
36572W        W 8188  41.070  22.568   2.387
36573W        W 8189  30.720  14.891  11.212
36574W        W 8190  25.493  26.697   2.363
36575W        W 8191  42.311  16.040   1.459
36576W        W 8192  28.337  36.651   3.722
36577W        W 8193  17.350  33.433  14.093
36578W        W 8194  34.324  37.271   1.338
36579W        W 8195  34.777  40.046   3.309
36580W        W 8196  22.212  22.580   0.833
36581W        W 8197  10.524   2.705   3.838
36582W        W 8198  40.562   5.810   0.345
36583W        W 8199   2.589  31.773  10.489
36584W        W 8200  36.097  17.840   0.837
36585W        W 8201  39.975  27.230   1.366
36586W        W 8202   0.755  15.003  11.571
36587W        W 8203   3.982  22.017  11.613
36588W        W 8204  15.676  18.778   0.828
36589W        W 8205  44.461  16.210   9.909
36590W        W 8206  39.426  28.593   0.808
36591W        W 8207  33.802  12.289   1.866
36592W        W 8208  37.771  27.704  10.406
36593W        W 8209  15.624  37.183  10.457
36594W        W 8210  24.785  35.612  13.939
36595W        W 8211  33.286   6.294  11.483
36596W        W 8212  15.389  23.329  11.949
36597W        W 8213  12.390  30.129   0.794
36598W        W 8214  41.810  16.541  12.543
36599W        W 8215  18.536   1.312  14.905
36600W        W 8216   3.884  43.138   0.311
36601W        W 8217  43.861  16.023  10.053
36602W        W 8218  28.676  24.091  12.344
36603W        W 8219  37.970   2.736  12.894
36604W        W 8220  29.593  41.520   4.580
36605W        W 8221  19.712  44.882   3.315
36606W        W 8222  40.984   9.397  11.030
36607W        W 8223  31.879   3.229   3.589
36608W        W 8224  42.352   3.027  13.398
36609W        W 8225  32.070  39.859   2.250
36610W        W 8226  27.601  30.851  14.007
36611W        W 8227  22.917  37.560  11.932
36612W        W 8228  27.487  38.417   4.695
36613W        W 8229  10.751   3.284  10.857
36614W        W 8230   9.181  10.321  13.762
36615W        W 8231   8.140   1.999  12.507
36616W        W 8232  43.335   1.964   3.955
36617W        W 8233  19.094  35.359  12.132
36618W        W 8234  34.142  24.497  14.460
36619W        W 8235   8.877  25.745  11.697
36620W        W 8236  41.550  13.366   2.902
36621W        W 8237   9.726  13.920  14.906
36622W        W 8238   1.905  34.969  10.479
36623W        W 8239  37.956   6.258   2.652
36624W        W 8240  24.037  13.983  13.240
36625W        W 8241   9.690  31.059  12.428
36626W        W 8242   5.016   1.180  10.811
36627W        W 8243  13.386   7.227  12.547
36628W        W 8244  37.514   8.567   1.577
36629W        W 8245  31.898  38.427  13.552
36630W        W 8246   1.276   3.635   2.824
36631W        W 8247   8.213  43.333  13.591
36632W        W 8248   6.179  27.453   0.554
36633W        W 8249   6.508  30.550   1.172
36634W        W 8250   0.536  38.799  13.411
36635W        W 8251   1.456  31.391  11.058
36636W        W 8252  18.707   7.101  11.641
36637W        W 8253  37.032  20.069  10.993
36638W        W 8254  33.968  18.143  13.807
36639W        W 8255  36.474   5.550   4.283
36640W        W 8256  41.722  10.377   4.711
36641W        W 8257  14.266   3.686  11.972
36642W        W 8258   6.760  40.928  14.904
36643W        W 8259  18.054  35.740  10.687
36644W        W 8260  23.556  43.506  14.486
36645W        W 8261  26.098  16.552   0.911
36646W        W 8262  11.154  15.344  10.333
36647W        W 8263   7.661  37.494  14.051
36648W        W 8264  18.834  30.402  13.319
36649W        W 8265  41.933  19.052  13.502
36650W        W 8266   0.893   4.909   1.870
36651W        W 8267   0.304  37.524  14.947
36652W        W 8268  17.638  27.112  12.160
36653W        W 8269   9.096  32.464  13.163
36654W        W 8270  39.376  36.870  14.085
36655W        W 8271   2.102  24.219   4.135
36656W        W 8272   4.670  20.227   2.821
36657W        W 8273  32.335  35.803  13.020
36658W        W 8274  22.920  40.940  11.954
36659W        W 8275   3.879  13.210   1.253
36660W        W 8276   6.752  16.874  13.390
36661W        W 8277   4.914  37.132   2.830
36662W        W 8278  32.071   9.410   3.707
36663W        W 8279  33.378  42.927  14.887
36664W        W 8280   1.264  19.280   0.549
36665W        W 8281  37.506   2.862   0.270
36666W        W 8282  12.638  35.983   4.093
36667W        W 8283  41.950  27.783  12.297
36668W        W 8284   3.679   7.204   0.006
36669W        W 8285  31.704   4.679   3.240
36670W        W 8286  33.959   0.255   1.791
36671W        W 8287  39.984  39.421  11.965
36672W        W 8288   2.313   2.820  14.488
36673W        W 8289   7.812  15.128  14.372
36674W        W 8290  42.675  24.545   0.179
36675W        W 8291  16.134  15.615  13.795
36676W        W 8292   0.135   1.771   1.433
36677W        W 8293   2.003   6.731  13.921
36678W        W 8294  36.982  29.231   4.788
36679W        W 8295  42.492   8.279  13.980
36680W        W 8296  34.039  21.284  13.924
36681W        W 8297  43.422  21.137  14.774
36682W        W 8298  33.350  36.610   4.228
36683W        W 8299  37.824  12.210   0.174
36684W        W 8300  29.131   8.705  13.503
36685W        W 8301   5.763  34.017  12.930
36686W        W 8302   7.393  12.473  11.902
36687W        W 8303  37.605   4.968   3.733
36688W        W 8304   2.189  11.310   1.719
36689W        W 8305   1.609  39.388   2.322
36690W        W 8306  27.428  32.666  13.037
36691W        W 8307   2.837   6.104  10.555
36692W        W 8308   2.243  41.839  14.812
36693W        W 8309  30.190   7.151   3.260
36694W        W 8310  44.923  29.125  13.923
36695W        W 8311   0.877  20.550   1.676
36696W        W 8312  40.936  14.755   4.731
36697W        W 8313   7.979  22.654  13.832
36698W        W 8314  28.206  23.092   0.911
36699W        W 8315  25.584  21.609   3.380
36700W        W 8316   4.643  32.630   0.343
36701W        W 8317  39.525   7.357   1.337
36702W        W 8318  39.524  36.804   4.919
36703W        W 8319  29.017  22.013  10.640
36704W        W 8320  42.606  18.235  13.593
36705W        W 8321  35.961  21.878   4.458
36706W        W 8322  25.516  34.342   3.289
36707W        W 8323  39.280  13.117   2.941
36708W        W 8324  18.193  13.156  13.312
36709W        W 8325  36.075  38.341   3.358
36710W        W 8326   5.862  23.714  12.020
36711W        W 8327  17.224  27.242  11.506
36712W        W 8328  42.981   0.589   2.316
36713W        W 8329  42.584  25.560   3.864
36714W        W 8330  36.479  42.335  11.117
36715W        W 8331  14.225   2.376  11.421
36716W        W 8332  34.595   1.717  13.455
36717W        W 8333  36.382  38.924   0.450
36718W        W 8334  29.060  31.832  12.124
36719W        W 8335  27.033  17.686  11.790
36720W        W 8336  43.061  19.133   0.061
36721W        W 8337  20.186  36.977   3.889
36722W        W 8338  38.544  17.622   0.368
36723W        W 8339   0.862  22.610   2.669
36724W        W 8340  22.598  30.017  13.015
36725W        W 8341  40.567  18.559  11.452
36726W        W 8342  38.087  22.946  14.891
36727W        W 8343  29.217  12.232  13.493
36728W        W 8344  29.924  12.080  11.610
36729W        W 8345  37.020   6.741  13.354
36730W        W 8346  28.631  21.357  11.040
36731W        W 8347  27.096  11.706  14.568
36732W        W 8348  23.516  32.143   0.022
36733W        W 8349  13.194   3.698   3.199
36734W        W 8350  22.542   6.192   3.277
36735W        W 8351  18.304  24.428  12.933
36736W        W 8352   1.366  12.234  11.589
36737W        W 8353  38.295  16.283  14.603
36738W        W 8354  12.701  31.832   0.982
36739W        W 8355  22.682  27.424  11.250
36740W        W 8356  27.636  22.091   4.694
36741W        W 8357   3.072  28.706  14.472
36742W        W 8358  37.423  31.805   2.642
36743W        W 8359  35.401  21.016  14.850
36744W        W 8360   1.801  21.202   2.563
36745W        W 8361  22.037   4.409  12.899
36746W        W 8362  33.001   1.491   3.300
36747W        W 8363  13.413  10.791  14.059
36748W        W 8364   7.659  41.743   4.654
36749W        W 8365   5.764  36.021   3.283
36750W        W 8366  23.652  34.619   3.650
36751W        W 8367  43.954  14.692  12.131
36752W        W 8368  21.110  15.891  14.674
36753W        W 8369  28.596  20.990  11.440
36754W        W 8370  23.081  38.878  11.464
36755W        W 8371   3.256  24.999  11.752
36756W        W 8372  31.684  16.342  13.859
36757W        W 8373  25.978  24.102   2.109
36758W        W 8374  24.442  17.139   2.566
36759W        W 8375  31.878  33.269   3.725
36760W        W 8376  26.445  42.241   3.817
36761W        W 8377  42.098  42.345   3.417
36762W        W 8378  28.177  14.758  11.052
36763W        W 8379  24.383  19.943   3.438
36764W        W 8380   1.898  43.358   3.146
36765W        W 8381  20.927   7.378   1.801
36766W        W 8382  18.027  27.864  13.339
36767W        W 8383   7.898  40.468  11.835
36768W        W 8384   9.058  14.370   3.661
36769W        W 8385  29.582  27.408  14.042
36770W        W 8386  40.166  22.558   3.300
36771W        W 8387  13.702  22.537  10.861
36772W        W 8388  24.463  37.291  11.147
36773W        W 8389  40.297  28.992   3.507
36774W        W 8390   2.272  17.748   2.213
36775W        W 8391  23.120   9.414   4.198
36776W        W 8392  33.571  10.889   0.933
36777W        W 8393  20.706  24.023   3.620
36778W        W 8394   7.827  21.022  12.094
36779W        W 8395   9.803  39.645   1.308
36780W        W 8396   6.791  32.915   4.339
36781W        W 8397  30.670  23.676   3.632
36782W        W 8398  12.930  24.110  12.840
36783W        W 8399  34.772  14.047   0.370
36784W        W 8400  37.287  21.379  13.283
36785W        W 8401  35.387  11.209   3.245
36786W        W 8402  36.830  17.435  11.543
36787W        W 8403  35.055   6.860   1.784
36788W        W 8404  20.155   4.967   0.659
36789W        W 8405  30.177  28.862  11.136
36790W        W 8406  24.518  38.633  13.028
36791W        W 8407  25.812  35.505   0.447
36792W        W 8408   1.876  43.480  13.267
36793W        W 8409  13.126  31.641  14.403
36794W        W 8410   3.430  16.487   2.831
36795W        W 8411   5.780   1.864   0.889
36796W        W 8412  31.333  16.883   1.306
36797W        W 8413  22.483  23.155  14.525
36798W        W 8414  43.012   0.334   2.757
36799W        W 8415  27.277  30.100  10.723
36800W        W 8416  22.279  28.053  13.267
36801W        W 8417  40.818  31.186  13.433
36802W        W 8418   6.629  33.984   4.713
36803W        W 8419  17.277  26.363  12.110
36804W        W 8420  16.412   3.979  10.506
36805W        W 8421  38.937  17.923  14.543
36806W        W 8422  40.913   4.288  12.921
36807W        W 8423  15.150  34.464  12.934
36808W        W 8424  19.234  15.846   3.761
36809W        W 8425  34.405  12.826  12.083
36810W        W 8426  20.804  32.309  14.918
36811W        W 8427  21.591  34.961   2.116
36812W        W 8428  16.047  19.143  13.743
36813W        W 8429  10.213   9.781   3.356
36814W        W 8430  22.007  10.958   2.375
36815W        W 8431   6.950   9.339  10.792
36816W        W 8432  42.900  11.822   2.487
36817W        W 8433  19.150  34.217  13.396
36818W        W 8434  11.679  13.606   1.100
36819W        W 8435  13.699  43.135  14.727
36820W        W 8436  25.130   4.853  10.432
36821W        W 8437   0.552  30.877   4.164
36822W        W 8438  21.301   3.825   3.905
36823W        W 8439   7.338  40.988  11.525
36824W        W 8440  31.812  35.805  14.405
36825W        W 8441  19.165  29.004  11.472
36826W        W 8442  42.606  32.906  10.468
36827W        W 8443  19.315  28.564   2.726
36828W        W 8444  40.463   0.184  11.046
36829W        W 8445  28.257  23.681  14.210
36830W        W 8446   2.783  15.888   1.364
36831W        W 8447  18.949  20.157   3.094
36832W        W 8448   3.144   0.264  13.115
36833W        W 8449   7.838  31.615   4.935
36834W        W 8450   2.239  17.222  12.008
36835W        W 8451  33.516  20.222  14.369
36836W        W 8452  31.597  43.408   0.989
36837W        W 8453  43.312  13.393  12.573
36838W        W 8454  12.925  17.730   3.620
36839W        W 8455   9.424  12.138   1.389
36840W        W 8456  22.121  10.954  11.306
36841W        W 8457  42.275  22.040   0.352
36842W        W 8458  11.715  26.547  14.414
36843W        W 8459  38.169   6.964   1.224
36844W        W 8460   3.761  11.279  11.916
36845W        W 8461   1.952  25.232   0.758
36846W        W 8462  40.515  12.478   3.116
36847W        W 8463  36.521  20.147  10.912
36848W        W 8464  23.652  31.401  14.425
36849W        W 8465  43.319  12.096  10.864
36850W        W 8466  34.772  24.591   0.745
36851W        W 8467  23.685  42.461  13.546
36852W        W 8468  41.866  42.562   2.733
36853W        W 8469  42.251  18.426   1.699
36854W        W 8470  21.577   3.392   3.813
36855W        W 8471  31.912  19.647  12.492
36856W        W 8472  40.943  31.954   3.083
36857W        W 8473  34.447  36.341  10.463
36858W        W 8474  30.495  27.668  11.117
36859W        W 8475  10.819  16.989   4.898
36860W        W 8476  11.115  25.420  14.345
36861W        W 8477  31.000   4.700   3.674
36862W        W 8478  12.261   6.681  10.400
36863W        W 8479  41.413   9.833   3.685
36864W        W 8480  15.948  31.959  11.357
36865W        W 8481  28.274   4.600   1.946
36866W        W 8482  32.013  28.197   0.882
36867W        W 8483  18.249  34.807   1.155
36868W        W 8484   4.483   1.809   1.794
36869W        W 8485  34.621  23.050   1.472
36870W        W 8486   6.266  30.497  11.952
36871W        W 8487  29.939  26.990   0.879
36872W        W 8488   7.062  22.188   2.276
36873W        W 8489  21.187   1.777  11.507
36874W        W 8490  11.308  10.173  13.041
36875W        W 8491  13.686  43.296   0.233
36876W        W 8492  35.290  13.619   0.825
36877W        W 8493  11.395  37.029   2.723
36878W        W 8494  34.155   8.602   2.089
36879W        W 8495  21.399  43.007   5.185
36880W        W 8496  30.614   4.310   4.813
36881W        W 8497   9.720  26.107   4.550
36882W        W 8498  27.123  27.271  14.588
36883W        W 8499  20.861   6.838  12.476
36884W        W 8500  39.741  41.567  14.044
36885W        W 8501  40.238  34.157   4.680
36886W        W 8502   2.199  11.829   0.434
36887W        W 8503  30.437  12.056   0.965
36888W        W 8504  25.187   3.365   4.606
36889W        W 8505   4.275   3.744  12.148
36890W        W 8506   0.239  37.440  14.430
36891W        W 8507   4.760  25.689   4.603
36892W        W 8508  32.817   5.230  13.937
36893W        W 8509  37.119   8.736  14.784
36894W        W 8510   6.273  26.507  11.957
36895W        W 8511  11.686  34.034  10.636
36896W        W 8512  18.377   0.178   0.264
36897W        W 8513  12.606   6.722   1.133
36898W        W 8514  18.377  32.385  14.902
36899W        W 8515  31.066  17.633   0.969
36900W        W 8516  29.037  39.883  14.299
36901W        W 8517  25.507   0.340   4.330
36902W        W 8518  22.006   8.511  10.510
36903W        W 8519  30.538  15.786  12.482
36904W        W 8520  32.567  44.348   3.809
36905W        W 8521  18.705  17.738  12.738
36906W        W 8522  40.568  22.672   2.342
36907W        W 8523  32.403  44.514   2.938
36908W        W 8524  44.327  32.051   3.408
36909W        W 8525  34.804   5.864   1.760
36910W        W 8526  32.049  18.506  13.501
36911W        W 8527  17.828  29.551  13.499
36912W        W 8528  26.586  25.292   1.766
36913W        W 8529  42.851  20.753   3.255
36914W        W 8530  12.527  18.307  10.583
36915W        W 8531  10.637  14.223   1.687
36916W        W 8532  32.138  40.590  12.955
36917W        W 8533  23.244   3.697  11.202
36918W        W 8534  17.051  22.706   2.291
36919W        W 8535  24.897  33.332   4.225
36920W        W 8536   3.423  17.387   0.009
36921W        W 8537  26.123  25.137   1.521
36922W        W 8538  40.497  31.548   2.379
36923W        W 8539  33.491   6.969  12.427
36924W        W 8540  25.006  32.414  12.574
36925W        W 8541  43.627  22.087  10.683
36926W        W 8542  37.358  18.515  12.116
36927W        W 8543  18.811   5.130  12.869
36928W        W 8544  38.892  32.153  10.931
36929W        W 8545  40.727  23.791   3.278
36930W        W 8546  18.536   4.267   4.308
36931W        W 8547   2.177  17.773   4.932
36932W        W 8548  27.443  29.657   1.703
36933W        W 8549  21.054  15.825   9.961
36934W        W 8550  14.840   5.518  14.838
36935W        W 8551   1.221  18.986  12.958
36936W        W 8552  22.687  14.868   1.200
36937W        W 8553  16.091   1.684   2.229
36938W        W 8554  35.938  33.209  12.233
36939W        W 8555  27.117  20.137   4.463
36940W        W 8556  30.527   9.844  13.076
36941W        W 8557  43.933  11.497  14.384
36942W        W 8558  37.530  24.661  12.446
36943W        W 8559  43.636  28.446   3.389
36944W        W 8560  10.568  29.970   3.519
36945W        W 8561  33.940   4.149   3.684
36946W        W 8562  42.402  30.903   4.366
36947W        W 8563  34.431  42.504   3.175
36948W        W 8564  19.444  30.391   3.572
36949W        W 8565   7.699  19.487   2.382
36950W        W 8566  42.799  28.990  14.995
36951W        W 8567   6.719  22.497   2.917
36952W        W 8568  36.905   9.177  14.932
36953W        W 8569   7.297   2.947   1.044
36954W        W 8570   6.231   1.694   3.221
36955W        W 8571  19.069  18.604  13.365
36956W        W 8572  35.101   4.808  12.021
36957W        W 8573   6.778   1.263  11.093
36958W        W 8574  10.152  34.204   4.515
36959W        W 8575  26.446  22.614  11.080
36960W        W 8576  43.262  33.046  12.927
36961W        W 8577  34.081  16.628   1.506
36962W        W 8578  28.550  35.566   3.664
36963W        W 8579   8.110  10.641   2.854
36964W        W 8580   5.175  30.706   0.437
36965W        W 8581  22.502   5.920  11.625
36966W        W 8582   5.836  12.630  14.864
36967W        W 8583  27.105  23.129  14.482
36968W        W 8584  38.240  12.953   1.262
36969W        W 8585  15.172  42.021   5.014
36970W        W 8586  21.673  37.418   0.283
36971W        W 8587   8.706   8.408  13.397
36972W        W 8588  33.078  39.573   0.781
36973W        W 8589  25.312  25.873   3.913
36974W        W 8590  21.165  42.919   4.039
36975W        W 8591   3.960  28.487  10.821
36976W        W 8592  20.563  26.681   4.164
36977W        W 8593  27.999  18.334  13.497
36978W        W 8594  34.110   1.416  10.308
36979W        W 8595   7.048  44.487   2.969
36980W        W 8596  10.897  22.950  14.916
36981W        W 8597  19.736  19.906  14.648
36982W        W 8598   9.226   2.770  10.602
36983W        W 8599  29.267  24.174  14.598
36984W        W 8600   9.918  17.752  10.742
36985W        W 8601  33.779  32.684   4.760
36986W        W 8602  42.897  35.128   1.868
36987W        W 8603  38.100  37.255  14.087
36988W        W 8604  13.758  39.687   2.819
36989W        W 8605  15.944  27.965  10.287
36990W        W 8606  32.922  28.636  14.340
36991W        W 8607  17.217  10.588   0.885
36992W        W 8608  22.778  34.392   2.212
36993W        W 8609  43.909  44.824  14.837
36994W        W 8610  37.991  44.046   4.262
36995W        W 8611   1.532   7.796   0.618
36996W        W 8612  36.865  31.929  13.853
36997W        W 8613   9.762  29.434   1.552
36998W        W 8614  37.001  11.007   5.435
36999W        W 8615  18.738  18.240  12.562
37000W        W 8616  19.299  15.222  13.046
37001W        W 8617  42.865   3.158  11.359
37002W        W 8618   0.857  17.192  12.871
37003W        W 8619  31.459  25.527   4.715
37004W        W 8620   8.700  11.613  10.751
37005W        W 8621  36.930  35.114  10.667
37006W        W 8622  17.673  37.437   2.351
37007W        W 8623  27.265   4.712   0.833
37008W        W 8624  18.222   0.207   2.686
37009W        W 8625  35.431  40.776   0.332
37010W        W 8626  18.849  16.338  12.608
37011W        W 8627   3.855  42.246  10.634
37012W        W 8628  29.861  16.818  12.198
37013W        W 8629  24.970   4.405  10.653
37014W        W 8630   7.674  35.527  12.435
37015W        W 8631  35.607  32.170  12.579
37016W        W 8632  22.581  13.128  13.037
37017W        W 8633   0.444  17.494  14.904
37018W        W 8634  19.674  18.440   1.799
37019W        W 8635   3.825  23.554   3.751
37020W        W 8636  39.652  26.812  13.835
37021W        W 8637  34.456  25.262   3.935
37022W        W 8638   4.915   4.511  11.885
37023W        W 8639  37.342   2.989   1.807
37024W        W 8640  43.626  19.166  14.250
37025W        W 8641  15.756   3.335   0.257
37026W        W 8642  25.437  39.896   2.917
37027W        W 8643   8.005  17.141   3.355
37028W        W 8644  28.208  15.038   0.719
37029W        W 8645  21.976  35.011   2.530
37030W        W 8646  33.000  23.494   0.539
37031W        W 8647   2.418  24.190  11.138
37032W        W 8648   4.405  13.861  11.028
37033W        W 8649  12.960  32.705  11.657
37034W        W 8650   7.955   1.710   2.853
37035W        W 8651  11.882  41.476   3.680
37036W        W 8652  28.188  15.245  14.436
37037W        W 8653  21.278  40.798   4.208
37038W        W 8654   5.479  22.697   2.747
37039W        W 8655  21.467  36.458  11.446
37040W        W 8656  17.258  42.484  10.891
37041W        W 8657  29.147  36.918   2.262
37042W        W 8658  13.742  31.470  12.557
37043W        W 8659  42.334  30.265   0.529
37044W        W 8660  12.722  42.475   1.471
37045W        W 8661  24.613  35.923   0.981
37046W        W 8662  35.527  31.488   1.408
37047W        W 8663   9.427  30.938  13.958
37048W        W 8664   7.432  37.772   0.932
37049W        W 8665  34.930  24.071  10.685
37050W        W 8666  31.872  14.936   0.069
37051W        W 8667  41.065  40.050  11.549
37052W        W 8668   4.393  17.708  14.896
37053W        W 8669   2.370  26.201  11.239
37054W        W 8670   8.779   7.662  13.793
37055W        W 8671  30.575  27.858   4.035
37056W        W 8672   7.683  22.565   3.330
37057W        W 8673  24.728  42.084  11.144
37058W        W 8674   2.111  28.872   5.023
37059W        W 8675  37.820  11.303  10.633
37060W        W 8676  40.427  13.898   1.314
37061W        W 8677   5.899  10.167  12.134
37062W        W 8678   2.339  40.557  14.381
37063W        W 8679  29.142  43.795   4.599
37064W        W 8680  24.446  44.514  11.087
37065W        W 8681  29.958  34.390  10.701
37066W        W 8682   7.147  24.865   3.267
37067W        W 8683  24.983  25.089   4.173
37068W        W 8684  30.496   4.506   2.811
37069W        W 8685  13.172   6.177   0.686
37070W        W 8686  34.970  15.529   4.974
37071W        W 8687  16.313  36.276  14.929
37072W        W 8688  29.144   0.843  12.480
37073W        W 8689  29.165  20.583   3.188
37074W        W 8690  29.210  13.102  10.676
37075W        W 8691   8.867  17.469   3.205
37076W        W 8692   9.428   5.367   1.258
37077W        W 8693   7.422  12.145  13.288
37078W        W 8694  43.820   2.227   2.292
37079W        W 8695   3.416   9.656   3.162
37080W        W 8696  17.522   4.264   3.971
37081W        W 8697  20.225   7.309  14.501
37082W        W 8698   6.763   9.909  11.991
37083W        W 8699   5.805  39.351  12.711
37084W        W 8700  17.504  42.955   1.693
37085W        W 8701  29.186  28.725   5.140
37086W        W 8702   4.982  35.469   4.851
37087W        W 8703  27.457  27.132   3.165
37088W        W 8704  42.438   6.728   1.709
37089W        W 8705  28.986  44.277  10.710
37090W        W 8706  41.952  31.540  10.998
37091W        W 8707  43.675  24.556  13.488
37092W        W 8708  23.606  13.122   1.416
37093W        W 8709  11.586  23.015  12.145
37094W        W 8710  16.666  36.938   4.637
37095W        W 8711   7.687  27.124   4.322
37096W        W 8712  33.930  43.915  14.079
37097W        W 8713  15.221  11.283   4.432
37098W        W 8714  17.519  31.676  10.723
37099W        W 8715  32.428  23.179   2.823
37100W        W 8716   3.114  36.400  12.088
37101W        W 8717  43.781  38.931   3.916
37102W        W 8718  18.807   3.168   3.276
37103W        W 8719  24.160  31.577  14.380
37104W        W 8720  18.093   3.738   2.801
37105W        W 8721  43.487  33.957   2.303
37106W        W 8722   4.694   6.231   0.028
37107W        W 8723  27.888  44.189  11.607
37108W        W 8724  17.665   8.089   0.014
37109W        W 8725  21.516  28.612  11.598
37110W        W 8726   5.737  41.706  10.954
37111W        W 8727  11.860   1.140  13.627
37112W        W 8728  15.591  34.202  11.931
37113W        W 8729  29.981  23.404  10.706
37114W        W 8730  40.470   8.410   2.714
37115W        W 8731  32.086  17.406  10.606
37116W        W 8732  35.356  19.048  13.980
37117W        W 8733  21.544  20.211   1.844
37118W        W 8734  19.074  27.554  14.373
37119W        W 8735  17.025  44.000  11.205
37120W        W 8736  23.140  16.726   0.363
37121W        W 8737  20.460   3.701  12.071
37122W        W 8738   1.684  29.455   1.029
37123W        W 8739  39.365  15.429   1.442
37124W        W 8740  11.300  30.021   4.143
37125W        W 8741   4.331  40.099  14.554
37126W        W 8742  15.507  31.707  12.034
37127W        W 8743   5.327  21.505  14.248
37128W        W 8744  41.382   2.224  13.897
37129W        W 8745   1.895  17.600  11.160
37130W        W 8746   4.694  10.493  10.724
37131W        W 8747   7.209  28.906   0.904
37132W        W 8748  16.128  40.281  13.096
37133W        W 8749  21.051   9.941  10.632
37134W        W 8750  42.278  16.756  14.035
37135W        W 8751   1.432  35.413  10.622
37136W        W 8752   9.143  36.915   2.034
37137W        W 8753  22.120  30.962  12.893
37138W        W 8754  23.015  26.245  12.480
37139W        W 8755  10.153   3.283  12.874
37140W        W 8756   6.969  18.535  12.414
37141W        W 8757  20.270  13.288  13.894
37142W        W 8758   4.315  23.349  12.735
37143W        W 8759  31.498  14.515  12.966
37144W        W 8760  23.659   6.178   0.836
37145W        W 8761   4.304  28.587  13.509
37146W        W 8762  11.374  10.143   2.286
37147W        W 8763  17.470  15.572  14.897
37148W        W 8764  26.609   8.413  10.758
37149W        W 8765  16.475   4.881   2.383
37150W        W 8766   6.846  15.874   0.971
37151W        W 8767  11.295  28.049   1.148
37152W        W 8768   0.720  17.601   3.235
37153W        W 8769   4.370   9.667   3.330
37154W        W 8770   4.937  19.025   4.068
37155W        W 8771   3.923   0.379   4.314
37156W        W 8772  18.912  37.206   3.821
37157W        W 8773  16.728  15.381  12.809
37158W        W 8774  10.464  30.577   1.347
37159W        W 8775  25.548  42.438   2.142
37160W        W 8776  40.900  28.236   2.336
37161W        W 8777   8.481  43.950  14.870
37162W        W 8778  36.486   3.461   0.526
37163W        W 8779   2.412  32.356   2.263
37164W        W 8780  43.380  12.171  11.394
37165W        W 8781  10.155  15.910  12.758
37166W        W 8782  13.626  10.831   3.443
37167W        W 8783  12.025  34.556  11.966
37168W        W 8784  31.979  14.210   2.221
37169W        W 8785  20.995  26.632  14.766
37170W        W 8786  42.554  43.462   3.634
37171W        W 8787  27.602  22.809  14.864
37172W        W 8788  31.492  27.125   4.794
37173W        W 8789  12.619  17.184   4.233
37174W        W 8790  24.648  27.543  14.126
37175W        W 8791  25.237  26.448  14.419
37176W        W 8792  30.659  29.209  12.828
37177W        W 8793  14.807   7.814  10.856
37178W        W 8794  38.441  37.384   2.294
37179W        W 8795  14.789   6.520  13.175
37180W        W 8796  32.055  12.795  12.670
37181W        W 8797   3.408  16.811   2.411
37182W        W 8798   6.653   9.505   0.779
37183W        W 8799  36.050  18.313  10.667
37184W        W 8800  28.371  27.004  13.987
37185W        W 8801  15.833  29.413  11.581
37186W        W 8802  21.121  43.512  13.528
37187W        W 8803  41.040  32.470   0.816
37188W        W 8804  19.441  33.553  12.877
37189W        W 8805   3.144  16.924   3.885
37190W        W 8806  13.451  25.565   4.112
37191W        W 8807  44.011  36.354   4.009
37192W        W 8808  22.797  19.521   3.260
37193W        W 8809  37.817   7.345  13.964
37194W        W 8810  41.318  22.295  14.507
37195W        W 8811  15.156  29.082   0.635
37196W        W 8812   7.675  14.583   0.505
37197W        W 8813   2.704  11.232   2.814
37198W        W 8814   7.789  41.722   1.894
37199W        W 8815  12.675   9.612  14.197
37200W        W 8816  25.157  21.445  13.002
37201W        W 8817  25.983  40.870   4.485
37202W        W 8818   8.123   4.825   3.975
37203W        W 8819  26.985  38.150   3.583
37204W        W 8820   6.293  15.250  11.632
37205W        W 8821   0.747  39.372   0.541
37206W        W 8822  44.767  42.935  13.199
37207W        W 8823  16.413  23.052  13.484
37208W        W 8824  41.974  37.865  10.756
37209W        W 8825  30.963  33.209  14.888
37210W        W 8826  43.898  41.956  13.818
37211W        W 8827   7.360  28.557  12.062
37212W        W 8828  30.658  26.904   1.944
37213W        W 8829   8.636  18.053  10.788
37214W        W 8830   3.064  30.542  14.711
37215W        W 8831  14.894   0.530   4.666
37216W        W 8832  34.585  23.693  10.654
37217W        W 8833  39.891  25.599  14.271
37218W        W 8834   9.126  15.118  14.098
37219W        W 8835   3.313  22.120   1.955
37220W        W 8836  17.274  31.921   0.939
37221W        W 8837  22.568   4.113  10.731
37222W        W 8838  32.528  15.786   0.863
37223W        W 8839  30.055  16.127  10.674
37224W        W 8840  31.055  15.671  12.385
37225W        W 8841   9.184  20.794   3.306
37226W        W 8842  43.052  39.944  11.574
37227W        W 8843  15.165   1.665  14.450
37228W        W 8844  11.200  27.619   0.871
37229W        W 8845  12.707   6.307   3.641
37230W        W 8846  28.959  26.410  12.166
37231W        W 8847  20.451  36.856  13.397
37232W        W 8848  39.242  10.933   9.833
37233W        W 8849  39.371   6.257  10.590
37234W        W 8850  31.036  34.992   2.619
37235W        W 8851  20.165   1.795   4.515
37236W        W 8852  18.505  19.571  13.449
37237W        W 8853  26.041  12.713  10.666
37238W        W 8854   2.289  18.323  11.513
37239W        W 8855  41.971   0.973  14.524
37240W        W 8856  42.323   4.227   0.863
37241W        W 8857  41.385   4.854  14.474
37242W        W 8858  25.497  37.360   4.578
37243W        W 8859  22.398  40.603  13.067
37244W        W 8860  17.740  41.345   3.310
37245W        W 8861  19.391   6.416   0.741
37246W        W 8862  28.988  15.564   2.769
37247W        W 8863  40.258  18.696  14.394
37248W        W 8864  33.346  27.009   3.966
37249W        W 8865   9.753  31.464   1.732
37250W        W 8866  20.712  41.100  14.864
37251W        W 8867  29.412   2.349  11.178
37252W        W 8868  17.729  28.221   1.257
37253W        W 8869  20.504  23.521  10.646
37254W        W 8870  24.955  18.791  13.663
37255W        W 8871   3.372  31.956  14.514
37256W        W 8872  22.724  30.388   3.125
37257W        W 8873  31.127  31.611  14.100
37258W        W 8874  18.637  10.626  14.928
37259W        W 8875  19.148   3.212   1.183
37260W        W 8876   2.711  41.998   3.570
37261W        W 8877  40.588  42.309  14.954
37262W        W 8878  20.491  29.184   1.528
37263W        W 8879  25.244  42.816  11.298
37264W        W 8880   1.633  14.535  14.040
37265W        W 8881  15.369  16.249  12.366
37266W        W 8882  12.353   4.401   1.209
37267W        W 8883  35.947  33.150  14.791
37268W        W 8884   9.945   6.279   0.383
37269W        W 8885  22.625  28.132   4.910
37270W        W 8886  40.855  11.449  14.333
37271W        W 8887  28.930  22.289   2.091
37272W        W 8888  15.765  35.083   3.659
37273W        W 8889  12.474   2.966  10.497
37274W        W 8890  21.704  18.415  14.386
37275W        W 8891   3.771  22.169   2.189
37276W        W 8892   9.800  28.352   3.528
37277W        W 8893  17.093  20.527  13.373
37278W        W 8894  17.660  33.483  11.585
37279W        W 8895   7.744  30.108   3.482
37280W        W 8896  15.266   5.825  12.028
37281W        W 8897  35.610  31.626   4.141
37282W        W 8898  17.343  36.802   3.949
37283W        W 8899  20.905   9.792   0.819
37284W        W 8900   6.326   4.506   1.371
37285W        W 8901  40.137   6.881  12.984
37286W        W 8902  39.560  10.800  10.281
37287W        W 8903  44.275  16.281  13.948
37288W        W 8904  31.546  26.525   4.435
37289W        W 8905   3.509  32.175   3.782
37290W        W 8906  33.298   9.767   0.400
37291W        W 8907  29.823  19.638   0.372
37292W        W 8908   6.409  20.785   2.309
37293W        W 8909  22.384  26.654   4.113
37294W        W 8910  43.699  38.998   3.428
37295W        W 8911  28.944  28.277  10.748
37296W        W 8912   7.253  28.883   3.241
37297W        W 8913  30.996  13.120   3.085
37298W        W 8914   6.812   4.476  10.686
37299W        W 8915  12.681   6.515  11.551
37300W        W 8916  17.787  37.928   3.214
37301W        W 8917  25.415   4.695   0.394
37302W        W 8918  28.664  12.257   3.707
37303W        W 8919  24.048  29.906   0.906
37304W        W 8920  32.291   5.127   4.130
37305W        W 8921   8.205  20.836  14.229
37306W        W 8922  36.952  27.027   1.322
37307W        W 8923  24.458  25.102  12.213
37308W        W 8924  25.002  33.736  12.877
37309W        W 8925   9.585  18.658   2.684
37310W        W 8926  30.377   5.657  13.792
37311W        W 8927  35.945  24.987   1.213
37312W        W 8928  38.609  10.866  12.433
37313W        W 8929  41.194  28.586  11.572
37314W        W 8930  43.332  15.194  13.873
37315W        W 8931  12.789  31.167  13.568
37316W        W 8932   7.010  27.450  13.979
37317W        W 8933   5.382  20.255   3.358
37318W        W 8934   9.889  10.718   1.361
37319W        W 8935  17.816  16.856   0.563
37320W        W 8936  32.680  44.137   0.324
37321W        W 8937   9.351  15.293  11.007
37322W        W 8938   1.966  41.286  11.518
37323W        W 8939  36.584  27.052   0.933
37324W        W 8940  21.751  25.531  13.831
37325W        W 8941  43.402  43.386   3.185
37326W        W 8942   4.338   3.137  13.395
37327W        W 8943  26.041  22.619  10.710
37328W        W 8944  44.790  13.639  13.746
37329W        W 8945  41.383   6.159  12.477
37330W        W 8946  27.878  21.878  13.951
37331W        W 8947  19.251  37.632  10.871
37332W        W 8948  21.042  24.516   0.651
37333W        W 8949  13.885  14.270   4.686
37334W        W 8950  35.834  21.065   3.222
37335W        W 8951   4.811  24.913   1.304
37336W        W 8952   1.471  33.813  13.840
37337W        W 8953   6.674  37.122  11.248
37338W        W 8954  24.032  12.855  10.819
37339W        W 8955  27.971   0.516   2.444
37340W        W 8956  23.283  19.686   2.882
37341W        W 8957   8.155   8.753  13.880
37342W        W 8958  29.070  30.623  10.390
37343W        W 8959   5.439  27.210  12.960
37344W        W 8960  10.357  40.938   1.409
37345W        W 8961  12.236  35.343  10.793
37346W        W 8962  17.765   3.254   0.483
37347W        W 8963  36.336  18.165  12.195
37348W        W 8964  25.936  16.360   5.004
37349W        W 8965  10.234  10.852   0.331
37350W        W 8966   5.275  32.061  10.017
37351W        W 8967  12.172   9.447   3.905
37352W        W 8968  33.816  14.414   4.048
37353W        W 8969  11.374  23.560   4.551
37354W        W 8970  16.806  33.057   2.263
37355W        W 8971   9.868  34.330  13.536
37356W        W 8972   3.053   6.051  12.221
37357W        W 8973  32.812  27.556   5.054
37358W        W 8974  16.051  18.794  10.649
37359W        W 8975  16.076  14.226  12.119
37360W        W 8976  41.511  20.800  10.473
37361W        W 8977  41.264  12.187  13.903
37362W        W 8978   7.992   8.658  14.776
37363W        W 8979  10.840  13.516  12.133
37364W        W 8980   6.380  23.064   0.898
37365W        W 8981  25.964   8.876   2.504
37366W        W 8982   1.356  30.612   4.091
37367W        W 8983  13.494  38.906  13.463
37368W        W 8984  33.344  36.431  11.873
37369W        W 8985   4.659   3.401   2.384
37370W        W 8986   5.852  11.073  14.975
37371W        W 8987  11.649  43.507   4.587
37372W        W 8988  20.794  42.147   0.044
37373W        W 8989  36.137  33.509   3.350
37374W        W 8990  21.656  12.614   4.548
37375W        W 8991  26.087  11.418   2.664
37376W        W 8992  43.781  14.237   2.907
37377W        W 8993   0.226  11.142  14.805
37378W        W 8994  27.256  13.940   4.528
37379W        W 8995  15.490  21.470  12.142
37380W        W 8996  14.606   9.295   0.724
37381W        W 8997   6.802  39.882  13.433
37382W        W 8998  23.328  16.011  12.761
37383W        W 8999  29.598   0.867   3.324
37384W        W 9000   2.808  33.151  10.552
37385W        W 9001  40.258  12.423   5.406
37386W        W 9002  24.669   1.682   0.277
37387W        W 9003   4.075   9.820   2.639
37388W        W 9004  11.714  39.035  10.622
37389W        W 9005  23.024  26.271   4.189
37390W        W 9006  26.502  36.329   4.922
37391W        W 9007  22.471   5.027  12.901
37392W        W 9008  42.355  28.505   1.463
37393W        W 9009   9.175   3.705   0.415
37394W        W 9010  43.973  37.615  14.347
37395W        W 9011  15.101  14.596  12.914
37396W        W 9012  41.408  41.193   0.296
37397W        W 9013  37.911  44.385  10.796
37398W        W 9014   9.886  11.869  11.176
37399W        W 9015   6.739  22.141  13.953
37400W        W 9016  21.482  15.367   3.297
37401W        W 9017  17.475  29.673  11.188
37402W        W 9018   3.757  37.854  12.948
37403W        W 9019   6.929  19.962  14.493
37404W        W 9020  22.773  39.083   0.850
37405W        W 9021  12.060  42.979  14.277
37406W        W 9022   0.677   6.419  11.496
37407W        W 9023   1.241  42.388   2.750
37408W        W 9024  25.527  14.134  11.026
37409W        W 9025  43.242  43.553  11.191
37410W        W 9026  30.898  19.746  13.371
37411W        W 9027  34.247  11.040  13.939
37412W        W 9028  42.817  23.207   0.089
37413W        W 9029  11.283  22.135   2.673
37414W        W 9030  22.935  23.083   3.697
37415W        W 9031   3.787  43.122  11.201
37416W        W 9032  42.354  24.442  14.774
37417W        W 9033  30.362   4.236   3.213
37418W        W 9034  28.799  23.110   2.716
37419W        W 9035  22.560  21.200  11.926
37420W        W 9036  32.137  15.805  12.920
37421W        W 9037  35.183  42.520   1.180
37422W        W 9038  22.552  18.662   5.125
37423W        W 9039   7.716   2.902   2.791
37424W        W 9040  14.677  10.878  12.523
37425W        W 9041  18.291  24.204   2.737
37426W        W 9042   0.437  14.841   0.383
37427W        W 9043  44.863  27.612   3.413
37428W        W 9044  12.319  16.543   1.250
37429W        W 9045  13.632  40.950  11.667
37430W        W 9046   3.488  36.037  13.366
37431W        W 9047  27.959   1.683  13.448
37432W        W 9048  41.660  28.756  11.611
37433W        W 9049   0.986  42.534  13.094
37434W        W 9050  34.376  28.516  11.098
37435W        W 9051  24.736  39.023  13.474
37436W        W 9052  20.005  29.933   2.779
37437W        W 9053   8.228  15.202   1.183
37438W        W 9054  42.634  10.235  11.578
37439W        W 9055  41.030  16.590   1.888
37440W        W 9056  14.056  44.300  12.662
37441W        W 9057  23.073  26.557   1.899
37442W        W 9058  18.644  44.731  13.825
37443W        W 9059  15.586  40.361  14.406
37444W        W 9060  32.107  39.824  11.284
37445W        W 9061  22.898  31.280   2.623
37446W        W 9062   8.164  19.081  12.885
37447W        W 9063  33.582  36.877  11.981
37448W        W 9064  27.967  12.181   0.894
37449W        W 9065  25.973  17.287   1.633
37450W        W 9066  17.564  12.572   1.717
37451W        W 9067  40.636  20.569  14.300
37452W        W 9068  36.024  43.950  13.752
37453W        W 9069   7.680  36.937  13.321
37454W        W 9070  43.069  14.452   3.546
37455W        W 9071  15.669  19.243   3.752
37456W        W 9072   1.225  19.482  12.729
37457W        W 9073  20.977  10.340  14.369
37458W        W 9074  14.059  11.313   0.014
37459W        W 9075  14.170  33.067  14.759
37460W        W 9076  12.687  40.309  10.919
37461W        W 9077  19.348  44.925  11.577
37462W        W 9078  38.477  43.879  12.465
37463W        W 9079   8.981  26.985   0.235
37464W        W 9080  11.324   0.884   3.375
37465W        W 9081  38.839  13.817  13.755
37466W        W 9082  35.919  23.063  12.979
37467W        W 9083  44.274  15.153  11.416
37468W        W 9084  19.219  28.110   2.272
37469W        W 9085   2.532  36.612   3.639
37470W        W 9086  32.900  25.402  11.631
37471W        W 9087  31.801  44.665  13.394
37472W        W 9088  27.192  33.894  13.227
37473W        W 9089   3.757  17.010  12.392
37474W        W 9090  42.717  35.643   0.283
37475W        W 9091  42.474  18.897   1.697
37476W        W 9092  35.448  35.719   3.781
37477W        W 9093  19.365  39.402  14.327
37478W        W 9094  18.243  16.562   0.648
37479W        W 9095  24.338  19.608   4.336
37480W        W 9096   2.744  30.853  14.956
37481W        W 9097  39.347  22.717   0.184
37482W        W 9098  39.509  30.561   3.425
37483W        W 9099  42.435  43.551  14.419
37484W        W 9100   6.266  14.728  11.546
37485W        W 9101  16.264  35.662   3.161
37486W        W 9102   1.758   3.238  14.447
37487W        W 9103  34.468  13.261   1.235
37488W        W 9104   2.322  39.879   1.032
37489W        W 9105   4.061  35.508   0.505
37490W        W 9106  11.760  42.096   5.062
37491W        W 9107  42.059  26.279  10.703
37492W        W 9108  30.216   0.949  10.362
37493W        W 9109   5.382  19.187  13.415
37494W        W 9110  29.079  16.258  11.393
37495W        W 9111  31.475  12.279   4.856
37496W        W 9112  19.551  13.167   3.822
37497W        W 9113  27.969  20.953   3.312
37498W        W 9114  20.297  23.537   2.847
37499W        W 9115  44.400  39.020   0.785
37500W        W 9116   4.812  39.336  12.513
37501W        W 9117   7.256  41.831   4.333
37502W        W 9118  34.398   3.648  13.637
37503W        W 9119  29.417   0.464   1.720
37504W        W 9120   2.405   9.243   1.785
37505W        W 9121  42.315  37.868  14.808
37506W        W 9122  34.981  42.341  11.896
37507W        W 9123   5.797   3.716   2.731
37508W        W 9124  13.623  24.969   2.691
37509W        W 9125  17.164  35.682   1.251
37510W        W 9126   7.112   8.646  12.740
37511W        W 9127  17.506  13.112  13.927
37512W        W 9128  43.059   5.626   2.368
37513W        W 9129  18.211   0.936   0.012
37514W        W 9130  43.316  17.779  10.771
37515W        W 9131  11.849  39.763  10.990
37516W        W 9132  19.602  41.366   1.356
37517W        W 9133   9.125  29.580  14.363
37518W        W 9134  32.106  31.665  11.444
37519W        W 9135   7.262  15.332   2.585
37520W        W 9136  11.741  10.910  12.466
37521W        W 9137  43.422  25.563  12.834
37522W        W 9138  19.231   7.933  10.746
37523W        W 9139  28.916  41.782   4.117
37524W        W 9140   8.489  38.048   3.130
37525W        W 9141  11.328  42.024   3.319
37526W        W 9142  24.496  21.048  13.960
37527W        W 9143  31.134   2.717   1.858
37528W        W 9144  11.362  22.652   2.793
37529W        W 9145  31.876  12.893  10.718
37530W        W 9146  22.788  30.623   3.585
37531W        W 9147  37.544  29.501   0.761
37532W        W 9148   3.698  40.523   2.743
37533W        W 9149  34.328  34.501   1.330
37534W        W 9150  34.970  21.188   3.830
37535W        W 9151  11.532  14.668   0.204
37536W        W 9152  22.983  25.456   3.713
37537W        W 9153  29.458   1.156   3.731
37538W        W 9154  35.555   6.095   4.154
37539W        W 9155   8.408  33.468   0.672
37540W        W 9156  41.431  40.588   3.626
37541W        W 9157   9.497  43.036   4.039
37542W        W 9158  10.904  14.239  14.517
37543W        W 9159  31.256  25.177   1.379
37544W        W 9160   8.798  32.933   3.810
37545W        W 9161  33.079  27.560   3.329
37546W        W 9162  27.208  10.232  12.130
37547W        W 9163  15.453  28.883   1.469
37548W        W 9164  12.207  20.125  10.585
37549W        W 9165  24.168  38.813  12.166
37550W        W 9166  23.909  43.051  13.391
37551W        W 9167  17.140   4.905  12.544
37552W        W 9168   5.072  13.639  11.160
37553W        W 9169  24.794  39.380   0.465
37554W        W 9170  25.601  41.937   3.801
37555W        W 9171  24.442  21.580   0.747
37556W        W 9172  18.501  26.519   0.411
37557W        W 9173   6.345   2.912   4.661
37558W        W 9174   3.243  20.600   2.209
37559W        W 9175  41.594   6.475  11.102
37560W        W 9176  21.460  38.139  13.901
37561W        W 9177  19.039   8.267  14.737
37562W        W 9178   7.448  44.597  13.281
37563W        W 9179  39.216  37.896   3.639
37564W        W 9180  20.951  37.098   2.328
37565W        W 9181  37.434   1.696   4.629
37566W        W 9182  20.015  13.666   0.284
37567W        W 9183  41.883  41.502  10.640
37568W        W 9184  14.640  20.403  14.766
37569W        W 9185  34.182  13.584  12.402
37570W        W 9186   2.745  25.880   1.261
37571W        W 9187  18.973   3.161   0.248
37572W        W 9188  44.871  43.984  10.364
37573W        W 9189  25.923  36.617  14.838
37574W        W 9190  44.981  26.625  10.654
37575W        W 9191  39.860   7.907   3.337
37576W        W 9192  43.840  26.150  10.885
37577W        W 9193   0.265  26.625  14.494
37578W        W 9194  12.354   3.372   2.648
37579W        W 9195  18.056   1.191  11.207
37580W        W 9196  41.262  43.273   2.680
37581W        W 9197  27.958  10.342   0.808
37582W        W 9198  28.510  40.487  11.950
37583W        W 9199  40.359  35.364   2.579
37584W        W 9200  37.873  35.435   0.797
37585W        W 9201  13.383  10.399   4.438
37586W        W 9202  16.688  18.028  11.890
37587W        W 9203  20.227  24.584  13.379
37588W        W 9204   2.180  34.858   0.801
37589W        W 9205   8.761  23.051   4.839
37590W        W 9206  28.591  26.578  11.752
37591W        W 9207  39.863  25.038  10.692
37592W        W 9208  11.287  33.046  13.016
37593W        W 9209  44.916  28.486  10.626
37594W        W 9210   1.416  27.966   0.700
37595W        W 9211   3.539  18.569  14.383
37596W        W 9212  10.343  30.112  14.734
37597W        W 9213  28.859  40.519   0.208
37598W        W 9214  22.858  29.582   0.374
37599W        W 9215  37.774  33.045   2.249
37600W        W 9216  27.691  42.610   3.218
37601W        W 9217  18.312   9.007  12.077
37602W        W 9218  36.571   5.811   3.863
37603W        W 9219   9.395  44.283  13.165
37604W        W 9220   1.170  25.709   2.860
37605W        W 9221   5.752  24.999   0.387
37606W        W 9222  14.359  21.518  14.776
37607W        W 9223   7.546  26.492  14.478
37608W        W 9224   2.519  17.272   4.580
37609W        W 9225  13.684  29.467  12.904
37610W        W 9226   4.701  36.192  11.568
37611W        W 9227   9.154  37.097   2.546
37612W        W 9228  21.017  17.159  11.570
37613W        W 9229  26.634  27.161   2.248
37614W        W 9230  11.077  43.366  14.836
37615W        W 9231  19.235  32.318   4.157
37616W        W 9232  18.610  25.136  13.660
37617W        W 9233  12.678  19.854   2.360
37618W        W 9234  19.829  42.335   4.191
37619W        W 9235  36.056  22.687   2.344
37620W        W 9236   9.340  11.715  13.141
37621W        W 9237   0.000  43.989   1.731
37622W        W 9238  35.080   7.972  13.743
37623W        W 9239  30.887  21.908  13.722
37624W        W 9240   3.373   0.655   1.249
37625W        W 9241  17.597  32.129   1.856
37626W        W 9242   8.281  41.381  11.929
37627W        W 9243  43.542  28.460  11.014
37628W        W 9244  18.928  23.966  12.418
37629W        W 9245  15.815   7.464  12.606
37630W        W 9246   1.052  37.731   4.328
37631W        W 9247  23.048  25.633  10.718
37632W        W 9248  38.836  44.253  10.706
37633W        W 9249   7.188  25.625  10.685
37634W        W 9250  29.968  42.417  13.076
37635W        W 9251  33.556  16.260   3.985
37636W        W 9252  34.330   9.182   1.793
37637W        W 9253   7.805  18.560   0.472
37638W        W 9254   9.106   9.348   0.954
37639W        W 9255  42.914  15.573   3.617
37640W        W 9256  16.047  32.456  11.568
37641W        W 9257  17.273   7.230   1.259
37642W        W 9258  28.881  16.080  13.824
37643W        W 9259  28.995  21.420  12.911
37644W        W 9260  24.384  20.302  11.619
37645W        W 9261  25.486  10.387   4.964
37646W        W 9262  10.373  26.511   1.253
37647W        W 9263  24.200  17.739   0.498
37648W        W 9264  14.340   3.130   0.292
37649W        W 9265  28.754  25.573   0.044
37650W        W 9266  44.996  40.487  14.749
37651W        W 9267  10.313  19.494  13.516
37652W        W 9268  10.706   2.150  12.918
37653W        W 9269  33.596  29.512   1.811
37654W        W 9270  23.568  42.012  10.763
37655W        W 9271  42.032  39.485   1.704
37656W        W 9272   1.653   5.911   0.783
37657W        W 9273  14.380  17.865  12.470
37658W        W 9274  37.806  11.911   3.497
37659W        W 9275   4.538  24.040   5.105
37660W        W 9276   2.480  37.330  11.292
37661W        W 9277  35.167  42.844   3.614
37662W        W 9278  32.604  31.969  11.535
37663W        W 9279  28.663  16.652   0.315
37664W        W 9280  43.206  32.030   3.568
37665W        W 9281  35.567  23.251  14.032
37666W        W 9282   5.260  25.316  14.712
37667W        W 9283  10.228  21.642   1.371
37668W        W 9284  44.056  30.477  10.610
37669W        W 9285  22.195  42.013  11.857
37670W        W 9286  17.569  28.179  14.418
37671W        W 9287  19.168   9.409   0.853
37672W        W 9288   8.354  39.186   0.440
37673W        W 9289  10.614  43.803  13.579
37674W        W 9290   1.994  23.655   0.350
37675W        W 9291  19.697  22.661  12.554
37676W        W 9292   3.450  21.117  11.422
37677W        W 9293  38.552  42.254  12.942
37678W        W 9294  17.614  28.042  13.044
37679W        W 9295  39.854  17.254  11.884
37680W        W 9296  33.033  21.976  14.769
37681W        W 9297  35.052   0.208  10.928
37682W        W 9298  26.751  33.869   3.221
37683W        W 9299  38.913   0.997   2.144
37684W        W 9300   7.662  30.895   1.191
37685W        W 9301   9.344  30.437   0.719
37686W        W 9302  37.102  35.483  14.278
37687W        W 9303  22.786   7.241   1.412
37688W        W 9304  23.323  21.392   3.741
37689W        W 9305  16.293  18.927   3.199
37690W        W 9306  36.615   0.557  13.935
37691W        W 9307  38.359  18.999   4.996
37692W        W 9308  37.901  41.160   4.713
37693W        W 9309  21.620  28.394   0.200
37694W        W 9310  20.523  33.480   3.796
37695W        W 9311  42.037  29.469   3.293
37696W        W 9312  28.209  42.347   0.765
37697W        W 9313   0.845   8.815   3.627
37698W        W 9314  29.132  16.537  14.969
37699W        W 9315   4.922  17.626   3.162
37700W        W 9316  35.481   1.940  13.550
37701W        W 9317  26.203  32.908  11.141
37702W        W 9318  17.088  29.047   0.317
37703W        W 9319  40.498  34.465  11.139
37704W        W 9320  19.809  19.613  11.570
37705W        W 9321   2.463  15.278   3.271
37706W        W 9322  37.910  16.506  12.464
37707W        W 9323  35.698   3.825   4.218
37708W        W 9324  22.991  22.632  11.956
37709W        W 9325  13.863   5.370   1.939
37710W        W 9326  39.731  15.954  14.894
37711W        W 9327  38.963  15.192   0.435
37712W        W 9328  18.316   9.389  10.631
37713W        W 9329  30.537  20.799  11.172
37714W        W 9330  18.259  31.204   2.798
37715W        W 9331  44.846  38.029   4.220
37716W        W 9332  34.620   5.960  13.021
37717W        W 9333  41.093  19.528   3.679
37718W        W 9334  19.173  16.675   1.670
37719W        W 9335   5.766  35.050   1.506
37720W        W 9336  35.390   2.369   0.291
37721W        W 9337   0.993  38.530   1.426
37722W        W 9338  32.481   3.392   2.969
37723W        W 9339  28.669   7.193  11.474
37724W        W 9340   6.809  11.359   1.942
37725W        W 9341  24.038  41.573   0.626
37726W        W 9342  31.587  30.540  13.050
37727W        W 9343  11.198  44.725  11.037
37728W        W 9344  29.658  21.794  13.430
37729W        W 9345  32.782  12.188  11.977
37730W        W 9346  20.809   2.437   1.829
37731W        W 9347  41.924  24.000  14.233
37732W        W 9348  20.506   4.435   2.329
37733W        W 9349  18.374  31.517  11.699
37734W        W 9350  38.020  33.113   3.769
37735W        W 9351  36.018  36.633  12.479
37736W        W 9352  30.469  42.794   0.948
37737W        W 9353  13.330  35.630   0.421
37738W        W 9354  28.643   2.913  14.929
37739W        W 9355  36.936  44.749   2.815
37740W        W 9356  21.220   9.158  11.152
37741W        W 9357  24.663  13.317  13.395
37742W        W 9358  40.806   8.098   2.177
37743W        W 9359   7.316  30.088  10.652
37744W        W 9360   0.392   3.666   3.262
37745W        W 9361   3.482  15.467  13.553
37746W        W 9362  30.151  15.408  12.343
37747W        W 9363  39.987  24.643   0.264
37748W        W 9364  40.877  10.307  14.827
37749W        W 9365  33.147  22.133  11.656
37750W        W 9366   4.408  41.261  13.849
37751W        W 9367  36.327   0.815   4.234
37752W        W 9368   0.346  35.552  12.571
37753W        W 9369  31.583  12.909   3.141
37754W        W 9370  28.485  24.910   1.279
37755W        W 9371   9.403  41.236  12.887
37756W        W 9372  14.589   7.268   4.317
37757W        W 9373  27.648  42.487  14.578
37758W        W 9374  34.879  34.026   3.205
37759W        W 9375  16.727  29.535   0.664
37760W        W 9376  37.014  26.236   4.785
37761W        W 9377  26.120   3.405   2.903
37762W        W 9378  32.682  43.379   0.276
37763W        W 9379  32.545  16.643   2.359
37764W        W 9380  30.549  14.440   4.667
37765W        W 9381   1.285  32.294  12.030
37766W        W 9382  42.508   2.153   0.538
37767W        W 9383  29.628  12.648   4.238
37768W        W 9384  25.213  41.392  11.604
37769W        W 9385  40.243   8.242  14.905
37770W        W 9386  11.405   2.904  14.945
37771W        W 9387   3.925  29.605   1.383
37772W        W 9388  17.927  34.707  10.289
37773W        W 9389  16.639  33.064  13.659
37774W        W 9390  24.137  17.068  10.994
37775W        W 9391  27.506  41.118   1.878
37776W        W 9392   9.283  11.746  10.273
37777W        W 9393   0.478   6.452  14.419
37778W        W 9394  12.783   9.328  11.620
37779W        W 9395  31.187  44.259   0.993
37780W        W 9396  40.996  40.577  13.427
37781W        W 9397  30.449   4.135  14.204
37782W        W 9398  29.058  13.054   3.572
37783W        W 9399   2.416  10.260  12.430
37784W        W 9400  22.804  22.805  10.268
37785W        W 9401  24.701   9.415  13.895
37786W        W 9402  26.234  21.260   0.758
37787W        W 9403  21.115  34.377  11.609
37788W        W 9404  26.033  37.499  11.720
37789W        W 9405   0.861  24.392   1.297
37790W        W 9406   8.269  13.202   2.702
37791W        W 9407   4.318  43.353   4.567
37792W        W 9408   0.314  17.993   1.271
37793W        W 9409  30.762  38.371   1.292
37794W        W 9410  15.267  28.270   3.770
37795W        W 9411  28.888  34.590   1.111
37796W        W 9412  38.167  11.130  10.304
37797W        W 9413  25.201   9.426   4.973
37798W        W 9414   3.299  32.758   9.979
37799W        W 9415   9.573  21.025   3.586
37800W        W 9416   4.850  42.110  13.027
37801W        W 9417  17.065   8.627  12.308
37802W        W 9418  18.890  25.824   2.490
37803W        W 9419  16.385  17.644  12.052
37804W        W 9420  43.247   6.900  14.930
37805W        W 9421  22.202  26.121   2.173
37806W        W 9422  18.230  44.556   5.346
37807W        W 9423  11.272  41.396   1.032
37808W        W 9424  41.417  38.348   3.191
37809W        W 9425  26.907   3.804   4.504
37810W        W 9426  26.936  44.281   1.707
37811W        W 9427   9.107  21.017   3.825
37812W        W 9428  30.196   4.006  14.669
37813W        W 9429  11.105  14.821  11.143
37814W        W 9430  35.153  32.036   1.284
37815W        W 9431  28.473  34.822  14.377
37816W        W 9432  42.779  34.741   3.634
37817W        W 9433   8.964  31.600  10.241
37818W        W 9434  30.052  10.758  13.419
37819W        W 9435  12.217  37.818   1.829
37820W        W 9436  19.602  16.321  12.183
37821W        W 9437  23.006   7.698   2.402
37822W        W 9438  44.281  35.344  12.602
37823W        W 9439  43.878  31.425   1.499
37824W        W 9440  37.872  35.371  10.750
37825W        W 9441  35.898  40.344   2.752
37826W        W 9442  35.990  39.809   1.950
37827W        W 9443   7.211  41.880  14.859
37828W        W 9444  25.504   6.519   4.978
37829W        W 9445  31.819  12.648   3.930
37830W        W 9446  42.309  27.234  11.097
37831W        W 9447   6.394  10.471   4.194
37832W        W 9448  28.160  27.550  12.674
37833W        W 9449   5.451   5.298   4.608
37834W        W 9450  39.558  34.426   4.282
37835W        W 9451  31.864  35.616  13.437
37836W        W 9452   6.252   2.943   2.942
37837W        W 9453   3.430  20.094  13.990
37838W        W 9454  35.227  28.328   5.055
37839W        W 9455   6.446  19.491  11.233
37840W        W 9456  27.079  34.557   2.450
37841W        W 9457  23.179   9.212  11.919
37842W        W 9458  10.826  39.916   0.489
37843W        W 9459  42.495  32.595   1.909
37844W        W 9460  16.507  44.522   5.142
37845W        W 9461   7.621   8.365   3.224
37846W        W 9462   5.139  31.364  13.879
37847W        W 9463  27.897   5.582   1.877
37848W        W 9464  38.557   9.081  13.593
37849W        W 9465  44.303  20.165  10.577
37850W        W 9466  18.597  18.584  12.201
37851W        W 9467  20.921  24.731   1.860
37852W        W 9468  35.316  33.946  11.990
37853W        W 9469  41.626  12.140   2.234
37854W        W 9470  16.068  44.769   0.257
37855W        W 9471  42.487  43.444   1.334
37856W        W 9472   5.746   0.066  12.471
37857W        W 9473  30.970  42.325   1.231
37858W        W 9474  44.428  21.511   4.637
37859W        W 9475   5.930  41.470  14.932
37860W        W 9476  21.793  29.038  11.493
37861W        W 9477  34.295  33.355  14.760
37862W        W 9478  16.668  21.509  12.281
37863W        W 9479   0.425  30.611  11.897
37864W        W 9480  32.458   2.851  12.516
37865W        W 9481   9.132  12.753   4.370
37866W        W 9482   2.729   2.241  10.699
37867W        W 9483  18.760  35.443  11.402
37868W        W 9484  37.734  28.111  11.166
37869W        W 9485  27.565  26.567  14.847
37870W        W 9486  12.801  13.309  10.895
37871W        W 9487  22.073  26.909   1.817
37872W        W 9488  20.289  30.239   2.324
37873W        W 9489   7.371  37.909  10.548
37874W        W 9490  33.057  31.191   2.849
37875W        W 9491  32.132   5.148  11.072
37876W        W 9492  38.450  40.368   1.189
37877W        W 9493   6.746  31.998   4.381
37878W        W 9494   4.640  40.061  13.836
37879W        W 9495  43.958   2.539   2.854
37880W        W 9496  35.392  30.873   0.012
37881W        W 9497   8.635  43.138   0.913
37882W        W 9498   4.869   8.373  13.453
37883W        W 9499  42.678  32.194  14.769
37884W        W 9500  36.412  28.482   2.104
37885W        W 9501  42.432   2.967   3.624
37886W        W 9502  25.286   8.705   3.242
37887W        W 9503  44.673  21.570  11.979
37888W        W 9504   7.252  25.860  12.332
37889W        W 9505  22.820  38.095   4.517
37890W        W 9506  23.384  24.049   2.708
37891W        W 9507   5.696  22.751  13.611
37892W        W 9508  44.893  40.332   4.239
37893W        W 9509  11.113  41.344   2.417
37894W        W 9510  29.207  42.371   4.607
37895W        W 9511  15.993  27.598  13.365
37896W        W 9512   3.761  24.454   2.239
37897W        W 9513   6.911  26.173   1.077
37898W        W 9514  41.772  25.193  12.876
37899W        W 9515  40.285  10.204  13.792
37900W        W 9516  44.205   5.019  11.168
37901W        W 9517  10.311  41.289  10.331
37902W        W 9518  22.519  12.895   4.959
37903W        W 9519  18.189  15.819   2.774
37904W        W 9520  27.767   6.311  14.854
37905W        W 9521  35.298   7.969   1.843
37906W        W 9522  29.499  12.911   3.796
37907W        W 9523  44.496  22.248  10.765
37908W        W 9524  37.035   5.253   0.352
37909W        W 9525  20.171  35.389   0.200
37910W        W 9526   3.870  33.060  12.100
37911W        W 9527   0.430  10.992   3.144
37912W        W 9528  11.263  22.790   2.188
37913W        W 9529  41.478  40.535  12.892
37914W        W 9530   8.596  11.239  12.972
37915W        W 9531  21.752  13.883   2.801
37916W        W 9532  37.127   4.352   2.881
37917W        W 9533  40.301  34.472  13.873
37918W        W 9534  28.425  12.873  14.491
37919W        W 9535  41.963  44.339  10.696
37920W        W 9536  43.760  40.979   1.343
37921W        W 9537  10.261  16.095  14.416
37922W        W 9538  32.358   5.602   0.057
37923W        W 9539   3.309   8.114  11.584
37924W        W 9540  44.560  10.164   4.011
37925W        W 9541  12.744  22.001   4.344
37926W        W 9542  20.688  24.515  11.644
37927W        W 9543  15.576   0.324  14.969
37928W        W 9544  41.216   6.623  11.602
37929W        W 9545  28.996  18.078   2.054
37930W        W 9546   2.181  34.190   2.329
37931W        W 9547   3.239  37.486   3.318
37932W        W 9548  32.434  24.666  12.962
37933W        W 9549  33.425  15.889   1.855
37934W        W 9550  40.308  28.633  12.482
37935W        W 9551  38.457  23.633  10.550
37936W        W 9552  27.105   3.179   1.703
37937W        W 9553  35.476  28.150  11.462
37938W        W 9554  29.960  26.621   2.885
37939W        W 9555  22.242   4.659  12.499
37940W        W 9556  28.129   3.382  10.673
37941W        W 9557  11.978  42.545   4.608
37942W        W 9558   9.210   8.677  13.320
37943W        W 9559  42.823   3.270  13.503
37944W        W 9560   9.723  22.991  14.469
37945W        W 9561  13.209  42.515   4.133
37946W        W 9562  17.426  32.074  11.648
37947W        W 9563  39.722  21.304   4.599
37948W        W 9564  10.308  32.232   0.983
37949W        W 9565   0.499  14.308   4.600
37950W        W 9566  39.362  17.837   0.022
37951W        W 9567  34.455  18.107  10.607
37952W        W 9568   9.371  35.596   2.741
37953W        W 9569  36.365  22.218  12.453
37954W        W 9570  34.245  41.465  13.082
37955W        W 9571  35.060   4.968  12.515
37956W        W 9572  22.497  24.619   3.810
37957W        W 9573  41.862   8.852  14.453
37958W        W 9574  31.461   3.023   0.719
37959W        W 9575   6.410  20.069  12.110
37960W        W 9576  42.891  15.513   1.876
37961W        W 9577  12.775  36.350   4.927
37962W        W 9578   7.653   0.044   0.477
37963W        W 9579  44.053  20.526   3.928
37964W        W 9580  12.659  36.983   3.805
37965W        W 9581  17.915  17.214  12.788
37966W        W 9582  41.274  17.653  10.406
37967W        W 9583   3.799  16.717  13.884
37968W        W 9584  41.015   0.270   1.896
37969W        W 9585  33.643  26.404  12.215
37970W        W 9586  38.881   6.463  14.647
37971W        W 9587  21.015  30.404   2.899
37972W        W 9588  25.605   3.689  13.948
37973W        W 9589  10.884  41.701  12.421
37974W        W 9590   9.178  18.085   3.767
37975W        W 9591  37.463  42.029  11.907
37976W        W 9592  44.220  42.031  11.141
37977W        W 9593   7.319  34.383  12.561
37978W        W 9594  23.148  32.225  13.252
37979W        W 9595  27.086   3.899   3.507
37980W        W 9596   4.699  24.159  13.280
37981W        W 9597  19.728  10.100  10.978
37982W        W 9598  19.770  31.486  14.293
37983W        W 9599  31.544  36.032   3.472
37984W        W 9600  39.875  21.661  14.335
37985W        W 9601   7.933  34.667  10.573
37986W        W 9602  29.494  17.502  12.092
37987W        W 9603   2.229  17.342  12.907
37988W        W 9604  27.694  33.909  13.994
37989W        W 9605  41.085  40.015  12.510
37990W        W 9606  10.647  24.863   1.253
37991W        W 9607  40.893  36.014   1.317
37992W        W 9608  19.169  24.427  12.648
37993W        W 9609  28.581  36.899   0.530
37994W        W 9610  21.478   8.324   2.706
37995W        W 9611  14.144  22.523   4.093
37996W        W 9612   0.832  31.466  11.601
37997W        W 9613  35.320  22.020  14.711
37998W        W 9614  33.101   0.918  14.153
37999W        W 9615  43.408  35.596  11.190
38000W        W 9616  22.080  17.748   1.988
38001W        W 9617  22.057  25.512  12.902
38002W        W 9618  39.821  40.302  12.719
38003W        W 9619  31.716  30.617   4.262
38004W        W 9620  27.996  36.214   3.678
38005W        W 9621  18.308   6.421  12.887
38006W        W 9622  14.145  29.035   4.183
38007W        W 9623  18.556  14.530   3.675
38008W        W 9624  31.515   0.781  10.178
38009W        W 9625  17.572  11.666   1.678
38010W        W 9626  26.569  24.982  13.945
38011W        W 9627  28.508  16.911  14.788
38012W        W 9628  31.951  26.274   9.659
38013W        W 9629  28.084  20.703   0.898
38014W        W 9630  39.338  19.764   2.685
38015W        W 9631  21.705   0.855  12.392
38016W        W 9632  10.896  12.888   0.858
38017W        W 9633  35.444  31.734  14.370
38018W        W 9634  11.905  35.609   1.873
38019W        W 9635  18.788  26.179  11.973
38020W        W 9636   6.333  10.786   3.766
38021W        W 9637   3.569  10.121   3.969
38022W        W 9638  15.341   9.429  13.839
38023W        W 9639  19.263   8.637   1.226
38024W        W 9640   9.225  40.632   0.411
38025W        W 9641  28.970  30.199   1.352
38026W        W 9642   5.290  15.754   9.992
38027W        W 9643  23.564  15.778   1.876
38028W        W 9644  33.314   7.800   2.836
38029W        W 9645  34.421  15.201   0.704
38030W        W 9646  37.948  34.406   1.926
38031W        W 9647  11.871  10.348  12.189
38032W        W 9648  13.770  13.837   4.430
38033W        W 9649  15.740  25.229  10.830
38034W        W 9650   6.158  12.517  10.220
38035W        W 9651   2.698   4.246  12.044
38036W        W 9652  12.328  43.596   3.262
38037W        W 9653  28.725  31.485   3.269
38038W        W 9654  11.625   2.341   4.071
38039W        W 9655   5.223   1.248  12.379
38040W        W 9656  28.953  42.281  10.463
38041W        W 9657   5.934   5.778  14.793
38042W        W 9658  15.099   2.850   1.288
38043W        W 9659  31.980  39.051  14.962
38044W        W 9660  27.441   2.910   0.992
38045W        W 9661  42.911  22.122  11.606
38046W        W 9662  13.683  13.417   4.122
38047W        W 9663   1.226   3.728  13.918
38048W        W 9664   1.338  15.026  11.593
38049W        W 9665  21.717   6.330  13.009
38050W        W 9666  17.316  11.725  14.320
38051W        W 9667  13.023  22.712  12.826
38052W        W 9668   4.200   8.609   2.315
38053W        W 9669  31.725  28.812   1.733
38054W        W 9670   0.304  42.915  10.765
38055W        W 9671  27.519  20.262   3.583
38056W        W 9672  13.425  22.740  11.225
38057W        W 9673   5.478  19.151   2.171
38058W        W 9674  38.949  22.617  14.846
38059W        W 9675  21.795  30.604   3.367
38060W        W 9676  35.443  40.955   4.375
38061W        W 9677  41.281  30.605   3.672
38062W        W 9678   6.828  23.087   2.393
38063W        W 9679   1.350  20.362  12.384
38064W        W 9680  20.903  18.180   9.650
38065W        W 9681  39.589  30.029  12.467
38066W        W 9682   6.352   1.819  11.148
38067W        W 9683  22.504  43.324  11.997
38068W        W 9684  18.076  34.672  13.314
38069W        W 9685  28.077  21.557   0.352
38070W        W 9686  19.594   0.718  11.444
38071W        W 9687   3.629   6.406   2.805
38072W        W 9688  33.655  23.966   2.203
38073W        W 9689  19.729  29.598   5.157
38074W        W 9690  35.727  43.900   0.804
38075W        W 9691  25.676  35.384  13.039
38076W        W 9692  10.748  31.644   1.786
38077W        W 9693  40.125  40.529   2.266
38078W        W 9694  41.003   8.217   4.522
38079W        W 9695  26.731   6.547   3.084
38080W        W 9696  43.831   0.238  12.060
38081W        W 9697  43.987  36.443  11.913
38082W        W 9698  32.835   9.180   1.152
38083W        W 9699  33.679  37.363   2.768
38084W        W 9700  33.503  37.338   0.548
38085W        W 9701  42.847  32.940   4.580
38086W        W 9702  23.629  35.363  12.852
38087W        W 9703  17.119  26.738  10.622
38088W        W 9704  21.173  42.778   1.940
38089W        W 9705   0.490   2.758   0.090
38090W        W 9706  27.272  13.844  12.733
38091W        W 9707   1.553   2.939  13.014
38092W        W 9708  26.407   0.634   3.694
38093W        W 9709  20.553  18.718  13.914
38094W        W 9710  30.099  32.692  12.457
38095W        W 9711  27.054  22.166   3.607
38096W        W 9712   3.938  10.008  13.348
38097W        W 9713   8.612   1.417   5.020
38098W        W 9714  36.857  43.565   1.253
38099W        W 9715  26.187  13.757  11.084
38100W        W 9716  29.664   1.894  14.336
38101W        W 9717  44.419   0.439  14.430
38102W        W 9718  23.205  20.166   2.759
38103W        W 9719  14.610  13.170  12.047
38104W        W 9720  15.232  38.543   2.709
38105W        W 9721  26.989  42.765  12.389
38106W        W 9722  12.597  42.627   2.819
38107W        W 9723  34.129  30.600  12.650
38108W        W 9724   0.980   7.872   3.324
38109W        W 9725   6.300  22.565   3.639
38110W        W 9726  16.732  40.575   0.745
38111W        W 9727   7.694   5.897  10.580
38112W        W 9728  41.471  23.610   0.326
38113W        W 9729  37.956  19.885  10.807
38114W        W 9730  19.902   2.743  12.448
38115W        W 9731  25.006  39.470  14.723
38116W        W 9732  16.347  37.301  14.930
38117W        W 9733   8.379  17.562   3.357
38118W        W 9734  11.022  34.112  14.545
38119W        W 9735   9.104  40.951  12.585
38120W        W 9736  28.193  22.557  11.904
38121W        W 9737  23.311  20.054   0.009
38122W        W 9738  42.555  23.126   3.755
38123W        W 9739  18.963  12.418  12.960
38124W        W 9740  20.599  12.543   0.898
38125W        W 9741  23.460  12.374  12.541
38126W        W 9742  11.440  31.674   3.365
38127W        W 9743  12.579  21.174  11.482
38128W        W 9744   1.005  24.051   3.729
38129W        W 9745  17.756  15.666   0.776
38130W        W 9746  27.494   7.616   3.123
38131W        W 9747   3.308  38.783   1.447
38132W        W 9748   5.257  39.394   2.312
38133W        W 9749  33.006  26.155  12.916
38134W        W 9750  25.346   3.868   1.267
38135W        W 9751   4.404  13.922   0.910
38136W        W 9752  18.239  19.245  14.794
38137W        W 9753  18.805  24.228  10.982
38138W        W 9754  23.585   4.741   1.204
38139W        W 9755   9.592   2.751  10.988
38140W        W 9756   6.479  30.625  11.135
38141W        W 9757  29.118  29.940  14.079
38142W        W 9758  32.378  32.638   2.202
38143W        W 9759  18.488  19.572  11.608
38144W        W 9760  15.040  24.981  12.435
38145W        W 9761  18.691   6.673   2.465
38146W        W 9762  37.740   6.585   4.357
38147W        W 9763   6.187   3.915   0.202
38148W        W 9764   7.688  39.115   1.843
38149W        W 9765  42.794  26.434   4.338
38150W        W 9766  44.191   4.490  11.189
38151W        W 9767  19.530  43.978   9.950
38152W        W 9768  10.086  44.492   1.150
38153W        W 9769  21.600   2.476   1.303
38154W        W 9770   8.828   8.591   0.340
38155W        W 9771  41.456  37.292   1.765
38156W        W 9772  17.264  16.310   1.513
38157W        W 9773  33.546  23.274  14.924
38158W        W 9774  33.857  19.318   4.608
38159W        W 9775  29.202   2.886  11.983
38160W        W 9776  34.850  40.415   1.576
38161W        W 9777  34.451  13.760  13.108
38162W        W 9778  32.811  36.502  13.082
38163W        W 9779  43.258  29.647   0.448
38164W        W 9780  38.977  21.532  11.529
38165W        W 9781  40.355  30.595   0.529
38166W        W 9782  19.000   5.482   4.365
38167W        W 9783  28.929  18.799   0.480
38168W        W 9784   1.022  21.572   0.444
38169W        W 9785  21.295  20.201   1.385
38170W        W 9786  20.852   4.050   2.745
38171W        W 9787   2.997   5.213  14.461
38172W        W 9788  17.763   9.090   0.020
38173W        W 9789   8.041   1.356  10.601
38174W        W 9790  13.025  18.246  13.559
38175W        W 9791  39.906  43.944  12.491
38176W        W 9792  20.014  39.720   4.231
38177W        W 9793  44.508   9.304  11.191
38178W        W 9794  21.304  38.633   3.470
38179W        W 9795   1.812  37.098   4.224
38180W        W 9796  44.476  24.413  13.909
38181W        W 9797  17.995  15.571  10.653
38182W        W 9798  25.913  12.684   2.867
38183W        W 9799  37.966  25.971   3.726
38184W        W 9800  32.487  40.050  11.539
38185W        W 9801  34.650  41.138  12.420
38186W        W 9802  39.941  31.965  11.639
38187W        W 9803  12.087  25.767  12.850
38188W        W 9804  26.531  14.562  13.726
38189W        W 9805  11.379  12.382  11.591
38190W        W 9806  15.230  33.714  14.583
38191W        W 9807  10.273  21.300   4.990
38192W        W 9808  24.214  13.175   2.298
38193W        W 9809  19.035  36.940   3.022
38194W        W 9810  27.962  11.209  13.928
38195W        W 9811  19.844  42.836   2.906
38196W        W 9812  25.001  32.298  11.725
38197W        W 9813  29.154  23.056  10.646
38198W        W 9814  36.806  16.748   4.881
38199W        W 9815  44.070  32.762   2.013
38200W        W 9816  10.443  22.464   2.702
38201W        W 9817  24.827  31.438   1.458
38202W        W 9818   9.440  18.283   0.932
38203W        W 9819  42.359  21.507  14.875
38204W        W 9820  20.315   9.105  11.154
38205W        W 9821  19.066  41.934  12.178
38206W        W 9822  36.903  21.774   0.473
38207W        W 9823   3.787  32.462  14.519
38208W        W 9824   0.678   7.778   2.226
38209W        W 9825  27.725  28.436  11.129
38210W        W 9826  29.390  42.543   0.358
38211W        W 9827  38.028  17.235   4.184
38212W        W 9828   7.285  10.101   4.060
38213W        W 9829   4.923  43.176   2.863
38214W        W 9830  10.539  38.164   0.719
38215W        W 9831  29.159  36.790   4.872
38216W        W 9832  20.062  42.616   0.666
38217W        W 9833  30.007  16.715   3.262
38218W        W 9834   1.032   2.353  12.394
38219W        W 9835  34.809  24.491   4.132
38220W        W 9836  38.882  12.721   4.218
38221W        W 9837  21.434   4.526  12.061
38222W        W 9838  22.773   6.675  14.995
38223W        W 9839  31.990  36.984   2.888
38224W        W 9840  16.115  10.624   1.192
38225W        W 9841  19.017  42.804   3.237
38226W        W 9842   4.417  28.160   3.841
38227W        W 9843  10.132  18.695   2.783
38228W        W 9844  15.028  31.418  13.780
38229W        W 9845  38.886  39.848  12.949
38230W        W 9846  36.559  14.591   2.267
38231W        W 9847   2.678  20.805   1.440
38232W        W 9848  32.389  14.020  12.387
38233W        W 9849  40.822   1.534   3.354
38234W        W 9850  34.448  29.354   3.114
38235W        W 9851  39.269  23.521  13.150
38236W        W 9852   0.693  36.121  10.667
38237W        W 9853  40.294  28.102  12.578
38238W        W 9854  10.347  39.000  10.598
38239W        W 9855   0.697  27.519   0.933
38240W        W 9856   6.270  30.987   1.505
38241W        W 9857  20.965  11.127  11.076
38242W        W 9858  12.217  35.781  11.559
38243W        W 9859  27.498  37.483  12.972
38244W        W 9860  27.184  22.448  14.834
38245W        W 9861  15.584  32.724   1.105
38246W        W 9862  21.842   6.241  10.091
38247W        W 9863  31.485  24.897  13.679
38248W        W 9864   5.869  29.037  12.653
38249W        W 9865  30.044  37.993  11.361
38250W        W 9866  33.839   1.288  14.036
38251W        W 9867  12.790  33.456  13.766
38252W        W 9868   0.944   8.866  11.214
38253W        W 9869   5.436  37.227   1.368
38254W        W 9870  16.950  39.484   2.781
38255W        W 9871  18.069  30.849   0.426
38256W        W 9872  26.948  13.537  13.568
38257W        W 9873  43.648  33.477  12.343
38258W        W 9874  25.609  35.415  11.296
38259W        W 9875   1.030  11.380  13.695
38260W        W 9876  26.845  22.627   3.561
38261W        W 9877  22.673  44.108  10.594
38262W        W 9878  24.947  42.078   3.276
38263W        W 9879  31.633  35.398   0.859
38264W        W 9880  13.081  12.300  14.319
38265W        W 9881   0.262  26.816   1.316
38266W        W 9882  29.539   3.787  14.331
38267W        W 9883  31.322  29.130   1.886
38268W        W 9884  14.131   7.406  14.365
38269W        W 9885  16.060  25.626  14.300
38270W        W 9886  34.931  40.279   1.073
38271W        W 9887  35.097  41.881  12.055
38272W        W 9888  16.105  13.315  14.544
38273W        W 9889   4.842  20.453   4.181
38274W        W 9890  44.876  38.030   2.638
38275W        W 9891  24.454  32.071   0.583
38276W        W 9892   1.911  42.430   4.530
38277W        W 9893   2.017  42.503   0.302
38278W        W 9894  18.589   0.923  13.190
38279W        W 9895  28.091  41.328  10.187
38280W        W 9896  25.807  28.558   1.859
38281W        W 9897   9.597   0.794  14.431
38282W        W 9898  21.549  40.850   1.814
38283W        W 9899  29.490  40.080  14.410
38284W        W 9900  25.602  38.667  13.529
38285W        W 9901   8.880  36.343   3.634
38286W        W 9902   9.161  18.992   4.832
38287W        W 9903  10.656  11.856  14.817
38288W        W 9904  41.204  33.466   2.654
38289W        W 9905  12.562   6.337  11.075
38290W        W 9906  36.747   4.662  12.595
38291W        W 9907  36.271  14.701   1.788
38292W        W 9908  17.147  38.401  12.049
38293W        W 9909  33.922  23.490  11.154
38294W        W 9910  40.311  26.073  14.938
38295W        W 9911  16.701   3.566   1.235
38296W        W 9912   8.664  30.107   3.036
38297W        W 9913   5.922  44.265  12.588
38298W        W 9914  32.333   2.701  13.976
38299W        W 9915  23.418  36.521  11.457
38300W        W 9916  27.296   7.450  12.797
38301W        W 9917  39.530  41.051   0.860
38302W        W 9918  28.664  12.703   3.946
38303W        W 9919  18.240  13.168  10.941
38304W        W 9920  30.332   1.232  14.017
38305W        W 9921  35.320  21.141   4.188
38306W        W 9922  20.634  37.817  11.070
38307W        W 9923  40.405  26.984  14.481
38308W        W 9924   1.775  14.647  14.958
38309W        W 9925  17.274  16.872  13.878
38310W        W 9926  15.818   2.464  11.567
38311W        W 9927   3.862  26.722  12.979
38312W        W 9928  24.229  40.021  10.577
38313W        W 9929   1.473  36.441  13.326
38314W        W 9930  43.531  25.868   1.395
38315W        W 9931  25.104  35.623  12.002
38316W        W 9932  38.337  36.291  13.432
38317W        W 9933  14.033   7.826   0.965
38318W        W 9934   2.209  40.242  11.136
38319W        W 9935  34.145   3.099   3.675
38320W        W 9936  24.553   0.232  12.482
38321W        W 9937  27.956   4.444  13.952
38322W        W 9938   7.570   8.368  14.910
38323W        W 9939   2.735   9.559   4.317
38324W        W 9940   8.917  15.506   0.132
38325W        W 9941   9.915  19.079  11.573
38326W        W 9942   0.310  42.260   2.405
38327W        W 9943  22.221  22.895   4.136
38328W        W 9944  34.182  25.966   2.765
38329W        W 9945  16.814  14.109   2.456
38330W        W 9946  26.806  21.507   2.828
38331W        W 9947  19.552  21.092   4.139
38332W        W 9948   0.399  19.653  10.793
38333W        W 9949  12.031  16.732  14.350
38334W        W 9950  28.109  12.188  10.712
38335W        W 9951  36.466  26.531   0.216
38336W        W 9952  36.164   0.104  12.535
38337W        W 9953  17.339  16.222  12.623
38338W        W 9954   6.346  25.944   3.630
38339W        W 9955   6.122   6.942   4.506
38340W        W 9956   5.310  22.506   0.419
38341W        W 9957   2.240  25.002   5.030
38342W        W 9958  36.673   0.563  14.833
38343W        W 9959  13.674  27.794   4.203
38344W        W 9960  29.534  17.057  14.121
38345W        W 9961  36.600  29.614   2.831
38346W        W 9962  38.962  37.455  11.196
38347W        W 9963  10.759  14.655   2.374
38348W        W 9964  44.418  23.959   0.978
38349W        W 9965   5.378  29.889  11.655
38350W        W 9966   6.672   0.545  10.331
38351W        W 9967  43.755  39.793   1.332
38352W        W 9968  17.221   6.914  13.851
38353W        W 9969  34.106  10.105   2.424
38354W        W 9970  33.998   1.887   3.175
38355W        W 9971  40.485  27.664   3.353
38356W        W 9972  34.850  16.961   3.589
38357W        W 9973   8.795  39.931  13.411
38358W        W 9974  27.082  32.125  14.115
38359W        W 9975  14.716  42.837   1.956
38360W        W 9976   5.750   8.236  14.928
38361W        W 9977  26.567   2.013  14.978
38362W        W 9978  24.632  43.465   2.282
38363W        W 9979  43.852  35.430  11.409
38364W        W 9980  41.387  38.071  14.710
38365W        W 9981  12.529   8.398  11.276
38366W        W 9982  29.114   2.368   0.871
38367W        W 9983   5.942  26.577   2.481
38368W        W 9984  16.914  20.605   4.828
38369W        W 9985  18.161   2.002  12.567
38370W        W 9986  41.364  43.818  11.095
38371W        W 9987  34.947  41.588   4.782
38372W        W 9988  24.593   9.001  11.926
38373W        W 9989  18.154  20.521  13.423
38374W        W 9990   1.445  17.849   0.801
38375W        W 9991   2.707  23.427  12.821
38376W        W 9992  41.362  26.040   4.793
38377W        W 9993  40.368  13.298   3.857
38378W        W 9994   7.878  22.610   2.347
38379W        W 9995   1.766  16.363  14.518
38380W        W 9996  43.323  13.643   1.988
38381W        W 9997   0.749  38.221  10.590
38382W        W 9998  16.284  14.621  11.883
38383W        W 9999  20.612  38.626  12.606
38384W        W10000  38.376  40.996   2.921
38385W        W10001  16.208  42.983   2.442
38386W        W10002   0.820  18.350  10.751
38387W        W10003  11.222  34.343  12.101
38388W        W10004  41.521  23.396  11.808
38389W        W10005  29.443   6.747  13.375
38390W        W10006  29.779  28.356  10.299
38391W        W10007   2.197  10.344   1.772
38392W        W10008   9.195  25.005  11.099
38393W        W10009  17.632  34.127  10.951
38394W        W10010  35.966  12.627  12.030
38395W        W10011   2.194  39.561  11.985
38396W        W10012  33.634  32.335  14.028
38397W        W10013  36.957  23.575  11.577
38398W        W10014  39.362  21.958   4.712
38399W        W10015   0.229  14.370   1.698
38400W        W10016  11.580  32.465   0.183
38401W        W10017   9.955   4.760   3.219
38402W        W10018   3.674  43.304  12.992
38403W        W10019  24.432   5.239   0.890
38404W        W10020  29.858  12.335  12.486
38405W        W10021  32.487  18.699   0.935
38406W        W10022  37.499  14.700   2.216
38407W        W10023   5.092   0.325   0.695
38408W        W10024  26.498   6.490   1.221
38409W        W10025  44.291  22.681   3.147
38410W        W10026  41.338  14.246   0.023
38411W        W10027   9.918  22.634   2.779
38412W        W10028  34.623  24.949  12.903
38413W        W10029  15.519   7.007   4.087
38414W        W10030  18.310  12.898   0.211
38415W        W10031   0.282  36.984  13.451
38416W        W10032  40.985   0.002  14.368
38417W        W10033   1.567  31.181   0.266
38418W        W10034   1.422  23.779   3.590
38419W        W10035  39.771  21.078   0.221
38420W        W10036   5.412  43.277   1.865
38421W        W10037  40.342  37.129  12.440
38422W        W10038   0.486  24.017  11.941
38423W        W10039  16.044   5.531   0.829
38424W        W10040  13.555   6.261  13.082
38425W        W10041  33.856  22.083   4.363
38426W        W10042  14.229  37.048   3.709
38427W        W10043  34.550  31.452   0.741
38428W        W10044  38.050   9.905  11.239
38429W        W10045  44.558  28.107   0.376
38430W        W10046  31.983  39.301   3.187
38431W        W10047   6.443  19.710   2.837
38432W        W10048  20.081  22.168  13.203
38433W        W10049  43.583  42.589  11.221
38434W        W10050   0.960  38.528  13.346
38435W        W10051  38.175  41.884   4.311
38436W        W10052   2.859   7.728  14.600
38437W        W10053  17.210  23.198   2.287
38438W        W10054  24.211  37.157  14.480
38439W        W10055  39.846   6.811   2.222
38440W        W10056  36.875  38.353  10.757
38441W        W10057  21.096  34.384  12.611
38442W        W10058   1.398  11.560  14.770
38443W        W10059  29.710  19.744  12.367
38444W        W10060  14.177  15.149   3.416
38445W        W10061  13.051  38.339  11.919
38446W        W10062  32.026   8.649   4.461
38447W        W10063  10.327  11.901  12.457
38448W        W10064   5.873  41.484   2.662
38449W        W10065  11.848  29.388   1.202
38450W        W10066  12.005  18.530   4.149
38451W        W10067   0.871  31.931   2.891
38452W        W10068  21.147  32.330  13.511
38453W        W10069  19.733  35.540  10.948
38454W        W10070  32.332  21.161   3.333
38455W        W10071   8.137  20.266  11.651
38456W        W10072   1.408  33.073  14.302
38457W        W10073   3.921  21.422   0.090
38458W        W10074  44.455  27.257   0.842
38459W        W10075  27.732  12.659   0.833
38460W        W10076  18.314  43.291   1.690
38461W        W10077  13.413  13.572  14.035
38462W        W10078   0.812  26.975  11.937
38463W        W10079   0.476  25.098  13.417
38464W        W10080   2.294  16.588  11.684
38465W        W10081  40.413   5.816  13.997
38466W        W10082  43.896  37.894   3.506
38467W        W10083   4.047  20.583  11.277
38468W        W10084  26.590   7.409   5.157
38469W        W10085  15.691  44.600  10.062
38470W        W10086  37.875  26.640  12.936
38471W        W10087  32.838  16.731   2.771
38472W        W10088   5.088  30.668   2.238
38473W        W10089   9.322  43.802  14.250
38474W        W10090  22.996   3.391   0.872
38475W        W10091  29.091  33.423  10.027
38476W        W10092  26.101  40.777  11.193
38477W        W10093  18.323   6.897   4.705
38478W        W10094  11.974   6.283   4.187
38479W        W10095  27.268  17.233   0.760
38480W        W10096  30.418  37.817  14.128
38481W        W10097  36.975  44.159   3.631
38482W        W10098  37.317  13.826   0.709
38483W        W10099  24.701   0.729  11.629
38484W        W10100  40.506   7.669   2.696
38485W        W10101  23.593  28.503  12.772
38486W        W10102   6.884  33.083  12.911
38487W        W10103  43.608  43.431   4.692
38488W        W10104  25.858  19.479  12.962
38489W        W10105   5.992  22.801  11.613
38490W        W10106  13.764  15.742   1.354
38491W        W10107  38.309  33.369  11.375
38492W        W10108  10.219  27.687   0.406
38493W        W10109   2.795  21.905  14.239
38494W        W10110   7.931   9.215   2.870
38495W        W10111  36.127  27.998   4.443
38496W        W10112   8.103  40.321  12.924
38497W        W10113   1.050  39.617   3.742
38498W        W10114   4.946   7.359   2.398
38499W        W10115  23.537   6.262   1.870
38500W        W10116  18.616  37.962  12.645
38501W        W10117   3.988  33.032  12.602
38502W        W10118   6.781  30.047   2.864
38503W        W10119  17.320   5.931   2.409
38504W        W10120  38.797  28.089  13.602
38505W        W10121  40.911  24.137   1.457
38506W        W10122  34.573  35.218  13.919
38507W        W10123  24.693  40.119  11.940
38508W        W10124  12.103  22.146  10.906
38509W        W10125  21.572  26.179   4.206
38510W        W10126  17.015  24.783  10.361
38511W        W10127  12.612  41.393  14.429
38512W        W10128  12.644  44.113   3.687
38513W        W10129  22.639  23.456   5.163
38514W        W10130  11.141  20.569  11.587
38515W        W10131  38.510  18.960   0.013
38516W        W10132  14.775  25.444  12.464
38517W        W10133  21.428   9.618  11.898
38518W        W10134   8.379  13.310  12.015
38519W        W10135  27.022   6.184   1.868
38520W        W10136  23.194  25.157  13.802
38521W        W10137  32.113  43.892   1.621
38522W        W10138  18.208  18.371   2.808
38523W        W10139  23.676  24.743   4.766
38524W        W10140  32.414  10.934  14.864
38525W        W10141  12.114  15.036  12.606
38526W        W10142  25.972   7.708   0.248
38527W        W10143   5.647  12.838   0.991
38528W        W10144  14.511  36.281   0.350
38529W        W10145  44.952  20.095  14.772
38530W        W10146  25.230  36.828   4.904
38531W        W10147  16.552  30.953   3.222
38532W        W10148  26.130   8.402   2.355
38533W        W10149  11.133  21.090   3.760
38534W        W10150  14.358   1.273  12.100
38535W        W10151  28.398   0.016  11.249
38536W        W10152   1.409   2.684  14.051
38537W        W10153   6.259   7.093   2.344
38538W        W10154  36.531  41.122  13.607
38539W        W10155  42.076  40.482   0.035
38540W        W10156  43.327  40.554   3.811
38541W        W10157   3.927  36.856  14.556
38542W        W10158   2.454   3.514  12.434
38543W        W10159   0.702  44.920   0.048
38544W        W10160  22.113  26.965   0.169
38545W        W10161  14.973  36.475  13.955
38546W        W10162  17.550   9.836   1.304
38547W        W10163  26.595  14.594   4.521
38548W        W10164  31.046  10.107   2.828
38549W        W10165  18.066  37.108  12.499
38550W        W10166  15.575  16.219  11.062
38551W        W10167  23.625   1.331  14.531
38552W        W10168  34.078  40.267   2.708
38553W        W10169  14.705   9.759   3.274
38554W        W10170  29.591  14.494  11.970
38555W        W10171   2.346   3.533   1.852
38556W        W10172  26.553   1.720   4.627
38557W        W10173   2.058  10.766   3.170
38558W        W10174  25.414   0.334  12.998
38559W        W10175  23.232  15.539   0.968
38560W        W10176  10.420  29.072   0.315
38561W        W10177  27.733  19.368  12.912
38562W        W10178  41.637  22.636   0.670
38563W        W10179  26.160  36.948   4.409
38564W        W10180  41.814  10.501  13.877
38565W        W10181  37.475   4.438  11.392
38566W        W10182  36.370  11.949  12.209
38567W        W10183   5.191  28.567   3.646
38568W        W10184  32.300  27.096  13.885
38569W        W10185  17.740  15.337   1.766
38570W        W10186  18.233  13.193  10.432
38571W        W10187  17.587  34.989   4.897
38572W        W10188  32.357  30.624   2.358
38573W        W10189  35.817  37.077   1.357
38574W        W10190  25.451  24.022  12.124
38575W        W10191   2.257  20.599   1.190
38576W        W10192   4.775  32.170  10.202
38577W        W10193   4.695  43.426  12.959
38578W        W10194  13.175  38.115   1.236
38579W        W10195   5.372  24.375  13.480
38580W        W10196  35.409  26.632  13.210
38581W        W10197   2.018   2.797  12.746
38582W        W10198  43.843  21.624  13.280
38583W        W10199  32.638  41.958  12.480
38584W        W10200  16.593  38.902   3.803
38585W        W10201  20.361  33.047   1.274
38586W        W10202  16.275  35.793  11.184
38587W        W10203  39.022  39.116  14.496
38588W        W10204  34.728  32.409  14.762
38589W        W10205   1.906   7.426  14.889
38590W        W10206  31.174  44.125   4.229
38591W        W10207  12.443  25.960   4.147
38592W        W10208  42.971  10.833  11.331
38593W        W10209  30.667  15.304  12.370
38594W        W10210  44.374  38.814  11.513
38595W        W10211  21.931  27.568   3.228
38596W        W10212   8.324   2.833  14.329
38597W        W10213  34.064  10.735  10.740
38598W        W10214  26.165  14.616  14.892
38599W        W10215  18.661  31.557   0.128
38600W        W10216  34.293  36.577  11.932
38601W        W10217   8.663   4.208  11.134
38602W        W10218   0.717  33.573   1.176
38603W        W10219  19.783  40.962   1.649
38604W        W10220  21.038   3.427   5.159
38605W        W10221   2.748  21.547  12.968
38606W        W10222  44.630  18.135   0.510
38607W        W10223  31.560  27.060  11.600
38608W        W10224   5.285  39.261  11.947
38609W        W10225   2.909  20.134   2.250
38610W        W10226  39.616  27.221   4.132
38611W        W10227  22.023   8.321  14.001
38612W        W10228  16.084   0.590   3.160
38613W        W10229  20.153  32.703   2.436
38614W        W10230  38.899  24.067  11.024
38615W        W10231  40.922  36.496   1.584
38616W        W10232  39.519   9.676   1.367
38617W        W10233   7.139  43.698   2.425
38618W        W10234  10.579   8.707  14.817
38619W        W10235  26.410  14.330  12.673
38620W        W10236  39.279  24.034   2.277
38621W        W10237  25.632  34.086   1.293
38622W        W10238  13.599  12.813  13.822
38623W        W10239  29.528  29.067   4.044
38624W        W10240  18.059  21.613   1.369
38625W        W10241  28.068  17.238  12.194
38626W        W10242  40.267   3.293  13.793
38627W        W10243  35.976  31.831   1.418
38628W        W10244  11.898   4.937  12.496
38629W        W10245  33.965   3.004   2.227
38630W        W10246   8.429  41.089  13.906
38631W        W10247  29.642  27.096   1.296
38632W        W10248  19.578  33.536   3.481
38633W        W10249  18.229  22.077   1.639
38634W        W10250  30.860  27.350  12.102
38635W        W10251   5.912  23.730  14.361
38636W        W10252  27.995  32.044  10.408
38637W        W10253  29.101  39.965  12.644
38638W        W10254  16.372  39.036  12.021
38639W        W10255  34.341  18.102   4.089
38640W        W10256  14.807  34.351  11.214
38641W        W10257   7.853  29.105  13.970
38642W        W10258  28.969  22.838  12.466
38643W        W10259  40.410  21.800  14.288
38644W        W10260  32.040   0.005  10.117
38645W        W10261  37.885  19.016   2.861
38646W        W10262  25.564  28.621   4.553
38647W        W10263  37.686  35.354  14.912
38648W        W10264  23.398  29.995   4.442
38649W        W10265  32.943  34.313   2.873
38650W        W10266  21.594   4.222   3.046
38651W        W10267   7.511  23.356   4.063
38652W        W10268   0.390  30.442   2.264
38653W        W10269  16.851  10.177  13.890
38654W        W10270  31.525  30.612   4.733
38655W        W10271   1.993  30.569  13.861
38656W        W10272  36.223  25.602  11.124
38657W        W10273  11.734  43.349  14.001
38658W        W10274  22.118   5.214   0.497
38659W        W10275  33.566   7.878   1.470
38660W        W10276  35.879  43.379   1.044
38661W        W10277  26.727   9.793   0.713
38662W        W10278  10.299  36.722   3.460
38663W        W10279  25.300  42.201  14.929
38664W        W10280  42.549  23.875   4.138
38665W        W10281  34.896  43.509   4.016
38666W        W10282  27.493  37.328  12.062
38667W        W10283  10.111  44.426  10.579
38668W        W10284   1.805  43.711  11.967
38669W        W10285   2.371  21.013   3.356
38670W        W10286  30.392   0.943  14.448
38671W        W10287  29.704  20.120  13.035
38672W        W10288  37.832  42.356   0.247
38673W        W10289  36.298  38.542   3.761
38674W        W10290  14.022  25.460   1.752
38675W        W10291  33.684  21.130   3.575
38676W        W10292   8.833  14.557  11.144
38677W        W10293   2.511  20.505  14.834
38678W        W10294  37.808  18.745   4.195
38679W        W10295  21.456  34.528  11.950
38680W        W10296  10.566  16.169  13.962
38681W        W10297   5.410  42.863   2.791
38682W        W10298  31.025   0.004  12.825
38683W        W10299  36.021   0.179  11.132
38684W        W10300   8.966  29.093   1.416
38685W        W10301  43.372  37.084  11.085
38686W        W10302  23.612  28.035  11.557
38687W        W10303  12.719  19.217   4.093
38688W        W10304   4.910  20.274  14.781
38689W        W10305  42.697  14.718  14.277
38690W        W10306  41.360  21.497   0.156
38691W        W10307   8.699  33.566   3.047
38692W        W10308  44.352  13.366   1.756
38693W        W10309  42.897  43.373   1.664
38694W        W10310  40.786  36.423   1.045
38695W        W10311  20.215   2.261  13.922
38696W        W10312  17.072  35.564  13.417
38697W        W10313   2.319   5.933  14.408
38698W        W10314  23.230  15.304  13.426
38699W        W10315  28.026  40.079   2.606
38700W        W10316   0.900  12.016   1.210
38701W        W10317   7.394  34.162   4.198
38702W        W10318  20.739  27.832   2.140
38703W        W10319  32.988  22.101  12.183
38704W        W10320  22.162  33.723  10.463
38705W        W10321  28.138   7.908  12.428
38706W        W10322  30.848  28.957   4.452
38707W        W10323  24.264  20.600   4.071
38708W        W10324  13.331  20.688   3.893
38709W        W10325   6.616  27.322   1.840
38710W        W10326  27.606  12.546  12.526
38711W        W10327  22.161  19.493  13.348
38712W        W10328   3.923  41.076   3.628
38713W        W10329  40.034  11.071   1.230
38714W        W10330  40.151  36.281  10.659
38715W        W10331  14.577  17.673   4.394
38716W        W10332   8.037  23.902  11.940
38717W        W10333  30.132   8.455   0.774
38718W        W10334  41.086   5.717  14.577
38719W        W10335  15.718  21.785   2.760
38720W        W10336  15.280  15.645   4.523
38721W        W10337  17.627  35.028   3.130
38722W        W10338  23.547   0.863   3.644
38723W        W10339  40.867  35.100   0.246
38724W        W10340  25.185  13.749  11.086
38725W        W10341  38.420   2.938  13.736
38726W        W10342  12.693  29.519  14.321
38727W        W10343  11.253  43.435  11.586
38728W        W10344  11.845  31.949  12.864
38729W        W10345  14.758  15.771  14.027
38730W        W10346   6.419  37.410  11.609
38731W        W10347  26.364  37.410   4.225
38732W        W10348  40.873  30.242  14.250
38733W        W10349   0.956  44.070  10.952
38734W        W10350  20.144  19.516  14.807
38735W        W10351   6.888  38.793   1.410
38736W        W10352   2.985   5.375   0.863
38737W        W10353  37.861  13.182   0.297
38738W        W10354  43.267  20.134  14.808
38739W        W10355  23.183  25.011   3.609
38740W        W10356  30.720  26.055   4.887
38741W        W10357  40.125   1.543  13.834
38742W        W10358  40.017  34.319  12.425
38743W        W10359  13.807  35.377  11.444
38744W        W10360  27.223   9.706  11.445
38745W        W10361  36.454  24.431  12.965
38746W        W10362  29.756  27.389   1.791
38747W        W10363  11.570  30.650   2.168
38748W        W10364  36.179  14.139  12.743
38749W        W10365  24.145   3.351  13.768
38750W        W10366  31.490  25.428   0.980
38751W        W10367  33.352  18.198   2.215
38752W        W10368  12.464  28.629   0.179
38753W        W10369   6.271  40.534   2.747
38754W        W10370  15.066  20.295   0.043
38755W        W10371  38.892  25.406  14.394
38756W        W10372  42.750   6.402   0.464
38757W        W10373  29.437  16.052  12.584
38758W        W10374  22.495  11.764   0.161
38759W        W10375  31.866  31.494   0.482
38760W        W10376  29.956  32.786   2.865
38761W        W10377  41.017   9.662  12.557
38762W        W10378  38.329  13.930   5.000
38763W        W10379   1.526  32.646  12.893
38764W        W10380  28.647  16.193  14.285
38765W        W10381   0.385  39.199  13.696
38766W        W10382  24.192  19.106  12.759
38767W        W10383  39.486  20.249  11.042
38768W        W10384  35.428  27.154   3.817
38769W        W10385  16.213   6.996  11.359
38770W        W10386  15.115   1.905   2.200
38771W        W10387  23.571  12.964   3.910
38772W        W10388  34.861  28.759   0.446
38773W        W10389  41.937  39.748  14.574
38774W        W10390  42.916   8.141  11.953
38775W        W10391  28.057  44.169   3.508
38776W        W10392  44.304   6.392  13.332
38777W        W10393  27.367   4.918  13.759
38778W        W10394  32.567   5.744  13.051
38779W        W10395   5.016  10.259  12.352
38780W        W10396  33.193  20.830   0.255
38781W        W10397   2.195   3.861  10.449
38782W        W10398  38.172   6.426   1.272
38783W        W10399  31.600  16.840   1.748
38784W        W10400  42.920  34.098   4.038
38785W        W10401   5.762  28.198   3.702
38786W        W10402  39.903   4.672  11.578
38787W        W10403  27.236  24.491   3.414
38788W        W10404  30.014  34.884  12.931
38789W        W10405   3.256  28.044  10.479
38790W        W10406   2.032  33.999   1.880
38791W        W10407  21.965   0.122  12.006
38792W        W10408   1.761  23.374   3.550
38793W        W10409  32.724  37.828   2.760
38794W        W10410  11.703   6.682   2.524
38795W        W10411  14.676  29.025   4.227
38796W        W10412  34.712  32.097  12.476
38797W        W10413  44.684   3.910  11.140
38798W        W10414  12.644  15.786  11.539
38799W        W10415  18.812  44.986   1.890
38800W        W10416  10.912   8.876   0.720
38801W        W10417   0.827  20.596   3.150
38802W        W10418  36.325  38.773   3.239
38803W        W10419  43.427  16.994  10.675
38804W        W10420  14.864  14.327  11.136
38805W        W10421  28.616  38.456  14.013
38806W        W10422  40.438  42.393   4.226
38807W        W10423  34.978  41.468  11.581
38808W        W10424  20.251  20.314  12.475
38809W        W10425  27.695  44.748   2.739
38810W        W10426  37.950   0.494  13.001
38811W        W10427  11.326   0.076  14.044
38812W        W10428   8.226  10.729  11.529
38813W        W10429  40.571  35.875   3.746
38814W        W10430  12.099  12.145  10.638
38815W        W10431  42.544  18.806   2.611
38816W        W10432  11.639  15.124   4.748
38817W        W10433  16.761  25.147  13.408
38818W        W10434  19.635  42.208  13.815
38819W        W10435  30.609  31.720   0.856
38820W        W10436   4.259  44.793  14.563
38821W        W10437  20.271  25.708  14.064
38822W        W10438  40.048  39.170  13.468
38823W        W10439  39.318  20.077   3.666
38824W        W10440  44.952  27.566   2.903
38825W        W10441  33.427  41.014   2.093
38826W        W10442  34.560  35.102   0.646
38827W        W10443  43.054  24.600   0.528
38828W        W10444  16.747  43.616  12.040
38829W        W10445   9.343  23.509  11.257
38830W        W10446  27.718  39.837   1.451
38831W        W10447  35.301   6.714  10.895
38832W        W10448   4.165  21.907   0.018
38833W        W10449   7.511   9.387  11.631
38834W        W10450  32.493  35.678   4.829
38835W        W10451  11.623   6.027  11.875
38836W        W10452  11.320  22.976  10.680
38837W        W10453  17.107   5.202  12.120
38838W        W10454  13.444  11.305  14.293
38839W        W10455  30.953  12.516  11.556
38840W        W10456  14.968  16.775  14.339
38841W        W10457  25.407  25.535  13.054
38842W        W10458  26.398  12.244   0.899
38843W        W10459  39.427  23.532   4.669
38844W        W10460  12.346  15.604  11.123
38845W        W10461  23.514   7.787  12.057
38846W        W10462   5.315  15.350  10.349
38847W        W10463  11.231  36.611  12.939
38848W        W10464   7.797   6.214   3.806
38849W        W10465  37.847  32.162  13.748
38850W        W10466  21.730  39.441   0.051
38851W        W10467  27.666  27.879   0.278
38852W        W10468  15.140  34.428  13.899
38853W        W10469  12.690  13.834   4.351
38854W        W10470   4.667   7.313   4.739
38855W        W10471  32.032  42.301   1.934
38856W        W10472  36.917  37.699   1.696
38857W        W10473  17.868  13.070   1.132
38858W        W10474  24.759  35.075   0.034
38859W        W10475  28.890   0.235   3.247
38860W        W10476   5.578  33.814  11.171
38861W        W10477  40.334  21.099  11.055
38862W        W10478  39.345   6.762   3.116
38863W        W10479  21.118  10.508   3.685
38864W        W10480  36.819  23.673  13.298
38865W        W10481  37.081  35.572   4.345
38866W        W10482  13.347  14.619  14.981
38867W        W10483  31.952   1.586   5.265
38868W        W10484  20.234  29.895  11.656
38869W        W10485  35.035  26.178   3.287
38870W        W10486   8.052  36.405   0.931
38871W        W10487  36.057  26.925  13.532
38872W        W10488   8.568  26.703   3.889
38873W        W10489  36.519  31.680  13.528
38874W        W10490  22.222  31.652  11.264
38875W        W10491  22.729  44.547  11.550
38876W        W10492   4.937  19.883  12.848
38877W        W10493  32.357   4.677  13.211
38878W        W10494  36.036  35.623  13.919
38879W        W10495  38.460  29.984   4.564
38880W        W10496  28.708  15.574  13.834
38881W        W10497  12.305   1.777   3.766
38882W        W10498  27.921  11.197  12.423
38883W        W10499   0.715  11.083  14.617
38884W        W10500  43.752  44.726   1.928
38885W        W10501  40.984  41.774   2.112
38886W        W10502  30.435  41.741   3.312
38887W        W10503  22.582  20.698   2.635
38888W        W10504  38.565  18.704  12.515
38889W        W10505  19.725   9.587   3.347
38890W        W10506  31.378  39.474   0.039
38891W        W10507  43.305  43.687   3.933
38892W        W10508  25.161  24.729   3.344
38893W        W10509  33.813  24.019   0.345
38894W        W10510   0.223  38.937   1.274
38895W        W10511  15.732   8.033   2.851
38896W        W10512  41.011  21.020   2.797
38897W        W10513  24.350  27.014   4.110
38898W        W10514  38.492  27.081   2.703
38899W        W10515  31.049  14.554   4.746
38900W        W10516   5.219  37.637  13.026
38901W        W10517  42.802  13.770  14.055
38902W        W10518  37.785  41.056   4.212
38903W        W10519   3.692  30.387   1.798
38904W        W10520  13.854  32.896  12.057
38905W        W10521  33.950   1.463  12.485
38906W        W10522  16.829  32.935   3.267
38907W        W10523   6.377  22.476  11.646
38908W        W10524  42.737  33.321  11.647
38909W        W10525  10.951  20.037   3.160
38910W        W10526  33.550  19.165   1.773
38911W        W10527  18.268   0.339  14.398
38912W        W10528  26.267   6.387   3.851
38913W        W10529  14.244  38.961  14.969
38914W        W10530   8.819  26.975  14.263
38915W        W10531  25.588  40.503   3.565
38916W        W10532   6.467  38.392  12.747
38917W        W10533  18.623  38.152  13.138
38918W        W10534  40.937  33.424   3.123
38919W        W10535  20.583  33.045  14.019
38920W        W10536   0.252  18.214  14.449
38921W        W10537  19.037  18.566   0.911
38922W        W10538   0.274  29.141  11.080
38923W        W10539  20.963  14.048   1.030
38924W        W10540  24.511  41.968  14.392
38925W        W10541  10.468   4.148   2.804
38926W        W10542  17.141  16.640  11.517
38927W        W10543  12.572  38.040   3.364
38928W        W10544  42.328  17.591  10.522
38929W        W10545   0.937  23.755  11.822
38930W        W10546  19.104  20.008   2.208
38931W        W10547   1.389  41.517  10.654
38932W        W10548  24.401  32.418   1.523
38933W        W10549  43.276  24.242   3.673
38934W        W10550   3.351  30.919  13.012
38935W        W10551  13.176  43.988   0.647
38936W        W10552   4.944  44.415  12.521
38937W        W10553  19.170  14.174   4.634
38938W        W10554  19.386  11.668  10.701
38939W        W10555  25.849  38.351   0.333
38940W        W10556   7.145   1.269   3.104
38941W        W10557  43.786  22.130  11.854
38942W        W10558  12.849  10.509   3.589
38943W        W10559  15.501  39.623  13.797
38944W        W10560  36.469  33.539   0.338
38945W        W10561  39.336   7.032   0.979
38946W        W10562  22.631  17.216   3.029
38947W        W10563  26.591  14.075   5.226
38948W        W10564  34.112  26.586  12.379
38949W        W10565  32.926  31.844  13.250
38950W        W10566  43.304   4.202   2.798
38951W        W10567  21.294  21.491   2.258
38952W        W10568  44.808   1.413  14.890
38953W        W10569  38.714  13.501   3.208
38954W        W10570  17.277  38.822   2.191
38955W        W10571  10.354  34.548  13.427
38956W        W10572  16.547  37.045   1.167
38957W        W10573   9.237  19.234   0.324
38958W        W10574   2.738  14.475  11.504
38959W        W10575  41.121  31.231  14.369
38960W        W10576  33.947  44.367  13.821
38961W        W10577  12.848  43.569  12.948
38962W        W10578   9.708  34.268  12.637
38963W        W10579   9.896  12.604  13.870
38964W        W10580  44.984  44.863   0.721
38965W        W10581   7.669  39.886   4.135
38966W        W10582  35.171  39.345  10.727
38967W        W10583  29.467  23.221  13.331
38968W        W10584   3.618  24.812  12.050
38969W        W10585  40.805   2.617  11.987
38970W        W10586  39.408  27.702  14.798
38971W        W10587   0.051   6.529  12.585
38972W        W10588  27.902  22.642   2.142
38973W        W10589  16.587  42.444  11.116
38974W        W10590  44.470   6.893   0.431
38975W        W10591  23.262   8.882   2.937
38976W        W10592   0.578   9.805  10.218
38977W        W10593  33.668  17.837  11.058
38978W        W10594  19.632  36.388   5.284
38979W        W10595   7.366  44.516  10.806
38980W        W10596   2.293  34.014  11.982
38981W        W10597   3.166  23.039   3.254
38982W        W10598  13.743   5.305   0.823
38983W        W10599   4.194  24.951  13.901
38984W        W10600  15.715  32.628  13.499
38985W        W10601  33.023  24.046  14.802
38986W        W10602   6.375  20.676   3.722
38987W        W10603  15.759  20.636  11.700
38988W        W10604  36.769  22.070  14.743
38989W        W10605  15.627  10.181  10.606
38990W        W10606  16.586  29.187  12.341
38991W        W10607  23.410   3.697  14.810
38992W        W10608  25.622  40.816  12.003
38993W        W10609  11.765  44.014   3.418
38994W        W10610  16.295  23.015   2.944
38995W        W10611  37.562  32.408   1.738
38996W        W10612   0.260  24.523  11.028
38997W        W10613  41.320   3.865   4.622
38998W        W10614  36.444  24.857   1.425
38999W        W10615  28.954  43.890  13.577
39000W        W10616  22.753  27.617  10.789
39001W        W10617  29.924  19.821  11.097
39002W        W10618  28.211  44.410  14.401
39003W        W10619   3.104   4.673   3.190
39004W        W10620   9.491  19.045  13.950
39005W        W10621  26.960   4.472  12.909
39006W        W10622  18.549  19.813  14.716
39007W        W10623  11.710  42.983  14.963
39008W        W10624  35.367  44.133  12.871
39009W        W10625  23.960  34.585   1.639
39010W        W10626  41.388  34.148  12.155
39011W        W10627  21.249  23.968   3.583
39012W        W10628  36.781  26.191  13.110
39013W        W10629  11.581  41.149  12.176
39014W        W10630  43.290  26.654   4.586
39015W        W10631  19.742   0.808   1.219
39016W        W10632   2.968  23.107   4.183
39017W        W10633  37.022   8.105   3.248
39018W        W10634  30.989  16.777  12.935
39019W        W10635  19.681   6.717  13.400
39020W        W10636  18.701  44.336   1.822
39021W        W10637  37.465  16.036  10.756
39022W        W10638  32.231  30.980  12.319
39023W        W10639   5.133   9.609  11.028
39024W        W10640  24.070  36.853  10.414
39025W        W10641  38.087   3.342  12.170
39026W        W10642   5.554  39.468   1.307
39027W        W10643   4.336  25.645   1.422
39028W        W10644  44.885  33.399  13.024
39029W        W10645  28.578  17.285  14.444
39030W        W10646   9.421  24.137   3.276
39031W        W10647   3.164  39.821   3.217
39032W        W10648  22.676  42.831  11.974
39033W        W10649   3.672  19.600  13.866
39034W        W10650   4.723  15.357  14.323
39035W        W10651   2.505  44.298  11.959
39036W        W10652   4.704  18.296   0.927
39037W        W10653  44.455  15.210  12.425
39038W        W10654  39.274   7.700  11.562
39039W        W10655  31.827   7.704  13.962
39040W        W10656  37.842   2.233  12.796
39041W        W10657   9.665  22.408  12.944
39042W        W10658  35.560  18.004  10.588
39043W        W10659   7.234  38.756   1.799
39044W        W10660  33.056  28.449   0.504
39045W        W10661  11.365  39.986   4.900
39046W        W10662  41.068  17.310  14.061
39047W        W10663   8.734  29.615   3.143
39048W        W10664   1.481  26.966  14.934
39049W        W10665  25.360   0.875  13.394
39050W        W10666  44.386  17.397   0.350
39051W        W10667  29.271   3.782  13.835
39052W        W10668  17.254  24.377   0.266
39053W        W10669   9.753  44.478  12.063
39054W        W10670  32.550  42.534   2.649
39055W        W10671  38.787  23.068   3.331
39056W        W10672   1.269  18.431   3.540
39057W        W10673  39.625  29.969   2.247
39058W        W10674  23.087  37.632   4.442
39059W        W10675  22.457  43.884  14.698
39060W        W10676  11.112  13.875  14.216
39061W        W10677  17.036  11.225  11.523
39062W        W10678  15.271  41.666  10.559
39063W        W10679  11.843   4.504   2.143
39064W        W10680  23.232  37.137   4.549
39065W        W10681   2.843  16.288  14.441
39066W        W10682  12.891  19.688  10.629
39067W        W10683   5.917  32.605  13.627
39068W        W10684  21.497  17.729   4.146
39069W        W10685  29.216   6.338  13.084
39070W        W10686  29.895   5.864  13.771
39071W        W10687   8.833  29.415  13.046
39072W        W10688  21.594  39.581  10.701
39073W        W10689  30.365  30.376  10.152
39074W        W10690  32.693  13.260   0.815
39075W        W10691  17.184  24.723   0.659
39076W        W10692  33.510   5.607  13.556
39077W        W10693  25.991  33.427   2.257
39078W        W10694  39.575  42.002  12.831
39079W        W10695   1.040  20.329   4.308
39080W        W10696   9.791  29.523   1.022
39081W        W10697  15.845  20.624   1.883
39082W        W10698  38.137   3.165  12.652
39083W        W10699  26.453   7.665   2.416
39084W        W10700  33.340  39.373  11.441
39085W        W10701  31.881   1.564  11.639
39086W        W10702  12.656  40.007  12.203
39087W        W10703  40.806   5.957  10.705
39088W        W10704  10.767  21.048  14.447
39089W        W10705  38.968   6.970  14.738
39090W        W10706  44.176  18.317  12.434
39091W        W10707  20.201  40.933  11.444
39092W        W10708  38.331   9.910  10.422
39093W        W10709  10.505  16.055   1.297
39094W        W10710  11.824  37.063  12.397
39095W        W10711  12.667  40.713   0.751
39096W        W10712  44.338  10.800  12.446
39097W        W10713   0.344   6.561   3.159
39098W        W10714  18.292  42.629   1.237
39099W        W10715  38.843   8.990   0.808
39100W        W10716  15.824  25.019  12.875
39101W        W10717  15.490  21.642   3.645
39102W        W10718  36.025  23.973  12.413
39103W        W10719   0.698  23.992   2.884
39104W        W10720   1.915   2.629  10.628
39105W        W10721  39.901   5.321  12.901
39106W        W10722  35.070  18.748   5.095
39107W        W10723  35.028  41.492  12.491
39108W        W10724   0.863   1.380  12.614
39109W        W10725  27.286  40.415   3.699
39110W        W10726  23.604  38.106   0.896
39111W        W10727  20.008  29.176  13.327
39112W        W10728  32.136  35.398   3.232
39113W        W10729  14.555  25.860  14.931
39114W        W10730  14.313  41.556  13.643
39115W        W10731  22.494   3.055  12.162
39116W        W10732  38.905  13.107  11.497
39117W        W10733  22.774  37.990  10.280
39118W        W10734   8.810  20.534  10.633
39119W        W10735  13.264  28.813  12.999
39120W        W10736  13.355   4.813  14.705
39121W        W10737  14.122   6.174  13.931
39122W        W10738  15.311  11.869  12.846
39123W        W10739  41.074  38.515   2.818
39124W        W10740   7.766  25.964   4.765
39125W        W10741  38.080   2.937   1.385
39126W        W10742  44.097   4.745   3.808
39127W        W10743   5.882  12.619   1.408
39128W        W10744  20.922   3.859   3.555
39129W        W10745   8.869  30.383   3.752
39130W        W10746   7.191   8.351   0.561
39131W        W10747   7.862  18.161   2.864
39132W        W10748  41.565   8.982   2.422
39133W        W10749   4.411   3.841  10.762
39134W        W10750  36.880  34.206  14.225
39135W        W10751  27.090  25.940   1.439
39136W        W10752   4.397  40.814  12.988
39137W        W10753  40.042  22.777   2.373
39138W        W10754  22.640  22.941   0.470
39139W        W10755  33.418  10.460   0.669
39140W        W10756  44.127  18.024   0.654
39141W        W10757  39.360  44.031   4.333
39142W        W10758  14.824  28.124   3.551
39143W        W10759  36.862   2.775   2.040
39144W        W10760  40.035   1.484  12.923
39145W        W10761  30.116  42.009   0.642
39146W        W10762  26.666  42.770   1.719
39147W        W10763  43.026  17.227  11.452
39148W        W10764  12.199  31.249  14.834
39149W        W10765  13.231  32.958  13.004
39150W        W10766  44.872   0.533   0.186
39151W        W10767  33.955  41.318   1.926
39152W        W10768   1.979  27.079   0.841
39153W        W10769   7.750   9.418   2.414
39154W        W10770  24.650  29.778   0.087
39155W        W10771  24.408  13.263  11.001
39156W        W10772  29.671   5.955  10.810
39157W        W10773  42.872  33.408   3.321
39158W        W10774  39.041  42.317  12.190
39159W        W10775  38.539   0.442  11.115
39160W        W10776  14.667  28.899  12.982
39161W        W10777  28.514  10.733   3.186
39162W        W10778  17.517   4.378  11.127
39163W        W10779   6.521  29.027   1.913
39164W        W10780   0.808  28.990  11.801
39165W        W10781  40.890   1.939  12.635
39166W        W10782   9.711  20.417  11.552
39167W        W10783  19.161  17.360   0.856
39168W        W10784   6.333   4.260   2.243
39169W        W10785  26.022  19.209   2.558
39170W        W10786  26.865   0.102  12.026
39171W        W10787  27.486  14.108   9.626
39172W        W10788   3.678  28.879  13.047
39173W        W10789  44.552  21.731   0.081
39174W        W10790  20.540   6.364  10.465
39175W        W10791  16.334  24.515  13.930
39176W        W10792  22.165  38.069  13.292
39177W        W10793  32.396  15.790   1.871
39178W        W10794  27.130   3.913  10.357
39179W        W10795  19.354   4.474  13.590
39180W        W10796  21.852  35.590  12.827
39181W        W10797   0.812  44.413   0.124
39182W        W10798  39.380  36.579   0.904
39183W        W10799  27.516   4.966   3.255
39184W        W10800  34.134  13.051  12.461
39185W        W10801   0.381  17.900   2.309
39186W        W10802  10.360  17.699   2.737
39187W        W10803   6.915  18.192  14.970
39188W        W10804  41.901  11.098   3.240
39189W        W10805  40.322  40.417   1.716
39190W        W10806  39.370  39.026   0.748
39191W        W10807  16.836  36.346  12.462
39192W        W10808  32.144  20.138  14.429
39193W        W10809   1.332   2.933  14.524
39194W        W10810  26.214  44.269   0.282
39195W        W10811   3.485  34.522  12.774
39196W        W10812   4.808  14.552  11.289
39197W        W10813  31.824  30.992  12.947
39198W        W10814  14.033   1.094  12.639
39199W        W10815  28.627  42.624   1.887
39200W        W10816  33.150  35.550  12.993
39201W        W10817  18.154  31.580  14.891
39202W        W10818  23.241  18.686   4.145
39203W        W10819  42.056  27.254  11.555
39204W        W10820  38.783  25.321  11.603
39205W        W10821   8.543  16.323   3.188
39206W        W10822  22.656  32.883   3.295
39207W        W10823  16.512  16.114  13.375
39208W        W10824  14.359  43.502  11.189
39209W        W10825  40.018   2.637  11.541
39210W        W10826  24.071  33.662   1.890
39211W        W10827   9.507   1.315  14.460
39212W        W10828  31.934  16.393   3.737
39213W        W10829  23.206  13.040  14.950
39214W        W10830  42.776  28.777  11.154
39215W        W10831  31.075   3.873  11.454
39216W        W10832  24.317  33.846  12.869
39217W        W10833  39.991   3.149  11.610
39218W        W10834  15.941  17.552   0.481
39219W        W10835  13.664  19.090  11.046
39220W        W10836  16.235  44.210   3.581
39221W        W10837  12.454  38.357   3.794
39222W        W10838  23.445  17.104   2.197
39223W        W10839   5.367  44.990   1.205
39224W        W10840   0.776  11.586  10.568
39225W        W10841  22.166  40.384  14.838
39226W        W10842  30.090  14.328  11.839
39227W        W10843  37.750  33.068  14.026
39228W        W10844  24.466  38.827   2.835
39229W        W10845  13.136   7.325  12.988
39230W        W10846  41.317  44.450   4.934
39231W        W10847  38.527   4.335  11.150
39232W        W10848  17.586  19.025   4.486
39233W        W10849  28.115  38.978  10.773
39234W        W10850  18.332   7.308   4.384
39235W        W10851  42.299  38.125   0.244
39236W        W10852  17.327  11.293  12.888
39237W        W10853  44.628  42.962   1.300
39238W        W10854  15.100  23.479   4.411
39239W        W10855  25.857  43.523   1.698
39240W        W10856  32.315   8.888   2.693
39241W        W10857   7.531  29.176   3.634
39242W        W10858  14.235  12.241   4.383
39243W        W10859   0.791  27.177   0.551
39244W        W10860  22.134  31.704  12.316
39245W        W10861  31.923  43.010   0.977
39246W        W10862  32.571   6.990   3.834
39247W        W10863   9.128  41.831   1.061
39248W        W10864  31.166  37.014   1.421
39249W        W10865  31.545  41.815   3.700
39250W        W10866  34.676  42.719   2.209
39251W        W10867   2.050  39.782  14.004
39252W        W10868  29.083   1.716  11.544
39253W        W10869  31.369  20.559   0.421
39254W        W10870  13.727  24.695   4.531
39255W        W10871  40.881  22.571  14.516
39256W        W10872  19.589  22.839  14.368
39257W        W10873  19.821  15.139   3.790
39258W        W10874   6.637   7.716  14.455
39259W        W10875  40.953  43.908   4.223
39260W        W10876  23.585  24.160  13.326
39261W        W10877   0.215  40.447   2.061
39262W        W10878  37.642  30.952  11.931
39263W        W10879  35.343  43.937   4.732
39264W        W10880   7.110  28.024  10.492
39265W        W10881  38.687  44.259   2.747
39266W        W10882  17.701  41.744  10.402
39267W        W10883  18.910  25.577   3.123
39268W        W10884  17.351  36.014  13.324
39269W        W10885   1.676  31.622   0.002
39270W        W10886  25.622  41.098   3.997
39271W        W10887   9.708  37.305   0.280
39272W        W10888  35.405  11.341   4.129
39273W        W10889   9.271  25.380   3.098
39274W        W10890  20.625   1.028   2.696
39275W        W10891  18.487  33.806  10.705
39276W        W10892  28.511  31.046  14.253
39277W        W10893   4.184  39.754  13.797
39278W        W10894  44.524  17.760  14.725
39279W        W10895  19.832   7.925   4.188
39280W        W10896  10.830  44.764  14.833
39281W        W10897   9.363  27.358  13.064
39282W        W10898  11.565  29.209  13.747
39283W        W10899  38.367  17.962   3.895
39284W        W10900  15.546   3.860  13.504
39285W        W10901  10.784  13.286  12.580
39286W        W10902  10.435  44.990  13.027
39287W        W10903   4.251   7.222   3.952
39288W        W10904  22.521  35.891  13.517
39289W        W10905  40.668   3.472   0.129
39290W        W10906  30.663  38.803   0.498
39291W        W10907  21.218  21.149  14.870
39292W        W10908  10.780  28.487  10.765
39293W        W10909   9.861  25.758  13.855
39294W        W10910  44.872  11.366   2.400
39295W        W10911  13.894   4.207   2.647
39296W        W10912   7.816   3.029  12.479
39297W        W10913  13.596   6.787  11.546
39298W        W10914   1.988  19.287  12.592
39299W        W10915  39.788  26.593   2.317
39300W        W10916  16.387  25.377   2.154
39301W        W10917  13.357   6.801   4.894
39302W        W10918  25.571  10.100  13.396
39303W        W10919  40.906  37.870   2.428
39304W        W10920   0.072  36.966   2.353
39305W        W10921  41.581  33.095  10.705
39306W        W10922   1.936  18.087   0.805
39307W        W10923  41.967  10.371  10.734
39308W        W10924  11.680  20.839  10.566
39309W        W10925  18.090  38.957   2.896
39310W        W10926  17.740   6.752  12.095
39311W        W10927  31.182  16.732   4.191
39312W        W10928  25.261  44.504  10.642
39313W        W10929  25.085  40.630  13.555
39314W        W10930  36.624  13.822  14.314
39315W        W10931  37.496  17.492   1.314
39316W        W10932  44.222  35.338  13.521
39317W        W10933  30.891   4.523  10.698
39318W        W10934  33.158  25.466  13.712
39319W        W10935  15.104   2.690   0.798
39320W        W10936  43.841  11.835   4.663
39321W        W10937  13.666   1.170   4.921
39322W        W10938   6.268  21.184   4.709
39323W        W10939   9.088  42.795   1.282
39324W        W10940  40.388  39.591  12.813
39325W        W10941  36.546   1.727   2.755
39326W        W10942  36.400  25.628   3.776
39327W        W10943  28.618  39.263  12.452
39328W        W10944   9.744  32.798  13.388
39329W        W10945  43.608   4.163   0.571
39330W        W10946  28.181  32.780   2.167
39331W        W10947  26.096  16.821   3.857
39332W        W10948  23.113  36.106   3.588
39333W        W10949  32.372   8.912  13.930
39334W        W10950  18.641  37.375   4.253
39335W        W10951  23.175  36.563   0.119
39336W        W10952  17.859  16.999  11.648
39337W        W10953  33.941  11.389  12.113
39338W        W10954  15.513  22.224  12.924
39339W        W10955  25.572  29.377  11.353
39340W        W10956  17.218  19.641   1.398
39341W        W10957  10.722  12.110  14.359
39342W        W10958  26.994   8.773   0.850
39343W        W10959  30.094   6.884  14.757
39344W        W10960  40.265  41.545   2.184
39345W        W10961  29.053  20.629   1.552
39346W        W10962  36.975  42.839   2.787
39347W        W10963  13.242   8.910  13.915
39348W        W10964  40.601   2.648  10.784
39349W        W10965   6.306   4.359  10.694
39350W        W10966   1.900  39.356  11.544
39351W        W10967   1.400  19.677  13.175
39352W        W10968  20.276  17.156  12.888
39353W        W10969  17.208  40.593  11.590
39354W        W10970  36.429   7.571  10.611
39355W        W10971   9.602  18.205   2.385
39356W        W10972  34.165  18.805  12.616
39357W        W10973   1.440  28.723   1.916
39358W        W10974  13.392  43.011  11.151
39359W        W10975  35.853  28.405  13.105
39360W        W10976  22.162  34.668  13.072
39361W        W10977  16.389  17.116  11.552
39362W        W10978  29.621  19.270   4.337
39363W        W10979  11.271   9.431  11.490
39364W        W10980  17.188   7.677   4.297
39365W        W10981  27.888   9.240   3.235
39366W        W10982  18.467   5.342  12.458
39367W        W10983   6.930  32.595   0.827
39368W        W10984   2.358  24.238   1.956
39369W        W10985  31.018  22.635  11.088
39370W        W10986  37.008  18.821   0.830
39371W        W10987  31.495  34.395   2.576
39372W        W10988  18.774  34.137   0.207
39373W        W10989  36.656  19.183  14.012
39374W        W10990  44.904  14.847  12.067
39375W        W10991  19.639   1.446   2.193
39376W        W10992  36.332  24.086  11.648
39377W        W10993  38.317   2.474   4.563
39378W        W10994  21.049  14.546   4.056
39379W        W10995  35.428  22.574  10.691
39380W        W10996  40.526   7.186   1.351
39381W        W10997  37.353  30.037   3.313
39382W        W10998  31.740  41.003   3.290
39383W        W10999  20.204  19.284  12.577
39384W        W11000   4.853  38.827  12.627
39385W        W11001  39.137  14.098  11.694
39386W        W11002  32.958  10.728   3.271
39387W        W11003   7.440  27.358   3.184
39388W        W11004  34.720  23.536   3.330
39389W        W11005  32.905  11.159  11.550
39390W        W11006   0.386  30.387   4.377
39391W        W11007  28.975   7.680  13.487
39392W        W11008  42.588  38.217  13.942
39393W        W11009  37.930   1.996   4.570
39394W        W11010   2.564  40.735  13.959
39395W        W11011  34.955  31.692  12.875
39396W        W11012  22.596  17.266   1.355
39397W        W11013  13.347   0.945  10.894
39398W        W11014  17.451  13.862  11.636
39399W        W11015   6.758  32.833  14.816
39400W        W11016  16.338  17.609   4.444
39401W        W11017  35.966  35.358   2.200
39402W        W11018   9.573  31.936   1.364
39403W        W11019  35.397   1.966   2.383
39404W        W11020  15.576  40.892  10.674
39405W        W11021  24.509  32.512  12.421
39406W        W11022  23.001  13.795   4.129
39407W        W11023  10.869  10.381  12.125
39408W        W11024  36.566  21.122   1.980
39409W        W11025  22.204  28.950   4.041
39410W        W11026  11.593  32.421  12.510
39411W        W11027  27.198  11.195  13.441
39412W        W11028   0.925  24.731  14.952
39413W        W11029   4.242  34.421  11.043
39414W        W11030  11.733  29.931   5.200
39415W        W11031  15.902  37.139   3.542
39416W        W11032   8.066  24.682  13.514
39417W        W11033   3.679  34.915   2.382
39418W        W11034  10.339  25.078  13.342
39419W        W11035  28.021   4.926   0.244
39420W        W11036  32.511  31.971   3.603
39421W        W11037  42.460  10.872  11.218
39422W        W11038  22.524  12.246  11.565
39423W        W11039  43.848  20.725   4.794
39424W        W11040   0.386  39.482   4.947
39425W        W11041  37.349   6.941   2.825
39426W        W11042  19.136  35.625  13.105
39427W        W11043   8.203   0.288   4.236
39428W        W11044   7.893  13.595   1.345
39429W        W11045   2.716  19.246  11.527
39430W        W11046  39.042  11.338   2.772
39431W        W11047  41.570  30.959   0.888
39432W        W11048  12.603   1.793  12.022
39433W        W11049  43.951  37.088  14.334
39434W        W11050  41.861  44.398   2.086
39435W        W11051  11.400   6.998   0.794
39436W        W11052  31.836  27.649  12.472
39437W        W11053  39.344   4.355  13.915
39438W        W11054  31.667  37.919  14.344
39439W        W11055   2.506  29.433   3.700
39440W        W11056   3.457  43.536  11.184
39441W        W11057  29.467  21.774   4.574
39442W        W11058  15.294   1.979  12.828
39443W        W11059  37.363  34.125  14.480
39444W        W11060  33.349  36.974   2.643
39445W        W11061   7.929  37.768   2.334
39446W        W11062  35.096  36.802   3.569
39447W        W11063   1.504  16.623  11.187
39448W        W11064  17.015  14.481   5.017
39449W        W11065  28.615  28.263  12.091
39450W        W11066  37.417   9.404   1.949
39451W        W11067  19.788  10.216   1.922
39452W        W11068   1.790  28.214   2.450
39453W        W11069  32.861   7.853   0.886
39454W        W11070  22.562  39.282  13.937
39455W        W11071  22.560  28.717  13.045
39456W        W11072  38.133  35.150  14.979
39457W        W11073  36.566  31.843   2.660
39458W        W11074  23.136  44.531   1.697
39459W        W11075   7.351  31.468  12.914
39460W        W11076   0.912  18.775  14.832
39461W        W11077  24.556  34.891   4.502
39462W        W11078  22.955  15.061  14.497
39463W        W11079  39.885  35.963   2.866
39464W        W11080  25.158  28.224  12.050
39465W        W11081  30.456  17.246   3.221
39466W        W11082  42.226  35.065   0.373
39467W        W11083   5.894  25.990  12.958
39468W        W11084  14.189   3.399  11.395
39469W        W11085  16.940  18.867   0.295
39470W        W11086  42.373  41.259  14.489
39471W        W11087  12.642  38.514   2.728
39472W        W11088  38.790  14.143  12.998
39473W        W11089  32.998  41.922  10.635
39474W        W11090  30.718  27.233   2.343
39475W        W11091  24.736  16.624   3.644
39476W        W11092  28.413  34.906  12.890
39477W        W11093   3.678  23.112   3.133
39478W        W11094   3.398  43.550   4.643
39479W        W11095  33.183  44.465  13.174
39480W        W11096  40.555   2.406   4.285
39481W        W11097  17.717  28.674   3.227
39482W        W11098  15.177  38.039   1.436
39483W        W11099  22.638  39.469   1.177
39484W        W11100  38.924  39.739  10.234
39485W        W11101  13.233  22.575   2.123
39486W        W11102  22.627  33.214   3.703
39487W        W11103  26.390  26.694  12.487
39488W        W11104  40.486  22.172   3.142
39489W        W11105  38.888   7.610   2.798
39490W        W11106   4.069  34.607   3.434
39491W        W11107  19.236   4.448   4.153
39492W        W11108  42.647  37.170   5.072
39493W        W11109  40.221  30.467   0.021
39494W        W11110  25.997  23.537  10.649
39495W        W11111  32.799  44.542  14.648
39496W        W11112  18.635  41.745   4.765
39497W        W11113   3.740  40.443   4.244
39498W        W11114  31.180  17.706  13.722
39499W        W11115  13.537  39.866  12.720
39500W        W11116  32.119  37.044   0.326
39501W        W11117  41.345  39.325   2.374
39502W        W11118  34.348  29.352  13.484
39503W        W11119   9.160   4.358  14.777
39504W        W11120  41.038  20.524   0.440
39505W        W11121  16.409   1.867  10.380
39506W        W11122  26.190  30.129   2.424
39507W        W11123  11.744  18.085   1.672
39508W        W11124  16.533  17.459   0.737
39509W        W11125   2.648  31.120   3.670
39510W        W11126   3.600  18.703  13.863
39511W        W11127   6.298  42.917  14.932
39512W        W11128  43.306  19.329  12.035
39513W        W11129   1.332   6.466  11.960
39514W        W11130  24.713   9.727   2.956
39515W        W11131   0.987   0.414  13.277
39516W        W11132  24.905  19.582   1.889
39517W        W11133  39.612  27.620   4.581
39518W        W11134  44.798  17.557   4.961
39519W        W11135  18.522   1.475  11.971
39520W        W11136  10.930   9.770  10.458
39521W        W11137  16.764  11.575  12.858
39522W        W11138   5.775  19.170   0.865
39523W        W11139   9.978  28.134   0.324
39524W        W11140  10.136   7.871  12.088
39525W        W11141  13.284  34.978  13.584
39526W        W11142   2.368   4.254   3.724
39527W        W11143  16.890  28.932  14.816
39528W        W11144  20.404  13.874   0.537
39529W        W11145  31.097  22.770  13.377
39530W        W11146  34.324  31.087  12.489
39531W        W11147  12.201   9.870  12.942
39532W        W11148  26.442  23.282  12.595
39533W        W11149   4.366  17.667   4.099
39534W        W11150  35.895  42.898   4.372
39535W        W11151  40.106  27.666   4.715
39536W        W11152  37.986  35.752   0.025
39537W        W11153   6.478   5.773   0.791
39538W        W11154   0.682  39.054  14.769
39539W        W11155  41.472  15.270   0.945
39540W        W11156  20.276  15.088  11.101
39541W        W11157  39.956   2.751   1.114
39542W        W11158  35.856  30.106  12.931
39543W        W11159  19.484  24.478  13.934
39544W        W11160  21.101  23.246  13.483
39545W        W11161   3.507   5.444   3.653
39546W        W11162  18.600  23.490  13.420
39547W        W11163  40.282  18.373  12.159
39548W        W11164  40.965  36.997   4.156
39549W        W11165  29.191   9.352  10.627
39550W        W11166  26.744   5.359  14.748
39551W        W11167  26.511   1.132   3.594
39552W        W11168  23.865  13.196   1.884
39553W        W11169  36.224  32.040   2.335
39554W        W11170  19.214  23.421   4.090
39555W        W11171   8.451  29.033   0.302
39556W        W11172  14.270   6.656  14.045
39557W        W11173   5.285  32.503   0.736
39558W        W11174   2.711  39.526  14.439
39559W        W11175   9.403   5.781  12.377
39560W        W11176  28.956  42.777  10.669
39561W        W11177  26.300  10.583   1.014
39562W        W11178  11.284  30.680   4.850
39563W        W11179  17.552  14.314   0.367
39564W        W11180  37.492  18.399  11.640
39565W        W11181  36.271  17.565   3.270
39566W        W11182  36.620  15.803   3.543
39567W        W11183  13.745  17.841  14.453
39568W        W11184  10.790   4.658   0.842
39569W        W11185  43.517  37.974  11.491
39570W        W11186  22.632  26.215   2.423
39571W        W11187  26.075  38.558  13.386
39572W        W11188   7.481  16.216  12.422
39573W        W11189  37.219  15.114  12.106
39574W        W11190  24.372   9.355   3.107
39575W        W11191  21.762   5.295   2.336
39576W        W11192  44.068  28.961  12.370
39577W        W11193  16.628  16.640   1.448
39578W        W11194  29.477  38.784   4.192
39579W        W11195   3.419  13.678  13.513
39580W        W11196  16.149  37.288  11.047
39581W        W11197  38.901   6.322  11.869
39582W        W11198  15.101  10.699   3.342
39583W        W11199   4.860  15.545   2.212
39584W        W11200  41.444  42.318   4.550
39585W        W11201  10.199  21.219  14.020
39586W        W11202  40.396  19.962  11.985
39587W        W11203  15.844  44.255  13.279
39588W        W11204  25.070   9.366  14.451
39589W        W11205  13.832  24.107  12.381
39590W        W11206  36.520  37.546   2.891
39591W        W11207  20.518  36.123   4.690
39592W        W11208  17.280   6.444   0.880
39593W        W11209  19.203  43.693   4.559
39594W        W11210   5.288  38.261   3.664
39595W        W11211   6.681  25.162   3.038
39596W        W11212   1.218   5.908   3.613
39597W        W11213  21.608  21.176  13.970
39598W        W11214  42.201  19.176  14.884
39599W        W11215  44.381  30.945  11.687
39600W        W11216  16.475  37.654  11.797
39601W        W11217   8.810  40.139  10.591
39602W        W11218  17.882  28.958   3.625
39603W        W11219  41.256  28.043  11.526
39604W        W11220  38.288   3.190   0.956
39605W        W11221  11.123  37.396  10.371
39606W        W11222  16.288   8.211   3.646
39607W        W11223  26.503  13.594  12.149
39608W        W11224  21.073  17.091  12.457
39609W        W11225  26.910  11.408   4.354
39610W        W11226  15.299  27.615  10.415
39611W        W11227  16.322   2.667  12.147
39612W        W11228  18.284  30.427  14.491
39613W        W11229   5.795  22.975   4.700
39614W        W11230  14.389  32.698   3.647
39615W        W11231   3.727   4.914  10.764
39616W        W11232   7.170   4.370   0.833
39617W        W11233   9.559  19.606  14.485
39618W        W11234  38.698   9.866   4.803
39619W        W11235  30.187  39.954   1.244
39620W        W11236   2.499  20.179   1.370
39621W        W11237  14.776   9.508   1.187
39622W        W11238  19.789  13.009   2.900
39623W        W11239  33.924   2.302   0.047
39624W        W11240  20.311  18.355   2.334
39625W        W11241  30.024   0.774   4.526
39626W        W11242  11.627  31.868   0.798
39627W        W11243  16.386  15.112  13.164
39628W        W11244  37.885  24.667   1.878
39629W        W11245  34.806  39.342   2.177
39630W        W11246  35.148   2.864  12.001
39631W        W11247  13.545  15.193   2.290
39632W        W11248  31.155  26.657   0.385
39633W        W11249   3.023  36.127  14.262
39634W        W11250  32.077  28.705   3.838
39635W        W11251  42.480   5.290  12.020
39636W        W11252  42.278  13.683  14.828
39637W        W11253   1.459  25.939  14.306
39638W        W11254  31.833  18.202   1.936
39639W        W11255  38.974  11.593  13.446
39640W        W11256  39.192  28.927  11.158
39641W        W11257  18.667  43.348   0.447
39642W        W11258  19.043  21.619   1.186
39643W        W11259  25.614  40.944  12.506
39644W        W11260   0.020   9.244  11.227
39645W        W11261  13.829  32.378  12.800
39646W        W11262   6.523  39.922   3.174
39647W        W11263  22.182  34.038   3.709
39648W        W11264  43.638   5.217   3.131
39649W        W11265   0.696  26.723   0.854
39650W        W11266  38.695  34.422   4.449
39651W        W11267  14.557   5.942   3.715
39652W        W11268  41.733  32.619   2.886
39653W        W11269  10.160  16.628   2.565
39654W        W11270  26.094   3.947  13.023
39655W        W11271  36.584  21.482  13.591
39656W        W11272  42.754  34.590   3.147
39657W        W11273  26.380  13.601   5.269
39658W        W11274  31.753  19.923   3.339
39659W        W11275  36.405  19.559   4.664
39660W        W11276  12.385  44.811   3.769
39661W        W11277  11.710  25.597  14.864
39662W        W11278  22.094  25.502   2.918
39663W        W11279  38.553  41.299  13.025
39664W        W11280  14.565  38.048  13.521
39665W        W11281  34.667  23.998  12.539
39666W        W11282  31.782  34.657  14.391
39667W        W11283   0.640  36.244   5.507
39668W        W11284   9.010  36.468   1.169
39669W        W11285   4.797  38.249   1.722
39670W        W11286  28.663  11.694  12.496
39671W        W11287  30.717   8.436  11.951
39672W        W11288  26.315  31.111  14.772
39673W        W11289  41.363  13.576   0.838
39674W        W11290  10.463   0.821   1.945
39675W        W11291  28.187  17.048  13.086
39676W        W11292  19.931   1.207  11.127
39677W        W11293  28.845   2.864  10.671
39678W        W11294  41.941  25.961  12.453
39679W        W11295  33.603  38.358   2.790
39680W        W11296  36.452  43.478  11.087
39681W        W11297   7.890  12.387   1.791
39682W        W11298  38.124  28.460  14.034
39683W        W11299   2.692  35.272  11.505
39684W        W11300  25.935  12.339   2.258
39685W        W11301  33.604  15.902  10.253
39686W        W11302  35.083  43.524  14.263
39687W        W11303  40.031  12.367  13.856
39688W        W11304  33.209  13.696   4.223
39689W        W11305  41.813   1.474  11.645
39690W        W11306  38.353  38.501   1.150
39691W        W11307  31.134  31.860  12.327
39692W        W11308  24.163  43.318  10.734
39693W        W11309  35.434  41.879  10.645
39694W        W11310  16.058  23.777   3.429
39695W        W11311  12.468  30.192   4.570
39696W        W11312   1.860  39.984   0.323
39697W        W11313  33.458  15.067  12.513
39698W        W11314  19.325  17.793  13.725
39699W        W11315   7.147   6.843  11.431
39700W        W11316   3.520  28.547   2.019
39701W        W11317  30.745  11.234   4.530
39702W        W11318  33.143   3.850  11.915
39703W        W11319   2.040  10.849   0.878
39704W        W11320  30.472  42.846  14.715
39705W        W11321  25.929   8.734   2.000
39706W        W11322  13.358  11.267   4.083
39707W        W11323  22.748   7.383  12.870
39708W        W11324  22.432  44.974  11.563
39709W        W11325   7.181   9.291   3.739
39710W        W11326  23.340  16.829   0.936
39711W        W11327  37.864   3.911   2.609
39712W        W11328  11.287  23.543  10.760
39713W        W11329  13.313   4.409  11.596
39714W        W11330  33.005   6.585   1.390
39715W        W11331  37.544  18.315  13.432
39716W        W11332   7.595  33.352  10.284
39717W        W11333  17.404  35.158   0.424
39718W        W11334  26.396  25.717  12.225
39719W        W11335  26.624  30.786  12.824
39720W        W11336  32.371  14.640  13.271
39721W        W11337  17.854   9.239  10.781
39722W        W11338  23.256  16.651  13.411
39723W        W11339  33.414  39.098  11.982
39724W        W11340  11.218   8.269   2.814
39725W        W11341  36.521   8.589  10.187
39726W        W11342   0.536  10.789  13.393
39727W        W11343   1.247  29.055  14.902
39728W        W11344  27.803  42.360   3.696
39729W        W11345   2.821  32.024  12.405
39730W        W11346  34.080  22.781  12.982
39731W        W11347  35.433   4.426  12.089
39732W        W11348  10.146  36.424   1.153
39733W        W11349  12.381  23.596  14.033
39734W        W11350  19.632  36.211   0.406
39735W        W11351  19.308  27.584   1.413
39736W        W11352  38.622  24.514  12.512
39737W        W11353  17.405   3.762   2.271
39738W        W11354  11.926  11.338   1.424
39739W        W11355  30.102  44.836  13.262
39740W        W11356  13.331  34.518   0.492
39741W        W11357  24.143  39.292   4.088
39742W        W11358  18.864  43.985   3.573
39743W        W11359  40.538  15.515   4.077
39744W        W11360  12.065  13.774  11.141
39745W        W11361   8.925  33.909  12.059
39746W        W11362  10.234  42.432  13.843
39747W        W11363  44.899  14.630  11.584
39748W        W11364  22.225  27.265  14.319
39749W        W11365  14.756   5.280  10.770
39750W        W11366  34.420   0.676  10.280
39751W        W11367   4.218   7.363   4.992
39752W        W11368  23.666  13.832   3.765
39753W        W11369  15.701  24.057  12.928
39754W        W11370  22.496  35.089   2.637
39755W        W11371  37.994  19.006   3.763
39756W        W11372  27.442  32.744   0.370
39757W        W11373  10.162   8.869  14.519
39758W        W11374  10.063   1.353  11.834
39759W        W11375   9.911  26.236  13.052
39760W        W11376  35.627  17.273  14.362
39761W        W11377   4.881  25.443   0.403
39762W        W11378   0.626  38.036   3.677
39763W        W11379  42.703   5.961  12.905
39764W        W11380  15.816  18.779   9.734
39765W        W11381   1.852  25.709  14.615
39766W        W11382   3.719   2.201   1.958
39767W        W11383  21.483   8.919   4.430
39768W        W11384  16.980  18.634  10.951
39769W        W11385   9.879   7.789   4.742
39770W        W11386  28.158  35.096  12.460
39771W        W11387  28.434   0.912  11.250
39772W        W11388  41.611  19.054   2.647
39773W        W11389   1.316  10.812   4.147
39774W        W11390  44.998  12.768  10.334
39775W        W11391  16.110  42.051   2.151
39776W        W11392  14.481   0.573   0.557
39777W        W11393  23.035  15.141   2.252
39778W        W11394  32.802  11.845   2.431
39779W        W11395  34.606  22.546  11.446
39780W        W11396   7.889  15.891   1.693
39781W        W11397  16.388  11.648  11.206
39782W        W11398   6.074  31.745  12.410
39783W        W11399   7.791  44.629  11.132
39784W        W11400  27.128  39.086   3.626
39785W        W11401  15.602  40.681   3.396
39786W        W11402  11.170  40.731   1.385
39787W        W11403  14.371  28.289   0.334
39788W        W11404  21.602  11.723   1.318
39789W        W11405  36.882  19.974   0.236
39790W        W11406  17.903   3.776   4.423
39791W        W11407  22.186  25.062  12.660
39792W        W11408   9.887  19.744   4.646
39793W        W11409  21.576  44.558   3.233
39794W        W11410  26.440  41.769  11.084
39795W        W11411  29.453  12.184   0.478
39796W        W11412  15.917   4.768  10.205
39797W        W11413   4.841   2.317  12.095
39798W        W11414  28.950  42.318   4.128
39799W        W11415  25.550  28.039  11.090
39800W        W11416  37.116  28.206   4.595
39801W        W11417  18.840  28.190   4.810
39802W        W11418  23.069  19.021   0.668
39803W        W11419  39.901  33.893   2.473
39804W        W11420  11.770   6.901  12.101
39805W        W11421   3.808  38.374  14.262
39806W        W11422  29.573   2.486  12.879
39807W        W11423  25.956  33.093   2.689
39808W        W11424  20.622  23.229  11.617
39809W        W11425  27.976  30.969  12.068
39810W        W11426  18.030  35.995  11.569
39811W        W11427  30.998  30.946   0.505
39812W        W11428  41.579  44.299  11.080
39813W        W11429  20.231  43.787   3.825
39814W        W11430  27.497   5.249   2.786
39815W        W11431  16.885  12.463   0.823
39816W        W11432  32.558  23.333  11.917
39817W        W11433  12.769   3.696  14.366
39818W        W11434  15.781   1.172  12.032
39819W        W11435  11.920  32.095   0.384
39820W        W11436  23.119  25.009   4.500
39821W        W11437  24.389  11.401  14.068
39822W        W11438  19.733  28.341  12.087
39823W        W11439   3.711  38.461  12.114
39824W        W11440  13.574  38.060   4.211
39825W        W11441   9.386  30.049  14.447
39826W        W11442  34.549  35.426  11.312
39827W        W11443  36.956  15.179   4.599
39828W        W11444  31.027  18.548   4.136
39829W        W11445  36.942   5.136  11.298
39830W        W11446  20.857   3.509  11.124
39831W        W11447  32.503  22.176   2.718
39832W        W11448  27.125  19.577   1.920
39833W        W11449  28.659   5.420  14.800
39834W        W11450   7.949  18.521   4.188
39835W        W11451   3.561   9.803   2.652
39836W        W11452  12.864  35.833   0.530
39837W        W11453  20.219  41.559   3.521
39838W        W11454  37.863   0.720   3.812
39839W        W11455   6.860  19.669   0.696
39840W        W11456  39.282  39.238  10.902
39841W        W11457  13.605  36.685   3.376
39842W        W11458  24.253  21.191   2.630
39843W        W11459  14.888  30.054   4.597
39844W        W11460  18.866  35.868  13.477
39845W        W11461  29.507  40.857  12.376
39846W        W11462  35.888  14.009   1.965
39847W        W11463  29.533  15.590  12.988
39848W        W11464  36.847  10.298  11.848
39849W        W11465   0.746   6.948   1.796
39850W        W11466  22.029  32.193   3.301
39851W        W11467   8.373  22.476  11.224
39852W        W11468  24.275  11.097   1.831
39853W        W11469   7.816   3.422   1.869
39854W        W11470  14.583   1.047   0.792
39855W        W11471  28.186  32.997   3.188
39856W        W11472  25.093  26.331   4.049
39857W        W11473  21.503  33.171  10.617
39858W        W11474   1.756  42.822  12.405
39859W        W11475  33.751  43.932  10.220
39860W        W11476  30.864   6.290   4.097
39861W        W11477  13.607  19.282   2.651
39862W        W11478   9.981  10.840  12.059
39863W        W11479  33.112  30.660  14.015
39864W        W11480   2.050  24.189  10.691
39865W        W11481  32.083   0.348   4.169
39866W        W11482  16.679  24.445   0.944
39867W        W11483   0.227  43.696  13.097
39868W        W11484  21.123   1.830   4.789
39869W        W11485   4.873   9.136   4.097
39870W        W11486   3.853  25.231  14.877
39871W        W11487  28.706  27.592  11.490
39872W        W11488   6.701  43.107   1.734
39873W        W11489  17.825  22.354   1.859
39874W        W11490   7.698  39.503   1.266
39875W        W11491   1.881  26.935   1.378
39876W        W11492  17.121  21.256  11.040
39877W        W11493  36.353  12.338   2.101
39878W        W11494  36.238  32.156  14.407
39879W        W11495  15.631  27.397   0.786
39880W        W11496  16.742  10.939   3.632
39881W        W11497  17.214  38.062   3.486
39882W        W11498  37.860  27.711   3.331
39883W        W11499  31.882  31.361   3.754
39884W        W11500  33.691  40.368  12.440
39885W        W11501  30.913  14.094   3.111
39886W        W11502  27.952   9.190   2.676
39887W        W11503   4.786  43.468   4.247
39888W        W11504  13.685  24.993   4.931
39889W        W11505  36.986   3.855   0.958
39890W        W11506  27.174   5.618  11.061
39891W        W11507   4.266  31.626   2.843
39892W        W11508  19.748   7.612  12.981
39893W        W11509  22.156  40.995  13.676
39894W        W11510  13.280  41.370  14.787
39895W        W11511  34.935   7.247   2.858
39896W        W11512  17.389  17.252   3.737
39897W        W11513  39.747  12.216   2.683
39898W        W11514  40.883  32.214  11.164
39899W        W11515   4.810  12.850  11.592
39900W        W11516  30.843  32.858   4.529
39901W        W11517  33.005  29.005   5.352
39902W        W11518  37.482  37.378  13.476
39903W        W11519  12.215   8.752   2.008
39904W        W11520  20.220   1.842   2.792
39905W        W11521  25.944   2.245   4.123
39906W        W11522   1.013  23.539   0.271
39907W        W11523  23.493  26.653  14.823
39908W        W11524   2.838  22.892   4.627
39909W        W11525  27.038   1.683   3.129
39910W        W11526  44.443  20.091   2.908
39911W        W11527  38.738  37.600  11.633
39912W        W11528  35.570  12.818  11.110
39913W        W11529   9.637  28.936  13.834
39914W        W11530  32.176  37.058   1.314
39915W        W11531   7.657  14.844  13.949
39916W        W11532  26.621  38.661   0.474
39917W        W11533  11.105  18.154   4.435
39918W        W11534  12.483  41.894  13.916
39919W        W11535   5.811  23.183   0.474
39920W        W11536   8.296  41.893   0.758
39921W        W11537   4.367  27.246  10.830
39922W        W11538  42.172  30.055  10.642
39923W        W11539  31.842  43.804  11.682
39924W        W11540  43.936  38.122  12.997
39925W        W11541  18.766  37.123  12.916
39926W        W11542  20.089  33.093   0.778
39927W        W11543   0.740  42.799   3.286
39928W        W11544   6.157  21.315  13.898
39929W        W11545  29.837  18.769  14.370
39930W        W11546  16.109  11.692  10.185
39931W        W11547  14.269  14.821   1.867
39932W        W11548  20.597   6.041   2.428
39933W        W11549   2.398  44.326  10.003
39934W        W11550  39.807   2.669   2.682
39935W        W11551  17.648  16.410  10.559
39936W        W11552  37.851   8.873  11.947
39937W        W11553  31.893  35.540  13.952
39938W        W11554  37.397  40.462  11.622
39939W        W11555  29.011  35.079   0.248
39940W        W11556  15.264  25.441  10.709
39941W        W11557   5.468  32.959   0.539
39942W        W11558  24.267  43.864  11.446
39943W        W11559  20.247  22.474   2.665
39944W        W11560   9.666  19.674   1.366
39945W        W11561  32.967  12.993   0.438
39946W        W11562  24.156  43.553  13.930
39947W        W11563  33.811  38.529  12.355
39948W        W11564  20.940  17.550  13.054
39949W        W11565   2.182  28.690  13.823
39950W        W11566  31.529  10.821   0.990
39951W        W11567   8.338   6.800   0.336
39952W        W11568  14.436   3.371  10.502
39953W        W11569  29.832   5.310   0.522
39954W        W11570  29.389  42.054  11.843
39955W        W11571  17.474   0.772  10.642
39956W        W11572  29.868  41.050  14.852
39957W        W11573   9.371  20.837   1.935
39958W        W11574  34.529  19.164  11.367
39959W        W11575   6.041  34.006  13.380
39960W        W11576  16.542  41.400   0.318
39961W        W11577  13.552  24.091  10.428
39962W        W11578  33.596  18.298   3.588
39963W        W11579   6.181   8.403   0.164
39964W        W11580  39.881  30.870  13.413
39965W        W11581   2.760  19.566  11.120
39966W        W11582   5.994   5.951  13.682
39967W        W11583  36.568   1.861  10.340
39968W        W11584   7.395   7.367  14.965
39969W        W11585  30.646  31.211   4.569
39970W        W11586   1.488  25.180  10.526
39971W        W11587  21.220  10.520   1.842
39972W        W11588  27.415   7.698   4.143
39973W        W11589  43.501  12.827   0.677
39974W        W11590  19.300  12.788  13.105
39975W        W11591  18.358   8.621  13.437
39976W        W11592   4.756  30.417  12.642
39977W        W11593  30.686  33.449   5.387
39978W        W11594  42.851  38.794   3.944
39979W        W11595  41.057  39.017  14.380
39980W        W11596   4.682  40.604  12.001
39981W        W11597  24.835  34.538   0.936
39982W        W11598  40.718  37.591  11.556
39983W        W11599  26.105  41.950  10.672
39984W        W11600   6.618  36.714  12.407
39985W        W11601  20.310  24.483  14.355
39986W        W11602   7.914  20.732   1.899
39987W        W11603  23.611   9.192  14.402
39988W        W11604  33.992   8.201  14.084
39989W        W11605  17.756   3.954  10.953
39990W        W11606  18.279   4.693   4.203
39991W        W11607  31.617  26.951   2.204
39992W        W11608  17.523  41.256  10.211
39993W        W11609   1.541  11.097  12.529
39994W        W11610  10.319  27.590  11.610
39995W        W11611   7.010   1.758   0.347
39996W        W11612  21.020   3.705  12.618
39997W        W11613  30.088  18.908  11.084
39998W        W11614   6.169  36.798  13.841
39999W        W11615   3.185  34.956   2.257
40000W        W11616  44.324  28.683   0.593
40001W        W11617  19.742  29.237   3.938
40002W        W11618  12.517  30.590  14.898
40003W        W11619  43.306  34.684   3.608
40004W        W11620  10.405  17.200   1.331
40005W        W11621  11.665  20.392   2.807
40006W        W11622  21.248  18.040   1.413
40007W        W11623  14.996   9.439   2.351
40008W        W11624   6.834   5.804   3.226
40009W        W11625  37.321  27.100   1.786
40010W        W11626  34.501  12.693   2.455
40011W        W11627  29.112  44.829   0.299
40012W        W11628  13.176  40.592   0.905
40013W        W11629  15.925   8.136  13.280
40014W        W11630  30.122  43.635   4.838
40015W        W11631  11.694   8.689   1.802
40016W        W11632  39.913  10.154   1.403
40017W        W11633  12.909  11.504   2.267
40018W        W11634  44.473   7.304  11.656
40019W        W11635  20.497  38.323   1.708
40020W        W11636  33.521  40.288   0.752
40021W        W11637  25.810  31.855  13.904
40022W        W11638  32.893   7.090   1.317
40023W        W11639  33.382  17.609   2.848
40024W        W11640  26.147  13.137  11.554
40025W        W11641   2.205  19.833   4.203
40026W        W11642   6.725  33.069   4.839
40027W        W11643  18.612  18.587   0.243
40028W        W11644   1.999   3.809  12.497
40029W        W11645  10.678  12.028  11.243
40030W        W11646  18.839  19.057  12.104
40031W        W11647  11.517   6.678  12.498
40032W        W11648  24.055  20.747  11.627
40033W        W11649   7.825   5.675  12.563
40034W        W11650  43.448  43.295   2.307
40035W        W11651  44.320  41.509  14.495
40036W        W11652  35.309   5.471   2.802
40037W        W11653   9.621  44.254  14.323
40038W        W11654   1.464  41.287   2.418
40039W        W11655   4.261  17.807   0.965
40040W        W11656  34.588  15.093   2.945
40041W        W11657  43.294  34.150   0.361
40042W        W11658   0.984   0.035  12.910
40043W        W11659  33.051  39.515   4.592
40044W        W11660  28.236   2.210   1.400
40045W        W11661  22.608  40.448   0.764
40046W        W11662  34.918  42.273  12.924
40047W        W11663  27.520  14.787  12.977
40048W        W11664  25.038   2.826   0.450
40049W        W11665  38.768  18.596   2.653
40050W        W11666  11.294  10.891   2.678
40051W        W11667  13.776  37.843   3.763
40052W        W11668   5.372   3.262   2.779
40053W        W11669  35.642  38.675   1.359
40054W        W11670  41.408  28.687   0.243
40055W        W11671  15.250  23.676  13.906
40056W        W11672  38.352   0.385   2.643
40057W        W11673   0.403  29.127  12.093
40058W        W11674  19.149  30.731   3.816
40059W        W11675  14.861   7.713   2.790
40060W        W11676  37.688  42.302  14.079
40061W        W11677  24.786  19.647  11.137
40062W        W11678  11.887  30.534  10.756
40063W        W11679  27.723  37.282   4.050
40064W        W11680   2.181  23.176   0.403
40065W        W11681   2.296  43.822   9.854
40066W        W11682   1.383   8.090   4.569
40067W        W11683  33.092  12.781  10.342
40068W        W11684  28.554  18.131  13.886
40069W        W11685  30.324  15.331   2.546
40070W        W11686  38.966  33.130  12.727
40071W        W11687  36.628  35.559   3.108
40072W        W11688  42.992  41.335  13.379
40073W        W11689  16.223  17.786   3.946
40074W        W11690  14.263  14.619  11.172
40075W        W11691   2.777  42.241   4.535
40076W        W11692   3.331   9.170   1.814
40077W        W11693   4.160  35.432   2.723
40078W        W11694   1.265  16.566   1.767
40079W        W11695  12.674  15.287   3.862
40080W        W11696  22.558  38.348  13.008
40081W        W11697   5.392  17.924  13.098
40082W        W11698   7.773  13.594   4.752
40083W        W11699   4.299  20.854  13.512
40084W        W11700  19.942  33.703  12.159
40085W        W11701   6.971   5.386  13.005
40086W        W11702  43.986  13.814   3.147
40087W        W11703  13.791  29.725   3.717
40088W        W11704  27.462  29.179  10.704
40089W        W11705  35.168  41.116  11.096
40090W        W11706  37.654   0.996  13.066
40091W        W11707  36.663  36.382  13.997
40092W        W11708   8.961  30.505  11.967
40093W        W11709  27.971  16.080   9.999
40094W        W11710  11.312  24.982  10.859
40095W        W11711  38.668  37.382   4.209
40096W        W11712  44.928  21.145   4.007
40097W        W11713  32.809  26.990  13.890
40098W        W11714  14.236  39.082   3.856
40099W        W11715  22.470   9.061   0.885
40100W        W11716  26.401  35.856   1.019
40101W        W11717   0.630   2.377  10.693
40102W        W11718  12.959  27.687  12.740
40103W        W11719   6.864  24.690   2.879
40104W        W11720  33.110  15.729   3.574
40105W        W11721  41.748   4.949   1.741
40106W        W11722  29.848  40.313   0.431
40107W        W11723  44.242   0.428   1.934
40108W        W11724   4.317   5.936   3.194
40109W        W11725  35.618   3.469  13.304
40110W        W11726  29.424  15.673   5.012
40111W        W11727   6.441  34.732  11.866
40112W        W11728  14.247  32.852  11.698
40113W        W11729  31.998  29.489   3.416
40114W        W11730  30.068   8.284   4.524
40115W        W11731   2.395  31.586  14.083
40116W        W11732  13.307   0.042   3.966
40117W        W11733  37.004  44.560  13.462
40118W        W11734  19.148  20.520  12.358
40119W        W11735  43.892   4.985  10.744
40120W        W11736  43.518  18.466   1.248
40121W        W11737  24.587  16.380  10.917
40122W        W11738   0.926  14.354   4.929
40123W        W11739  43.038  17.664   0.001
40124W        W11740  20.668   5.845   0.564
40125W        W11741   3.275  30.813   4.117
40126W        W11742  29.417  26.458  12.963
40127W        W11743  31.127  15.542   0.222
40128W        W11744  27.360  12.014  13.830
40129W        W11745   1.193   6.916   0.978
40130W        W11746   7.416  24.534   3.546
40131W        W11747  39.537  20.148   1.424
40132W        W11748  12.729   5.313  12.677
40133W        W11749  22.044   6.337   0.941
40134W        W11750   1.450  22.146   0.829
40135W        W11751   5.725  42.840  13.404
40136W        W11752   4.323   1.034   2.361
40137W        W11753  22.271  29.094   0.430
40138W        W11754  29.020  23.944  13.236
40139W        W11755  17.356   8.292  13.522
40140W        W11756  10.534   0.551   4.063
40141W        W11757  35.048  34.987   0.788
40142W        W11758  17.806  20.653  13.995
40143W        W11759   0.992  43.819   3.381
40144W        W11760  28.498  41.797   1.435
40145W        W11761  37.966  24.991  13.766
40146W        W11762  43.870  36.068   3.191
40147W        W11763  25.589  10.561  12.004
40148W        W11764   4.970   3.923   0.917
40149W        W11765  17.059  13.710  13.129
40150W        W11766   6.457   8.812   0.363
40151W        W11767  34.951   7.562  14.900
40152W        W11768   3.831  34.648  12.000
40153W        W11769  20.994  25.244   1.793
40154W        W11770  31.317  21.615  10.736
40155W        W11771  42.356   9.134  12.522
40156W        W11772  39.420  23.405  12.105
40157W        W11773  25.828   6.830  14.181
40158W        W11774  24.545  34.322   3.748
40159W        W11775  24.726   6.387   1.269
40160W        W11776  13.544  34.982   1.838
40161W        W11777  37.270  25.499  11.940
40162W        W11778  24.161  37.849  11.525
40163W        W11779  44.984  18.239  14.890
40164W        W11780  34.526  29.880   2.233
40165W        W11781  30.596   7.731   1.646
40166W        W11782  14.372  37.991   3.807
40167W        W11783  34.352   4.160  13.501
40168W        W11784  29.829  20.927  10.603
40169W        W11785  22.761   4.672   3.357
40170W        W11786  12.096  40.422   2.204
40171W        W11787   0.073  42.584   4.822
40172W        W11788  21.052   0.953  13.438
40173W        W11789  31.374  19.700  14.990
40174W        W11790   7.915   3.887   3.617
40175W        W11791   9.136  44.980   4.903
40176W        W11792  22.966  26.646   1.193
40177W        W11793  21.099  14.407  10.695
40178W        W11794  18.594  42.972  13.003
40179W        W11795  42.349  40.776   1.722
40180W        W11796  19.007   2.295  10.997
40181W        W11797  16.022   5.298  10.629
40182W        W11798  41.066  42.696   0.854
40183W        W11799  20.133  24.329  10.997
40184W        W11800   9.278  19.112   3.650
40185W        W11801  37.893  33.882   3.251
40186W        W11802   1.443  19.123   2.752
40187W        W11803  39.042  12.393  10.105
40188W        W11804  13.696  43.434  14.293
40189W        W11805  34.783   4.373  12.550
40190W        W11806  12.098  38.373  14.437
40191W        W11807  40.069  31.276   2.262
40192W        W11808   7.010   7.069   2.869
40193W        W11809   9.967  35.542   3.996
40194W        W11810  26.773   0.401  12.474
40195W        W11811  33.628   7.414  11.036
40196W        W11812  11.879  42.098   1.611
40197W        W11813   4.727  40.797  10.677
40198W        W11814  26.504  29.114   3.101
40199W        W11815  19.506  37.333  13.261
40200W        W11816  25.459  41.621   0.688
40201W        W11817  35.942  10.602  11.487
40202W        W11818  25.171   9.630  13.930
40203W        W11819  25.741  22.034   4.099
40204W        W11820  33.833  21.288  12.833
40205W        W11821   6.110  22.621   4.454
40206W        W11822  22.856  10.923  11.690
40207W        W11823  18.689  14.377  12.405
40208W        W11824  38.866  39.581   3.792
40209W        W11825  42.500  32.139   2.705
40210W        W11826  12.635   5.943  14.062
40211W        W11827  11.085  10.005  13.503
40212W        W11828  38.084   0.952  14.467
40213W        W11829   3.469  33.422  13.896
40214W        W11830   0.423   8.238   4.602
40215W        W11831  34.004   7.239   2.788
40216W        W11832   3.197  37.480   4.357
40217W        W11833   3.814   6.639   4.094
40218W        W11834   8.106  42.833  13.371
40219W        W11835   0.354   1.670  11.045
40220W        W11836   4.196  13.627   1.305
40221W        W11837   0.981  22.312   2.233
40222W        W11838  19.645  21.579  13.380
40223W        W11839  44.760  14.338   1.910
40224W        W11840  12.570  32.019   4.662
40225W        W11841  24.370  38.974  12.605
40226W        W11842  21.309  37.105  11.242
40227W        W11843  41.384  37.931  11.818
40228W        W11844  28.959  15.696   0.632
40229W        W11845  20.196  23.970   5.098
40230W        W11846   7.676  21.473  14.728
40231W        W11847  42.294  22.511  11.141
40232W        W11848   6.238   6.225   0.930
40233W        W11849  29.656  32.578  11.603
40234W        W11850  21.547  12.093   3.667
40235W        W11851  25.243  26.594   0.311
40236W        W11852  27.009  13.520  14.737
40237W        W11853  37.509  15.937  12.002
40238W        W11854  34.984  14.952   4.664
40239W        W11855   0.272  16.769   4.596
40240W        W11856   1.188  40.458  12.061
40241W        W11857  17.512  23.145  12.836
40242W        W11858  25.471  11.085   4.289
40243W        W11859  18.319  30.210   4.031
40244W        W11860  44.255  22.714  10.765
40245W        W11861   0.784  39.901   3.370
40246W        W11862  39.512  23.036   2.622
40247W        W11863  41.079   5.812  11.112
40248W        W11864   4.893  39.554  12.990
40249W        W11865   9.754  43.490  11.208
40250W        W11866  10.969  35.063  10.816
40251W        W11867  44.929  40.555  13.882
40252W        W11868   8.614  36.477  12.494
40253W        W11869   7.364  37.153  11.821
40254W        W11870  43.310  19.831  11.932
40255W        W11871  19.592  26.146  11.524
40256W        W11872  10.306  13.346  13.613
40257W        W11873   8.630  38.057   0.735
40258W        W11874  21.498  26.696   4.152
40259W        W11875   1.939  15.726   2.401
40260W        W11876  41.948  13.534   4.865
40261W        W11877   8.198  41.422   4.721
40262W        W11878  35.321  25.483  12.920
40263W        W11879  34.878  40.552   3.185
40264W        W11880  26.031  13.619  13.311
40265W        W11881  13.119  26.606  11.564
40266W        W11882  22.188   9.031   1.771
40267W        W11883  22.240  12.307   0.269
40268W        W11884   3.307   1.552   3.546
40269W        W11885  34.870   0.159  13.603
40270W        W11886   9.752  37.947  12.034
40271W        W11887  13.326   7.234   4.556
40272W        W11888  39.904  33.021   1.317
40273W        W11889  33.970  44.828  10.281
40274W        W11890  26.738  25.989  13.006
40275W        W11891  34.813  14.771   2.428
40276W        W11892  40.873   7.825  12.961
40277W        W11893  19.630  25.098  10.745
40278W        W11894  28.638   4.753   4.630
40279W        W11895  38.856  14.174  14.987
40280W        W11896  20.747  36.072   1.127
40281W        W11897   8.324   9.839   0.963
40282W        W11898   2.098  17.691  13.365
40283W        W11899  44.822   9.743   1.425
40284W        W11900  30.184  16.626  13.986
40285W        W11901  19.996  16.687   1.263
40286W        W11902  44.196   8.925  13.829
40287W        W11903  25.057  36.172  11.167
40288W        W11904   4.922  44.996   5.031
40289W        W11905  13.411  21.672  14.829
40290W        W11906  43.106   3.761  10.816
40291W        W11907  13.521  13.237   1.323
40292W        W11908  12.589  15.715   1.843
40293W        W11909  12.887  42.855  11.121
40294W        W11910  19.008  11.532  14.359
40295W        W11911  29.183   2.374   3.413
40296W        W11912  10.971  27.744   2.411
40297W        W11913  32.832  43.706   3.967
40298W        W11914  33.882   9.396   1.912
40299W        W11915  21.220   3.092   9.997
40300W        W11916  31.819  35.004   3.158
40301W        W11917  13.953  22.968   2.728
40302W        W11918   7.743  38.353   3.860
40303W        W11919  21.545  17.037   2.371
40304W        W11920  39.502  24.487   3.715
40305W        W11921  17.273  27.019   3.588
40306W        W11922   9.157  25.458   5.013
40307W        W11923  38.036  12.647  10.768
40308W        W11924  10.773  27.542   1.215
40309W        W11925  10.101  34.215   3.899
40310W        W11926   7.386  35.300  12.947
40311W        W11927  39.003  39.165   0.004
40312W        W11928   2.914  24.366  13.005
40313W        W11929  31.530  43.760   3.846
40314W        W11930  13.044  21.012   0.420
40315W        W11931  29.734  44.041   4.219
40316W        W11932  19.467  21.965   3.256
40317W        W11933  22.984  38.191   3.139
40318W        W11934   7.777  18.054  11.245
40319W        W11935   0.215   1.887   1.922
40320W        W11936  37.471  17.104   1.704
40321W        W11937  20.786  15.864   1.182
40322W        W11938  30.411  37.048   4.606
40323W        W11939  21.259  12.653   1.294
40324W        W11940  14.318  30.692   3.718
40325W        W11941  44.853   8.372   1.438
40326W        W11942  15.860  16.103   3.449
40327W        W11943  35.156  16.049  12.930
40328W        W11944   6.371  21.477   4.299
40329W        W11945  36.162  33.271   4.610
40330W        W11946  12.637   5.075  10.680
40331W        W11947  39.039  38.042   1.326
40332W        W11948  25.202  37.899  13.746
40333W        W11949  27.757  18.316  14.834
40334W        W11950  31.933  33.379   2.216
40335W        W11951  36.937   5.003  13.063
40336W        W11952  38.307  41.414   4.481
40337W        W11953  18.088  26.475   0.092
40338W        W11954   2.991  25.663  10.628
40339W        W11955  10.910  38.544  11.013
40340W        W11956  26.673   9.184  11.221
40341W        W11957  42.757  20.123   1.559
40342W        W11958  20.673  35.697  12.510
40343W        W11959   8.809  22.918  14.955
40344W        W11960  12.889  26.519  14.713
40345W        W11961   9.393  38.451   4.656
40346W        W11962  14.519   2.828  14.355
40347W        W11963  31.525   3.203  11.733
40348W        W11964  41.975  10.172   2.269
40349W        W11965  42.445  35.551   1.637
40350W        W11966  14.039  33.384   1.018
40351W        W11967  25.165  15.760   3.792
40352W        W11968  39.618   6.356   3.339
40353W        W11969  44.557  40.199  13.875
40354W        W11970  39.508   7.995   0.314
40355W        W11971  23.235  12.284   2.674
40356W        W11972   2.695  16.318  11.990
40357W        W11973  44.469  38.617   5.354
40358W        W11974  17.052  43.014  14.030
40359W        W11975  35.456  39.224   3.145
40360W        W11976   6.950   1.078   1.121
40361W        W11977  10.042  17.784  14.422
40362W        W11978   4.875  20.354   0.766
40363W        W11979  38.386   8.114  12.887
40364W        W11980  15.879   3.784   2.166
40365W        W11981   8.283  39.264  14.919
40366W        W11982   1.648  34.029   4.101
40367W        W11983  42.977   4.815   0.263
40368W        W11984  39.402  12.750  14.350
40369W        W11985  42.220  30.250  13.798
40370W        W11986   6.678  41.796  11.390
40371W        W11987  27.105  17.047  11.078
40372W        W11988   0.965  31.528   2.201
40373W        W11989  29.851   6.863  10.867
40374W        W11990  26.489  26.503   4.582
40375W        W11991  14.137  35.300   0.844
40376W        W11992  33.909  44.966  12.659
40377W        W11993  42.217  41.778   0.618
40378W        W11994   7.198  39.281   1.839
40379W        W11995  13.278  43.008  13.817
40380W        W11996   4.054  22.483  10.266
40381W        W11997   3.676  25.682   1.635
40382W        W11998  26.901  27.257   2.684
40383W        W11999  10.774  26.596   3.293
40384W        W12000  15.786  28.957  11.275
40385W        W12001  36.369   3.819   1.976
40386W        W12002  41.783   3.374   2.667
40387W        W12003  16.627  26.500   2.750
40388W        W12004  16.749   2.499  12.594
40389W        W12005  20.763  13.882  10.885
40390W        W12006  17.423  19.116  11.526
40391W        W12007  23.962  39.605   1.191
40392W        W12008  33.078   3.658   4.095
40393W        W12009  17.261   0.768   3.756
40394W        W12010  35.955  33.827  13.394
40395W        W12011   6.988  29.976  12.434
40396W        W12012  16.988   9.311   3.744
40397W        W12013  20.096   4.064   3.201
40398W        W12014  18.318  28.714  12.444
40399W        W12015  34.324  38.386   2.223
40400W        W12016  21.745  30.859   2.180
40401W        W12017  30.421  19.113   2.414
40402W        W12018  30.217  15.056   1.721
40403W        W12019   1.910  19.596   0.684
40404W        W12020  34.100  24.941   0.248
40405W        W12021  18.221  13.584  11.270
40406W        W12022  15.650   0.003   3.520
40407W        W12023  28.409  42.377  13.821
40408W        W12024  11.244  39.261  13.430
40409W        W12025  28.567  35.614   2.788
40410W        W12026  15.050  17.328  12.933
40411W        W12027  30.700  12.217  12.953
40412W        W12028  26.136  32.052   2.328
40413W        W12029  30.239   8.770   3.809
40414W        W12030   7.504   7.876  13.302
40415W        W12031  38.947  25.525   2.058
40416W        W12032   5.618  21.593  12.403
40417W        W12033  32.915  44.727  10.248
40418W        W12034  27.864   7.708   4.394
40419W        W12035  38.053  13.181  10.567
40420W        W12036  24.226  23.590   4.361
40421W        W12037  10.660  33.614   3.846
40422W        W12038  14.916   6.460  11.474
40423W        W12039   0.843  34.392   0.343
40424W        W12040  18.543  38.874   1.220
40425W        W12041  33.461  13.280   0.347
40426W        W12042  27.773  35.921  14.707
40427W        W12043   2.633  18.974   1.924
40428W        W12044  26.087  16.126  12.134
40429W        W12045  35.568  21.059  11.323
40430W        W12046  37.991  10.276   1.881
40431W        W12047  14.126   2.813   1.245
40432W        W12048  12.784  37.998   1.866
40433W        W12049  25.958  44.413  11.237
40434W        W12050  44.397  23.510   5.091
40435W        W12051  42.414  33.633   3.269
40436W        W12052  35.912  25.026   2.811
40437W        W12053  23.924  40.097   1.333
40438W        W12054  24.918  20.584  11.982
40439W        W12055  17.233  26.099   4.686
40440W        W12056  24.102  11.568  13.567
40441W        W12057  34.738  27.846   2.236
40442W        W12058  10.410  35.539   0.901
40443W        W12059  26.208   3.108  11.545
40444W        W12060  41.700  24.123  12.934
40445W        W12061  29.434  29.082  11.382
40446W        W12062  16.074   6.438   4.613
40447W        W12063   8.114  39.267  13.603
40448W        W12064  38.870  22.762  12.210
40449W        W12065  10.698  13.615   0.413
40450W        W12066  24.308  39.399   0.246
40451W        W12067  43.206   7.945  13.406
40452W        W12068  22.101  36.893  14.804
40453W        W12069   2.229   7.259   3.270
40454W        W12070  28.029  39.018   4.084
40455W        W12071  17.625   1.304   0.245
40456W        W12072  29.440  37.324  14.999
40457W        W12073  14.002   6.643   4.205
40458W        W12074  42.341  15.551   2.399
40459W        W12075   8.914  33.722  13.968
40460W        W12076  10.231  30.623   3.660
40461W        W12077  14.589  24.664  11.650
40462W        W12078  29.266  39.068  14.540
40463W        W12079  30.353  44.711  12.109
40464W        W12080  40.333   7.898   3.108
40465W        W12081  14.783  38.311   3.858
40466W        W12082  39.798  32.792  12.720
40467W        W12083   5.964   9.158   4.175
40468W        W12084  37.031   4.081   1.440
40469W        W12085   4.699  10.759  11.598
40470W        W12086  10.273  32.712   0.789
40471W        W12087  44.441   9.859  13.340
40472W        W12088  23.182  23.134   3.118
40473W        W12089  35.593  19.038  10.669
40474W        W12090  29.128  41.186  13.069
40475W        W12091   6.708  27.426   0.381
40476W        W12092   9.104   0.213   4.448
40477W        W12093  32.381  33.489  12.667
40478W        W12094   0.003   3.636   3.660
40479W        W12095  12.644   8.260  12.197
40480W        W12096  43.736  38.030   4.485
40481W        W12097  38.447  31.024   4.367
40482W        W12098  21.137  40.834   1.505
40483W        W12099  10.079   5.986  14.324
40484W        W12100  30.474  12.756  11.436
40485W        W12101  31.478  19.659  13.957
40486W        W12102  26.733  29.934   4.609
40487W        W12103  22.215  26.684   3.626
40488W        W12104  26.969  16.603  14.976
40489W        W12105   6.122  32.444   0.197
40490W        W12106  31.719  39.363   2.750
40491W        W12107  34.116  24.428   0.293
40492W        W12108   3.689  10.996   1.378
40493W        W12109  37.338   8.253  12.006
40494W        W12110  28.228  20.397   3.587
40495W        W12111   9.339  37.760   3.111
40496W        W12112  26.157   1.331  14.317
40497W        W12113  28.933  17.354  10.575
40498W        W12114   2.230  36.600  13.547
40499W        W12115   6.188  10.610  14.243
40500W        W12116  30.989  20.697  12.065
40501W        W12117   7.420  26.123  11.567
40502W        W12118   2.645   0.695  12.489
40503W        W12119  19.761  24.657  10.481
40504W        W12120  15.317  42.662  12.535
40505W        W12121  13.340  17.110  14.174
40506W        W12122   0.059  28.573   4.227
40507W        W12123  38.056  22.654   2.343
40508W        W12124  27.672   2.807   2.423
40509W        W12125  20.775  25.493  10.939
40510W        W12126  17.019  36.317   3.311
40511W        W12127  41.732  28.199   0.932
40512W        W12128   3.234  25.170   3.633
40513W        W12129  14.318  18.974   2.721
40514W        W12130  15.104   6.189   3.209
40515W        W12131  41.441  36.414  12.977
40516W        W12132  41.181   5.269   3.130
40517W        W12133  13.167  13.480   3.126
40518W        W12134  19.638  14.844   3.157
40519W        W12135  13.352  30.399  10.706
40520W        W12136  12.378  35.994   0.539
40521W        W12137   0.934   2.652  11.870
40522W        W12138  31.087  37.861  10.940
40523W        W12139   7.933  35.763   3.581
40524W        W12140   5.771   0.403   3.781
40525W        W12141   5.754  29.345   0.687
40526W        W12142  36.602  16.940   4.298
40527W        W12143  38.933  10.110   1.289
40528W        W12144  26.075   3.373  10.615
40529W        W12145  25.853  13.900  12.921
40530W        W12146   7.846   2.809  12.013
40531W        W12147  23.624   6.571  13.481
40532W        W12148  34.813  22.491   0.773
40533W        W12149  40.261  12.896   5.687
40534W        W12150  16.246  11.255   1.897
40535W        W12151   2.549  25.524   9.798
40536W        W12152   5.916  22.109   4.520
40537W        W12153  20.927  11.283  11.561
40538W        W12154  26.286  35.756   3.893
40539W        W12155   7.205  18.372  11.876
40540W        W12156  21.448   8.659   1.762
40541W        W12157  44.919   2.723   2.925
40542W        W12158  15.167  36.721   0.807
40543W        W12159  12.924   4.458  13.986
40544W        W12160  43.802  44.311  14.073
40545W        W12161   3.890  16.590  11.468
40546W        W12162  11.883  24.580  14.997
40547W        W12163  21.098   3.210   0.727
40548W        W12164  30.730  24.780  11.227
40549W        W12165  34.854   9.745  14.403
40550W        W12166  32.468  40.551  11.532
40551W        W12167   4.855  38.449  10.650
40552W        W12168  12.641  28.988  14.212
40553W        W12169  38.537  13.361  14.465
40554W        W12170  42.290   7.778  11.620
40555W        W12171  32.797  16.225   2.642
40556W        W12172   0.224  44.954  12.038
40557W        W12173  12.826   2.194  12.915
40558W        W12174  11.725   4.252   0.939
40559W        W12175  42.758  31.125  12.138
40560W        W12176  43.913  35.421   9.922
40561W        W12177  36.872  23.215  11.238
40562W        W12178  37.379  20.149   0.470
40563W        W12179  36.069   9.109   3.157
40564W        W12180  10.301  17.960  12.121
40565W        W12181  14.162   4.669   5.034
40566W        W12182   0.450   3.370   2.799
40567W        W12183  30.568  37.613   3.176
40568W        W12184   4.675  12.997   3.333
40569W        W12185  10.458  32.781  12.326
40570W        W12186  33.972  34.030  10.375
40571W        W12187   7.202  11.877  12.907
40572W        W12188  26.498   3.269   1.360
40573W        W12189  44.969   4.088  11.569
40574W        W12190  34.450  18.769   0.489
40575W        W12191   6.363  28.607  14.462
40576W        W12192   9.845   5.483  14.441
40577W        W12193  16.251  19.282   2.828
40578W        W12194   1.680   6.295   2.787
40579W        W12195  27.403  33.892   4.060
40580W        W12196  29.497  34.959  12.932
40581W        W12197   9.029  11.736  14.054
40582W        W12198   3.045  41.561  14.666
40583W        W12199   0.292  34.940   0.521
40584W        W12200  42.438   3.222   4.065
40585W        W12201   7.847  33.193   1.348
40586W        W12202  42.401  38.033  11.099
40587W        W12203  13.733  14.904   3.577
40588W        W12204  38.818  25.707   4.898
40589W        W12205  33.952  41.676   0.951
40590W        W12206  26.580  32.704  13.597
40591W        W12207  24.646   4.122   2.224
40592W        W12208  15.519  11.400  12.788
40593W        W12209   1.741  11.616   3.551
40594W        W12210  12.649  11.610   0.829
40595W        W12211  19.944  39.430   2.962
40596W        W12212  13.983  33.490   3.277
40597W        W12213  33.027  24.936   0.978
40598W        W12214   6.218   4.620   3.982
40599W        W12215  40.665   6.029   4.099
40600W        W12216  23.809   6.270  10.695
40601W        W12217  27.557  33.492   2.208
40602W        W12218  40.529  10.781   1.758
40603W        W12219  41.818  18.485  12.619
40604W        W12220  30.253  30.217   1.694
40605W        W12221  31.024  38.064   3.939
40606W        W12222  28.401  39.863  14.888
40607W        W12223  19.355  39.840  13.011
40608W        W12224  37.421  19.571   1.199
40609W        W12225  44.793  13.912   4.481
40610W        W12226  31.910  35.123  12.428
40611W        W12227   5.276   0.686   4.561
40612W        W12228  11.819  44.651  11.938
40613W        W12229  38.909  14.700  11.143
40614W        W12230   5.870  33.939   2.863
40615W        W12231   2.908  32.443  12.691
40616W        W12232  17.752  35.128   0.832
40617W        W12233   0.473  17.668   3.680
40618W        W12234  41.357  11.543  10.601
40619W        W12235  21.648  22.451  11.090
40620W        W12236  29.515  31.061  11.945
40621W        W12237  27.183   3.921   3.004
40622W        W12238  21.179  10.896  12.540
40623W        W12239  43.958  18.241  13.968
40624W        W12240   1.003  44.486  12.050
40625W        W12241  36.412  36.335   0.347
40626W        W12242  12.226   5.958  11.164
40627W        W12243  42.794  37.339  13.948
40628W        W12244  10.525  38.513   0.321
40629W        W12245   2.437  16.273   4.068
40630W        W12246  30.496  11.345   4.049
40631W        W12247  17.476   5.236   1.952
40632W        W12248  42.375  25.617   0.498
40633W        W12249  30.991  13.568   3.863
40634W        W12250   4.485  14.808  12.589
40635W        W12251   8.355  21.530  13.080
40636W        W12252  12.771  14.004   3.866
40637W        W12253   7.171  25.966   1.645
40638W        W12254   8.902   1.743   2.848
40639W        W12255  37.886  24.328  13.580
40640W        W12256  24.169  31.629   4.111
40641W        W12257  27.328   8.970  14.425
40642W        W12258  34.280  36.746  11.455
40643W        W12259   6.381  34.415   4.558
40644W        W12260   9.640  44.971   3.686
40645W        W12261  40.554  33.143  11.426
40646W        W12262  35.444   2.946  12.418
40647W        W12263   4.860  22.726  14.100
40648W        W12264  12.353  40.842   3.353
40649W        W12265  21.140  41.756  10.978
40650W        W12266  40.397  27.375  14.853
40651W        W12267  14.127  21.603  13.870
40652W        W12268   2.000  32.500   4.262
40653W        W12269  25.592  23.496  12.881
40654W        W12270   7.900  15.086  13.561
40655W        W12271  42.571  17.146  10.692
40656W        W12272  18.038  14.579   3.741
40657W        W12273   1.883  37.548   1.274
40658W        W12274   7.999   3.859  13.901
40659W        W12275  34.629  27.717  14.001
40660W        W12276  38.596  42.435   4.993
40661W        W12277  36.759   5.741   2.838
40662W        W12278   3.967  39.257  13.540
40663W        W12279  40.227  12.637  14.235
40664W        W12280  34.342   2.781  12.636
40665W        W12281  29.821  22.656  12.989
40666W        W12282  34.085  23.691  12.050
40667W        W12283  24.893  10.275  12.455
40668W        W12284  17.633  12.520  12.635
40669W        W12285  27.475  29.377   4.614
40670W        W12286  42.916   3.250   2.311
40671W        W12287  23.529  42.468   3.453
40672W        W12288   2.890  15.235  11.964
40673W        W12289  23.247  19.019  11.431
40674W        W12290  38.542  18.072  13.466
40675W        W12291  20.570  37.911  14.379
40676W        W12292  40.420  19.631  14.631
40677W        W12293  16.810  10.264  11.158
40678W        W12294  29.560  31.959   3.166
40679W        W12295  20.545  39.293  13.346
40680W        W12296  22.975  22.665   1.919
40681W        W12297  27.521   5.145  14.420
40682W        W12298   3.470  43.406  10.276
40683W        W12299   8.196  22.101  10.576
40684W        W12300  34.468  27.591  11.498
40685W        W12301  24.628  21.637  10.662
40686W        W12302  31.120   3.741   3.939
40687W        W12303  17.865  27.239   0.372
40688W        W12304   3.751   4.792   4.459
40689W        W12305   2.233  33.944   2.771
40690W        W12306  11.194  34.795   2.386
40691W        W12307  21.271  44.299   4.374
40692W        W12308  21.123  40.820  10.587
40693W        W12309  23.295  37.989   2.731
40694W        W12310  43.392  22.452  10.386
40695W        W12311  39.136  37.878  12.055
40696W        W12312  24.382  40.177   4.228
40697W        W12313  19.227   5.323  14.555
40698W        W12314  39.612  24.091   1.883
40699W        W12315  43.426  39.482   5.031
40700W        W12316  43.863  12.329  11.542
40701W        W12317  19.591  21.060  13.343
40702W        W12318  24.520  36.407   0.235
40703W        W12319   2.442  10.843   1.759
40704W        W12320  44.849  42.919  12.664
40705W        W12321  33.513  40.591  12.005
40706W        W12322   2.036  29.393   2.818
40707W        W12323  39.360  14.289  10.774
40708W        W12324  44.706  28.493   3.263
40709W        W12325   6.123  42.548  13.328
40710W        W12326   7.207  14.946  11.632
40711W        W12327  30.644   0.975  13.496
40712W        W12328  15.866   8.588   5.044
40713W        W12329  25.182   6.128   1.320
40714W        W12330   0.788  23.759  11.006
40715W        W12331  20.718  16.302   2.418
40716W        W12332  34.162  11.811  14.546
40717W        W12333  28.536  26.711   0.305
40718W        W12334  14.775  18.983   5.036
40719W        W12335   8.635  14.777  11.575
40720W        W12336  43.242   9.769   1.953
40721W        W12337   9.352   8.246   0.506
40722W        W12338  16.425  20.634   4.612
40723W        W12339  23.499  15.947   0.873
40724W        W12340   0.999  11.175  11.215
40725W        W12341   9.671  40.042  14.828
40726W        W12342  41.542  33.260   0.308
40727W        W12343  43.440  14.339  10.252
40728W        W12344  26.473  37.687  13.476
40729W        W12345   4.280  20.200  14.560
40730W        W12346  32.905  27.424   2.867
40731W        W12347   2.589  25.865   4.986
40732W        W12348   7.377   7.594   4.608
40733W        W12349  33.073  27.639  13.134
40734W        W12350  41.793  23.080   0.921
40735W        W12351   5.352  42.780  14.964
40736W        W12352  36.893  23.010  14.420
40737W        W12353   9.285  41.127  11.714
40738W        W12354  13.109   8.718   0.708
40739W        W12355  42.360  22.379   4.140
40740W        W12356   2.246  40.958  13.623
40741W        W12357  22.730  24.957  11.151
40742W        W12358  13.414   5.808   5.048
40743W        W12359   1.519  31.818   2.098
40744W        W12360  41.012  15.201  14.708
40745W        W12361  19.751  29.110  14.494
40746W        W12362  14.810  11.656   1.899
40747W        W12363  25.635  25.051   1.273
40748W        W12364  40.954  43.226  14.245
40749W        W12365  38.611  12.926  10.228
40750W        W12366   6.177   6.406   3.152
40751W        W12367  28.666  32.093  13.372
40752W        W12368  23.171  16.108  11.541
40753W        W12369  41.511  10.731   4.355
40754W        W12370  13.886  43.436  12.997
40755W        W12371  12.376   7.415   0.792
40756W        W12372  16.438   9.175   3.469
40757W        W12373  23.243   8.239  12.023
40758W        W12374  16.547  43.594   5.126
40759W        W12375  27.621   3.202  10.664
40760W        W12376  29.662  42.854  14.218
40761W        W12377  35.647  17.133  13.376
40762W        W12378  12.340  18.123   4.128
40763W        W12379   8.225  30.055   0.228
40764W        W12380  41.127  22.760   3.261
40765W        W12381   6.413   0.906  13.935
40766W        W12382   4.728  18.073  13.902
40767W        W12383  36.405  15.578  10.180
40768W        W12384  14.156   9.313  12.835
40769W        W12385  38.134   1.550   4.178
40770W        W12386  39.168  32.848  11.238
40771W        W12387   7.468  41.571  13.340
40772W        W12388  30.143  30.416  13.793
40773W        W12389  16.551   9.734  10.858
40774W        W12390   8.273  20.865  12.388
40775W        W12391   4.666  43.318   2.431
40776W        W12392  19.728  12.245  14.487
40777W        W12393  16.048  12.426  12.361
40778W        W12394   9.154   0.834   0.742
40779W        W12395  35.562   3.857  14.977
40780W        W12396  10.291  44.381   4.802
40781W        W12397  41.820   7.371   2.744
40782W        W12398  35.282  40.230   3.158
40783W        W12399  35.146   3.171  10.242
40784W        W12400  36.400  22.062   2.116
40785W        W12401  29.691  33.573   2.318
40786W        W12402  24.189  25.508  12.402
40787W        W12403  23.220   5.345  14.805
40788W        W12404  15.272  21.149  10.943
40789W        W12405  36.524  18.582   0.765
40790W        W12406   2.481  36.429  12.581
40791W        W12407  38.828  43.945  11.122
40792W        W12408  29.915  40.410  11.311
40793W        W12409  43.678   8.193  13.363
40794W        W12410  22.809   0.547   0.932
40795W        W12411  37.314   2.483  14.455
40796W        W12412  44.262  32.302   1.898
40797W        W12413  18.233  28.586   4.500
40798W        W12414  12.140  17.673  14.415
40799W        W12415  33.051   8.752   0.951
40800W        W12416  21.487  34.771   2.590
40801W        W12417  24.267   1.758   1.580
40802W        W12418   5.765  36.872   0.325
40803W        W12419  13.783   0.720   3.266
40804W        W12420  30.479  22.350   0.966
40805W        W12421  42.598  24.757  11.110
40806W        W12422  43.493  22.837   1.285
40807W        W12423  33.095  17.075   4.685
40808W        W12424  16.199   6.445  10.487
40809W        W12425   3.312  21.951   2.437
40810W        W12426  37.775  22.766  10.033
40811W        W12427  22.888  31.401   4.744
40812W        W12428  11.099  10.074   3.726
40813W        W12429   7.433   9.780   0.364
40814W        W12430  21.525   0.104  14.036
40815W        W12431  12.821  12.497  13.487
40816W        W12432   0.005  41.764  11.489
40817W        W12433  18.680  29.692   0.846
40818W        W12434  10.083   6.777   2.396
40819W        W12435  20.190  33.281   5.064
40820W        W12436  13.840  44.226   2.375
40821W        W12437  17.572  31.602  13.937
40822W        W12438  23.695  32.428  14.503
40823W        W12439   3.033  38.071  12.498
40824W        W12440  35.475  25.188   1.185
40825W        W12441   8.948   4.362  11.543
40826W        W12442  18.315  19.577   3.560
40827W        W12443  31.990   9.406   4.225
40828W        W12444  28.173   3.843   2.887
40829W        W12445   3.635  28.155  14.112
40830W        W12446  31.461  10.202  10.696
40831W        W12447  24.566  31.903  13.152
40832W        W12448  11.918  10.780  13.901
40833W        W12449   7.358  20.706   2.138
40834W        W12450  23.878  16.786   4.907
40835W        W12451  26.590   1.787  10.692
40836W        W12452  41.902  43.466   1.003
40837W        W12453   4.400  31.302  14.602
40838W        W12454   3.895  43.535  12.550
40839W        W12455   6.096   0.119   4.600
40840W        W12456  36.425   5.879  11.193
40841W        W12457  12.636  16.244  11.928
40842W        W12458  32.408  14.121  13.434
40843W        W12459  36.757  25.473  13.825
40844W        W12460  26.143  44.999   0.490
40845W        W12461  16.686   7.539   4.136
40846W        W12462  33.280  24.241   1.974
40847W        W12463   4.511   6.235  12.413
40848W        W12464   0.542  19.549   3.310
40849W        W12465  13.345  20.429   2.351
40850W        W12466  34.924  12.632   2.126
40851W        W12467  15.813  43.352  14.742
40852W        W12468  15.139  12.391   1.801
40853W        W12469  38.232  37.962   1.808
40854W        W12470  32.596  37.904   0.959
40855W        W12471  21.812  21.123   2.793
40856W        W12472  38.923  15.203  14.008
40857W        W12473  12.064  15.485  12.991
40858W        W12474  24.183  41.052  14.746
40859W        W12475  41.594  22.238  10.410
40860W        W12476   3.278  24.024  11.860
40861W        W12477  43.723  21.754  14.628
40862W        W12478  39.537   6.710  11.822
40863W        W12479   0.623   1.002   1.760
40864W        W12480  17.531  32.622  13.042
40865W        W12481   3.968  37.271   4.239
40866W        W12482  21.123  11.155  14.012
40867W        W12483   3.466  28.724   4.327
40868W        W12484  44.020  42.815  14.991
40869W        W12485   9.143  44.193   1.367
40870W        W12486  23.641  12.260  10.973
40871W        W12487  40.788  13.355   0.014
40872W        W12488  41.131   8.347   0.904
40873W        W12489  39.302  16.351  14.826
40874W        W12490  22.959  13.233  14.507
40875W        W12491  18.098  13.912  11.657
40876W        W12492  26.182  37.910  14.052
40877W        W12493   6.794  30.860  13.506
40878W        W12494  16.207  44.841   1.910
40879W        W12495  37.358  42.490  14.987
40880W        W12496  15.002   2.379   3.821
40881W        W12497  34.792   5.643  13.874
40882W        W12498   5.897  38.351  14.423
40883W        W12499  25.814  18.619  13.854
40884W        W12500  17.952  36.893   4.767
40885W        W12501   9.955  31.631   2.184
40886W        W12502  18.372  39.422   2.761
40887W        W12503  29.736  41.741  12.336
40888W        W12504  30.205   6.302  14.834
40889W        W12505  13.852  21.337  14.900
40890W        W12506  16.143  18.262   0.065
40891W        W12507  40.794  12.317  14.081
40892W        W12508  13.715   3.402  14.027
40893W        W12509  34.301  42.004   3.171
40894W        W12510  34.089  39.745   2.695
40895W        W12511   9.812  31.153   4.610
40896W        W12512  29.214  28.042  11.126
40897W        W12513  32.968  32.641  12.870
40898W        W12514  39.745  25.290   2.403
40899W        W12515  15.743  20.823  12.589
40900W        W12516   4.399  27.428  13.134
40901W        W12517   3.511  22.221  13.979
40902W        W12518  35.444   7.362   0.727
40903W        W12519  21.714  17.318   4.392
40904W        W12520  32.299   7.190  12.473
40905W        W12521  25.894  37.873  10.982
40906W        W12522   0.884  12.022  11.502
40907W        W12523  37.769  44.882   1.760
40908W        W12524  27.127  39.557   4.156
40909W        W12525  27.779  13.703   4.562
40910W        W12526  18.645  31.637  12.982
40911W        W12527   3.287  12.672   0.820
40912W        W12528  13.335   1.442   3.684
40913W        W12529  23.191  23.504   3.590
40914W        W12530  14.527   4.122  11.879
40915W        W12531   1.766  32.475   3.742
40916W        W12532   5.094   2.999   0.441
40917W        W12533  25.131  37.403  13.366
40918W        W12534  24.671  12.347  13.324
40919W        W12535  10.777  13.323  13.429
40920W        W12536  29.616  42.852  12.092
40921W        W12537  41.309  13.887   3.778
40922W        W12538   6.812  15.093  14.479
40923W        W12539   7.422   8.245   2.750
40924W        W12540  38.337  35.770   4.842
40925W        W12541   2.112  14.258   1.634
40926W        W12542  12.135  24.522   2.286
40927W        W12543   2.028  34.969  10.988
40928W        W12544  16.337  18.106  10.553
40929W        W12545  30.500   5.998   2.914
40930W        W12546   9.744  19.230  12.547
40931W        W12547  30.361  21.298   3.754
40932W        W12548  21.380  17.664  13.301
40933W        W12549  43.350  13.178  11.572
40934W        W12550  14.371  10.067  11.218
40935W        W12551  10.186  38.379   1.667
40936W        W12552  23.998  15.737  11.171
40937W        W12553   4.010  39.855   1.350
40938W        W12554  28.855   9.962   4.369
40939W        W12555  29.059  10.271  13.860
40940W        W12556  41.861  22.630   1.442
40941W        W12557  40.978   2.696   0.239
40942W        W12558   0.407  41.815   0.187
40943W        W12559  24.719  28.058   0.821
40944W        W12560   5.846  27.598   2.286
40945W        W12561  31.673   0.208   3.295
40946W        W12562  21.479  19.584  11.572
40947W        W12563  20.139   6.175  13.874
40948W        W12564  31.642  40.166   2.289
40949W        W12565  21.743  30.386  13.454
40950W        W12566  32.107   7.720   5.037
40951W        W12567  16.357  25.093   5.187
40952W        W12568   8.693  41.515  13.855
40953W        W12569  13.695   9.234  13.029
40954W        W12570  13.623  22.578  11.677
40955W        W12571   7.502  24.861   1.729
40956W        W12572  18.214  29.916  14.623
40957W        W12573  44.772  32.836  11.332
40958W        W12574   3.878  44.467   4.425
40959W        W12575  31.001   1.237  12.016
40960W        W12576  32.404  37.762  13.023
40961W        W12577   1.536  39.983  10.486
40962W        W12578  38.936  19.573   2.383
40963W        W12579  10.879  36.723  13.450
40964W        W12580  20.071  18.595   4.554
40965W        W12581  16.496  43.053  14.006
40966W        W12582   3.538  33.272  14.775
40967W        W12583  41.851   6.894   4.298
40968W        W12584   4.135  19.253   1.610
40969W        W12585  26.106  28.937   1.404
40970W        W12586   8.836  18.289   2.816
40971W        W12587  20.513   2.693  13.886
40972W        W12588  19.954  12.178  12.982
40973W        W12589   4.269  24.338  10.113
40974W        W12590   5.488  22.966  14.029
40975W        W12591  38.978  39.628  14.734
40976W        W12592  44.810  15.903  13.384
40977W        W12593  33.375  24.503   0.954
40978W        W12594  17.558  12.631   4.740
40979W        W12595  35.769   5.281   0.842
40980W        W12596  18.063  27.425  12.075
40981W        W12597  23.909   1.818   0.511
40982W        W12598  13.907   4.941   3.677
40983W        W12599  39.394  21.120   1.671
40984W        W12600   8.463  42.207  11.671
40985W        W12601  20.793  10.835  12.993
40986W        W12602   2.999   0.440  14.138
40987W        W12603   9.160  22.565  14.929
40988W        W12604  29.937  33.393   1.101
40989W        W12605  31.537  38.462  10.452
40990W        W12606  34.417  39.352   1.240
40991W        W12607  38.060   8.226  14.032
40992W        W12608  22.745  44.535  12.498
40993W        W12609  39.065  35.497   5.076
40994W        W12610  19.580  22.485   5.137
40995W        W12611   8.715  27.476  14.392
40996W        W12612  35.562  13.735   0.398
40997W        W12613  20.166  44.726  14.760
40998W        W12614  25.653  36.830   4.128
40999W        W12615  40.740   4.169  13.487
41000W        W12616  36.897  27.668  14.883
41001W        W12617  10.069  38.499   0.002
41002W        W12618  40.643  21.201  11.465
41003W        W12619  15.284  43.005  12.117
41004W        W12620  34.555  15.658   2.215
41005W        W12621  43.424  22.666   0.006
41006W        W12622  31.197  17.012   0.462
41007W        W12623  35.043  18.251   4.574
41008W        W12624  25.018  24.976  10.634
41009W        W12625  23.165  38.042   4.110
41010W        W12626   2.428   1.918  14.974
41011W        W12627  40.498  19.766   1.970
41012W        W12628   1.494  44.332  12.036
41013W        W12629   9.064  17.571  14.263
41014W        W12630  14.042  31.021  10.603
41015W        W12631  28.216   7.794   4.038
41016W        W12632   0.804  24.007   4.470
41017W        W12633   6.865  42.768   3.344
41018W        W12634  27.721  19.445   1.263
41019W        W12635  14.894  20.732  12.051
41020W        W12636  36.687   6.962   0.317
41021W        W12637  20.809  30.389   2.426
41022W        W12638  44.963  13.249   4.067
41023W        W12639  39.507   5.234  13.235
41024W        W12640  17.238  41.797  13.029
41025W        W12641   8.672  31.582   4.001
41026W        W12642  26.439   6.122   0.228
41027W        W12643  21.205   3.886   4.935
41028W        W12644  12.204  40.002  13.054
41029W        W12645  27.630   2.259   0.352
41030W        W12646  33.459  29.456   3.245
41031W        W12647  43.786   6.159  14.509
41032W        W12648   8.330   1.921   4.807
41033W        W12649  35.747   8.338  13.586
41034W        W12650  26.346   3.755   1.415
41035W        W12651  15.282   9.807   4.013
41036W        W12652  40.041  31.232  13.815
41037W        W12653  38.424   6.776   3.054
41038W        W12654  39.257  20.069   1.857
41039W        W12655  27.892  43.437  14.461
41040W        W12656  26.323  15.615   2.277
41041W        W12657   7.923  15.613  12.062
41042W        W12658  32.822  17.012   1.516
41043W        W12659  43.959  14.274   3.387
41044W        W12660  27.699  23.922   2.378
41045W        W12661  32.718  27.923   3.664
41046W        W12662  18.368  31.145  12.993
41047W        W12663   7.604  37.187  12.869
41048W        W12664  43.841   3.597  13.487
41049W        W12665  20.376  19.679  11.077
41050W        W12666  35.786  38.510   3.746
41051W        W12667  30.676   0.790   2.293
41052W        W12668  25.254   7.645  13.337
41053W        W12669   4.209  11.283   2.829
41054W        W12670  44.936  43.822   1.219
41055W        W12671  28.067  33.934   2.893
41056W        W12672  25.172   1.983   4.391
41057W        W12673  28.477  17.922  12.946
41058W        W12674  37.337  14.827   4.541
41059W        W12675   4.837  11.861  10.677
41060W        W12676  42.940  35.076   3.248
41061W        W12677  38.308   2.213  14.155
41062W        W12678  34.781  17.426  14.508
41063W        W12679  16.824  28.096   0.555
41064W        W12680   7.208   3.185   1.923
41065W        W12681  21.191  18.750  14.423
41066W        W12682   8.024   8.394  11.284
41067W        W12683  20.745  38.481   4.152
41068W        W12684  36.927  14.100  13.932
41069W        W12685   2.830  38.009  11.174
41070W        W12686   7.441   6.775   2.900
41071W        W12687  15.269   2.990  14.054
41072W        W12688  31.647  33.390   2.858
41073W        W12689  27.412  25.243  11.130
41074W        W12690  35.278   4.438   2.749
41075W        W12691  35.329  11.698   4.902
41076W        W12692  36.594  19.723  11.550
41077W        W12693   0.458  41.489  10.685
41078W        W12694  24.201   9.520   3.610
41079W        W12695  18.684  26.648   1.927
41080W        W12696   1.686  13.130   0.460
41081W        W12697  12.713  25.020  11.180
41082W        W12698  21.203  30.397  14.010
41083W        W12699  22.218  15.583   4.206
41084W        W12700  41.591  25.455  14.084
41085W        W12701  11.678  10.704  11.036
41086W        W12702  41.889  14.268   4.290
41087W        W12703  37.996   2.925   4.482
41088W        W12704  25.997  20.581  14.956
41089W        W12705   9.090  11.322   3.200
41090W        W12706  35.816   2.675  10.984
41091W        W12707  23.064  20.070  13.636
41092W        W12708  15.246  31.007   1.035
41093W        W12709  19.338   6.985  11.071
41094W        W12710  41.111  36.113   2.151
41095W        W12711  20.573  18.079   4.174
41096W        W12712  43.011  43.763  12.566
41097W        W12713   4.711   9.905  13.474
41098W        W12714  28.988  22.922   4.135
41099W        W12715   2.306  16.154   1.224
41100W        W12716   9.672  42.308   3.326
41101W        W12717  15.215  38.762   0.045
41102W        W12718  18.678  30.675  10.434
41103W        W12719  30.406  22.769  11.632
41104W        W12720  12.717  14.766   0.796
41105W        W12721  26.986   2.546   2.226
41106W        W12722   8.729  24.945   0.906
41107W        W12723  35.961  24.523   2.086
41108W        W12724   3.308  28.241  11.506
41109W        W12725  14.362  28.408  14.662
41110W        W12726  44.420  14.859   4.628
41111W        W12727  29.361  40.165   4.774
41112W        W12728  35.406  30.263  11.892
41113W        W12729  25.176   6.901   1.853
41114W        W12730  38.912  13.562   3.667
41115W        W12731  16.707  34.602   2.186
41116W        W12732  41.441  19.078  13.744
41117W        W12733  28.628  27.198  14.442
41118W        W12734  28.550   5.837   2.422
41119W        W12735  44.375   0.421   2.857
41120W        W12736  32.507   9.936  14.976
41121W        W12737  42.341  29.392   1.309
41122W        W12738   9.711  14.730  12.181
41123W        W12739  13.338  37.559   3.232
41124W        W12740   5.944  20.857  13.972
41125W        W12741  16.358   7.609   4.939
41126W        W12742  38.911  35.591  12.943
41127W        W12743  32.819  34.182  12.033
41128W        W12744  20.270  10.145   4.666
41129W        W12745  11.892   2.592   1.257
41130W        W12746   2.499   7.153   2.843
41131W        W12747  33.352  17.031  11.164
41132W        W12748  12.913  33.605   0.285
41133W        W12749   3.751   2.625   3.374
41134W        W12750  34.601  39.515  12.981
41135W        W12751   9.170   0.258   3.932
41136W        W12752  28.202  33.199  12.562
41137W        W12753  30.835   3.820  14.021
41138W        W12754  32.392  20.868   3.824
41139W        W12755  32.075   6.630  11.053
41140W        W12756  40.042  25.560  13.396
41141W        W12757  20.485  25.957  13.137
41142W        W12758   8.488  35.080  13.894
41143W        W12759  40.531  17.549   3.973
41144W        W12760  39.787   8.383  11.198
41145W        W12761  40.200  36.582   4.157
41146W        W12762  20.261  23.463   3.361
41147W        W12763  29.626  44.897   2.372
41148W        W12764  24.892  37.208   5.066
41149W        W12765  26.093  16.154   1.240
41150W        W12766  17.665  10.123   1.737
41151W        W12767  12.418  34.654  13.439
41152W        W12768  41.790  12.261   1.333
41153W        W12769  25.916  27.468   0.457
41154W        W12770  10.400  38.611  10.978
41155W        W12771  13.634  29.940  10.656
41156W        W12772  17.697   1.717  11.547
41157W        W12773  38.910  21.989  12.920
41158W        W12774  43.113  10.368  13.383
41159W        W12775  18.367  29.500  12.594
41160W        W12776  12.551   3.746  10.435
41161W        W12777  31.887  42.605  13.852
41162W        W12778   9.239  31.336  11.856
41163W        W12779  22.623   2.875   3.621
41164W        W12780  34.022  14.339  13.885
41165W        W12781  39.208  44.775  12.843
41166W        W12782   8.227   6.047   4.152
41167W        W12783  38.255  44.385   3.637
41168W        W12784   8.626  39.004   0.861
41169W        W12785  15.057  15.267   9.704
41170W        W12786  30.845  31.084   9.842
41171W        W12787  19.061   0.846  10.751
41172W        W12788  38.522  20.364   4.069
41173W        W12789  34.431   3.364  12.815
41174W        W12790  42.029  24.416   1.794
41175W        W12791  35.818  33.991  12.909
41176W        W12792  34.536  29.069   4.552
41177W        W12793   0.080  19.207   3.546
41178W        W12794  34.857  32.427  14.256
41179W        W12795  11.129  28.013   2.875
41180W        W12796   7.152   1.857   1.446
41181W        W12797   0.122   0.866   1.702
41182W        W12798   4.197   2.743  13.073
41183W        W12799  22.241  17.131   1.714
41184W        W12800   4.285  23.283  13.255
41185W        W12801  30.206   8.604  11.906
41186W        W12802   9.897   0.851  11.641
41187W        W12803  36.357  16.320   1.204
41188W        W12804  27.546  17.064  14.422
41189W        W12805  19.887  19.997  12.258
41190W        W12806   0.689   6.266  14.927
41191W        W12807  15.389  41.015  11.128
41192W        W12808  43.072  40.139   1.429
41193W        W12809  36.111  43.056  11.031
41194W        W12810  36.535  14.195   0.917
41195W        W12811  22.271   8.482  14.930
41196W        W12812  10.109  15.722   1.233
41197W        W12813  42.742  44.478   3.365
41198W        W12814  36.974  42.218  11.339
41199W        W12815   2.189  42.930   2.999
41200W        W12816  36.896  40.609   2.981
41201W        W12817  42.405  36.513  14.195
41202W        W12818  37.943  40.537   2.311
41203W        W12819  37.421  35.842  14.095
41204W        W12820  10.811   5.699   1.668
41205W        W12821  18.339  31.039  12.089
41206W        W12822  38.569  42.814   3.059
41207W        W12823  18.075  15.066   0.478
41208W        W12824  16.197  22.604   0.379
41209W        W12825   7.433  14.895   2.290
41210W        W12826  32.816  28.441  13.840
41211W        W12827   2.728  14.675   0.912
41212W        W12828  22.335  26.652  12.094
41213W        W12829   6.383  19.633   3.743
41214W        W12830  35.442  27.498  13.461
41215W        W12831  36.445  26.902  14.826
41216W        W12832  18.721  12.428  10.784
41217W        W12833  11.238  16.778   0.498
41218W        W12834  44.419   5.097   5.091
41219W        W12835  10.796  20.444   0.882
41220W        W12836   0.890   0.824  11.560
41221W        W12837  39.799  26.162   3.926
41222W        W12838  15.409  36.995   0.000
41223W        W12839  31.480  11.890   1.759
41224W        W12840  23.141  25.702   1.466
41225W        W12841   0.219  15.767   1.890
41226W        W12842  29.307  13.740   1.581
41227W        W12843  29.390   3.384  13.496
41228W        W12844  43.414  27.013  10.988
41229W        W12845   2.241  27.638   2.804
41230W        W12846  21.090   6.724  12.942
41231W        W12847  44.723  31.821   1.352
41232W        W12848  25.191  14.340  13.329
41233W        W12849  22.010  30.020   1.817
41234W        W12850  32.116   8.469   0.855
41235W        W12851  20.590  25.584   1.646
41236W        W12852  18.802  22.717   1.913
41237W        W12853  37.509  27.688  12.530
41238W        W12854  19.172  18.996   2.610
41239W        W12855  29.492  17.169   4.198
41240W        W12856  43.334  15.655  14.790
41241W        W12857   2.682  26.098   4.121
41242W        W12858   7.066   2.225  13.437
41243W        W12859  18.294  41.478   0.821
41244W        W12860  26.996  17.183   2.352
41245W        W12861  44.261   4.484  14.197
41246W        W12862  20.498  16.165  10.418
41247W        W12863  11.198   7.655  10.631
41248W        W12864  11.056  21.549   0.254
41249W        W12865  29.495  20.217  14.447
41250W        W12866  18.057  40.834   0.985
41251W        W12867  14.340  20.196  12.381
41252W        W12868  44.561   2.777  13.306
41253W        W12869   2.477  30.214   4.943
41254W        W12870  35.062  25.417   1.357
41255W        W12871  12.539  14.325   4.242
41256W        W12872  13.420   7.437  12.078
41257W        W12873  40.453   1.010  11.513
41258W        W12874  38.339   1.424  13.378
41259W        W12875  42.944  14.321   0.905
41260W        W12876   9.264  19.144  10.965
41261W        W12877  30.944  40.994  11.678
41262W        W12878  41.641   1.738   3.513
41263W        W12879  36.463  40.514  12.975
41264W        W12880  24.998  27.088   0.257
41265W        W12881   4.515  20.701  10.493
41266W        W12882   5.757  39.075   0.017
41267W        W12883  36.196  35.839  11.311
41268W        W12884   6.167  24.724  12.790
41269W        W12885  24.572  10.488  13.617
41270W        W12886  10.858  34.073   1.841
41271W        W12887  40.572  12.244   4.019
41272W        W12888   2.851  23.077  14.006
41273W        W12889  30.559  22.329   2.141
41274W        W12890  16.875   0.253  12.499
41275W        W12891  22.525  27.686  13.630
41276W        W12892  33.080  40.307  13.470
41277W        W12893  17.783  27.574  12.890
41278W        W12894  31.489  43.710   2.479
41279W        W12895  44.855  29.919   2.851
41280W        W12896  41.402  13.026   4.130
41281W        W12897  27.594  36.554   0.978
41282W        W12898  43.086  28.046  10.538
41283W        W12899   6.252   0.266   1.915
41284W        W12900  35.642   7.386  12.491
41285W        W12901   7.329  36.686   4.416
41286W        W12902   2.329  27.142   1.210
41287W        W12903  42.826  29.161  13.951
41288W        W12904  33.433  31.174  12.184
41289W        W12905  21.320   6.696  11.346
41290W        W12906  41.776  38.366  13.283
41291W        W12907  43.326  21.415   2.729
41292W        W12908  40.331  40.871   4.198
41293W        W12909  39.761  27.631  12.959
41294W        W12910  15.255   7.616  13.845
41295W        W12911  21.148  43.090  12.125
41296W        W12912  14.766  22.729  13.032
41297W        W12913   0.319  38.910   2.606
41298W        W12914  23.665  31.295   1.770
41299W        W12915  39.721  11.872   4.197
41300W        W12916  10.342  29.201   4.499
41301W        W12917  39.805  11.723   0.094
41302W        W12918  10.262  24.577   2.446
41303W        W12919  13.781  15.273  13.825
41304W        W12920  24.594  14.324   2.226
41305W        W12921  20.088  43.325  10.227
41306W        W12922  29.771  35.876  13.548
41307W        W12923  27.092  43.807  11.531
41308W        W12924   6.825  20.197   1.946
41309W        W12925  24.683   2.702   3.291
41310W        W12926   7.198  41.856   1.254
41311W        W12927  15.761  39.239   0.153
41312W        W12928  12.902   1.842   1.410
41313W        W12929  38.261   5.897   4.409
41314W        W12930   8.871   1.201   4.559
41315W        W12931  24.093  33.689  13.903
41316W        W12932  34.529  42.549   1.713
41317W        W12933  19.892  34.676   2.841
41318W        W12934  42.320  38.238  10.618
41319W        W12935  39.582   3.205   1.241
41320W        W12936  33.499  21.441  12.009
41321W        W12937  35.936   2.935   1.806
41322W        W12938   3.970  43.496   1.877
41323W        W12939   0.861   8.230   3.778
41324W        W12940  15.376  39.047   1.471
41325W        W12941  35.326  33.585  12.565
41326W        W12942  34.082  29.915   2.765
41327W        W12943  42.140   0.031  14.221
41328W        W12944  28.769   4.888   1.447
41329W        W12945  17.329   3.170  10.580
41330W        W12946  16.979  16.103   0.747
41331W        W12947  21.578  40.507  13.962
41332W        W12948  18.085  35.491  13.795
41333W        W12949  26.146  27.066   3.656
41334W        W12950  14.364   9.343  10.754
41335W        W12951  29.791  27.068   4.062
41336W        W12952  22.684  42.440   0.482
41337W        W12953  27.683  26.710   4.576
41338W        W12954  43.571  12.266   0.429
41339W        W12955   8.331  17.274   1.928
41340W        W12956  18.807   2.528  13.376
41341W        W12957  39.400  23.460  12.667
41342W        W12958  12.783  41.120  12.094
41343W        W12959  37.481  29.062  11.064
41344W        W12960  43.369  38.925   1.701
41345W        W12961   9.806  10.217   2.379
41346W        W12962   7.260   2.327  11.767
41347W        W12963  33.101   3.389  13.537
41348W        W12964  39.602  10.153  14.652
41349W        W12965   0.958  22.512   4.514
41350W        W12966  19.630  21.102  10.713
41351W        W12967  37.411  37.600   0.673
41352W        W12968  13.775  44.701   4.527
41353W        W12969  24.505  39.924   0.346
41354W        W12970   6.391  20.769   0.530
41355W        W12971   0.981   1.379   1.654
41356W        W12972  16.706  37.562  13.984
41357W        W12973  34.505  14.116  13.984
41358W        W12974   9.108  24.757  12.465
41359W        W12975  30.065  11.480  12.804
41360W        W12976  16.994  10.747   4.536
41361W        W12977  33.350  18.128  10.341
41362W        W12978  37.770  25.531  11.054
41363W        W12979  19.981  16.899   3.930
41364W        W12980  33.035  33.996  13.404
41365W        W12981  15.286  29.561   0.800
41366W        W12982  32.539   4.438   3.940
41367W        W12983   6.816   5.875  13.035
41368W        W12984  20.113  23.334  11.569
41369W        W12985  29.557   2.933   2.747
41370W        W12986  10.898  11.263   4.680
41371W        W12987   1.737   6.272  13.991
41372W        W12988   3.486  23.566   3.342
41373W        W12989   5.431  32.376  11.484
41374W        W12990   0.305  26.767   0.486
41375W        W12991  23.716  14.615  13.020
41376W        W12992  14.527  44.448  14.915
41377W        W12993  43.505  38.646   4.678
41378W        W12994  23.819  10.641   2.853
41379W        W12995  17.105   9.885   1.617
41380W        W12996  13.088  33.021   3.227
41381W        W12997  34.435  24.149  10.876
41382W        W12998  27.581  37.893   3.230
41383W        W12999   9.797  15.398   4.777
41384W        W13000  12.316  22.674  10.704
41385W        W13001  19.755   1.571   4.768
41386W        W13002  33.474  42.084   4.575
41387W        W13003  26.747  42.979   4.225
41388W        W13004  11.351  37.339   3.321
41389W        W13005  41.811   7.875  14.359
41390W        W13006   2.061  32.744  11.157
41391W        W13007  32.450  37.445  11.221
41392W        W13008   8.618  15.521  13.513
41393W        W13009  24.106   6.464   0.861
41394W        W13010  13.099  32.575  11.168
41395W        W13011  17.844  27.942  10.627
41396W        W13012  29.006  18.118  13.606
41397W        W13013   8.552  15.670   5.068
41398W        W13014   1.076   6.220   2.115
41399W        W13015  18.251  44.080   5.597
41400W        W13016  30.025  29.898   0.501
41401W        W13017  33.574  35.003  11.953
41402W        W13018  38.367  29.460  11.484
41403W        W13019  39.304  25.263   3.252
41404W        W13020  29.003  28.874  14.095
41405W        W13021   9.135  19.080  12.117
41406W        W13022  21.736  22.781   1.411
41407W        W13023  28.417  23.994   3.948
41408W        W13024  31.095  13.096   4.520
41409W        W13025  10.336   0.311  13.926
41410W        W13026  24.917  24.033   2.852
41411W        W13027  14.336   8.983   4.773
41412W        W13028  10.396  16.179   4.447
41413W        W13029  43.431  42.419   3.084
41414W        W13030  24.227   9.171  13.975
41415W        W13031  30.026  39.965  10.538
41416W        W13032   8.073  11.117   1.384
41417W        W13033   8.426  30.464   0.988
41418W        W13034  15.440  42.082   3.665
41419W        W13035   2.408  27.450   3.264
41420W        W13036  40.278  17.640  12.901
41421W        W13037   7.387   8.349  13.584
41422W        W13038  35.385  14.608  11.545
41423W        W13039  42.296   2.757  12.086
41424W        W13040  39.954  44.972  12.315
41425W        W13041  12.813  31.129   3.225
41426W        W13042  37.220  30.487   0.560
41427W        W13043  21.158  33.258   1.711
41428W        W13044  35.183  11.767   2.581
41429W        W13045   3.594  40.681   0.491
41430W        W13046   8.216  41.320   3.543
41431W        W13047  26.425   9.750   3.893
41432W        W13048  13.339   0.409   4.652
41433W        W13049  23.502  12.128   2.266
41434W        W13050   9.382  31.457  12.873
41435W        W13051  37.925  13.304   2.227
41436W        W13052  12.648   3.373   3.297
41437W        W13053  42.961  39.769   3.268
41438W        W13054   6.926  43.718   4.069
41439W        W13055  13.229  25.786  13.797
41440W        W13056  25.645  10.720   2.626
41441W        W13057  41.800  36.048   1.546
41442W        W13058  31.290  27.052   3.720
41443W        W13059  20.187   8.338  14.312
41444W        W13060  31.185  35.859   3.141
41445W        W13061   0.559  36.698  13.068
41446W        W13062  34.137  34.645  10.765
41447W        W13063  28.935   6.383   1.194
41448W        W13064  31.329  16.237   0.844
41449W        W13065  23.573  12.694  10.629
41450W        W13066   8.302  44.269   3.345
41451W        W13067   9.894  10.070   4.192
41452W        W13068  11.853  23.576   2.753
41453W        W13069   5.226   9.155  13.398
41454W        W13070  27.842  42.388  12.859
41455W        W13071  16.134  19.019  14.258
41456W        W13072  15.615   3.907   3.123
41457W        W13073   8.182   1.773  13.443
41458W        W13074  32.684  37.510   3.817
41459W        W13075   4.432  44.378   1.941
41460W        W13076  36.581  30.052   1.592
41461W        W13077  22.929   6.042  10.699
41462W        W13078  44.378  37.828  12.930
41463W        W13079  40.743  31.492   2.864
41464W        W13080  42.798  39.961  12.948
41465W        W13081   8.990  11.928  11.203
41466W        W13082  28.119  37.025   0.298
41467W        W13083  22.973   4.822  12.896
41468W        W13084   1.575  41.929   3.582
41469W        W13085  43.460   5.783  12.437
41470W        W13086  27.432   2.035   0.900
41471W        W13087  22.845   1.752  11.144
41472W        W13088   9.937   1.860  10.679
41473W        W13089  40.574  38.801   4.245
41474W        W13090  42.214  38.557   3.796
41475W        W13091  43.609  38.355  14.837
41476W        W13092   8.142   6.992  13.383
41477W        W13093  40.968  18.887  11.204
41478W        W13094   1.952   4.741  14.929
41479W        W13095  18.723  26.245  13.762
41480W        W13096  24.005   1.441  11.048
41481W        W13097  15.219  40.088   0.398
41482W        W13098  39.939  16.567  12.170
41483W        W13099  38.776   2.609  14.824
41484W        W13100  21.202  20.631   1.723
41485W        W13101   6.222  11.522   3.113
41486W        W13102   0.998  10.669  10.969
41487W        W13103  26.648  31.233   3.770
41488W        W13104   3.383   6.352   3.631
41489W        W13105   2.199  18.464  12.860
41490W        W13106  28.256  24.861  14.447
41491W        W13107  20.112  26.399  12.517
41492W        W13108  37.554  25.050  11.082
41493W        W13109   1.933  29.601   4.562
41494W        W13110   3.980  17.892   3.869
41495W        W13111  36.053  30.438  14.813
41496W        W13112  18.107  36.465  12.695
41497W        W13113  36.353  29.145  10.392
41498W        W13114  13.531  26.960  13.224
41499W        W13115   7.935  12.190   4.776
41500W        W13116  33.854  39.566   2.229
41501W        W13117  18.658  21.630  11.165
41502W        W13118   8.775  24.018   0.624
41503W        W13119  27.208  38.061  12.597
41504W        W13120   4.805   5.774   1.819
41505W        W13121  38.090  22.704  10.901
41506W        W13122  29.207  41.805   3.691
41507W        W13123  17.320  36.840  13.076
41508W        W13124   4.768  12.644   2.107
41509W        W13125   0.299  39.866   4.117
41510W        W13126   8.272  22.824  13.026
41511W        W13127  29.957   5.804  11.228
41512W        W13128  28.364  13.841  14.496
41513W        W13129  27.689  17.536   0.715
41514W        W13130  29.826  15.305  10.480
41515W        W13131  20.313  35.893   1.925
41516W        W13132  22.685  20.044   1.936
41517W        W13133  35.027  17.323  14.960
41518W        W13134  41.320  25.243   0.750
41519W        W13135  17.797   0.711  12.549
41520W        W13136  23.573   6.905  11.798
41521W        W13137  27.155   3.425   2.795
41522W        W13138  33.222  38.340   1.509
41523W        W13139  17.697  19.045   0.951
41524W        W13140  43.534  38.549  11.992
41525W        W13141   9.837  14.613   1.420
41526W        W13142  26.040  24.059  14.839
41527W        W13143  29.817  12.313  14.437
41528W        W13144   4.822   2.584   3.994
41529W        W13145  12.054  17.257   2.894
41530W        W13146  14.811   8.374  14.980
41531W        W13147  44.003  41.798   0.266
41532W        W13148  28.119   6.730   4.127
41533W        W13149   1.854  11.499  13.298
41534W        W13150  19.343  41.784   1.809
41535W        W13151  41.942  10.884  11.001
41536W        W13152   0.849  36.882  11.813
41537W        W13153  43.083  38.376  13.990
41538W        W13154  34.410   0.966  10.699
41539W        W13155  10.261  37.492   0.962
41540W        W13156   4.943   8.420   3.222
41541W        W13157  29.861  12.734   1.804
41542W        W13158  32.590   5.341  11.204
41543W        W13159   3.315  25.044  14.041
41544W        W13160   2.294  13.961   3.781
41545W        W13161  44.329  10.351   0.803
41546W        W13162   8.185  38.970   1.784
41547W        W13163  44.820   7.619  13.538
41548W        W13164  20.203  20.530   4.771
41549W        W13165  26.228   4.302   0.406
41550W        W13166  31.476   3.738   0.210
41551W        W13167  44.301  30.986  14.476
41552W        W13168  38.293  21.893   3.860
41553W        W13169  25.195  39.628   1.884
41554W        W13170   9.555  17.724  12.593
41555W        W13171  31.944   4.863  14.714
41556W        W13172   4.733   6.517   3.558
41557W        W13173   8.308  27.114  14.786
41558W        W13174   7.295  28.960   2.258
41559W        W13175  33.866   9.233  14.968
41560W        W13176  35.061  36.143  14.311
41561W        W13177  15.702  37.078  10.941
41562W        W13178  26.948   9.702  13.022
41563W        W13179  28.553  35.935  13.716
41564W        W13180   3.210  15.744  11.567
41565W        W13181  39.579  34.432   3.348
41566W        W13182  31.568  18.464  11.227
41567W        W13183  25.695  36.815  11.117
41568W        W13184  29.873  22.541  10.414
41569W        W13185   8.469  39.290  12.227
41570W        W13186  37.924  13.838   2.952
41571W        W13187  27.101  31.980  10.981
41572W        W13188  37.505  15.641   2.440
41573W        W13189  39.598   6.911  12.802
41574W        W13190  40.981   2.266  13.582
41575W        W13191   5.363   4.480  12.106
41576W        W13192  35.321  28.056   4.271
41577W        W13193   0.152  20.354   0.977
41578W        W13194  27.389  20.339   1.369
41579W        W13195  11.391  21.272  14.580
41580W        W13196  12.836  43.870   4.120
41581W        W13197  40.042  34.389   3.119
41582W        W13198  12.309  32.441   2.318
41583W        W13199   4.766  23.056   1.789
41584W        W13200   3.936   5.025  13.452
41585W        W13201  12.749   6.963  14.236
41586W        W13202   2.195  23.479   3.236
41587W        W13203  41.059  41.071  11.603
41588W        W13204  33.043   1.718  13.451
41589W        W13205  32.902  42.633  11.468
41590W        W13206  39.472  29.991  13.337
41591W        W13207   0.655  35.333  12.216
41592W        W13208  27.974  10.259   2.693
41593W        W13209   5.823  36.898  10.760
41594W        W13210  25.248  36.431   2.286
41595W        W13211  14.840  33.015   3.563
41596W        W13212  35.731  35.624  11.187
41597W        W13213  42.713   3.843   4.351
41598W        W13214  40.760  12.829  14.240
41599W        W13215   3.357  17.594  14.561
41600W        W13216   9.247  36.460   0.235
41601W        W13217  38.255  22.107  14.869
41602W        W13218  29.606  13.924   0.403
41603W        W13219  42.286  19.517   0.260
41604W        W13220  40.541   5.256   4.508
41605W        W13221  21.318   9.617  14.005
41606W        W13222  29.692  38.676   0.425
41607W        W13223  25.287  10.407   4.473
41608W        W13224  16.112  30.469  12.493
41609W        W13225  10.750   5.793  12.311
41610W        W13226  22.399  19.873   1.542
41611W        W13227  30.129   4.495  12.528
41612W        W13228  16.061  43.237   1.434
41613W        W13229  15.094  12.175  13.729
41614W        W13230  28.138  26.535   3.263
41615W        W13231  38.438  19.003   1.952
41616W        W13232  17.576   3.096  14.494
41617W        W13233  19.302  26.464  14.766
41618W        W13234   3.721  38.235  11.071
41619W        W13235   8.295  22.540   2.056
41620W        W13236  33.824   5.377   4.528
41621W        W13237   4.423  22.351  14.970
41622W        W13238  33.940  16.310  10.503
41623W        W13239  44.946  24.135  13.774
41624W        W13240  29.565  34.816   3.332
41625W        W13241  12.529  29.136   0.119
41626W        W13242   8.408  15.117  14.409
41627W        W13243  38.972  24.527   3.722
41628W        W13244  18.740  32.985   2.813
41629W        W13245  15.032  11.798   2.336
41630W        W13246  12.548  21.954  11.093
41631W        W13247  20.845  24.615  13.817
41632W        W13248  19.989   0.837  14.792
41633W        W13249  37.159  26.488  11.959
41634W        W13250  19.879   8.190   4.661
41635W        W13251  33.015   0.783  10.455
41636W        W13252  13.836   2.042  12.454
41637W        W13253  43.835  27.936  12.178
41638W        W13254  13.397   3.442   2.750
41639W        W13255   7.382  26.015  13.317
41640W        W13256  17.620  11.150  13.726
41641W        W13257   5.874  43.824   3.161
41642W        W13258  33.659  27.896  12.439
41643W        W13259  12.071  42.378  13.534
41644W        W13260   9.065  17.996  13.916
41645W        W13261   2.955  17.563  12.392
41646W        W13262  13.798  35.452   3.867
41647W        W13263   1.361  40.795  14.902
41648W        W13264   7.836  43.986  14.249
41649W        W13265  30.203  40.832  14.463
41650W        W13266  37.037  44.770  13.934
41651W        W13267  40.870  27.031  11.359
41652W        W13268  40.400  20.794  13.886
41653W        W13269  13.141  31.544  13.466
41654W        W13270  12.212  42.407   1.352
41655W        W13271  13.592  37.748  12.084
41656W        W13272   6.217  30.648  14.217
41657W        W13273  30.132   2.833   4.164
41658W        W13274  18.750  32.996   0.881
41659W        W13275  43.704  29.415  13.394
41660W        W13276  37.478  18.228   4.773
41661W        W13277  43.033  25.582  11.331
41662W        W13278  26.620  37.241  11.153
41663W        W13279  39.410  34.993  11.686
41664W        W13280  20.442  23.120   4.324
41665W        W13281  20.073  21.361  12.471
41666W        W13282   6.020  17.840  11.165
41667W        W13283  38.304  25.960   1.678
41668W        W13284   3.000   3.007   2.802
41669W        W13285  17.685  10.821  13.324
41670W        W13286   7.002   3.870   1.483
41671W        W13287  24.137   2.695   3.137
41672W        W13288  34.541  21.347   4.055
41673W        W13289  21.588  33.986  14.910
41674W        W13290  21.702  10.743   3.641
41675W        W13291  25.075  43.216   2.405
41676W        W13292  26.928  28.554  14.757
41677W        W13293  16.198  12.143  10.485
41678W        W13294  32.915  31.689  12.185
41679W        W13295  10.712   5.906   0.178
41680W        W13296   2.858  23.217  14.878
41681W        W13297  41.317  11.687  11.955
41682W        W13298  18.991   1.358   1.395
41683W        W13299  17.516  36.501   0.869
41684W        W13300  44.571   3.738  11.614
41685W        W13301  13.164  17.618   4.796
41686W        W13302  30.186  32.839   1.512
41687W        W13303  37.094   4.928   3.709
41688W        W13304  30.721  40.686  14.310
41689W        W13305  19.159   9.806  12.661
41690W        W13306  32.199  26.676  13.308
41691W        W13307  28.658  12.276  12.081
41692W        W13308   6.065  22.627   0.934
41693W        W13309  16.822  15.652   1.040
41694W        W13310  32.666  14.708  14.861
41695W        W13311  42.507  12.411   0.882
41696W        W13312   9.290  31.877   0.476
41697W        W13313  40.335  12.157   0.460
41698W        W13314  24.536   8.334  10.576
41699W        W13315  19.794   4.328   2.900
41700W        W13316   6.326   7.337   0.411
41701W        W13317  28.640  37.313  12.459
41702W        W13318  20.533  30.130   2.765
41703W        W13319  43.051   1.234   0.681
41704W        W13320  15.206  32.601  14.200
41705W        W13321   6.919  41.954   0.749
41706W        W13322  22.486  10.604   1.266
41707W        W13323  29.592  10.484  14.490
41708W        W13324  14.335  30.165   4.503
41709W        W13325   4.381  14.113   4.517
41710W        W13326  13.635  14.833   2.671
41711W        W13327  23.685   0.800   4.851
41712W        W13328  25.981  14.725  14.429
41713W        W13329   2.930  42.675   4.307
41714W        W13330  28.398  20.274   4.590
41715W        W13331  29.691  39.839  13.939
41716W        W13332  39.390  40.488   1.668
41717W        W13333  26.079  31.956  12.396
41718W        W13334  24.483   4.939   2.643
41719W        W13335  28.033  39.572   2.598
41720W        W13336   0.831  40.173   5.318
41721W        W13337  15.422  21.790   2.316
41722W        W13338   9.576  21.422  12.962
41723W        W13339  30.339  35.397  14.103
41724W        W13340  20.145  31.991  11.169
41725W        W13341  15.823  11.911   4.529
41726W        W13342  22.134  14.402  13.191
41727W        W13343  27.180  35.291   1.398
41728W        W13344  43.944  39.779   3.728
41729W        W13345  28.973  26.498   2.675
41730W        W13346  13.283  13.797   4.623
41731W        W13347   6.158   9.273   3.514
41732W        W13348  15.766  27.639  10.661
41733W        W13349   7.373   2.905   2.371
41734W        W13350  18.211  43.476  12.611
41735W        W13351  37.327  11.413   3.054
41736W        W13352  33.288   0.773   0.071
41737W        W13353  22.202   6.744  12.306
41738W        W13354  23.246  43.521  12.413
41739W        W13355  17.496  12.255  13.071
41740W        W13356  32.169  23.622  13.337
41741W        W13357  23.942  38.989   0.194
41742W        W13358   1.452  27.903  11.088
41743W        W13359  20.138  18.200  11.688
41744W        W13360  40.914  21.559   0.958
41745W        W13361  31.567   0.170   4.080
41746W        W13362  26.050  18.626   2.833
41747W        W13363  18.656  32.931   4.921
41748W        W13364  34.939  38.939  10.464
41749W        W13365   7.722  30.533   2.196
41750W        W13366   6.420  24.542   4.553
41751W        W13367  29.106  42.729  14.875
41752W        W13368   0.742  12.654   4.118
41753W        W13369  32.657  29.931  14.933
41754W        W13370  15.718  24.557   3.157
41755W        W13371  11.993  35.059   2.639
41756W        W13372  11.123  13.841   2.311
41757W        W13373  41.739  26.137   2.487
41758W        W13374  36.503  20.071  11.920
41759W        W13375  13.701   7.762   4.684
41760W        W13376  24.775  35.303   2.801
41761W        W13377  15.417   0.631  14.567
41762W        W13378  14.603   0.024   2.318
41763W        W13379  23.933   9.852  13.396
41764W        W13380  29.609  37.170   2.342
41765W        W13381  15.104  25.413   1.685
41766W        W13382  28.002  15.745  14.474
41767W        W13383   5.475  22.678  12.785
41768W        W13384  23.800  14.986  14.795
41769W        W13385  39.832  11.328   1.620
41770W        W13386  14.027  13.564   0.813
41771W        W13387  33.603  30.611  13.877
41772W        W13388  23.067  43.705  14.461
41773W        W13389  41.091   5.749   2.345
41774W        W13390  16.110  25.160  14.529
41775W        W13391   0.249  11.498  13.890
41776W        W13392  15.493  21.608  13.423
41777W        W13393  37.896  31.213   1.436
41778W        W13394  43.364  42.463   3.607
41779W        W13395  26.493  11.555  11.927
41780W        W13396  13.702  41.294   0.238
41781W        W13397  38.633  15.199   4.029
41782W        W13398   1.157  24.143  14.407
41783W        W13399   0.398   7.137   0.030
41784W        W13400  26.011   7.339  14.857
41785W        W13401  27.971  29.050  14.089
41786W        W13402  10.762  33.918   4.538
41787W        W13403  28.836  20.229   1.290
41788W        W13404  37.043  20.778  14.856
41789W        W13405  30.040  25.666   2.406
41790W        W13406   6.343   7.783   4.830
41791W        W13407   9.563  43.974   0.970
41792W        W13408   1.118  23.490  10.706
41793W        W13409  28.876  19.057  10.891
41794W        W13410  36.370  12.837   3.368
41795W        W13411  23.566  43.532   0.305
41796W        W13412  26.985  26.859   4.077
41797W        W13413  12.090  29.895   0.412
41798W        W13414  31.908  17.172   0.803
41799W        W13415  18.122  32.189   1.717
41800W        W13416  38.297  12.215   0.026
41801W        W13417  31.659  16.613  14.515
41802W        W13418  18.334  31.509   3.637
41803W        W13419   3.765  37.352  12.184
41804W        W13420  31.562  31.080  10.272
41805W        W13421  33.522  26.730   3.558
41806W        W13422  24.086  38.325   0.979
41807W        W13423  16.529  15.740  12.446
41808W        W13424  16.644   5.437  12.083
41809W        W13425  20.124  16.389  10.898
41810W        W13426  40.419  26.070  13.067
41811W        W13427  19.741  12.385   1.367
41812W        W13428  29.119  14.064   4.473
41813W        W13429   6.147  44.739  12.428
41814W        W13430   5.319  31.941   0.763
41815W        W13431   0.955  44.439   1.833
41816W        W13432  37.027  15.626  13.000
41817W        W13433  38.662  27.429  14.406
41818W        W13434  16.204  34.881   3.863
41819W        W13435  22.443   3.719   1.475
41820W        W13436  43.450   8.933  13.407
41821W        W13437  44.215  37.069   3.307
41822W        W13438  17.754   6.680   2.691
41823W        W13439  16.604   3.119   3.878
41824W        W13440   2.388  23.312   4.118
41825W        W13441  25.713  15.136   1.712
41826W        W13442  24.660  24.783   3.246
41827W        W13443  34.184  26.722   4.118
41828W        W13444  29.454  31.038   2.528
41829W        W13445   9.873  40.141   2.889
41830W        W13446  13.675  20.639  11.617
41831W        W13447   9.721  21.279   0.217
41832W        W13448  35.665  12.224   4.250
41833W        W13449  30.696   3.616   3.675
41834W        W13450  23.728  24.217   0.900
41835W        W13451  22.488  15.528   5.374
41836W        W13452   2.845  40.941  11.213
41837W        W13453  25.966  17.908   4.408
41838W        W13454   2.405  34.968   2.719
41839W        W13455  25.672   9.536   4.698
41840W        W13456   0.590  39.364   2.510
41841W        W13457  38.462  22.087   4.836
41842W        W13458  26.482  33.894  12.430
41843W        W13459  43.197  32.641   2.407
41844W        W13460   5.397  40.106  13.391
41845W        W13461  26.927   7.665  11.104
41846W        W13462  13.163  10.900   2.765
41847W        W13463  13.758   5.803   3.181
41848W        W13464  39.481  21.823   3.265
41849W        W13465  29.715  42.937   2.273
41850W        W13466  15.288  37.116  13.104
41851W        W13467  20.515  17.197   2.438
41852W        W13468  36.538  10.144   0.409
41853W        W13469  38.677  33.208   0.604
41854W        W13470  16.694  24.053   3.708
41855W        W13471   9.341  26.639  13.787
41856W        W13472  43.488  32.169   1.225
41857W        W13473  11.347  22.151  14.031
41858W        W13474  31.817  40.161   5.002
41859W        W13475  18.001   4.441  11.929
41860W        W13476  33.373  34.916  12.466
41861W        W13477  10.173  19.663   4.214
41862W        W13478  40.242  12.478   4.885
41863W        W13479   2.463  32.547  10.925
41864W        W13480  15.158  16.862   2.219
41865W        W13481  28.538  40.379   1.018
41866W        W13482  27.540   4.457   3.175
41867W        W13483  27.094  44.321   2.196
41868W        W13484  28.699   4.793  11.387
41869W        W13485  31.536  40.075   3.244
41870W        W13486   9.347   2.029  13.954
41871W        W13487  29.036  28.181   3.086
41872W        W13488  33.222  26.571  14.376
41873W        W13489   4.784  34.967  10.725
41874W        W13490  39.465  21.285  11.285
41875W        W13491  12.497   3.794  10.937
41876W        W13492  35.449  25.970  13.836
41877W        W13493  39.061  10.232   4.307
41878W        W13494  35.621  19.000  13.327
41879W        W13495   8.647   5.851   1.461
41880W        W13496  13.709  30.985  11.877
41881W        W13497  13.401  41.596  11.936
41882W        W13498   7.295   4.630  14.985
41883W        W13499   0.984  35.060  13.862
41884W        W13500  14.252  27.140   3.658
41885W        W13501  21.368  35.545  12.016
41886W        W13502  28.866   8.126   0.310
41887W        W13503  25.268   9.807   0.785
41888W        W13504  30.372   1.812   1.714
41889W        W13505   5.809  24.366   2.269
41890W        W13506  43.808   0.699   2.193
41891W        W13507  10.262  29.654   3.202
41892W        W13508  29.594  38.451   4.603
41893W        W13509  25.405  25.176  12.589
41894W        W13510  11.060  23.735   1.262
41895W        W13511  12.590   3.952  12.427
41896W        W13512  13.372  43.504  12.953
41897W        W13513   5.251  37.685   1.216
41898W        W13514  33.956  27.909  10.699
41899W        W13515  39.018   7.930   1.306
41900W        W13516  25.613  18.735   0.560
41901W        W13517  13.827  20.769   0.853
41902W        W13518  20.770   0.116   2.361
41903W        W13519  16.258  44.743   4.760
41904W        W13520  15.640  19.782  14.283
41905W        W13521  10.389  19.844   1.859
41906W        W13522  36.408  11.604  10.679
41907W        W13523  42.914  35.896   1.307
41908W        W13524  34.817  20.612  14.466
41909W        W13525   1.928  11.274  13.749
41910W        W13526  31.311  41.924   1.315
41911W        W13527  37.934  25.516  14.454
41912W        W13528   3.750   5.622   2.022
41913W        W13529  37.337   6.367  11.657
41914W        W13530  17.062   9.814   3.677
41915W        W13531  16.332  35.833   1.914
41916W        W13532   9.200   7.494   0.310
41917W        W13533  32.655  37.397   4.547
41918W        W13534  40.045  17.814  13.333
41919W        W13535  38.080  19.703   2.480
41920W        W13536   5.810  43.029  14.790
41921W        W13537  43.173  10.950   3.296
41922W        W13538  15.807   4.049   4.816
41923W        W13539  41.826   5.200  10.690
41924W        W13540  18.053  31.142  11.618
41925W        W13541  40.498  32.683   1.749
41926W        W13542  10.786  20.701   4.690
41927W        W13543  36.917  17.162  11.059
41928W        W13544  18.520  35.550  12.356
41929W        W13545  39.873  19.563  11.402
41930W        W13546  44.385  13.636  13.411
41931W        W13547   7.835  27.920  11.204
41932W        W13548  18.257  29.680   4.100
41933W        W13549   9.258  41.811   3.262
41934W        W13550  18.596  10.633   3.201
41935W        W13551   8.435  43.398   3.693
41936W        W13552  36.298  40.009   0.407
41937W        W13553  14.893  11.864   9.855
41938W        W13554   9.896   0.953   3.611
41939W        W13555   2.240  41.871  12.144
41940W        W13556  41.587   5.045   2.918
41941W        W13557  14.120   1.544  13.923
41942W        W13558  39.835  30.025  11.978
41943W        W13559  15.794  17.174  14.286
41944W        W13560   5.563  26.013  11.989
41945W        W13561  29.992  43.490   2.064
41946W        W13562   1.946  10.409  13.523
41947W        W13563  18.344  38.505   2.864
41948W        W13564  35.129   2.798  12.803
41949W        W13565  39.335  32.368   1.795
41950W        W13566   2.258  37.537   3.891
41951W        W13567  29.290  22.118  13.687
41952W        W13568  41.376  11.111  12.594
41953W        W13569  33.386  13.676  13.916
41954W        W13570  28.523  21.438   3.608
41955W        W13571  22.196  43.355   5.023
41956W        W13572   5.068  26.962   3.320
41957W        W13573  18.793  19.333  12.529
41958W        W13574  37.828  16.148  13.847
41959W        W13575  22.376  31.415   4.868
41960W        W13576  36.921  11.516   9.903
41961W        W13577  18.156  20.240  11.736
41962W        W13578   8.026  20.115   4.022
41963W        W13579  26.234  25.311  11.928
41964W        W13580  41.024  22.930   1.374
41965W        W13581   4.775  35.873  11.995
41966W        W13582  19.097  21.634  11.456
41967W        W13583  14.628  31.501   2.751
41968W        W13584  32.037  33.920  14.897
41969W        W13585   0.490   4.757   4.106
41970W        W13586  25.703   3.959   0.831
41971W        W13587  42.279  34.343  12.877
41972W        W13588  15.528  33.009  12.526
41973W        W13589  29.106  30.601  14.834
41974W        W13590   5.826  37.064   3.585
41975W        W13591  39.361  29.728  12.897
41976W        W13592  12.807  18.755  10.720
41977W        W13593  19.610  43.783   5.517
41978W        W13594  19.704  15.364  10.168
41979W        W13595  10.627   3.465  10.379
41980W        W13596  34.917  22.621  10.732
41981W        W13597  30.220  37.071  14.330
41982W        W13598  34.832  17.628   2.727
41983W        W13599  18.114  34.888  11.100
41984W        W13600   7.239  17.268  14.986
41985W        W13601  13.079  26.630   2.897
41986W        W13602  41.278  27.661  10.820
41987W        W13603  24.546   7.109  11.176
41988W        W13604  30.196  17.692   3.360
41989W        W13605   9.466  43.785  10.888
41990W        W13606  43.956  33.553   4.155
41991W        W13607  43.269  14.290  12.140
41992W        W13608   1.252  22.177   1.804
41993W        W13609  38.612   4.750  12.549
41994W        W13610   0.924   3.431   0.857
41995W        W13611  42.700   2.952   2.808
41996W        W13612  38.620  43.384  13.906
41997W        W13613   6.639  30.008  12.984
41998W        W13614  39.471   4.195   3.843
41999W        W13615  33.983   0.810  12.825
42000W        W13616   5.737  27.456   3.099
42001W        W13617   1.778  17.511  13.757
42002W        W13618   5.216  23.117  10.548
42003W        W13619   4.441  18.154   3.878
42004W        W13620  17.079  43.881  14.273
42005W        W13621  39.136  36.562  12.917
42006W        W13622  19.623  17.763  12.004
42007W        W13623  26.968   4.980  12.954
42008W        W13624   2.247  12.729  11.576
42009W        W13625  44.853  31.200   3.693
42010W        W13626  19.034  15.126   4.185
42011W        W13627   0.941  25.427   1.298
42012W        W13628  15.367  22.548  11.106
42013W        W13629  19.688  38.634  14.429
42014W        W13630   4.396   0.966  10.032
42015W        W13631  40.299   5.342   0.424
42016W        W13632  13.041  36.905   4.155
42017W        W13633   6.198  21.146  14.758
42018W        W13634  19.792  18.745   4.128
42019W        W13635  11.896  22.625   2.750
42020W        W13636  39.184  16.540   0.562
42021W        W13637  28.892  29.119   0.346
42022W        W13638   9.191  11.662  14.908
42023W        W13639  21.303  32.414  10.471
42024W        W13640  35.084   0.760   1.166
42025W        W13641  24.988  18.990  14.270
42026W        W13642  26.219   6.998   4.464
42027W        W13643  16.341  15.716   4.666
42028W        W13644  16.340  37.505  12.494
42029W        W13645  35.927  24.761   0.344
42030W        W13646  22.574  41.286  13.793
42031W        W13647  30.806  32.685  13.657
42032W        W13648  10.742   9.154   3.741
42033W        W13649  13.596  17.790   0.841
42034W        W13650  29.652  18.638   4.117
42035W        W13651  35.344   2.993   2.465
42036W        W13652   1.980  31.839  12.482
42037W        W13653  22.514  12.873   3.618
42038W        W13654  44.364  40.152  11.575
42039W        W13655   2.351  14.048  13.633
42040W        W13656   2.402   0.136   2.214
42041W        W13657  23.197  32.058   1.282
42042W        W13658  27.361  21.867   1.260
42043W        W13659  26.455  43.192   0.381
42044W        W13660  14.681  20.892   3.725
42045W        W13661  36.358  32.098   4.156
42046W        W13662  31.148  17.688  11.047
42047W        W13663  38.418  23.668  12.442
42048W        W13664  22.975   5.719  11.579
42049W        W13665  11.123  26.165  13.915
42050W        W13666  28.849  19.239   2.786
42051W        W13667  10.084  19.733  10.237
42052W        W13668  17.107  31.482  14.866
42053W        W13669   7.234  19.990   1.702
42054W        W13670  44.002  20.460  14.995
42055W        W13671  23.727  24.445   4.317
42056W        W13672   7.686  38.003  14.017
42057W        W13673  36.098  37.602   0.420
42058W        W13674  12.099  22.547   0.342
42059W        W13675  31.002  25.660  12.285
42060W        W13676  15.866  22.557   4.247
42061W        W13677   2.372  40.921   0.873
42062W        W13678  39.905  18.397   2.718
42063W        W13679  19.251  29.464  11.721
42064W        W13680  40.543  31.564  10.616
42065W        W13681  37.966  10.447   2.785
42066W        W13682  24.098   5.478  14.270
42067W        W13683  14.720   6.402   3.897
42068W        W13684   1.258  43.342  12.986
42069W        W13685  43.828  25.005   0.328
42070W        W13686  15.678  22.342  10.762
42071W        W13687  22.375  40.964   0.008
42072W        W13688   3.412  31.332   1.149
42073W        W13689   9.319  38.136   3.744
42074W        W13690  35.590   2.649   4.848
42075W        W13691   7.190  44.817   0.336
42076W        W13692  24.951  22.253   4.423
42077W        W13693  10.340  18.338  14.398
42078W        W13694  39.769   6.456   1.453
42079W        W13695  25.246  18.127  13.888
42080W        W13696   7.204  44.517  14.730
42081W        W13697  16.500  23.008   0.144
42082W        W13698   5.528  11.123   2.236
42083W        W13699  25.452  41.068  12.993
42084W        W13700  11.005  35.671  11.990
42085W        W13701  18.072  43.001  10.376
42086W        W13702  13.346  12.682  10.667
42087W        W13703  24.989   8.660   0.456
42088W        W13704  12.259  28.553  13.298
42089W        W13705  10.602  10.913  13.443
42090W        W13706  23.700  27.602   0.983
42091W        W13707  19.765  39.912  10.429
42092W        W13708  43.965  30.325   3.865
42093W        W13709  11.783   4.044  12.028
42094W        W13710  43.430   4.267   4.596
42095W        W13711   3.734  37.022  10.708
42096W        W13712  31.543  31.516   1.678
42097W        W13713  11.533  18.344  13.061
42098W        W13714  17.220  40.011   3.581
42099W        W13715  37.917  31.415   1.943
42100W        W13716   2.324  15.692   1.495
42101W        W13717  33.694  31.514  13.021
42102W        W13718   9.360  31.059   1.827
42103W        W13719  34.920  18.857   3.629
42104W        W13720  42.762   1.707  13.353
42105W        W13721  37.462  34.835   1.461
42106W        W13722  31.211  32.453   4.678
42107W        W13723  21.667  18.343   1.397
42108W        W13724   8.173  12.475   4.174
42109W        W13725  15.637  12.443  14.830
42110W        W13726   7.801  24.582  12.532
42111W        W13727  28.500   8.187   3.306
42112W        W13728   2.707  21.508  12.062
42113W        W13729  20.759  29.821  12.497
42114W        W13730  11.430   6.893  14.830
42115W        W13731  21.274  19.721  11.108
42116W        W13732  43.000  10.577  14.341
42117W        W13733  28.068   5.826  12.935
42118W        W13734  12.336  37.079  10.527
42119W        W13735  19.605  28.886   1.008
42120W        W13736   2.858  20.145  12.479
42121W        W13737  41.366  35.077  12.363
42122W        W13738  20.505   1.872   3.642
42123W        W13739  37.828  31.052   2.878
42124W        W13740  24.797  29.006   4.505
42125W        W13741  38.073  31.852  12.369
42126W        W13742  36.600  36.423   4.641
42127W        W13743  44.977  16.435   2.521
42128W        W13744  13.822  27.425   0.310
42129W        W13745  44.514  36.999  10.616
42130W        W13746   3.491  16.457   1.516
42131W        W13747  28.220  34.345   4.023
42132W        W13748  12.870   9.962   3.630
42133W        W13749  14.809  43.470  10.613
42134W        W13750  32.182  33.026   1.353
42135W        W13751  27.939  34.677   2.265
42136W        W13752  13.159  36.036   4.197
42137W        W13753  18.737  37.591  14.364
42138W        W13754  37.625  39.836   3.623
42139W        W13755  35.798   9.820   3.652
42140W        W13756  36.470   5.226   1.772
42141W        W13757   8.128  30.369  11.404
42142W        W13758  16.652   5.256  13.616
42143W        W13759   2.453   7.889  10.721
42144W        W13760  31.676   6.391   0.484
42145W        W13761  33.196   9.242  13.770
42146W        W13762  21.414   1.299   2.474
42147W        W13763  20.056   2.201   4.225
42148W        W13764  30.539  37.493   0.932
42149W        W13765  14.607   5.345   4.830
42150W        W13766  36.548   7.891   2.431
42151W        W13767  20.605  31.037   0.955
42152W        W13768  32.383  29.462  14.940
42153W        W13769   7.913  36.738  11.120
42154W        W13770   4.921  32.833   4.024
42155W        W13771  17.140  12.981  14.416
42156W        W13772   4.350   8.371  14.783
42157W        W13773  15.246  23.511  13.395
42158W        W13774  13.849   0.764  13.005
42159W        W13775  24.948  17.062  10.575
42160W        W13776   6.194  43.740  11.497
42161W        W13777  27.924  39.838   2.128
42162W        W13778  10.272   2.234  14.986
42163W        W13779  36.905  39.534  14.522
42164W        W13780   1.782  23.559   4.260
42165W        W13781  39.096  25.254   0.249
42166W        W13782  14.142   1.858  14.340
42167W        W13783  19.751   6.154   4.678
42168W        W13784   7.830  43.880   2.184
42169W        W13785  17.591  25.462  14.730
42170W        W13786  15.047  25.646  13.846
42171W        W13787   6.314  18.499  13.758
42172W        W13788  10.730  44.181   4.542
42173W        W13789   8.471  25.631  14.190
42174W        W13790  35.079   2.876   0.229
42175W        W13791  21.907  33.668   4.600
42176W        W13792  26.631   9.402   1.215
42177W        W13793  26.627  18.709   0.842
42178W        W13794  40.540  38.818   1.183
42179W        W13795  12.843  17.211  14.297
42180W        W13796  43.912  44.304   4.597
42181W        W13797  25.361  13.658  13.896
42182W        W13798  15.060  32.682   1.911
42183W        W13799   1.460   5.556   3.878
42184W        W13800  12.360  40.813  12.076
42185W        W13801  17.530  33.505   2.731
42186W        W13802  42.443  28.263  13.263
42187W        W13803  40.131  32.779  12.259
42188W        W13804   6.692  36.067   2.882
42189W        W13805  30.860  28.361   3.655
42190W        W13806  17.103  16.772   1.272
42191W        W13807  36.347  26.769  11.515
42192W        W13808  10.702  22.883   1.274
42193W        W13809  39.201  25.515  13.953
42194W        W13810  19.065  19.772  12.828
42195W        W13811  43.716  21.276  11.054
42196W        W13812  21.320   9.629   3.447
42197W        W13813   7.285  44.433  13.812
42198W        W13814   6.268  25.755  13.842
42199W        W13815   0.624  29.692  14.789
42200W        W13816  12.061  32.879   1.377
42201W        W13817  17.766   7.469   2.211
42202W        W13818  26.611  37.264  12.201
42203W        W13819  29.976  14.217  10.466
42204W        W13820  16.803  37.858   2.713
42205W        W13821  21.188  38.796  10.551
42206W        W13822  37.830   2.460   4.821
42207W        W13823  21.268  25.576  14.056
42208W        W13824  32.459   1.969   4.056
42209W        W13825   1.079  14.406  13.969
42210W        W13826  40.174  24.577  13.448
42211W        W13827  24.170  22.234  12.456
42212W        W13828  21.656  32.633  11.536
42213W        W13829  33.617  32.222   4.593
42214W        W13830  42.845   1.131  12.459
42215W        W13831  16.288  36.848  11.687
42216W        W13832   5.132  34.891  14.104
42217W        W13833  26.234  36.810   0.302
42218W        W13834  43.967  18.840   4.837
42219W        W13835  22.532   6.145   0.993
42220W        W13836   1.842  11.348  11.594
42221W        W13837   6.212  28.389   2.468
42222W        W13838  19.511  34.932   3.094
42223W        W13839  44.234  43.441   1.897
42224W        W13840  12.675   6.509   0.001
42225W        W13841  39.450   6.119  13.780
42226W        W13842  30.426  24.580   3.205
42227W        W13843  25.709   0.160   0.752
42228W        W13844   9.851  33.465  14.886
42229W        W13845  23.105  41.571   2.599
42230W        W13846  18.772  33.376   4.117
42231W        W13847   5.773   7.167   3.949
42232W        W13848  42.692  41.279  12.362
42233W        W13849  35.991  35.111   0.260
42234W        W13850  22.742  22.473  11.523
42235W        W13851  41.011  28.006   4.166
42236W        W13852  33.867   7.760   0.958
42237W        W13853  20.133  43.712  14.916
42238W        W13854  10.407  21.408  14.476
42239W        W13855   4.261  10.329  14.757
42240W        W13856  12.857  34.335   0.707
42241W        W13857  43.345  14.867   0.304
42242W        W13858  31.302  21.087   3.580
42243W        W13859  22.293  26.441   1.773
42244W        W13860  37.131  12.907   1.815
42245W        W13861  34.420  27.510   4.808
42246W        W13862  16.332  41.996  11.294
42247W        W13863   6.242  18.000  13.869
42248W        W13864  10.392  44.245  13.897
42249W        W13865   6.670  17.853   0.360
42250W        W13866  27.780  13.105   5.408
42251W        W13867  22.607  23.529  13.783
42252W        W13868  44.689  17.724  13.107
42253W        W13869  36.439  23.623   3.088
42254W        W13870  34.293  40.988  10.580
42255W        W13871  14.076  25.574   0.566
42256W        W13872  39.777   7.314   0.876
42257W        W13873  15.526  41.398   4.214
42258W        W13874  22.958   2.846  12.079
42259W        W13875  32.005  11.795   1.708
42260W        W13876  37.401  44.360   3.337
42261W        W13877   3.396  23.875  10.438
42262W        W13878  39.772  18.282  11.996
42263W        W13879  28.977  38.711  13.385
42264W        W13880  37.842  36.087  13.350
42265W        W13881   3.539  34.851   1.349
42266W        W13882  16.267   7.380   0.791
42267W        W13883  14.849  19.138  12.958
42268W        W13884  29.464   3.690   3.298
42269W        W13885  11.601  19.931   4.343
42270W        W13886   8.802   1.202   0.876
42271W        W13887  22.842   0.259   4.203
42272W        W13888   6.758  33.107   2.630
42273W        W13889  38.140  32.030  11.433
42274W        W13890  24.936  18.163  12.547
42275W        W13891   2.893  43.953   4.147
42276W        W13892  27.472   7.629   4.714
42277W        W13893  12.304   2.338   0.503
42278W        W13894  13.667  30.461  12.565
42279W        W13895  15.582  17.096  11.107
42280W        W13896  17.764   1.681   0.541
42281W        W13897   0.795   4.279  13.407
42282W        W13898  43.362  36.442  14.530
42283W        W13899  20.725  36.591  12.429
42284W        W13900   0.680  30.120  11.482
42285W        W13901   0.707  44.976  13.342
42286W        W13902  25.495   6.499   4.213
42287W        W13903  40.787   8.427  13.577
42288W        W13904  27.970  41.652   3.271
42289W        W13905  34.073  10.408   1.998
42290W        W13906  20.042  17.082  14.521
42291W        W13907  38.323   1.244   1.419
42292W        W13908   8.839   0.195   1.248
42293W        W13909  14.801  21.225   3.256
42294W        W13910   5.716  38.770  10.254
42295W        W13911  44.417  16.493   1.255
42296W        W13912  27.899  38.524   3.181
42297W        W13913  13.248  39.909   2.255
42298W        W13914  19.590  41.563  11.594
42299W        W13915  23.920   2.873  12.433
42300W        W13916  23.036  37.386   2.720
42301W        W13917   6.971  40.027   2.911
42302W        W13918   9.478  36.525  11.443
42303W        W13919  34.529  21.348   2.882
42304W        W13920  14.582  36.402  12.967
42305W        W13921  20.026   0.391  14.010
42306W        W13922  32.024  36.070  12.703
42307W        W13923  23.663  37.623  10.710
42308W        W13924  26.662   2.224   1.916
42309W        W13925  34.133  21.222   4.558
42310W        W13926  15.168  15.898   0.904
42311W        W13927  29.568  18.248  12.579
42312W        W13928  18.923  33.476  12.856
42313W        W13929  18.180   1.456  13.840
42314W        W13930  11.168  35.061  11.932
42315W        W13931  40.528   5.109  14.984
42316W        W13932  16.645   7.755  12.404
42317W        W13933  17.581   6.728   4.175
42318W        W13934   3.240  24.720   0.852
42319W        W13935  42.111  15.264   4.317
42320W        W13936  37.396  19.565   2.261
42321W        W13937   6.181  14.696   3.629
42322W        W13938  27.085   6.685   0.425
42323W        W13939   1.963  34.591   4.648
42324W        W13940  40.419   4.464   0.778
42325W        W13941  44.245  35.463   3.786
42326W        W13942  44.868   5.211  13.951
42327W        W13943  29.468  39.323   1.188
42328W        W13944   3.886  37.739   0.722
42329W        W13945  36.560  10.120  14.862
42330W        W13946  22.544  31.155  14.615
42331W        W13947  33.641  29.143  11.619
42332W        W13948  26.496  33.502  14.812
42333W        W13949   5.395  40.426   2.174
42334W        W13950  11.596  24.640   1.339
42335W        W13951   7.354   2.356   2.344
42336W        W13952  26.038  34.054   5.004
42337W        W13953  28.046  14.227   1.730
42338W        W13954  41.472  30.445   0.882
42339W        W13955   9.065  17.816  11.024
42340W        W13956   2.854   8.903  12.317
42341W        W13957  17.426  23.199  10.942
42342W        W13958  28.272  35.447   3.251
42343W        W13959  31.629  13.646  14.422
42344W        W13960   5.594  26.066  10.931
42345W        W13961  35.576  27.032  11.956
42346W        W13962  14.203   7.605  12.533
42347W        W13963  40.351  35.023   2.194
42348W        W13964  21.913   4.383  11.964
42349W        W13965  32.449  43.872   4.247
42350W        W13966   8.145  32.193  14.990
42351W        W13967  31.130  41.421   2.319
42352W        W13968  35.048   8.853   3.339
42353W        W13969  11.269  13.451  11.720
42354W        W13970  28.892  36.179  13.334
42355W        W13971   6.486   4.365   0.301
42356W        W13972  11.043  44.472   0.321
42357W        W13973  33.052  20.862   2.758
42358W        W13974  17.243  20.542   1.915
42359W        W13975  14.872  37.407  13.016
42360W        W13976   5.289   2.801   0.899
42361W        W13977   1.603  21.060  13.568
42362W        W13978  21.598  16.677  10.476
42363W        W13979  25.721   3.739  10.508
42364W        W13980  43.915  16.143  11.521
42365W        W13981  34.694  31.221  11.573
42366W        W13982  23.933  17.664  11.545
42367W        W13983  18.208  15.198   1.918
42368W        W13984  27.449  18.589  13.364
42369W        W13985   5.774  12.242   1.734
42370W        W13986   7.857   7.550   5.147
42371W        W13987  16.335  12.245  11.983
42372W        W13988  22.152  38.415  12.303
42373W        W13989   9.812  32.575   0.303
42374W        W13990  38.334  17.154  10.595
42375W        W13991  33.780   1.701   3.621
42376W        W13992   4.683  23.608  10.254
42377W        W13993  27.064  25.540   3.174
42378W        W13994  18.481  13.668   0.281
42379W        W13995  43.306  33.906   4.345
42380W        W13996  41.326  39.827   0.264
42381W        W13997  44.887  29.713   2.289
42382W        W13998   5.326  17.616   1.820
42383W        W13999  39.277  23.234   0.253
42384W        W14000  27.995   8.121  11.995
42385W        W14001  40.762  30.585   1.364
42386W        W14002  26.082  23.204  14.492
42387W        W14003  13.226  24.396  10.716
42388W        W14004  20.890  12.728  14.765
42389W        W14005  34.869  29.651   1.373
42390W        W14006  44.400   5.303  11.602
42391W        W14007   2.015  41.578   4.831
42392W        W14008  20.569  25.260  14.025
42393W        W14009   2.776  19.711   4.863
42394W        W14010  29.191   6.886   1.028
42395W        W14011  12.486   5.293  10.220
42396W        W14012   3.908  19.014   1.195
42397W        W14013  44.799   7.759   4.551
42398W        W14014  41.386  22.092  11.389
42399W        W14015  19.655  22.363   1.595
42400W        W14016  38.033  26.055  12.222
42401W        W14017   7.907  23.547  14.707
42402W        W14018  21.893  34.578  10.474
42403W        W14019  39.184  20.126  12.858
42404W        W14020  35.306  30.734  11.739
42405W        W14021  17.641  16.767  14.383
42406W        W14022   4.694  27.096  11.647
42407W        W14023  15.184  15.463  10.615
42408W        W14024   1.418  33.491   2.695
42409W        W14025   8.393  37.970  12.914
42410W        W14026  34.454   3.171   0.851
42411W        W14027  19.908  43.115  14.353
42412W        W14028  14.700  34.413   2.286
42413W        W14029  23.072   9.766  10.772
42414W        W14030  36.494  18.358  11.203
42415W        W14031  43.988  41.417  13.581
42416W        W14032  32.997   1.028   3.606
42417W        W14033  43.691  30.027  12.151
42418W        W14034   2.183  29.439   0.838
42419W        W14035  27.982  20.220  13.571
42420W        W14036  32.426  20.395   2.324
42421W        W14037  16.986  39.498   0.971
42422W        W14038  11.183  23.305   2.108
42423W        W14039  23.970  12.190   3.811
42424W        W14040   7.384  40.298  12.080
42425W        W14041  15.989  30.274  11.109
42426W        W14042  10.345   7.645   4.490
42427W        W14043  22.515   0.918  10.450
42428W        W14044   9.200  12.089   0.925
42429W        W14045  20.230  31.668  14.429
42430W        W14046  39.859  40.353  12.223
42431W        W14047  39.547  36.046  13.540
42432W        W14048   9.700  27.057   4.478
42433W        W14049   1.395   3.196  14.023
42434W        W14050  12.175  41.862   2.907
42435W        W14051  12.326   2.375   1.046
42436W        W14052  38.314   1.908  12.011
42437W        W14053   7.466  16.832  11.282
42438W        W14054   1.285  12.373   2.811
42439W        W14055  17.901   0.440   4.086
42440W        W14056  42.058  29.118   3.675
42441W        W14057   4.084   5.795   2.418
42442W        W14058  28.482  40.208  11.505
42443W        W14059  39.099   4.837  13.969
42444W        W14060  27.129  41.889   3.667
42445W        W14061  14.571  17.216  12.017
42446W        W14062  26.888  33.437  10.620
42447W        W14063   7.703   6.276  13.934
42448W        W14064   0.113  35.681   0.969
42449W        W14065   2.914   4.260   3.647
42450W        W14066  32.278  29.370  11.562
42451W        W14067   3.388  14.558  13.269
42452W        W14068   2.896  43.054  13.327
42453W        W14069   4.302  14.742  13.916
42454W        W14070  23.895  43.564  11.692
42455W        W14071  41.841  20.659   3.025
42456W        W14072  36.890  36.556  12.617
42457W        W14073   6.033  28.744   2.792
42458W        W14074  30.050  26.673   4.299
42459W        W14075  31.780  29.295  12.306
42460W        W14076  14.219   4.161   3.065
42461W        W14077  31.812  22.981  13.972
42462W        W14078  12.521  19.708   4.131
42463W        W14079  24.645  13.795   4.488
42464W        W14080  25.673  10.658   4.092
42465W        W14081  42.346   5.274  10.673
42466W        W14082  10.728  31.937   0.896
42467W        W14083  14.131  42.263   0.925
42468W        W14084  25.465  37.928  10.674
42469W        W14085  22.073   0.676   2.635
42470W        W14086  14.225  35.070  12.603
42471W        W14087  38.109  20.722  12.610
42472W        W14088  40.388  19.041  13.356
42473W        W14089  28.096   6.414  12.654
42474W        W14090  17.849  39.460  13.304
42475W        W14091   7.336  22.873  14.961
42476W        W14092  26.660  25.796   1.786
42477W        W14093   0.085  44.530   3.641
42478W        W14094  34.409  21.471   5.020
42479W        W14095  44.066  44.343   1.989
42480W        W14096   7.358  27.049   0.702
42481W        W14097  40.885  24.477  10.402
42482W        W14098  22.165  38.468  10.446
42483W        W14099  43.266  16.012   1.185
42484W        W14100  17.378  23.144   0.027
42485W        W14101  21.994   8.949   4.539
42486W        W14102  31.384  17.225   0.920
42487W        W14103  27.697  16.768  12.965
42488W        W14104  29.026  17.019  14.816
42489W        W14105  30.670  18.850  12.198
42490W        W14106   4.422  26.790  14.298
42491W        W14107  39.309  37.488   0.302
42492W        W14108  24.274  27.733  12.054
42493W        W14109   0.209  37.497  11.458
42494W        W14110  44.628  42.443   4.568
42495W        W14111  17.751  17.667   4.708
42496W        W14112  19.298   9.693  11.470
42497W        W14113  17.333  37.830  14.289
42498W        W14114  39.955  38.426   4.913
42499W        W14115  14.452  22.266  13.012
42500W        W14116   1.901  34.907   1.715
42501W        W14117  42.471   0.338   3.654
42502W        W14118  29.397   6.789   3.416
42503W        W14119  13.106  36.831  12.617
42504W        W14120  40.314   8.831   4.606
42505W        W14121  11.212  22.073  10.935
42506W        W14122  16.652  10.706  13.882
42507W        W14123  26.736   8.927  11.910
42508W        W14124  18.603  10.807  12.499
42509W        W14125  20.257   2.004   0.287
42510W        W14126  11.835  44.986  12.323
42511W        W14127  42.503  44.960  12.298
42512W        W14128  12.656   1.536  10.677
42513W        W14129  35.620   8.675  14.298
42514W        W14130  24.175  26.023   4.815
42515W        W14131  24.609  37.478  14.501
42516W        W14132  17.752  29.275   1.498
42517W        W14133  17.555   9.749  13.497
42518W        W14134   0.309  17.075   0.216
42519W        W14135   0.701  43.767   0.391
42520W        W14136  39.897  16.066  11.975
42521W        W14137  15.230  29.587  14.742
42522W        W14138  13.063  24.253   3.599
42523W        W14139  22.522  12.287   4.852
42524W        W14140  34.959  35.415   1.639
42525W        W14141  34.072  44.332  10.193
42526W        W14142   4.568  12.826  14.342
42527W        W14143   5.774  13.659   1.411
42528W        W14144  18.854   1.725  14.782
42529W        W14145  31.476   8.911   1.603
42530W        W14146   0.310  33.206  14.832
42531W        W14147  14.167   1.802   1.174
42532W        W14148  10.270  36.375   3.848
42533W        W14149  33.565  38.629   1.882
42534W        W14150  20.831  33.140  12.115
42535W        W14151  30.170  10.877  12.504
42536W        W14152   5.614  29.194  12.230
42537W        W14153   5.343  42.007   0.610
42538W        W14154   3.385  26.007  10.638
42539W        W14155  35.669  29.069   3.387
42540W        W14156  38.495  12.816   4.544
42541W        W14157  38.022  12.382   2.894
42542W        W14158  15.512  22.317   0.433
42543W        W14159  18.787  22.901   1.422
42544W        W14160  39.262  19.181   2.347
42545W        W14161  43.500  10.826   2.448
42546W        W14162  11.224  12.135   4.166
42547W        W14163  19.291  21.507  14.335
42548W        W14164  43.021  44.826   3.654
42549W        W14165  25.042   5.897   1.772
42550W        W14166   3.279  11.044   4.371
42551W        W14167  13.300  20.808   0.932
42552W        W14168  31.126  24.470   1.865
42553W        W14169  39.195  24.950  13.333
42554W        W14170  21.147  28.388  14.922
42555W        W14171  11.312  33.007   1.824
42556W        W14172  16.145  43.400  11.931
42557W        W14173   5.071  38.950   4.243
42558W        W14174  40.895  44.248   1.739
42559W        W14175  32.650  12.581   0.422
42560W        W14176  40.047  24.470   3.747
42561W        W14177  38.429  16.147  10.633
42562W        W14178  27.397   5.219   0.925
42563W        W14179  33.589  21.484   1.321
42564W        W14180   9.785   2.496   1.660
42565W        W14181   2.203  13.977  12.214
42566W        W14182  31.191  27.188  13.413
42567W        W14183  40.054  30.294   2.178
42568W        W14184  35.620  20.646  11.605
42569W        W14185  16.749  26.209   4.879
42570W        W14186  12.451  10.399   4.859
42571W        W14187  25.506  41.571   4.154
42572W        W14188  10.456   1.367   3.680
42573W        W14189  27.153  26.323  14.303
42574W        W14190  37.353  43.492  10.808
42575W        W14191  42.937  11.646   1.646
42576W        W14192  29.880   9.205   0.683
42577W        W14193  18.213  27.567  10.654
42578W        W14194  10.112   0.868   4.093
42579W        W14195  16.760  12.330  11.694
42580W        W14196  39.305  17.286  10.090
42581W        W14197  33.987   3.251  13.042
42582W        W14198   7.841  33.919   1.931
42583W        W14199   1.620  15.672  12.557
42584W        W14200  13.987  40.842  14.703
42585W        W14201  20.800  23.280  12.575
42586W        W14202  43.255   7.907   1.409
42587W        W14203  25.169  22.400  14.886
42588W        W14204  35.899  35.589   0.006
42589W        W14205  11.335  10.328   0.909
42590W        W14206   5.661   9.520   1.635
42591W        W14207   7.904   4.830  13.447
42592W        W14208  34.490   4.389  10.669
42593W        W14209  28.767   5.950  14.885
42594W        W14210  23.560  37.071   4.934
42595W        W14211  33.155  21.248  11.642
42596W        W14212  43.299   1.316   4.753
42597W        W14213   6.126  23.769   2.339
42598W        W14214  31.349  22.232   4.338
42599W        W14215  31.405  34.559  12.825
42600W        W14216  23.722  32.957  12.416
42601W        W14217  42.038  11.810   2.209
42602W        W14218   2.217  12.594  14.947
42603W        W14219  13.738   6.715  13.935
42604W        W14220  15.464  14.334  13.567
42605W        W14221  39.079  28.104  14.051
42606W        W14222  25.582  30.199   0.320
42607W        W14223  11.675   9.327  14.085
42608W        W14224  36.653  19.584  12.655
42609W        W14225   3.222  11.611  11.484
42610W        W14226  24.446   2.334   4.634
42611W        W14227  24.064  44.248   1.700
42612W        W14228   1.774  14.676   3.173
42613W        W14229  16.598  10.444   0.939
42614W        W14230  11.933  36.968   1.957
42615W        W14231  40.622  42.522   2.254
42616W        W14232  24.234  24.032  14.564
42617W        W14233   9.662  12.805   0.662
42618W        W14234  31.398  38.899  11.986
42619W        W14235  44.788   3.750  13.973
42620W        W14236   8.638  10.646   1.814
42621W        W14237  29.096  14.956  14.620
42622W        W14238  22.251  34.688  10.825
42623W        W14239  11.283  19.619  11.620
42624W        W14240  14.674  32.022  14.575
42625W        W14241   2.903   5.647   2.294
42626W        W14242  27.015  19.960   4.954
42627W        W14243  12.402   2.922  14.751
42628W        W14244   9.762   5.473  13.032
42629W        W14245  10.886  23.409   3.156
42630W        W14246  40.399  37.789   2.663
42631W        W14247  41.728   2.303   2.215
42632W        W14248  24.449  29.127   0.072
42633W        W14249  19.680  26.906   1.127
42634W        W14250  26.702  44.942  13.873
42635W        W14251   0.908   1.986   3.722
42636W        W14252  14.758  41.541  13.105
42637W        W14253  38.530  33.677   2.313
42638W        W14254  12.250  10.166   1.396
42639W        W14255  38.484  16.708  12.212
42640W        W14256  13.087  20.233  10.500
42641W        W14257  35.093  12.063   0.436
42642W        W14258  32.714  38.382   3.644
42643W        W14259  41.109  41.267   3.130
42644W        W14260  39.768  35.161   1.597
42645W        W14261   2.340  11.344  13.450
42646W        W14262  35.972  12.305  11.614
42647W        W14263  34.586   8.371   2.300
42648W        W14264  30.045  35.536  12.078
42649W        W14265  22.674  41.282   0.283
42650W        W14266   0.977  33.438   0.710
42651W        W14267   8.355  41.904   4.537
42652W        W14268  15.937  29.774  11.235
42653W        W14269  44.799   4.194  14.888
42654W        W14270   2.764  18.217   0.526
42655W        W14271  24.762  28.201   3.951
42656W        W14272   1.685  11.298  14.436
42657W        W14273  14.062  34.969   1.875
42658W        W14274  43.746  36.771   4.178
42659W        W14275  31.123  10.337   3.276
42660W        W14276  21.221   3.779   2.179
42661W        W14277   6.913  20.077  10.574
42662W        W14278  42.721   3.472  11.758
42663W        W14279  42.333  38.749  10.559
42664W        W14280  39.504  29.070   2.431
42665W        W14281   8.778  28.412   2.623
42666W        W14282  10.717   3.363  14.764
42667W        W14283  42.456   8.911   4.028
42668W        W14284   0.704  25.997   1.333
42669W        W14285   5.331   1.456  14.433
42670W        W14286  28.183  29.578  12.017
42671W        W14287  32.043   9.979   0.792
42672W        W14288  24.121  44.920   2.962
42673W        W14289  31.967  39.853  12.705
42674W        W14290   6.227   9.297   2.185
42675W        W14291  37.438   0.675   4.580
42676W        W14292  11.412  41.847  11.642
42677W        W14293  36.317  18.680  12.962
42678W        W14294  23.809  35.201  11.999
42679W        W14295  36.572  37.443   1.415
42680W        W14296  42.759  27.475  13.064
42681W        W14297  15.124  23.013   4.183
42682W        W14298  24.566   1.802  12.982
42683W        W14299  40.830  10.882  12.029
42684W        W14300  39.370  18.101   4.666
42685W        W14301  12.960  26.350   4.759
42686W        W14302   9.203  22.077  12.122
42687W        W14303   9.605  35.159  11.657
42688W        W14304  42.258  22.991  10.376
42689W        W14305  11.125  30.048  12.160
42690W        W14306  38.049   6.555  11.971
42691W        W14307  26.327  17.653   1.245
42692W        W14308  35.435  13.860  12.718
42693W        W14309  33.033  40.015  12.966
42694W        W14310  34.708  29.154   3.562
42695W        W14311  34.382   1.277   1.235
42696W        W14312  19.084  43.740   3.050
42697W        W14313  24.681  10.747   1.934
42698W        W14314   2.744   8.343   4.448
42699W        W14315  12.756  23.142   0.915
42700W        W14316  14.754  29.087  12.506
42701W        W14317  19.004  26.739  12.516
42702W        W14318  14.535   3.687  13.759
42703W        W14319  31.847  14.209   1.423
42704W        W14320  40.491  15.235   0.545
42705W        W14321  19.492  13.135  12.420
42706W        W14322  37.268  15.103  10.443
42707W        W14323  39.404  26.738  14.364
42708W        W14324  29.977  39.492  13.561
42709W        W14325  30.184  25.615  12.040
42710W        W14326  22.911  38.351  13.887
42711W        W14327  30.456  40.109   1.676
42712W        W14328  21.709   9.800  10.905
42713W        W14329  24.526  43.512  14.319
42714W        W14330  39.907  19.295   3.768
42715W        W14331   6.446  15.326  13.091
42716W        W14332  43.476  13.837  13.473
42717W        W14333  19.257   4.144  11.540
42718W        W14334   3.803  22.644   3.339
42719W        W14335  10.310  33.797  14.023
42720W        W14336  22.533  27.695  11.708
42721W        W14337  16.255  29.232  11.322
42722W        W14338  39.579  22.016  12.112
42723W        W14339  42.900  38.693   5.615
42724W        W14340  13.870  28.413  12.892
42725W        W14341  44.185  28.398   0.201
42726W        W14342  10.353   5.708  12.001
42727W        W14343  12.118   4.227  12.369
42728W        W14344  33.993  14.531   2.539
42729W        W14345   5.139   7.213   0.336
42730W        W14346   7.049  34.748   3.658
42731W        W14347  38.123   7.036   0.722
42732W        W14348  23.570  36.825  11.085
42733W        W14349  22.250  20.209   3.766
42734W        W14350  28.582  30.635  11.951
42735W        W14351  14.423  29.811   1.634
42736W        W14352  42.410   4.324  11.937
42737W        W14353  11.399  20.743   4.054
42738W        W14354   3.594  36.909  13.460
42739W        W14355   9.761  30.555  14.074
42740W        W14356   9.269  36.480   4.980
42741W        W14357  23.240  35.867   0.854
42742W        W14358  12.180   0.545   0.507
42743W        W14359  42.886  40.837  12.551
42744W        W14360  39.086   6.423  14.025
42745W        W14361  27.648  27.842  11.868
42746W        W14362  41.955  41.609  14.433
42747W        W14363  39.172  11.383  12.396
42748W        W14364  15.206  19.099  10.883
42749W        W14365  44.894   4.603  10.620
42750W        W14366  17.329   6.398   2.798
42751W        W14367  25.061   6.388   0.866
42752W        W14368  31.729  27.464  10.246
42753W        W14369  10.460   9.360  12.903
42754W        W14370  30.640  11.085   0.791
42755W        W14371  35.456  44.360  13.578
42756W        W14372   1.784  25.615   3.823
42757W        W14373   4.387  36.834  12.178
42758W        W14374  43.423  25.707   4.786
42759W        W14375  40.893   5.033   4.186
42760W        W14376   8.281  19.786  14.285
42761W        W14377  36.529  40.446  12.468
42762W        W14378  44.672  28.668  13.798
42763W        W14379  40.418  43.531  13.070
42764W        W14380  44.305   1.423  12.088
42765W        W14381  34.657  24.087  13.078
42766W        W14382  32.033  19.005   0.831
42767W        W14383  20.705  22.698   4.176
42768W        W14384   0.600  32.317   2.023
42769W        W14385   0.725  23.722   5.379
42770W        W14386  18.061  10.589   3.258
42771W        W14387  24.941  36.063   1.967
42772W        W14388  16.204   4.797   1.476
42773W        W14389  26.234  44.544  12.561
42774W        W14390  30.693  26.460   1.700
42775W        W14391  35.459  37.073  11.557
42776W        W14392  36.967   8.957   1.823
42777W        W14393  35.597  41.410   1.233
42778W        W14394  44.151  40.567   0.161
42779W        W14395  26.735  40.464   5.127
42780W        W14396  41.422  27.427  14.869
42781W        W14397  17.079   3.278  11.908
42782W        W14398  15.894  16.176   2.919
42783W        W14399  11.318  23.937   1.995
42784W        W14400  12.287  23.714   1.806
42785W        W14401  19.692  35.633   2.848
42786W        W14402  38.772  26.427   2.258
42787W        W14403   8.234  18.584  12.923
42788W        W14404  13.337  21.289   1.358
42789W        W14405  17.562  14.056  10.714
42790W        W14406  41.464   0.738   4.052
42791W        W14407  16.271  20.671   0.216
42792W        W14408   9.359  30.991   4.403
42793W        W14409   3.680  17.136   1.324
42794W        W14410   3.891  22.039   5.004
42795W        W14411  26.449  33.974   2.793
42796W        W14412  25.623  23.928  12.601
42797W        W14413  31.345  27.675  12.324
42798W        W14414   9.489  21.124   3.047
42799W        W14415  44.176  33.332   2.826
42800W        W14416  18.090   0.894   3.346
42801W        W14417   2.450   2.977   1.820
42802W        W14418  21.172  16.807  11.211
42803W        W14419  22.270  28.700  12.457
42804W        W14420   5.128  32.525   3.151
42805W        W14421  18.875  31.656   1.875
42806W        W14422  18.692  44.725  12.442
42807W        W14423  21.727   5.982  11.070
42808W        W14424  31.380   7.211   1.899
42809W        W14425  29.853  15.241   3.741
42810W        W14426   8.410   5.395  11.760
42811W        W14427  29.661  35.067  11.225
42812W        W14428  31.872   6.484   1.015
42813W        W14429   5.216  27.697  13.460
42814W        W14430  21.329  35.068   0.401
42815W        W14431  41.011  38.831  13.375
42816W        W14432  22.574  18.013   0.360
42817W        W14433  35.008   3.922   3.202
42818W        W14434  16.101  36.554  13.536
42819W        W14435  15.329  20.140  11.656
42820W        W14436  20.712  44.257  11.536
42821W        W14437  29.100  32.801  13.145
42822W        W14438  28.196  31.495   1.967
42823W        W14439  26.800   3.753  11.845
42824W        W14440   2.090  28.477  12.256
42825W        W14441  41.233  43.834  14.900
42826W        W14442  32.639   6.961  13.996
42827W        W14443  39.440  42.922  10.689
42828W        W14444  29.399  30.932  13.715
42829W        W14445  13.021  39.151  12.694
42830W        W14446  35.094  34.462   2.078
42831W        W14447  29.586  11.393   2.734
42832W        W14448  11.193  11.888   1.756
42833W        W14449  10.725   5.955   3.650
42834W        W14450   3.858   5.278  10.417
42835W        W14451  44.910   0.796  13.808
42836W        W14452   3.638   3.522   2.210
42837W        W14453   8.249   1.498  12.560
42838W        W14454  22.227  39.898   3.338
42839W        W14455  18.979  18.610   2.887
42840W        W14456  30.609  40.625   0.206
42841W        W14457  26.675  34.671   2.114
42842W        W14458  13.657  38.385   2.916
42843W        W14459  13.312  21.448  12.361
42844W        W14460   4.037  18.905  12.458
42845W        W14461  38.599  36.893  11.488
42846W        W14462  27.561  25.135   0.335
42847W        W14463  42.391  14.653   2.779
42848W        W14464  41.880   4.781  14.375
42849W        W14465   3.949  43.196   3.345
42850W        W14466  16.073  16.955   4.963
42851W        W14467  20.636  31.577  12.831
42852W        W14468  43.782  10.700   1.405
42853W        W14469  37.792  20.719   1.782
42854W        W14470  14.370   0.329   3.641
42855W        W14471  40.118   3.176   1.359
42856W        W14472  26.462  18.900   2.381
42857W        W14473  35.894   1.364   0.270
42858W        W14474  28.699  19.241   1.387
42859W        W14475  21.976   4.903  13.709
42860W        W14476  44.915  12.078  11.862
42861W        W14477  33.583  32.480   2.364
42862W        W14478  20.362  42.341   5.072
42863W        W14479   7.392  33.842  10.380
42864W        W14480  16.565  19.893   0.850
42865W        W14481   6.601  22.591   0.900
42866W        W14482  43.962  43.074   0.798
42867W        W14483  21.175  19.095  11.564
42868W        W14484  29.965  11.623   0.142
42869W        W14485   4.675  16.376  14.594
42870W        W14486  38.624  42.971   2.187
42871W        W14487   5.499  34.658  10.886
42872W        W14488  26.674  35.425   1.051
42873W        W14489  18.836   0.481   3.151
42874W        W14490  13.318   8.505  13.614
42875W        W14491  18.448  27.743  11.991
42876W        W14492  26.570  43.068   2.587
42877W        W14493   8.126  10.112   3.744
42878W        W14494  34.911  13.627   2.580
42879W        W14495   4.178  10.416   0.252
42880W        W14496   8.202   1.252   2.359
42881W        W14497  29.107  12.765   3.125
42882W        W14498   6.515  19.740  14.257
42883W        W14499   2.247  17.026   0.392
42884W        W14500  37.494  38.222  12.375
42885W        W14501  29.611  22.248   3.834
42886W        W14502  44.767  30.607   0.454
42887W        W14503  44.582  26.631  12.092
42888W        W14504  16.800  21.241   0.409
42889W        W14505   9.148  13.975  10.714
42890W        W14506  10.840  10.458  13.481
42891W        W14507   2.374   6.397   2.402
42892W        W14508   5.958  38.962  13.869
42893W        W14509   7.614  15.702  11.621
42894W        W14510  41.846  11.368  12.568
42895W        W14511   0.837  32.340   3.210
42896W        W14512  41.498  19.180   0.455
42897W        W14513  43.984  22.181  14.432
42898W        W14514  20.288  29.486   0.411
42899W        W14515  33.518  11.053  11.176
42900W        W14516  22.318  10.401  10.556
42901W        W14517   3.086  23.585  13.962
42902W        W14518  10.702   0.764  10.257
42903W        W14519   6.793  37.620  12.821
42904W        W14520   5.318  43.006   2.294
42905W        W14521   4.295  22.513  12.462
42906W        W14522  29.541   1.509  13.070
42907W        W14523   0.915  23.239   4.121
42908W        W14524  30.445  31.913   0.067
42909W        W14525  22.669  33.583  12.414
42910W        W14526   3.305   9.820  12.479
42911W        W14527  43.416  32.566  12.823
42912W        W14528  43.437   2.994  11.960
42913W        W14529  15.228   1.663   0.762
42914W        W14530  37.362  10.981   3.325
42915W        W14531  41.063  10.632   0.428
42916W        W14532   6.563  38.834   4.554
42917W        W14533  22.655  34.478  12.936
42918W        W14534  35.153  27.441   3.476
42919W        W14535  36.037   5.199  12.341
42920W        W14536  37.611  28.423  10.418
42921W        W14537  23.660  14.656  12.095
42922W        W14538  10.684  44.282   1.851
42923W        W14539  37.525   0.931  10.898
42924W        W14540  43.519  42.068   3.893
42925W        W14541  25.162   2.855  12.057
42926W        W14542  42.857  41.439  12.858
42927W        W14543   4.693  19.265  11.158
42928W        W14544  33.520   3.059  12.928
42929W        W14545  35.109   2.229  12.858
42930W        W14546  21.783  20.666   3.138
42931W        W14547  42.457   3.247  11.059
42932W        W14548  31.145  18.595  14.741
42933W        W14549  33.948  40.103  13.337
42934W        W14550   9.092  28.648   4.160
42935W        W14551  40.270  28.883   2.140
42936W        W14552   9.676  34.826   4.095
42937W        W14553  39.959  11.928  14.082
42938W        W14554  25.217  13.528  11.560
42939W        W14555  38.071  35.967   3.701
42940W        W14556  36.007  40.806   3.611
42941W        W14557   5.530  37.123  13.109
42942W        W14558  14.630   0.810  14.895
42943W        W14559  21.032  15.343   3.637
42944W        W14560  44.235   8.643   1.417
42945W        W14561  12.692  13.834  13.554
42946W        W14562   2.414   3.777   0.712
42947W        W14563  18.057  20.189  11.230
42948W        W14564  18.113  34.956  12.049
42949W        W14565  33.510  23.020  10.965
42950W        W14566  38.612  20.722   1.543
42951W        W14567  39.061  25.674   1.198
42952W        W14568  39.793  17.668   3.767
42953W        W14569  21.938  40.454   2.699
42954W        W14570  11.843   3.004  12.091
42955W        W14571   6.189  35.861   1.420
42956W        W14572  44.004  19.240   0.439
42957W        W14573   8.933  27.033   3.748
42958W        W14574  31.523  25.166   2.411
42959W        W14575  10.077  31.607   4.595
42960W        W14576  14.303  22.311   0.829
42961W        W14577  17.287   0.655  13.472
42962W        W14578  34.429   0.831  13.115
42963W        W14579   4.935  17.136  10.624
42964W        W14580  32.020   8.193   2.186
42965W        W14581  16.722  32.626  14.968
42966W        W14582   8.879   8.778   2.206
42967W        W14583  12.873  30.351   0.880
42968W        W14584  13.909  31.318  14.382
42969W        W14585  36.230  25.077  10.089
42970W        W14586  29.669   7.685  12.461
42971W        W14587  13.333  27.448  14.524
42972W        W14588   8.145  44.886   4.663
42973W        W14589  20.528  13.926  12.799
42974W        W14590  12.352  38.940   2.653
42975W        W14591  41.818   6.432  13.154
42976W        W14592   8.265  20.516   2.263
42977W        W14593  10.419  21.085   2.755
42978W        W14594  40.511  41.278   0.898
42979W        W14595  22.789  10.126  14.889
42980W        W14596   7.805  34.376   3.889
42981W        W14597  22.306  41.895  10.314
42982W        W14598  15.721  40.320   4.624
42983W        W14599   3.317   7.830  11.112
42984W        W14600  38.835   9.752  10.553
42985W        W14601  39.505  16.840  12.038
42986W        W14602  13.518   8.781   2.188
42987W        W14603   8.829  35.395   4.202
42988W        W14604  32.089   6.986   2.931
42989W        W14605  22.239  30.203  12.531
42990W        W14606  10.844  17.925   1.760
42991W        W14607   9.205  28.662   1.882
42992W        W14608  19.757   6.000   1.970
42993W        W14609   7.322  36.287   4.784
42994W        W14610  32.901  26.446   4.370
42995W        W14611  30.010   3.324  12.051
42996W        W14612   5.903  15.647   4.499
42997W        W14613  34.009  25.115   0.719
42998W        W14614  32.645  10.817   1.931
42999W        W14615   2.456  21.976   3.361
43000W        W14616  21.313  28.230  12.981
43001W        W14617  19.748  11.335  12.405
43002W        W14618  41.531  13.306  10.811
43003W        W14619  43.801   7.705  12.242
43004W        W14620  41.399  11.170   3.091
43005W        W14621  21.651   2.350  10.737
43006W        W14622  18.735  36.149  14.502
43007W        W14623  31.834  44.737   2.887
43008W        W14624  16.821  21.860  13.251
43009W        W14625   7.733   4.702   5.056
43010W        W14626  14.526  22.268  11.957
43011W        W14627   0.761  15.649  13.516
43012W        W14628   1.824  43.274   4.546
43013W        W14629   3.722  23.151   2.620
43014W        W14630  27.881  15.801  10.661
43015W        W14631  17.662  39.282  10.731
43016W        W14632  22.495  25.077  10.692
43017W        W14633  40.318  36.590  12.448
43018W        W14634  40.075  15.127   4.556
43019W        W14635   1.898  11.862  11.957
43020W        W14636  41.855  30.611  12.085
43021W        W14637   8.230  28.179   0.875
43022W        W14638  32.582  28.616   2.287
43023W        W14639  13.207   6.208  12.680
43024W        W14640   0.063  39.558  13.855
43025W        W14641  42.140  23.951   5.235
43026W        W14642  30.374  17.953   1.951
43027W        W14643  44.324  26.672  11.553
43028W        W14644  41.384  36.937  12.983
43029W        W14645  25.195  44.998  11.507
43030W        W14646   2.920   3.775   0.604
43031W        W14647  41.621  22.232   1.663
43032W        W14648  37.437   4.552   0.883
43033W        W14649  35.938  36.861  13.344
43034W        W14650  18.163  34.779  14.422
43035W        W14651  26.020  19.738  13.525
43036W        W14652   3.317  20.550   3.673
43037W        W14653  22.864  35.195   3.689
43038W        W14654   4.310  22.190   0.451
43039W        W14655  12.633  25.670   3.757
43040W        W14656  26.181  44.947   4.082
43041W        W14657  15.121  20.229   0.567
43042W        W14658  21.818  17.600  12.785
43043W        W14659  15.198  24.539  13.519
43044W        W14660  27.033  30.391   2.496
43045W        W14661  24.174  18.397   1.193
43046W        W14662  31.146  28.953  12.851
43047W        W14663  38.440  35.545  11.837
43048W        W14664  18.810  28.707  10.999
43049W        W14665  34.911  18.566   2.752
43050W        W14666  17.471  16.196  11.719
43051W        W14667  31.537  22.607   2.857
43052W        W14668   1.972  27.170  14.896
43053W        W14669  39.613  16.902   1.329
43054W        W14670  18.067  24.723   4.550
43055W        W14671   8.363  38.641   1.415
43056W        W14672  20.641  41.330   3.293
43057W        W14673  13.253  19.025   3.651
43058W        W14674  17.551  17.775  11.469
43059W        W14675  43.132  16.747  14.922
43060W        W14676  11.313  23.766   3.311
43061W        W14677  26.547  13.737   2.403
43062W        W14678  25.082  39.992  14.543
43063W        W14679  32.440  18.753  11.507
43064W        W14680  29.091  40.226  13.904
43065W        W14681  39.879  13.554  10.623
43066W        W14682  21.557  29.589   3.567
43067W        W14683   4.226  25.422   2.956
43068W        W14684  25.802  22.325  10.312
43069W        W14685  41.057  25.513  13.410
43070W        W14686   0.287  41.398   0.499
43071W        W14687  27.169   0.879   0.337
43072W        W14688   6.633  22.626   5.059
43073W        W14689  25.700  12.374  14.577
43074W        W14690  24.742  39.335  14.287
43075W        W14691  24.192  23.565   2.265
43076W        W14692   7.816  39.461   2.835
43077W        W14693  10.266  23.113   1.498
43078W        W14694  27.932  18.772   0.702
43079W        W14695  26.743  29.906   0.725
43080W        W14696  35.006  25.954   2.827
43081W        W14697  31.039   0.532   1.314
43082W        W14698  42.085  44.579  12.110
43083W        W14699  22.054  13.368   4.903
43084W        W14700  18.038  44.231   4.974
43085W        W14701  33.111   5.181   1.510
43086W        W14702  26.893   3.468  10.229
43087W        W14703   6.278  39.530   1.742
43088W        W14704  28.930  10.721  10.844
43089W        W14705  34.849   8.326  11.963
43090W        W14706  42.911  39.607   0.431
43091W        W14707  44.227   1.701   0.216
43092W        W14708  18.187  21.518  10.964
43093W        W14709  20.043  16.066   2.859
43094W        W14710  37.865   1.669  12.211
43095W        W14711  22.382  40.340   1.710
43096W        W14712  27.535  18.126   0.258
43097W        W14713   7.728  44.856   1.977
43098W        W14714  31.410  44.270  13.323
43099W        W14715  14.332  25.637   3.628
43100W        W14716  38.003  32.547   1.986
43101W        W14717  32.196   0.678  10.708
43102W        W14718  38.028  16.174  12.837
43103W        W14719  27.016  22.263  13.811
43104W        W14720  21.211   4.777   2.252
43105W        W14721  28.050   1.365   0.217
43106W        W14722  36.929   5.833   4.238
43107W        W14723  12.698  38.514  10.727
43108W        W14724  32.179   1.790   0.484
43109W        W14725  43.167  32.665  11.215
43110W        W14726  27.909  13.150   4.055
43111W        W14727  38.885  44.983   4.274
43112W        W14728  27.128  29.169   4.257
43113W        W14729   4.924  13.428   1.033
43114W        W14730   3.039  31.035   1.768
43115W        W14731  18.376  41.473  11.119
43116W        W14732   6.071  35.623  13.996
43117W        W14733  40.996  18.340   3.387
43118W        W14734  22.581  29.968  12.116
43119W        W14735  18.615  25.690   4.536
43120W        W14736  34.793  30.996  10.433
43121W        W14737  36.620  41.636  13.816
43122W        W14738  37.779  35.540  13.256
43123W        W14739  29.785  41.630   5.044
43124W        W14740  35.039  43.393   2.523
43125W        W14741  27.644  25.265   1.793
43126W        W14742   8.108   4.135  11.912
43127W        W14743  15.671   5.724   3.708
43128W        W14744  25.649  42.326   3.435
43129W        W14745   5.910  22.959   3.679
43130W        W14746  21.055   4.210   4.203
43131W        W14747  27.895  12.720  12.919
43132W        W14748   5.973  35.474   2.185
43133W        W14749  39.248  31.616   0.922
43134W        W14750   5.890  32.871   2.703
43135W        W14751  15.345  21.144  10.424
43136W        W14752  10.923  26.047   3.277
43137W        W14753   7.238  36.034   4.082
43138W        W14754  12.245   8.821  11.223
43139W        W14755  16.989  27.635   3.781
43140W        W14756  42.832  42.706   2.805
43141W        W14757  13.160  41.251   1.270
43142W        W14758  39.361  21.675   1.821
43143W        W14759  16.590  23.754   2.271
43144W        W14760  19.668   0.709   1.730
43145W        W14761  33.902  13.822  13.924
43146W        W14762  10.872  33.357  10.657
43147W        W14763  15.002  42.343   1.363
43148W        W14764   8.087  34.522   1.407
43149W        W14765  41.610  39.270   1.929
43150W        W14766  37.308   8.910  12.696
43151W        W14767  42.256  13.344   0.708
43152W        W14768  42.480   3.838   1.256
43153W        W14769   4.317  29.111  13.494
43154W        W14770   5.852  43.451  10.577
43155W        W14771  37.022   5.719  10.693
43156W        W14772  14.484  21.137   1.908
43157W        W14773  22.188  43.035  12.944
43158W        W14774  41.277  21.185   3.496
43159W        W14775   2.291  29.459  12.997
43160W        W14776  36.458  23.928  12.120
43161W        W14777   1.785  29.349   1.885
43162W        W14778   3.608  11.167  12.837
43163W        W14779  42.315  41.341   0.402
43164W        W14780  16.045   3.619   4.628
43165W        W14781  13.091  19.797  10.127
43166W        W14782  30.610  26.957  13.441
43167W        W14783   0.809  38.525   3.698
43168W        W14784  42.101  21.808  11.240
43169W        W14785  24.273   0.816   3.028
43170W        W14786   7.834  37.287   3.642
43171W        W14787   6.737  19.628  13.282
43172W        W14788  29.434  41.450   0.549
43173W        W14789  12.178  20.590  14.971
43174W        W14790  42.466  16.348   1.867
43175W        W14791  27.606  13.916   2.404
43176W        W14792  35.634  14.661  12.443
43177W        W14793  23.556  40.464   4.674
43178W        W14794  25.528  17.904   0.231
43179W        W14795  12.470   3.774   3.716
43180W        W14796  33.948  31.393   3.701
43181W        W14797  42.830  27.613  10.696
43182W        W14798  10.004  42.933   4.018
43183W        W14799   0.694  26.523   1.325
43184W        W14800  14.821  40.241  10.045
43185W        W14801  37.568   2.477   2.699
43186W        W14802   2.746  32.873  12.993
43187W        W14803  11.384  34.426  10.759
43188W        W14804   6.372  12.014  12.442
43189W        W14805  10.767  39.334  11.310
43190W        W14806  40.859  11.703   2.948
43191W        W14807  18.516  10.873   2.302
43192W        W14808  23.171   0.317   3.288
43193W        W14809  37.917  40.719   2.804
43194W        W14810   4.339  28.513   0.833
43195W        W14811  28.950  34.991   0.778
43196W        W14812  35.586  17.654  13.518
43197W        W14813   5.800   6.569   0.801
43198W        W14814  24.473  11.193   4.621
43199W        W14815   2.004  16.551   4.247
43200W        W14816  16.708   1.645  11.198
43201W        W14817  41.565  16.735   2.809
43202W        W14818  37.706   5.909  13.617
43203W        W14819  13.821  18.063   1.880
43204W        W14820  19.696   3.118   5.071
43205W        W14821  31.698  41.038   1.841
43206W        W14822   1.067   4.741  10.249
43207W        W14823  19.147  25.532   1.625
43208W        W14824  28.429   1.497  13.389
43209W        W14825  27.698  44.431  14.299
43210W        W14826   8.264   6.364   4.599
43211W        W14827   3.186  11.794  14.840
43212W        W14828  23.726  32.009  10.157
43213W        W14829   4.727  36.242   0.763
43214W        W14830  33.572  14.202   0.016
43215W        W14831   1.064  29.148   3.721
43216W        W14832  14.317  10.260  14.698
43217W        W14833  17.069  22.168   3.911
43218W        W14834  10.523  22.767  13.341
43219W        W14835  29.675  17.738  12.564
43220W        W14836  43.489  16.816  11.490
43221W        W14837   5.145  24.868  11.074
43222W        W14838  28.428  27.543  11.933
43223W        W14839   6.378  10.247  11.991
43224W        W14840   0.453  32.245   2.833
43225W        W14841  32.030  43.458   0.720
43226W        W14842  25.158  38.026  14.947
43227W        W14843   2.505   5.763  13.955
43228W        W14844  22.159  39.344  10.796
43229W        W14845  37.912  32.569  13.428
43230W        W14846  44.378  34.489   0.749
43231W        W14847  19.765  16.044   1.866
43232W        W14848  15.679  44.343  11.024
43233W        W14849  43.359  12.369   3.288
43234W        W14850  21.254  16.385  14.543
43235W        W14851  38.325  12.646  13.526
43236W        W14852   3.334   5.316   2.252
43237W        W14853  21.008  20.813   3.896
43238W        W14854   3.842   6.853   1.390
43239W        W14855  28.140   4.437   3.722
43240W        W14856  12.910  44.012   2.712
43241W        W14857  13.788  26.916   2.088
43242W        W14858  28.085   6.989  14.474
43243W        W14859  16.398  11.850   2.930
43244W        W14860   8.462  43.827  11.089
43245W        W14861  41.838  14.011   4.717
43246W        W14862   5.647  37.183   0.742
43247W        W14863  21.950  43.565  12.006
43248W        W14864  27.288  32.376  10.524
43249W        W14865  16.035  30.350  11.985
43250W        W14866  20.710   7.204   0.778
43251W        W14867  21.681  44.771   0.900
43252W        W14868  33.586   0.715  14.070
43253W        W14869   6.932  42.805  14.387
43254W        W14870  25.739  21.035  14.901
43255W        W14871   2.911  29.546  12.637
43256W        W14872   7.798  27.913   0.964
43257W        W14873   4.371  19.982   1.034
43258W        W14874  32.910  25.651  11.167
43259W        W14875  11.348  32.949  12.519
43260W        W14876  29.646  33.209   3.756
43261W        W14877   8.571  30.565   2.817
43262W        W14878  25.907  15.539  13.559
43263W        W14879  13.302  34.000  10.540
43264W        W14880   6.921  11.752  14.279
43265W        W14881   5.751  30.149   1.286
43266W        W14882  19.725  29.503   1.746
43267W        W14883  22.245  25.218  13.976
43268W        W14884   4.519  28.651   4.285
43269W        W14885  13.846  34.519   0.737
43270W        W14886  40.407  42.903  10.970
43271W        W14887  19.331  34.306  13.913
43272W        W14888  20.626   5.752  11.654
43273W        W14889   2.791  25.116  13.985
43274W        W14890  11.140  30.479   1.910
43275W        W14891  11.356   6.460  11.529
43276W        W14892   0.671  19.085  11.522
43277W        W14893  43.283  20.910   2.808
43278W        W14894  22.181  23.894   0.492
43279W        W14895  18.146  13.223  12.802
43280W        W14896  19.995   5.701  10.365
43281W        W14897  24.953  25.104  11.516
43282W        W14898  39.955  12.144   4.627
43283W        W14899  27.660  35.342  13.897
43284W        W14900  17.251  14.202  10.229
43285W        W14901  19.853  33.418   1.800
43286W        W14902   8.227  17.088   4.182
43287W        W14903  27.241  38.569   3.839
43288W        W14904   6.461  38.942   0.431
43289W        W14905  41.001   5.244   1.126
43290W        W14906  33.719  17.187  10.444
43291W        W14907  20.985   9.213  12.904
43292W        W14908  30.142  34.644  12.497
43293W        W14909  17.111  39.734   1.781
43294W        W14910   7.740  29.907   1.406
43295W        W14911  31.739   9.942  11.604
43296W        W14912  11.825  35.407  14.453
43297W        W14913  26.524  10.336   0.588
43298W        W14914  14.888  29.580  12.626
43299W        W14915  15.226  14.056   4.247
43300W        W14916  21.665   9.089  13.496
43301W        W14917  15.863  17.254  13.359
43302W        W14918   5.668  11.802   2.368
43303W        W14919   9.851  11.725  12.326
43304W        W14920  31.629  35.576   3.166
43305W        W14921   4.868  25.355  11.051
43306W        W14922   7.697  36.632   1.233
43307W        W14923  21.206  34.334   0.050
43308W        W14924  12.778  35.054  13.461
43309W        W14925  31.389  34.412   4.328
43310W        W14926  27.960  11.558  11.527
43311W        W14927   1.183  23.637  14.657
43312W        W14928  40.890  32.352   1.795
43313W        W14929  41.003   4.795  13.572
43314W        W14930  40.607  28.888  12.153
43315W        W14931  18.257  22.210  11.541
43316W        W14932  28.506  30.700   2.384
43317W        W14933  29.647   6.224  14.060
43318W        W14934  21.506  14.276  14.326
43319W        W14935  23.179  29.692   1.269
43320W        W14936  43.925   2.726   3.332
43321W        W14937  32.913  28.484  12.514
43322W        W14938   9.147  19.729   4.216
43323W        W14939  12.076   7.816   0.674
43324W        W14940  39.986  21.073  12.997
43325W        W14941  28.373  30.061  11.885
43326W        W14942  32.939  23.726  14.023
43327W        W14943  44.490  29.403  13.960
43328W        W14944  34.772  17.452   3.760
43329W        W14945   6.730   9.865   3.396
43330W        W14946  26.198  30.109   1.882
43331W        W14947  30.663  38.950  13.440
43332W        W14948  32.185   2.376   3.871
43333W        W14949   1.843   0.730  13.489
43334W        W14950   3.012  24.949   2.700
43335W        W14951  37.813   4.279   3.807
43336W        W14952   6.468   7.479  14.897
43337W        W14953  30.158  10.303   3.152
43338W        W14954  33.106  25.609  12.403
43339W        W14955   8.667  14.849  14.019
43340W        W14956  35.811  15.648  12.236
43341W        W14957  10.073  23.552   3.453
43342W        W14958  12.204   7.424   2.653
43343W        W14959   1.144  25.239   0.308
43344W        W14960  38.316  24.506  13.788
43345W        W14961  23.040   6.369  14.620
43346W        W14962  30.009  10.705   4.542
43347W        W14963   6.771  16.497  13.035
43348W        W14964  42.962   7.134   2.294
43349W        W14965   4.256  40.022  11.555
43350W        W14966  32.043  39.040  14.061
43351W        W14967  23.055  42.292  12.297
43352W        W14968  25.536  34.586  13.044
43353W        W14969   7.833  44.936  10.687
43354W        W14970   4.135   8.403  12.955
43355W        W14971  21.821   9.872   4.225
43356W        W14972   6.156   2.257  11.876
43357W        W14973   6.723  23.066  13.592
43358W        W14974  11.750  44.812   5.139
43359W        W14975  22.972  13.053   4.633
43360W        W14976   5.238  27.198   3.774
43361W        W14977  38.051  42.071  10.689
43362W        W14978  21.807  26.953   3.808
43363W        W14979  11.733  27.051   0.281
43364W        W14980   3.750  15.256   0.272
43365W        W14981  31.422  23.785   3.137
43366W        W14982  30.936  30.949  11.816
43367W        W14983  15.257  39.557   1.454
43368W        W14984  34.458  33.631  14.346
43369W        W14985   6.302  36.865  12.015
43370W        W14986   9.892  25.763   2.265
43371W        W14987  23.912  31.715  11.959
43372W        W14988  41.869  19.306   3.050
43373W        W14989  10.123  31.900   3.124
43374W        W14990  40.062  23.641   0.335
43375W        W14991  25.342  12.300  14.941
43376W        W14992  13.685  31.565   0.626
43377W        W14993  10.155  10.825  14.414
43378W        W14994  40.982  13.052  11.964
43379W        W14995  38.677  33.857   4.181
43380W        W14996   7.228   5.268  10.422
43381W        W14997   6.003  24.271   4.213
43382W        W14998  13.101  10.904  11.079
43383W        W14999  23.281  12.340   1.816
43384W        W15000  30.988  22.547   2.715
43385W        W15001  29.418  44.805   4.610
43386W        W15002  21.362  21.631   3.197
43387W        W15003  27.012  30.703  14.095
43388W        W15004  17.391   3.925  12.618
43389W        W15005  10.582  25.804   3.652
43390W        W15006  21.284  37.130  14.473
43391W        W15007  43.823  16.255  10.543
43392W        W15008  36.291  18.821   1.194
43393W        W15009   5.415  12.657   2.808
43394W        W15010  31.047  16.921  13.942
43395W        W15011  30.343  24.878   3.635
43396W        W15012   8.101   9.656  12.262
43397W        W15013  19.248   1.444  10.706
43398W        W15014  42.667  21.795  11.262
43399W        W15015   1.414  16.242  10.474
43400W        W15016  12.699   1.818   3.410
43401W        W15017  41.846  35.000  12.212
43402W        W15018   2.766  11.270  11.610
43403W        W15019  43.142  20.405   2.805
43404W        W15020   6.283  13.872  11.999
43405W        W15021  16.572  16.538   4.112
43406W        W15022  42.968  29.186   0.469
43407W        W15023  28.709   0.974   2.331
43408W        W15024  34.528   6.453   0.445
43409W        W15025  10.338  40.493  11.338
43410W        W15026   2.734  33.973  13.851
43411W        W15027  21.706  27.876   0.070
43412W        W15028   2.691  11.877   0.313
43413W        W15029  15.966  35.390  10.637
43414W        W15030  33.289  30.612  11.481
43415W        W15031  30.640  38.078  13.307
43416W        W15032   7.343  25.412   1.661
43417W        W15033  20.834  44.369   4.617
43418W        W15034  42.043  21.453   2.382
43419W        W15035  41.773  41.351  11.109
43420W        W15036  21.258   5.309  10.595
43421W        W15037  16.114  23.159   0.936
43422W        W15038  22.256  31.077  11.073
43423W        W15039  29.478   6.889   4.865
43424W        W15040  34.593   3.225  11.466
43425W        W15041   3.650   8.841   0.538
43426W        W15042  20.493   9.578  12.881
43427W        W15043  31.904  36.555   5.132
43428W        W15044  14.807  11.329   4.115
43429W        W15045  36.047  10.711   1.048
43430W        W15046  12.626   4.417   1.641
43431W        W15047  29.307   1.859   0.749
43432W        W15048  30.552   0.783   1.267
43433W        W15049  17.222   7.406  13.974
43434W        W15050  14.651   1.921   2.461
43435W        W15051  24.504   2.500  13.391
43436W        W15052  18.563  11.996  10.566
43437W        W15053  21.763  15.803  10.680
43438W        W15054  30.368  27.596   0.019
43439W        W15055  27.610   7.030   3.949
43440W        W15056  13.408  34.658   1.438
43441W        W15057  12.782  23.014   3.684
43442W        W15058   9.843  15.067   4.256
43443W        W15059  43.538   3.478  14.300
43444W        W15060   3.982  42.434  13.301
43445W        W15061  36.845  25.304   2.020
43446W        W15062  36.073  34.447  12.855
43447W        W15063  24.737  24.531  10.678
43448W        W15064   0.250  31.974   1.839
43449W        W15065  31.351  40.521  13.496
43450W        W15066  33.973  35.321  11.971
43451W        W15067  34.191  14.014  12.108
43452W        W15068  21.505  21.940   2.337
43453W        W15069  23.400  32.438   4.386
43454W        W15070  41.764  32.179  11.547
43455W        W15071  30.924  37.106   4.911
43456W        W15072  24.600  24.061   1.490
43457W        W15073  31.718  20.733   2.849
43458W        W15074  23.946  32.607   2.352
43459W        W15075  25.985  10.833  11.170
43460W        W15076  42.115  38.382  14.785
43461W        W15077  19.096  40.284  14.996
43462W        W15078  16.810  43.747   9.450
43463W        W15079   8.905  40.847   1.423
43464W        W15080   1.039  10.135  14.333
43465W        W15081  23.970  25.790  13.297
43466W        W15082   7.863   9.700   4.606
43467W        W15083  16.444  34.618   4.281
43468W        W15084  11.242  36.318  13.358
43469W        W15085  37.870  27.409  13.969
43470W        W15086  21.343  31.660   4.915
43471W        W15087  21.711  22.659   4.605
43472W        W15088  17.706  12.110   1.467
43473W        W15089  44.240  44.283   2.473
43474W        W15090  10.610  28.227  13.396
43475W        W15091  34.136   7.749  14.305
43476W        W15092  43.911  23.615   1.230
43477W        W15093   4.905  34.790   0.959
43478W        W15094  41.743   8.825   2.885
43479W        W15095  29.972  15.837  11.702
43480W        W15096  12.105   5.858   0.224
43481W        W15097  14.673  34.664   4.607
43482W        W15098  20.598  25.107  12.453
43483W        W15099  30.450  10.904   2.908
43484W        W15100  20.675   2.779  12.972
43485W        W15101  24.567   0.221   4.435
43486W        W15102   0.436  20.031   1.358
43487W        W15103  28.918   0.453   4.205
43488W        W15104  39.451  10.878   5.042
43489W        W15105  32.592  28.603   3.830
43490W        W15106  11.194  31.767  11.111
43491W        W15107  26.882  11.641   0.404
43492W        W15108  39.427   6.720  10.360
43493W        W15109  14.410  25.203   0.759
43494W        W15110  27.757  21.423   2.668
43495W        W15111   0.788  36.419  10.216
43496W        W15112  26.485  42.970   5.184
43497W        W15113  23.529  38.716  13.937
43498W        W15114  14.820  10.318   0.037
43499W        W15115   2.343   1.306   0.675
43500W        W15116  35.369  34.372  14.457
43501W        W15117   4.306  21.793  13.755
43502W        W15118  42.417  36.268  11.586
43503W        W15119  23.131  34.395   0.385
43504W        W15120   0.911  21.149  12.086
43505W        W15121  15.564  11.175   0.518
43506W        W15122  14.669  30.540   4.498
43507W        W15123  39.876  26.219   4.420
43508W        W15124  15.697  32.194   2.643
43509W        W15125  13.598  31.643  14.131
43510W        W15126  16.050  29.430   1.773
43511W        W15127  41.020  19.142   4.056
43512W        W15128  12.772   2.352   3.303
43513W        W15129  17.339  31.161   4.557
43514W        W15130  41.397  13.988  10.989
43515W        W15131   5.195  14.405   0.988
43516W        W15132  28.117  17.618   2.375
43517W        W15133   0.815  28.228  10.654
43518W        W15134  33.579  23.318  13.375
43519W        W15135  40.396  27.263  11.139
43520W        W15136   7.164  38.965  14.381
43521W        W15137  43.903   8.063   3.765
43522W        W15138  10.089  13.169   1.481
43523W        W15139   1.456   2.462   3.411
43524W        W15140  24.956  37.820   0.423
43525W        W15141  43.951   7.052   3.664
43526W        W15142  16.068   2.946  12.580
43527W        W15143  35.938   9.718  11.359
43528W        W15144  23.087  30.025  14.587
43529W        W15145  42.469  20.113  10.727
43530W        W15146  40.400  39.391  10.436
43531W        W15147  30.425  29.342   1.994
43532W        W15148  12.142  34.647  13.875
43533W        W15149  17.627  42.191  10.679
43534W        W15150  41.530   2.902  14.928
43535W        W15151  16.838  41.880   3.112
43536W        W15152  21.397  13.055   5.166
43537W        W15153  37.256   0.359  11.580
43538W        W15154  26.299  23.661  12.956
43539W        W15155  23.771  32.441  13.053
43540W        W15156   1.714  21.082  10.682
43541W        W15157  19.978   9.744   1.881
43542W        W15158  28.603  27.374   2.861
43543W        W15159  13.670  37.462   0.325
43544W        W15160  42.703  22.453  13.809
43545W        W15161   1.677  30.571   4.744
43546W        W15162   8.360   7.314   2.210
43547W        W15163  28.592  20.759   1.249
43548W        W15164  18.310   5.668  13.989
43549W        W15165   8.932  17.506  13.772
43550W        W15166  38.324  30.368  12.894
43551W        W15167  12.064   0.596   1.517
43552W        W15168  32.177  21.537  13.981
43553W        W15169  40.203   2.804  13.585
43554W        W15170  37.942   4.419   4.282
43555W        W15171  28.963  29.165   4.214
43556W        W15172   6.440  12.221   4.606
43557W        W15173  12.843   4.035  12.899
43558W        W15174  25.692  30.587   2.884
43559W        W15175  38.369  27.141  11.331
43560W        W15176  24.544  23.492  10.714
43561W        W15177  11.601  21.770   4.464
43562W        W15178  32.982  26.122   3.167
43563W        W15179   3.866  30.861   1.912
43564W        W15180   8.114   6.909   2.547
43565W        W15181  21.232  44.851   1.173
43566W        W15182   8.922  35.642  11.473
43567W        W15183  21.555  38.796  11.913
43568W        W15184   3.028  28.306   2.808
43569W        W15185  43.544  11.706  12.644
43570W        W15186  23.939  28.329  11.295
43571W        W15187  16.248  38.979   4.172
43572W        W15188  17.640  11.019   1.610
43573W        W15189  10.540  22.442   3.938
43574W        W15190  28.184  35.413  12.991
43575W        W15191  42.349  10.057   2.888
43576W        W15192  34.106  44.409  14.775
43577W        W15193  13.321  18.624   2.953
43578W        W15194  26.881  36.437   1.365
43579W        W15195   6.539  36.954  12.883
43580W        W15196   5.642  42.814   3.709
43581W        W15197  40.376  21.476  11.801
43582W        W15198  26.362  43.813   0.953
43583W        W15199   1.654  44.636   0.336
43584W        W15200  16.350   6.231  12.819
43585W        W15201   5.220  42.058   3.297
43586W        W15202  26.298   5.211  12.238
43587W        W15203  17.072  10.398  12.511
43588W        W15204  22.715  30.872  11.243
43589W        W15205  26.419  34.628  11.200
43590W        W15206  37.039  31.188   1.170
43591W        W15207  43.874  38.002   5.010
43592W        W15208  12.170  13.930   4.257
43593W        W15209   4.710   0.487  11.883
43594W        W15210  21.765   7.111   3.276
43595W        W15211  39.355   0.872   4.217
43596W        W15212  30.595   1.768   4.518
43597W        W15213  41.865  33.214  11.491
43598W        W15214  41.575  19.076   1.313
43599W        W15215  29.131  15.193   4.994
43600W        W15216  21.089  18.643  13.567
43601W        W15217  16.699  22.226  10.723
43602W        W15218   4.281  15.554   1.744
43603W        W15219  40.830  12.681   2.195
43604W        W15220  40.371  16.760   1.819
43605W        W15221  44.451  28.517  11.860
43606W        W15222   2.449  36.064  14.249
43607W        W15223  11.251  20.155   3.565
43608W        W15224  23.623  11.189   4.041
43609W        W15225  34.125  16.508  14.411
43610W        W15226   1.065  32.829  11.085
43611W        W15227  41.076  23.084  13.760
43612W        W15228  41.289   9.776  11.570
43613W        W15229  44.954  35.856   3.249
43614W        W15230  30.995  38.968   0.917
43615W        W15231  14.199  12.405   1.714
43616W        W15232  26.598  19.041  14.056
43617W        W15233   8.804  24.416   0.986
43618W        W15234   9.603  25.258   5.161
43619W        W15235  17.559  23.010   4.288
43620W        W15236  33.576  31.692   2.648
43621W        W15237  31.519  39.749   3.675
43622W        W15238  23.031  37.401   0.546
43623W        W15239  13.506  39.538  11.895
43624W        W15240  33.034  22.345   2.778
43625W        W15241   3.895   4.991   2.802
43626W        W15242  34.550  37.847   4.661
43627W        W15243  15.164  16.372   1.836
43628W        W15244  12.336  41.389   1.216
43629W        W15245  19.757  16.486  14.877
43630W        W15246  15.747  24.474   4.630
43631W        W15247  34.204  13.077   4.607
43632W        W15248  26.658  19.358   0.418
43633W        W15249  17.884  28.911  14.733
43634W        W15250  39.927  37.016   4.174
43635W        W15251  30.388   1.708  12.504
43636W        W15252  22.783  25.254   0.639
43637W        W15253   5.955   0.325   3.276
43638W        W15254  11.760  38.809  13.333
43639W        W15255   9.569  31.273  10.563
43640W        W15256  28.407  33.633   1.833
43641W        W15257  14.974   0.328   0.420
43642W        W15258  33.341   0.009   0.861
43643W        W15259  34.478  34.534  11.998
43644W        W15260  13.220  41.721   3.719
43645W        W15261   4.296   5.846  13.439
43646W        W15262  15.347  38.508  11.645
43647W        W15263   0.262   3.798   1.995
43648W        W15264  22.415  32.150  11.560
43649W        W15265  38.304  18.721   4.209
43650W        W15266  28.914  27.949  13.982
43651W        W15267  43.071   7.365  13.851
43652W        W15268  26.558  42.377  14.340
43653W        W15269  21.709   8.923   0.496
43654W        W15270   0.800  27.352   2.827
43655W        W15271   8.777  17.665   4.620
43656W        W15272  21.704  16.619  13.883
43657W        W15273   4.043  29.959   1.773
43658W        W15274  39.831  17.336   4.186
43659W        W15275   8.456   9.125  10.960
43660W        W15276  40.750  20.058   2.870
43661W        W15277  15.282  41.447  12.206
43662W        W15278  33.176  18.491  12.880
43663W        W15279  13.874  42.985   2.931
43664W        W15280  39.361  24.033  13.262
43665W        W15281   9.772  15.890   0.753
43666W        W15282  22.578  29.445  12.116
43667W        W15283  25.462  21.032   0.368
43668W        W15284  17.287   4.672   2.711
43669W        W15285  32.320  36.486  11.677
43670W        W15286  16.711  11.708  12.338
43671W        W15287  28.798  17.068   5.439
43672W        W15288  37.075  24.550  14.710
43673W        W15289  14.306  28.047  10.727
43674W        W15290  36.605  28.424   1.632
43675W        W15291  35.949  10.793  10.489
43676W        W15292  34.543  33.422  12.051
43677W        W15293   6.938  30.999  10.774
43678W        W15294  13.101  15.590   1.896
43679W        W15295  36.531   9.507  14.060
43680W        W15296  20.344  34.934  13.829
43681W        W15297  23.467   6.702  13.935
43682W        W15298  36.177   1.029   3.325
43683W        W15299  29.630  43.064  12.918
43684W        W15300   0.728  25.989  11.019
43685W        W15301  29.072   3.339  14.979
43686W        W15302   1.283  43.054  14.944
43687W        W15303   1.330  10.270   2.354
43688W        W15304  44.167   3.932  11.163
43689W        W15305  31.199  37.865  12.445
43690W        W15306  44.475  32.913  10.886
43691W        W15307  32.470  36.362  12.154
43692W        W15308   3.663  24.724   2.667
43693W        W15309  41.991  17.571  14.927
43694W        W15310  17.342  44.209   1.243
43695W        W15311  14.921  20.984   2.774
43696W        W15312   6.894  25.622   2.838
43697W        W15313  15.842   1.203   1.424
43698W        W15314  42.863  19.333   4.102
43699W        W15315  28.012  41.396   2.373
43700W        W15316  43.173  12.381  12.472
43701W        W15317   6.263  41.986  12.134
43702W        W15318   9.665  40.596  14.833
43703W        W15319  32.977  19.718  13.864
43704W        W15320  24.112  21.498   2.236
43705W        W15321  26.678   7.375  10.732
43706W        W15322  28.426  39.935  11.950
43707W        W15323  18.086  13.677   2.807
43708W        W15324  24.625  22.559   0.870
43709W        W15325  43.800  44.795  13.440
43710W        W15326  15.556  43.779   0.444
43711W        W15327  39.364  38.500   0.679
43712W        W15328  42.437   3.287  12.966
43713W        W15329  43.006  37.216   1.126
43714W        W15330  28.848  24.692  14.331
43715W        W15331  26.927  12.850  12.084
43716W        W15332   4.210   3.020   4.550
43717W        W15333   9.804  33.706   2.433
43718W        W15334   3.244   4.755  10.747
43719W        W15335  13.679  17.299  14.589
43720W        W15336  12.084  28.651   4.716
43721W        W15337  43.431  13.217   4.631
43722W        W15338  29.217  23.708  11.098
43723W        W15339  43.423  40.396  13.122
43724W        W15340  18.982  32.517   1.206
43725W        W15341  28.128  18.318   4.060
43726W        W15342  33.206  25.708   0.279
43727W        W15343  24.793  39.192  11.653
43728W        W15344  14.609   7.336  12.931
43729W        W15345   2.496  29.434  14.316
43730W        W15346   0.017  18.774  14.810
43731W        W15347  22.567  38.527   0.233
43732W        W15348  26.655  41.464  12.777
43733W        W15349  36.467  32.546   3.310
43734W        W15350  41.946   8.490  12.001
43735W        W15351  16.599   0.240  12.978
43736W        W15352  43.575  16.059  12.580
43737W        W15353  13.580  19.385  14.264
43738W        W15354  43.850  12.293   2.313
43739W        W15355  40.715  29.469   0.733
43740W        W15356  23.931  21.071   1.274
43741W        W15357   9.146  17.978  11.538
43742W        W15358  25.683   5.976  10.525
43743W        W15359  22.519  27.233   0.403
43744W        W15360   5.799  30.086   2.376
43745W        W15361   3.880  33.730  13.919
43746W        W15362   6.488  21.261   0.177
43747W        W15363  29.036  38.928   3.183
43748W        W15364  37.827  21.011   2.709
43749W        W15365  25.436  38.541   0.693
43750W        W15366  31.782  21.321  11.838
43751W        W15367   4.143  43.466   0.023
43752W        W15368  42.477   3.863   2.631
43753W        W15369   9.738   8.404   3.250
43754W        W15370   3.098  20.853   4.534
43755W        W15371  27.270  23.658  12.704
43756W        W15372  43.822  41.831  13.297
43757W        W15373  11.771  16.259  14.567
43758W        W15374  11.585  17.961  10.299
43759W        W15375   7.219  18.578   2.782
43760W        W15376  13.285  35.038   0.415
43761W        W15377  18.306   3.025  12.704
43762W        W15378  40.218  19.531   3.403
43763W        W15379   8.404  29.757   2.755
43764W        W15380  14.650  33.291  14.783
43765W        W15381  34.859  19.056   1.272
43766W        W15382  10.260  16.630  13.916
43767W        W15383   8.360  10.258   0.303
43768W        W15384  29.199  19.301   1.442
43769W        W15385  27.497  20.462   2.195
43770W        W15386  34.379  28.183  10.668
43771W        W15387  10.345  38.459  12.916
43772W        W15388  16.876  37.174  13.698
43773W        W15389   0.920   1.429   4.532
43774W        W15390   0.166  36.482  14.262
43775W        W15391  40.358  41.552  10.941
43776W        W15392   5.230  40.989  12.227
43777W        W15393  10.310   7.841  14.392
43778W        W15394   2.760  14.764  12.562
43779W        W15395  11.169  22.568   3.311
43780W        W15396  24.292  35.435   2.877
43781W        W15397  38.128  19.308   1.242
43782W        W15398   2.910  38.918  13.126
43783W        W15399  14.276  24.257  13.159
43784W        W15400  29.435  32.792   2.738
43785W        W15401  32.113  12.419   1.132
43786W        W15402  33.434  14.761  12.061
43787W        W15403  43.723  44.184  10.590
43788W        W15404  13.682  10.115  12.693
43789W        W15405  33.126  12.750  11.364
43790W        W15406   5.077  18.018  12.654
43791W        W15407  16.232  34.063   3.330
43792W        W15408  22.771  25.939  13.837
43793W        W15409  26.601   0.814  10.813
43794W        W15410  13.149  35.899  10.382
43795W        W15411  29.449   2.193   4.612
43796W        W15412  15.355  40.159  13.953
43797W        W15413  23.111  10.188   4.809
43798W        W15414  24.500  19.781   4.774
43799W        W15415  26.121  41.662  14.958
43800W        W15416  19.510   5.474  10.398
43801W        W15417  27.686  34.576   2.721
43802W        W15418  36.442  40.836   2.219
43803W        W15419  18.346   6.405   0.918
43804W        W15420  23.552  28.672   3.236
43805W        W15421  13.227   0.307   2.713
43806W        W15422  11.602   8.307   0.946
43807W        W15423   3.219  23.158   2.403
43808W        W15424  40.280  30.644   4.572
43809W        W15425  27.096   7.666   3.572
43810W        W15426  43.391  17.777   3.731
43811W        W15427  18.276   6.483  11.147
43812W        W15428  27.049  40.003   4.423
43813W        W15429  44.278  15.146  11.933
43814W        W15430  43.964  27.605  14.856
43815W        W15431   8.291  15.664   1.415
43816W        W15432  19.111  43.197  11.915
43817W        W15433  43.339  42.171   2.280
43818W        W15434  10.431  17.602   4.482
43819W        W15435  33.790  23.292   2.604
43820W        W15436  13.315  34.185   2.350
43821W        W15437  18.197  21.056   4.052
43822W        W15438   4.523  16.491  13.499
43823W        W15439  33.452  43.810   4.575
43824W        W15440  21.001   0.409   3.607
43825W        W15441  28.309  32.093   5.076
43826W        W15442   9.380  23.267   1.649
43827W        W15443  30.445  32.168   1.784
43828W        W15444   1.512   6.303   3.740
43829W        W15445  29.425   1.257   1.364
43830W        W15446  21.829   6.641  10.604
43831W        W15447   0.050  25.053   4.967
43832W        W15448   2.849   1.175  12.503
43833W        W15449  42.791  36.837  13.061
43834W        W15450   1.831  39.825   0.821
43835W        W15451  34.515  31.049   4.337
43836W        W15452  34.613  18.287   0.377
43837W        W15453  32.643   2.948   3.325
43838W        W15454  35.582  31.976  11.196
43839W        W15455  15.367  15.154   2.740
43840W        W15456  36.323  13.610  13.960
43841W        W15457  28.488  15.163   0.187
43842W        W15458  12.321  23.049  14.710
43843W        W15459  28.734  42.552  11.943
43844W        W15460  27.706  14.746  13.584
43845W        W15461  24.473  11.725  10.738
43846W        W15462  33.960  24.207  10.619
43847W        W15463  11.832   0.751   2.243
43848W        W15464   6.131   9.920  14.927
43849W        W15465   2.699  22.015  12.444
43850W        W15466  10.185  30.638   2.333
43851W        W15467  27.669  27.441  11.491
43852W        W15468  28.566  15.071  11.572
43853W        W15469  44.713   6.998   4.200
43854W        W15470  33.358  27.424  11.181
43855W        W15471  35.604  26.007   2.170
43856W        W15472  23.740  44.352  12.390
43857W        W15473  13.743  22.645   2.320
43858W        W15474  21.719  10.905  11.622
43859W        W15475  12.922  23.203  12.442
43860W        W15476  27.932  13.045  14.499
43861W        W15477   2.457  23.014  10.775
43862W        W15478  34.367   4.446   2.726
43863W        W15479  37.937  15.297  13.816
43864W        W15480  42.952  41.935  12.783
43865W        W15481   9.914  23.815  13.903
43866W        W15482  26.504  36.376  11.211
43867W        W15483  42.064  18.163   0.397
43868W        W15484  41.017   9.289   2.607
43869W        W15485  26.425   2.513   1.513
43870W        W15486  17.820  29.919  13.847
43871W        W15487   2.542  22.833  12.031
43872W        W15488  44.939   9.411   3.322
43873W        W15489  19.209  17.597   0.360
43874W        W15490  38.636  34.070  13.951
43875W        W15491  39.755   5.433   2.713
43876W        W15492  33.153  36.339   0.687
43877W        W15493  25.053  42.613   3.367
43878W        W15494   7.146  26.557   0.786
43879W        W15495  37.081   5.337  14.377
43880W        W15496  40.540  34.155   1.745
43881W        W15497  11.675  22.742   3.288
43882W        W15498   8.143   2.929   1.789
43883W        W15499  32.286  12.237   1.617
43884W        W15500   4.726  12.814  12.969
43885W        W15501  34.015  19.473   3.220
43886W        W15502  29.583  21.594   0.057
43887W        W15503  26.102  15.395   2.727
43888W        W15504  38.201  30.009   3.018
43889W        W15505  34.724   1.486  13.003
43890W        W15506  31.142  24.915   4.117
43891W        W15507  37.056  18.451   4.558
43892W        W15508  23.169  24.419  13.501
43893W        W15509  40.398  39.807   1.405
43894W        W15510  44.426  32.596   3.305
43895W        W15511  29.115  10.775   1.444
43896W        W15512  38.821  32.863  14.813
43897W        W15513  18.141  37.262   4.424
43898W        W15514  27.157  37.001  13.344
43899W        W15515  20.019  28.925  14.079
43900W        W15516  10.898  36.458  12.591
43901W        W15517   9.992   5.813  14.814
43902W        W15518  25.695  38.459   3.307
43903W        W15519  44.810  22.760  14.306
43904W        W15520  29.236  39.084  13.609
43905W        W15521   6.959  44.519  13.410
43906W        W15522   6.133  33.194   3.784
43907W        W15523  16.622  41.091   2.858
43908W        W15524   4.401  28.160   4.379
43909W        W15525  18.779  16.138  10.457
43910W        W15526  24.161   9.243  10.426
43911W        W15527  11.161  39.033   4.569
43912W        W15528  19.778  27.877   3.711
43913W        W15529  27.109  39.565  14.865
43914W        W15530  12.662  40.487  12.407
43915W        W15531  13.826  30.167   4.564
43916W        W15532   2.962   2.904   1.811
43917W        W15533  42.774  19.994   2.540
43918W        W15534  33.010  34.017   0.345
43919W        W15535  11.289   7.175  10.367
43920W        W15536  11.188  40.909  13.944
43921W        W15537  33.070  31.562  11.254
43922W        W15538  14.093  29.853   4.183
43923W        W15539  44.027   2.368   1.346
43924W        W15540  24.615  44.804  12.183
43925W        W15541   2.987  13.749  13.268
43926W        W15542  30.204  25.529  11.502
43927W        W15543  17.429  11.590  10.863
43928W        W15544  22.073  31.513  12.844
43929W        W15545  31.151   7.993   1.311
43930W        W15546  29.182  13.862   2.396
43931W        W15547  33.867  13.761   0.770
43932W        W15548  34.433  24.020   0.322
43933W        W15549  13.180  28.656  13.496
43934W        W15550  38.353  26.661  10.112
43935W        W15551   3.937   0.403  12.862
43936W        W15552   4.353  14.765   1.327
43937W        W15553  24.676   1.915  10.608
43938W        W15554  10.448   6.838  14.737
43939W        W15555  40.502   8.306   3.396
43940W        W15556  27.997  37.339   4.509
43941W        W15557   0.254  25.702   2.888
43942W        W15558  31.930  21.506   3.418
43943W        W15559  40.470  39.555   4.606
43944W        W15560  23.105  29.422  11.042
43945W        W15561  13.259  43.560   4.145
43946W        W15562  23.952  15.654  13.450
43947W        W15563  38.935   8.551  12.878
43948W        W15564   5.800  44.483  11.732
43949W        W15565  44.675  33.278   1.355
43950W        W15566  39.955  14.553   4.590
43951W        W15567  16.970  27.014  14.022
43952W        W15568  37.485  16.362  11.141
43953W        W15569  42.618  43.527  13.901
43954W        W15570  31.895   6.414  13.345
43955W        W15571   1.592   5.105  10.957
43956W        W15572  18.826  30.239   1.843
43957W        W15573  30.643  12.320  13.463
43958W        W15574  40.560  18.023  11.532
43959W        W15575  10.455  30.630  13.507
43960W        W15576  35.547  34.819  12.376
43961W        W15577  17.117  30.705  12.988
43962W        W15578  30.008  15.116   2.191
43963W        W15579  24.202  12.601   3.558
43964W        W15580  25.704  42.081   2.927
43965W        W15581   2.212  44.907   3.228
43966W        W15582  18.568  13.213   0.572
43967W        W15583  25.499  37.519  10.286
43968W        W15584   0.161  18.100   0.433
43969W        W15585  13.866  42.766  11.179
43970W        W15586   6.158  14.391   4.278
43971W        W15587  31.950  35.651   4.159
43972W        W15588   3.478  24.623   1.304
43973W        W15589  36.146   1.916   0.390
43974W        W15590  22.791  41.921   4.174
43975W        W15591  26.549  30.053  13.445
43976W        W15592  36.953  29.642   0.397
43977W        W15593  31.094  32.968   4.091
43978W        W15594   8.957  28.381  14.252
43979W        W15595  29.077  12.140   0.132
43980W        W15596   4.299  37.021   1.630
43981W        W15597  19.865   7.278   0.805
43982W        W15598  11.120  16.751  12.407
43983W        W15599  37.793  33.994   2.220
43984W        W15600   2.716   3.335  14.773
43985W        W15601   5.255  43.987   2.326
43986W        W15602  35.372  28.827  12.285
43987W        W15603  28.420  13.639   1.939
43988W        W15604  42.056  35.986  13.622
43989W        W15605  21.588  16.916  11.507
43990W        W15606  26.492  12.952  10.759
43991W        W15607  23.551  41.339   2.361
43992W        W15608  18.095   2.510  11.686
43993W        W15609  14.013   4.170   3.711
43994W        W15610  29.604   8.070   3.758
43995W        W15611   9.380  40.988  13.860
43996W        W15612  39.681  27.190   1.863
43997W        W15613  36.488  15.604  10.685
43998W        W15614   6.349  40.175   5.033
43999W        W15615  37.322  17.182   3.761
44000W        W15616  26.557   7.910   2.866
44001W        W15617  34.292  40.106  11.115
44002W        W15618  10.651   6.109  11.063
44003W        W15619  35.124  44.010  13.377
44004W        W15620   6.841  11.275  12.639
44005W        W15621  18.597   5.301  13.403
44006W        W15622   0.003  28.829  13.420
44007W        W15623  29.193  28.701  13.633
44008W        W15624  41.948  14.198  12.122
44009W        W15625  37.960  14.470  12.772
44010W        W15626  15.380  19.642  13.491
44011W        W15627  26.518  35.430   4.239
44012W        W15628  33.963  24.542  11.052
44013W        W15629  37.838   0.031   2.278
44014W        W15630   1.339  29.496   0.201
44015W        W15631   2.185  14.751  10.724
44016W        W15632   1.139   0.940   3.289
44017W        W15633  24.455  26.754  12.572
44018W        W15634  34.474  35.151  12.626
44019W        W15635  11.333   3.244   1.578
44020W        W15636  36.312  23.404  12.135
44021W        W15637  25.445  41.874   3.323
44022W        W15638  38.393  32.842  13.458
44023W        W15639  25.729  27.671   2.203
44024W        W15640  26.698  15.257  11.142
44025W        W15641   3.193  14.253  11.437
44026W        W15642  40.157  25.209   3.719
44027W        W15643   9.799  12.870  11.613
44028W        W15644  40.875  27.706   2.307
44029W        W15645  24.708   9.673   4.745
44030W        W15646  43.416  23.198  11.479
44031W        W15647  44.283   8.899  11.612
44032W        W15648  13.778  32.990  11.548
44033W        W15649  33.457  44.702   4.426
44034W        W15650  38.339   4.187   0.918
44035W        W15651  23.920  40.732  14.364
44036W        W15652  39.688   9.696   4.508
44037W        W15653  31.428  26.570  11.517
44038W        W15654  28.061  21.248   3.741
44039W        W15655   8.465  44.411  12.482
44040W        W15656  27.069   9.034   1.749
44041W        W15657  40.825  38.483   0.269
44042W        W15658   5.804  44.303   0.221
44043W        W15659  11.076  17.032  11.551
44044W        W15660  44.302   2.991  11.959
44045W        W15661  18.222   6.548   2.919
44046W        W15662  22.456  44.714  12.075
44047W        W15663  21.768  34.803   1.253
44048W        W15664  36.741   6.079  13.942
44049W        W15665  36.999  31.740  11.030
44050W        W15666  41.794  43.368   4.085
44051W        W15667   3.933   1.867   2.846
44052W        W15668  38.876  39.437  10.653
44053W        W15669  10.618  25.197  13.917
44054W        W15670  15.733   5.705   9.558
44055W        W15671  19.162   7.907   0.756
44056W        W15672   2.718  18.826  12.017
44057W        W15673  19.228  42.510   2.358
44058W        W15674  29.000  31.153   1.495
44059W        W15675  41.824  11.800  14.980
44060W        W15676  10.409  10.234  11.467
44061W        W15677  36.813  33.058   1.384
44062W        W15678  20.253  36.322   0.693
44063W        W15679  44.957  44.027  12.822
44064W        W15680  26.681   8.008   5.153
44065W        W15681  12.268  30.054  14.957
44066W        W15682   3.486   3.236  10.694
44067W        W15683  35.594  30.468   2.859
44068W        W15684  40.521  16.907   4.735
44069W        W15685  15.860  23.406  11.773
44070W        W15686  13.264  35.957  12.627
44071W        W15687  23.776  44.553   3.642
44072W        W15688  37.812   9.703  13.336
44073W        W15689   9.662  39.788   4.607
44074W        W15690  34.794  39.353  11.681
44075W        W15691   9.140  12.350   0.476
44076W        W15692   0.447  43.409   4.933
44077W        W15693   1.436  38.344  13.374
44078W        W15694  25.089   4.899   1.933
44079W        W15695   4.848  26.496   1.882
44080W        W15696   3.792  43.511  13.435
44081W        W15697   7.153  43.037  12.540
44082W        W15698  19.203  34.389   0.459
44083W        W15699  21.350  18.178  13.470
44084W        W15700   1.447  24.545  12.436
44085W        W15701  40.971  13.550  13.802
44086W        W15702  12.276  12.296   4.834
44087W        W15703  36.117  42.322  11.497
44088W        W15704  18.478  30.115  13.049
44089W        W15705  15.609  35.713  10.457
44090W        W15706  11.649   3.691  13.410
44091W        W15707   0.867  39.899   0.662
44092W        W15708  40.275  40.629  12.964
44093W        W15709   4.275  23.784   3.732
44094W        W15710  10.908  15.800   1.488
44095W        W15711  15.170  33.639  12.657
44096W        W15712  25.477   3.483  11.898
44097W        W15713  24.956   1.044  12.456
44098W        W15714   8.866  27.504   4.073
44099W        W15715  31.477  12.893   4.222
44100W        W15716  39.468  15.756  14.072
44101W        W15717  44.955   6.413  10.476
44102W        W15718  30.618   5.768   2.480
44103W        W15719  25.422   4.929  13.842
44104W        W15720  32.665  35.390  12.989
44105W        W15721   5.381  18.899  10.691
44106W        W15722  35.615  18.102   0.801
44107W        W15723  40.045  39.067   1.186
44108W        W15724  11.197  11.379  12.550
44109W        W15725   7.974   2.711   4.278
44110W        W15726  18.242  16.239   1.828
44111W        W15727  11.917   0.288   0.849
44112W        W15728   4.198  23.011  14.449
44113W        W15729   7.322  30.429   3.078
44114W        W15730  21.629  42.370   1.491
44115W        W15731  15.353  17.295  13.356
44116W        W15732  12.024  13.324   1.350
44117W        W15733   8.842  34.442   2.414
44118W        W15734  43.355  12.274  13.159
44119W        W15735  42.340   8.745  14.160
44120W        W15736  16.022  11.293  13.509
44121W        W15737  15.906  17.969   2.405
44122W        W15738  36.963  37.461  10.357
44123W        W15739  11.164  12.359  14.247
44124W        W15740  30.508  42.470   2.782
44125W        W15741  35.506  11.733  10.982
44126W        W15742  41.827  11.896   0.494
44127W        W15743   0.235  43.367  12.045
44128W        W15744  44.745   3.038  12.903
44129W        W15745  25.644  28.492  12.038
44130W        W15746  40.408  17.107  11.619
44131W        W15747  37.487  18.000  12.036
44132W        W15748  41.419   0.179  12.987
44133W        W15749  43.476  22.361   1.533
44134W        W15750  42.752   1.344   2.692
44135W        W15751  16.396   6.511   0.880
44136W        W15752  27.330  37.152   1.927
44137W        W15753   9.462   8.925   3.792
44138W        W15754  31.891  44.553  14.833
44139W        W15755  29.793   9.116   4.591
44140W        W15756  38.929   1.709   2.759
44141W        W15757  19.736   8.201  10.647
44142W        W15758  24.441   0.557  12.033
44143W        W15759  14.496  28.544  11.655
44144W        W15760  15.616  39.091  11.095
44145W        W15761  38.983  41.433  13.278
44146W        W15762  37.400  18.514   0.700
44147W        W15763  12.922  37.446  14.945
44148W        W15764  29.678   0.697  13.758
44149W        W15765  14.649  19.662   2.282
44150W        W15766  10.212  10.286  14.259
44151W        W15767   5.913   0.854   3.471
44152W        W15768  35.737  24.797  12.379
44153W        W15769   2.331  38.046   0.786
44154W        W15770   7.157  11.193  13.526
44155W        W15771  14.014  34.829   5.106
44156W        W15772  20.335  20.190  11.209
44157W        W15773  40.331  39.785   0.001
44158W        W15774  31.027  29.190  10.729
44159W        W15775  28.544   4.296  13.363
44160W        W15776  20.006   0.045  13.007
44161W        W15777  23.158  31.895  14.728
44162W        W15778  38.966  36.358  14.773
44163W        W15779  42.731   0.565  11.107
44164W        W15780  19.674  13.124   4.697
44165W        W15781  30.436  15.893  11.488
44166W        W15782  28.745  36.815  12.462
44167W        W15783   6.109  19.278   0.370
44168W        W15784   6.282   2.706  13.434
44169W        W15785  15.427   1.420   1.167
44170W        W15786  37.864  27.923  14.028
44171W        W15787  11.557   2.619  13.080
44172W        W15788  15.599  10.292   0.835
44173W        W15789  35.439  25.659  13.421
44174W        W15790  25.698  18.246  14.799
44175W        W15791  17.601   6.873  10.726
44176W        W15792   6.181  18.734   4.046
44177W        W15793  19.172  24.761  11.614
44178W        W15794  43.295  24.153   0.787
44179W        W15795  43.173  39.582   2.723
44180W        W15796  25.366  12.264   0.853
44181W        W15797  36.754  19.713  13.996
44182W        W15798   9.185  32.645   4.592
44183W        W15799  11.885  29.985   2.809
44184W        W15800  27.259  21.213   0.881
44185W        W15801   5.318  31.997  12.867
44186W        W15802   3.233  15.655   4.223
44187W        W15803  39.841  22.405   2.004
44188W        W15804  19.516  34.139  10.759
44189W        W15805  11.303  12.308  10.702
44190W        W15806   0.240   4.891   2.322
44191W        W15807  21.146   0.546  10.811
44192W        W15808   3.233  38.740   4.939
44193W        W15809  15.235  20.201   1.492
44194W        W15810  19.480  23.221   4.486
44195W        W15811   3.410   0.181  13.988
44196W        W15812  36.975  19.021   3.630
44197W        W15813  24.104  28.066   1.433
44198W        W15814   9.106  39.311   0.238
44199W        W15815  23.592   3.282   0.065
44200W        W15816   2.950  32.528   2.586
44201W        W15817  13.837   6.008  12.183
44202W        W15818  13.272  22.023   3.733
44203W        W15819  33.661   8.893  12.205
44204W        W15820  41.689  25.084   2.404
44205W        W15821  32.661  14.162  14.865
44206W        W15822  31.003   1.702  10.332
44207W        W15823  28.567  34.061   2.713
44208W        W15824  43.285  40.843  13.332
44209W        W15825  44.226   1.939   4.145
44210W        W15826   1.083  29.580   4.027
44211W        W15827  39.294  18.772   4.088
44212W        W15828  36.348  18.643   4.367
44213W        W15829   0.635  29.956   4.207
44214W        W15830  41.459  42.997  11.388
44215W        W15831  36.146  30.329   1.671
44216W        W15832  40.822  35.964  11.051
44217W        W15833   2.248  30.057   3.260
44218W        W15834  23.136  39.078  12.106
44219W        W15835   1.719  10.104  13.879
44220W        W15836  40.880  18.187  12.815
44221W        W15837  22.089  15.937  11.059
44222W        W15838  37.805  34.736  14.965
44223W        W15839  17.343  18.628  10.044
44224W        W15840   5.636   3.890  14.371
44225W        W15841  25.685  41.703  12.473
44226W        W15842  31.710  32.052   0.816
44227W        W15843  26.925   9.395  12.615
44228W        W15844  30.014  25.611  12.597
44229W        W15845  24.359   6.368  14.912
44230W        W15846   9.825  36.586  11.812
44231W        W15847  31.351   3.424  10.883
44232W        W15848  20.995  15.575  14.268
44233W        W15849   1.526  17.976  11.182
44234W        W15850  42.870  25.408   2.224
44235W        W15851  14.858  24.943   3.376
44236W        W15852  22.478   1.953  12.977
44237W        W15853  23.029  31.585  11.923
44238W        W15854  44.169   7.139  10.482
44239W        W15855   7.349  16.721  12.491
44240W        W15856  24.665   2.943  12.081
44241W        W15857   6.270  22.099  10.537
44242W        W15858  40.789  42.503  10.653
44243W        W15859  20.062  44.215  14.870
44244W        W15860  14.705   3.523  12.577
44245W        W15861  31.807  25.541  13.043
44246W        W15862  27.353  24.218   0.219
44247W        W15863  21.671  23.198   2.690
44248W        W15864   0.314   6.625  14.879
44249W        W15865   0.761  35.639   2.681
44250W        W15866   0.516  25.332  13.962
44251W        W15867  29.177  14.375   5.449
44252W        W15868  11.555  31.027  10.694
44253W        W15869  21.834  25.687   4.324
44254W        W15870  35.602   1.747   1.892
44255W        W15871   6.246  32.077   3.168
44256W        W15872   5.202  36.106   1.995
44257W        W15873  24.573  30.118   3.119
44258W        W15874  18.639  28.085   4.313
44259W        W15875  37.438  25.732  12.738
44260W        W15876   6.608  35.874   1.713
44261W        W15877  22.821  26.725  11.804
44262W        W15878  30.041   3.120  11.124
44263W        W15879  36.061  24.275   0.436
44264W        W15880  36.467  42.844  12.843
44265W        W15881   3.986  24.592  12.359
44266W        W15882  15.124  31.088  13.395
44267W        W15883  25.080  18.506  12.180
44268W        W15884  18.522  32.499   2.778
44269W        W15885  30.984  28.568   0.215
44270W        W15886  21.460  24.221   3.161
44271W        W15887  33.115   6.637  14.021
44272W        W15888  23.713   4.270   1.334
44273W        W15889  18.107  40.294   2.736
44274W        W15890  29.042  13.708   4.814
44275W        W15891  27.155  29.453  11.993
44276W        W15892  17.666  38.953  13.946
44277W        W15893   6.261  27.662  14.553
44278W        W15894  40.437  40.348  11.592
44279W        W15895  18.539  16.121   1.393
44280W        W15896   6.492  12.131  14.397
44281W        W15897   1.722  41.793  13.922
44282W        W15898  38.941  42.820   5.026
44283W        W15899  43.186  11.976   2.938
44284W        W15900  25.201  24.683   2.364
44285W        W15901  29.030  22.747   2.370
44286W        W15902  14.926  33.995  12.966
44287W        W15903  44.830  22.562   2.982
44288W        W15904  13.768  29.471  14.945
44289W        W15905  11.027  14.614   0.256
44290W        W15906  16.214  29.490   0.686
44291W        W15907  44.752  37.371   0.733
44292W        W15908  13.302  44.003   3.073
44293W        W15909  30.126   6.965   2.405
44294W        W15910   0.228  35.981  12.311
44295W        W15911  39.479  44.040  12.232
44296W        W15912  36.119  16.660   0.862
44297W        W15913  10.702  29.475  10.906
44298W        W15914  38.381  28.457  13.552
44299W        W15915  23.740  12.238  10.451
44300W        W15916  18.078  33.521  11.888
44301W        W15917  16.471   4.272  11.614
44302W        W15918  39.337  28.217  11.632
44303W        W15919  12.125  14.926   2.437
44304W        W15920  35.172  23.606   1.365
44305W        W15921  40.361  24.584   3.128
44306W        W15922  20.702  37.974  11.937
44307W        W15923  34.236  17.188  10.527
44308W        W15924  41.209  15.854  13.798
44309W        W15925  21.577  34.640   0.277
44310W        W15926  34.480  12.511  14.911
44311W        W15927   3.044  19.719  10.714
44312W        W15928   7.822  12.095  12.961
44313W        W15929   6.399  42.813   4.168
44314W        W15930  31.989  11.329  11.042
44315W        W15931  34.548  21.700   3.278
44316W        W15932   7.997  42.482  10.689
44317W        W15933  38.059  37.955   2.816
44318W        W15934  32.370  26.553   2.775
44319W        W15935  15.809  12.883  10.666
44320W        W15936  19.343  43.702  12.777
44321W        W15937  22.764  10.299  13.071
44322W        W15938  28.778  35.020  13.429
44323W        W15939  35.478  10.432   4.617
44324W        W15940  39.372  10.792   3.613
44325W        W15941  20.512  39.076  14.906
44326W        W15942  24.553   6.746  13.294
44327W        W15943  38.395  13.560  13.630
44328W        W15944   4.671  44.491   3.199
44329W        W15945  27.538  11.844  14.304
44330W        W15946   3.136  28.930   1.364
44331W        W15947  10.797  11.215   4.181
44332W        W15948  36.774  21.178   3.715
44333W        W15949  44.967  14.245   0.376
44334W        W15950  44.773  36.541   2.248
44335W        W15951  23.388   2.880  14.367
44336W        W15952  23.143  35.910  11.177
44337W        W15953  32.808  30.261   9.864
44338W        W15954   2.264  15.354   3.739
44339W        W15955   9.133  41.292   0.915
44340W        W15956  21.141  10.182   1.448
44341W        W15957   4.386  15.988  12.034
44342W        W15958   4.568  44.545   5.091
44343W        W15959   0.685   3.383   0.070
44344W        W15960   2.734  17.544  11.582
44345W        W15961   4.433   9.266   2.802
44346W        W15962  40.147   1.306  11.226
44347W        W15963  29.120  28.145   4.279
44348W        W15964  19.177   5.194  14.038
44349W        W15965  17.703  23.248   3.838
44350W        W15966  28.398  32.467  13.033
44351W        W15967  15.515   4.405   5.057
44352W        W15968  40.727   3.889   1.107
44353W        W15969  20.482  44.851   2.764
44354W        W15970   6.721   3.869   3.808
44355W        W15971  37.274  40.464   3.595
44356W        W15972  29.152  24.193   4.422
44357W        W15973  15.769  37.948   0.803
44358W        W15974   7.220  16.509   4.535
44359W        W15975  33.842  37.985   4.092
44360W        W15976  26.255  16.288  13.095
44361W        W15977  41.938  34.143   0.007
44362W        W15978  13.252  25.097  12.964
44363W        W15979  19.981  12.220  11.721
44364W        W15980  29.568  13.937  10.664
44365W        W15981  39.566  19.536  14.958
44366W        W15982  18.367  42.904   0.358
44367W        W15983  18.950   5.297   2.779
44368W        W15984  25.469  37.039   1.309
44369W        W15985  12.731  26.918   1.787
44370W        W15986  30.542  35.374  12.134
44371W        W15987  26.105  38.797   3.083
44372W        W15988  39.536  11.330  10.037
44373W        W15989   2.195   1.267  10.657
44374W        W15990  43.247  38.182  11.097
44375W        W15991  44.590   7.794  14.836
44376W        W15992  18.553   6.312  13.336
44377W        W15993  28.109  29.043   1.899
44378W        W15994  30.398  35.970   0.250
44379W        W15995  15.487   4.004  10.448
44380W        W15996  16.168  43.702  10.356
44381W        W15997  19.032   4.169  12.862
44382W        W15998  18.783  33.536  10.371
44383W        W15999  39.812   9.648   0.892
44384W        W16000  17.142  21.531  12.499
44385W        W16001  11.901   1.009  12.022
44386W        W16002   4.915  14.390  13.214
44387W        W16003  33.938  38.029  11.553
44388W        W16004  36.598  35.823  10.359
44389W        W16005  37.401   3.396  10.822
44390W        W16006  38.803  26.970  11.003
44391W        W16007  42.974   9.094  11.232
44392W        W16008  32.316   1.180   0.265
44393W        W16009  32.909  31.405  13.523
44394W        W16010  13.486  19.188  12.518
44395W        W16011  28.494  24.581   4.157
44396W        W16012  18.023  13.307   1.986
44397W        W16013  20.541  32.859   0.808
44398W        W16014   1.973  26.327   2.224
44399W        W16015  43.782  26.674  13.858
44400W        W16016  37.879  14.923   1.284
44401W        W16017  27.451  37.412  14.875
44402W        W16018   7.162  13.491   2.680
44403W        W16019   0.413   9.822   4.765
44404W        W16020  28.166  24.236  13.998
44405W        W16021  26.530  20.568   4.405
44406W        W16022  41.313  30.910   2.598
44407W        W16023  12.256  26.583   2.377
44408W        W16024  28.969  24.742   1.891
44409W        W16025  43.959  20.150  12.306
44410W        W16026  14.350  10.210   3.753
44411W        W16027  27.614  41.430   0.541
44412W        W16028  31.682  11.642   1.308
44413W        W16029  43.319  41.225  13.003
44414W        W16030  33.485   7.409  14.316
44415W        W16031  28.002  16.884  12.563
44416W        W16032   6.762  29.973  10.647
44417W        W16033  15.478  20.155   3.282
44418W        W16034  30.922  28.657  10.751
44419W        W16035   8.359  21.958   4.608
44420W        W16036  30.974  34.547  14.030
44421W        W16037  42.518   6.715   2.701
44422W        W16038   2.439  13.262  11.622
44423W        W16039  35.308   2.995  14.307
44424W        W16040  33.502   7.757  13.524
44425W        W16041   8.623  15.090   4.932
44426W        W16042  14.197  22.737  13.040
44427W        W16043  36.841  32.963  14.260
44428W        W16044  22.329  21.063   2.855
44429W        W16045  31.883   4.225   3.979
44430W        W16046  31.127   0.955  12.464
44431W        W16047  26.915  36.237   4.546
44432W        W16048  33.609  14.787  11.151
44433W        W16049  40.270  12.541   2.234
44434W        W16050  24.649   2.724   2.298
44435W        W16051  26.933   1.816  11.102
44436W        W16052  14.218   0.412  13.109
44437W        W16053  34.264  27.398  11.931
44438W        W16054  31.674  38.816   2.746
44439W        W16055  16.090   8.137   2.139
44440W        W16056   8.566  38.906  12.950
44441W        W16057   1.113  32.824   1.011
44442W        W16058  24.811   7.821   1.865
44443W        W16059  12.713   6.722   3.212
44444W        W16060   6.706  16.335   4.528
44445W        W16061  14.100  37.462  14.416
44446W        W16062  33.856  38.596  12.886
44447W        W16063  17.279  40.347  12.182
44448W        W16064  18.364  14.695   2.334
44449W        W16065  14.189   3.904  11.489
44450W        W16066  24.523  15.350   2.356
44451W        W16067  12.127  21.134  10.626
44452W        W16068   1.471  27.035  10.926
44453W        W16069  43.944  31.880   1.251
44454W        W16070  26.697  29.896   4.077
44455W        W16071  28.032  24.003  11.546
44456W        W16072  24.235   0.020   4.796
44457W        W16073  43.229  29.558   1.373
44458W        W16074  11.782  24.226  13.827
44459W        W16075  26.729   4.818   3.710
44460W        W16076   3.239  36.967   3.161
44461W        W16077  42.862  12.228   3.253
44462W        W16078  43.819   1.511   2.666
44463W        W16079  18.642  17.486  14.320
44464W        W16080  34.490  23.197  13.170
44465W        W16081  30.476  14.544  12.131
44466W        W16082  13.014  44.471  14.818
44467W        W16083  36.962  14.283   5.076
44468W        W16084  35.150  19.584   2.898
44469W        W16085   3.408  28.408  13.676
44470W        W16086   9.233   9.574   3.227
44471W        W16087   6.058  36.061  13.707
44472W        W16088   2.256  20.186  11.633
44473W        W16089  32.947  39.317  14.475
44474W        W16090  34.993  35.918   3.636
44475W        W16091  20.810  20.000  11.147
44476W        W16092  17.739   6.966  14.937
44477W        W16093  31.516  17.272   2.728
44478W        W16094  23.974   9.790   2.203
44479W        W16095  41.075  40.012  14.265
44480W        W16096  44.215  27.925  13.972
44481W        W16097  22.227  41.740  12.306
44482W        W16098   0.107  26.546  13.486
44483W        W16099   9.333  32.703   0.921
44484W        W16100  35.021  26.404  12.919
44485W        W16101   9.395  15.359  14.999
44486W        W16102  41.067   3.368  10.677
44487W        W16103  29.971  37.566   2.378
44488W        W16104  22.982  39.831  11.129
44489W        W16105  39.136   8.025   0.810
44490W        W16106  38.624  18.115   2.475
44491W        W16107  19.628  17.210   2.327
44492W        W16108   0.790  27.013   1.458
44493W        W16109   1.922  33.021   4.159
44494W        W16110  43.767  43.379  14.418
44495W        W16111  32.485  29.568   0.828
44496W        W16112  43.926  28.797   3.599
44497W        W16113  43.849   2.336  12.809
44498W        W16114  19.662  38.391   1.592
44499W        W16115  37.794  14.659   4.659
44500W        W16116  29.866   7.754  10.723
44501W        W16117   1.003   7.336  14.409
44502W        W16118  32.898  18.294  10.553
44503W        W16119  44.835   1.525  14.384
44504W        W16120  32.113  40.402   0.273
44505W        W16121  39.873  19.766  10.388
44506W        W16122  26.216  10.751   3.811
44507W        W16123   5.393  13.835   4.142
44508W        W16124  21.189  20.273  13.347
44509W        W16125   6.906  14.380   3.552
44510W        W16126  36.889  14.308   1.917
44511W        W16127  27.677   3.217   4.505
44512W        W16128  17.111  43.742  11.673
44513W        W16129  41.071  12.564   4.594
44514W        W16130   6.191  36.002   2.420
44515W        W16131  13.892  29.343  12.457
44516W        W16132   9.583  27.649  11.869
44517W        W16133  25.679   2.331  14.348
44518W        W16134  13.317  26.679   4.580
44519W        W16135  34.060  17.324   2.368
44520W        W16136   0.688  18.129   0.417
44521W        W16137  15.882   2.691   2.260
44522W        W16138  15.574   5.867   5.017
44523W        W16139  18.134  20.597  10.516
44524W        W16140   4.261   4.783   1.086
44525W        W16141  25.076   0.244   4.051
44526W        W16142  11.275  24.186  13.590
44527W        W16143  31.225  32.952   1.264
44528W        W16144  16.996  23.062   0.375
44529W        W16145  30.545  35.356   0.410
44530W        W16146  36.161  44.200   4.498
44531W        W16147  44.680   1.774  13.933
44532W        W16148  11.916  29.180   1.667
44533W        W16149  21.067  35.745  14.524
44534W        W16150  24.566  22.494   4.125
44535W        W16151   7.952  19.047   4.189
44536W        W16152  42.012  41.456  13.481
44537W        W16153  14.185  16.041  14.149
44538W        W16154  20.533   6.547   3.339
44539W        W16155   6.460  25.927   4.133
44540W        W16156  22.604  14.008   5.012
44541W        W16157  13.811  15.832  13.808
44542W        W16158  15.146  21.240   3.664
44543W        W16159  10.415   9.725   2.462
44544W        W16160  36.661  36.597  13.087
44545W        W16161  30.531   3.906  11.301
44546W        W16162   9.419  44.148  13.851
44547W        W16163  38.065   4.673   0.967
44548W        W16164  42.895  23.756  13.378
44549W        W16165   7.847  12.671  12.052
44550W        W16166  32.931   6.872   4.659
44551W        W16167  31.212  31.389   4.178
44552W        W16168  40.614  27.412  13.383
44553W        W16169  21.087   9.308  14.361
44554W        W16170   0.926  39.855  14.125
44555W        W16171  43.325  18.122   0.890
44556W        W16172  39.374  31.583  14.927
44557W        W16173  26.630  36.252   0.783
44558W        W16174  29.592  32.110   0.690
44559W        W16175  36.521  11.321   2.009
44560W        W16176  26.141  44.015   3.899
44561W        W16177  10.363  12.455  14.051
44562W        W16178   6.951  26.187  13.578
44563W        W16179   2.364  22.240   1.892
44564W        W16180  25.815  39.131  14.950
44565W        W16181  22.222  33.824   1.244
44566W        W16182   1.181   7.779   4.155
44567W        W16183  33.784  38.635   2.361
44568W        W16184  42.857   7.236  10.624
44569W        W16185   4.674  22.040   3.329
44570W        W16186   8.243  34.504   3.108
44571W        W16187  32.317  23.019   0.216
44572W        W16188  42.540   1.021   1.435
44573W        W16189  15.779   3.933   0.826
44574W        W16190  16.701  16.773  10.507
44575W        W16191   8.213  30.010  10.810
44576W        W16192  38.327  44.324   2.370
44577W        W16193  27.993   0.406   4.898
44578W        W16194   6.676  42.719   4.637
44579W        W16195  10.831  14.562   3.469
44580W        W16196  17.233  21.034  13.415
44581W        W16197  37.275  26.184   4.337
44582W        W16198  36.760   3.135   4.222
44583W        W16199  20.310  30.977   1.421
44584W        W16200   1.626  25.033  12.489
44585W        W16201  34.438  34.888   4.599
44586W        W16202  41.339  23.913   4.482
44587W        W16203   5.489  36.081  10.395
44588W        W16204  15.621  19.696  12.908
44589W        W16205   7.833   4.737   2.226
44590W        W16206  44.221  38.329   3.652
44591W        W16207   2.614  25.602  13.883
44592W        W16208  19.657   9.755   2.864
44593W        W16209  24.420  28.086  11.212
44594W        W16210  37.324  42.535  10.670
44595W        W16211  44.453  41.795   0.525
44596W        W16212  39.144  34.101   4.262
44597W        W16213  13.044   9.789  13.278
44598W        W16214  21.511  27.176  11.549
44599W        W16215  25.710   5.323  11.550
44600W        W16216   1.338  33.842  14.913
44601W        W16217  22.535  40.514   4.607
44602W        W16218   5.935  37.308  13.416
44603W        W16219  20.816   0.705   3.214
44604W        W16220  44.280   4.234   1.510
44605W        W16221  44.794  23.232  12.434
44606W        W16222  44.776  15.351  12.029
44607W        W16223  27.288  26.238  10.617
44608W        W16224   6.285  37.930  12.620
44609W        W16225   4.335  32.117  12.945
44610W        W16226  24.017   0.268  13.076
44611W        W16227  23.753  44.936  14.119
44612W        W16228   6.746   0.462  11.611
44613W        W16229  12.127  17.577  12.063
44614W        W16230  13.862  30.436  10.598
44615W        W16231  39.852   9.754  10.405
44616W        W16232  39.589  11.166   0.942
44617W        W16233  13.274   4.469   2.815
44618W        W16234  44.349  43.473   3.303
44619W        W16235  23.108  37.872  13.761
44620W        W16236  33.047  34.831   0.769
44621W        W16237  15.773  33.939   0.254
44622W        W16238  16.207   7.080   0.293
44623W        W16239   4.601  22.538  10.311
44624W        W16240  44.283  37.527  12.460
44625W        W16241  30.595   1.940  14.403
44626W        W16242  22.422  18.737   4.637
44627W        W16243  19.916  25.134   3.801
44628W        W16244  33.992  14.415  14.771
44629W        W16245  19.054  39.914  12.576
44630W        W16246  18.054  22.995   4.114
44631W        W16247  34.196  30.774   0.513
44632W        W16248  37.432  36.443  11.035
44633W        W16249  16.300   6.200  11.956
44634W        W16250  27.217   4.808   1.705
44635W        W16251   4.946  43.340   1.154
44636W        W16252   7.673  18.999  11.088
44637W        W16253  41.375  28.877  12.020
44638W        W16254  13.423  18.188   2.290
44639W        W16255  37.499  29.062   2.980
44640W        W16256  14.811   1.910   0.497
44641W        W16257  16.938   5.007   0.775
44642W        W16258  12.021  37.974  13.511
44643W        W16259  32.313  30.104   9.904
44644W        W16260  37.834   4.480  11.014
44645W        W16261   0.629  39.095   1.631
44646W        W16262   0.854  10.292   1.632
44647W        W16263  29.013   6.421  12.621
44648W        W16264  30.776  18.814   2.157
44649W        W16265   6.143  23.881  12.504
44650W        W16266  38.986   7.223   0.669
44651W        W16267  20.759  32.422  14.436
44652W        W16268   3.239  19.246  11.573
44653W        W16269  25.636   5.157   3.754
44654W        W16270   4.952   1.014   4.256
44655W        W16271  34.415   5.088  13.325
44656W        W16272  25.992  23.462   3.145
44657W        W16273  33.947   5.802  13.780
44658W        W16274  25.158  27.237   1.694
44659W        W16275  12.662  35.823  13.837
44660W        W16276  24.621   7.163  14.296
44661W        W16277  28.543   9.841  10.869
44662W        W16278  10.265  34.317  13.959
44663W        W16279  29.143  22.141  14.203
44664W        W16280  11.411  30.858  12.577
44665W        W16281  24.159  24.008  13.004
44666W        W16282  43.340   2.927  10.959
44667W        W16283   1.561   9.199  10.652
44668W        W16284  22.452  22.598   1.850
44669W        W16285  21.575  30.969   3.643
44670W        W16286  17.017   3.009   2.295
44671W        W16287  27.238  34.457  14.876
44672W        W16288  28.180  36.102  14.970
44673W        W16289  11.232  36.562  13.839
44674W        W16290  30.656  40.828  13.512
44675W        W16291   1.240  10.271  13.015
44676W        W16292  44.314   0.156   2.381
44677W        W16293  33.999  39.113  14.361
44678W        W16294  25.085  43.747   3.831
44679W        W16295  15.222   1.013   4.110
44680W        W16296  18.762  25.955   1.326
44681W        W16297  42.948  19.972  10.509
44682W        W16298  12.453   5.795   1.928
44683W        W16299   1.782  16.239   1.169
44684W        W16300  40.268  23.025  10.632
44685W        W16301  12.648  14.340  12.836
44686W        W16302  28.504  12.593  14.043
44687W        W16303   5.690  25.723   4.336
44688W        W16304  10.774  21.769  11.955
44689W        W16305  31.123  33.560  11.669
44690W        W16306  14.149  17.341  10.141
44691W        W16307  26.671   3.213   4.614
44692W        W16308  12.068  15.353   4.900
44693W        W16309  31.089   9.652   4.619
44694W        W16310  13.246  29.101   3.410
44695W        W16311  26.583  36.464  13.062
44696W        W16312  33.313  38.594  12.144
44697W        W16313   0.092  37.881  13.330
44698W        W16314   0.709  29.893  12.808
44699W        W16315   0.190  28.075   3.796
44700W        W16316  16.284  22.058   3.830
44701W        W16317  35.067  11.122  11.147
44702W        W16318  21.098  32.680   2.982
44703W        W16319  15.588  12.591  12.466
44704W        W16320  42.332  43.503   2.295
44705W        W16321  26.811  29.528  14.151
44706W        W16322  34.353  39.877   0.349
44707W        W16323   9.215  32.388   4.129
44708W        W16324  33.002   2.683  13.466
44709W        W16325  39.092  10.195   3.257
44710W        W16326   6.863  34.410   4.905
44711W        W16327  23.894   4.235   1.798
44712W        W16328  29.323  18.883   0.820
44713W        W16329  30.911   3.433  10.557
44714W        W16330  40.537  43.495  14.055
44715W        W16331  32.073   5.734   1.855
44716W        W16332  42.078  16.219  10.665
44717W        W16333   5.834  41.297   1.248
44718W        W16334  43.463  33.640   1.251
44719W        W16335   6.155  20.330  13.477
44720W        W16336   6.786   1.629   4.273
44721W        W16337  40.825  27.078  14.792
44722W        W16338  29.629  26.894   2.563
44723W        W16339  44.341  16.061  11.829
44724W        W16340  31.527  15.388  11.049
44725W        W16341  27.029   0.377  11.615
44726W        W16342   1.159  28.099  11.475
44727W        W16343  33.951  20.470  14.237
44728W        W16344  27.858  20.577  11.966
44729W        W16345   9.705  21.040  11.546
44730W        W16346  35.652   0.914  12.380
44731W        W16347   2.963   9.890  11.164
44732W        W16348  17.401  38.832  12.037
44733W        W16349  20.318  41.241  14.478
44734W        W16350  36.189  35.895   1.375
44735W        W16351  24.147  13.728   4.611
44736W        W16352  15.067  42.449   3.714
44737W        W16353  27.639  44.370   0.668
44738W        W16354   3.333  12.262   4.154
44739W        W16355  41.986  43.285   3.230
44740W        W16356   7.607  32.987  12.512
44741W        W16357   5.283  15.141   3.652
44742W        W16358  21.488  18.808  12.712
44743W        W16359  35.505   8.447   1.841
44744W        W16360   0.478  38.761  14.390
44745W        W16361  16.161  36.851  12.668
44746W        W16362  16.653  24.711   2.517
44747W        W16363  36.472  23.205   2.809
44748W        W16364  42.284  32.128   0.143
44749W        W16365  18.740  28.432  12.327
44750W        W16366  26.057  28.125   1.885
44751W        W16367   8.781  23.955  13.319
44752W        W16368  14.961  23.248  14.053
44753W        W16369  26.285  11.308   2.205
44754W        W16370  33.491   1.355   0.798
44755W        W16371   2.770   9.463   1.452
44756W        W16372   4.176  25.124   2.131
44757W        W16373   5.493  35.439   2.372
44758W        W16374  40.516   6.480   3.204
44759W        W16375  18.196  18.623  13.296
44760W        W16376  31.283  42.406  10.691
44761W        W16377  35.043   6.842   4.429
44762W        W16378  24.883  11.144  13.899
44763W        W16379  25.608  16.427  14.931
44764W        W16380   9.336  23.560   2.574
44765W        W16381  19.542  40.803  13.358
44766W        W16382  41.368  24.995  14.055
44767W        W16383  37.067  16.719   1.832
44768W        W16384  33.323  31.943  14.252
44769W        W16385  27.200   1.380   0.188
44770W        W16386  18.280   0.496  12.441
44771W        W16387  29.893  40.841  11.617
44772W        W16388   5.921  35.466   0.292
44773W        W16389  18.652  13.942   4.520
44774W        W16390  31.320  33.454  10.752
44775W        W16391   6.764   0.856   0.709
44776W        W16392   6.237  11.432   1.302
44777W        W16393  39.370  39.812   4.320
44778W        W16394  10.153  15.094   2.606
44779W        W16395  10.322  24.010   3.566
44780W        W16396   4.466   7.605  11.322
44781W        W16397  13.961  37.657   1.296
44782W        W16398   9.830   2.408  12.824
44783W        W16399   6.068  16.266   2.721
44784W        W16400  15.751  38.382   4.577
44785W        W16401  35.859  34.334   0.895
44786W        W16402  19.334   5.441   0.045
44787W        W16403  39.014   7.140  10.913
44788W        W16404  12.181   3.287  13.085
44789W        W16405  26.519  27.218   4.163
44790W        W16406  33.926  15.660   0.488
44791W        W16407  24.649  15.426  14.999
44792W        W16408  32.893  14.443   4.068
44793W        W16409   4.281  39.245   4.418
44794W        W16410  10.211   2.757   4.919
44795W        W16411  10.617   9.809  10.872
44796W        W16412  37.277  39.800   2.697
44797W        W16413  41.453  19.516   3.330
44798W        W16414  43.159  41.638   1.331
44799W        W16415  32.600  29.596  12.180
44800W        W16416   1.235  44.348   0.448
44801W        W16417  29.114  27.652  10.191
44802W        W16418  21.557  23.028   1.815
44803W        W16419  16.706   3.489  11.010
44804W        W16420  31.645   4.662  13.333
44805W        W16421  28.097  21.054   0.478
44806W        W16422  21.127  38.419   2.762
44807W        W16423   5.673  35.772   3.767
44808W        W16424  30.941   1.568  14.304
44809W        W16425  44.790  32.868   4.649
44810W        W16426  29.921  34.118  14.479
44811W        W16427  39.337  23.005   4.649
44812W        W16428  40.796  28.570  12.620
44813W        W16429  43.354  23.509  13.347
44814W        W16430   1.643  23.971  12.567
44815W        W16431  38.460  22.837   1.362
44816W        W16432  13.797  24.227  14.882
44817W        W16433  21.802  30.154  12.057
44818W        W16434  27.729  12.235   2.712
44819W        W16435  11.153   1.073   1.843
44820W        W16436  12.472   1.753   4.629
44821W        W16437   5.928  30.939  12.878
44822W        W16438  34.295  39.396  11.689
44823W        W16439  43.872  41.651  14.248
44824W        W16440  18.323  16.337   4.122
44825W        W16441  18.233  15.919  11.886
44826W        W16442  42.968  34.537   0.249
44827W        W16443  17.704  37.066  13.332
44828W        W16444  33.877  37.597   2.324
44829W        W16445  18.356  23.644  14.374
44830W        W16446  22.610  10.426   0.290
44831W        W16447  27.578  24.087   4.371
44832W        W16448  19.244   0.932  13.778
44833W        W16449   1.939  38.366  12.466
44834W        W16450   4.515   7.173   2.614
44835W        W16451  36.947   8.371  12.331
44836W        W16452   5.098  22.128   4.345
44837W        W16453  10.201  17.528   4.934
44838W        W16454   9.899  27.241   0.311
44839W        W16455  35.306  14.166  10.658
44840W        W16456  19.484  38.438   4.518
44841W        W16457  37.446  38.110   3.063
44842W        W16458  39.378  43.196  14.957
44843W        W16459  15.739  19.121   3.247
44844W        W16460  44.658  34.850   3.917
44845W        W16461  18.774  35.012  10.535
44846W        W16462  40.924   7.852  11.174
44847W        W16463  16.659  15.899  12.926
44848W        W16464  26.716  15.136   4.431
44849W        W16465   3.129   9.881  14.845
44850W        W16466  32.472  18.160  13.862
44851W        W16467  16.112   5.712  10.348
44852W        W16468  19.317   2.586   0.815
44853W        W16469  44.834  37.093  14.625
44854W        W16470  23.278  18.208   4.861
44855W        W16471  29.332  41.761   1.417
44856W        W16472  28.684  31.683   9.975
44857W        W16473  44.057  34.983  11.280
44858W        W16474  38.859  16.563   4.150
44859W        W16475  11.944  18.671  10.514
44860W        W16476   6.431  13.143   4.577
44861W        W16477   8.640  37.617  14.107
44862W        W16478   4.672  42.857  12.610
44863W        W16479  31.606  25.390  13.498
44864W        W16480  17.216  19.490   4.198
44865W        W16481  30.622   5.241  11.348
44866W        W16482  10.213  11.613   2.818
44867W        W16483   0.755  44.453  12.509
44868W        W16484  34.777  44.484   0.943
44869W        W16485   4.232  40.340   1.907
44870W        W16486   0.535  16.178  13.091
44871W        W16487  15.533  11.913  13.979
44872W        W16488  22.431   0.373  11.204
44873W        W16489  15.090  13.721   2.203
44874W        W16490  32.081  26.222  11.573
44875W        W16491  31.721   1.374   3.246
44876W        W16492  38.510   0.295   2.151
44877W        W16493   7.196  33.493   0.465
44878W        W16494   9.385  33.703   2.741
44879W        W16495   4.184  44.473   3.764
44880W        W16496  10.556  43.272   1.825
44881W        W16497  17.488  16.812   5.167
44882W        W16498   4.675  13.770  11.970
44883W        W16499  43.903  34.018  12.408
44884W        W16500  35.984  42.165  14.927
44885W        W16501  17.152   0.950  14.820
44886W        W16502   0.345  36.133  11.045
44887W        W16503   5.906  40.818  11.055
44888W        W16504  40.867  19.097   0.820
44889W        W16505   7.461  10.745  13.954
44890W        W16506  28.932  22.621  14.363
44891W        W16507  29.596  41.600  11.223
44892W        W16508  41.127  36.626   0.285
44893W        W16509  32.903  30.964   0.764
44894W        W16510  29.163  13.762   1.100
44895W        W16511   4.756  39.229   2.331
44896W        W16512   9.311   0.982  13.303
44897W        W16513  34.867  21.570   0.832
44898W        W16514   9.930   2.011   0.296
44899W        W16515  12.592  20.319  11.767
44900W        W16516  42.320  19.999   3.316
44901W        W16517  23.475  16.123   1.376
44902W        W16518   3.960   0.875   1.991
44903W        W16519  41.626  15.224   4.498
44904W        W16520  15.106   3.375  12.277
44905W        W16521  10.467   4.473   0.482
44906W        W16522   5.281   3.804  10.982
44907W        W16523  43.451  14.226   3.299
44908W        W16524  35.335  17.393  11.607
44909W        W16525  11.617  15.911   0.762
44910W        W16526  10.720   8.626  14.346
44911W        W16527  21.682   7.625   4.179
44912W        W16528   8.834  20.097  10.313
44913W        W16529   8.255  10.127  13.939
44914W        W16530  19.449  22.254   3.709
44915W        W16531  40.663   0.038  11.505
44916W        W16532  36.376  25.113   3.672
44917W        W16533   7.992  27.150   0.458
44918W        W16534  33.130  28.970   1.247
44919W        W16535  36.390  33.349  13.925
44920W        W16536  38.964   1.526  10.633
44921W        W16537  22.983   9.164   3.295
44922W        W16538  34.470  43.567   0.932
44923W        W16539  32.972  14.769   3.650
44924W        W16540  34.641  44.676  12.485
44925W        W16541  26.907  27.975   3.340
44926W        W16542  18.134   2.452   0.429
44927W        W16543  22.268  39.365   0.141
44928W        W16544  14.272  40.935   4.127
44929W        W16545  13.790  18.360   3.676
44930W        W16546  20.774  20.139   4.128
44931W        W16547  19.090  12.368   4.822
44932W        W16548  14.780  12.905   2.780
44933W        W16549  19.697  42.883  14.816
44934W        W16550   8.694  31.021  13.875
44935W        W16551  17.458  23.047   4.802
44936W        W16552  28.022  44.319  10.755
44937W        W16553  14.102  24.666  11.889
44938W        W16554  21.137   3.373   3.553
44939W        W16555  38.654   3.369   4.570
44940W        W16556   5.593  40.895   1.998
44941W        W16557  11.801   7.601   2.913
44942W        W16558  15.316  14.628  14.467
44943W        W16559   8.894  24.324   2.335
44944W        W16560  43.545  28.150   1.502
44945W        W16561  24.703  44.705  11.676
44946W        W16562  18.532  29.560  11.256
44947W        W16563  33.650   7.845  10.668
44948W        W16564  20.288  30.107  11.204
44949W        W16565   3.073  37.965  11.627
44950W        W16566   0.924  20.014   2.705
44951W        W16567  37.379  18.030   1.450
44952W        W16568  14.217  17.022  11.497
44953W        W16569  31.611  15.661   0.354
44954W        W16570  23.368  39.058  12.563
44955W        W16571  12.734  19.561   1.433
44956W        W16572   1.848  32.437  13.802
44957W        W16573  12.263   6.838  14.931
44958W        W16574  35.458  25.586   3.908
44959W        W16575   0.242  23.815   0.024
44960W        W16576   9.925  29.514  12.102
44961W        W16577  36.649  32.626  14.893
44962W        W16578  32.055   5.311  14.430
44963W        W16579   5.250  40.824  12.709
44964W        W16580  27.731  30.892  10.755
44965W        W16581  39.013  11.123   3.324
44966W        W16582  43.721  18.259  14.436
44967W        W16583  38.582   2.725   0.821
44968W        W16584  30.593  40.945   2.739
44969W        W16585  28.623  26.768  13.409
44970W        W16586   9.906   4.448  11.544
44971W        W16587  27.476  26.350   4.869
44972W        W16588  24.846   3.239   0.182
44973W        W16589   1.965  36.753   1.823
44974W        W16590  29.600  34.012   0.937
44975W        W16591  40.305  15.775  12.608
44976W        W16592  36.389   6.156  13.140
44977W        W16593  30.236  31.442  14.109
44978W        W16594  14.100   6.839  13.558
44979W        W16595  22.831  39.434  14.349
44980W        W16596  11.347  43.325   2.258
44981W        W16597  34.125   3.854  11.925
44982W        W16598   1.789  41.610  13.432
44983W        W16599  44.021   9.836  11.541
44984W        W16600   9.294  21.565  10.905
44985W        W16601   9.853   2.477   2.191
44986W        W16602  40.913  20.776   2.373
44987W        W16603  14.564  23.341   4.998
44988W        W16604   9.626   1.865  14.909
44989W        W16605  22.293   8.830   2.690
44990W        W16606  30.167  38.479  11.417
44991W        W16607  27.106  25.098   1.691
44992W        W16608  14.242  22.684  13.942
44993W        W16609  22.026  29.564   0.281
44994W        W16610  37.105  22.950  13.937
44995W        W16611  10.356  13.143  13.099
44996W        W16612  24.054  41.308   2.084
44997W        W16613  33.688   4.819   0.190
44998W        W16614  37.062  30.001  11.567
44999W        W16615   9.284  24.098  14.805
45000W        W16616   3.187  42.966  13.957
45001W        W16617  41.454   3.169   1.345
45002W        W16618   1.732   3.479   3.615
45003W        W16619  41.520  18.618   4.659
45004W        W16620   3.844  37.373  13.252
45005W        W16621   8.609  15.825   3.280
45006W        W16622  36.628  31.535   1.221
45007W        W16623   8.540   8.293  11.415
45008W        W16624  14.056  32.766  12.545
45009W        W16625   7.318  27.926  11.347
45010W        W16626   4.012  21.605  14.626
45011W        W16627  15.813  27.960  11.638
45012W        W16628  23.185  38.430  10.731
45013W        W16629  27.546   9.601   4.510
45014W        W16630  17.186   1.756  11.089
45015W        W16631  34.547  43.541   1.845
45016W        W16632  22.486  19.455  14.017
45017W        W16633  18.631  29.934  13.510
45018W        W16634  17.729  13.816  11.193
45019W        W16635  12.390  31.510   4.655
45020W        W16636  17.260  27.881   3.234
45021W        W16637   4.851  36.860   4.285
45022W        W16638  13.297   7.841   2.809
45023W        W16639  11.825  39.753   3.751
45024W        W16640   3.257  11.460   3.351
45025W        W16641   1.272  21.250   4.256
45026W        W16642   9.597  25.999   3.110
45027W        W16643   7.117   4.979  11.665
45028W        W16644  44.933  33.508  14.057
45029W        W16645  42.543  22.158  13.382
45030W        W16646  24.750   9.080  13.168
45031W        W16647  11.544   2.921  11.115
45032W        W16648  13.545  42.265   2.812
45033W        W16649   7.392  33.051   2.160
45034W        W16650  32.375  26.958  11.416
45035W        W16651   4.709   4.630   0.354
45036W        W16652   8.677  15.375  14.024
45037W        W16653  20.074  10.824   2.408
45038W        W16654  25.564  11.801   2.088
45039W        W16655  37.143  19.071   1.286
45040W        W16656   4.175  19.658  13.947
45041W        W16657   3.151  30.890  14.317
45042W        W16658  26.107  19.405  11.515
45043W        W16659   0.999  30.213  12.505
45044W        W16660  20.269  28.584   1.542
45045W        W16661  20.659  25.269  14.537
45046W        W16662  19.682  20.548   4.667
45047W        W16663  28.542  40.541  11.129
45048W        W16664  36.844  39.693  12.704
45049W        W16665   3.884  29.627   3.385
45050W        W16666  32.879  10.217  11.675
45051W        W16667  25.970  35.791  13.347
45052W        W16668  35.533   6.312  12.140
45053W        W16669  32.694  40.977  13.331
45054W        W16670   4.287  27.163  11.335
45055W        W16671  29.033  27.573  14.309
45056W        W16672   1.731  12.276   2.021
45057W        W16673  15.628  34.589  11.076
45058W        W16674  19.410  34.414  11.218
45059W        W16675  14.790  12.310  13.326
45060W        W16676  38.400  44.972  12.304
45061W        W16677  30.942   4.411   4.090
45062W        W16678  15.883  40.915  11.128
45063W        W16679  13.726  27.613   2.264
45064W        W16680  25.611  21.618   2.839
45065W        W16681  15.567  32.011  14.073
45066W        W16682   6.310  37.813   4.530
45067W        W16683  18.760  44.434  12.850
45068W        W16684  14.363  44.494   3.228
45069W        W16685  43.504   4.696   1.363
45070W        W16686   5.087  27.465  14.834
45071W        W16687  16.395   5.292  12.542
45072W        W16688  37.542  44.090  13.389
45073W        W16689   7.062   1.059  11.853
45074W        W16690  42.993  23.612  14.780
45075W        W16691  12.735  26.594  13.369
45076W        W16692   5.183  41.336  11.843
45077W        W16693  23.570   2.407  14.368
45078W        W16694  10.575  40.977  10.809
45079W        W16695   1.545  35.023   3.333
45080W        W16696  39.309  14.217  12.942
45081W        W16697  23.331  29.484  12.899
45082W        W16698  27.748  17.807   3.710
45083W        W16699  13.331  28.078  12.077
45084W        W16700  13.288   8.530   1.477
45085W        W16701  20.140  20.496   2.886
45086W        W16702  10.776  28.812   1.231
45087W        W16703  20.675  10.255   3.600
45088W        W16704  44.739  12.941   0.238
45089W        W16705  43.814  11.534   1.725
45090W        W16706  23.697  15.376   4.567
45091W        W16707  44.670   5.932   3.615
45092W        W16708  44.409  14.570  10.815
45093W        W16709  14.399  40.852   2.187
45094W        W16710  20.127  26.808   3.062
45095W        W16711  23.521  16.616   3.217
45096W        W16712  37.484  38.647  12.080
45097W        W16713  39.174  12.573  13.325
45098W        W16714  14.765  16.165  10.059
45099W        W16715  18.875  14.033   2.758
45100W        W16716  29.502   7.544   3.653
45101W        W16717  33.861   9.590  12.965
45102W        W16718  44.076   3.213  10.953
45103W        W16719   9.718   4.952   0.320
45104W        W16720   5.153  32.848  12.584
45105W        W16721   9.618  35.930   1.862
45106W        W16722   2.238   9.783  10.737
45107W        W16723  20.289  31.049  10.902
45108W        W16724  41.414  22.550   1.154
45109W        W16725  17.537  11.723   1.146
45110W        W16726  14.391  23.935   4.928
45111W        W16727  27.012   0.778  13.856
45112W        W16728  41.812  15.763  11.549
45113W        W16729   7.255  14.064  13.927
45114W        W16730   3.865  40.310  12.391
45115W        W16731   8.335  35.616   2.353
45116W        W16732  43.933  37.097   0.268
45117W        W16733  25.626  18.893   2.592
45118W        W16734  30.127  12.260  12.048
45119W        W16735  27.850  32.457   0.295
45120W        W16736  16.703  37.027   2.339
45121W        W16737  39.935  37.383  13.206
45122W        W16738  20.723  24.251   1.835
45123W        W16739  43.250  36.830   2.174
45124W        W16740  11.327  16.238  11.559
45125W        W16741   5.168  42.994   3.709
45126W        W16742  19.172  42.953  10.174
45127W        W16743  40.515  25.146  14.735
45128W        W16744  38.034  35.396   2.168
45129W        W16745   4.242  42.759   3.129
45130W        W16746  29.571  31.778   1.111
45131W        W16747   4.742  37.486   2.477
45132W        W16748   8.918  28.454   0.723
45133W        W16749  41.002  40.098  13.746
45134W        W16750  23.119  17.842  12.991
45135W        W16751  32.348   0.986  11.121
45136W        W16752  36.526   0.973   0.538
45137W        W16753  13.954  29.230  13.294
45138W        W16754  36.401   3.968   3.414
45139W        W16755  14.193  15.547  14.065
45140W        W16756  10.474  43.283  13.493
45141W        W16757   1.376  22.341   9.816
45142W        W16758  23.665  31.741   2.755
45143W        W16759  27.537  31.609   1.727
45144W        W16760  30.147  22.794  14.903
45145W        W16761   0.311  33.169  13.912
45146W        W16762  34.966  11.315  14.870
45147W        W16763  11.684  31.602   1.730
45148W        W16764  23.070  41.549   0.499
45149W        W16765   2.326   7.727   1.766
45150W        W16766  11.103  37.173   4.049
45151W        W16767  43.412   5.396  13.541
45152W        W16768  15.140   6.620  14.078
45153W        W16769  42.022   3.463   4.617
45154W        W16770   6.346  33.454  13.499
45155W        W16771   8.773  26.451   0.842
45156W        W16772  38.097  32.153   1.417
45157W        W16773   0.379  20.624  10.614
45158W        W16774  19.190  36.872   2.506
45159W        W16775  18.797  43.332   1.476
45160W        W16776  18.964  23.674   1.847
45161W        W16777  39.951  11.085  11.545
45162W        W16778  31.515  39.121   2.331
45163W        W16779  19.518  20.548  10.694
45164W        W16780  17.100   6.088   0.531
45165W        W16781   9.604  20.139  14.368
45166W        W16782   5.425  31.347   3.240
45167W        W16783   7.850   5.066   0.433
45168W        W16784  13.261  43.076  11.994
45169W        W16785  44.759  36.115   4.688
45170W        W16786  24.859  12.210  14.785
45171W        W16787   9.869  30.977  14.367
45172W        W16788  37.787  33.449  10.537
45173W        W16789  16.561   2.957  14.391
45174W        W16790  21.485  14.417   1.681
45175W        W16791  37.514  38.103  11.878
45176W        W16792   3.473   7.855  13.376
45177W        W16793  20.972   4.966   1.811
45178W        W16794  32.783  19.346   0.419
45179W        W16795  12.334  22.802  11.894
45180W        W16796  42.272  10.763  13.355
45181W        W16797  41.313  17.343   4.121
45182W        W16798   7.148  32.918   3.924
45183W        W16799  30.763  35.056   1.739
45184W        W16800  37.325  38.598  10.685
45185W        W16801   5.182   7.726   3.453
45186W        W16802  34.578  15.836  13.992
45187W        W16803  32.234  30.207   5.086
45188W        W16804  40.289  25.078  13.367
45189W        W16805   3.243  15.340   1.138
45190W        W16806  35.437  36.517   1.229
45191W        W16807  24.180   8.277   3.818
45192W        W16808  35.817  28.257   0.473
45193W        W16809   1.444  21.212   3.380
45194W        W16810  19.505  27.489  13.427
45195W        W16811  39.355  10.663  12.112
45196W        W16812  18.045   8.544  12.126
45197W        W16813  41.077  25.411  13.919
45198W        W16814  34.654  24.675   1.626
45199W        W16815   6.645  13.659   2.419
45200W        W16816   3.271  31.650  13.485
45201W        W16817  24.728  16.387   0.052
45202W        W16818  24.033   5.346  12.481
45203W        W16819  43.476  16.847  13.013
45204W        W16820  29.649  35.090  10.385
45205W        W16821  32.081  23.259  12.114
45206W        W16822   5.444  44.317  11.105
45207W        W16823  37.412  35.991   3.732
45208W        W16824  42.447  33.108   1.936
45209W        W16825  19.443  15.783   1.194
45210W        W16826  38.429  30.857  14.443
45211W        W16827  37.070  14.237  10.967
45212W        W16828  42.167  40.632   2.237
45213W        W16829  43.530   5.671  14.407
45214W        W16830  12.214  44.489   0.442
45215W        W16831  19.650  10.686   2.146
45216W        W16832  12.409  24.218  13.314
45217W        W16833  15.070  41.468   4.776
45218W        W16834  41.155  17.193  10.686
45219W        W16835  32.957  29.982   4.543
45220W        W16836  40.483   2.351  13.641
45221W        W16837  15.574  27.752   2.746
45222W        W16838  26.964  31.538  11.569
45223W        W16839  39.344  32.645   0.884
45224W        W16840  26.923  15.293  13.431
45225W        W16841  13.881  43.279  11.032
45226W        W16842  42.584   7.685   1.783
45227W        W16843  18.569  23.471   3.345
45228W        W16844  29.643   5.817   0.448
45229W        W16845  34.045  23.236   0.851
45230W        W16846  18.299  38.446   3.710
45231W        W16847  27.084  20.328  14.520
45232W        W16848  40.866  27.930   0.414
45233W        W16849  39.447   6.646   0.576
45234W        W16850   4.945   5.645  12.175
45235W        W16851  39.985  27.046  13.511
45236W        W16852  25.669   2.820  10.738
45237W        W16853   4.054  38.774   4.363
45238W        W16854  10.844  27.984   1.468
45239W        W16855  17.681   7.340  11.633
45240W        W16856  23.131  29.625  10.574
45241W        W16857  25.615   8.969   3.537
45242W        W16858   1.771  13.889   2.896
45243W        W16859  32.865  44.408  11.957
45244W        W16860   0.788  43.438   1.712
45245W        W16861   9.709  21.705   4.799
45246W        W16862  20.945  34.593  13.058
45247W        W16863  10.754  30.342  13.828
45248W        W16864  22.635  29.579  10.775
45249W        W16865  39.360  42.797   0.315
45250W        W16866   1.031  18.100   3.215
45251W        W16867  37.090   0.385   3.234
45252W        W16868   5.941   5.196  10.427
45253W        W16869  22.714  19.093  12.581
45254W        W16870  11.867  41.821   2.474
45255W        W16871  10.290   5.792   4.931
45256W        W16872  43.472   0.197   3.741
45257W        W16873  32.954   0.293  13.513
45258W        W16874   9.721  30.134  13.498
45259W        W16875   9.669  11.539   4.633
45260W        W16876  11.594  18.246   5.190
45261W        W16877  33.119  25.684   1.453
45262W        W16878  31.540  28.519   4.118
45263W        W16879  23.157   9.314  10.547
45264W        W16880  32.670  13.462  10.844
45265W        W16881  14.166   3.311  12.348
45266W        W16882   1.482  38.330  11.642
45267W        W16883  28.426   8.858   2.678
45268W        W16884  43.731  31.907  10.646
45269W        W16885  42.889  38.850   0.857
45270W        W16886   0.705  32.038  13.845
45271W        W16887   0.367  23.652   2.111
45272W        W16888  17.180  24.600   4.711
45273W        W16889  15.263  32.651   3.245
45274W        W16890  39.873  33.902  13.770
45275W        W16891   6.701   4.258  12.561
45276W        W16892  20.078  11.979   0.705
45277W        W16893  25.863  21.041  11.512
45278W        W16894  35.293  12.712  12.454
45279W        W16895  44.559   6.082   0.791
45280W        W16896  28.460  29.067  13.894
45281W        W16897   8.345  26.845  11.223
45282W        W16898   9.630  23.294   3.719
45283W        W16899  29.347  19.789   0.524
45284W        W16900  35.611   9.331   0.401
45285W        W16901   4.838  18.774   2.746
45286W        W16902  44.397  29.401   2.352
45287W        W16903  13.666   4.809   4.994
45288W        W16904  35.513  26.182  11.811
45289W        W16905   3.798  12.291   3.878
45290W        W16906   0.558  34.802  12.926
45291W        W16907  20.644  39.875   2.307
45292W        W16908  16.802  22.361  13.284
45293W        W16909   3.653  22.658   2.379
45294W        W16910  24.005  25.478  12.883
45295W        W16911  44.457  18.242   3.359
45296W        W16912   1.643  11.287   1.760
45297W        W16913  41.033  36.394  10.645
45298W        W16914  26.913  40.045   3.403
45299W        W16915  21.098  34.937  11.510
45300W        W16916  10.259  16.119   2.462
45301W        W16917  10.774  42.485  12.534
45302W        W16918  11.640  44.165   2.608
45303W        W16919   7.962  25.607   1.163
45304W        W16920  30.542   5.784   4.269
45305W        W16921  11.617  14.089  11.172
45306W        W16922  14.687  34.096   4.572
45307W        W16923   0.224  36.806   1.317
45308W        W16924  34.048  20.331   1.307
45309W        W16925   2.777   3.395  14.248
45310W        W16926  33.425  41.402  13.103
45311W        W16927   4.489   5.763  11.922
45312W        W16928  44.415  33.851  12.442
45313W        W16929  31.139  14.496   3.846
45314W        W16930  31.792  20.030   0.840
45315W        W16931  42.933  39.919   1.878
45316W        W16932   1.305  38.274  14.930
45317W        W16933  29.602  42.025   1.761
45318W        W16934  24.457  37.185  10.249
45319W        W16935   3.743  32.933   2.672
45320W        W16936  15.618   0.010   0.437
45321W        W16937   8.413  13.915  13.112
45322W        W16938  13.453  19.385  11.527
45323W        W16939  34.831  14.802  12.892
45324W        W16940  36.033  42.418   4.553
45325W        W16941  18.659  36.504   4.912
45326W        W16942  44.394  28.499  14.739
45327W        W16943  14.118   2.088  13.850
45328W        W16944   0.746  24.239  10.198
45329W        W16945  16.422  19.274   4.481
45330W        W16946  31.544  17.776   2.719
45331W        W16947  14.277   5.938   2.268
45332W        W16948  11.380  39.490  12.973
45333W        W16949  26.643   5.292   2.136
45334W        W16950  35.583  13.084  13.394
45335W        W16951  32.697  31.465  11.591
45336W        W16952   5.286  12.317  11.477
45337W        W16953   4.879  34.406  14.791
45338W        W16954  33.025  31.532   4.693
45339W        W16955  39.475   9.423  11.048
45340W        W16956  41.727   8.637  13.423
45341W        W16957  23.928  31.469   0.409
45342W        W16958  10.323  32.426  11.155
45343W        W16959  13.582  43.772  11.122
45344W        W16960  36.113  19.249  14.005
45345W        W16961  22.978   0.873  11.598
45346W        W16962  16.567  17.143   5.088
45347W        W16963  41.520   8.648   1.236
45348W        W16964  32.293  12.747   3.153
45349W        W16965  18.076  32.953   3.696
45350W        W16966  16.904   7.744  12.860
45351W        W16967  31.923  37.514  13.874
45352W        W16968  44.293  14.309   1.630
45353W        W16969  26.437  39.786  11.139
45354W        W16970  11.162  33.959  10.646
45355W        W16971   9.933  13.607  13.870
45356W        W16972  43.192  24.888   1.405
45357W        W16973  32.491  16.758   4.560
45358W        W16974  40.576  33.130   2.159
45359W        W16975  33.993  37.975  10.681
45360W        W16976  44.354  10.197  14.838
45361W        W16977  18.630  41.287  12.127
45362W        W16978  39.037  18.051  12.716
45363W        W16979  22.775  40.507  13.419
45364W        W16980  18.328  28.610  10.890
45365W        W16981   6.756  32.008  10.473
45366W        W16982   9.813  18.232  14.487
45367W        W16983  13.281  33.058  11.485
45368W        W16984  37.665  27.166  12.506
45369W        W16985  39.890  43.048   1.731
45370W        W16986  12.599  19.367   2.185
45371W        W16987  16.576  12.714  12.018
45372W        W16988  27.442  19.728   4.316
45373W        W16989  19.786  31.474  14.810
45374W        W16990   6.156  42.909  12.454
45375W        W16991  32.913  24.141   0.284
45376W        W16992  17.722  27.506  10.884
45377W        W16993  14.770  35.341  14.764
45378W        W16994   5.329  23.038   4.485
45379W        W16995  39.347  19.140   0.221
45380W        W16996  26.768  35.393  11.734
45381W        W16997  15.991  22.167  12.006
45382W        W16998  27.467  32.511  12.527
45383W        W16999  31.017  28.049  11.563
45384W        W17000  35.362  24.567  13.878
45385W        W17001  16.195  24.254   3.628
45386W        W17002  10.792  14.583   1.330
45387W        W17003  42.346  22.764  14.568
45388W        W17004  36.316   2.390  10.549
45389W        W17005  30.897  15.543   5.068
45390W        W17006   2.270  17.033   2.828
45391W        W17007  32.262  25.710   4.386
45392W        W17008  44.766  12.593  13.543
45393W        W17009   1.324  10.271   2.919
45394W        W17010  23.709  12.345  13.036
45395W        W17011  14.136  32.668  11.078
45396W        W17012   9.770  28.505  10.732
45397W        W17013  10.478  10.150   0.781
45398W        W17014  24.218  20.646  12.517
45399W        W17015  37.416  24.419   2.389
45400W        W17016   3.036  10.004   4.109
45401W        W17017  33.568  10.861  10.690
45402W        W17018  13.197   7.743  12.430
45403W        W17019   2.314  23.340  14.043
45404W        W17020  37.486   3.457   2.635
45405W        W17021  39.644  13.759  11.044
45406W        W17022  29.806  40.469  13.101
45407W        W17023  20.572  41.567   4.200
45408W        W17024  17.490  35.719   0.474
45409W        W17025  26.411  37.556  14.831
45410W        W17026  14.219  31.206  12.610
45411W        W17027   4.268  42.475   1.611
45412W        W17028  11.865  19.586  14.906
45413W        W17029  32.535  15.357   0.133
45414W        W17030  16.385  10.801  14.442
45415W        W17031  25.617  34.287  14.385
45416W        W17032  39.603  25.189   0.195
45417W        W17033  44.288   1.897   3.612
45418W        W17034  19.816  29.515  10.698
45419W        W17035   8.633  31.130  13.378
45420W        W17036  16.843  10.085  14.785
45421W        W17037  42.785  33.822   3.611
45422W        W17038  31.755  39.049  11.549
45423W        W17039  17.241  14.860   2.917
45424W        W17040  34.559   0.843   0.351
45425W        W17041  44.835  44.773   2.859
45426W        W17042   2.979  20.010  14.308
45427W        W17043   6.036  19.329   1.292
45428W        W17044   6.776  37.457  13.716
45429W        W17045  16.637  34.872   0.989
45430W        W17046  24.307   8.949  13.514
45431W        W17047  23.413  34.407  10.640
45432W        W17048  33.426  37.314  11.576
45433W        W17049  35.122  44.963  12.336
45434W        W17050  15.374  42.326  11.590
45435W        W17051  21.710  13.760  10.657
45436W        W17052   0.033  42.722  11.140
45437W        W17053  26.183  20.268  11.878
45438W        W17054  26.984  44.517   4.207
45439W        W17055  15.153  16.646   3.210
45440W        W17056  13.699  33.587   0.704
45441W        W17057  25.390  17.074  14.319
45442W        W17058  39.767  41.918   3.298
45443W        W17059  44.240   0.975   3.412
45444W        W17060  21.490  16.800  14.337
45445W        W17061  21.681  42.990   2.158
45446W        W17062  44.695   8.925  13.846
45447W        W17063   7.470  40.422   0.807
45448W        W17064  43.808  38.030  10.251
45449W        W17065   0.821  21.087   3.588
45450W        W17066   2.734  25.533   4.592
45451W        W17067  24.575  11.861  13.907
45452W        W17068  21.275  17.241   4.132
45453W        W17069  13.475  26.617   1.165
45454W        W17070  40.085   4.110   1.614
45455W        W17071   6.349  22.131   0.836
45456W        W17072  24.960   9.284   0.828
45457W        W17073  12.195  10.116  14.872
45458W        W17074  43.550   6.836   3.930
45459W        W17075   1.733   9.748  10.636
45460W        W17076  27.426  17.221   2.622
45461W        W17077   7.066   7.759  12.344
45462W        W17078  11.944  11.625   3.224
45463W        W17079  37.654  19.490   2.716
45464W        W17080  43.982  18.776  12.530
45465W        W17081  18.536  26.657  14.849
45466W        W17082  28.126   0.298  13.823
45467W        W17083  41.993  40.087  12.446
45468W        W17084  33.831   4.542   4.137
45469W        W17085  36.646  23.066  14.887
45470W        W17086  27.322  11.839  13.014
45471W        W17087  44.590   4.352   0.536
45472W        W17088  29.219  16.870  13.084
45473W        W17089  35.557  41.424   3.075
45474W        W17090  35.120  23.515  14.301
45475W        W17091  27.468  41.927  11.619
45476W        W17092  16.243   2.704   0.233
45477W        W17093   0.746  40.562  13.318
45478W        W17094  16.727  27.010  13.560
45479W        W17095  15.682  32.945   0.368
45480W        W17096  38.338  31.564  12.036
45481W        W17097  20.131  31.634  13.008
45482W        W17098  40.194  43.340  10.771
45483W        W17099  20.525   2.024   0.916
45484W        W17100  31.138   6.253   3.668
45485W        W17101   7.236  34.542  13.487
45486W        W17102  43.844  40.976   0.023
45487W        W17103   6.882   0.406   0.479
45488W        W17104  31.605   2.021  13.828
45489W        W17105  12.384  23.520   0.956
45490W        W17106  11.596  27.668  14.829
45491W        W17107  35.500   2.432  13.820
45492W        W17108  11.837  14.866   2.889
45493W        W17109  14.400  21.833   3.724
45494W        W17110  36.256   3.007   3.615
45495W        W17111  42.894  40.052   4.610
45496W        W17112  37.823   4.760  11.667
45497W        W17113  12.843  13.184  12.378
45498W        W17114  10.255   3.626  10.703
45499W        W17115   7.430  13.084  14.109
45500W        W17116  15.169  23.290   1.421
45501W        W17117   1.351  31.662   2.911
45502W        W17118   4.783  39.340   0.857
45503W        W17119  35.380  34.388  12.200
45504W        W17120  14.093  21.093  14.032
45505W        W17121  22.086  41.444  13.911
45506W        W17122  18.315  19.026   1.780
45507W        W17123  27.664  16.781   3.375
45508W        W17124  24.727   7.404   0.176
45509W        W17125  25.189  43.807  13.166
45510W        W17126  26.164  12.673  14.046
45511W        W17127  37.827   3.081  11.138
45512W        W17128  27.074  30.099  11.664
45513W        W17129  43.110  29.434  14.989
45514W        W17130   8.396  37.642   0.452
45515W        W17131  44.511  29.040  12.633
45516W        W17132  28.491   9.687   4.619
45517W        W17133  24.520  41.275   4.055
45518W        W17134  30.479  30.460  12.396
45519W        W17135  30.040  28.367   3.220
45520W        W17136  42.112   7.053   1.419
45521W        W17137   1.802   2.715  14.421
45522W        W17138  10.592   3.630   2.819
45523W        W17139  39.570  30.944   0.409
45524W        W17140  11.560  24.253   0.782
45525W        W17141   8.596  27.041   4.752
45526W        W17142  22.820  31.138   4.004
45527W        W17143  32.071  42.936   5.071
45528W        W17144  39.297  36.480  11.079
45529W        W17145  29.680  43.729   4.605
45530W        W17146  18.614  10.567  12.020
45531W        W17147  22.918  13.874   1.275
45532W        W17148  43.866  26.957   3.762
45533W        W17149  20.841  22.471   2.227
45534W        W17150  15.948  31.249   3.890
45535W        W17151  32.403  31.666  14.477
45536W        W17152  33.351  17.977   1.475
45537W        W17153  37.285  41.704  14.790
45538W        W17154   3.782   8.828   3.130
45539W        W17155  25.102  31.372  14.839
45540W        W17156  28.039  34.951   4.924
45541W        W17157  39.788   6.789  14.673
45542W        W17158  35.654  11.260   3.686
45543W        W17159  43.460  17.331  12.863
45544W        W17160  22.135   8.336   3.874
45545W        W17161   0.293  25.899   2.317
45546W        W17162   7.923  30.024   4.365
45547W        W17163   0.877  31.603   4.640
45548W        W17164   8.644   9.771   2.951
45549W        W17165  31.273   6.429  14.547
45550W        W17166  24.389  26.035  13.469
45551W        W17167  27.900  41.964  13.624
45552W        W17168  27.950  32.360  13.867
45553W        W17169  14.561  19.456   4.161
45554W        W17170  44.704  26.069   0.515
45555W        W17171   4.312  12.354   2.242
45556W        W17172   2.876  19.637   2.466
45557W        W17173  34.041  36.101  13.012
45558W        W17174  18.582  17.864  12.215
45559W        W17175  39.408  31.445   0.459
45560W        W17176  20.014  10.322   2.369
45561W        W17177  29.077  40.849   3.055
45562W        W17178  27.658  44.239   2.732
45563W        W17179  38.463   3.922  10.693
45564W        W17180  12.664  44.705  11.924
45565W        W17181  32.124  23.084   4.090
45566W        W17182   2.294  36.996   0.317
45567W        W17183  20.300  18.239  13.453
45568W        W17184  21.486  13.320   3.223
45569W        W17185  34.904  42.972  11.560
45570W        W17186   8.665   2.376  11.719
45571W        W17187  13.553  20.805  14.747
45572W        W17188  19.268  32.871   0.808
45573W        W17189  19.876  16.523   2.621
45574W        W17190  14.027  31.458  12.999
45575W        W17191  39.071  10.624  10.549
45576W        W17192  12.322  17.178  14.359
45577W        W17193  36.833  41.100   4.510
45578W        W17194   5.311  38.539   2.595
45579W        W17195  32.861  20.572   3.745
45580W        W17196  18.275   6.114  13.731
45581W        W17197  40.889   4.906  14.649
45582W        W17198  37.558  38.973  14.887
45583W        W17199  26.966  23.558   0.721
45584W        W17200  25.236   9.195  12.998
45585W        W17201  40.079  12.386  10.253
45586W        W17202  36.863  26.123   0.008
45587W        W17203  39.956   5.771  13.766
45588W        W17204  37.913  33.616   2.810
45589W        W17205  22.487  10.367   3.611
45590W        W17206  41.980  32.893   0.183
45591W        W17207  21.076  31.837  13.611
45592W        W17208  16.998   4.874   2.332
45593W        W17209  19.235  17.751   3.855
45594W        W17210  19.647   8.701   3.726
45595W        W17211   5.224  20.776  13.566
45596W        W17212  31.669  10.822  12.543
45597W        W17213  30.433  20.631  14.320
45598W        W17214  25.680   5.667  14.336
45599W        W17215  25.719   6.329   2.326
45600W        W17216  16.826  22.873  13.231
45601W        W17217  14.740   4.847   1.269
45602W        W17218  29.911   4.933  14.325
45603W        W17219  38.015  41.746   2.759
45604W        W17220   7.612  33.542  12.049
45605W        W17221  22.798  43.533   2.892
45606W        W17222  15.713  30.774  14.019
45607W        W17223  38.593  20.540  14.094
45608W        W17224  32.470  39.310  12.851
45609W        W17225  29.106  14.816   9.800
45610W        W17226  37.663  26.446  12.070
45611W        W17227  43.434   1.026  10.781
45612W        W17228  32.225  31.890   0.780
45613W        W17229  38.372   4.443  12.893
45614W        W17230  26.643  26.571  14.980
45615W        W17231   8.141  18.151   0.419
45616W        W17232  40.524  19.780  14.069
45617W        W17233  29.472  27.908  14.049
45618W        W17234   8.267  21.744   3.354
45619W        W17235  29.048  23.786   2.348
45620W        W17236  44.401  41.095   4.483
45621W        W17237  14.690   8.122  12.020
45622W        W17238  13.773   1.756   1.959
45623W        W17239   0.019  26.948  11.418
45624W        W17240   1.426   5.468  14.425
45625W        W17241   6.234  18.750  14.724
45626W        W17242   8.632  41.763  12.043
45627W        W17243   8.722   5.879  11.920
45628W        W17244   8.278   7.713   0.752
45629W        W17245  40.926  44.058  12.382
45630W        W17246  34.666  37.534   0.308
45631W        W17247   4.869  34.066  10.705
45632W        W17248   5.681   6.061   0.799
45633W        W17249   8.852  42.004   4.834
45634W        W17250   0.977  36.427  12.071
45635W        W17251  43.345  42.239  10.852
45636W        W17252   0.305  37.211   0.891
45637W        W17253  43.844   6.549   3.603
45638W        W17254   8.257  42.586  14.906
45639W        W17255   3.746  30.831   4.330
45640W        W17256  14.408  26.531   3.397
45641W        W17257  20.613  15.238  14.348
45642W        W17258   7.690  14.388  10.622
45643W        W17259  32.382  18.310  10.603
45644W        W17260  23.191  30.355  13.440
45645W        W17261  40.645  27.440  14.383
45646W        W17262  30.969  31.840   2.263
45647W        W17263   4.381  25.727  14.358
45648W        W17264  18.654  10.462  11.482
45649W        W17265   6.246  36.929  11.497
45650W        W17266  17.036   6.112   4.185
45651W        W17267   6.833  41.556   2.362
45652W        W17268  44.508  27.977   4.989
45653W        W17269  23.124  39.136  13.018
45654W        W17270  33.634  22.561  11.191
45655W        W17271  39.772   9.806   1.801
45656W        W17272  19.866  42.767   1.705
45657W        W17273  34.925  31.965   4.150
45658W        W17274  25.176   0.979  13.919
45659W        W17275   1.847  23.116  12.442
45660W        W17276   6.139  12.588   1.899
45661W        W17277  16.688  37.520   4.017
45662W        W17278  29.673   8.397  14.422
45663W        W17279  19.416   3.403  10.643
45664W        W17280  31.102  20.608   1.755
45665W        W17281  17.994  39.435   3.118
45666W        W17282  27.710  35.377  12.137
45667W        W17283  20.666   9.018  12.019
45668W        W17284  18.680  34.718  12.287
45669W        W17285   3.878  40.845  12.557
45670W        W17286  17.779  37.536  10.689
45671W        W17287  12.994  29.730   2.179
45672W        W17288   3.588  16.653  13.416
45673W        W17289  40.825  10.348  11.340
45674W        W17290  31.048   7.721   3.099
45675W        W17291  18.272   3.792   1.915
45676W        W17292  18.082  41.638  12.916
45677W        W17293  37.863  26.850   1.958
45678W        W17294  31.008   1.904   3.581
45679W        W17295  41.147  12.916  12.917
45680W        W17296  35.192  44.796   0.763
45681W        W17297  12.930  24.957   1.234
45682W        W17298  12.482  19.438   0.324
45683W        W17299  41.824  40.838   1.519
45684W        W17300  43.865  24.400   4.556
45685W        W17301   4.193  37.384   1.257
45686W        W17302   8.860  26.601   4.792
45687W        W17303   4.934  31.293   4.161
45688W        W17304   5.285   1.944   2.278
45689W        W17305  13.405  32.106  14.322
45690W        W17306   5.874  31.671   1.368
45691W        W17307  11.410  39.364   3.593
45692W        W17308  13.678  35.892  10.675
45693W        W17309  12.624  37.567  10.614
45694W        W17310  17.966  24.194   2.270
45695W        W17311  39.966  10.391   4.325
45696W        W17312  18.061   5.687   0.464
45697W        W17313  17.188  26.123   1.027
45698W        W17314  29.186  26.357   0.506
45699W        W17315  24.862   5.260  10.639
45700W        W17316  30.010   7.749   3.628
45701W        W17317  40.914   1.202  13.515
45702W        W17318  35.611   3.828  11.987
45703W        W17319  34.017  32.715  14.091
45704W        W17320  33.367  33.040   1.734
45705W        W17321   4.956   0.878  12.109
45706W        W17322  13.776  23.170   2.270
45707W        W17323  15.327  32.529   4.113
45708W        W17324  11.194  43.668  11.123
45709W        W17325  17.823  10.472  12.964
45710W        W17326  41.136  38.516  14.872
45711W        W17327   1.910  24.198   2.266
45712W        W17328  17.573   0.984  12.101
45713W        W17329  30.460   1.474   2.870
45714W        W17330   0.908  42.925   0.348
45715W        W17331  20.186  44.523  10.816
45716W        W17332   9.459  17.377   1.105
45717W        W17333  28.728   2.186   2.733
45718W        W17334   1.762  17.833  11.598
45719W        W17335  17.664  19.606  12.808
45720W        W17336  35.889  39.433   3.898
45721W        W17337  33.249  35.723  10.231
45722W        W17338  26.692  16.649   4.627
45723W        W17339  18.525  39.447  14.136
45724W        W17340  23.045  37.896  14.776
45725W        W17341  41.107  19.943   0.794
45726W        W17342  21.719  29.957   3.894
45727W        W17343  43.528  43.605  10.706
45728W        W17344  34.435  27.096   0.274
45729W        W17345   0.691   6.853   0.893
45730W        W17346  12.213  30.812  11.067
45731W        W17347   0.618  44.663  12.947
45732W        W17348   0.866  41.557  13.549
45733W        W17349  11.647  37.847  14.936
45734W        W17350  22.545  10.135   3.141
45735W        W17351  41.378  34.489   4.283
45736W        W17352  18.531  40.900  12.843
45737W        W17353  21.651  43.279  10.515
45738W        W17354   5.714  24.294   3.743
45739W        W17355   0.183  42.680  13.009
45740W        W17356  21.332   6.671  14.502
45741W        W17357  11.631  23.914  13.011
45742W        W17358  40.862   1.034   3.278
45743W        W17359  11.818  32.887  13.275
45744W        W17360  11.932  20.665   3.828
45745W        W17361   7.441  21.786  14.060
45746W        W17362  27.560   6.484   0.582
45747W        W17363  20.318  43.779  12.966
45748W        W17364  43.372  28.430   4.591
45749W        W17365  17.778   8.905   3.357
45750W        W17366  28.172  17.563   2.906
45751W        W17367  20.834  14.768   4.457
45752W        W17368  32.723   2.076   1.726
45753W        W17369  26.241  43.801  12.884
45754W        W17370  39.515  37.795  13.977
45755W        W17371  18.875  38.914   5.109
45756W        W17372  10.083  27.083   4.850
45757W        W17373   8.607  37.541  12.590
45758W        W17374  42.496  29.855   0.879
45759W        W17375   7.357  15.843  13.014
45760W        W17376  36.863  27.952  13.851
45761W        W17377  29.670  10.825   0.679
45762W        W17378  42.902   6.982   1.790
45763W        W17379  19.955   2.739   1.456
45764W        W17380  13.292  41.071  12.044
45765W        W17381  25.974  23.754   0.283
45766W        W17382  42.536  38.919  10.107
45767W        W17383   4.559  22.778   5.431
45768W        W17384  42.324  31.543  11.364
45769W        W17385  43.603  13.753   1.563
45770W        W17386  30.969   8.894  13.946
45771W        W17387  38.813  27.276   4.847
45772W        W17388  16.063  34.832  10.989
45773W        W17389  20.404  24.710  11.238
45774W        W17390  40.378  23.948   4.849
45775W        W17391  18.055  41.096   1.429
45776W        W17392  37.016  27.368  11.037
45777W        W17393  20.177  34.036  12.962
45778W        W17394  23.639  12.925  14.686
45779W        W17395  39.758  36.114   4.594
45780W        W17396  20.549   7.320  11.184
45781W        W17397  25.430  38.583  11.607
45782W        W17398   8.547  31.661   1.553
45783W        W17399  13.933  38.476  14.975
45784W        W17400  27.181  34.129  11.555
45785W        W17401  29.005  20.972  10.454
45786W        W17402  42.416  19.808   5.036
45787W        W17403  29.142  15.996   0.035
45788W        W17404  11.451   2.284   0.201
45789W        W17405  41.745  18.161   4.890
45790W        W17406  40.533  25.666  10.363
45791W        W17407  13.023   3.897   9.532
45792W        W17408  37.583   6.624   0.395
45793W        W17409  33.549   4.717   2.396
45794W        W17410  22.575  33.706   3.829
45795W        W17411  16.808  27.513  14.319
45796W        W17412  22.637  36.386   4.594
45797W        W17413  17.051  32.643  11.530
45798W        W17414   5.969  22.867   2.720
45799W        W17415  14.401  31.154   1.488
45800W        W17416  19.532  20.275  12.045
45801W        W17417  33.100   3.625   2.250
45802W        W17418   5.555  35.524   3.271
45803W        W17419  14.592   0.270  14.066
45804W        W17420  14.400  25.185   3.358
45805W        W17421  33.896  39.489  14.026
45806W        W17422  21.228  43.280  14.913
45807W        W17423  11.335  38.448   0.010
45808W        W17424   4.330  36.449   2.728
45809W        W17425  27.663  22.877  11.281
45810W        W17426  33.473  15.705   2.774
45811W        W17427   2.705  44.817   3.160
45812W        W17428  34.899  27.312  12.884
45813W        W17429  31.030  27.460  14.251
45814W        W17430   1.482  43.963   5.502
45815W        W17431   5.233  21.969   4.906
45816W        W17432  15.089  12.629  12.434
45817W        W17433  10.356  33.453  10.618
45818W        W17434   1.867   9.934   1.761
45819W        W17435  26.987   5.475   1.174
45820W        W17436  26.549  38.734   2.624
45821W        W17437  17.011   8.789   1.738
45822W        W17438  13.771   6.331   3.402
45823W        W17439  15.315  30.463  10.795
45824W        W17440  23.785  17.354   1.871
45825W        W17441   4.181  21.770   1.356
45826W        W17442  24.643   7.823  10.609
45827W        W17443  17.566   5.377  13.314
45828W        W17444  12.726  15.195   0.504
45829W        W17445  23.165  38.432   0.884
45830W        W17446  41.774  14.701   1.470
45831W        W17447  15.549  11.830   3.193
45832W        W17448  44.927   8.638  13.492
45833W        W17449   0.120  35.469  13.442
45834W        W17450  41.229   2.207  12.061
45835W        W17451  16.200  41.247  12.057
45836W        W17452  33.514   4.012  12.621
45837W        W17453   2.899  15.833  11.977
45838W        W17454  36.812  12.853   4.115
45839W        W17455  27.193  25.794  14.343
45840W        W17456  39.759  38.565  14.580
45841W        W17457   5.668  19.157  12.966
45842W        W17458  26.434   7.425   4.232
45843W        W17459  21.582  26.008  14.002
45844W        W17460  10.935  12.903  11.165
45845W        W17461  35.168  28.095   2.271
45846W        W17462  34.042  19.886   2.275
45847W        W17463  36.853   4.567  12.090
45848W        W17464  36.503  42.801   1.926
45849W        W17465  22.275  43.313  14.928
45850W        W17466  17.486   4.417  11.956
45851W        W17467  42.016  22.488  12.498
45852W        W17468  25.771   4.820  13.355
45853W        W17469  42.385  27.102  13.197
45854W        W17470  23.221  15.630   4.573
45855W        W17471  18.242  15.684  14.527
45856W        W17472  28.558  18.282  13.366
45857W        W17473  43.281  26.670   0.082
45858W        W17474  41.049  43.080   5.058
45859W        W17475   3.997  10.969  11.195
45860W        W17476  40.792  30.574   4.576
45861W        W17477  30.378  12.322   4.192
45862W        W17478  26.521  40.057   0.216
45863W        W17479  12.732  15.809   3.129
45864W        W17480  42.575  25.601   5.228
45865W        W17481  12.824  14.611  11.233
45866W        W17482  29.494  10.803   0.094
45867W        W17483  17.216   6.955   3.885
45868W        W17484  26.181  14.746  12.426
45869W        W17485   1.988   8.219  10.730
45870W        W17486  19.626  10.603  10.977
45871W        W17487   1.259  37.407   1.917
45872W        W17488  30.741  21.927   1.851
45873W        W17489  43.514  21.115   2.347
45874W        W17490  39.746   6.758  14.156
45875W        W17491  16.268   1.347  12.172
45876W        W17492  31.512   5.859   0.522
45877W        W17493  15.657  22.086   1.377
45878W        W17494  23.954  12.049  13.421
45879W        W17495  14.608  24.375  11.228
45880W        W17496   3.876  18.792  11.971
45881W        W17497   5.310   9.205   0.426
45882W        W17498  34.178  26.478   2.724
45883W        W17499  13.804  42.670  14.941
45884W        W17500  34.164  15.433  14.673
45885W        W17501  27.605  16.062  13.511
45886W        W17502  22.101  24.011  10.647
45887W        W17503  17.245  26.878   2.315
45888W        W17504  16.955   9.771  11.199
45889W        W17505   6.263  13.034  12.386
45890W        W17506  40.743   8.817  13.088
45891W        W17507  31.084  30.619  13.172
45892W        W17508  37.073  37.513   4.092
45893W        W17509  16.295  36.360  12.536
45894W        W17510  16.063  31.707  12.044
45895W        W17511  37.333  15.044   2.875
45896W        W17512   1.480  10.258   1.306
45897W        W17513  23.482   5.945   2.283
45898W        W17514  26.176  41.883  13.673
45899W        W17515  23.756  20.504   4.083
45900W        W17516   5.126  43.608  14.884
45901W        W17517  26.887  38.034   2.174
45902W        W17518  25.535  42.190   0.415
45903W        W17519  42.554  10.776  12.918
45904W        W17520  42.494  40.276   1.845
45905W        W17521  22.495  38.965   4.107
45906W        W17522  43.818  13.876  13.896
45907W        W17523  34.028  20.791  12.971
45908W        W17524  28.380  10.193   4.523
45909W        W17525  31.085   9.596   2.816
45910W        W17526   2.726  26.950   0.270
45911W        W17527  19.184  22.627   4.837
45912W        W17528  17.835  14.183   0.801
45913W        W17529   2.397  42.636   1.916
45914W        W17530  37.081  36.956   0.402
45915W        W17531  36.520  27.644  14.133
45916W        W17532  19.360  19.474   2.660
45917W        W17533  28.238   8.320  14.395
45918W        W17534  34.009  15.803   0.994
45919W        W17535  25.037  35.526   0.746
45920W        W17536  39.585   0.411   2.836
45921W        W17537  19.367  23.224   3.234
45922W        W17538  10.722  33.390   0.364
45923W        W17539  43.754  35.892   1.739
45924W        W17540  10.621   5.583  13.226
45925W        W17541  16.186   3.830   3.669
45926W        W17542  22.133  43.412  10.730
45927W        W17543   2.281   2.332   0.280
45928W        W17544  15.779   4.998   1.716
45929W        W17545  12.456  12.072   0.350
45930W        W17546  18.060  17.670   2.848
45931W        W17547  43.465  31.851   0.783
45932W        W17548   4.146  44.309  14.394
45933W        W17549   3.697   3.785  13.565
45934W        W17550   4.845  13.487   3.325
45935W        W17551  42.077  31.402   1.381
45936W        W17552  12.163   5.882   1.279
45937W        W17553   8.113   5.846  11.401
45938W        W17554  37.309  22.007  11.588
45939W        W17555  33.093  38.763  10.632
45940W        W17556  15.272  17.214  14.224
45941W        W17557  21.080   3.641  13.774
45942W        W17558   6.279  28.899   2.361
45943W        W17559   3.704  32.138   1.353
45944W        W17560  39.467   3.844  11.627
45945W        W17561  35.804  30.747  13.157
45946W        W17562  34.107  11.649   0.904
45947W        W17563  40.762   4.262  11.466
45948W        W17564  44.809   0.212  13.272
45949W        W17565  15.142  27.703   3.645
45950W        W17566  35.503  27.286   2.452
45951W        W17567  29.742  25.703  11.680
45952W        W17568  36.350  43.464   1.307
45953W        W17569  24.962  22.416  12.023
45954W        W17570  21.334  33.211  12.015
45955W        W17571  10.482  20.587   3.708
45956W        W17572  37.838  12.072   4.881
45957W        W17573  31.998   9.801   3.368
45958W        W17574  41.870  22.269  11.195
45959W        W17575  28.417   9.711  12.176
45960W        W17576  10.593  41.983   1.379
45961W        W17577  26.926  41.354   3.682
45962W        W17578  19.349   0.787   4.939
45963W        W17579  34.496  17.607  11.863
45964W        W17580  35.355   4.383   3.567
45965W        W17581   8.292   1.844   0.456
45966W        W17582  36.677  18.693  14.356
45967W        W17583   3.937  11.818  11.183
45968W        W17584  42.357  35.066  13.581
45969W        W17585   9.094  21.959  14.139
45970W        W17586  10.552  13.084  12.127
45971W        W17587   8.312  44.688  14.150
45972W        W17588  36.985  17.078  12.829
45973W        W17589   7.801   9.783  10.723
45974W        W17590  41.329  20.680  11.493
45975W        W17591  22.643  33.866  12.004
45976W        W17592  10.391  43.967  10.584
45977W        W17593   7.939  25.111  10.772
45978W        W17594  43.540  25.723   2.722
45979W        W17595  19.652   7.744   0.781
45980W        W17596  15.808  22.932   3.867
45981W        W17597  37.336  31.508   0.722
45982W        W17598  10.779  16.101   3.125
45983W        W17599  25.575   0.715  11.871
45984W        W17600  12.878  18.758   3.878
45985W        W17601  16.333  14.209   0.845
45986W        W17602  22.470   9.151   4.086
45987W        W17603  18.026  12.358   4.304
45988W        W17604  36.599  34.511  12.910
45989W        W17605  27.669  43.245   4.014
45990W        W17606  33.035  37.385   1.865
45991W        W17607  34.497  44.803   0.355
45992W        W17608   1.766   8.899  11.031
45993W        W17609  44.722   2.992   0.368
45994W        W17610  30.840  29.949   0.148
45995W        W17611  24.057  43.243   1.909
45996W        W17612  18.348  26.369  11.143
45997W        W17613  18.967  42.846  10.674
45998W        W17614   7.062  21.198  12.925
45999W        W17615  31.128  19.804   2.212
46000W        W17616  34.105  10.229   0.299
46001W        W17617  20.528   2.525   2.280
46002W        W17618   0.794  17.493  10.275
46003W        W17619  21.260  26.159  11.281
46004W        W17620  12.603  10.758   3.192
46005W        W17621  17.498   7.138  11.181
46006W        W17622  39.887  33.765   1.982
46007W        W17623  39.546  13.795  11.544
46008W        W17624  39.860  33.471   4.032
46009W        W17625   5.333   7.938  14.982
46010W        W17626   5.463   3.366   0.388
46011W        W17627   6.719  10.668  11.604
46012W        W17628   7.441  40.256   1.800
46013W        W17629  11.099  35.433  12.451
46014W        W17630   2.515   4.719  10.972
46015W        W17631  15.892  30.455  13.669
46016W        W17632  31.911  34.417  12.906
46017W        W17633  36.566  26.469  10.139
46018W        W17634  22.764  39.123  10.604
46019W        W17635  22.521  20.274  11.942
46020W        W17636  35.089   2.768  13.780
46021W        W17637  14.148  28.143   4.240
46022W        W17638  29.962   3.828  11.538
46023W        W17639  33.916  31.981  12.919
46024W        W17640  13.933   0.042   2.704
46025W        W17641   1.209  37.764  14.811
46026W        W17642  32.048  25.180  11.539
46027W        W17643   5.755  18.340   1.383
46028W        W17644  17.013  26.044  11.040
46029W        W17645  39.391  26.159  10.552
46030W        W17646  14.794  22.193   4.523
46031W        W17647  39.061  12.690  12.837
46032W        W17648  33.380  16.282   4.471
46033W        W17649  33.431  12.463  14.899
46034W        W17650  37.374  38.824   2.242
46035W        W17651   6.176   5.467  13.788
46036W        W17652  13.175  31.689   0.817
46037W        W17653  12.598  22.048  13.460
46038W        W17654  42.381  40.070   3.607
46039W        W17655  11.766  37.682   3.373
46040W        W17656  38.372  43.372   2.417
46041W        W17657  35.401   0.728   4.745
46042W        W17658  43.829  10.294   3.204
46043W        W17659   7.362   8.227  12.483
46044W        W17660  44.301  16.707   3.281
46045W        W17661  22.205   6.912   2.743
46046W        W17662  22.402   9.109  14.704
46047W        W17663  25.569  13.516   3.163
46048W        W17664   8.654  42.055   2.809
46049W        W17665  40.219  33.961  14.819
46050W        W17666   0.824   2.345   0.788
46051W        W17667  16.512  15.396  11.804
46052W        W17668  44.688  39.451  11.170
46053W        W17669  29.168  19.833   1.446
46054W        W17670   8.186  11.202   4.406
46055W        W17671  11.115   8.635   0.229
46056W        W17672   6.050  16.371  12.330
46057W        W17673  21.725  30.206  14.863
46058W        W17674  31.303  12.873  14.973
46059W        W17675  32.484  31.454  10.662
46060W        W17676  43.854   7.004  14.368
46061W        W17677  18.076   2.750  14.900
46062W        W17678  27.627  11.280   2.758
46063W        W17679  17.303  27.285   0.424
46064W        W17680   6.077  27.417   2.718
46065W        W17681  27.983  13.408  14.892
46066W        W17682  43.906   1.175  14.210
46067W        W17683  23.055   1.288  10.888
46068W        W17684   5.874  27.151   0.273
46069W        W17685  15.824  35.134   2.174
46070W        W17686  41.879  41.048   0.471
46071W        W17687  32.366   4.848  12.730
46072W        W17688   3.919  33.995  11.056
46073W        W17689  43.481  37.545   2.769
46074W        W17690  26.920  35.980   5.015
46075W        W17691  20.528  17.572  14.954
46076W        W17692  12.563  38.513  11.644
46077W        W17693   1.323  31.950  14.842
46078W        W17694  11.509   6.287   4.741
46079W        W17695  42.085  10.274  13.478
46080W        W17696  18.486   8.350   2.154
46081W        W17697   8.812  11.604   2.374
46082W        W17698  16.679  34.081   2.177
46083W        W17699  18.626  37.426   4.781
46084W        W17700  36.429   9.842  14.440
46085W        W17701   9.221  16.644   1.696
46086W        W17702  34.010   1.574   0.469
46087W        W17703  22.685  34.857   1.199
46088W        W17704  40.267  17.179   0.977
46089W        W17705   5.108  21.359   2.146
46090W        W17706  42.051  11.418   0.763
46091W        W17707  33.839  11.298  10.755
46092W        W17708  39.883  15.529  11.967
46093W        W17709  37.065  11.283  11.133
46094W        W17710  35.232  25.337  11.084
46095W        W17711  17.601  21.510   4.577
46096W        W17712  13.510  28.082  11.085
46097W        W17713  10.956  25.931   2.784
46098W        W17714  41.288  42.987  14.563
46099W        W17715  12.208  17.310  10.717
46100W        W17716  44.040  35.143  12.147
46101W        W17717  39.409   5.332  11.022
46102W        W17718  30.447  31.139   1.815
46103W        W17719  22.550  25.641  13.393
46104W        W17720  13.365  31.798  11.547
46105W        W17721  44.949  41.594  13.885
46106W        W17722  31.047  21.689  11.209
46107W        W17723  29.231  41.977  11.264
46108W        W17724   1.384  13.108  13.034
46109W        W17725   9.130  37.528  11.939
46110W        W17726  15.644   3.279  12.977
46111W        W17727  28.118  20.631  11.113
46112W        W17728  25.014  44.995   4.938
46113W        W17729   1.954  24.701   3.854
46114W        W17730   4.758  33.889   3.665
46115W        W17731  27.144  29.290   1.499
46116W        W17732  10.869   6.415   0.315
46117W        W17733   7.199  44.006   2.870
46118W        W17734  30.048  29.544  14.405
46119W        W17735  35.154  18.328   1.098
46120W        W17736  20.575  40.011  12.442
46121W        W17737  44.400  14.240  14.856
46122W        W17738  41.449  29.917   0.910
46123W        W17739  24.529  31.940   0.083
46124W        W17740   8.873   2.222  13.886
46125W        W17741  33.116  40.313   2.381
46126W        W17742  33.971  13.108   1.272
46127W        W17743  26.126  44.795  14.479
46128W        W17744  20.177   7.898  10.648
46129W        W17745  27.217  39.111  12.368
46130W        W17746  14.111  17.047   4.253
46131W        W17747  25.429  37.698  11.133
46132W        W17748  33.202  17.718  12.445
46133W        W17749  30.642   5.613   0.480
46134W        W17750  29.584  26.406   3.274
46135W        W17751  17.582  25.711   0.465
46136W        W17752  19.790  38.572   0.318
46137W        W17753  38.510  23.070  13.696
46138W        W17754   6.682  15.055   1.359
46139W        W17755  40.067   3.672   2.862
46140W        W17756  37.854  37.840  13.504
46141W        W17757  15.308  14.585   3.242
46142W        W17758   7.757   0.752  11.524
46143W        W17759  15.642  31.940   1.752
46144W        W17760  42.761  12.736   3.638
46145W        W17761   8.715   0.995   2.290
46146W        W17762  10.801  23.242  13.920
46147W        W17763  40.537  18.278   0.679
46148W        W17764   7.389   4.722   2.818
46149W        W17765  43.486   3.186  12.488
46150W        W17766  12.095  15.823   1.799
46151W        W17767   9.544  41.355   3.341
46152W        W17768  19.460  28.549  11.637
46153W        W17769  28.106  20.435  10.651
46154W        W17770  28.033   9.527  10.906
46155W        W17771  39.596  35.601  11.090
46156W        W17772  28.655  41.709   2.809
46157W        W17773   3.045  23.397   3.587
46158W        W17774  37.072  15.446   2.704
46159W        W17775  33.595  30.936   4.014
46160W        W17776  42.280  36.512  10.233
46161W        W17777  27.160  32.349   1.890
46162W        W17778  43.484  35.695  11.694
46163W        W17779  12.544  19.268   3.126
46164W        W17780  36.405  36.562  14.871
46165W        W17781   5.367  38.551   4.568
46166W        W17782  43.586  24.108  11.593
46167W        W17783  32.435   4.307   4.457
46168W        W17784  30.696  40.403  14.756
46169W        W17785  26.693   8.162  14.444
46170W        W17786  11.007  43.031   4.136
46171W        W17787   7.097  20.572  11.551
46172W        W17788  18.295   9.606   4.756
46173W        W17789   0.200  42.250  12.743
46174W        W17790   9.989  27.226   1.597
46175W        W17791  18.583  41.947  12.871
46176W        W17792  15.153  42.288   4.285
46177W        W17793   6.343  16.255  10.751
46178W        W17794   6.290  19.227   0.847
46179W        W17795  13.274  36.144   0.402
46180W        W17796  22.997  10.830  13.866
46181W        W17797  32.276  39.092  11.555
46182W        W17798  31.592   7.320   4.651
46183W        W17799  43.188  21.134  12.433
46184W        W17800  24.420  25.432   1.678
46185W        W17801  25.079  30.082   3.755
46186W        W17802  11.731  23.159   0.476
46187W        W17803  21.720  41.306  13.530
46188W        W17804  11.084  39.749  10.569
46189W        W17805   8.945  20.080   0.350
46190W        W17806   8.873  34.909   4.070
46191W        W17807  33.589  25.177   0.349
46192W        W17808  37.437  44.874  12.343
46193W        W17809   8.858   0.815  12.440
46194W        W17810  32.722  22.563  14.344
46195W        W17811  18.812  36.741   0.204
46196W        W17812  33.310   8.320   0.286
46197W        W17813   3.506   6.201  13.341
46198W        W17814  30.837  17.327   1.852
46199W        W17815  38.770  18.990   0.466
46200W        W17816   1.276  26.722  14.514
46201W        W17817  31.011  29.456  13.095
46202W        W17818   2.946  14.981  14.394
46203W        W17819  39.837   5.772   0.962
46204W        W17820  36.004  18.986  12.172
46205W        W17821  26.724   7.385  12.815
46206W        W17822  22.687  20.777  12.240
46207W        W17823  34.610  42.299  14.500
46208W        W17824  43.718  26.553   5.137
46209W        W17825  29.062  22.624   0.439
46210W        W17826  15.243  18.589   4.167
46211W        W17827   3.205  41.097  14.816
46212W        W17828  36.005  28.513  12.597
46213W        W17829  31.426  12.413   1.755
46214W        W17830  38.917  41.017   2.317
46215W        W17831   0.511  18.719   2.755
46216W        W17832  33.013   3.214   5.079
46217W        W17833  18.860  30.009  11.118
46218W        W17834  15.944  35.976  13.003
46219W        W17835  37.401  28.480   2.360
46220W        W17836   3.299  26.452   2.761
46221W        W17837  22.615  16.757   1.299
46222W        W17838  18.875  43.447   4.204
46223W        W17839  29.060  20.547  12.709
46224W        W17840  30.182   1.373   3.272
46225W        W17841  30.446  31.410  14.954
46226W        W17842  26.672  31.948   1.347
46227W        W17843  15.015  24.635  14.779
46228W        W17844  13.785   4.271   4.931
46229W        W17845   5.808  19.498  13.394
46230W        W17846  23.478  32.465   3.880
46231W        W17847  25.472   4.686   3.699
46232W        W17848  33.757  44.245  14.452
46233W        W17849  22.807   3.418  11.260
46234W        W17850  14.608   1.986  10.289
46235W        W17851  42.046  22.106  13.472
46236W        W17852  32.872  31.924  13.757
46237W        W17853   3.236  21.763   1.344
46238W        W17854  18.268  22.997   1.496
46239W        W17855  24.854  19.518  14.251
46240W        W17856  18.254  11.206   1.373
46241W        W17857  23.628  17.314   2.632
46242W        W17858   6.313  18.480   1.382
46243W        W17859   4.668  31.459   3.736
46244W        W17860  13.386  17.752  12.444
46245W        W17861  25.968   2.616  11.565
46246W        W17862  11.835  18.121   3.117
46247W        W17863  18.068   0.277   3.623
46248W        W17864   2.285  18.301  10.631
46249W        W17865  13.730  19.630   2.192
46250W        W17866  35.840  38.868  12.076
46251W        W17867  35.618   3.719  10.800
46252W        W17868  24.000  43.286   0.477
46253W        W17869  31.910   9.466  11.629
46254W        W17870   8.862  13.575   0.066
46255W        W17871  28.193  30.550  14.339
46256W        W17872  30.770  21.174  12.123
46257W        W17873  18.047  24.124  10.690
46258W        W17874  39.209  44.481   1.127
46259W        W17875  30.726  33.968   3.688
46260W        W17876  43.989  42.310   2.930
46261W        W17877  16.345  18.356   0.689
46262W        W17878  10.322  13.137  14.595
46263W        W17879  29.708  35.621  10.401
46264W        W17880  12.656  42.753  12.972
46265W        W17881  25.630  43.586  12.408
46266W        W17882  43.939  40.779  14.161
46267W        W17883  13.472  13.683  12.110
46268W        W17884   3.209  13.267   2.082
46269W        W17885  36.110  33.300   1.065
46270W        W17886  34.956   3.651   3.641
46271W        W17887   1.253   6.978   3.317
46272W        W17888  18.351  12.657  12.805
46273W        W17889   6.175  39.903   4.063
46274W        W17890  42.593  37.860   1.736
46275W        W17891  30.174   9.632   3.798
46276W        W17892  39.598  29.045  13.297
46277W        W17893  36.593  27.065   4.585
46278W        W17894  39.287  37.510  10.797
46279W        W17895  29.721   4.981   1.492
46280W        W17896  14.097   6.836   1.825
46281W        W17897  25.102  29.005   1.794
46282W        W17898  20.732  26.256   2.627
46283W        W17899  37.469  21.403   2.813
46284W        W17900  24.701  11.332  11.691
46285W        W17901  25.763   5.863   3.286
46286W        W17902  40.548  17.569   3.405
46287W        W17903  34.583  34.057  11.526
46288W        W17904  35.505  32.211   0.298
46289W        W17905  30.909  15.758  11.913
46290W        W17906  37.525   0.430  13.734
46291W        W17907   6.585  25.479   0.732
46292W        W17908  14.926  27.752   3.159
46293W        W17909   7.744  10.761  13.196
46294W        W17910  26.136  41.257   3.284
46295W        W17911   8.677  38.552  10.642
46296W        W17912  10.698  20.957  10.253
46297W        W17913  29.664  37.377  10.696
46298W        W17914   1.440  37.978  10.669
46299W        W17915  39.623  26.083   2.279
46300W        W17916  21.126   6.911   0.862
46301W        W17917  44.259   2.469   2.436
46302W        W17918  23.145  31.876   0.759
46303W        W17919  23.988  42.533  11.554
46304W        W17920  26.178  37.604  12.202
46305W        W17921  14.212   3.503   2.015
46306W        W17922   1.707  39.991   4.182
46307W        W17923  17.490  20.178   0.407
46308W        W17924  10.882   6.862  10.676
46309W        W17925  42.073  44.045   0.758
46310W        W17926  25.164  23.525  11.267
46311W        W17927  20.102   6.335   2.885
46312W        W17928   7.174  20.360  14.286
46313W        W17929  26.629  13.724   0.013
46314W        W17930  28.827  27.254   2.373
46315W        W17931   3.687  14.652   3.203
46316W        W17932  39.770  16.702  11.222
46317W        W17933  13.220   6.714  12.483
46318W        W17934   5.679   0.339  13.465
46319W        W17935  13.344  38.587   4.135
46320W        W17936  17.178  15.652  11.100
46321W        W17937   0.239  16.037   1.328
46322W        W17938   2.585  11.375   0.322
46323W        W17939   3.940  20.980  10.127
46324W        W17940  35.070  14.651  10.441
46325W        W17941   1.138   6.902  14.673
46326W        W17942   3.767  43.196  11.711
46327W        W17943  38.285  24.655  14.267
46328W        W17944   8.813  40.241  13.858
46329W        W17945  32.923  39.556  12.645
46330W        W17946   0.854  25.039   4.599
46331W        W17947  13.820  25.239   1.334
46332W        W17948  20.255  19.704   0.875
46333W        W17949   0.302   4.634   4.565
46334W        W17950   2.276  16.846  13.075
46335W        W17951  10.581  36.903   3.073
46336W        W17952  32.830  11.467  10.668
46337W        W17953   8.641  21.093  14.489
46338W        W17954  43.476  26.848  10.483
46339W        W17955  35.617  32.639  12.315
46340W        W17956  23.627  44.035  10.841
46341W        W17957  22.509   8.853   4.550
46342W        W17958  33.996  18.295   4.535
46343W        W17959  41.279  15.809  10.441
46344W        W17960  30.658  10.705  12.510
46345W        W17961  30.955   7.160   4.355
46346W        W17962  38.347  40.663  13.358
46347W        W17963  42.301  43.741   1.724
46348W        W17964  11.718  33.420  13.349
46349W        W17965  37.590   4.217  14.525
46350W        W17966  14.882  42.856  13.839
46351W        W17967  29.463  13.000  12.073
46352W        W17968  22.559  30.658  10.799
46353W        W17969  43.316  15.259  12.322
46354W        W17970  35.852  20.884  14.625
46355W        W17971  36.975  10.887  14.394
46356W        W17972  13.280  11.681   4.933
46357W        W17973  36.358  12.283  14.988
46358W        W17974  18.600  15.520   2.929
46359W        W17975  36.343  24.292   1.528
46360W        W17976   2.979  17.841  11.953
46361W        W17977  24.715  29.164   2.692
46362W        W17978  31.618  34.881   0.016
46363W        W17979   9.284  42.947  10.746
46364W        W17980  29.882  26.378  11.977
46365W        W17981  35.627  34.603  14.047
46366W        W17982  16.285  29.659  13.133
46367W        W17983   1.852   9.841  14.813
46368W        W17984  17.628  37.005   0.828
46369W        W17985   4.411  34.996  13.402
46370W        W17986  33.513  10.267  12.523
46371W        W17987  22.012  10.296   3.126
46372W        W17988  14.851   3.277   0.060
46373W        W17989  20.290   0.353   2.876
46374W        W17990  33.162  29.780   4.970
46375W        W17991  19.836   2.001  14.996
46376W        W17992  32.400   0.015   2.836
46377W        W17993  17.292  16.764   3.648
46378W        W17994  39.691  35.041  13.910
46379W        W17995  30.429  35.292   3.293
46380W        W17996  11.891  26.020   0.337
46381W        W17997   0.804  21.207   4.521
46382W        W17998   7.482  25.203  11.563
46383W        W17999  31.218  12.316   0.703
46384W        W18000  19.287  16.257   2.019
46385W        W18001  19.352   8.661   0.349
46386W        W18002   1.799  35.616   1.107
46387W        W18003  16.358  27.894  12.423
46388W        W18004  33.453  13.658  14.972
46389W        W18005  31.134  20.135  11.367
46390W        W18006  37.480  29.467  11.372
46391W        W18007   7.768  36.516  10.687
46392W        W18008   8.236   2.449  14.667
46393W        W18009  27.124  24.696  12.054
46394W        W18010   4.025  13.889  13.038
46395W        W18011  25.095  21.800   3.628
46396W        W18012  36.232  41.511   0.557
46397W        W18013   5.932  34.412  14.836
46398W        W18014  11.016  21.961   1.730
46399W        W18015  16.463   0.914  10.499
46400W        W18016  44.078  27.636   0.931
46401W        W18017  26.306  26.490   2.930
46402W        W18018  30.214  32.945  12.896
46403W        W18019   9.387  36.651  14.772
46404W        W18020  12.703  21.017  14.404
46405W        W18021  40.916  21.732   1.999
46406W        W18022  27.176  16.325   9.840
46407W        W18023  24.678   9.646   3.476
46408W        W18024  34.077  17.600   1.932
46409W        W18025  33.667  30.070   3.659
46410W        W18026  38.519  43.450  11.601
46411W        W18027  13.817  19.315   1.690
46412W        W18028  19.405  43.325   4.249
46413W        W18029  26.937  38.347   0.202
46414W        W18030  37.513  11.103   5.163
46415W        W18031  17.184  35.080  13.221
46416W        W18032  38.504  23.828   4.391
46417W        W18033  37.497   2.048   3.651
46418W        W18034  17.290  39.599  13.434
46419W        W18035   8.680  18.511  12.690
46420W        W18036   5.639  16.626   0.828
46421W        W18037  24.293  17.767  14.959
46422W        W18038   7.104  16.172   2.685
46423W        W18039  10.812   0.623  13.574
46424W        W18040  18.233  25.131  11.597
46425W        W18041  30.738   1.275   3.263
46426W        W18042  21.221   7.696  12.959
46427W        W18043  29.089   2.845   3.224
46428W        W18044  18.064  41.050  11.185
46429W        W18045  41.991  13.616   1.457
46430W        W18046  40.758  30.526  13.836
46431W        W18047  33.527   4.770   1.540
46432W        W18048  37.820  20.730  12.200
46433W        W18049   0.987   3.797  13.404
46434W        W18050  11.668   2.334   4.606
46435W        W18051  22.348  13.901  11.114
46436W        W18052  25.544  17.758  14.114
46437W        W18053  37.584  22.482   1.421
46438W        W18054   2.285  10.329   2.999
46439W        W18055  29.887  17.784   1.940
46440W        W18056  25.710  33.952  11.710
46441W        W18057  34.069  11.854   3.220
46442W        W18058  25.935  42.416  13.098
46443W        W18059  39.848   9.894  12.118
46444W        W18060   8.743  22.927   1.404
46445W        W18061   0.469  37.061   3.569
46446W        W18062  36.100  22.765  11.002
46447W        W18063  41.542  23.628  12.283
46448W        W18064  31.947  37.075  11.884
46449W        W18065  16.995  15.837   3.705
46450W        W18066  17.932  37.397   4.869
46451W        W18067   2.208   5.777   0.300
46452W        W18068   9.703   8.165  13.895
46453W        W18069  12.739  19.723  11.122
46454W        W18070  25.403  21.231  10.686
46455W        W18071  25.443  36.597  12.399
46456W        W18072  29.220  29.292  10.764
46457W        W18073  43.837  21.927  12.820
46458W        W18074  21.572   5.878  13.219
46459W        W18075  25.121  19.865  12.035
46460W        W18076  42.302  18.023   3.095
46461W        W18077  33.517  15.296   1.458
46462W        W18078  12.708  44.284   0.561
46463W        W18079   4.608   8.814   3.252
46464W        W18080  19.540   7.762   4.730
46465W        W18081  22.152   2.424  13.910
46466W        W18082  30.548  41.704  13.013
46467W        W18083  30.501  44.551  13.477
46468W        W18084   6.453  12.198  12.946
46469W        W18085  14.566  32.054   3.298
46470W        W18086  35.997  35.054  11.698
46471W        W18087  10.976  39.384  14.936
46472W        W18088  30.829  15.173   4.006
46473W        W18089   9.038  24.737  13.514
46474W        W18090  31.004  18.480  10.325
46475W        W18091   4.747   0.675   1.091
46476W        W18092  26.716  24.544   3.398
46477W        W18093  44.580  30.125   1.341
46478W        W18094  33.527  41.605   1.232
46479W        W18095  23.924  14.305   3.253
46480W        W18096  40.043   5.870  12.877
46481W        W18097  41.497  32.752   0.432
46482W        W18098  27.504  11.233   0.919
46483W        W18099  32.838  22.112   0.247
46484W        W18100  38.558  34.171   0.420
46485W        W18101  16.659  12.318  10.726
46486W        W18102  20.111  36.272  14.532
46487W        W18103  28.608  14.547   2.821
46488W        W18104  18.509  31.437   4.661
46489W        W18105  34.982  11.641  11.113
46490W        W18106  40.347  22.596  13.411
46491W        W18107  43.786  38.454  12.592
46492W        W18108  41.089  33.902   3.247
46493W        W18109  28.206  10.779  13.842
46494W        W18110  18.234  21.141   1.218
46495W        W18111   5.728  28.057   4.214
46496W        W18112  41.490  36.411   2.347
46497W        W18113  21.167   4.299   3.693
46498W        W18114  38.020  42.053  12.589
46499W        W18115  32.154   1.805  13.094
46500W        W18116  38.093  33.172  12.327
46501W        W18117  32.121  37.954  10.877
46502W        W18118  35.406  15.881  12.017
46503W        W18119  42.607  38.333  14.833
46504W        W18120   7.699   3.265   4.585
46505W        W18121   7.848  39.998   2.863
46506W        W18122  43.951  15.682  12.476
46507W        W18123  10.056  24.959  12.102
46508W        W18124  25.730  31.859  12.014
46509W        W18125  30.123  42.482  11.976
46510W        W18126   3.955  27.119   3.129
46511W        W18127  40.328   5.908  14.513
46512W        W18128  33.063  32.990   4.657
46513W        W18129  15.368   6.705   1.313
46514W        W18130  41.845  15.046  11.157
46515W        W18131  14.945   0.654   0.834
46516W        W18132  14.631   2.764  14.874
46517W        W18133  13.674  42.476   1.720
46518W        W18134  18.449  10.413   3.641
46519W        W18135   3.717  16.228   0.065
46520W        W18136   7.168  43.238   3.317
46521W        W18137   4.488   8.637   2.759
46522W        W18138  23.737  22.443   1.453
46523W        W18139  33.742  27.588   2.231
46524W        W18140  25.498  19.535  10.588
46525W        W18141  12.121   0.711  13.871
46526W        W18142  18.868  32.127  12.986
46527W        W18143  30.368  43.431   4.404
46528W        W18144  42.976  32.965  11.993
46529W        W18145  37.041  44.406   0.304
46530W        W18146  27.930   8.738  13.473
46531W        W18147  43.865  15.702   4.946
46532W        W18148   1.092   5.894  14.483
46533W        W18149  17.582  19.475  14.917
46534W        W18150  38.837  12.328   0.452
46535W        W18151  28.906  12.378   4.416
46536W        W18152  21.957  15.323  14.519
46537W        W18153  29.233  15.567   1.687
46538W        W18154  38.407  19.475   2.145
46539W        W18155   7.436   8.292  10.644
46540W        W18156  37.889  21.047   0.479
46541W        W18157   5.405  26.705  14.296
46542W        W18158  26.533  33.235   0.585
46543W        W18159  30.746  20.214  14.354
46544W        W18160  42.294  27.943  14.758
46545W        W18161  14.896  41.793  10.905
46546W        W18162   0.910  11.609   3.557
46547W        W18163  32.565  20.172   0.256
46548W        W18164  26.922   9.585  13.535
46549W        W18165  30.040  44.868  13.769
46550W        W18166  38.294   1.774   1.278
46551W        W18167  10.162  30.370   0.486
46552W        W18168  26.456  40.483  12.837
46553W        W18169  21.801  21.768   1.348
46554W        W18170  23.771  14.607  11.575
46555W        W18171  31.693   3.733  11.978
46556W        W18172  18.145  16.583  14.116
46557W        W18173   0.784   6.779   3.332
46558W        W18174   6.909  25.660  12.000
46559W        W18175   4.272   9.287  14.469
46560W        W18176  42.978  12.837   2.130
46561W        W18177  32.829  25.597   3.217
46562W        W18178  33.817  36.306  14.986
46563W        W18179   0.436  26.098  11.418
46564W        W18180  29.560  37.095  12.616
46565W        W18181  14.879  19.685   3.758
46566W        W18182  27.614  24.133   3.350
46567W        W18183  16.281   1.421  10.593
46568W        W18184  44.757  19.650  14.920
46569W        W18185  36.615   1.799  13.019
46570W        W18186  18.834   1.800   1.149
46571W        W18187  11.672  32.931  11.786
46572W        W18188  19.104  40.550  11.907
46573W        W18189  16.015  39.390  12.929
46574W        W18190  15.218  22.787   2.207
46575W        W18191  38.297  25.513  11.100
46576W        W18192  12.842  28.177  11.934
46577W        W18193  19.580  37.864  13.426
46578W        W18194  21.577   3.596  14.049
46579W        W18195   0.363  40.645   3.681
46580W        W18196  16.219  30.713  12.941
46581W        W18197   4.651  14.317  11.835
46582W        W18198  44.028   2.455  10.732
46583W        W18199  42.625  38.569   1.225
46584W        W18200  15.578   2.421   0.758
46585W        W18201  11.494   6.985  11.675
46586W        W18202   4.217  14.123  10.598
46587W        W18203  12.672  43.050   3.704
46588W        W18204  32.399  42.821  13.475
46589W        W18205  35.004  21.139   0.604
46590W        W18206   2.940   5.621   1.415
46591W        W18207  21.972  15.731   3.772
46592W        W18208   5.180  31.495   3.674
46593W        W18209   5.557  13.179  14.102
46594W        W18210  12.642   7.378  12.068
46595W        W18211  30.111   0.056   3.751
46596W        W18212  43.840  24.243   2.253
46597W        W18213  39.471   8.675  11.601
46598W        W18214  11.102  15.926  14.581
46599W        W18215  33.657   0.542   2.166
46600W        W18216   6.732  26.564  11.459
46601W        W18217  15.309  18.013   0.806
46602W        W18218  36.119  39.326   1.853
46603W        W18219   2.325  31.251   4.744
46604W        W18220   2.465  17.718  14.814
46605W        W18221   0.041  16.102  12.963
46606W        W18222   0.263  29.570   2.871
46607W        W18223  35.320  29.676   1.681
46608W        W18224  25.813  44.791  10.882
46609W        W18225  37.251  29.851   4.183
46610W        W18226  28.391   1.440  12.546
46611W        W18227  42.951   8.848  13.310
46612W        W18228  33.636   5.909  11.491
46613W        W18229  25.436  35.814  14.370
46614W        W18230  23.034   3.772   0.262
46615W        W18231  11.904   4.579   5.448
46616W        W18232   0.471   9.043  11.111
46617W        W18233  13.995  33.971  14.420
46618W        W18234  27.486  34.073   0.854
46619W        W18235  31.619  37.123  12.499
46620W        W18236  44.043  37.322  13.331
46621W        W18237  37.518  39.007  11.671
46622W        W18238  12.642  17.615   4.591
46623W        W18239  39.082  12.358  12.283
46624W        W18240  28.331  11.747   4.980
46625W        W18241   6.438   1.862   3.671
46626W        W18242  39.980  27.333   0.785
46627W        W18243  30.635  37.040  13.457
46628W        W18244  36.022  36.737   1.956
46629W        W18245  36.155  35.107  13.946
46630W        W18246  18.156   7.533  14.203
46631W        W18247  24.240  36.436  11.283
46632W        W18248  28.234  28.587  13.874
46633W        W18249  12.298  29.637  14.015
46634W        W18250  42.577  29.031  12.443
46635W        W18251  19.639  44.437   9.682
46636W        W18252   7.813  38.373   4.376
46637W        W18253   0.460  24.819  13.932
46638W        W18254  14.670  23.558  10.587
46639W        W18255   2.599  13.726  11.847
46640W        W18256  25.341   1.226  12.780
46641W        W18257   0.685  35.950  12.625
46642W        W18258  22.838  42.590  11.536
46643W        W18259  34.999  13.962   4.945
46644W        W18260  33.906  27.487  13.797
46645W        W18261  26.599  10.994   4.554
46646W        W18262   4.234  44.996   3.771
46647W        W18263   2.762  21.285   0.695
46648W        W18264  38.648  36.580   1.805
46649W        W18265  39.944   0.405  14.965
46650W        W18266  22.024  33.106  13.325
46651W        W18267  37.132   9.701  14.724
46652W        W18268  20.693   0.316  14.304
46653W        W18269  37.425  19.258  11.439
46654W        W18270  12.213  16.942   2.518
46655W        W18271  13.177  26.221   2.084
46656W        W18272  22.032  10.880  12.389
46657W        W18273  24.142  43.921   1.228
46658W        W18274   6.407  37.884   3.580
46659W        W18275  19.697  32.000  13.581
46660W        W18276   8.294  23.051   3.732
46661W        W18277  28.806  20.991  14.445
46662W        W18278  38.120   7.719  14.173
46663W        W18279  17.155  11.808  14.840
46664W        W18280   1.624   2.980   3.504
46665W        W18281  42.576  13.622   0.329
46666W        W18282  24.569   0.297   3.919
46667W        W18283  37.189  12.080  11.145
46668W        W18284  25.468   1.523  14.550
46669W        W18285  24.722  22.041   0.707
46670W        W18286   1.370   4.836  11.720
46671W        W18287   6.467  15.826  10.071
46672W        W18288  10.104  25.569  13.437
46673W        W18289  35.886  17.804   3.566
46674W        W18290  18.875  13.347   0.980
46675W        W18291  37.796   1.845   3.229
46676W        W18292  43.916  21.467  12.636
46677W        W18293  23.463  39.775   4.152
46678W        W18294  16.571  42.021   4.077
46679W        W18295  30.923   4.344  14.013
46680W        W18296  44.297  27.545  14.436
46681W        W18297  30.932  18.661   1.643
46682W        W18298  22.150  12.687  10.682
46683W        W18299  36.428  40.022   2.734
46684W        W18300   1.346  37.026  10.703
46685W        W18301   4.139  21.030   2.291
46686W        W18302   5.441  16.782   2.367
46687W        W18303  12.796  31.633   3.178
46688W        W18304  36.465   1.256  13.027
46689W        W18305  11.759   9.855   2.049
46690W        W18306  39.256  21.532  10.562
46691W        W18307  24.593  17.882  10.964
46692W        W18308  14.160  31.030   2.366
46693W        W18309   2.396  19.465  10.331
46694W        W18310   4.941  42.532  11.173
46695W        W18311   9.743  39.376   0.882
46696W        W18312  41.270  17.485  11.878
46697W        W18313  15.231  10.445  10.822
46698W        W18314  35.506   2.531   1.339
46699W        W18315  32.543  13.221  13.870
46700W        W18316   0.742   1.178   1.233
46701W        W18317  34.934  38.361  11.945
46702W        W18318  11.259  13.800  10.942
46703W        W18319   8.885  26.273   1.315
46704W        W18320  15.677  17.136   0.338
46705W        W18321   4.308  17.654  10.728
46706W        W18322  12.300  35.148  13.643
46707W        W18323  27.113  28.434   3.283
46708W        W18324  38.359  42.813   5.232
46709W        W18325  40.826   1.901   2.013
46710W        W18326   1.164   5.323  14.869
46711W        W18327  36.493  31.857   0.697
46712W        W18328  27.533  32.037   4.278
46713W        W18329  30.932  42.338   0.434
46714W        W18330  41.265   2.702   1.433
46715W        W18331  11.572  10.702   4.177
46716W        W18332  15.795  19.275   1.046
46717W        W18333  13.882   1.622   0.379
46718W        W18334  15.696   0.690   1.295
46719W        W18335  42.379  24.280  11.176
46720W        W18336  37.419  41.299   2.210
46721W        W18337  32.888   3.373  12.077
46722W        W18338   2.078  27.456  12.585
46723W        W18339  10.622  27.196  12.142
46724W        W18340  42.591  38.068  12.880
46725W        W18341  32.150  22.562   4.774
46726W        W18342  31.965  23.260   1.416
46727W        W18343   8.710   7.239   0.062
46728W        W18344   0.313   7.184  10.978
46729W        W18345   4.605  33.660   5.227
46730W        W18346  12.825  40.895  13.517
46731W        W18347  16.649  23.773  10.631
46732W        W18348  42.794  34.554   4.809
46733W        W18349  31.373  18.990  11.631
46734W        W18350  39.292  12.309  11.235
46735W        W18351  32.890  27.152  11.196
46736W        W18352  28.919  42.793   3.552
46737W        W18353  37.987  39.472  13.022
46738W        W18354  20.568  18.799   4.733
46739W        W18355  43.040  10.649   4.073
46740W        W18356   5.166  33.448  10.932
46741W        W18357  12.123  35.952   2.918
46742W        W18358  30.275  30.875   2.831
46743W        W18359   4.475   1.226   4.291
46744W        W18360  16.982   4.228   0.547
46745W        W18361  14.570   3.426   3.538
46746W        W18362   0.167  24.044   5.116
46747W        W18363  36.004  41.527   4.378
46748W        W18364  33.487  36.097   2.859
46749W        W18365  36.436  25.970  13.835
46750W        W18366  40.845  33.504   0.415
46751W        W18367  22.182   8.227  10.894
46752W        W18368  18.212  12.822   4.198
46753W        W18369  18.694  21.295   4.053
46754W        W18370   4.822  34.103   1.215
46755W        W18371  33.368   4.795  13.305
46756W        W18372  19.075  25.778  11.631
46757W        W18373  27.364  14.146   3.308
46758W        W18374   6.991  23.662  10.648
46759W        W18375   9.731  21.204  13.810
46760W        W18376   5.502   7.873   0.780
46761W        W18377  18.325  25.063   3.623
46762W        W18378  31.146  17.335   4.585
46763W        W18379  16.912  35.793   1.952
46764W        W18380  20.292  27.567   0.506
46765W        W18381   5.349   3.671  10.497
46766W        W18382  42.197  13.128   5.242
46767W        W18383  28.374  16.669   1.503
46768W        W18384  25.484  33.454  10.642
46769W        W18385  36.388  32.996  14.562
46770W        W18386  37.180  10.701   1.844
46771W        W18387  32.350  26.098  14.112
46772W        W18388  41.540  40.244   2.682
46773W        W18389  20.543  26.670  14.281
46774W        W18390  36.200  28.046  10.940
46775W        W18391   2.471   5.793   3.124
46776W        W18392   0.405  27.524   4.746
46777W        W18393   2.789  17.257  12.011
46778W        W18394   6.736   1.814  13.388
46779W        W18395  23.562  19.543   2.117
46780W        W18396  29.485  37.081   0.480
46781W        W18397  17.763  31.701  13.395
46782W        W18398  34.888  36.110  11.153
46783W        W18399  21.758   3.373  12.952
46784W        W18400  38.689   2.544  13.965
46785W        W18401   8.820  26.002   0.484
46786W        W18402   9.430  20.280   0.272
46787W        W18403  16.103  18.481  11.494
46788W        W18404   6.899   2.912  12.536
46789W        W18405   3.370  11.268  13.709
46790W        W18406   3.745   7.427   0.471
46791W        W18407  32.196  26.717  14.416
46792W        W18408  41.442  34.480   4.794
46793W        W18409   6.380  17.722  13.046
46794W        W18410   0.448  41.585   2.038
46795W        W18411   3.239  24.940  11.128
46796W        W18412  44.394  19.737   4.155
46797W        W18413  23.057  26.753   2.386
46798W        W18414  33.396  44.538  11.641
46799W        W18415  28.648   9.891  13.899
46800W        W18416  14.874  43.531  14.564
46801W        W18417  38.024  29.309  13.078
46802W        W18418  36.576  34.787  10.448
46803W        W18419  25.516  30.406  14.355
46804W        W18420  35.835   1.020   4.337
46805W        W18421   5.007  24.996   2.716
46806W        W18422  13.823  41.034  14.247
46807W        W18423  14.681  16.389  12.805
46808W        W18424  15.907   1.294  12.553
46809W        W18425  17.743  21.135   1.460
46810W        W18426  34.435  15.055  12.609
46811W        W18427  18.950  20.632   1.725
46812W        W18428  40.014  29.489  11.110
46813W        W18429  34.063   9.378  10.993
46814W        W18430  14.062  39.081   4.898
46815W        W18431  24.656  14.133   3.623
46816W        W18432  26.972  37.528  13.489
46817W        W18433  44.710  20.623  12.029
46818W        W18434  31.166   3.383   0.449
46819W        W18435   2.479   2.951   1.292
46820W        W18436  10.311  42.836   4.533
46821W        W18437  18.488  24.579   3.666
46822W        W18438  22.253  19.535   3.235
46823W        W18439  40.214  30.425  11.094
46824W        W18440  32.826  29.380   5.045
46825W        W18441  44.018  21.081  12.077
46826W        W18442  34.489  22.659   1.161
46827W        W18443  28.093  18.150  11.668
46828W        W18444  28.250   4.146   0.643
46829W        W18445   4.282   4.369   2.418
46830W        W18446  20.595  15.961  14.900
46831W        W18447  11.680  27.649   3.094
46832W        W18448  21.977  44.248  10.239
46833W        W18449  35.520  39.032  13.056
46834W        W18450  14.837  20.303  11.452
46835W        W18451  10.105  16.094  11.958
46836W        W18452  33.348  28.589   0.905
46837W        W18453  19.063  27.719  10.963
46838W        W18454  11.765   1.802  13.872
46839W        W18455  24.663   8.226   0.496
46840W        W18456   2.718  20.460  14.338
46841W        W18457  17.700  31.709   1.219
46842W        W18458  13.622   7.176  13.060
46843W        W18459   8.195   3.538  12.974
46844W        W18460   4.800  24.474   4.190
46845W        W18461  21.269  21.610   1.325
46846W        W18462  34.709  40.688  10.467
46847W        W18463  23.021  16.326  13.100
46848W        W18464  39.432   4.897  11.669
46849W        W18465   6.801  13.356  10.691
46850W        W18466  28.149  31.010  11.572
46851W        W18467  10.811   1.696  10.666
46852W        W18468  24.434   3.159   3.316
46853W        W18469  30.663  27.673   0.920
46854W        W18470  34.595   4.963  12.793
46855W        W18471  30.557  43.975  14.347
46856W        W18472  25.071  27.850   4.211
46857W        W18473  31.219  34.656   0.736
46858W        W18474  31.435  29.914   4.045
46859W        W18475  33.851  23.169   0.347
46860W        W18476  18.518  23.088   0.230
46861W        W18477  40.387  42.444  13.542
46862W        W18478   9.901  38.303   4.702
46863W        W18479   2.946  43.701   2.244
46864W        W18480  38.541  13.825   4.530
46865W        W18481  20.218  23.584   4.284
46866W        W18482   4.101  27.568   0.527
46867W        W18483  32.013   0.953   1.420
46868W        W18484  15.223  12.833   2.111
46869W        W18485  19.031  29.581   2.589
46870W        W18486  42.892  26.148  13.832
46871W        W18487   0.370  41.917   0.691
46872W        W18488  27.703  15.812   0.908
46873W        W18489  13.378  19.493  14.727
46874W        W18490  14.502  27.760  11.119
46875W        W18491  36.419  28.146  14.088
46876W        W18492  31.532   8.720   4.285
46877W        W18493  14.285   6.238   2.730
46878W        W18494  34.035  39.101   2.423
46879W        W18495  19.190  11.370  11.145
46880W        W18496  19.176  25.182   3.308
46881W        W18497  43.834  28.583   0.784
46882W        W18498  19.105  16.558  13.961
46883W        W18499  20.453  41.775  13.611
46884W        W18500  26.344  12.195  14.973
46885W        W18501   9.610   5.769   0.994
46886W        W18502  42.930  18.656  14.789
46887W        W18503  44.826   2.657   0.763
46888W        W18504  44.469  23.686   0.500
46889W        W18505   3.112  37.990   3.154
46890W        W18506   7.304   3.786  12.159
46891W        W18507  37.832  30.385   1.686
46892W        W18508  39.328  13.028   2.398
46893W        W18509  33.187  36.878  12.373
46894W        W18510  12.736  29.587  11.752
46895W        W18511  37.273   1.304  10.596
46896W        W18512  19.103  43.531   3.758
46897W        W18513  33.798  27.696  11.133
46898W        W18514  15.751  30.974  12.957
46899W        W18515  31.094   5.707  14.321
46900W        W18516  13.332   3.781   9.970
46901W        W18517  18.758  22.305  10.700
46902W        W18518  19.896  30.985  13.952
46903W        W18519  38.989  33.539   4.529
46904W        W18520  14.240  31.008  13.118
46905W        W18521  42.528  44.278   0.856
46906W        W18522  29.138  19.317  14.169
46907W        W18523   0.034  17.380   3.704
46908W        W18524  41.311   7.627   1.302
46909W        W18525   8.319   2.777   2.258
46910W        W18526  41.891  13.678  10.791
46911W        W18527   4.828  39.725   2.377
46912W        W18528  41.093  21.693  12.938
46913W        W18529  42.706  28.124  14.997
46914W        W18530   3.960  44.458   1.722
46915W        W18531   3.267  17.292  11.119
46916W        W18532   3.601  31.267  13.412
46917W        W18533  11.074  35.545  12.948
46918W        W18534  27.949  25.522   0.317
46919W        W18535  10.158  26.518  11.397
46920W        W18536  13.714  36.876  13.188
46921W        W18537   2.269  27.962   1.110
46922W        W18538  17.291   8.189   1.004
46923W        W18539  19.646  38.255  12.833
46924W        W18540   6.386  34.009   2.903
46925W        W18541  42.879   5.435   1.917
46926W        W18542  21.456  21.298  12.493
46927W        W18543   3.325   8.599   3.264
46928W        W18544  16.295   4.445  10.357
46929W        W18545   2.868   1.211   4.260
46930W        W18546  18.082  27.433   3.677
46931W        W18547  21.140   0.548  12.103
46932W        W18548  10.742  14.697   1.863
46933W        W18549  20.965   1.389  12.337
46934W        W18550  19.175  10.794  13.961
46935W        W18551  12.341  15.773   0.349
46936W        W18552  34.626  22.723  13.042
46937W        W18553  42.999   4.334  11.650
46938W        W18554  10.198   2.391   4.094
46939W        W18555  38.063  32.032  14.778
46940W        W18556  27.846  20.074   1.315
46941W        W18557   7.903  27.364   3.896
46942W        W18558  21.310  27.746   3.530
46943W        W18559  31.009  23.692  12.479
46944W        W18560  32.354   4.335   0.276
46945W        W18561  28.134  12.052   4.544
46946W        W18562  17.683  11.594   4.168
46947W        W18563   2.369  32.177  12.600
46948W        W18564  19.299  42.259   5.077
46949W        W18565  20.953   6.343   2.691
46950W        W18566  13.289  18.094   3.671
46951W        W18567  23.226  25.195  12.492
46952W        W18568  28.375  29.903  14.980
46953W        W18569   5.453  10.273   3.191
46954W        W18570  34.406  19.726  11.219
46955W        W18571  15.384  44.822  12.591
46956W        W18572  32.314  20.611   0.138
46957W        W18573   7.232  39.147   0.524
46958W        W18574   9.864  13.390  11.600
46959W        W18575  34.459  11.242   1.042
46960W        W18576  19.324  18.058   4.692
46961W        W18577  22.649  14.185   0.234
46962W        W18578   9.343  33.628  11.552
46963W        W18579  25.389  21.264  11.549
46964W        W18580  26.875   5.624   2.567
46965W        W18581  42.820  40.808   0.914
46966W        W18582  28.707  33.118  13.839
46967W        W18583  26.293  42.179  14.990
46968W        W18584  12.853  36.497   2.141
46969W        W18585  42.472  14.104  12.315
46970W        W18586  44.257  25.744  14.044
46971W        W18587  39.459  27.212  12.764
46972W        W18588  34.052  16.073  10.019
46973W        W18589  10.877  19.350  11.486
46974W        W18590  10.310   5.898   2.845
46975W        W18591  34.599  31.059   0.392
46976W        W18592  16.604  28.652   1.260
46977W        W18593   6.825  12.697   0.574
46978W        W18594  10.129  11.208   3.142
46979W        W18595  28.546  18.705  10.636
46980W        W18596  11.297  35.385  10.549
46981W        W18597  26.117  12.318   1.372
46982W        W18598  43.783  29.686   0.540
46983W        W18599  43.356  24.292  10.703
46984W        W18600  44.678  38.410   1.891
46985W        W18601  21.005  18.337   2.686
46986W        W18602  19.172  32.175  14.700
46987W        W18603  43.494   1.848   2.424
46988W        W18604  21.973  18.664  11.415
46989W        W18605  21.693  17.793   1.240
46990W        W18606   7.947  35.838   3.062
46991W        W18607  13.269  23.427  11.579
46992W        W18608   7.587  44.473   4.233
46993W        W18609  10.455  37.597  12.556
46994W        W18610   2.724  41.378   4.210
46995W        W18611  19.600  13.810  12.994
46996W        W18612  12.719   3.243   2.278
46997W        W18613  31.289  44.024   0.348
46998W        W18614   1.915   3.781   3.211
46999W        W18615  37.783  15.665   1.711
47000W        W18616   3.616  31.560   2.275
47001W        W18617   7.926  34.905  14.582
47002W        W18618  35.689  34.646  13.167
47003W        W18619  41.875  18.501  11.658
47004W        W18620   1.461  26.183   2.131
47005W        W18621  15.293  14.680   1.271
47006W        W18622  42.229  23.106   1.887
47007W        W18623  35.991  39.776   4.628
47008W        W18624  27.628  33.021   2.821
47009W        W18625  10.019  36.848  13.590
47010W        W18626  11.059  38.539  11.532
47011W        W18627  38.784  19.641   3.794
47012W        W18628  26.499  26.109  11.025
47013W        W18629  17.277   0.277  14.315
47014W        W18630  30.427   8.207  14.841
47015W        W18631  39.762   3.301   1.710
47016W        W18632  34.059   3.356   4.120
47017W        W18633  40.991  37.881   4.174
47018W        W18634  33.533  28.716   2.877
47019W        W18635  13.956  21.628   0.712
47020W        W18636  41.556  21.507  12.985
47021W        W18637   8.298  28.663  12.638
47022W        W18638  19.018  25.733  11.125
47023W        W18639  33.439  12.378   3.581
47024W        W18640  41.318   2.718  12.027
47025W        W18641  41.578  19.725   2.308
47026W        W18642  15.272  23.265   2.451
47027W        W18643  41.131  35.040   2.807
47028W        W18644  43.805  19.093   4.333
47029W        W18645   3.008  39.771  10.676
47030W        W18646  33.517  32.162  14.676
47031W        W18647  29.658  11.928   3.598
47032W        W18648  27.339   2.871   2.032
47033W        W18649  35.558  42.891  10.789
47034W        W18650  34.232  24.838  11.440
47035W        W18651  26.618  13.813   9.889
47036W        W18652  42.188  24.136   2.786
47037W        W18653  37.645  23.280  11.874
47038W        W18654   2.971  43.777   3.142
47039W        W18655   1.852  20.038  13.561
47040W        W18656   1.737  22.305  14.752
47041W        W18657   0.807  17.005   2.373
47042W        W18658  42.858  42.416   0.763
47043W        W18659  16.147   0.993  13.944
47044W        W18660  15.327  33.320   4.503
47045W        W18661   1.178  13.351  12.042
47046W        W18662  14.124   8.167  11.581
47047W        W18663  32.459  22.592  12.483
47048W        W18664   6.755   3.791  11.256
47049W        W18665  27.919  26.548   3.734
47050W        W18666  33.501  35.444  12.353
47051W        W18667  26.131  24.583  14.940
47052W        W18668  30.960  44.715   0.934
47053W        W18669  23.406  24.269  14.870
47054W        W18670  27.573  12.305  12.981
47055W        W18671  34.644  14.238  13.007
47056W        W18672  10.442   1.840  12.440
47057W        W18673  27.672  24.239  14.811
47058W        W18674  41.985   0.412  13.361
47059W        W18675  24.755  26.618   2.725
47060W        W18676   2.141   9.818   2.457
47061W        W18677  37.336   8.051  11.087
47062W        W18678  29.985   4.386  14.357
47063W        W18679  24.121  10.207  10.649
47064W        W18680   6.819  16.173   3.136
47065W        W18681   4.408  30.359  11.444
47066W        W18682   2.316  13.742   0.758
47067W        W18683   8.485  26.645  12.079
47068W        W18684  32.454   6.333  12.803
47069W        W18685  11.175  24.255  13.044
47070W        W18686  39.838  36.598   0.097
47071W        W18687   3.519  23.577   1.475
47072W        W18688  23.760  32.238   2.832
47073W        W18689  17.349  34.592   1.249
47074W        W18690  39.140   8.661   3.370
47075W        W18691  22.500  15.670  11.897
47076W        W18692  33.611  13.841  11.132
47077W        W18693  27.803  15.097  10.232
47078W        W18694   7.249  32.255   1.327
47079W        W18695  15.779  42.481   3.573
47080W        W18696  16.357  31.907   1.156
47081W        W18697   8.936  17.997  14.511
47082W        W18698  42.560  27.931  12.877
47083W        W18699  10.956   1.242   3.600
47084W        W18700  41.025   2.346  10.622
47085W        W18701  23.237  23.534  11.107
47086W        W18702  42.020  10.410   2.726
47087W        W18703   7.766  33.007   4.613
47088W        W18704  16.113  21.940  13.861
47089W        W18705  31.432  27.783   9.966
47090W        W18706  36.575  19.107   0.864
47091W        W18707  38.795  22.135  14.012
47092W        W18708  41.067  44.917   0.646
47093W        W18709  16.619   6.383  12.389
47094W        W18710  33.883  28.527   3.227
47095W        W18711  30.868  37.861   1.885
47096W        W18712  13.976  10.139   5.044
47097W        W18713  15.856  22.650  10.398
47098W        W18714  22.836   6.573   4.134
47099W        W18715  27.073  39.114   3.118
47100W        W18716  24.195  13.365   3.164
47101W        W18717   3.555   1.463  10.160
47102W        W18718  11.296   6.142  13.526
47103W        W18719  42.393   8.547   0.632
47104W        W18720  14.813   7.440  13.638
47105W        W18721  37.768  17.098   2.883
47106W        W18722  12.752   0.461  12.378
47107W        W18723  37.114   8.683   4.118
47108W        W18724  10.083   9.406  14.366
47109W        W18725   3.758   2.733  12.153
47110W        W18726  24.040  31.370   2.777
47111W        W18727  42.209  17.794   1.047
47112W        W18728  32.640   5.519  13.513
47113W        W18729  26.824  15.739   2.278
47114W        W18730   7.674  34.325  12.919
47115W        W18731  31.049   6.654   1.475
47116W        W18732  38.250  12.173  12.014
47117W        W18733   2.197  13.529   2.430
47118W        W18734  39.536  38.399  11.478
47119W        W18735  31.625   3.228   0.271
47120W        W18736  19.194  37.471   1.308
47121W        W18737  24.900  12.035   0.855
47122W        W18738   9.911  32.006  12.012
47123W        W18739   8.412  29.613  11.176
47124W        W18740   4.175   7.913  14.570
47125W        W18741   6.368  38.118  10.477
47126W        W18742  29.165  13.067  13.786
47127W        W18743   4.312  44.118  13.326
47128W        W18744  11.197  43.964   0.513
47129W        W18745  29.683  17.152   5.019
47130W        W18746  26.082  38.403  12.824
47131W        W18747  29.275  20.990  12.910
47132W        W18748  31.024  35.568   0.321
47133W        W18749  33.577  26.735   0.221
47134W        W18750  20.855  25.365   0.024
47135W        W18751  40.482  32.621   3.591
47136W        W18752  35.976  25.161   1.842
47137W        W18753  11.138  20.481  12.610
47138W        W18754   3.486  14.475  11.030
47139W        W18755  21.569  25.404  14.416
47140W        W18756  40.599  31.077   0.484
47141W        W18757  28.727  44.793   4.069
47142W        W18758  26.965  16.424   1.185
47143W        W18759  41.293  27.637   0.312
47144W        W18760  21.593  20.112   0.962
47145W        W18761  13.282  38.331  10.668
47146W        W18762  37.118  34.560  12.956
47147W        W18763  29.658   8.207   0.797
47148W        W18764  40.269   1.803   5.075
47149W        W18765  39.248  42.147   2.347
47150W        W18766  22.336  25.681   0.428
47151W        W18767   0.748  21.033  13.865
47152W        W18768  11.842  38.601   3.238
47153W        W18769  42.716  14.112   3.360
47154W        W18770  11.852  16.892  14.856
47155W        W18771  43.718   8.117   4.262
47156W        W18772   4.295   1.365   5.109
47157W        W18773  22.244  33.523   4.198
47158W        W18774  39.989  35.814  13.391
47159W        W18775  33.917  29.868   1.555
47160W        W18776   0.754   9.089  12.466
47161W        W18777   4.624  44.052  10.634
47162W        W18778   9.649  21.200  12.409
47163W        W18779   8.360  40.750  13.076
47164W        W18780  30.478  25.168   2.729
47165W        W18781  26.088   2.926  11.994
47166W        W18782  27.538  17.050   1.180
47167W        W18783  44.490   9.402  10.677
47168W        W18784  14.165  22.488  10.656
47169W        W18785   7.645  39.808  12.352
47170W        W18786  28.157  37.630   2.647
47171W        W18787   4.886   1.501   1.363
47172W        W18788  25.162  21.990   1.011
47173W        W18789  26.130  15.335  13.986
47174W        W18790  43.701   1.814   4.342
47175W        W18791   4.812   9.934  14.380
47176W        W18792  24.944  44.233   1.884
47177W        W18793  19.143  43.248   9.741
47178W        W18794  15.348  29.883  12.110
47179W        W18795  17.841   6.759  11.159
47180W        W18796  43.344   3.298  12.966
47181W        W18797  25.651   5.774   0.633
47182W        W18798  22.046  40.074  13.856
47183W        W18799  21.071  41.501   2.708
47184W        W18800  25.435  15.758   3.307
47185W        W18801  10.265   3.393  13.364
47186W        W18802  24.152  38.402   4.330
47187W        W18803   7.675  38.332  13.569
47188W        W18804  18.568  20.755   4.239
47189W        W18805   1.549  20.674  14.858
47190W        W18806  14.492  40.197  12.049
47191W        W18807  22.964   6.923   0.826
47192W        W18808  36.587  25.094   2.397
47193W        W18809   2.839  40.421  14.308
47194W        W18810  18.675  35.554   1.752
47195W        W18811   0.362  23.439  12.438
47196W        W18812  21.731  26.495   1.925
47197W        W18813  16.302  27.931  10.686
47198W        W18814  39.054  12.719   0.216
47199W        W18815  32.833  41.879   3.173
47200W        W18816  19.223   2.734   4.209
47201W        W18817  29.146  33.040   0.174
47202W        W18818  10.219  28.865  14.908
47203W        W18819  38.976   2.673   4.045
47204W        W18820  24.128  14.224   2.784
47205W        W18821   3.171  38.841  11.435
47206W        W18822   9.857  41.113   2.171
47207W        W18823  44.509  31.436   2.364
47208W        W18824  29.349  12.164   4.196
47209W        W18825  43.581  19.766   4.944
47210W        W18826  14.332  24.340  12.639
47211W        W18827  13.655  32.147  11.865
47212W        W18828   1.360  26.159   3.619
47213W        W18829  29.657   4.805  13.490
47214W        W18830  27.498  22.400  11.151
47215W        W18831  10.745  19.313   4.298
47216W        W18832   3.868  40.111   3.507
47217W        W18833  23.488  41.518  10.942
47218W        W18834  32.907   0.514   3.645
47219W        W18835   7.771  11.452  10.524
47220W        W18836   1.992   0.247  14.892
47221W        W18837  32.134  11.884   1.207
47222W        W18838   4.425  36.382  12.569
47223W        W18839  41.756   8.683  12.462
47224W        W18840  39.319   0.340  14.597
47225W        W18841   0.947  17.607  12.018
47226W        W18842  39.616  13.767   0.455
47227W        W18843  14.727  15.074   1.853
47228W        W18844  26.114  17.549  10.221
47229W        W18845  20.201  13.454   0.801
47230W        W18846   5.076  43.765  10.526
47231W        W18847   6.929  38.933  11.651
47232W        W18848   1.985   0.462  11.040
47233W        W18849  25.805  19.576  11.006
47234W        W18850   2.007   9.857   3.549
47235W        W18851  11.351  38.494   2.340
47236W        W18852  18.754  25.336   2.388
47237W        W18853  21.805  14.535   0.881
47238W        W18854  28.842  30.693   1.278
47239W        W18855  32.631  24.195  13.029
47240W        W18856  18.223  42.107  12.005
47241W        W18857  17.329  33.822  14.808
47242W        W18858  38.700  39.791   3.187
47243W        W18859  34.091  20.702   4.619
47244W        W18860  14.091  40.697  11.646
47245W        W18861   1.915  38.071   3.976
47246W        W18862  33.598  31.987   2.229
47247W        W18863  37.650  14.402  14.381
47248W        W18864  39.420  30.380  14.465
47249W        W18865  16.222  15.305   2.210
47250W        W18866  23.998  30.613   3.279
47251W        W18867  29.165  38.342   4.298
47252W        W18868  11.632  21.729   1.294
47253W        W18869   8.445  44.376   3.816
47254W        W18870  20.762  34.146   0.310
47255W        W18871  43.130  14.269  11.121
47256W        W18872   9.839  28.489   0.648
47257W        W18873  21.810  21.695  12.330
47258W        W18874  11.256  34.866   4.904
47259W        W18875  20.968  28.164  13.872
47260W        W18876   8.819  19.746   0.983
47261W        W18877  42.841   6.285   3.994
47262W        W18878   0.906  36.579   1.416
47263W        W18879  44.884   3.997  14.420
47264W        W18880  37.358  15.568  14.845
47265W        W18881  40.563  11.392  12.364
47266W        W18882  21.510  40.534  10.812
47267W        W18883  28.980  33.761  13.407
47268W        W18884  31.366  10.241   1.834
47269W        W18885  31.688  34.661   4.694
47270W        W18886  14.896  36.532  12.568
47271W        W18887   0.780   7.115   9.991
47272W        W18888  30.663   8.734   1.839
47273W        W18889  38.817  24.568  13.913
47274W        W18890  35.974  29.209   2.712
47275W        W18891  28.451  35.637   0.973
47276W        W18892  17.246  40.390  13.948
47277W        W18893   9.270  14.608  14.749
47278W        W18894  31.982  14.809  12.932
47279W        W18895   6.867  24.107   2.594
47280W        W18896  36.755  41.558  14.924
47281W        W18897  44.727   5.927  11.164
47282W        W18898  37.465  41.415  14.076
47283W        W18899  23.674  37.759  14.911
47284W        W18900  35.550  42.008   3.806
47285W        W18901  38.862  42.586   4.583
47286W        W18902  43.979  12.627  11.946
47287W        W18903  43.813  35.324   3.388
47288W        W18904  10.733   7.081  12.864
47289W        W18905  10.219   3.148   0.817
47290W        W18906   0.360  31.584  13.919
47291W        W18907  43.028  44.518  13.051
47292W        W18908  44.906  25.129   0.497
47293W        W18909  30.919  25.136  13.301
47294W        W18910  17.559   3.824   1.367
47295W        W18911  32.646   3.349  12.530
47296W        W18912   5.840  25.083  12.604
47297W        W18913  44.646   0.909   4.767
47298W        W18914  30.393  39.362   1.461
47299W        W18915  18.890  10.401   1.236
47300W        W18916   6.640  20.258   3.788
47301W        W18917  38.630  16.698   1.354
47302W        W18918  12.755  21.076   3.914
47303W        W18919  16.247  23.209  14.368
47304W        W18920  14.091   4.067   4.215
47305W        W18921  22.730   9.404   3.677
47306W        W18922  17.326  10.382  13.907
47307W        W18923  31.476  27.628   4.655
47308W        W18924  44.041  25.138   2.304
47309W        W18925  23.012  31.102   3.522
47310W        W18926   3.260   2.534   3.675
47311W        W18927  28.429  38.290  12.626
47312W        W18928  34.965  31.541   2.226
47313W        W18929  24.796   0.674  13.742
47314W        W18930   4.698  16.764   3.399
47315W        W18931  28.669  17.623  13.871
47316W        W18932  27.583  29.171   1.828
47317W        W18933   0.405  32.419   1.545
47318W        W18934  31.222  40.978  11.177
47319W        W18935  32.454  36.817  14.494
47320W        W18936  17.076  44.909   5.485
47321W        W18937   5.140  43.477   3.868
47322W        W18938  30.596   0.820  12.535
47323W        W18939  25.906  13.101   3.186
47324W        W18940  26.848   8.563   1.730
47325W        W18941  15.527  12.324   4.588
47326W        W18942  42.322   7.904  13.639
47327W        W18943  31.053  26.216  13.608
47328W        W18944  12.044  11.775   4.146
47329W        W18945  13.701  26.732  10.327
47330W        W18946  43.325   5.711   1.925
47331W        W18947  19.194  24.213   4.488
47332W        W18948  22.986  34.651  14.073
47333W        W18949  39.096  44.558  13.847
47334W        W18950   0.779   9.320   3.801
47335W        W18951  27.196  28.886   0.913
47336W        W18952  25.930  44.991  12.669
47337W        W18953  30.541  37.920  11.150
47338W        W18954   3.471  23.175   4.232
47339W        W18955  25.570  15.658  10.964
47340W        W18956  37.189  18.065   0.479
47341W        W18957  21.295  33.100   3.277
47342W        W18958   7.901  34.834  12.133
47343W        W18959  13.804   1.302  11.417
47344W        W18960  44.244   6.986  14.048
47345W        W18961  13.765  21.715   2.156
47346W        W18962  26.190   1.299   1.639
47347W        W18963  18.228  26.872  12.973
47348W        W18964  10.331  14.827   1.316
47349W        W18965  16.740  37.064  14.684
47350W        W18966  11.137   9.677   1.242
47351W        W18967   7.622  15.541  12.499
47352W        W18968  20.154  43.780   2.021
47353W        W18969  15.176  43.497  12.423
47354W        W18970  10.065  32.909  13.916
47355W        W18971  14.887  28.104   2.257
47356W        W18972  27.620  35.611   0.658
47357W        W18973  19.855  39.912  12.951
47358W        W18974  11.708   0.423  13.992
47359W        W18975  25.538  37.349  11.610
47360W        W18976   0.720  22.009  10.695
47361W        W18977  43.034  31.425  10.701
47362W        W18978  17.592   0.501  11.936
47363W        W18979  36.277   6.728  10.181
47364W        W18980  43.496  44.441   4.892
47365W        W18981  28.966  34.119  14.522
47366W        W18982  41.901  39.549  10.688
47367W        W18983   5.692   4.877   2.794
47368W        W18984  35.516   7.739  11.564
47369W        W18985   2.997  20.025  11.138
47370W        W18986  26.243  34.848   2.730
47371W        W18987  33.385  37.388   2.304
47372W        W18988  44.567  11.898   4.511
47373W        W18989  36.128  25.055  12.558
47374W        W18990  30.670  16.784  14.863
47375W        W18991  43.021  17.809   1.338
47376W        W18992  14.377  12.706   4.606
47377W        W18993   9.387  44.717  12.885
47378W        W18994  28.633  24.086   2.261
47379W        W18995  14.392  18.365  12.350
47380W        W18996   9.273  32.678   3.705
47381W        W18997  27.735  30.700   2.778
47382W        W18998  43.599  26.399  14.328
47383W        W18999  23.696   4.209  12.972
47384W        W19000   4.645  33.427  13.036
47385W        W19001  11.260  19.150   3.586
47386W        W19002  32.221  12.899   1.297
47387W        W19003  18.489  13.922  10.846
47388W        W19004  40.715  43.679   0.820
47389W        W19005  36.350  16.303  14.381
47390W        W19006  12.770  32.155   1.896
47391W        W19007  32.979   8.038   3.265
47392W        W19008  36.565  42.080  10.656
47393W        W19009  28.422  23.691  10.689
47394W        W19010  38.967   0.835   4.603
47395W        W19011   8.375  10.124  12.343
47396W        W19012  42.388  32.510  11.657
47397W        W19013  26.501  25.663  11.271
47398W        W19014  17.085  28.121   3.644
47399W        W19015  17.542  18.519  12.532
47400W        W19016   4.944   0.004  11.624
47401W        W19017  15.499   2.376   2.467
47402W        W19018  32.655  29.972  10.289
47403W        W19019  23.656  14.888  12.582
47404W        W19020  30.942  26.096  12.030
47405W        W19021  27.259  20.837   1.264
47406W        W19022  28.038  11.631  14.249
47407W        W19023  20.187  19.211   0.251
47408W        W19024  21.061  27.978  12.602
47409W        W19025   3.345  19.694   2.666
47410W        W19026   8.315  43.463   2.795
47411W        W19027   0.912  14.106  10.708
47412W        W19028   2.446  42.073  11.726
47413W        W19029  42.338  21.774  10.486
47414W        W19030  23.618   2.924   4.111
47415W        W19031  32.016   7.666  11.134
47416W        W19032  16.793  20.085  13.898
47417W        W19033  26.022   1.511   0.236
47418W        W19034  14.513  41.732  11.248
47419W        W19035  23.130  39.229   3.204
47420W        W19036  18.212  17.460   4.915
47421W        W19037  38.617   1.335   4.153
47422W        W19038   8.631  40.312  12.866
47423W        W19039  16.119  23.938  11.206
47424W        W19040   9.359   0.861   3.775
47425W        W19041  35.012  37.834   3.642
47426W        W19042  19.118  25.660  12.117
47427W        W19043  44.965  22.117  10.632
47428W        W19044   7.796  36.474  13.527
47429W        W19045  38.420  13.328   4.466
47430W        W19046  39.423   5.143  14.245
47431W        W19047  13.933  30.880  11.386
47432W        W19048  13.843  12.833  13.320
47433W        W19049  22.751  42.979   2.197
47434W        W19050   1.883  37.556  10.577
47435W        W19051  11.057  40.385   4.765
47436W        W19052   7.191  43.221  11.160
47437W        W19053  33.083  42.912  10.504
47438W        W19054   9.673  24.580   0.779
47439W        W19055  23.004   2.575  14.564
47440W        W19056  40.822  38.213  14.092
47441W        W19057  14.268  40.767   3.200
47442W        W19058  11.649   3.934  12.532
47443W        W19059   2.421   9.396   2.279
47444W        W19060   1.449  33.315   4.777
47445W        W19061  18.164  43.380   0.304
47446W        W19062  42.339  11.164  11.631
47447W        W19063  37.973   2.764  11.529
47448W        W19064  14.452  26.142   1.287
47449W        W19065   8.348   0.981  12.433
47450W        W19066  39.354  42.959   1.709
47451W        W19067  23.160  19.932   0.486
47452W        W19068   5.308  18.995   2.895
47453W        W19069  27.041  23.387  10.937
47454W        W19070  12.122  18.617  11.853
47455W        W19071  26.743  37.046  14.477
47456W        W19072  18.070   1.236  12.088
47457W        W19073  13.448  28.208   0.615
47458W        W19074  41.089  15.655   0.929
47459W        W19075  42.502  13.098   0.313
47460W        W19076   4.317  26.137   0.421
47461W        W19077  35.373  27.655  11.277
47462W        W19078  13.976  44.915  12.001
47463W        W19079  27.651  38.197   4.250
47464W        W19080  25.191  24.658  11.438
47465W        W19081  32.260  39.868   3.994
47466W        W19082   0.289  41.620   4.611
47467W        W19083  29.503  30.443  10.705
47468W        W19084  36.893  42.428  10.412
47469W        W19085  15.289  32.002   4.039
47470W        W19086  42.241  26.118  11.164
47471W        W19087  14.756   2.356  11.409
47472W        W19088  20.039   2.835  11.088
47473W        W19089  34.232  40.299  12.432
47474W        W19090  33.472   0.872  10.715
47475W        W19091   9.393  14.119   2.747
47476W        W19092  20.415  42.881   0.363
47477W        W19093   4.403  44.042   5.024
47478W        W19094  42.431  15.554   3.364
47479W        W19095  44.750  31.060  14.797
47480W        W19096  34.743  33.211   0.862
47481W        W19097  31.288  25.732  11.878
47482W        W19098   7.484  10.889  11.127
47483W        W19099   6.737   5.192   0.878
47484W        W19100  21.963   7.319  11.120
47485W        W19101  27.917   1.114  11.576
47486W        W19102  29.475  19.506   3.559
47487W        W19103  31.094  31.867   0.707
47488W        W19104  42.217  18.316  12.049
47489W        W19105  32.941  42.482  14.853
47490W        W19106  24.701  17.275   2.062
47491W        W19107  26.097  42.330   3.167
47492W        W19108  16.519  38.773   4.576
47493W        W19109  33.849  38.775  10.012
47494W        W19110  11.512  27.821  10.135
47495W        W19111  11.072   2.742   0.913
47496W        W19112  14.699  15.690   3.074
47497W        W19113  39.505  33.824   0.368
47498W        W19114  19.599   8.621   4.482
47499W        W19115  24.269  15.069  14.996
47500W        W19116  35.543  26.948  13.599
47501W        W19117  44.272  43.388  12.694
47502W        W19118   0.945  20.154   1.335
47503W        W19119  22.429  11.735   1.714
47504W        W19120  43.864  24.126   3.178
47505W        W19121  10.249  43.398  11.416
47506W        W19122  26.738  35.147   1.901
47507W        W19123  19.298  24.642   2.211
47508W        W19124  34.380   4.963   2.813
47509W        W19125  41.414  31.735   5.103
47510W        W19126  14.162  20.646   1.371
47511W        W19127  20.567   9.452   4.203
47512W        W19128  31.443  19.127  13.064
47513W        W19129  29.602  38.410  10.766
47514W        W19130  19.108  42.028  13.749
47515W        W19131  17.254   7.465   3.802
47516W        W19132  20.329  17.080  14.098
47517W        W19133   1.141  11.030   0.949
47518W        W19134   9.800  19.174   2.187
47519W        W19135   9.803  42.431  14.139
47520W        W19136  24.425   7.252  14.780
47521W        W19137  31.616  17.154  13.607
47522W        W19138  25.415   6.565   2.772
47523W        W19139  36.123  26.258   2.636
47524W        W19140  39.921  20.303  14.379
47525W        W19141   0.757   2.665   3.233
47526W        W19142  40.580  40.845  11.599
47527W        W19143  25.337   0.839  10.244
47528W        W19144   5.688  39.374  10.629
47529W        W19145  11.763  11.323  10.800
47530W        W19146  20.399   6.897   3.728
47531W        W19147  32.100  33.984   2.964
47532W        W19148   1.909   7.302   1.172
47533W        W19149  16.447  20.056   4.221
47534W        W19150  43.917  25.247   0.780
47535W        W19151  27.023  39.798  11.460
47536W        W19152  25.605  27.945   0.721
47537W        W19153  43.540  18.097  13.707
47538W        W19154  16.650   8.943   3.866
47539W        W19155  12.810  37.025  13.362
47540W        W19156  36.355  33.093  12.009
47541W        W19157  20.158  34.831  12.604
47542W        W19158  42.263   6.677   3.174
47543W        W19159  25.185   2.954  14.927
47544W        W19160  42.767  11.631  13.015
47545W        W19161  41.976  38.024  11.557
47546W        W19162  14.001   7.166   2.649
47547W        W19163   9.793  19.266   3.373
47548W        W19164   8.154  32.793   1.448
47549W        W19165  22.834  27.230  11.701
47550W        W19166  34.608  26.135  11.341
47551W        W19167  19.011  22.963   4.516
47552W        W19168  16.268   7.237  10.880
47553W        W19169  10.786  37.764   1.700
47554W        W19170  16.803  20.772   2.891
47555W        W19171  44.052  34.054   3.322
47556W        W19172  28.097   6.402   4.541
47557W        W19173  22.045  31.522   4.116
47558W        W19174   6.069  21.073   3.647
47559W        W19175  36.311  18.773  13.898
47560W        W19176  24.395   7.638  14.444
47561W        W19177  14.334  25.413  10.842
47562W        W19178  37.418  39.642   0.883
47563W        W19179   2.444  24.803   2.697
47564W        W19180   9.413  26.065  13.107
47565W        W19181  42.211  38.093   9.801
47566W        W19182  27.917  11.098   3.152
47567W        W19183  42.845  32.524  13.978
47568W        W19184  28.086  21.463  13.040
47569W        W19185  10.127  29.183   0.788
47570W        W19186  20.812   3.498  14.932
47571W        W19187  20.224  38.741  12.281
47572W        W19188  43.319  22.024   0.727
47573W        W19189   5.092  31.656  13.450
47574W        W19190  37.877   3.781   3.675
47575W        W19191  40.525  39.935   0.897
47576W        W19192  42.394  10.389  14.744
47577W        W19193  31.462  20.975   0.751
47578W        W19194  11.089   0.378  14.363
47579W        W19195  39.744   9.747   3.637
47580W        W19196  18.053  42.379  14.298
47581W        W19197  38.865  41.140  14.463
47582W        W19198  25.693  25.517   3.171
47583W        W19199  31.715   7.795  14.479
47584W        W19200  27.310  22.344  12.031
47585W        W19201   1.378   9.202   0.750
47586W        W19202   6.893  34.879  13.099
47587W        W19203  29.273  18.641   3.196
47588W        W19204  22.620  22.234  12.839
47589W        W19205  28.352  44.331   4.852
47590W        W19206  29.558  31.364  12.403
47591W        W19207  18.022   9.609  13.293
47592W        W19208  21.742  28.592  10.700
47593W        W19209  35.250  30.546  10.397
47594W        W19210  41.404   2.450   1.855
47595W        W19211   1.133   9.772   2.213
47596W        W19212  40.979  30.182   3.682
47597W        W19213  28.207  15.824   1.382
47598W        W19214  41.809  19.091   0.858
47599W        W19215  35.085  33.933  11.555
47600W        W19216   0.489   2.672  11.126
47601W        W19217   7.156  20.289   3.713
47602W        W19218  15.673  30.774   2.806
47603W        W19219  15.216   3.053  10.927
47604W        W19220  43.213  22.016   4.681
47605W        W19221  17.240  15.494   1.927
47606W        W19222   0.768  30.716   0.342
47607W        W19223  43.460  31.402  12.811
47608W        W19224   5.902  26.150   0.334
47609W        W19225   0.186  26.259   0.454
47610W        W19226  40.798  38.562  10.611
47611W        W19227  23.840  30.981  10.674
47612W        W19228  28.669  21.003  11.984
47613W        W19229  33.989  11.107   2.735
47614W        W19230  31.241   1.274  10.200
47615W        W19231  40.940   5.470   1.911
47616W        W19232   7.126  11.279   1.125
47617W        W19233  38.085  15.201   4.315
47618W        W19234  19.268  32.480   3.278
47619W        W19235   1.943   5.637   2.263
47620W        W19236   1.268  13.662   0.741
47621W        W19237   8.301  36.033   1.275
47622W        W19238  42.817   5.654  11.997
47623W        W19239  38.464  42.942  12.556
47624W        W19240  43.797  23.506   4.000
47625W        W19241  35.502   6.001   1.947
47626W        W19242  21.040   8.697   4.183
47627W        W19243  22.244  16.201  13.076
47628W        W19244  31.041  11.140  11.469
47629W        W19245  36.446  43.805  11.719
47630W        W19246  23.181  20.522  13.354
47631W        W19247   9.131  28.756  12.647
47632W        W19248   7.354  35.075   0.329
47633W        W19249  25.910  23.353  11.553
47634W        W19250  29.376  43.322   4.660
47635W        W19251  20.986  20.708  10.643
47636W        W19252  36.345  35.135   3.268
47637W        W19253  34.091  12.611   3.644
47638W        W19254  14.701  40.499  14.600
47639W        W19255  10.243  13.804   1.321
47640W        W19256  12.908  19.474  14.981
47641W        W19257  19.639  21.076  12.525
47642W        W19258  39.963  30.581  12.471
47643W        W19259  34.052  37.719   3.685
47644W        W19260   7.787  12.375  12.514
47645W        W19261  27.872  14.803  14.443
47646W        W19262  40.461  40.570  11.114
47647W        W19263  29.383  37.550  11.145
47648W        W19264   7.140   4.543   4.076
47649W        W19265  28.508  21.747   4.550
47650W        W19266  16.066  16.354   2.408
47651W        W19267  34.844  34.853  14.792
47652W        W19268  11.254   4.859  14.091
47653W        W19269  26.540  42.487   1.312
47654W        W19270  25.559   1.739   0.560
47655W        W19271  32.116  13.258   4.571
47656W        W19272  24.970  41.771  14.922
47657W        W19273   4.408  30.003   0.276
47658W        W19274  22.536  29.132  12.507
47659W        W19275   4.719  24.176  12.319
47660W        W19276  35.765   7.138   4.950
47661W        W19277  17.427  16.337   4.980
47662W        W19278  43.301   2.969   3.757
47663W        W19279  36.409  43.033   5.091
47664W        W19280  30.304  11.908   0.488
47665W        W19281  29.651  33.957   3.710
47666W        W19282  33.462  28.453   4.064
47667W        W19283  25.490  23.206   0.949
47668W        W19284  36.454  30.512   1.298
47669W        W19285   3.079  27.531   2.118
47670W        W19286  19.049   5.021   0.006
47671W        W19287  37.747  14.662  11.372
47672W        W19288  29.680  16.810   0.458
47673W        W19289  22.005  20.322  13.048
47674W        W19290   9.667   7.103  11.572
47675W        W19291  33.906  18.311  13.314
47676W        W19292  40.991  41.393   1.731
47677W        W19293  14.573  37.084  11.544
47678W        W19294  23.726  22.254   2.300
47679W        W19295   6.933  32.955  11.486
47680W        W19296  10.178  26.557  14.827
47681W        W19297  24.161  27.678  13.015
47682W        W19298  31.478  34.586  13.818
47683W        W19299  33.650  12.199   4.451
47684W        W19300  14.560  43.800   1.740
47685W        W19301  44.075   3.780  13.052
47686W        W19302  40.326  15.900  13.705
47687W        W19303  35.602  33.999  12.431
47688W        W19304  14.257  32.453   3.200
47689W        W19305  22.208   8.881  13.414
47690W        W19306   7.919  20.508   4.354
47691W        W19307  29.201  43.783  10.628
47692W        W19308  34.022   8.812  13.368
47693W        W19309  35.875  13.335   4.241
47694W        W19310  28.691   6.471  14.853
47695W        W19311  40.600  20.607  10.883
47696W        W19312  29.951  17.182  14.861
47697W        W19313  26.642   7.164  11.532
47698W        W19314  33.895  26.636   0.912
47699W        W19315  18.353  25.923  13.962
47700W        W19316  44.877  16.194   2.984
47701W        W19317  13.474  33.439   3.294
47702W        W19318   6.789  11.755   3.259
47703W        W19319   9.318  20.026  14.806
47704W        W19320  43.047  34.855  14.402
47705W        W19321  31.466  15.135   0.339
47706W        W19322   0.689  19.193  14.263
47707W        W19323   2.298  29.403   2.373
47708W        W19324  21.104  42.524  12.624
47709W        W19325  40.790  22.321   0.382
47710W        W19326   8.268  15.622   0.877
47711W        W19327   4.787  11.946  14.417
47712W        W19328  36.897  20.476   0.362
47713W        W19329  18.123   2.192   4.267
47714W        W19330  23.127  33.068   3.047
47715W        W19331  30.002  18.150   2.313
47716W        W19332  11.923  25.083   0.474
47717W        W19333   6.520  21.667  11.931
47718W        W19334  37.463  33.369  13.546
47719W        W19335   9.162  34.457  14.381
47720W        W19336  33.854  19.788   1.352
47721W        W19337   9.157  32.240  14.916
47722W        W19338   1.398   0.816   4.307
47723W        W19339  16.149  13.750   3.133
47724W        W19340  23.539  33.556  10.369
47725W        W19341   5.858  20.038   4.256
47726W        W19342  32.018  16.347  14.251
47727W        W19343  19.898   7.377   2.734
47728W        W19344   0.244  21.601   1.219
47729W        W19345  14.166  20.364   2.401
47730W        W19346   7.697  17.826  14.642
47731W        W19347  34.392   3.905  14.374
47732W        W19348  11.541  22.229  14.523
47733W        W19349  38.523  34.938   1.651
47734W        W19350   2.737  33.363  12.567
47735W        W19351  36.566   0.271   1.957
47736W        W19352  10.229  43.123  13.078
47737W        W19353  41.985  39.572  12.466
47738W        W19354  42.991  39.141  10.065
47739W        W19355  21.195  12.262  14.964
47740W        W19356  34.984  22.919  11.471
47741W        W19357   8.636   7.682   1.680
47742W        W19358  33.793   2.250   1.801
47743W        W19359  10.696  39.833   4.515
47744W        W19360  21.732  27.459   3.688
47745W        W19361  42.403  43.794  13.049
47746W        W19362   1.739   5.487  12.999
47747W        W19363  22.678  18.332  14.438
47748W        W19364  15.349  25.735   1.364
47749W        W19365  42.298  36.410   5.056
47750W        W19366  21.438  35.908  14.872
47751W        W19367  31.522  30.176  12.137
47752W        W19368  31.954  22.122  14.810
47753W        W19369  14.039  15.076   1.473
47754W        W19370  18.655  40.734  14.386
47755W        W19371  38.649   4.344   1.308
47756W        W19372  34.890  33.522   2.322
47757W        W19373  25.080  17.248   1.242
47758W        W19374  18.511  30.141   3.546
47759W        W19375  12.819  27.464  13.187
47760W        W19376  20.767  36.950  14.402
47761W        W19377  37.880  15.711   4.673
47762W        W19378   7.814  28.607   3.196
47763W        W19379   5.799   4.272   3.917
47764W        W19380  14.696   9.635   4.139
47765W        W19381  38.368  21.233  10.681
47766W        W19382  43.446  19.173  14.728
47767W        W19383  39.396  29.061  11.606
47768W        W19384  41.755  36.597  10.123
47769W        W19385  32.034   0.454  13.796
47770W        W19386  15.139   4.670   4.182
47771W        W19387  37.046   1.457   4.963
47772W        W19388  41.002  44.030  11.472
47773W        W19389  24.113  14.246   1.294
47774W        W19390   4.720  27.655  11.971
47775W        W19391   3.174  18.747  13.560
47776W        W19392  44.208  24.852   1.891
47777W        W19393  28.204  28.664  11.127
47778W        W19394  27.241  15.492  13.068
47779W        W19395  10.852  43.493  10.763
47780W        W19396  21.693  20.549  10.753
47781W        W19397  25.070  32.165   4.593
47782W        W19398  16.441  31.451   3.394
47783W        W19399  11.109  34.995   0.926
47784W        W19400  37.748   0.374  11.756
47785W        W19401   4.570  28.082   1.072
47786W        W19402  23.998  41.417  13.029
47787W        W19403  28.090   3.723   0.925
47788W        W19404  28.333  35.200  10.389
47789W        W19405   3.753  22.019   1.646
47790W        W19406  26.589  41.444  14.844
47791W        W19407  21.272   0.202   0.177
47792W        W19408  18.876  23.658   0.847
47793W        W19409   6.887   6.549   3.986
47794W        W19410  24.691  13.365   2.201
47795W        W19411  41.831  42.027   1.654
47796W        W19412  20.045   1.731  12.578
47797W        W19413  32.552  43.037  12.543
47798W        W19414  43.809  33.959  14.083
47799W        W19415  25.110   6.712  13.357
47800W        W19416  39.865  23.023   1.358
47801W        W19417  21.967   9.214   2.787
47802W        W19418   2.501  23.593   0.389
47803W        W19419   9.275   2.358   1.412
47804W        W19420  21.982  15.647  11.801
47805W        W19421  25.739  37.900   3.342
47806W        W19422  20.015   3.093  14.611
47807W        W19423  37.969  41.943  12.068
47808W        W19424  10.720  11.792   2.879
47809W        W19425   7.228  19.346  12.106
47810W        W19426  10.284  21.608  11.138
47811W        W19427   0.802  23.243   3.277
47812W        W19428  26.579  41.301   1.864
47813W        W19429  15.932  23.090  13.928
47814W        W19430  18.610   4.287  14.724
47815W        W19431  20.697   9.827   2.953
47816W        W19432  11.658   6.797   4.967
47817W        W19433  14.624  19.817   1.730
47818W        W19434   2.975  22.374  14.312
47819W        W19435  21.767  24.969  11.099
47820W        W19436  16.998  20.170  10.974
47821W        W19437   3.776  22.735  10.648
47822W        W19438  37.456  27.621   1.648
47823W        W19439  21.828  43.893  12.534
47824W        W19440  36.513  17.089   3.108
47825W        W19441  21.494  28.049   1.108
47826W        W19442   4.495  24.603  12.514
47827W        W19443  29.941  20.715  11.135
47828W        W19444  13.726  13.773   1.747
47829W        W19445  14.601  18.355  14.456
47830W        W19446  27.458  30.131  12.982
47831W        W19447  19.837   5.756   3.301
47832W        W19448   2.167  21.060  12.704
47833W        W19449  26.397  34.352  10.730
47834W        W19450  38.861  13.526  13.335
47835W        W19451  22.681   1.469  14.848
47836W        W19452  32.631  10.254   4.303
47837W        W19453   1.203  33.923   2.913
47838W        W19454  14.403  11.990  12.192
47839W        W19455  33.390  29.964   1.934
47840W        W19456  35.015  43.353   1.728
47841W        W19457  30.111   1.972  14.672
47842W        W19458   9.204  35.550   3.259
47843W        W19459  16.314  23.087  12.407
47844W        W19460  31.293  15.279  11.493
47845W        W19461   1.944   7.910  14.753
47846W        W19462  34.042   0.410   3.303
47847W        W19463  25.415   8.559  10.987
47848W        W19464   4.429  13.671  13.393
47849W        W19465  22.033  40.070   3.815
47850W        W19466  18.854  26.048   3.886
47851W        W19467  41.613  10.310   3.539
47852W        W19468   5.223  40.289   3.673
47853W        W19469  43.929   9.835  14.773
47854W        W19470   6.893  25.099  10.626
47855W        W19471  35.053  19.268   4.371
47856W        W19472  22.197  33.383   0.342
47857W        W19473  19.696  24.154   3.809
47858W        W19474  26.188  21.495   4.562
47859W        W19475  19.344   7.280   3.255
47860W        W19476   8.718  27.913  13.039
47861W        W19477  16.762  24.670  12.313
47862W        W19478   1.107   2.867   1.510
47863W        W19479  36.092  30.640  10.827
47864W        W19480  16.319  44.805  14.775
47865W        W19481  42.475  37.757  10.679
47866W        W19482  17.553  25.098  12.880
47867W        W19483   7.761  30.685  11.192
47868W        W19484  20.625  37.088   4.669
47869W        W19485  31.903  38.202  11.692
47870W        W19486   8.327  29.973   1.768
47871W        W19487  16.025  44.490  12.331
47872W        W19488  10.683  23.113  12.367
47873W        W19489  23.166  34.046  13.622
47874W        W19490  15.848  34.369  11.518
47875W        W19491   0.527   3.970   0.901
47876W        W19492  26.160  41.780   2.124
47877W        W19493   3.936   3.029  12.508
47878W        W19494  33.298   7.319  12.788
47879W        W19495  38.564   9.093   2.751
47880W        W19496   2.489   9.769  13.612
47881W        W19497  12.196   4.956  11.050
47882W        W19498  23.541  40.674   0.757
47883W        W19499   9.108  31.228  13.638
47884W        W19500   1.366   0.255   5.034
47885W        W19501  41.504  21.021  14.872
47886W        W19502   2.259  34.195  10.130
47887W        W19503  21.977   2.376   4.520
47888W        W19504   5.113   7.916  12.012
47889W        W19505  13.583  34.457   3.209
47890W        W19506  18.677   5.654   1.267
47891W        W19507  44.718  34.260  11.164
47892W        W19508   6.026  36.498   1.809
47893W        W19509  12.690  40.236   3.113
47894W        W19510  29.994   0.711   2.703
47895W        W19511  30.371  24.066  14.505
47896W        W19512   2.891  42.954  14.378
47897W        W19513  15.334  32.867  13.759
47898W        W19514   9.434  20.148   1.373
47899W        W19515  28.690  12.584  11.153
47900W        W19516  43.295  19.813  12.849
47901W        W19517   1.999  31.358   0.448
47902W        W19518   0.871  38.280  13.764
47903W        W19519   8.907   8.225  11.053
47904W        W19520  43.509  31.896   4.007
47905W        W19521  41.373  10.824  11.849
47906W        W19522  43.374  26.972  13.616
47907W        W19523  27.448   0.738  11.634
47908W        W19524  13.662  10.320  11.674
47909W        W19525  25.278  43.225  12.297
47910W        W19526  36.596  17.321   1.301
47911W        W19527   4.350  32.429   2.294
47912W        W19528  11.836  27.541   4.360
47913W        W19529  17.185  39.480   4.742
47914W        W19530  42.361  25.428   0.023
47915W        W19531   9.102  21.578  13.794
47916W        W19532  24.063  32.339   0.781
47917W        W19533  32.644  12.833   2.265
47918W        W19534  11.617  18.573   0.470
47919W        W19535   1.276   3.166  11.079
47920W        W19536  12.973  15.630  14.782
47921W        W19537  33.649  22.021   2.184
47922W        W19538  17.646  36.902   2.245
47923W        W19539   1.198  20.743   2.795
47924W        W19540  33.862  18.754   3.729
47925W        W19541   1.574  20.008   2.445
47926W        W19542  39.827  20.204   3.723
47927W        W19543   1.441  29.846  11.195
47928W        W19544  22.235  16.699  14.936
47929W        W19545  11.124  24.249   2.411
47930W        W19546   8.203  27.756   4.116
47931W        W19547  40.481  19.199  10.441
47932W        W19548  21.397   1.678   1.180
47933W        W19549   8.840  20.688  11.645
47934W        W19550   8.369  27.042   3.545
47935W        W19551  23.015   2.223  10.931
47936W        W19552   2.237  28.227   0.116
47937W        W19553  11.152   9.131  11.902
47938W        W19554  31.398   6.228  11.536
47939W        W19555  36.976  13.380   1.759
47940W        W19556  42.924   0.050  14.815
47941W        W19557  38.570  25.407   3.267
47942W        W19558  14.623  21.845  11.117
47943W        W19559   4.946  44.489  11.612
47944W        W19560  32.141  42.871  12.294
47945W        W19561   5.346  37.573   4.146
47946W        W19562  32.041  14.084   0.368
47947W        W19563   9.321   8.699  14.585
47948W        W19564  13.270   7.142   3.162
47949W        W19565  31.236  13.373  13.318
47950W        W19566  43.585   3.685  11.599
47951W        W19567  42.678  17.695  12.946
47952W        W19568  38.492  28.915  13.327
47953W        W19569  39.970  13.300   0.758
47954W        W19570  44.395   8.463   2.267
47955W        W19571   9.924  42.035   2.118
47956W        W19572   3.123   3.868   1.290
47957W        W19573  32.440   6.179   4.236
47958W        W19574  32.669  25.021  10.766
47959W        W19575  17.890   7.831  11.619
47960W        W19576  15.601  15.822   0.625
47961W        W19577  17.021   7.161   4.321
47962W        W19578   6.141  11.055   3.363
47963W        W19579  14.097  30.397  12.289
47964W        W19580   8.844   8.348   2.854
47965W        W19581  16.836   1.789  14.882
47966W        W19582  39.828  40.318   0.516
47967W        W19583  19.851   3.860   4.548
47968W        W19584  12.181  26.038   1.145
47969W        W19585  19.500  10.220   2.369
47970W        W19586  29.183  35.272  12.110
47971W        W19587   5.918  21.975  10.905
47972W        W19588  21.790  35.309  14.341
47973W        W19589  33.932   2.082  14.582
47974W        W19590  28.132  44.597   1.248
47975W        W19591   8.197  29.955   3.267
47976W        W19592  36.962   2.176   4.372
47977W        W19593  39.643  25.242  12.028
47978W        W19594  35.318  42.321   1.635
47979W        W19595  16.254  19.360   4.960
47980W        W19596  17.179   5.206  12.974
47981W        W19597  15.668  14.416  10.698
47982W        W19598  16.127  39.298   0.916
47983W        W19599  23.671  40.928   3.765
47984W        W19600  20.227  33.412  10.356
47985W        W19601  15.735  25.211   3.927
47986W        W19602  24.741   1.318   0.645
47987W        W19603  29.999  42.649  12.445
47988W        W19604  32.996  37.297   4.169
47989W        W19605  33.370  23.277  12.379
47990W        W19606  42.022  25.399   0.823
47991W        W19607  16.757  41.348  12.561
47992W        W19608   1.175  23.090   0.487
47993W        W19609  11.604  39.510   0.984
47994W        W19610  23.491  32.677   2.873
47995W        W19611  25.515  16.140   1.467
47996W        W19612  42.779  38.510  13.582
47997W        W19613  19.388  37.310   1.773
47998W        W19614  24.229  44.251   2.214
47999W        W19615  44.199  31.971  13.867
48000W        W19616  13.654   8.632  12.522
48001W        W19617  14.185  29.468   4.527
48002W        W19618  39.787  26.342   3.378
48003W        W19619   5.312  14.708   3.367
48004W        W19620  29.434  21.001   4.061
48005W        W19621  24.055  10.165   2.843
48006W        W19622  25.151  36.783   3.844
48007W        W19623  43.293  16.729  14.045
48008W        W19624  36.980   4.312   3.874
48009W        W19625   5.334  29.492   3.674
48010W        W19626   2.117  38.150   3.283
48011W        W19627  29.161  27.805  10.678
48012W        W19628  30.476  28.464  12.548
48013W        W19629  18.266   5.602   4.070
48014W        W19630  12.514  40.313   4.555
48015W        W19631  34.547  34.360   3.376
48016W        W19632  25.795  39.567   2.783
48017W        W19633  33.393  38.647   4.137
48018W        W19634  23.733  34.602  13.500
48019W        W19635  25.412  13.267   5.030
48020W        W19636  10.928  12.212   2.633
48021W        W19637  29.972   2.013   1.404
48022W        W19638  21.153  13.169  13.998
48023W        W19639   4.894  21.468  12.507
48024W        W19640  43.493  44.521   4.316
48025W        W19641  26.402  25.173  10.571
48026W        W19642  21.115   2.724   3.322
48027W        W19643  30.656  10.384  11.744
48028W        W19644   6.001  36.178  10.314
48029W        W19645  28.142  13.767   5.040
48030W        W19646  25.062  40.466   3.684
48031W        W19647  22.219  44.229   4.056
48032W        W19648  35.057   7.670  11.334
48033W        W19649  23.533  28.928   1.910
48034W        W19650  27.958  39.575  13.024
48035W        W19651  37.058   1.310   3.394
48036W        W19652  32.338  24.625  11.536
48037W        W19653  36.078  37.435   3.197
48038W        W19654  38.392  33.187  14.782
48039W        W19655  19.777  36.941   1.738
48040W        W19656   5.797  28.830  13.935
48041W        W19657  18.688  41.449  13.004
48042W        W19658   8.673   6.426   0.867
48043W        W19659   3.870  17.300  11.985
48044W        W19660  15.011   5.940   2.778
48045W        W19661  22.816  39.940  11.611
48046W        W19662  22.273  16.562   1.780
48047W        W19663  34.643   4.880   4.509
48048W        W19664  32.097   7.781  13.421
48049W        W19665   5.189   9.403   3.757
48050W        W19666  17.789  31.039   2.699
48051W        W19667  15.216  31.822   0.860
48052W        W19668  38.897  13.185   0.392
48053W        W19669  26.477  40.027   2.601
48054W        W19670  35.849  43.912   0.295
48055W        W19671  43.817   4.560   0.860
48056W        W19672  26.740  44.900   4.794
48057W        W19673  31.080  32.516   1.980
48058W        W19674  27.682  18.031  11.975
48059W        W19675  34.994  34.027   0.691
48060W        W19676  44.007   0.461   4.107
48061W        W19677   7.856   3.763  11.040
48062W        W19678   1.158  17.077   1.800
48063W        W19679  36.951  44.276  13.911
48064W        W19680  26.193  27.660   0.057
48065W        W19681   3.973  21.097  12.142
48066W        W19682   2.835   5.766  12.868
48067W        W19683   8.471   9.278   4.544
48068W        W19684  35.686  10.223   3.090
48069W        W19685   5.767   2.290   3.530
48070W        W19686  21.754  37.399  11.102
48071W        W19687   6.916  12.150   4.779
48072W        W19688   9.251  23.509  14.048
48073W        W19689  34.877   4.953  14.562
48074W        W19690  44.075  15.742  13.970
48075W        W19691  30.741  25.174   1.349
48076W        W19692  30.529  31.325   2.746
48077W        W19693   9.933  28.928   0.392
48078W        W19694   4.249  14.070  12.022
48079W        W19695  18.493  12.407  14.543
48080W        W19696  25.134  19.266   1.211
48081W        W19697  35.982   6.141  14.853
48082W        W19698  20.192  24.040   2.636
48083W        W19699  32.903   7.173   4.222
48084W        W19700  39.566  33.310   0.300
48085W        W19701  28.777  17.149  10.128
48086W        W19702  38.516   0.908  12.033
48087W        W19703   4.794  20.183   1.296
48088W        W19704  24.061  16.567  10.783
48089W        W19705  34.535  16.196   2.334
48090W        W19706   4.325  24.642  14.336
48091W        W19707  31.141  19.051   4.228
48092W        W19708  32.511  17.905  12.921
48093W        W19709  12.786  22.106   2.847
48094W        W19710  36.977   1.841   1.001
48095W        W19711  25.184   3.986  13.977
48096W        W19712   2.762  39.976   0.268
48097W        W19713  32.828   6.630  13.591
48098W        W19714   4.281  34.835  14.318
48099W        W19715  36.958   9.384   2.771
48100W        W19716  33.762   8.463   0.535
48101W        W19717  27.474  18.206   1.452
48102W        W19718   4.848  18.221  10.003
48103W        W19719  18.286  44.370  13.989
48104W        W19720  40.080   6.503   1.859
48105W        W19721  37.822  21.663  10.786
48106W        W19722  10.062   5.403  13.469
48107W        W19723   2.094  38.827   1.985
48108W        W19724  44.863  35.226   4.708
48109W        W19725  26.895   7.709   4.031
48110W        W19726  33.969  34.147   4.180
48111W        W19727   3.297  10.864  14.039
48112W        W19728   7.179   0.603   0.945
48113W        W19729  34.568  10.189  13.422
48114W        W19730  13.069  20.382   4.681
48115W        W19731  31.066  43.531   0.281
48116W        W19732  42.340  15.084   0.454
48117W        W19733  21.720  13.253  13.835
48118W        W19734  27.597  38.030  12.956
48119W        W19735   6.121  25.723   0.641
48120W        W19736  22.563  26.729   5.088
48121W        W19737  10.797  36.011   3.340
48122W        W19738  18.622  37.187   0.758
48123W        W19739  23.475  23.002   2.699
48124W        W19740  31.950  27.274   5.497
48125W        W19741   9.887  15.166  13.486
48126W        W19742  43.034   4.959  10.668
48127W        W19743  21.509  38.929   1.408
48128W        W19744  33.000  27.444  10.788
48129W        W19745  22.677   9.753   1.701
48130W        W19746  42.555   5.454  13.025
48131W        W19747  21.734  38.927   4.741
48132W        W19748  30.163  31.664  14.587
48133W        W19749  20.639   8.909  13.818
48134W        W19750  44.323   3.968  13.718
48135W        W19751  12.184  37.312   1.663
48136W        W19752  41.735  10.272  10.280
48137W        W19753  27.530  43.368  11.537
48138W        W19754  30.181   2.118   3.619
48139W        W19755  25.970  24.045   4.378
48140W        W19756  20.608   5.653  13.980
48141W        W19757  30.958   1.027   1.463
48142W        W19758   6.403  13.687   0.909
48143W        W19759  16.973  34.903   1.413
48144W        W19760  14.611  13.256  10.630
48145W        W19761  18.113  14.893  11.962
48146W        W19762  41.988  20.228   4.657
48147W        W19763  43.864  27.129   4.350
48148W        W19764  17.085  35.892   3.602
48149W        W19765  40.532  35.582  13.392
48150W        W19766  17.967  12.396  14.363
48151W        W19767  38.233  12.683   3.693
48152W        W19768  19.791   9.777  11.366
48153W        W19769  39.269  13.740  10.060
48154W        W19770   5.117  26.311  14.397
48155W        W19771  28.506  21.932  14.512
48156W        W19772  41.455   4.919   2.427
48157W        W19773   2.558  37.352  14.069
48158W        W19774  13.266  28.073  11.558
48159W        W19775  36.925  28.077   4.141
48160W        W19776   4.902   8.835   3.678
48161W        W19777  29.619  15.066  14.484
48162W        W19778  13.364   7.815  14.775
48163W        W19779   5.748  19.209   3.107
48164W        W19780   8.900   4.127   0.750
48165W        W19781  22.770  17.255  13.756
48166W        W19782  20.337   0.870  11.143
48167W        W19783  11.670  36.871   4.463
48168W        W19784  13.085  14.347   3.143
48169W        W19785   9.939  41.767  11.371
48170W        W19786  31.160  40.526  14.552
48171W        W19787  18.749  15.104  14.482
48172W        W19788  39.453  33.046  13.502
48173W        W19789  16.750  35.068   2.461
48174W        W19790  37.233   3.371   0.989
48175W        W19791  22.168  29.895  14.680
48176W        W19792  24.161  33.901   0.456
48177W        W19793  26.123  18.351   4.181
48178W        W19794  29.665  44.827  14.459
48179W        W19795  25.020  14.079   0.069
48180W        W19796  41.377  28.143   0.253
48181W        W19797  19.563  22.089   4.194
48182W        W19798  44.782  43.892  13.671
48183W        W19799   8.937  24.248   1.462
48184W        W19800  43.118  31.052  12.997
48185W        W19801  14.693  13.844   0.259
48186W        W19802  16.251  12.850   2.735
48187W        W19803  31.578   1.808   0.490
48188W        W19804  40.521   3.972  13.073
48189W        W19805  12.242  43.054   4.987
48190W        W19806  22.493  42.557   4.659
48191W        W19807  40.790   3.234  14.596
48192W        W19808   0.920  43.847   1.392
48193W        W19809   1.665  27.435   2.929
48194W        W19810  19.259  39.110   1.458
48195W        W19811  21.066  21.110  10.287
48196W        W19812  25.666  16.763  13.201
48197W        W19813  16.087  38.089   3.114
48198W        W19814  44.825  24.259   0.833
48199W        W19815  16.732  16.533   0.946
48200W        W19816   4.707  42.938  10.894
48201W        W19817  26.555   7.377  14.658
48202W        W19818  41.221   5.214  13.832
48203W        W19819  11.755  36.016  11.670
48204W        W19820  38.507  26.029  11.975
48205W        W19821   4.508  40.749   4.219
48206W        W19822  10.997   7.872  12.390
48207W        W19823   1.693   5.681   0.315
48208W        W19824   4.188  34.424   2.975
48209W        W19825  26.090  32.408   3.163
48210W        W19826  33.969   2.388   3.255
48211W        W19827  19.530   9.620  10.968
48212W        W19828  27.840   2.713  10.659
48213W        W19829  28.599  22.845   0.431
48214W        W19830  12.196   6.309  14.985
48215W        W19831   1.368  42.051  10.647
48216W        W19832  39.966  26.485  14.696
48217W        W19833  25.083  22.666   0.376
48218W        W19834  26.514   0.957  11.297
48219W        W19835   5.722   0.916  10.452
48220W        W19836   7.189   7.292  11.144
48221W        W19837  17.085  18.614   1.614
48222W        W19838  35.914   3.941  13.106
48223W        W19839  23.801  34.624   2.904
48224W        W19840  33.025  16.228  12.882
48225W        W19841  40.649   6.466   0.936
48226W        W19842  40.526   6.390  14.582
48227W        W19843   4.825  27.978  13.643
48228W        W19844  34.060  20.781   3.533
48229W        W19845  37.856  10.943   0.843
48230W        W19846  18.629   5.190  11.961
48231W        W19847  17.825   2.429   2.502
48232W        W19848  22.077  34.457   1.767
48233W        W19849  12.152   2.369   3.998
48234W        W19850  33.188  37.457   3.688
48235W        W19851  20.518  17.124   1.928
48236W        W19852   5.675   6.376   3.270
48237W        W19853  16.741  22.031  12.382
48238W        W19854  40.981  32.985   2.865
48239W        W19855  26.810  36.419  12.565
48240W        W19856   7.622  20.215   0.972
48241W        W19857  36.826  19.717  10.530
48242W        W19858  24.700  12.136   2.803
48243W        W19859  25.162  19.683  13.858
48244W        W19860  16.899   3.366  11.450
48245W        W19861  17.553  20.540   0.020
48246W        W19862  20.154   7.215   2.298
48247W        W19863  18.103  21.626   3.184
48248W        W19864   6.517  28.976   3.685
48249W        W19865  10.650  12.447   0.794
48250W        W19866  29.602   3.399  11.103
48251W        W19867  22.932   8.479  11.672
48252W        W19868  37.889  31.651   2.420
48253W        W19869  32.943  32.136   1.489
48254W        W19870   9.467  23.546   4.176
48255W        W19871  25.581  10.235   2.754
48256W        W19872  28.007  29.987  14.214
48257W        W19873  20.145  41.020   4.680
48258W        W19874  19.101   9.324   4.458
48259W        W19875  31.968  23.238  12.606
48260W        W19876   2.826  34.329   4.927
48261W        W19877  36.443  22.733  14.523
48262W        W19878  11.900  16.412   3.403
48263W        W19879  20.932  19.572   5.096
48264W        W19880  10.373  42.780   0.300
48265W        W19881  13.905  42.731  12.046
48266W        W19882  11.678  20.208   3.857
48267W        W19883  29.832   9.688   1.429
48268W        W19884  18.520  15.714  10.616
48269W        W19885  19.205  35.176  12.845
48270W        W19886  43.378  35.376   3.079
48271W        W19887  15.281   1.506   4.246
48272W        W19888  36.410  21.654   2.774
48273W        W19889   4.586  11.164  13.873
48274W        W19890   4.516   2.982  10.460
48275W        W19891  28.084  37.620  13.974
48276W        W19892  26.824  39.390  10.755
48277W        W19893   9.676  29.607   2.932
48278W        W19894   0.278  22.988   1.334
48279W        W19895   0.791  44.042  11.892
48280W        W19896  37.713   9.181  13.459
48281W        W19897  37.731  15.473  12.773
48282W        W19898   9.542  34.141   2.346
48283W        W19899  16.069  19.273   1.470
48284W        W19900  41.860  22.160   0.670
48285W        W19901   4.902  19.088  11.586
48286W        W19902  30.079  33.167   0.209
48287W        W19903   9.200  30.589   1.650
48288W        W19904  25.151  38.796  13.710
48289W        W19905  20.640  24.619   2.859
48290W        W19906  22.176  26.124   3.610
48291W        W19907  38.317  17.009  12.874
48292W        W19908  23.876  26.179  14.423
48293W        W19909  26.756  25.775  13.486
48294W        W19910  39.722  15.059   1.324
48295W        W19911  23.919  10.052   4.177
48296W        W19912  43.842   0.549   3.623
48297W        W19913  15.483   1.627   3.757
48298W        W19914   2.346  19.156  14.832
48299W        W19915  21.284  35.446   3.363
48300W        W19916  14.325  33.197   3.650
48301W        W19917  38.869  30.635   1.417
48302W        W19918   4.949  13.411   1.556
48303W        W19919  18.088  40.473  14.994
48304W        W19920  34.318  12.332   0.864
48305W        W19921  11.715  42.333   2.577
48306W        W19922  33.069   8.647  12.898
48307W        W19923   2.402  21.678   5.417
48308W        W19924  18.645  43.684  12.409
48309W        W19925  10.105  13.836  13.427
48310W        W19926  40.060  10.763   0.278
48311W        W19927  44.265  36.640   2.221
48312W        W19928  29.550  40.184   2.757
48313W        W19929  43.422  13.936   2.413
48314W        W19930  41.837  13.148   1.659
48315W        W19931   3.473   1.907  12.283
48316W        W19932  32.166   6.310   1.445
48317W        W19933  25.392  14.072  14.695
48318W        W19934   5.153  38.811  10.917
48319W        W19935   4.210  20.723  14.486
48320W        W19936  28.278  20.457   2.582
48321W        W19937  35.999  19.753  13.990
48322W        W19938   3.843   5.996   1.688
48323W        W19939  27.662   0.906   2.341
48324W        W19940   7.103  16.058   4.300
48325W        W19941  36.750  38.571  11.673
48326W        W19942  31.023   2.393  14.962
48327W        W19943   7.009   0.232  11.217
48328W        W19944  13.516  22.740  12.952
48329W        W19945  35.496  16.646   4.085
48330W        W19946  40.613   2.280   0.353
48331W        W19947  32.584  10.688   4.730
48332W        W19948   6.020   2.645   1.401
48333W        W19949  17.236   4.436   1.427
48334W        W19950  30.459  19.088   2.950
48335W        W19951  31.227  39.577  11.202
48336W        W19952  11.917  28.780   2.237
48337W        W19953   0.344  36.282  12.836
48338W        W19954  15.229  25.091  14.694
48339W        W19955  15.208   4.343  12.315
48340W        W19956  17.801   0.210  12.502
48341W        W19957  16.684  10.588   4.108
48342W        W19958  24.268   6.656   1.297
48343W        W19959  40.503  13.592  14.560
48344W        W19960   8.861  11.414  10.296
48345W        W19961   3.962  29.432   4.921
48346W        W19962  14.221   0.767   4.480
48347W        W19963  44.700   4.469  14.472
48348W        W19964  28.594  16.291   0.726
48349W        W19965  13.121  42.391  11.240
48350W        W19966   6.726  30.596  11.646
48351W        W19967  17.818  26.393   0.847
48352W        W19968  22.109   7.959   2.183
48353W        W19969   0.429  41.373  13.298
48354W        W19970   3.871   0.883   9.786
48355W        W19971  18.069   3.316  13.284
48356W        W19972   6.171   0.256  14.688
48357W        W19973  24.501  16.835   3.231
48358W        W19974  44.532  30.657   1.764
48359W        W19975  42.800  19.494  14.366
48360W        W19976  43.814  34.518   9.951
48361W        W19977  22.217  19.020  14.593
48362W        W19978  39.537  23.439   2.940
48363W        W19979  43.168  41.271  10.743
48364W        W19980   7.214  22.498   1.736
48365W        W19981   5.029  33.803   1.912
48366W        W19982  28.251  16.706   4.583
48367W        W19983  20.725  42.949  12.614
48368W        W19984  11.149   0.313  12.306
48369W        W19985  26.514  35.450   3.247
48370W        W19986   0.921  43.339  11.700
48371W        W19987  25.032   5.925  12.909
48372W        W19988  32.572  11.262  12.358
48373W        W19989  20.400  44.614  10.347
48374W        W19990  20.311   8.203  11.550
48375W        W19991  14.073  28.301  13.379
48376W        W19992   6.146   9.875  11.092
48377W        W19993   8.314  41.916  13.412
48378W        W19994  15.235  37.317   4.252
48379W        W19995  22.635  13.182   1.385
48380W        W19996  23.095  24.005   4.514
48381W        W19997  16.556  26.571   0.329
48382W        W19998   1.768  34.580  10.805
48383W        W19999  29.502   5.102   1.931
48384W        W20000  35.344  39.307   2.213
48385W        W20001  30.748  21.974  11.691
48386W        W20002   8.313  17.028   2.399
48387W        W20003  36.535  24.484   3.689
48388W        W20004  22.507   5.775   1.386
48389W        W20005  19.170  38.147  10.537
48390W        W20006  33.367  38.411  12.631
48391W        W20007  39.596  31.126   4.542
48392W        W20008  38.025  25.984  10.803
48393W        W20009  17.691  10.396  14.291
48394W        W20010  29.714  34.471  12.790
48395W        W20011  39.843  22.048  11.655
48396W        W20012  17.758  43.616   5.511
48397W        W20013   5.769  37.285   4.048
48398W        W20014  18.245   3.826  11.100
48399W        W20015   5.572  28.457   3.286
48400W        W20016  17.625   2.199  10.625
48401W        W20017   6.776  39.376  10.751
48402W        W20018  14.102  26.165   3.625
48403W        W20019  18.866  20.771   4.673
48404W        W20020  34.281  31.703  14.132
48405W        W20021  12.664  27.202   0.754
48406W        W20022  40.007  18.617  14.989
48407W        W20023  30.031  34.998   2.823
48408W        W20024  28.055  26.520   0.473
48409W        W20025  43.392  35.212  11.532
48410W        W20026  31.476  39.495   4.490
48411W        W20027  19.221  12.309  11.426
48412W        W20028  22.200  12.399   1.240
48413W        W20029  23.720  11.904  12.799
48414W        W20030  36.460   8.271   1.835
48415W        W20031  42.985   4.585  13.029
48416W        W20032  28.563  38.433   0.761
48417W        W20033  19.595  17.165   3.694
48418W        W20034  25.195  12.359  12.064
48419W        W20035  35.463  18.605   2.773
48420W        W20036  40.731  38.139   2.855
48421W        W20037  39.561   4.491   0.948
48422W        W20038  39.503  24.055  11.506
48423W        W20039  33.752  26.512  10.934
48424W        W20040   3.854  44.340  14.858
48425W        W20041  31.456  29.081  11.010
48426W        W20042   2.739  16.418   1.340
48427W        W20043  42.563  44.966   1.208
48428W        W20044  10.875   2.253  11.503
48429W        W20045  30.396  10.688  12.067
48430W        W20046   7.700  26.423  10.345
48431W        W20047   9.477  26.015  11.015
48432W        W20048   5.833  35.052   4.652
48433W        W20049  21.624  32.334   4.970
48434W        W20050   6.356  29.936   0.247
48435W        W20051  18.596  22.740  14.542
48436W        W20052  14.692  17.005   0.524
48437W        W20053  37.521   9.447  10.720
48438W        W20054   0.555  18.520   4.483
48439W        W20055  29.897  27.310  12.368
48440W        W20056   2.735  40.594   2.882
48441W        W20057   9.075  28.639  13.146
48442W        W20058  32.485  27.985   1.022
48443W        W20059  16.113   3.863  14.569
48444W        W20060   6.362  15.320   2.294
48445W        W20061   6.024  12.121   1.255
48446W        W20062  27.749  31.188   1.942
48447W        W20063  21.303  19.981   4.936
48448W        W20064  18.998  39.139  14.075
48449W        W20065  22.610  39.899   1.903
48450W        W20066  37.565  25.052   3.375
48451W        W20067  37.743  16.014  12.432
48452W        W20068   7.200  29.416   0.774
48453W        W20069   6.861  27.882  14.252
48454W        W20070  23.764   8.774   3.075
48455W        W20071  37.478  13.700   4.680
48456W        W20072   1.313  21.218  12.599
48457W        W20073  11.113  14.739  14.192
48458W        W20074  25.477  21.362   4.945
48459W        W20075  44.452   1.985   2.581
48460W        W20076   2.485  20.103  11.162
48461W        W20077  43.258  42.419   1.725
48462W        W20078  28.708  24.100   1.351
48463W        W20079   0.792   1.833  13.965
48464W        W20080  13.708   6.450  11.951
48465W        W20081  25.551   3.245   2.384
48466W        W20082  36.404   4.271  11.973
48467W        W20083   8.737  30.650   1.397
48468W        W20084  39.902  33.056  14.308
48469W        W20085   6.065  21.531  13.437
48470W        W20086   8.326  40.317  10.529
48471W        W20087  15.778   8.200   4.700
48472W        W20088   9.659  34.581   2.684
48473W        W20089   3.504  23.595   2.429
48474W        W20090  25.625  10.786  12.501
48475W        W20091  30.992  28.054   2.396
48476W        W20092  40.482  39.073   0.266
48477W        W20093   2.247  31.966   3.158
48478W        W20094  12.590   8.570  12.929
48479W        W20095  42.479  37.388  14.346
48480W        W20096  25.148  18.878  10.676
48481W        W20097   5.722  29.828  13.964
48482W        W20098   4.748  40.573   3.753
48483W        W20099  11.704  32.659  11.200
48484W        W20100  32.828   4.273  11.963
48485W        W20101  17.501  27.104   1.888
48486W        W20102  10.486   4.431  13.383
48487W        W20103  40.875  24.076   3.713
48488W        W20104  22.759  38.410   4.101
48489W        W20105  27.344  28.168   4.166
48490W        W20106  37.684  42.047   0.652
48491W        W20107  13.609  40.558   2.634
48492W        W20108  35.902  39.782  13.960
48493W        W20109  17.351  18.782  13.871
48494W        W20110  31.417  39.873   2.773
48495W        W20111  32.115  23.225  11.144
48496W        W20112  18.403  24.236  12.135
48497W        W20113   7.561  37.146   1.182
48498W        W20114  30.223  33.987   2.317
48499W        W20115   2.973  23.877  12.868
48500W        W20116  11.110  36.912   3.163
48501W        W20117   8.470  30.234  11.993
48502W        W20118   4.531  33.517   2.778
48503W        W20119  37.085  16.820  14.357
48504W        W20120   4.871   9.380  11.447
48505W        W20121  28.131  34.453   3.092
48506W        W20122  11.373   3.479  12.641
48507W        W20123   0.424   0.873  10.609
48508W        W20124  16.654  21.184   2.343
48509W        W20125  24.393  30.138   1.232
48510W        W20126  23.517  26.321  12.491
48511W        W20127  30.942  41.460  11.243
48512W        W20128  26.680  24.233   0.929
48513W        W20129   3.265   8.325  13.484
48514W        W20130  41.815   5.828   3.419
48515W        W20131  16.014   7.068  14.455
48516W        W20132  24.403  15.023   4.152
48517W        W20133   6.831   8.208  12.422
48518W        W20134  14.041  41.387   3.958
48519W        W20135  37.494   0.874  12.409
48520W        W20136  30.492   4.393  11.479
48521W        W20137  36.925  24.126  14.425
48522W        W20138  24.560  37.124   2.182
48523W        W20139  21.006  18.982  14.855
48524W        W20140  26.601  33.144   1.845
48525W        W20141  44.837   5.472   2.824
48526W        W20142  12.749  40.507  11.908
48527W        W20143   5.251  12.653   2.285
48528W        W20144  28.166  14.000  14.013
48529W        W20145  34.289  34.665  13.072
48530W        W20146  15.799  18.583   1.937
48531W        W20147  41.673  11.414   0.396
48532W        W20148   2.732  29.731  13.101
48533W        W20149  18.595  19.953  14.194
48534W        W20150  32.416  44.988  13.587
48535W        W20151   8.000  21.282   0.968
48536W        W20152  28.161  26.730  13.149
48537W        W20153  41.909  32.703  11.548
48538W        W20154  36.625  23.222   4.843
48539W        W20155  13.805  42.506  14.366
48540W        W20156   0.973  40.306   4.768
48541W        W20157  39.910  34.056  12.863
48542W        W20158  13.855  25.299   2.290
48543W        W20159  24.751  12.100  11.980
48544W        W20160  39.071  29.967  12.499
48545W        W20161   7.220   8.514   3.486
48546W        W20162  30.826  43.881  13.896
48547W        W20163  13.550   3.693   0.939
48548W        W20164  28.677  29.655  12.061
48549W        W20165  30.999  20.464   3.743
48550W        W20166  41.960   6.823   1.870
48551W        W20167  44.901  38.973   2.299
48552W        W20168  16.639  43.875   1.492
48553W        W20169  38.655  21.931   0.323
48554W        W20170  28.099  39.538   1.259
48555W        W20171   6.365  39.676   4.918
48556W        W20172  31.024  14.981   3.114
48557W        W20173  34.611  10.075   1.208
48558W        W20174  22.278  17.213  13.955
48559W        W20175  33.949  31.436  14.449
48560W        W20176   5.332  29.438  11.873
48561W        W20177  18.034  39.774  14.478
48562W        W20178   4.257  24.902  14.794
48563W        W20179  11.682   8.111  13.321
48564W        W20180  18.382  23.434   5.095
48565W        W20181   8.663  27.689  11.340
48566W        W20182  28.099  26.767   2.802
48567W        W20183  37.323  18.074  13.946
48568W        W20184  12.722   8.699   3.866
48569W        W20185  17.093  19.689   2.423
48570W        W20186   7.897  15.356   3.109
48571W        W20187  22.807  11.890   5.094
48572W        W20188  43.400  41.919  14.443
48573W        W20189  44.334  14.156   1.140
48574W        W20190  33.059   9.475   3.103
48575W        W20191  38.435  30.089   0.858
48576W        W20192  12.769   2.919   1.347
48577W        W20193  28.411  11.834  12.063
48578W        W20194  12.758  39.526  12.425
48579W        W20195  29.094  15.510   9.781
48580W        W20196   5.953  15.698   1.290
48581W        W20197  19.783  32.038  13.065
48582W        W20198   7.921  32.998   0.396
48583W        W20199   2.378  35.150   3.279
48584W        W20200  36.890  11.738  12.392
48585W        W20201   7.593  38.424  14.814
48586W        W20202  41.239  36.420   0.746
48587W        W20203  30.524  29.114  11.957
48588W        W20204   0.548  27.998   0.741
48589W        W20205  13.431  25.378  10.659
48590W        W20206  33.387  22.089  11.185
48591W        W20207  17.054  12.831  14.908
48592W        W20208  13.311  18.020  13.953
48593W        W20209  40.998  32.544   0.268
48594W        W20210  20.076  30.866  13.322
48595W        W20211  30.670  38.315   0.289
48596W        W20212   6.642  23.245  13.094
48597W        W20213  25.115  38.396  11.967
48598W        W20214  22.217  31.914   0.657
48599W        W20215  18.761   9.212  11.182
48600W        W20216  38.926   6.958   3.796
48601W        W20217  30.534   2.463  10.466
48602W        W20218  39.845  30.417   3.054
48603W        W20219  11.528  42.230  13.523
48604W        W20220   0.544  35.671   4.752
48605W        W20221  31.834  24.482  11.591
48606W        W20222  19.796  30.667  14.423
48607W        W20223  13.648  17.208   4.106
48608W        W20224  16.745  18.057   2.119
48609W        W20225  15.149  19.975  11.193
48610W        W20226  39.595  23.118  13.053
48611W        W20227  12.166  32.592   0.724
48612W        W20228  29.661  30.100  12.383
48613W        W20229  26.246  29.214  12.939
48614W        W20230  44.829  13.195   1.849
48615W        W20231  44.028  29.549   1.000
48616W        W20232  38.402  16.618   0.029
48617W        W20233  40.174   1.300   1.502
48618W        W20234  11.402   9.389   2.747
48619W        W20235  39.146  18.277   2.411
48620W        W20236  18.623  28.952  11.437
48621W        W20237   2.282  23.233  12.229
48622W        W20238  14.263  29.613  11.072
48623W        W20239  11.113   5.003   3.164
48624W        W20240  33.091  23.339  10.849
48625W        W20241  39.307  40.623   2.169
48626W        W20242  33.610  42.092   5.077
48627W        W20243  13.393  36.521   4.290
48628W        W20244  43.996   7.205   1.317
48629W        W20245  36.798  25.519   2.589
48630W        W20246  44.679  16.179   4.509
48631W        W20247   7.722  30.097   2.970
48632W        W20248  34.018  42.794   0.900
48633W        W20249  43.279  19.459   4.635
48634W        W20250  35.194  16.108   1.608
48635W        W20251  41.313  12.550  10.738
48636W        W20252  37.919  12.614   0.988
48637W        W20253  21.456  27.633   1.409
48638W        W20254  12.340  31.340   3.159
48639W        W20255  24.424   5.963   2.384
48640W        W20256  15.813  27.054  14.085
48641W        W20257  33.068   3.771   1.158
48642W        W20258  23.598  35.403   3.319
48643W        W20259  24.023  40.420   4.477
48644W        W20260  42.511  44.194   2.804
48645W        W20261  19.152   0.708   2.317
48646W        W20262  39.058  23.711  13.580
48647W        W20263  30.970  24.196  12.547
48648W        W20264  18.679  11.134  12.080
48649W        W20265  38.977   2.320   1.795
48650W        W20266  12.690  36.629  12.407
48651W        W20267  26.186  38.639   4.558
48652W        W20268  13.208  15.430   0.639
48653W        W20269  28.616  20.500  14.357
48654W        W20270  12.211  24.445  12.431
48655W        W20271  16.470  11.369  12.041
48656W        W20272  11.278  44.330  12.599
48657W        W20273   7.131   3.272  14.486
48658W        W20274   0.324  24.004  11.048
48659W        W20275  10.646  41.880   4.736
48660W        W20276  29.534  24.114  11.163
48661W        W20277   8.270  25.650   2.403
48662W        W20278  23.013  37.854   0.308
48663W        W20279   8.278   8.265  10.399
48664W        W20280  26.941   3.971   0.208
48665W        W20281  29.412  28.484  10.671
48666W        W20282  40.841   6.910  12.458
48667W        W20283  32.928  38.603  13.048
48668W        W20284  10.604  12.826   2.868
48669W        W20285   9.804  33.335   2.775
48670W        W20286  32.064  13.618  11.573
48671W        W20287  27.575  28.337  12.816
48672W        W20288  18.296  28.186  12.378
48673W        W20289  11.819   6.844   0.527
48674W        W20290  21.522   8.634   3.140
48675W        W20291  30.369  37.912   3.596
48676W        W20292  19.232  26.925   3.210
48677W        W20293  43.086  34.549  12.230
48678W        W20294  27.612  12.067   4.483
48679W        W20295  32.595  22.260   3.786
48680W        W20296  26.247  33.477   0.940
48681W        W20297  33.633   4.769  11.985
48682W        W20298  44.359   0.956  13.307
48683W        W20299  43.432  22.611   0.527
48684W        W20300  32.135  42.361  13.448
48685W        W20301  23.908   7.681   0.438
48686W        W20302  42.598  29.478  14.904
48687W        W20303   2.259  26.043  13.633
48688W        W20304  26.693  11.370  13.438
48689W        W20305   7.132   6.498   0.931
48690W        W20306  25.002  19.804   4.566
48691W        W20307  24.597  21.454  12.529
48692W        W20308  32.241  33.189   0.319
48693W        W20309  16.198  23.305   1.429
48694W        W20310   0.510   7.779   0.862
48695W        W20311  42.594   2.709  14.262
48696W        W20312  31.462  26.077  12.231
48697W        W20313  34.191  26.824  11.066
48698W        W20314  12.103  24.014   2.607
48699W        W20315   5.050   4.946  12.198
48700W        W20316  36.114   3.832   1.519
48701W        W20317  26.916   1.370  11.766
48702W        W20318  43.340   7.872  12.070
48703W        W20319  39.778  33.323  10.717
48704W        W20320  20.077  10.668  13.629
48705W        W20321  32.829  39.496  12.142
48706W        W20322  25.509  31.430  13.981
48707W        W20323   0.883  15.406  14.777
48708W        W20324  22.177   0.300  12.507
48709W        W20325  34.566  35.539   1.976
48710W        W20326  42.942  16.780  13.382
48711W        W20327  27.660  31.570  14.773
48712W        W20328  36.390  26.593  12.298
48713W        W20329  20.030  12.239   3.744
48714W        W20330  36.075  36.052  14.834
48715W        W20331  25.479   4.784   4.751
48716W        W20332  43.659   2.958   2.930
48717W        W20333  32.785  38.859   4.123
48718W        W20334  14.216  34.298   0.450
48719W        W20335  24.517   3.916   0.299
48720W        W20336  43.801  42.237  12.438
48721W        W20337  31.893  16.810  12.022
48722W        W20338  29.486  38.437   0.830
48723W        W20339   4.900  33.411  12.154
48724W        W20340  34.144  39.610   4.816
48725W        W20341  40.051  31.022  11.181
48726W        W20342  25.981  27.901   4.824
48727W        W20343  27.556   6.684   4.829
48728W        W20344  21.675  29.169  14.925
48729W        W20345  20.235  44.531   0.813
48730W        W20346  24.741  34.119  11.983
48731W        W20347  21.201  16.709   1.648
48732W        W20348  19.207   8.977  12.464
48733W        W20349  39.160   1.471  13.098
48734W        W20350  19.619  23.114  11.670
48735W        W20351  39.188  13.135  14.963
48736W        W20352  17.695  42.311   0.522
48737W        W20353   4.817  30.147  13.855
48738W        W20354  44.195  22.677  12.084
48739W        W20355   0.906  23.249   2.422
48740W        W20356  37.398  25.536   4.830
48741W        W20357   2.743  10.787  12.891
48742W        W20358   3.027  29.776  12.157
48743W        W20359  23.179  14.051  12.428
48744W        W20360  24.260   1.478   0.769
48745W        W20361  39.346  43.777  11.122
48746W        W20362  25.944   1.747  12.608
48747W        W20363  43.143  30.916   3.447
48748W        W20364  25.635  11.816   4.073
48749W        W20365  22.537  25.227  13.008
48750W        W20366  20.012   6.687   2.341
48751W        W20367  28.210  17.417  14.831
48752W        W20368   9.294   0.509  14.760
48753W        W20369  34.854  26.490  13.917
48754W        W20370  11.682   2.470  14.770
48755W        W20371   8.979  19.073  13.912
48756W        W20372  38.792  33.062  10.961
48757W        W20373  41.717  34.054   4.647
48758W        W20374  15.612  38.344   0.481
48759W        W20375  36.313  30.995   2.807
48760W        W20376   6.790  35.610   2.616
48761W        W20377  29.903   8.822   1.312
48762W        W20378  14.113  41.885   3.812
48763W        W20379   6.391  14.097  11.262
48764W        W20380  27.887  22.407  13.868
48765W        W20381   7.945   3.519   4.983
48766W        W20382  32.580  41.045   3.701
48767W        W20383  14.364  34.614  11.148
48768W        W20384   4.967   0.464  14.040
48769W        W20385  42.533   2.450  11.656
48770W        W20386   2.436   9.175  14.777
48771W        W20387   6.769  16.667  14.401
48772W        W20388  27.235   4.782   2.828
48773W        W20389  40.085   7.810  10.704
48774W        W20390   9.184  36.059  13.025
48775W        W20391  26.839  28.018  10.315
48776W        W20392  33.422   3.233  10.636
48777W        W20393  14.668  38.865   1.411
48778W        W20394  26.987   9.799  11.906
48779W        W20395  37.208  27.002  13.140
48780W        W20396  25.226  20.246   2.388
48781W        W20397   2.150   3.477   4.575
48782W        W20398  13.804  15.204  13.292
48783W        W20399  33.311   6.993  11.061
48784W        W20400  24.972  27.976  11.092
48785W        W20401   6.234  29.023   1.327
48786W        W20402   0.248  19.989   0.484
48787W        W20403   6.643   4.038   1.857
48788W        W20404  17.024   5.717  14.712
48789W        W20405   8.286  41.111  10.982
48790W        W20406   5.848   3.862   3.609
48791W        W20407  39.504   9.140  10.590
48792W        W20408  39.979  15.235   0.407
48793W        W20409  43.650  14.400  11.791
48794W        W20410  16.824  13.102   3.324
48795W        W20411  22.525  40.745   1.991
48796W        W20412  17.027   3.296  12.813
48797W        W20413   7.214  16.873  12.974
48798W        W20414  20.469  30.477   3.745
48799W        W20415  42.740  32.342   0.262
48800W        W20416  39.932  26.009  13.916
48801W        W20417  38.604  29.287   1.441
48802W        W20418   3.221  41.995   3.746
48803W        W20419  39.597  44.964  11.940
48804W        W20420   1.606  14.203   3.281
48805W        W20421  23.721  15.642   1.255
48806W        W20422  16.782  25.417  11.536
48807W        W20423   1.204  30.474   4.573
48808W        W20424  10.876  30.371  10.933
48809W        W20425  32.568   3.027   1.720
48810W        W20426  18.615  43.978   3.123
48811W        W20427  23.651  21.475   2.673
48812W        W20428  40.563  30.317   2.279
48813W        W20429  24.154  10.660   4.735
48814W        W20430   9.354  12.260   0.001
48815W        W20431  22.082   7.483   3.475
48816W        W20432  38.053  24.170   1.753
48817W        W20433  25.722   5.951  11.511
48818W        W20434   1.322  44.700  12.395
48819W        W20435  23.763  42.037   0.740
48820W        W20436  29.663  21.410   0.554
48821W        W20437  11.663  11.167   3.204
48822W        W20438   8.682  28.511   1.782
48823W        W20439  41.370  11.981   3.375
48824W        W20440  21.360  32.414  12.458
48825W        W20441  32.046  16.316  10.755
48826W        W20442  22.461  28.678   3.675
48827W        W20443  39.252   9.864   3.605
48828W        W20444  39.445   0.460   3.887
48829W        W20445   0.127  33.873  12.983
48830W        W20446   2.231  14.181  10.238
48831W        W20447  28.117  11.659  10.206
48832W        W20448  29.049  43.892   0.653
48833W        W20449  36.246   8.250   1.281
48834W        W20450  43.790  21.424   4.178
48835W        W20451  24.601   7.896   1.400
48836W        W20452  37.844  29.665  14.782
48837W        W20453  12.551  19.959  12.534
48838W        W20454  21.321   9.882   4.204
48839W        W20455  34.582   1.215  10.291
48840W        W20456  26.503  21.427   4.144
48841W        W20457  30.568   1.858  13.026
48842W        W20458  21.744   4.392   2.568
48843W        W20459  10.342  20.347   1.902
48844W        W20460  18.178   1.940   0.376
48845W        W20461  39.252   4.920   2.880
48846W        W20462  41.480   9.134   1.433
48847W        W20463   5.753   3.423  14.541
48848W        W20464  32.519  26.488  11.569
48849W        W20465  35.148  10.147  11.123
48850W        W20466   3.457   0.682  14.014
48851W        W20467  18.297  26.419  12.034
48852W        W20468  43.926  22.747  11.192
48853W        W20469  37.137  29.026   4.297
48854W        W20470  11.411  13.303   4.546
48855W        W20471   9.913  38.660  13.177
48856W        W20472  18.179  36.092   3.735
48857W        W20473   1.259  34.014  11.912
48858W        W20474  12.233  24.981   0.052
48859W        W20475  30.628  28.628  12.082
48860W        W20476   8.413  23.284  14.969
48861W        W20477  25.994  39.023  12.039
48862W        W20478  21.068  13.643   4.279
48863W        W20479   8.093  19.575  13.837
48864W        W20480  33.973  25.936   4.608
48865W        W20481  10.041  29.196  14.512
48866W        W20482   1.665  22.583  11.079
48867W        W20483  14.360   8.488  11.163
48868W        W20484  44.364  21.277  13.915
48869W        W20485  16.594  41.845   2.152
48870W        W20486  36.983  16.157  12.830
48871W        W20487  29.835  23.198   2.439
48872W        W20488  42.837  15.521  11.516
48873W        W20489   8.638   3.191   3.739
48874W        W20490  16.135  20.222  13.563
48875W        W20491   5.274  44.240  10.633
48876W        W20492  41.189  42.070  11.753
48877W        W20493  36.153  43.722  13.271
48878W        W20494   2.437  26.939   3.305
48879W        W20495  12.532  37.854   2.292
48880W        W20496  10.336  13.756  10.458
48881W        W20497  13.342  37.312   2.205
48882W        W20498   3.396   3.737  13.995
48883W        W20499  23.011  35.393  11.044
48884W        W20500  41.312  33.863  11.360
48885W        W20501  36.900  40.800  13.359
48886W        W20502  27.376  44.987  12.016
48887W        W20503  43.129  23.487   1.683
48888W        W20504  13.628  30.383   1.695
48889W        W20505  22.618  34.384   4.671
48890W        W20506  20.562  18.241  10.142
48891W        W20507  29.737   0.338   4.610
48892W        W20508  41.377  23.908  11.894
48893W        W20509  32.125  10.890   1.881
48894W        W20510  39.952  25.428   1.767
48895W        W20511  38.612  35.225  14.209
48896W        W20512   9.099  42.557   0.356
48897W        W20513  26.286  17.999  12.924
48898W        W20514  21.033   7.005  14.991
48899W        W20515  29.184  31.877   4.050
48900W        W20516  36.827   4.752   2.765
48901W        W20517  11.385   3.279  13.646
48902W        W20518   5.175  31.651   2.875
48903W        W20519  18.768   7.742  13.023
48904W        W20520  19.659  17.013  14.889
48905W        W20521   1.261  17.569  11.055
48906W        W20522  11.377  43.870  10.686
48907W        W20523  28.682  26.088   4.079
48908W        W20524   6.540  38.628   0.020
48909W        W20525  33.884  41.257   3.779
48910W        W20526  39.553  11.162   2.266
48911W        W20527  35.321  26.819  14.048
48912W        W20528  41.142   4.247  14.850
48913W        W20529  17.596   9.687   2.590
48914W        W20530  37.825  34.688   0.740
48915W        W20531   1.077   2.919  13.264
48916W        W20532  19.973  33.954  14.420
48917W        W20533  15.695  25.672   4.192
48918W        W20534  35.506  14.252   1.229
48919W        W20535  42.083   4.676   4.387
48920W        W20536  32.852   8.989   5.122
48921W        W20537  31.744  17.511  12.371
48922W        W20538  21.288  11.824   2.786
48923W        W20539  43.817   3.357   0.445
48924W        W20540   0.516  12.264   1.457
48925W        W20541  33.374  18.799   3.373
48926W        W20542  17.991  12.209   2.241
48927W        W20543   2.322  36.635   2.171
48928W        W20544  19.794  32.447   3.142
48929W        W20545  11.274  41.146   0.005
48930W        W20546   4.139  36.892  11.032
48931W        W20547  14.913  10.424   1.342
48932W        W20548  17.487  31.152  10.762
48933W        W20549   9.343  30.974   0.881
48934W        W20550   5.118  30.840  11.062
48935W        W20551  32.578  20.264  11.870
48936W        W20552  18.643  21.490  11.644
48937W        W20553  41.472  28.907  13.990
48938W        W20554  36.871  36.289   2.155
48939W        W20555  16.165  44.635  10.296
48940W        W20556  33.906   7.983  12.080
48941W        W20557  31.026  14.029  11.560
48942W        W20558  42.569  16.248  12.495
48943W        W20559  20.014  42.057  14.402
48944W        W20560   4.962  29.611  14.504
48945W        W20561  29.468  37.887  10.655
48946W        W20562  35.366  20.158  14.766
48947W        W20563  40.601  33.571  12.650
48948W        W20564  43.890  42.993   4.132
48949W        W20565  20.574  43.308  10.461
48950W        W20566  32.075  27.176   1.143
48951W        W20567  39.880  37.300  13.720
48952W        W20568  15.101   7.401  10.702
48953W        W20569  34.611  15.667  14.822
48954W        W20570   2.235  16.101   0.681
48955W        W20571  43.825  32.187  11.976
48956W        W20572  15.705  28.466  11.860
48957W        W20573   9.189  25.753   0.209
48958W        W20574  21.550  34.921  10.705
48959W        W20575  22.282  19.627  11.197
48960W        W20576  36.409  31.843  13.052
48961W        W20577  34.273  37.963   3.052
48962W        W20578  40.081  20.751   2.888
48963W        W20579  36.033  32.317   3.149
48964W        W20580  38.661  23.851   1.259
48965W        W20581  32.142  43.551   4.554
48966W        W20582  11.399  38.667   4.212
48967W        W20583   9.767   2.946   4.688
48968W        W20584  23.508   2.278   1.622
48969W        W20585  23.044  29.972   0.638
48970W        W20586   3.749  11.827  13.430
48971W        W20587  41.502  30.568  10.765
48972W        W20588  40.977  30.057  12.988
48973W        W20589  17.646  37.492   1.831
48974W        W20590  41.553  21.043  14.315
48975W        W20591  17.010   3.824   3.265
48976W        W20592  29.273   6.033   1.710
48977W        W20593  27.656   8.158  12.393
48978W        W20594  18.519  16.716  13.376
48979W        W20595  22.010  12.113  14.290
48980W        W20596  33.596  15.653   3.759
48981W        W20597  32.615  44.069  12.576
48982W        W20598   3.330  21.960  14.413
48983W        W20599  41.003  12.082   0.907
48984W        W20600  13.395  13.553   3.644
48985W        W20601  19.266  27.083  14.395
48986W        W20602   1.810  30.605  13.366
48987W        W20603  22.221  43.023   2.700
48988W        W20604  24.133  31.625  14.902
48989W        W20605  14.864  12.784  13.035
48990W        W20606  18.038  19.713  14.763
48991W        W20607  34.356  32.154  14.475
48992W        W20608  41.396   7.314  12.891
48993W        W20609  33.264  19.412  14.137
48994W        W20610  12.345  42.349   2.402
48995W        W20611  38.345  44.371  10.501
48996W        W20612  27.332  33.631  12.789
48997W        W20613  35.883  43.328  13.482
48998W        W20614  10.796  27.636   3.400
48999W        W20615  29.187  32.123  12.577
49000W        W20616  41.336   8.600  10.944
49001W        W20617  18.184  36.780   2.261
49002W        W20618  26.313   7.235  13.766
49003W        W20619  25.177  24.305  14.763
49004W        W20620  29.011  28.647   4.252
49005W        W20621  13.602   7.098   0.058
49006W        W20622  13.370  22.943  12.493
49007W        W20623  36.947  15.543  10.326
49008W        W20624  13.355  19.526   3.719
49009W        W20625   6.226   2.368   3.811
49010W        W20626  43.002  26.992   1.181
49011W        W20627  40.888  19.418  11.279
49012W        W20628  16.085  29.184   4.519
49013W        W20629  12.909  13.470   0.670
49014W        W20630  28.165  16.057   2.548
49015W        W20631  18.246  13.857  14.837
49016W        W20632  41.845  44.662  14.028
49017W        W20633  23.720   1.282   0.040
49018W        W20634  14.294  11.167  14.162
49019W        W20635  43.888  41.287   2.789
49020W        W20636  43.892  14.904   4.474
49021W        W20637  42.851  10.166  13.808
49022W        W20638   4.139   3.830   1.602
49023W        W20639  30.569  32.326  13.341
49024W        W20640  12.796  30.901   2.721
49025W        W20641  35.535  31.612  13.770
49026W        W20642  13.156  29.068  14.294
49027W        W20643  30.593  14.699   3.718
49028W        W20644  29.087   5.691   0.735
49029W        W20645  30.198  20.045  12.975
49030W        W20646  35.463   8.957   4.151
49031W        W20647  28.679  40.556  12.437
49032W        W20648   5.355  24.754   5.026
49033W        W20649  39.836  13.701   2.810
49034W        W20650  14.835  40.957  14.347
49035W        W20651  38.446  11.077  11.966
49036W        W20652  10.029  18.434   9.853
49037W        W20653   1.709   6.848   0.947
49038W        W20654  19.491  26.556  13.307
49039W        W20655  20.847  44.551   5.079
49040W        W20656   1.435   1.465   4.544
49041W        W20657  17.689  44.999  11.086
49042W        W20658   3.835  39.368  14.511
49043W        W20659  23.786  28.032  13.526
49044W        W20660  13.313  39.370  13.766
49045W        W20661   6.514  28.908   0.290
49046W        W20662  39.446   2.290  14.990
49047W        W20663  37.925  33.066  13.535
49048W        W20664  38.161   7.341   1.918
49049W        W20665  42.015  16.344   4.947
49050W        W20666  32.426  28.045  13.948
49051W        W20667   1.447  26.209   1.624
49052W        W20668  12.865   3.483  12.099
49053W        W20669  37.327  44.448  11.626
49054W        W20670   8.667  13.942   9.749
49055W        W20671  14.852  20.639   0.717
49056W        W20672  29.932  25.585   1.358
49057W        W20673  12.959  15.212   4.607
49058W        W20674  33.753  33.452   3.744
49059W        W20675  32.433   9.530   2.585
49060W        W20676  41.992   9.816  14.896
49061W        W20677  30.803  41.851   1.343
49062W        W20678  20.858  34.595  10.844
49063W        W20679   3.781  27.602   3.127
49064W        W20680  27.019  16.091  11.158
49065W        W20681   2.995  42.500  12.194
49066W        W20682  39.157   3.525   4.609
49067W        W20683   4.753  22.696  13.597
49068W        W20684  10.348  22.106   2.319
49069W        W20685  37.761  19.294   0.273
49070W        W20686  43.269  20.058  11.475
49071W        W20687   6.694  23.140  14.970
49072W        W20688   8.284  31.239  12.997
49073W        W20689   6.052  10.024  11.656
49074W        W20690  30.688  44.681  11.555
49075W        W20691  33.381  43.407  10.547
49076W        W20692   8.257   5.847   0.282
49077W        W20693  33.771  34.462   1.415
49078W        W20694  28.070  20.943  13.792
49079W        W20695  20.025  31.453  11.152
49080W        W20696   9.236  38.062   4.342
49081W        W20697  24.435   3.328   0.510
49082W        W20698  31.561  26.381  14.897
49083W        W20699  29.911  24.712   2.311
49084W        W20700  29.027  42.084   1.156
49085W        W20701   8.714   2.059   0.707
49086W        W20702  27.070  17.577  14.004
49087W        W20703  22.010  28.207  12.402
49088W        W20704  41.497  35.093   2.396
49089W        W20705   1.773  13.600  11.549
49090W        W20706  32.118  39.154  13.163
49091W        W20707  23.154  33.195   2.552
49092W        W20708   7.216  23.471  12.007
49093W        W20709   2.032   9.661   0.850
49094W        W20710   3.766  34.524   0.633
49095W        W20711  14.105  20.136   0.831
49096W        W20712  38.586  32.033   1.322
49097W        W20713  29.427   1.390   4.199
49098W        W20714  19.506   8.181  11.901
49099W        W20715  15.858   9.400  13.815
49100W        W20716  20.268  30.675   4.219
49101W        W20717  13.707  37.829  14.436
49102W        W20718  38.337  41.332  10.592
49103W        W20719  35.597  35.969  11.949
49104W        W20720  28.811  15.066   2.914
49105W        W20721  10.436  34.170   0.754
49106W        W20722  18.995   4.253   2.903
49107W        W20723  27.379  26.435  12.556
49108W        W20724  42.070  26.371   0.483
49109W        W20725  14.103  15.775   2.792
49110W        W20726   1.543   7.246  12.565
49111W        W20727  25.621  20.012  11.234
49112W        W20728   3.706  16.171   0.577
49113W        W20729  19.850  26.812   2.614
49114W        W20730  30.372  13.830  14.787
49115W        W20731   6.244   3.475  14.698
49116W        W20732   0.870  20.806  12.962
49117W        W20733   6.801  35.015   1.289
49118W        W20734  18.608  14.576   2.799
49119W        W20735  22.141  17.034   3.095
49120W        W20736  29.642   7.682   0.798
49121W        W20737   6.449  18.972   1.275
49122W        W20738   1.276  16.704  10.736
49123W        W20739  43.226  29.651  13.493
49124W        W20740  24.488  16.205   1.514
49125W        W20741   6.888  39.130   2.425
49126W        W20742  15.574  38.937  12.479
49127W        W20743  15.700  33.261   3.817
49128W        W20744  34.910   8.877   3.878
49129W        W20745  42.077  34.544   0.327
49130W        W20746  39.881  13.649  13.358
49131W        W20747  11.864  32.907   3.575
49132W        W20748  15.624  16.606   2.934
49133W        W20749  42.819  37.355  13.081
49134W        W20750  34.206   3.027   1.333
49135W        W20751  10.177   9.821   1.590
49136W        W20752  27.468  44.609  12.377
49137W        W20753  42.881  22.001  14.003
49138W        W20754  31.645  39.922  10.476
49139W        W20755  22.751  34.420  14.473
49140W        W20756   8.262  10.381   4.587
49141W        W20757  41.878  38.594   1.452
49142W        W20758  13.433  38.389   0.864
49143W        W20759  18.624  25.625  14.948
49144W        W20760   1.614  29.708   4.110
49145W        W20761   9.953  18.553  10.390
49146W        W20762  34.852  34.177  11.961
49147W        W20763  27.621  14.489   1.305
49148W        W20764   9.241   5.177   0.250
49149W        W20765  32.084  21.063  12.583
49150W        W20766  29.766  13.994  12.071
49151W        W20767  18.477  44.302  10.261
49152W        W20768  29.213  26.136   4.106
49153W        W20769  27.599  43.464   2.161
49154W        W20770   7.184  25.659  14.866
49155W        W20771   8.304  38.002  11.927
49156W        W20772  19.743  22.091   0.445
49157W        W20773   0.773  36.481  12.589
49158W        W20774  10.843   0.702   1.613
49159W        W20775  36.886  37.427   0.674
49160W        W20776  34.898   7.800   0.840
49161W        W20777  19.857  25.441  12.053
49162W        W20778  44.735  17.431  14.394
49163W        W20779   8.241  10.854   0.970
49164W        W20780   3.090  36.970  13.448
49165W        W20781   9.394  33.892  12.869
49166W        W20782   4.748  13.031  13.687
49167W        W20783   3.897  27.290   4.078
49168W        W20784   4.503  43.335   1.437
49169W        W20785  11.067  42.817  14.177
49170W        W20786  32.214  44.432   3.417
49171W        W20787  39.707  30.592  11.114
49172W        W20788  21.656  25.714  13.189
49173W        W20789  28.101   3.039   5.103
49174W        W20790  17.527  21.727   0.729
49175W        W20791  25.794  36.534  10.590
49176W        W20792   7.646   0.736  12.395
49177W        W20793  34.302  44.230  11.948
49178W        W20794   0.478  19.154  13.807
49179W        W20795   1.512  31.640   0.486
49180W        W20796  42.336   9.157  11.525
49181W        W20797  30.389  28.595  11.618
49182W        W20798  34.165  16.800   4.230
49183W        W20799  38.096  40.864  13.802
49184W        W20800  26.708   3.914   1.759
49185W        W20801  44.171   7.175  10.987
49186W        W20802  29.105  25.552   0.795
49187W        W20803  11.679  28.212  11.098
49188W        W20804  16.262  32.600   1.432
49189W        W20805  12.796  24.465  12.003
49190W        W20806  29.925   2.694   0.819
49191W        W20807  35.217   0.876   0.689
49192W        W20808   0.349  20.729  12.878
49193W        W20809  42.849  10.112   3.120
49194W        W20810  26.132  27.869  12.578
49195W        W20811  28.229  29.384  10.614
49196W        W20812   3.029  32.673   0.841
49197W        W20813  27.998  35.543  11.673
49198W        W20814  21.894  37.993   1.290
49199W        W20815  35.488  32.883   2.768
49200W        W20816  44.990   8.541   4.579
49201W        W20817  43.312  33.011   2.015
49202W        W20818  17.765  25.291   1.606
49203W        W20819   7.818  37.446   0.789
49204W        W20820   6.258  19.549   4.698
49205W        W20821  16.770  34.625  13.404
49206W        W20822  13.756  33.129   2.916
49207W        W20823  29.633   4.458  11.119
49208W        W20824  31.859  25.375  12.554
49209W        W20825  28.741  36.502  12.894
49210W        W20826  34.772   8.921  13.965
49211W        W20827  25.181  29.142   4.812
49212W        W20828  23.161   7.710  12.971
49213W        W20829  25.485   0.551  11.120
49214W        W20830  18.581  19.052   4.216
49215W        W20831  34.619  19.581   0.911
49216W        W20832  19.179  44.311  10.611
49217W        W20833  44.518  22.754  11.660
49218W        W20834  35.358  28.549   0.431
49219W        W20835  10.608  31.596   4.023
49220W        W20836  41.128  21.144  11.637
49221W        W20837   8.441  21.243   1.933
49222W        W20838   5.230  35.745  12.211
49223W        W20839  22.309  36.411   4.205
49224W        W20840  12.188  24.460   2.813
49225W        W20841  36.487  34.371   4.433
49226W        W20842  31.385  38.547   4.005
49227W        W20843  30.025  16.262   4.611
49228W        W20844  39.447  15.822  12.053
49229W        W20845  34.676   2.370   4.361
49230W        W20846  35.573  14.792   3.716
49231W        W20847  10.018  28.106  10.483
49232W        W20848   1.938  22.206   0.657
49233W        W20849   7.673  40.287   4.561
49234W        W20850  31.563  20.244   2.960
49235W        W20851  38.671   0.269  11.577
49236W        W20852   8.139  33.075  14.018
49237W        W20853  37.123  12.871   9.839
49238W        W20854   8.640  32.559  11.982
49239W        W20855  24.724  14.245  13.513
49240W        W20856  17.553  27.629  13.446
49241W        W20857  38.421  29.472  10.456
49242W        W20858   1.871  40.484   0.201
49243W        W20859  28.572  22.334  11.513
49244W        W20860  30.568   3.746   3.212
49245W        W20861  36.002  44.514   1.825
49246W        W20862  38.629  29.605   3.822
49247W        W20863  40.496  32.807  10.440
49248W        W20864  32.330  19.900   0.855
49249W        W20865  19.677  20.528   0.588
49250W        W20866  43.998  14.555  12.627
49251W        W20867  13.717  14.753   4.605
49252W        W20868  40.525  30.752  13.426
49253W        W20869  30.966  23.037  10.137
49254W        W20870  25.966   4.708  11.426
49255W        W20871  35.479  44.681   2.238
49256W        W20872  35.721  25.484  13.979
49257W        W20873  23.199  17.627  10.968
49258W        W20874  28.115   6.432  11.654
49259W        W20875  12.579  38.209   4.312
49260W        W20876  14.008  43.828  14.412
49261W        W20877   8.369   4.025   2.405
49262W        W20878  37.400  37.252   2.879
49263W        W20879  17.731  38.861  10.431
49264W        W20880  27.203  40.361   1.221
49265W        W20881   5.171  11.976   2.175
49266W        W20882  21.684  44.820   1.469
49267W        W20883  41.305  23.210   1.754
49268W        W20884  39.678   3.349  12.393
49269W        W20885  22.136  25.027   3.561
49270W        W20886  25.144  35.094   2.029
49271W        W20887  38.745  44.244   0.921
49272W        W20888  11.627  22.683  12.811
49273W        W20889  28.992  31.054   3.372
49274W        W20890  17.772  10.101  13.872
49275W        W20891  31.982  30.184  14.319
49276W        W20892  39.311  35.316   1.369
49277W        W20893  23.182  40.720   3.662
49278W        W20894  43.495   1.045   1.824
49279W        W20895  34.882  37.847  14.883
49280W        W20896  43.792   5.378  12.053
49281W        W20897  26.961  39.323  11.272
49282W        W20898   8.873  32.152   0.340
49283W        W20899  12.159  16.164  14.979
49284W        W20900   6.746  35.827  13.545
49285W        W20901  39.784  24.734   4.092
49286W        W20902   6.265  35.555   2.648
49287W        W20903   5.635  37.445   3.265
49288W        W20904  27.058  37.806   2.652
49289W        W20905  35.498  30.429  14.756
49290W        W20906  33.610  15.198  14.987
49291W        W20907  16.681  24.918   0.737
49292W        W20908  25.790  35.831   1.730
49293W        W20909  44.454   2.412   2.939
49294W        W20910  16.579  25.535   3.617
49295W        W20911  40.083  13.384   3.162
49296W        W20912   9.197  13.270   2.216
49297W        W20913   6.975   6.544   2.816
49298W        W20914  25.035  24.558   3.823
49299W        W20915  42.116  28.622   2.371
49300W        W20916  42.492  18.603   1.265
49301W        W20917  21.675  32.966   4.202
49302W        W20918  23.167  17.334  13.054
49303W        W20919  39.980  16.239  14.482
49304W        W20920  14.407  18.137   5.091
49305W        W20921   2.931   8.671   4.844
49306W        W20922  30.573  34.834   0.380
49307W        W20923  43.864  34.611  10.967
49308W        W20924   6.937   0.700   4.455
49309W        W20925  15.632  44.234  12.809
49310W        W20926  14.867  41.098   0.956
49311W        W20927  13.961  39.537  11.101
49312W        W20928  30.204   4.949  14.752
49313W        W20929  10.667  21.569   1.674
49314W        W20930  40.372  17.988  14.272
49315W        W20931  30.061  28.563   4.995
49316W        W20932  29.616  28.121   4.113
49317W        W20933  24.337  21.164  11.518
49318W        W20934  20.543  10.716  12.516
49319W        W20935  31.951  35.709  10.567
49320W        W20936  28.647  28.492   3.244
49321W        W20937  25.733  26.039  14.338
49322W        W20938  35.476  11.765  13.926
49323W        W20939  20.152   6.615  14.790
49324W        W20940   8.837  21.533   1.691
49325W        W20941  40.759  34.586   2.079
49326W        W20942  27.492  23.258  13.054
49327W        W20943  18.976   2.859   2.397
49328W        W20944  18.527  39.892  14.381
49329W        W20945  30.269   1.289   4.535
49330W        W20946   9.636  44.377   0.225
49331W        W20947  26.937  42.792   4.667
49332W        W20948   0.261   8.102   2.201
49333W        W20949  22.423  44.789  13.131
49334W        W20950  39.832  44.522   0.283
49335W        W20951  28.054  16.201  13.289
49336W        W20952   3.073  43.132   4.503
49337W        W20953   5.019  39.720  14.720
49338W        W20954  18.101  24.101   0.972
49339W        W20955  28.546   6.145  12.582
49340W        W20956  44.015  26.111  14.535
49341W        W20957  22.490   4.496  14.356
49342W        W20958  36.029  17.274  11.468
49343W        W20959   0.515  41.815  13.029
49344W        W20960  25.251  33.148  14.272
49345W        W20961  15.226  43.478  11.915
49346W        W20962  33.469  32.862   0.900
49347W        W20963   5.629  10.612   4.169
49348W        W20964   9.329   4.306  13.940
49349W        W20965   1.763  20.746   1.229
49350W        W20966  21.011  22.474  14.804
49351W        W20967  33.034  25.650  14.422
49352W        W20968  31.537  37.447  10.698
49353W        W20969  21.430  27.644  14.332
49354W        W20970  19.054  28.033   2.758
49355W        W20971  26.191   1.517   3.327
49356W        W20972  39.032  44.243   5.094
49357W        W20973  34.988   4.139   4.389
49358W        W20974  27.546  35.748   0.148
49359W        W20975   8.957  30.708  13.566
49360W        W20976  27.996  35.369  14.303
49361W        W20977   8.351  33.246   1.613
49362W        W20978  33.088   4.325   2.200
49363W        W20979  37.433  43.265  14.473
49364W        W20980  29.705  40.589   0.020
49365W        W20981  25.031  44.022  10.725
49366W        W20982  22.720   2.449   3.338
49367W        W20983  22.685  28.415   1.407
49368W        W20984  28.023  30.454   5.007
49369W        W20985  21.826   9.780  12.187
49370W        W20986  40.006   0.052   4.878
49371W        W20987   3.241  37.079   0.825
49372W        W20988  41.819  24.930  12.415
49373W        W20989  33.644  15.685  14.834
49374W        W20990  28.867  35.701  10.656
49375W        W20991  27.519  19.918  11.125
49376W        W20992  15.261  31.886   4.961
49377W        W20993  18.695   4.236   3.358
49378W        W20994  42.343  40.605   3.606
49379W        W20995   5.500  42.229   1.687
49380W        W20996  30.658  33.575  11.460
49381W        W20997  28.939  32.135  14.283
49382W        W20998  13.258  42.023  12.882
49383W        W20999  31.369  22.142  14.818
49384W        W21000  37.876   6.791  13.831
49385W        W21001  17.591   3.858  11.877
49386W        W21002  21.354  40.974  13.811
49387W        W21003  19.734  24.756   3.149
49388W        W21004  25.047  11.355   3.097
49389W        W21005  40.485  23.588   2.771
49390W        W21006  34.376  19.460   2.656
49391W        W21007  34.984  22.199   1.961
49392W        W21008  44.665  19.683  12.016
49393W        W21009  44.719  40.543   0.193
49394W        W21010  21.549  38.151  12.570
49395W        W21011  44.821  13.211   3.178
49396W        W21012   3.637  15.859  13.829
49397W        W21013   4.685   4.018  11.975
49398W        W21014  25.031  43.382   2.926
49399W        W21015  13.238  27.837   1.135
49400W        W21016  31.912  41.388  13.466
49401W        W21017  17.871  16.002   4.122
49402W        W21018  21.975  18.185  11.637
49403W        W21019  10.177  15.665  10.591
49404W        W21020  21.802  34.349   2.813
49405W        W21021   0.033  41.323   3.277
49406W        W21022  11.422  13.864   0.750
49407W        W21023  24.119  34.965   1.976
49408W        W21024  10.749   7.415  13.342
49409W        W21025   6.026   0.499  13.810
49410W        W21026  26.907  33.086   0.917
49411W        W21027   2.807  37.096   3.700
49412W        W21028  18.703   3.975  13.225
49413W        W21029  40.322  44.726  10.657
49414W        W21030  23.761  30.192  11.181
49415W        W21031  30.678  22.735   1.298
49416W        W21032   7.279   5.920  14.347
49417W        W21033  41.391  38.826   1.364
49418W        W21034  10.923   2.739  13.725
49419W        W21035  44.035  26.277  13.078
49420W        W21036  19.448  22.929   0.896
49421W        W21037  39.541  39.974   2.816
49422W        W21038  32.011   3.449  11.648
49423W        W21039   0.176  44.581  11.658
49424W        W21040  32.144  37.434   4.759
49425W        W21041  37.615  14.767   3.223
49426W        W21042  12.169  18.101  11.992
49427W        W21043  32.621  11.718  14.432
49428W        W21044  22.984  16.796  11.141
49429W        W21045  12.992  25.662  10.687
49430W        W21046  26.577  23.573   3.764
49431W        W21047  19.731  19.772   1.017
49432W        W21048  35.010  43.270  13.814
49433W        W21049   8.210  35.021   1.285
49434W        W21050  16.280  40.750   2.651
49435W        W21051  33.903   5.735   2.818
49436W        W21052   8.726  28.051   0.973
49437W        W21053   3.099   2.392  14.461
49438W        W21054  15.656  43.698  11.186
49439W        W21055  23.656   3.651  14.341
49440W        W21056  38.130  13.203  12.413
49441W        W21057   2.021  10.470  14.316
49442W        W21058   0.873  12.404  10.242
49443W        W21059  14.684  14.765   0.461
49444W        W21060   7.346  35.145   3.941
49445W        W21061  37.914  35.812  11.948
49446W        W21062   7.756  13.289   0.924
49447W        W21063  34.639  32.963  13.485
49448W        W21064  13.151   6.711  13.999
49449W        W21065  30.982   2.656   2.697
49450W        W21066  21.078   6.454  12.188
49451W        W21067  29.370  12.872  12.953
49452W        W21068  43.975  36.092   1.291
49453W        W21069  17.503   7.250   4.195
49454W        W21070  27.188   1.603   5.114
49455W        W21071  40.116  39.440   0.368
49456W        W21072  29.003  14.660  10.678
49457W        W21073  24.037  41.032  13.394
49458W        W21074  17.486  36.535  11.084
49459W        W21075  26.027  26.033   1.131
49460W        W21076  34.309  40.548   4.094
49461W        W21077   4.321   1.865   0.662
49462W        W21078   2.731  44.489  13.575
49463W        W21079  35.143   5.380   0.465
49464W        W21080  39.446   0.619   0.960
49465W        W21081  31.849   4.188   3.269
49466W        W21082  19.231   4.514   3.280
49467W        W21083  22.981   7.777  12.003
49468W        W21084   4.359  31.797  14.454
49469W        W21085  41.320   3.845  10.495
49470W        W21086  34.529  28.884  12.023
49471W        W21087  37.346  24.042   3.850
49472W        W21088   5.913  13.930   4.243
49473W        W21089  22.728  13.714  12.335
49474W        W21090  25.096  19.508   2.804
49475W        W21091  19.858   3.830   3.615
49476W        W21092   2.975  24.829   1.282
49477W        W21093  42.400  39.296   3.355
49478W        W21094  31.858  39.799  14.427
49479W        W21095   5.051  38.246  10.218
49480W        W21096  14.234  27.991   3.737
49481W        W21097  17.287  14.658  13.394
49482W        W21098  36.683  21.413   4.178
49483W        W21099  38.025  20.182   0.216
49484W        W21100  10.833  29.536   3.703
49485W        W21101   2.520  39.316  11.095
49486W        W21102  42.990  23.805  10.762
49487W        W21103   4.830  20.369   5.049
49488W        W21104  22.132  38.487   2.856
49489W        W21105  17.278  44.026  12.100
49490W        W21106  13.996   3.906   0.067
49491W        W21107  23.205  13.060   3.569
49492W        W21108  43.493   7.790  13.010
49493W        W21109  24.205  15.915  12.069
49494W        W21110  33.661  14.838   2.781
49495W        W21111   0.875   6.623  10.246
49496W        W21112  40.909   3.745  11.486
49497W        W21113  27.003  42.519   2.522
49498W        W21114  28.015   8.705   0.434
49499W        W21115  44.560  44.785   1.351
49500W        W21116   6.631  29.584   4.130
49501W        W21117  38.054  22.725   0.709
49502W        W21118  18.095  11.752  10.508
49503W        W21119  38.767  22.114  14.859
49504W        W21120   0.759  15.892  14.877
49505W        W21121  16.349  30.416  14.596
49506W        W21122  36.461   9.767  13.614
49507W        W21123  25.922   9.250   0.608
49508W        W21124  30.321   5.124   0.441
49509W        W21125  17.738  24.202   3.176
49510W        W21126  41.847  13.356  11.665
49511W        W21127  17.040  19.432  14.274
49512W        W21128  23.584  41.008   1.921
49513W        W21129  11.153  26.521   5.032
49514W        W21130  40.802  32.933  14.253
49515W        W21131  17.202  26.368   2.392
49516W        W21132  29.226   8.762  12.258
49517W        W21133  17.832   6.713  12.655
49518W        W21134  19.921   4.861   3.574
49519W        W21135  35.528  29.355  10.809
49520W        W21136  21.725  28.116  11.607
49521W        W21137  16.573   8.849   1.380
49522W        W21138  19.587  36.949  10.728
49523W        W21139  22.674   0.757  12.888
49524W        W21140  17.124  13.645   2.439
49525W        W21141  17.328  32.867  11.136
49526W        W21142  29.028  20.109   0.233
49527W        W21143  25.454  44.333  12.977
49528W        W21144  20.566  16.676  10.324
49529W        W21145  17.802  11.225  11.108
49530W        W21146  21.941  29.048  14.471
49531W        W21147  36.149  13.274   3.829
49532W        W21148  11.477   0.716  12.382
49533W        W21149  15.642  42.695  11.356
49534W        W21150  22.814  12.089  11.996
49535W        W21151  22.039  21.540   3.944
49536W        W21152   2.224   6.932  12.521
49537W        W21153  27.651  28.043   3.764
49538W        W21154  31.073  20.303   2.195
49539W        W21155  10.269  28.589  10.588
49540W        W21156   3.463  11.675   2.870
49541W        W21157  29.472  20.071  10.644
49542W        W21158   5.262  33.441   4.578
49543W        W21159   4.210  36.405  14.633
49544W        W21160  40.113  39.809  10.546
49545W        W21161  26.316  26.449   1.272
49546W        W21162  16.225  39.285   1.820
49547W        W21163  29.001   5.031   0.332
49548W        W21164  26.564  36.134  12.186
49549W        W21165  17.646   2.987  11.081
49550W        W21166  34.495  44.965   2.183
49551W        W21167  25.628  21.001  11.075
49552W        W21168   8.746  35.401  11.924
49553W        W21169   4.405  24.599   3.308
49554W        W21170  29.495  33.347   3.252
49555W        W21171   4.001  25.099  12.224
49556W        W21172  11.381  21.594   3.279
49557W        W21173  44.185  36.596   1.365
49558W        W21174  40.824  18.309  11.845
49559W        W21175  23.446  34.396  13.909
49560W        W21176  14.878  31.658   3.202
49561W        W21177  40.037   9.647   1.381
49562W        W21178  27.744  33.339  12.363
49563W        W21179  13.179   1.001   2.014
49564W        W21180  35.568  19.885  13.725
49565W        W21181  42.956  35.447  11.387
49566W        W21182   5.689  16.058  11.468
49567W        W21183  13.961  43.444   4.593
49568W        W21184  38.335   0.212  12.821
49569W        W21185  37.121  10.254   1.019
49570W        W21186  14.069  10.656   3.671
49571W        W21187   9.814  38.515   2.906
49572W        W21188   7.576  32.072  13.758
49573W        W21189  24.025  35.097  11.529
49574W        W21190  12.849  22.211  12.552
49575W        W21191  38.007  31.461  14.886
49576W        W21192  27.466  44.957   2.315
49577W        W21193   6.951  36.227  11.557
49578W        W21194  14.274  31.993  14.919
49579W        W21195  25.064   1.101  14.423
49580W        W21196  37.935  28.158   0.004
49581W        W21197  42.179  14.326  10.816
49582W        W21198  27.980   5.763  11.423
49583W        W21199   9.842   3.934  10.673
49584W        W21200  41.345  40.264   0.815
49585W        W21201  21.204  39.560  13.870
49586W        W21202   0.016  13.347  13.198
49587W        W21203  35.658  21.686   3.255
49588W        W21204  43.443  14.592   4.604
49589W        W21205  43.727   3.616   4.095
49590W        W21206  25.477  43.931  13.577
49591W        W21207  26.534  32.366  11.676
49592W        W21208  40.062  29.652   1.972
49593W        W21209  14.160  20.599   2.884
49594W        W21210  17.145  16.230  10.762
49595W        W21211  43.926  34.996  10.650
49596W        W21212  27.498  10.349   0.547
49597W        W21213  33.811  24.107  11.952
49598W        W21214   8.123  30.345   5.087
49599W        W21215  17.303   9.742   0.683
49600W        W21216   8.286  42.676  11.548
49601W        W21217  33.667  20.582  12.074
49602W        W21218  43.972  37.458   2.638
49603W        W21219   6.046  10.784   0.508
49604W        W21220   8.168  35.567  10.662
49605W        W21221   0.757  24.226   2.231
49606W        W21222  24.888  25.974  11.650
49607W        W21223  19.616  15.646  13.930
49608W        W21224  28.120  20.548   1.407
49609W        W21225  33.887  31.450  10.701
49610W        W21226  40.974  27.565   3.181
49611W        W21227   3.990  15.176  10.497
49612W        W21228  35.928   5.366  10.582
49613W        W21229  22.448  31.630  13.213
49614W        W21230  29.510  14.580   5.047
49615W        W21231  43.290  37.105  13.079
49616W        W21232   7.689  41.298  11.251
49617W        W21233  20.532  43.515   1.794
49618W        W21234  44.051  28.141  10.882
49619W        W21235   3.014  35.081  11.085
49620W        W21236  38.518  34.951   3.612
49621W        W21237   5.486  20.112   1.925
49622W        W21238  22.951  42.293  12.806
49623W        W21239  19.366   5.322   4.695
49624W        W21240  14.909   0.482  13.670
49625W        W21241   6.691  12.819   1.060
49626W        W21242  38.945  22.250   3.637
49627W        W21243  34.432   2.312   2.342
49628W        W21244  42.510   6.753   1.214
49629W        W21245  33.572   3.977  13.138
49630W        W21246  28.466  16.201  10.125
49631W        W21247  30.963  44.325  13.601
49632W        W21248  19.055  17.093   0.416
49633W        W21249  38.595  43.506   4.872
49634W        W21250   5.647  17.999  11.981
49635W        W21251  13.962  40.823   1.905
49636W        W21252  14.041   2.110   0.209
49637W        W21253   2.821  21.996  11.958
49638W        W21254  33.970  13.244  11.146
49639W        W21255   2.165  15.625  14.898
49640W        W21256  22.784  35.352  11.859
49641W        W21257  12.705  22.294  10.729
49642W        W21258  26.118  20.727   2.653
49643W        W21259  13.659  21.145   4.400
49644W        W21260  23.182  12.613   3.830
49645W        W21261  16.606   3.300   4.804
49646W        W21262  17.463  41.861  13.626
49647W        W21263  37.640  28.639  14.003
49648W        W21264  41.690  38.128   9.852
49649W        W21265  43.790  15.309  14.194
49650W        W21266  35.648  21.103  11.836
49651W        W21267  19.011   8.315   2.253
49652W        W21268  25.649   7.146   0.216
49653W        W21269   5.385  31.976  11.026
49654W        W21270  34.501  24.752  11.948
49655W        W21271  36.556  13.262   3.076
49656W        W21272  30.540  23.507  13.794
49657W        W21273   0.393  37.964   0.771
49658W        W21274  35.892  22.339  10.695
49659W        W21275  38.889  40.006   2.297
49660W        W21276  43.451   9.938   3.275
49661W        W21277  37.884  28.591  14.533
49662W        W21278  40.496  21.636   1.666
49663W        W21279   5.683   6.203  14.012
49664W        W21280   3.310  37.413  11.972
49665W        W21281  27.371  20.767  12.013
49666W        W21282   5.337  27.743   4.605
49667W        W21283  22.815   9.539  11.996
49668W        W21284  18.568  17.085   1.300
49669W        W21285  19.763  42.436  13.344
49670W        W21286  42.983  40.772   2.384
49671W        W21287  39.101   3.272  12.466
49672W        W21288  13.192  35.685   2.151
49673W        W21289  15.758  22.907  11.841
49674W        W21290   8.701  34.875   1.198
49675W        W21291   0.261  43.847   4.096
49676W        W21292  17.419  33.701  10.693
49677W        W21293  25.205  25.618  13.536
49678W        W21294  39.040  22.137   3.131
49679W        W21295   4.451  32.449  11.623
49680W        W21296  37.320  36.018   0.532
49681W        W21297  20.722  25.477   0.811
49682W        W21298   6.796  44.526   0.096
49683W        W21299  34.530   0.273   3.194
49684W        W21300   0.336   2.413  13.450
49685W        W21301  28.660  41.367  12.899
49686W        W21302   6.815  14.544   1.892
49687W        W21303  30.067  11.716   0.938
49688W        W21304  27.426  41.442  12.393
49689W        W21305  10.627  41.764  11.975
49690W        W21306   8.123  24.334   2.924
49691W        W21307  40.424   2.668  12.537
49692W        W21308  22.266   2.260  13.434
49693W        W21309  20.050  38.908  10.209
49694W        W21310   7.861  30.396   1.223
49695W        W21311  10.853  35.034  13.031
49696W        W21312  24.149  44.505   2.664
49697W        W21313  21.434   7.302  11.125
49698W        W21314  19.213  30.456   3.127
49699W        W21315  39.868  43.282  14.771
49700W        W21316  24.104   6.954  10.953
49701W        W21317  25.985  31.915  13.395
49702W        W21318  12.797  29.547  11.259
49703W        W21319  16.296  10.855   0.767
49704W        W21320  16.698   9.297  13.366
49705W        W21321  38.356  17.650  12.634
49706W        W21322  44.854  36.540   0.603
49707W        W21323  31.980  27.322   0.650
49708W        W21324  32.120  28.428   4.786
49709W        W21325  43.967  28.573   2.559
49710W        W21326  12.653  33.935   2.952
49711W        W21327  29.734  18.357   2.763
49712W        W21328  25.975   7.451   2.524
49713W        W21329  41.869  21.333  12.055
49714W        W21330  43.237  37.851   2.348
49715W        W21331  25.962  28.962  10.459
49716W        W21332  22.268  43.605  13.782
49717W        W21333  16.853  26.086  12.325
49718W        W21334  35.543  43.061  14.894
49719W        W21335  38.951  14.749  12.159
49720W        W21336  31.657  36.390   1.759
49721W        W21337  13.647  28.543   2.458
49722W        W21338   8.459  21.513   0.747
49723W        W21339  14.746  13.314   0.991
49724W        W21340   4.254  33.810   3.661
49725W        W21341  43.303  33.096   0.384
49726W        W21342  19.763  10.266   0.362
49727W        W21343  39.865  31.620   4.553
49728W        W21344  41.330  41.098  11.175
49729W        W21345  20.959  20.602   1.255
49730W        W21346  23.676  31.961  12.863
49731W        W21347  42.028  34.005  10.740
49732W        W21348   3.564  27.707   2.264
49733W        W21349  37.054  30.588   0.071
49734W        W21350  11.148  15.812   3.655
49735W        W21351  18.674  30.424   4.426
49736W        W21352  40.223   4.036   1.096
49737W        W21353  43.257  43.449  14.314
49738W        W21354  31.913  36.126  10.189
49739W        W21355  19.569  10.221  11.532
49740W        W21356  30.541  18.203   3.334
49741W        W21357   4.166   3.893   0.554
49742W        W21358  34.685   9.116   4.732
49743W        W21359  32.523   6.884  11.110
49744W        W21360  20.446  37.519  14.717
49745W        W21361  31.435  10.232   3.685
49746W        W21362   6.919  36.572   1.388
49747W        W21363   0.523  35.490   3.875
49748W        W21364   8.235  30.229  13.139
49749W        W21365   9.784   3.409  14.948
49750W        W21366  17.800  23.183  14.736
49751W        W21367  10.774   9.295  12.501
49752W        W21368   7.682  33.002  13.827
49753W        W21369  28.273  20.099   4.018
49754W        W21370  21.066   7.251  13.958
49755W        W21371  22.217  29.330   1.453
49756W        W21372  42.992  19.634   0.788
49757W        W21373  38.940  34.853  11.925
49758W        W21374  16.150  36.993  13.174
49759W        W21375  25.130  19.805   0.460
49760W        W21376   4.405   8.581  13.390
49761W        W21377  15.905  20.911   4.288
49762W        W21378  17.564  22.533   4.693
49763W        W21379  28.433  31.182  11.997
49764W        W21380  15.606  34.867   1.806
49765W        W21381  17.030  21.878  14.753
49766W        W21382   3.972   8.922  11.100
49767W        W21383  38.823  34.460   0.817
49768W        W21384  39.009   7.314   1.309
49769W        W21385  18.186  28.902   2.319
49770W        W21386  15.057  22.050  13.853
49771W        W21387  41.922  37.653   9.868
49772W        W21388  16.797  10.605   2.800
49773W        W21389  36.860  44.666   3.694
49774W        W21390   9.592   2.851  11.544
49775W        W21391   2.889   3.892  14.092
49776W        W21392   6.281  30.287   1.557
49777W        W21393   9.104   3.546   4.227
49778W        W21394  25.748  20.686  14.499
49779W        W21395  10.282   7.259  12.624
49780W        W21396  43.671  14.557   4.142
49781W        W21397  21.606  27.626   1.907
49782W        W21398  17.292   7.762   2.155
49783W        W21399  44.833   0.197  13.813
49784W        W21400  28.689  26.406   1.831
49785W        W21401  23.916  38.183  14.635
49786W        W21402  27.618  34.753   0.319
49787W        W21403  32.601  20.886   2.523
49788W        W21404   1.207   2.304  10.673
49789W        W21405  38.670  21.989  12.097
49790W        W21406  22.436  23.113  10.059
49791W        W21407   5.260  35.846  12.706
49792W        W21408   4.360  31.877  10.950
49793W        W21409  40.748  32.681  11.265
49794W        W21410  35.956  10.989  14.652
49795W        W21411  41.522  16.113  12.481
49796W        W21412  18.780  40.390  12.581
49797W        W21413  31.468  26.241   1.681
49798W        W21414  29.889  42.782   0.402
49799W        W21415  21.693  24.163   4.574
49800W        W21416  20.736  38.456  11.656
49801W        W21417  31.427  38.739   0.635
49802W        W21418  30.837  21.036   1.604
49803W        W21419  14.205  41.090  13.886
49804W        W21420  14.343   3.779   3.835
49805W        W21421  38.513  19.480   2.657
49806W        W21422   6.426  23.887   2.743
49807W        W21423  37.514  13.712   2.610
49808W        W21424  14.841  14.672   1.519
49809W        W21425   8.669  31.617   3.460
49810W        W21426  31.781   1.210   0.989
49811W        W21427   2.258   0.019  11.077
49812W        W21428  27.486  26.829   2.263
49813W        W21429  14.457  42.021   4.171
49814W        W21430  36.439   2.348   0.295
49815W        W21431   5.274  12.165   3.194
49816W        W21432  25.351  44.013   2.147
49817W        W21433  31.594  13.306   4.512
49818W        W21434  35.216  37.475  10.341
49819W        W21435  31.483  38.582   2.322
49820W        W21436  16.718   7.049   1.893
49821W        W21437   0.391  15.964  12.340
49822W        W21438  11.269  44.908   0.553
49823W        W21439   9.257  21.800  12.789
49824W        W21440  21.582  25.248  13.400
49825W        W21441  11.119  41.612  14.865
49826W        W21442  12.191  33.128  11.922
49827W        W21443  12.856   2.949  14.983
49828W        W21444  17.869  11.619  14.267
49829W        W21445  42.093  21.666   4.411
49830W        W21446  25.868  21.827   1.951
49831W        W21447   7.358  42.495   1.699
49832W        W21448  19.171  23.707  11.625
49833W        W21449  41.344  42.507  11.472
49834W        W21450  29.859  21.093   1.493
49835W        W21451  24.277  23.655   4.923
49836W        W21452  41.907  44.050  10.254
49837W        W21453  27.963  31.021   0.297
49838W        W21454  31.562  39.607  12.498
49839W        W21455  38.336  35.539  12.341
49840W        W21456   7.288  21.242   0.543
49841W        W21457  31.408   8.189   0.558
49842W        W21458  25.980  13.303  12.906
49843W        W21459   6.249  36.244  12.728
49844W        W21460  44.019  30.487   0.916
49845W        W21461   4.838  35.142   0.375
49846W        W21462  22.631  31.005   4.496
49847W        W21463  23.696   7.674   4.173
49848W        W21464  25.988   4.459  14.049
49849W        W21465  21.855  38.391   4.137
49850W        W21466  44.488   1.281  14.040
49851W        W21467  33.633  16.395  10.069
49852W        W21468  32.334  10.152  11.110
49853W        W21469   9.892  18.232   1.979
49854W        W21470   4.061  30.655   2.366
49855W        W21471  35.328  33.084   2.243
49856W        W21472  15.185   4.406   1.943
49857W        W21473   2.514   6.287   0.966
49858W        W21474  20.982  21.323   4.048
49859W        W21475  26.778  13.652   4.964
49860W        W21476  23.518  11.825  13.265
49861W        W21477   1.357  34.372  10.581
49862W        W21478  20.593  41.741   4.687
49863W        W21479  25.683  27.162   3.924
49864W        W21480  18.574  24.660   2.757
49865W        W21481  40.016  11.555   0.667
49866W        W21482  32.946  44.489   5.498
49867W        W21483  27.656  43.338  12.047
49868W        W21484   2.390  30.517  10.610
49869W        W21485   8.486  19.229  13.836
49870W        W21486  12.457   0.958   0.343
49871W        W21487  28.306   5.858  14.031
49872W        W21488  32.571  33.865  12.359
49873W        W21489  12.069  40.432   4.272
49874W        W21490  32.140  39.791  10.312
49875W        W21491  34.338  40.822  11.555
49876W        W21492  25.219  12.605   3.501
49877W        W21493  44.991  26.172  14.419
49878W        W21494  40.501  12.982  13.330
49879W        W21495  23.057  15.447  14.144
49880W        W21496  24.661  12.880   2.342
49881W        W21497   3.187  12.579  11.130
49882W        W21498  44.341  38.834   2.834
49883W        W21499   3.342  34.164  14.946
49884W        W21500  36.970  43.592  11.147
49885W        W21501  38.621  34.843  12.580
49886W        W21502  36.070  18.056  11.758
49887W        W21503   5.904  32.896  12.932
49888W        W21504   8.372  42.406   0.881
49889W        W21505  12.744  33.866   0.961
49890W        W21506   4.870  42.827  13.524
49891W        W21507  44.228  17.772   3.337
49892W        W21508  14.216  30.921  10.109
49893W        W21509  39.066  35.452  11.067
49894W        W21510  18.075  37.809  11.111
49895W        W21511  17.684  32.210   1.245
49896W        W21512  33.464   7.208  11.497
49897W        W21513  30.895  30.399   2.299
49898W        W21514  27.578  37.034   2.372
49899W        W21515  38.841  25.893   1.662
49900W        W21516  10.555   7.493   0.295
49901W        W21517  42.956  16.415   0.896
49902W        W21518  41.552   8.238   3.652
49903W        W21519  28.527   1.018  13.488
49904W        W21520  25.225  41.811  12.314
49905W        W21521  39.168  30.099   0.276
49906W        W21522  40.526   2.191  11.006
49907W        W21523  19.247   8.366  11.512
49908W        W21524  27.002  41.520  11.145
49909W        W21525  27.989  18.066  13.052
49910W        W21526  20.140  25.520  13.049
49911W        W21527  18.180   9.263   4.037
49912W        W21528   0.408  34.828   1.537
49913W        W21529  30.430  15.595  11.935
49914W        W21530  28.789  38.208  13.461
49915W        W21531  34.153  37.340  10.804
49916W        W21532  25.741  34.353   4.123
49917W        W21533  31.519  42.951   3.071
49918W        W21534  42.771  35.972   2.734
49919W        W21535  35.682  35.414  13.361
49920W        W21536  28.867  27.812  12.051
49921W        W21537  11.182  16.880   3.581
49922W        W21538  26.844  38.479  11.711
49923W        W21539  41.815  35.440   4.290
49924W        W21540  42.738  33.036  14.170
49925W        W21541  23.292   9.725  11.759
49926W        W21542  31.647  18.173  14.398
49927W        W21543  10.618  32.018  10.421
49928W        W21544   3.048   5.297  11.431
49929W        W21545  41.500  40.353  11.558
49930W        W21546   8.941  20.140   4.446
49931W        W21547  24.095  17.414  13.934
49932W        W21548   0.227  27.082  10.594
49933W        W21549  22.992  30.269   4.268
49934W        W21550  44.462   9.785  10.069
49935W        W21551   0.277  43.526   1.725
49936W        W21552  17.509  41.549   1.908
49937W        W21553  17.635  36.326  11.541
49938W        W21554  28.080  40.313  11.139
49939W        W21555  31.729  41.221  11.254
49940W        W21556  30.752   1.683   0.643
49941W        W21557  43.838  37.802  13.383
49942W        W21558   6.948  31.317  12.141
49943W        W21559  34.646   9.243  10.173
49944W        W21560  13.336  26.817  11.137
49945W        W21561  16.339   7.781   3.222
49946W        W21562   6.197  16.073  13.461
49947W        W21563  39.946   1.001   3.373
49948W        W21564   1.289  43.439  14.021
49949W        W21565  15.363  15.828  12.064
49950W        W21566  37.047  42.796   1.839
49951W        W21567  12.010  23.963   0.756
49952W        W21568  13.798  30.955  12.381
49953W        W21569  16.048  11.042   0.348
49954W        W21570  32.927  40.926   2.248
49955W        W21571  12.206  20.059  11.973
49956W        W21572  29.489  15.625   2.569
49957W        W21573  33.766  10.124  12.976
49958W        W21574  11.784  15.264  14.978
49959W        W21575  44.438  21.482   2.843
49960W        W21576  13.996   0.740   1.876
49961W        W21577  27.653  44.338   1.186
49962W        W21578  35.007   8.872   4.399
49963W        W21579  32.565  42.873  14.590
49964W        W21580  37.404  30.954  14.529
49965W        W21581  10.108  26.195  13.988
49966W        W21582  38.813  16.792  12.610
49967W        W21583  29.595  28.355   2.648
49968W        W21584   3.371   6.817   4.343
49969W        W21585   1.218  19.322   2.236
49970W        W21586  22.161   8.307   0.713
49971W        W21587   1.299   3.724   1.550
49972W        W21588   2.315  32.001  10.091
49973W        W21589   4.883  14.030   4.308
49974W        W21590  16.784  12.827  10.575
49975W        W21591  16.356  27.842  13.642
49976W        W21592  16.792  43.415   0.229
49977W        W21593  11.586  10.436  12.616
49978W        W21594  41.772   1.700  14.689
49979W        W21595  13.318   4.547  10.727
49980W        W21596  21.967  43.849   1.766
49981W        W21597  28.523  43.938   3.712
49982W        W21598  37.362  25.142  13.373
49983W        W21599  32.103  16.802   1.883
49984W        W21600  29.941  36.998  13.886
49985W        W21601  21.251  25.073   4.572
49986W        W21602  23.196   9.691   3.742
49987W        W21603  24.069  22.196   1.887
49988W        W21604  32.597  39.319   2.749
49989W        W21605  26.047  23.462   2.086
49990W        W21606  28.165   3.906   4.552
49991W        W21607  40.908   8.329  13.054
49992W        W21608   2.746  41.979  13.936
49993W        W21609  16.206  24.242  13.433
49994W        W21610  35.062   0.685   0.241
49995W        W21611  38.506  16.480  13.558
49996W        W21612  39.044  43.823  11.576
49997W        W21613   7.204  40.582  13.449
49998W        W21614  30.158  32.212   2.902
49999W        W21615  10.090  11.429   1.249
50000W        W21616  35.154  19.584   3.447
50001W        W21617  30.814   2.439   4.261
50002W        W21618   1.518  16.712  12.014
50003W        W21619  40.864  10.739  10.577
50004W        W21620  30.141   1.486  14.859
50005W        W21621  13.306  23.489   2.750
50006W        W21622  34.022  34.591  12.626
50007W        W21623  38.132  43.291   4.950
50008W        W21624  20.055  25.458  14.471
50009W        W21625   3.973  34.899   2.833
50010W        W21626  18.983  43.470   5.131
50011W        W21627  43.759  19.714   3.339
50012W        W21628   8.662   8.670  11.084
50013W        W21629   1.362  30.355  11.851
50014W        W21630  23.855   0.106  11.590
50015W        W21631   4.614  44.514  14.290
50016W        W21632  22.083  37.820  14.771
50017W        W21633   0.527  40.925  13.025
50018W        W21634   9.044   9.286   5.227
50019W        W21635  27.903  10.256  11.627
50020W        W21636  15.863  44.197   0.365
50021W        W21637  35.519  32.614   2.032
50022W        W21638   8.351  28.210   4.333
50023W        W21639  26.303  27.951  10.381
50024W        W21640   5.573  26.080  14.346
50025W        W21641  39.784   3.819  12.111
50026W        W21642  17.234  15.743  11.619
50027W        W21643  10.226  38.581   0.853
50028W        W21644   0.427  36.545   4.689
50029W        W21645  31.014  40.158   1.301
50030W        W21646  32.004  13.820  12.069
50031W        W21647  43.951  31.413   4.657
50032W        W21648   5.687  14.609   3.693
50033W        W21649  41.097   0.954  10.941
50034W        W21650  10.226  25.945  12.026
50035W        W21651  36.208  40.329   3.315
50036W        W21652  28.486  38.848   3.907
50037W        W21653   3.425  14.733  11.464
50038W        W21654  44.515  16.552   2.824
50039W        W21655  36.441  12.338   2.629
50040W        W21656  20.778  21.227   3.587
50041W        W21657  25.257  21.964  12.962
50042W        W21658  17.077  14.874  13.860
50043W        W21659   5.512   1.731   2.764
50044W        W21660  34.277  36.034   0.375
50045W        W21661   0.841  31.028   3.473
50046W        W21662  20.289  27.121  14.393
50047W        W21663  30.937  27.459   3.781
50048W        W21664  28.157  25.560   1.744
50049W        W21665  38.781  35.585  14.542
50050W        W21666   2.292  32.697  13.876
50051W        W21667  28.753  18.219  14.924
50052W        W21668  12.976  35.874   5.023
50053W        W21669  21.064  39.805  14.419
50054W        W21670  29.687  24.052  14.866
50055W        W21671  25.749  44.885   4.521
50056W        W21672  33.065  14.696   0.960
50057W        W21673   7.428   9.885  11.497
50058W        W21674   8.017  30.948   2.109
50059W        W21675  19.185  40.157   0.692
50060W        W21676  35.497   0.403  14.936
50061W        W21677   9.263  24.121   1.852
50062W        W21678  40.842  24.056  13.542
50063W        W21679  36.620  38.224   0.878
50064W        W21680   3.481   5.845  11.982
50065W        W21681   9.181  28.911  10.827
50066W        W21682  33.227  22.567  14.432
50067W        W21683  20.802  40.446  12.620
50068W        W21684  29.207  32.102  14.725
50069W        W21685  11.566   4.855  10.267
50070W        W21686   6.587   9.249   4.866
50071W        W21687  26.897   8.316  14.956
50072W        W21688   6.235   7.992   0.484
50073W        W21689  18.988  21.586  13.878
50074W        W21690  36.046  44.378   0.319
50075W        W21691  15.631  13.706  11.188
50076W        W21692   6.885   4.446   3.118
50077W        W21693  24.709  29.445  14.255
50078W        W21694  20.707  37.464  12.073
50079W        W21695  18.782  41.901   2.652
50080W        W21696  21.041  16.765   4.776
50081W        W21697  25.706  28.991  14.862
50082W        W21698  36.451  24.922   1.932
50083W        W21699  18.062  19.804  12.054
50084W        W21700   6.360  42.111   3.868
50085W        W21701  10.835  20.212  11.247
50086W        W21702   9.415  17.694  10.665
50087W        W21703  29.924  32.420   1.403
50088W        W21704   9.287   8.773   5.295
50089W        W21705  44.747  32.679  12.162
50090W        W21706  32.040  32.595   1.130
50091W        W21707  32.896  21.514  13.527
50092W        W21708  11.917  31.630  11.482
50093W        W21709  24.597   4.773  10.660
50094W        W21710  43.124  25.834   0.993
50095W        W21711  22.507   0.464  10.170
50096W        W21712   6.785  27.205   2.624
50097W        W21713  20.105  33.991  14.939
50098W        W21714  25.233  24.546   0.196
50099W        W21715  34.274  43.526  11.897
50100W        W21716  30.910  40.077  14.421
50101W        W21717  21.920  11.250   0.900
50102W        W21718  41.900  37.863  14.487
50103W        W21719  38.587  38.368   4.148
50104W        W21720  36.902  40.318   4.670
50105W        W21721  41.615  26.116   4.333
50106W        W21722  21.738  29.031   4.760
50107W        W21723  27.244  13.751  11.290
50108W        W21724  17.880  38.847  10.935
50109W        W21725  21.242   7.329  11.647
50110W        W21726  26.502  14.684  14.248
50111W        W21727  25.693   0.223  13.971
50112W        W21728   2.409  13.772  10.510
50113W        W21729  22.709  10.128  10.750
50114W        W21730   8.104   7.555  14.244
50115W        W21731  36.151  14.036   0.560
50116W        W21732  11.267  17.339   3.359
50117W        W21733  31.461  27.426  14.930
50118W        W21734  21.003   4.958   2.721
50119W        W21735  14.122  37.240  13.931
50120W        W21736  16.007  12.498   0.282
50121W        W21737  40.133  17.768   4.226
50122W        W21738  18.536  15.809  14.959
50123W        W21739   9.819  32.485  14.762
50124W        W21740  42.671  16.628  10.988
50125W        W21741  19.605   3.681  13.997
50126W        W21742  42.545  25.368  12.644
50127W        W21743  13.911  39.011  14.358
50128W        W21744  16.706  17.739  13.855
50129W        W21745   3.420  11.105   0.250
50130W        W21746  23.403  35.652  10.782
50131W        W21747  40.191  44.378  11.091
50132W        W21748  35.431   7.517  12.972
50133W        W21749  33.610  25.991   1.037
50134W        W21750   8.683   2.421   2.786
50135W        W21751  20.639  33.495   4.906
50136W        W21752  37.449  29.582   0.225
50137W        W21753  27.131  18.672   0.867
50138W        W21754  43.577  32.983  12.533
50139W        W21755  20.149   8.740  13.984
50140W        W21756  34.870   9.692   3.843
50141W        W21757  27.218  34.767   1.461
50142W        W21758  26.194   5.932  11.727
50143W        W21759   4.913  27.011   2.812
50144W        W21760   2.528  14.090   5.083
50145W        W21761  13.804   7.789  13.256
50146W        W21762  25.793  10.084   0.325
50147W        W21763  20.259  40.758   1.745
50148W        W21764  20.543  41.748   2.361
50149W        W21765  30.466  10.714   4.919
50150W        W21766  41.382  38.868  11.428
50151W        W21767  38.292   2.963   2.637
50152W        W21768  37.587   2.897  10.671
50153W        W21769  15.788  20.865   3.292
50154W        W21770  19.113  36.508  14.397
50155W        W21771  38.386  43.854  13.861
50156W        W21772  18.616  33.353  11.587
50157W        W21773  16.685  23.048   2.166
50158W        W21774  14.893  13.867   3.620
50159W        W21775  43.633  33.043   4.151
50160W        W21776   8.765  38.913   3.645
50161W        W21777  26.021   3.404  13.780
50162W        W21778  28.040   1.418   1.261
50163W        W21779  15.290  21.971   0.865
50164W        W21780  27.966  34.013   4.341
50165W        W21781  29.528  20.041   3.159
50166W        W21782  10.595  10.865   3.845
50167W        W21783   2.139  36.165  12.889
50168W        W21784   1.683  10.425   1.747
50169W        W21785  31.045  32.708   2.843
50170W        W21786  29.990  19.137  12.673
50171W        W21787   8.834  14.842  10.726
50172W        W21788  39.030   4.273   0.730
50173W        W21789  17.367  15.676  12.128
50174W        W21790   7.943  35.347   3.183
50175W        W21791   3.723  36.343   0.700
50176W        W21792   3.344  19.608   3.666
50177W        W21793  40.294  40.059  12.043
50178W        W21794   8.373  35.155   0.335
50179W        W21795  26.943  38.821  14.381
50180W        W21796  38.065  25.515  10.612
50181W        W21797  28.169   7.422  11.507
50182W        W21798  12.412  42.271   4.589
50183W        W21799  27.007  40.971  11.136
50184W        W21800   5.520   9.222  11.898
50185W        W21801  12.864  14.122  11.431
50186W        W21802   4.121  28.453   0.347
50187W        W21803  43.984   5.756   2.319
50188W        W21804  34.141   6.543   0.114
50189W        W21805   8.978  25.147  10.627
50190W        W21806  43.745  21.608   1.805
50191W        W21807  32.220  24.510  12.511
50192W        W21808  13.118  30.974  11.438
50193W        W21809  33.593  26.197  11.727
50194W        W21810  22.964  24.797   4.036
50195W        W21811  23.602  33.083  10.597
50196W        W21812  19.910  21.425  10.353
50197W        W21813  10.624  33.380   1.351
50198W        W21814   8.961   6.952   2.694
50199W        W21815  32.759  33.324   4.365
50200W        W21816  10.704  36.564  10.711
50201W        W21817  15.886  41.586  12.726
50202W        W21818  19.650  26.621   3.082
50203W        W21819   8.066  34.231   2.303
50204W        W21820  11.855  40.718  12.076
50205W        W21821  19.163  22.088   1.854
50206W        W21822  31.400  11.575   2.190
50207W        W21823  10.765  10.935   0.288
50208W        W21824   8.594  20.110  13.410
50209W        W21825  40.350  28.789  14.925
50210W        W21826  11.123   3.944  12.556
50211W        W21827   4.704  41.094  11.104
50212W        W21828  35.764  40.036   3.363
50213W        W21829   4.315  35.956   1.923
50214W        W21830  24.017  22.544  11.115
50215W        W21831  34.037  14.718   3.666
50216W        W21832  36.319  21.967  10.810
50217W        W21833  43.382  21.611   3.194
50218W        W21834   8.812   2.742  14.550
50219W        W21835  28.376  11.843   3.592
50220W        W21836  22.077   3.708  14.825
50221W        W21837   0.031  14.301  13.445
50222W        W21838  24.166  28.039   3.706
50223W        W21839  19.695  16.978   1.848
50224W        W21840  38.520  31.469   4.060
50225W        W21841  22.617  28.224  11.610
50226W        W21842  42.101  19.260   2.602
50227W        W21843  24.655  26.608   4.131
50228W        W21844  34.735  14.615  10.009
50229W        W21845  10.906   7.721   2.979
50230W        W21846   9.314  33.043  14.305
50231W        W21847   7.906  13.629   2.416
50232W        W21848  41.874  41.736   3.593
50233W        W21849  11.187   7.176  13.457
50234W        W21850   7.563  37.578  12.010
50235W        W21851  30.531  19.652   3.681
50236W        W21852   3.298   8.361   3.767
50237W        W21853  28.995  39.038   2.169
50238W        W21854   5.896  18.260  11.549
50239W        W21855   9.290  23.547   0.033
50240W        W21856  42.657   4.915  14.839
50241W        W21857  17.588  36.330   4.857
50242W        W21858  35.180   0.111   2.365
50243W        W21859  20.017  14.699  13.955
50244W        W21860   7.081  44.232   1.589
50245W        W21861   1.599  26.048   4.071
50246W        W21862  33.947   6.240  14.043
50247W        W21863  13.268  13.820  11.641
50248W        W21864  40.005  37.420   2.729
50249W        W21865   6.781  44.196  13.782
50250W        W21866  30.116  36.501  12.090
50251W        W21867  23.984  32.841   4.690
50252W        W21868  12.365  19.244   0.848
50253W        W21869   0.282  29.255  13.563
50254W        W21870   1.011  25.081  11.453
50255W        W21871   4.019  35.638   1.318
50256W        W21872  25.120   4.368   2.405
50257W        W21873  19.806  44.255  11.653
50258W        W21874  38.353   3.405   4.145
50259W        W21875  15.338  32.577  11.111
50260W        W21876  35.602   2.282   3.648
50261W        W21877  32.067  44.989   4.618
50262W        W21878  39.258  39.739  13.834
50263W        W21879  13.236  10.348  14.757
50264W        W21880  37.793  28.692   0.123
50265W        W21881  15.661  28.457   0.150
50266W        W21882   1.447  17.635  11.969
50267W        W21883  34.142  40.371  14.480
50268W        W21884  39.899  14.315   3.361
50269W        W21885   9.268  37.027  11.921
50270W        W21886  41.987  15.368   0.737
50271W        W21887   7.459   2.981   3.594
50272W        W21888  23.455  11.500  11.548
50273W        W21889  13.076  12.131  13.246
50274W        W21890  24.534  15.286   1.416
50275W        W21891  31.950  29.138  13.291
50276W        W21892  32.894  34.868   1.785
50277W        W21893  37.930   8.373  13.026
50278W        W21894  44.809  24.908   2.724
50279W        W21895  38.352  34.914  13.858
50280W        W21896  26.499  30.688  11.053
50281W        W21897  40.104  26.936  14.910
50282W        W21898  11.328  25.453   4.117
50283W        W21899  29.419  15.636   4.200
50284W        W21900   3.771  20.519   0.417
50285W        W21901   4.367  33.542  13.957
50286W        W21902  12.165  25.128   3.267
50287W        W21903  17.158   0.345  10.516
50288W        W21904  25.503  18.193  12.508
50289W        W21905  41.152  21.244  12.504
50290W        W21906   4.195  41.542  11.653
50291W        W21907  22.598  26.225   2.946
50292W        W21908  18.155  16.004   0.319
50293W        W21909  16.136  23.302   4.260
50294W        W21910  44.957  13.706   0.514
50295W        W21911  29.665  33.548  13.765
50296W        W21912  43.726  23.031   3.187
50297W        W21913  40.602  39.766  13.868
50298W        W21914  33.158  22.261  13.107
50299W        W21915  42.542  21.768  12.815
50300W        W21916   8.830   0.040  13.033
50301W        W21917   5.936   5.279   3.737
50302W        W21918  26.656   4.683   9.958
50303W        W21919  19.958  30.629   2.217
50304W        W21920  44.643   1.698   1.312
50305W        W21921  14.070   8.840  13.471
50306W        W21922  35.041  20.060   1.222
50307W        W21923  16.699  20.674   3.800
50308W        W21924   4.398   4.247   0.227
50309W        W21925  17.973   7.272  11.033
50310W        W21926  33.984  12.569   1.225
50311W        W21927  18.058  19.987   4.192
50312W        W21928  24.759  42.982   3.625
50313W        W21929  10.833   8.753  13.855
50314W        W21930  38.354  25.493   2.807
50315W        W21931  12.456  11.497   4.791
50316W        W21932  15.753  30.708  10.810
50317W        W21933  39.010   8.395   4.680
50318W        W21934   5.309  25.823  14.703
50319W        W21935   4.325  37.308   3.682
50320W        W21936  11.202  38.108   1.655
50321W        W21937   4.409  31.390   4.187
50322W        W21938   8.679   5.825  14.970
50323W        W21939  30.621  31.670  10.894
50324W        W21940  16.223  27.145  14.438
50325W        W21941  43.004  25.487   4.166
50326W        W21942  28.532   1.784  11.160
50327W        W21943  25.633   6.980  12.445
50328W        W21944  19.391  30.126   0.985
50329W        W21945  33.293  40.793   2.585
50330W        W21946  11.350  29.323   2.452
50331W        W21947   3.955  21.402  11.602
50332W        W21948  32.586  16.848  13.819
50333W        W21949  26.192   3.983   1.851
50334W        W21950  17.138  38.853   0.794
50335W        W21951  15.292  24.950   0.680
50336W        W21952  43.045  39.859  12.503
50337W        W21953  10.823   6.841   3.635
50338W        W21954  16.904  42.862  11.103
50339W        W21955  38.964  17.313   2.452
50340W        W21956   2.961  40.766  11.661
50341W        W21957   7.357  33.159  14.331
50342W        W21958  21.780  17.190  14.502
50343W        W21959  14.097   6.163  10.566
50344W        W21960  12.729  26.423  14.218
50345W        W21961  38.538  21.275  11.615
50346W        W21962  38.134  42.408   1.391
50347W        W21963  11.747  12.138   0.833
50348W        W21964  21.548  10.365   4.937
50349W        W21965  28.486  29.060  11.360
50350W        W21966  26.695  24.762   1.833
50351W        W21967  26.456  21.095  14.744
50352W        W21968  22.025  37.540  12.074
50353W        W21969  15.176  13.542   3.276
50354W        W21970  40.833  32.393   3.299
50355W        W21971  40.654  28.433   1.915
50356W        W21972   0.571  25.596   1.619
50357W        W21973  44.314  22.677  14.481
50358W        W21974  33.519  42.451   3.227
50359W        W21975   7.920  17.351   0.755
50360W        W21976  15.917  40.504  10.694
50361W        W21977  29.582  26.480  13.922
50362W        W21978  41.932  27.067   2.294
50363W        W21979  44.416  44.962  13.533
50364W        W21980  14.927  28.898  13.441
50365W        W21981  28.953   8.593   1.323
50366W        W21982  10.025  14.666  13.243
50367W        W21983  11.201  24.750   2.324
50368W        W21984  31.647  30.048  13.835
50369W        W21985   7.353  40.447  10.644
50370W        W21986  29.881  22.010  10.671
50371W        W21987  24.039   9.243   2.716
50372W        W21988  30.142  10.122   2.652
50373W        W21989   9.099   8.698  12.039
50374W        W21990  34.841  24.206  11.218
50375W        W21991  35.365  25.991  12.828
50376W        W21992   1.000   8.866  12.082
50377W        W21993  10.306  14.316   1.299
50378W        W21994  38.226  16.897   0.489
50379W        W21995  41.758  29.066  14.803
50380W        W21996  17.116   9.788   2.667
50381W        W21997  14.683   4.937  12.880
50382W        W21998  13.581  15.822   3.658
50383W        W21999  37.318  15.669   1.970
50384W        W22000  39.792  39.479   3.298
50385W        W22001  12.064  33.176   4.215
50386W        W22002  15.744  37.057  12.442
50387W        W22003   6.502   7.286  12.006
50388W        W22004  24.750   1.953  13.456
50389W        W22005  30.321  20.799   4.935
50390W        W22006  35.065   4.891   2.304
50391W        W22007  43.018   0.531  13.837
50392W        W22008   4.383  42.585  14.705
50393W        W22009   6.756  24.173  13.072
50394W        W22010  36.190  11.839   0.734
50395W        W22011  31.616  12.415   4.363
50396W        W22012   5.788  30.446   2.748
50397W        W22013  19.323   0.249   3.215
50398W        W22014  40.018   6.688  11.627
50399W        W22015  37.520  29.880   4.685
50400W        W22016  11.790  26.640  11.153
50401W        W22017  28.353  24.219  11.927
50402W        W22018  36.540  39.995  12.982
50403W        W22019   7.130  15.388  11.396
50404W        W22020  20.079  11.153   0.523
50405W        W22021  29.021  20.145  14.220
50406W        W22022  10.615  33.897   1.391
50407W        W22023  30.794  40.975   5.176
50408W        W22024  18.348  21.053  12.501
50409W        W22025  11.371  26.933  11.163
50410W        W22026  42.431   3.428  14.864
50411W        W22027   5.723  35.277  11.552
50412W        W22028  44.906  11.539  11.105
50413W        W22029  36.966  26.054  13.577
50414W        W22030  28.404   7.676  11.119
50415W        W22031   1.389  23.190   4.304
50416W        W22032   2.106  16.740   2.398
50417W        W22033  36.118  15.805   4.619
50418W        W22034  32.416   6.832   4.769
50419W        W22035  30.841   9.811   2.429
50420W        W22036  40.497   7.916  13.943
50421W        W22037  28.838  40.623  11.565
50422W        W22038   0.606  23.079  14.478
50423W        W22039  37.928  44.685  13.526
50424W        W22040  11.436  34.471  12.550
50425W        W22041  19.803  36.228  13.281
50426W        W22042  19.708  34.202   2.811
50427W        W22043   8.324  21.291   1.412
50428W        W22044  24.531  15.865   2.411
50429W        W22045  25.059  26.678   0.807
50430W        W22046  26.087  22.171   2.756
50431W        W22047  16.768  29.400  12.822
50432W        W22048  14.003  32.802  13.690
50433W        W22049  19.094  16.110   0.297
50434W        W22050  29.063  16.817  12.562
50435W        W22051  23.302  11.241  14.046
50436W        W22052   4.329   8.329  14.255
50437W        W22053  44.520   8.759   4.632
50438W        W22054  40.854   6.099   0.650
50439W        W22055  42.330   2.800  13.840
50440W        W22056  12.701   5.278   4.545
50441W        W22057  14.157  19.844   2.406
50442W        W22058  39.949   4.446   3.592
50443W        W22059   2.554   3.474   0.273
50444W        W22060  11.660  23.724   4.935
50445W        W22061  36.044  12.385  12.470
50446W        W22062  31.024  25.491   1.770
50447W        W22063  39.717  37.971   3.717
50448W        W22064   0.650  41.140  11.027
50449W        W22065   3.251  17.495   2.767
50450W        W22066  35.673  24.710  14.337
50451W        W22067  16.608  35.342   0.751
50452W        W22068  28.019  33.514  14.325
50453W        W22069  44.524  19.512  13.378
50454W        W22070  22.932  18.917   3.175
50455W        W22071  19.127  30.456   0.688
50456W        W22072  44.050  39.874   0.542
50457W        W22073  23.189   8.009  13.933
50458W        W22074  13.744  37.528   4.172
50459W        W22075  19.153  33.919  11.129
50460W        W22076  16.156  37.776  14.821
50461W        W22077  37.915  13.727  13.879
50462W        W22078   7.708  34.556   4.927
50463W        W22079   3.654  28.099   1.201
50464W        W22080  18.652  24.398  12.557
50465W        W22081   7.815   6.723   0.171
50466W        W22082   4.129   5.203   1.951
50467W        W22083  41.530  34.445  14.889
50468W        W22084  24.238  23.033   2.308
50469W        W22085   5.179  26.086   1.592
50470W        W22086  32.867  41.406   3.979
50471W        W22087  28.556  34.756   4.066
50472W        W22088   0.218  15.829   0.542
50473W        W22089   1.725  33.998  12.853
50474W        W22090  23.664   0.426  13.998
50475W        W22091  31.559   4.867  13.820
50476W        W22092  11.200  24.976  10.361
50477W        W22093  28.187  19.270   4.428
50478W        W22094  12.810  26.106   2.478
50479W        W22095  19.545   4.401  10.712
50480W        W22096   6.031   4.956  13.758
50481W        W22097  18.763   8.766   2.380
50482W        W22098  11.813  35.990   0.025
50483W        W22099   3.702   1.457   5.004
50484W        W22100  14.977  30.184  11.053
50485W        W22101   2.004  30.025  10.595
50486W        W22102  42.778   6.749   3.279
50487W        W22103   0.839  30.609  12.215
50488W        W22104  16.058   6.369  12.423
50489W        W22105  41.964  29.374  12.861
50490W        W22106  36.543  10.504   2.175
50491W        W22107   2.370  40.506  10.675
50492W        W22108  29.331  22.237   4.881
50493W        W22109  35.364  29.314  12.163
50494W        W22110   7.141  19.611  13.606
50495W        W22111  22.387  13.406   2.756
50496W        W22112  10.429  32.115  13.023
50497W        W22113  16.816  22.647  11.023
50498W        W22114  28.706  31.574  13.357
50499W        W22115  44.754  11.221  12.450
50500W        W22116  33.650  38.814   3.721
50501W        W22117  40.927  28.870   3.466
50502W        W22118  39.395   0.860  10.950
50503W        W22119   6.359   1.527  13.007
50504W        W22120  41.980  33.921  14.533
50505W        W22121  26.714  34.472   3.958
50506W        W22122  29.603  12.407  12.942
50507W        W22123   4.352  15.303   2.212
50508W        W22124  31.822   7.274   2.194
50509W        W22125  36.154   6.904   0.442
50510W        W22126  39.018  19.311   2.848
50511W        W22127  31.408   8.463  11.133
50512W        W22128  26.032  13.840   0.270
50513W        W22129  22.247  10.050   1.879
50514W        W22130  36.373  23.139   3.833
50515W        W22131  29.953  31.577   0.068
50516W        W22132  37.076   1.655   2.739
50517W        W22133  41.341  18.880   0.852
50518W        W22134  37.399   1.248  11.574
50519W        W22135  15.892  31.177  10.939
50520W        W22136  32.382  10.372  10.645
50521W        W22137  12.680  33.117  13.053
50522W        W22138  42.315   7.229   1.884
50523W        W22139  20.529  38.834   3.835
50524W        W22140  18.691  16.618   4.362
50525W        W22141  26.070  30.975   1.803
50526W        W22142  33.302   4.950   1.978
50527W        W22143  42.472  24.412   4.126
50528W        W22144  12.250  27.654  11.601
50529W        W22145  25.386   6.250  13.462
50530W        W22146  37.296  39.103   3.228
50531W        W22147  24.078   7.377   4.404
50532W        W22148  27.623  38.505   2.369
50533W        W22149  33.895  26.185   2.372
50534W        W22150   9.924  12.337   2.428
50535W        W22151  13.334  38.417  13.355
50536W        W22152  17.964   5.960   3.832
50537W        W22153  42.275  37.300  10.688
50538W        W22154  42.401  37.025  10.265
50539W        W22155  37.397  23.190   1.243
50540W        W22156  43.753   2.339   3.668
50541W        W22157  32.167  17.285   4.902
50542W        W22158   7.726  21.935   4.203
50543W        W22159  40.256   1.229  12.486
50544W        W22160  39.786  23.176   0.336
50545W        W22161  33.136  40.621   1.903
50546W        W22162  22.967   3.411  14.908
50547W        W22163  13.340  40.812   4.197
50548W        W22164   5.726  20.140   0.788
50549W        W22165   4.844  41.596  12.131
50550W        W22166   4.866  27.926   4.499
50551W        W22167  41.933  41.300  12.897
50552W        W22168  27.107   7.699   0.829
50553W        W22169   6.103  21.227   2.337
50554W        W22170  10.691  35.874  12.823
50555W        W22171  30.069  29.101   2.313
50556W        W22172   6.393  20.599  11.994
50557W        W22173  42.953  13.239   4.885
50558W        W22174  27.458  39.568   1.818
50559W        W22175  18.335  42.933  14.351
50560W        W22176   4.388   5.369   2.375
50561W        W22177   7.692  32.126   4.063
50562W        W22178  34.645   3.174  13.569
50563W        W22179  34.108  10.329  11.103
50564W        W22180  13.606   5.895  11.321
50565W        W22181  40.538  31.011  12.997
50566W        W22182  16.807  16.258  10.360
50567W        W22183  13.829   7.254  11.808
50568W        W22184  12.223  43.694  11.262
50569W        W22185  27.598  38.040   1.426
50570W        W22186  33.091  25.915  11.612
50571W        W22187   3.641  23.408  11.135
50572W        W22188   9.182  43.039   0.219
50573W        W22189  42.951   1.697  11.651
50574W        W22190  41.660  21.178  12.479
50575W        W22191  16.289  10.406  12.083
50576W        W22192  20.506  25.306   2.623
50577W        W22193  30.924  24.301  11.183
50578W        W22194  25.531  22.057   3.623
50579W        W22195  33.580  29.173   0.429
50580W        W22196  39.083  23.123  14.802
50581W        W22197  36.511  22.579  10.191
50582W        W22198   5.189  23.974  12.409
50583W        W22199  26.219  32.038  11.907
50584W        W22200  13.866  43.251  11.964
50585W        W22201  28.976  28.485  11.630
50586W        W22202  20.998  25.583   4.497
50587W        W22203  36.262  11.283  12.426
50588W        W22204   9.244  14.504  12.842
50589W        W22205  26.558  15.855  10.022
50590W        W22206  12.690  30.080  12.426
50591W        W22207  21.396  23.212  12.964
50592W        W22208  20.480   6.457  13.577
50593W        W22209  43.849  32.076   3.187
50594W        W22210  35.959  42.056   2.195
50595W        W22211  37.895  16.889   4.676
50596W        W22212  12.339  27.426   4.210
50597W        W22213  39.396  32.599  11.612
50598W        W22214  26.773   7.767  13.379
50599W        W22215   5.015  26.172  14.909
50600W        W22216   0.752  39.136   5.138
50601W        W22217   6.161  20.225  11.644
50602W        W22218  36.122  19.847   0.880
50603W        W22219  33.063   9.895  13.508
50604W        W22220  17.834  27.699   1.300
50605W        W22221   2.462   7.365   0.976
50606W        W22222  37.514   5.289   4.445
50607W        W22223  42.372  30.380   1.793
50608W        W22224  40.543  43.065   1.459
50609W        W22225  25.642  23.199   3.421
50610W        W22226  22.193  17.379   4.588
50611W        W22227   3.943  37.260  11.331
50612W        W22228   8.122  15.055  11.871
50613W        W22229  19.229  37.403   2.848
50614W        W22230  15.660  40.768  12.518
50615W        W22231  28.374  36.957  12.843
50616W        W22232  21.185  20.488   4.810
50617W        W22233  32.496  27.884   5.282
50618W        W22234   5.966  18.271  10.741
50619W        W22235  34.722  40.154  12.624
50620W        W22236  31.621  33.048  12.112
50621W        W22237  41.438   4.353   0.740
50622W        W22238   3.646   3.747  12.194
50623W        W22239  18.738  43.967   4.477
50624W        W22240  11.119  12.142  13.778
50625W        W22241  18.785  18.250  10.940
50626W        W22242  29.558   0.400  11.612
50627W        W22243  11.380  41.185   1.497
50628W        W22244  14.172  12.216  12.593
50629W        W22245  30.893   3.001   0.676
50630W        W22246  26.234  27.294   5.022
50631W        W22247  23.500  19.055   0.393
50632W        W22248  18.003  44.790   0.910
50633W        W22249   9.844   4.968   3.682
50634W        W22250  39.268  41.963  11.884
50635W        W22251  43.433  37.779   3.256
50636W        W22252   1.997  33.508   0.833
50637W        W22253  32.901  38.282  10.676
50638W        W22254  44.367  29.237   1.288
50639W        W22255   0.107  43.517   3.711
50640W        W22256  34.502   9.875  12.958
50641W        W22257  14.889  20.509   3.483
50642W        W22258  42.964   4.718   1.201
50643W        W22259  39.978  29.828   3.695
50644W        W22260  17.230   1.879  11.649
50645W        W22261   2.284   0.384   4.056
50646W        W22262   9.102  14.836   1.228
50647W        W22263   3.865  14.465   4.593
50648W        W22264  25.192   2.776   3.398
50649W        W22265   3.849  34.047   4.415
50650W        W22266  20.516  12.217  13.053
50651W        W22267  18.379  27.998   3.143
50652W        W22268  42.033  36.650   3.727
50653W        W22269  29.369   1.959   2.788
50654W        W22270  44.840  23.806  11.113
50655W        W22271   3.012  21.695  14.922
50656W        W22272  36.509   3.929  14.273
50657W        W22273  34.811   0.718   3.045
50658W        W22274  31.635  33.400  11.563
50659W        W22275  42.335  32.359   1.251
50660W        W22276   8.835   7.330   3.405
50661W        W22277   4.775  18.329   0.407
50662W        W22278  38.066  20.834  13.376
50663W        W22279   1.843   5.966  13.170
50664W        W22280   7.632  28.668   4.158
50665W        W22281  29.187   0.912   4.133
50666W        W22282  40.533  31.877  11.040
50667W        W22283   4.021   1.957  14.963
50668W        W22284  14.831  12.196  11.996
50669W        W22285   6.306   4.897   1.004
50670W        W22286  23.140   6.419   4.959
50671W        W22287  22.257  25.032   3.058
50672W        W22288  40.587  10.275   0.803
50673W        W22289  27.214  19.454   1.396
50674W        W22290   8.378  41.454   2.216
50675W        W22291  39.857  42.719  12.951
50676W        W22292  19.531  18.696  13.557
50677W        W22293  30.859  36.470   2.626
50678W        W22294  16.823  16.085   3.293
50679W        W22295  33.576   3.265  11.564
50680W        W22296  37.413   8.723  12.218
50681W        W22297  36.879  44.840   1.952
50682W        W22298  16.801  15.046   2.692
50683W        W22299  30.153  43.081  14.374
50684W        W22300  16.967  43.275  13.255
50685W        W22301  38.784  17.261  12.858
50686W        W22302  16.181  20.262   0.842
50687W        W22303  33.528  13.655  10.659
50688W        W22304  38.639  13.817  11.134
50689W        W22305   2.700  14.548   1.411
50690W        W22306   0.110  33.259   4.562
50691W        W22307   9.136   1.559  12.504
50692W        W22308  21.732  22.099   1.904
50693W        W22309  35.545  41.381  12.440
50694W        W22310  13.901  25.590  10.640
50695W        W22311  11.872  33.678   4.229
50696W        W22312   3.915   8.502   5.021
50697W        W22313   5.475  44.066   0.625
50698W        W22314   1.093  21.129  13.488
50699W        W22315  18.745  29.993  14.563
50700W        W22316  14.928  44.451  11.473
50701W        W22317  44.755  25.845  12.526
50702W        W22318  26.441  15.538  13.469
50703W        W22319  23.507  20.972  10.985
50704W        W22320  25.077  24.181   2.369
50705W        W22321  32.960  29.590   1.454
50706W        W22322  31.714  25.655   2.388
50707W        W22323   2.525  38.811  12.805
50708W        W22324  29.954  44.159   4.723
50709W        W22325  25.585  35.372   2.203
50710W        W22326   5.478   7.782  13.533
50711W        W22327   9.449  12.217   2.694
50712W        W22328  28.888  43.336  10.629
50713W        W22329  40.103  40.729  11.484
50714W        W22330  18.953  26.227   2.158
50715W        W22331  40.791  35.011   1.699
50716W        W22332  31.700  37.019  13.401
50717W        W22333  18.366  34.950   3.811
50718W        W22334  30.081   5.948   4.119
50719W        W22335  35.755  17.097   1.929
50720W        W22336  26.070  17.809  14.330
50721W        W22337  38.738  42.974   1.346
50722W        W22338   5.573  28.145   4.855
50723W        W22339  29.366  44.879  11.226
50724W        W22340  25.803   9.698  14.445
50725W        W22341  38.018  41.237  10.976
50726W        W22342  36.153  24.121   2.368
50727W        W22343  40.036  38.830  11.499
50728W        W22344  39.167   2.941   3.096
50729W        W22345  42.530  42.931   1.458
50730W        W22346  13.708  32.545  10.662
50731W        W22347  41.118  22.469  12.012
50732W        W22348   2.004  18.407   2.838
50733W        W22349  25.126  26.222  12.035
50734W        W22350  25.512  21.608   3.898
50735W        W22351  17.288  17.507   4.558
50736W        W22352  42.744  30.911   5.141
50737W        W22353  12.724  19.034  13.034
50738W        W22354  29.142  35.637   3.170
50739W        W22355  35.038  18.370   0.091
50740W        W22356   5.886   8.628   3.292
50741W        W22357  33.172  33.426   2.896
50742W        W22358  24.106   6.910   2.238
50743W        W22359  41.360  20.296   1.653
50744W        W22360   8.759  41.596  13.341
50745W        W22361   2.779  16.341   0.426
50746W        W22362  24.036   9.734   3.162
50747W        W22363  35.589  24.317  13.479
50748W        W22364  12.343  16.646  13.878
50749W        W22365   6.309   6.963  11.564
50750W        W22366  31.848  43.086  11.411
50751W        W22367  24.291   5.905  12.491
50752W        W22368  24.033  38.537  14.263
50753W        W22369  16.567  38.884  14.388
50754W        W22370   9.204   1.011  14.735
50755W        W22371  40.830  32.702  14.790
50756W        W22372  38.051  22.995   4.143
50757W        W22373  30.012  26.759   0.416
50758W        W22374   0.498   6.237  12.341
50759W        W22375  24.228  27.718   3.303
50760W        W22376  12.283   0.932  11.671
50761W        W22377  14.299  39.826  13.944
50762W        W22378   9.736   5.412   3.915
50763W        W22379  11.724  27.099   2.950
50764W        W22380  19.075  32.446  10.600
50765W        W22381  12.218  39.947   3.076
50766W        W22382  44.438  11.171   4.201
50767W        W22383  17.007  43.239   1.315
50768W        W22384  17.563  43.930   0.844
50769W        W22385  28.930   9.705   3.494
50770W        W22386  16.867  33.183  14.109
50771W        W22387  19.476  10.040   5.091
50772W        W22388  23.163  25.960   0.538
50773W        W22389  26.429  30.005   3.161
50774W        W22390   1.464  38.551  11.169
50775W        W22391   5.838  44.976   2.719
50776W        W22392  36.575  21.682   3.747
50777W        W22393  22.682  10.857   1.902
50778W        W22394  23.569   1.998  13.429
50779W        W22395  31.644  20.127   0.354
50780W        W22396   4.745  26.928  11.128
50781W        W22397  14.657   0.095  10.796
50782W        W22398  36.134  13.846  13.532
50783W        W22399   3.275  10.700  12.195
50784W        W22400  33.886   4.329   0.181
50785W        W22401  31.600  17.237  10.717
50786W        W22402  22.414  18.907  12.073
50787W        W22403  18.787   2.896   1.890
50788W        W22404  30.659   6.885  12.445
50789W        W22405  30.969   1.425   5.050
50790W        W22406   7.453  40.980  14.350
50791W        W22407  22.198  10.734   3.876
50792W        W22408   7.929  24.037   1.211
50793W        W22409  24.653  33.622  12.507
50794W        W22410  15.167   3.498   4.737
50795W        W22411   5.894  18.991  13.458
50796W        W22412   9.839  41.892   0.301
50797W        W22413  38.784  14.516  11.637
50798W        W22414  20.603  15.646  13.928
50799W        W22415  33.131  10.601   1.075
50800W        W22416  35.532  26.741   0.117
50801W        W22417  24.610  33.537  11.570
50802W        W22418  37.352   0.885   2.408
50803W        W22419  26.349  19.522   4.990
50804W        W22420  15.697  24.553   2.648
50805W        W22421   5.383  23.704   1.486
50806W        W22422  17.133  13.504  13.608
50807W        W22423  16.751  15.131  14.211
50808W        W22424  43.133  10.067  14.235
50809W        W22425  15.004   5.725   1.776
50810W        W22426  16.689   3.825  11.439
50811W        W22427  12.823  38.591   4.076
50812W        W22428  18.069  16.645  14.632
50813W        W22429  31.632  34.010   0.245
50814W        W22430  39.496   2.392   1.782
50815W        W22431  32.589  29.193   0.447
50816W        W22432  24.446   7.227   2.890
50817W        W22433  10.172  32.620   3.703
50818W        W22434  30.445  44.887   2.798
50819W        W22435  11.892  36.016  10.099
50820W        W22436   7.448  43.665  11.121
50821W        W22437  20.183  23.541   4.804
50822W        W22438  20.128  23.861  11.471
50823W        W22439  12.323  26.518   3.365
50824W        W22440   8.258  42.018   3.139
50825W        W22441  42.880   6.240  14.521
50826W        W22442  30.268  20.105   4.275
50827W        W22443  11.585  38.437   2.808
50828W        W22444  10.240  12.193   0.062
50829W        W22445   1.101  41.452  11.097
50830W        W22446  37.581  15.337   4.154
50831W        W22447  40.495  10.915   4.544
50832W        W22448  39.280  38.274   2.331
50833W        W22449  21.717  33.165   0.280
50834W        W22450  37.313  25.618   2.674
50835W        W22451  25.575  11.999  14.253
50836W        W22452  34.097  38.512  11.869
50837W        W22453  26.052  10.351  13.385
50838W        W22454  33.461   0.884  13.568
50839W        W22455  44.198   0.032  11.138
50840W        W22456  15.033  17.772   2.109
50841W        W22457  32.812  35.578   3.798
50842W        W22458   5.751  32.368  11.948
50843W        W22459   5.316  23.237   3.447
50844W        W22460  19.525   0.753   3.237
50845W        W22461  40.085  20.538   0.792
50846W        W22462  42.064  39.962   1.475
50847W        W22463   1.478  31.452   2.446
50848W        W22464  35.926  15.785   2.041
50849W        W22465  40.602   9.121   2.297
50850W        W22466  19.671  34.927   3.614
50851W        W22467   5.803   2.802  13.609
50852W        W22468  35.897  12.078  12.050
50853W        W22469  39.357   5.982  12.550
50854W        W22470  23.047  25.203   2.370
50855W        W22471  19.726  20.628   3.172
50856W        W22472  33.203  34.415  12.284
50857W        W22473  14.070  20.238  13.870
50858W        W22474   9.022   0.352  13.787
50859W        W22475  34.723  42.986   9.709
50860W        W22476  36.421  32.882  10.708
50861W        W22477  12.941  12.219  11.909
50862W        W22478  32.000  34.183  14.432
50863W        W22479  39.460   3.897  13.100
50864W        W22480   8.413  37.077  10.459
50865W        W22481  28.085  24.723   2.382
50866W        W22482   5.882  21.632   4.743
50867W        W22483  13.679  36.556  14.983
50868W        W22484  24.724  42.607  11.184
50869W        W22485  40.273   2.281   3.408
50870W        W22486  36.836  30.890   3.777
50871W        W22487   5.654  34.841  11.864
50872W        W22488  42.789  26.092  11.183
50873W        W22489   2.071  44.468   0.578
50874W        W22490   1.777  38.916  12.436
50875W        W22491   4.843  42.460   4.637
50876W        W22492  30.384   0.544  13.497
50877W        W22493  28.244  12.551   4.655
50878W        W22494  34.082  33.947  13.566
50879W        W22495   8.573  28.247  14.585
50880W        W22496   4.309   9.341   1.788
50881W        W22497  11.462   4.438  14.387
50882W        W22498   0.465   7.898   0.079
50883W        W22499  12.692  39.850  13.172
50884W        W22500  13.688  25.897   0.450
50885W        W22501  11.819   3.024   2.465
50886W        W22502   9.317   8.734   4.722
50887W        W22503  25.688  41.098   2.723
50888W        W22504  13.628   9.844   0.851
50889W        W22505   6.708  36.945   4.209
50890W        W22506  14.058  16.512   0.168
50891W        W22507   8.493  41.818  14.216
50892W        W22508  24.020   3.707   4.508
50893W        W22509   8.756  37.578   0.829
50894W        W22510  27.575  21.650   0.267
50895W        W22511  30.048   1.147   0.564
50896W        W22512  36.193  44.266  11.988
50897W        W22513  13.662  10.701  10.723
50898W        W22514  26.944  20.747   1.668
50899W        W22515  36.807  20.017   3.846
50900W        W22516  37.385  44.745   4.573
50901W        W22517   0.615  12.255  11.104
50902W        W22518  35.336  12.671   1.184
50903W        W22519  34.519  16.386   1.758
50904W        W22520  41.457  22.268  14.039
50905W        W22521  28.989  34.602   0.454
50906W        W22522  21.199  37.371   1.448
50907W        W22523  11.245  35.453  11.052
50908W        W22524  24.444  34.347  14.761
50909W        W22525  42.783  19.255  11.260
50910W        W22526  23.751  28.093   0.754
50911W        W22527   1.009  40.381  14.841
50912W        W22528  36.433  29.384   0.961
50913W        W22529  30.017  13.521   3.618
50914W        W22530  44.461   6.982  12.617
50915W        W22531  34.797  38.980   1.264
50916W        W22532   2.765  15.224   4.609
50917W        W22533  43.790   2.949   4.767
50918W        W22534   0.653  37.416  14.124
50919W        W22535   9.295  37.140  14.985
50920W        W22536  37.054  32.561  14.567
50921W        W22537  19.089  22.921  14.445
50922W        W22538  28.089  19.235  13.630
50923W        W22539   3.501  32.042   0.014
50924W        W22540  29.148  22.260  11.926
50925W        W22541  35.988  28.500  10.744
50926W        W22542   9.677  12.294   0.432
50927W        W22543  15.657  19.315  11.650
50928W        W22544  11.473  44.485   4.819
50929W        W22545  35.557  14.340  11.957
50930W        W22546  29.471  31.926   2.559
50931W        W22547   7.896  20.009  14.578
50932W        W22548  30.946   2.169  10.580
50933W        W22549  15.773  35.841   4.233
50934W        W22550   8.645   6.347  12.175
50935W        W22551  33.548  38.912  14.534
50936W        W22552   7.782  22.115   0.018
50937W        W22553   5.513  24.688  11.439
50938W        W22554  29.925  35.416  13.768
50939W        W22555  31.843  22.207   0.904
50940W        W22556  37.617  44.511  12.036
50941W        W22557  13.366  44.358   4.580
50942W        W22558  21.736  25.962  11.123
50943W        W22559  41.479  32.195   4.886
50944W        W22560   2.090  31.340   1.337
50945W        W22561  14.266  37.728  13.828
50946W        W22562   8.435   0.460  12.446
50947W        W22563  21.364  43.094   2.803
50948W        W22564   9.041  20.147   4.945
50949W        W22565  30.762  41.949  14.941
50950W        W22566   3.149  38.439  14.950
50951W        W22567  28.863  38.991   4.664
50952W        W22568   6.140   4.180   1.741
50953W        W22569  15.989  37.072   2.295
50954W        W22570  10.910   6.545   1.370
50955W        W22571  10.752  40.620   1.084
50956W        W22572  19.995   5.241  12.540
50957W        W22573   1.844  43.561   9.659
50958W        W22574   7.238  33.145  11.122
50959W        W22575  17.237  11.095  13.363
50960W        W22576  36.409  11.625   4.358
50961W        W22577  37.406   2.557   3.596
50962W        W22578   6.583  15.831  14.347
50963W        W22579   3.382  20.188   1.966
50964W        W22580  41.085   7.400   3.462
50965W        W22581  42.543  19.604  14.809
50966W        W22582  17.024  12.480  14.516
50967W        W22583  41.718  30.984   2.255
50968W        W22584  16.812   1.746  10.698
50969W        W22585  37.775  26.132  13.135
50970W        W22586  43.249   1.570  12.084
50971W        W22587  13.164  26.145   3.069
50972W        W22588   5.005  43.962  13.749
50973W        W22589  28.144  24.367   4.732
50974W        W22590  40.135  12.415   4.239
50975W        W22591  35.583   6.411  14.641
50976W        W22592  39.903  12.438   0.469
50977W        W22593  20.137  22.752  10.407
50978W        W22594  10.232  37.190  12.359
50979W        W22595  17.445   5.274  11.524
50980W        W22596   8.950  10.319  11.148
50981W        W22597  43.322  39.245   2.337
50982W        W22598  27.458  27.986   4.646
50983W        W22599  17.589  13.269   1.604
50984W        W22600   1.765  43.768   0.798
50985W        W22601  34.633  38.331  14.011
50986W        W22602   8.374  10.750   4.239
50987W        W22603   3.930  14.563  13.418
50988W        W22604  19.244  41.295   1.746
50989W        W22605  25.606   6.950   1.325
50990W        W22606  18.641  17.585  13.269
50991W        W22607  43.455   5.413  14.856
50992W        W22608  38.706  29.384   0.816
50993W        W22609  35.508  12.855   0.239
50994W        W22610   7.708  11.183   1.761
50995W        W22611   5.915  34.062   1.695
50996W        W22612  31.432  15.215   2.253
50997W        W22613  21.019   6.356  10.659
50998W        W22614  25.170  16.805   0.975
50999W        W22615  13.882  44.301   1.852
51000W        W22616  38.641  15.658   3.784
51001W        W22617   2.857  32.082  10.154
51002W        W22618  10.881  34.475   0.733
51003W        W22619  28.084  29.705   1.342
51004W        W22620  23.992  16.886   4.028
51005W        W22621  21.019  29.979  13.125
51006W        W22622  33.510  29.736  10.771
51007W        W22623   1.833  13.806   1.859
51008W        W22624  20.103  32.591  12.042
51009W        W22625  10.877  14.338  12.513
51010W        W22626  32.973   9.158  12.870
51011W        W22627  24.239  26.067  14.765
51012W        W22628   6.624  18.787   0.771
51013W        W22629  31.038  40.381  12.556
51014W        W22630  29.009  22.122   3.031
51015W        W22631  23.675  12.584   3.583
51016W        W22632  31.621  29.406   1.144
51017W        W22633  31.922  37.556   0.264
51018W        W22634  25.692   9.075   0.184
51019W        W22635  27.469  13.221  11.195
51020W        W22636  20.303  44.351   4.543
51021W        W22637  37.094  40.909   0.829
51022W        W22638   7.242   2.744  14.406
51023W        W22639   2.104  21.221  11.570
51024W        W22640  37.005   3.340   3.401
51025W        W22641   6.216  42.252   0.839
51026W        W22642  18.582  12.083   2.834
51027W        W22643  42.200  11.519   3.098
51028W        W22644  29.250   7.724   5.090
51029W        W22645  25.788  30.784  12.009
51030W        W22646  25.418  41.437   3.638
51031W        W22647  41.472  36.351  14.937
51032W        W22648  36.074  17.276   0.218
51033W        W22649   0.850   2.309   4.600
51034W        W22650  31.204   5.444  13.346
51035W        W22651  37.824  43.249   1.294
51036W        W22652  40.086  35.241   3.412
51037W        W22653  25.056  16.270  14.157
51038W        W22654  33.469  43.962   0.874
51039W        W22655   7.757  27.527  10.867
51040W        W22656  34.263  38.394  12.594
51041W        W22657  21.828  34.400  12.296
51042W        W22658  16.213  27.739  12.917
51043W        W22659   2.936  42.257  11.747
51044W        W22660  29.034  35.944  13.932
51045W        W22661  29.002   4.771   0.810
51046W        W22662  42.741  35.654   4.032
51047W        W22663   1.340  14.107  11.163
51048W        W22664   4.470  34.325  11.474
51049W        W22665  39.528  11.075   4.572
51050W        W22666  13.362  27.676   0.399
51051W        W22667  31.138  37.956  13.433
51052W        W22668   5.854   5.860  12.671
51053W        W22669  24.271  39.294   2.754
51054W        W22670  40.864  25.921   1.704
51055W        W22671  12.768  32.251  10.918
51056W        W22672  19.515  36.416   1.277
51057W        W22673  26.765   1.801  12.996
51058W        W22674  42.474  39.121   0.198
51059W        W22675  16.701  10.833  11.447
51060W        W22676  11.848  23.757   3.265
51061W        W22677   0.311   7.770   3.897
51062W        W22678   7.432   1.230  14.396
51063W        W22679  42.673  33.832  11.563
51064W        W22680  32.096  40.581  14.779
51065W        W22681   2.738   5.890  13.371
51066W        W22682   3.861  14.924   3.638
51067W        W22683  15.229   9.319   1.915
51068W        W22684  18.100  39.994   4.883
51069W        W22685   6.881   4.881  14.762
51070W        W22686   2.705  24.210   4.520
51071W        W22687  29.227  44.351   0.880
51072W        W22688  38.258  25.979   0.796
51073W        W22689  37.809  20.597  13.002
51074W        W22690  36.999  42.778  11.450
51075W        W22691   1.254  19.993  14.530
51076W        W22692  29.848  40.102  14.896
51077W        W22693  37.858  23.604  14.123
51078W        W22694  18.411   5.887   3.621
51079W        W22695  10.053   9.274   4.586
51080W        W22696   0.686  14.215   1.498
51081W        W22697  24.214  26.365  11.355
51082W        W22698  26.853  43.317  13.359
51083W        W22699  25.678  28.525  10.476
51084W        W22700  12.450  15.848  12.945
51085W        W22701  38.529  28.327  12.995
51086W        W22702   2.759  30.260   0.757
51087W        W22703  23.439  16.027  11.990
51088W        W22704   9.387  11.875   0.342
51089W        W22705   5.416   1.906  14.066
51090W        W22706  17.558  22.642  14.328
51091W        W22707  26.649   2.337   0.997
51092W        W22708  12.597  39.683   2.852
51093W        W22709  35.648  28.247   2.326
51094W        W22710  32.487  40.649   4.585
51095W        W22711  11.327  40.331  14.428
51096W        W22712  15.323   4.271  14.415
51097W        W22713  25.232  11.386   2.085
51098W        W22714   2.426  43.452   3.163
51099W        W22715  29.380   0.640   3.720
51100W        W22716  34.957  16.513   0.383
51101W        W22717  25.023   8.985  12.194
51102W        W22718   3.307  38.096  12.053
51103W        W22719  44.301  14.881  12.970
51104W        W22720   9.006  15.959  13.295
51105W        W22721  28.544  19.151  13.897
51106W        W22722  16.804  38.945   1.239
51107W        W22723  42.214  38.062   4.659
51108W        W22724  32.574   6.259   2.369
51109W        W22725   6.944   2.894   0.058
51110W        W22726  11.371  34.872  10.492
51111W        W22727  20.075  12.849   1.680
51112W        W22728  26.509  34.416   3.035
51113W        W22729  14.767  38.800  12.949
51114W        W22730  42.285  33.376  10.697
51115W        W22731  24.378  28.548   3.823
51116W        W22732   8.894  40.572   4.061
51117W        W22733  25.968  44.441  13.037
51118W        W22734  20.142  25.587   2.339
51119W        W22735  19.346  44.405   1.867
51120W        W22736  29.200  43.704  13.127
51121W        W22737   4.828  12.517  13.725
51122W        W22738  22.737  31.121   1.891
51123W        W22739  19.194   9.912  13.168
51124W        W22740  18.253  21.467   0.353
51125W        W22741  43.399   0.551   1.923
51126W        W22742  12.525  24.432  12.867
51127W        W22743  12.461   9.277  11.229
51128W        W22744  30.769  20.663   4.652
51129W        W22745  26.154  33.726  11.528
51130W        W22746  39.043  15.007  11.665
51131W        W22747  26.217  35.301   3.654
51132W        W22748  16.647  17.572  11.599
51133W        W22749  21.126  13.786  12.959
51134W        W22750   7.939  15.122  12.543
51135W        W22751  33.963   4.463   1.430
51136W        W22752  29.942  27.337   3.650
51137W        W22753  39.277  12.256   3.604
51138W        W22754  26.595  11.856  11.528
51139W        W22755   6.311  40.507  13.079
51140W        W22756  27.244  39.103  13.962
51141W        W22757   5.405  11.811  10.603
51142W        W22758  41.745  37.052   1.202
51143W        W22759   5.656  19.684   3.290
51144W        W22760  21.578  32.995  14.178
51145W        W22761  15.859   4.127   5.310
51146W        W22762   5.324  15.762   2.357
51147W        W22763  12.458  37.440   3.636
51148W        W22764   4.126  23.562  11.103
51149W        W22765  29.232  35.297   2.245
51150W        W22766  21.124   1.474  10.718
51151W        W22767  19.783  35.954  13.716
51152W        W22768  17.694  36.006  13.933
51153W        W22769  12.079  35.205  14.973
51154W        W22770  42.612  37.536   3.890
51155W        W22771   8.123  42.997   3.676
51156W        W22772   7.828   5.593   0.399
51157W        W22773   8.211  20.459  13.465
51158W        W22774  43.240   1.706  14.940
51159W        W22775  40.054  26.636   4.685
51160W        W22776   1.291  37.911  12.980
51161W        W22777  32.988   2.720   1.700
51162W        W22778  44.497  40.601  13.048
51163W        W22779  14.627  19.660   0.634
51164W        W22780  31.699  21.027   4.977
51165W        W22781  42.076  38.190  12.885
51166W        W22782  23.516   6.700   3.977
51167W        W22783  44.459  23.233  14.858
51168W        W22784  16.973  25.529  11.067
51169W        W22785   0.792  32.630  14.710
51170W        W22786  39.282  42.412  10.710
51171W        W22787  10.630   6.878   1.051
51172W        W22788  34.025  26.482  11.411
51173W        W22789  35.025   4.865  13.459
51174W        W22790   4.962  15.194   1.858
51175W        W22791  14.828  20.252  12.539
51176W        W22792   0.735  33.269   3.277
51177W        W22793   4.457  35.483  11.900
51178W        W22794  35.531  26.987  12.461
51179W        W22795  39.983  36.152  14.878
51180W        W22796  15.087  37.795   3.283
51181W        W22797   1.160  22.675  12.465
51182W        W22798   9.256  16.637   3.691
51183W        W22799  28.695  36.610   4.105
51184W        W22800   0.861  39.598   1.526
51185W        W22801  39.529  28.351   0.356
51186W        W22802  25.702  10.359  10.708
51187W        W22803  38.600  30.446  10.456
51188W        W22804  21.724  30.985   1.659
51189W        W22805  30.069  42.568  14.462
51190W        W22806  31.406  33.182  13.901
51191W        W22807  21.332  35.709   2.861
51192W        W22808   5.284  44.267   4.381
51193W        W22809  37.756  10.778   9.819
51194W        W22810  13.795  10.843   2.906
51195W        W22811   3.331  34.561  13.296
51196W        W22812  34.449  34.192   2.500
51197W        W22813  25.414  15.696  13.610
51198W        W22814  27.244  19.098  14.729
51199W        W22815  31.569  24.928   0.973
51200W        W22816  36.566  35.056   1.910
51201W        W22817  14.667  29.390   2.854
51202W        W22818  44.452  14.671  11.838
51203W        W22819  27.020  10.141  13.895
51204W        W22820  40.970  11.360   2.180
51205W        W22821   3.856  27.175  11.041
51206W        W22822  28.937  13.524   3.714
51207W        W22823  35.451   2.448  12.085
51208W        W22824  37.636  17.374   2.190
51209W        W22825   5.342   8.585  14.545
51210W        W22826  33.658  34.895   0.343
51211W        W22827   4.812  34.428  11.088
51212W        W22828  32.498   6.395  12.274
51213W        W22829  29.852  32.315  13.849
51214W        W22830  42.808   5.757   3.669
51215W        W22831   0.726  29.183   1.858
51216W        W22832  44.649   0.274  11.079
51217W        W22833  29.605  18.547   1.394
51218W        W22834  29.903  44.895   3.263
51219W        W22835  44.640  32.759  14.429
51220W        W22836  39.309  27.158  11.716
51221W        W22837  44.440   4.603   4.200
51222W        W22838  29.224  17.622  13.409
51223W        W22839   6.454  13.709   1.929
51224W        W22840  15.709   5.702  10.695
51225W        W22841  30.722   8.817  10.615
51226W        W22842  17.350  16.791   0.309
51227W        W22843  35.460  21.061   3.695
51228W        W22844  10.899   1.876  11.130
51229W        W22845   3.778  11.132  14.015
51230W        W22846  14.518   3.938   0.293
51231W        W22847  40.473  18.764   0.915
51232W        W22848   1.728  15.130  11.232
51233W        W22849  25.165  26.627   5.038
51234W        W22850  11.854   9.023   5.124
51235W        W22851  17.373  16.225   4.133
51236W        W22852  10.108  41.992  14.845
51237W        W22853  34.158  37.523   0.382
51238W        W22854  41.019   3.167   1.656
51239W        W22855   3.056  27.846  11.232
51240W        W22856  36.863  42.375   2.591
51241W        W22857   0.856  16.296  14.533
51242W        W22858  29.895  40.391  13.587
51243W        W22859  43.470  21.017  13.818
51244W        W22860  21.011  27.496  13.391
51245W        W22861   0.632  11.632   2.618
51246W        W22862   3.848  17.084  13.324
51247W        W22863  24.471  43.955  13.338
51248W        W22864  28.528  37.988  10.406
51249W        W22865  44.358   2.885   3.096
51250W        W22866  23.583  20.512  10.713
51251W        W22867  28.552  39.810   1.289
51252W        W22868  29.382  39.856  14.858
51253W        W22869  16.386  41.640  13.970
51254W        W22870  37.570  11.181  11.060
51255W        W22871   4.261  29.322  12.551
51256W        W22872  39.104  34.657   4.246
51257W        W22873  44.392  19.128   0.910
51258W        W22874  44.220   7.172   4.124
51259W        W22875  31.817   2.574  13.984
51260W        W22876  20.106  24.382  11.500
51261W        W22877  13.580  37.950   1.558
51262W        W22878  29.629  39.444   3.231
51263W        W22879  20.879  27.687  11.076
51264W        W22880   0.043  24.216  11.394
51265W        W22881  31.671  12.608   2.189
51266W        W22882  24.249  20.233   4.757
51267W        W22883  19.145  13.340  11.975
51268W        W22884  37.206  38.760  12.947
51269W        W22885  30.432  15.251  14.885
51270W        W22886   6.845   5.358  10.756
51271W        W22887   3.268  27.874   2.972
51272W        W22888  27.549  14.232  14.950
51273W        W22889  21.145  44.980  13.008
51274W        W22890  40.022   4.706  11.053
51275W        W22891  16.522  44.730  12.938
51276W        W22892  23.406   7.655   3.734
51277W        W22893  34.543  40.673  14.693
51278W        W22894  11.680  19.131   4.673
51279W        W22895   5.482  15.156  12.968
51280W        W22896  43.220  39.708  12.034
51281W        W22897  33.017   1.902   4.718
51282W        W22898  21.435  42.829  10.711
51283W        W22899   4.761  29.925  14.869
51284W        W22900  14.803   4.333  10.638
51285W        W22901  28.978   7.622   2.471
51286W        W22902  34.565  11.174  13.405
51287W        W22903   7.270  11.008   4.180
51288W        W22904  16.191   8.856   2.680
51289W        W22905   0.563  24.778  11.943
51290W        W22906  38.386  10.415  14.177
51291W        W22907   3.063   6.480   2.933
51292W        W22908  42.626  30.938   3.164
51293W        W22909  42.776   8.372  10.785
51294W        W22910  36.814   5.820  14.394
51295W        W22911  44.063  41.347   1.731
51296W        W22912  24.421  35.182  14.025
51297W        W22913  22.777  38.922  14.474
51298W        W22914  24.490  14.078  11.959
51299W        W22915  31.829  19.273  14.404
51300W        W22916  31.547  32.314  14.465
51301W        W22917  25.526   1.524   0.072
51302W        W22918  10.235  38.800   1.352
51303W        W22919  15.804  14.694   1.252
51304W        W22920  14.551   1.363   4.546
51305W        W22921  33.859   6.356  10.713
51306W        W22922  36.808   3.753  13.885
51307W        W22923  21.887  41.829   2.721
51308W        W22924  41.229  37.442   4.087
51309W        W22925   5.469  24.724  12.537
51310W        W22926   5.298  29.567  14.932
51311W        W22927   1.061  14.555  11.584
51312W        W22928  15.666  39.893   0.550
51313W        W22929  16.802  15.676   4.468
51314W        W22930   8.255  44.349  12.980
51315W        W22931  36.117  38.518   0.568
51316W        W22932  19.236  43.047   1.458
51317W        W22933  29.887  15.766  12.630
51318W        W22934  25.109   2.954   2.314
51319W        W22935  16.300   5.705   0.413
51320W        W22936  28.303  15.535  14.864
51321W        W22937  24.699  26.777  13.028
51322W        W22938   4.549  11.690  13.824
51323W        W22939  44.392   5.133   1.810
51324W        W22940  30.514  32.051  14.544
51325W        W22941  34.963  38.363   4.854
51326W        W22942   1.868  44.744  14.877
51327W        W22943  35.625   7.834  14.485
51328W        W22944  38.772  15.155  10.900
51329W        W22945  40.290   4.470   1.925
51330W        W22946  26.650   4.693  14.477
51331W        W22947  43.810   5.923   1.849
51332W        W22948  36.158  17.578  11.966
51333W        W22949  44.910  17.852  10.644
51334W        W22950  12.037  11.608  11.538
51335W        W22951  38.882   6.786   3.312
51336W        W22952  21.741  14.525  12.552
51337W        W22953  37.821  30.177  14.775
51338W        W22954  24.478  12.253   3.806
51339W        W22955  29.591  14.870   4.624
51340W        W22956  27.171  15.691  12.286
51341W        W22957   8.887  33.865  12.706
51342W        W22958  13.368  31.895   2.744
51343W        W22959   6.672  43.250   4.116
51344W        W22960  36.503  30.018  14.970
51345W        W22961   3.357  23.625   3.913
51346W        W22962   2.856   6.934   1.901
51347W        W22963  34.505   2.477  14.053
51348W        W22964   5.700  20.915   1.394
51349W        W22965  30.890   0.308   1.800
51350W        W22966   0.378  12.648   4.527
51351W        W22967  27.110   0.287  13.981
51352W        W22968   5.416  17.806   0.005
51353W        W22969   8.741  23.528   4.609
51354W        W22970  33.950  17.306   4.226
51355W        W22971  43.353  12.807   1.274
51356W        W22972  22.149  31.435   0.842
51357W        W22973  40.108  30.081  12.429
51358W        W22974  40.226  43.730   0.982
51359W        W22975  42.915  35.841  10.455
51360W        W22976  23.311   0.539  14.379
51361W        W22977  10.263  13.297   2.300
51362W        W22978  10.173   2.245  11.992
51363W        W22979  31.664  27.715  13.703
51364W        W22980  40.526  32.535   0.756
51365W        W22981   1.358  10.428  10.632
51366W        W22982  23.465  12.708  13.829
51367W        W22983  30.126  28.631   2.782
51368W        W22984  18.266  41.123  11.782
51369W        W22985   9.648  21.614   2.909
51370W        W22986  25.905  37.809  14.496
51371W        W22987  38.590  32.096   3.144
51372W        W22988  25.321  23.211  14.051
51373W        W22989  35.590  15.615  10.324
51374W        W22990  43.875  26.512   0.337
51375W        W22991  24.453  12.651  14.150
51376W        W22992  18.846  25.003   1.471
51377W        W22993  40.951  16.556   0.870
51378W        W22994  17.754   3.635  12.335
51379W        W22995  25.751  27.138  13.572
51380W        W22996  29.470  38.405   1.753
51381W        W22997  11.805  17.020   1.769
51382W        W22998  33.144  43.400   4.671
51383W        W22999  34.512  39.107  11.276
51384W        W23000  35.647  32.630  13.392
51385W        W23001   6.863  42.456   5.068
51386W        W23002  23.744   1.797   4.703
51387W        W23003   3.295  38.508  14.441
51388W        W23004   4.959  10.128  10.980
51389W        W23005  35.033  41.778   4.240
51390W        W23006  23.919  10.703  11.465
51391W        W23007   2.192   5.681  12.223
51392W        W23008   7.215  10.884  11.564
51393W        W23009  29.076  28.371   4.762
51394W        W23010  33.623  28.964   2.253
51395W        W23011  27.136   8.068   0.346
51396W        W23012  17.329  21.751  11.092
51397W        W23013   4.454  43.872  12.878
51398W        W23014  24.719  12.069   4.236
51399W        W23015  16.594   5.733   3.699
51400W        W23016  28.557  19.002   1.805
51401W        W23017  19.771  15.070  14.259
51402W        W23018  44.992  35.778  11.094
51403W        W23019  44.481  25.239   3.641
51404W        W23020  15.820  34.379   1.758
51405W        W23021  15.779   2.219  12.395
51406W        W23022  16.086  14.222   1.304
51407W        W23023  38.313  21.567   4.668
51408W        W23024  23.477  26.628   4.119
51409W        W23025  29.152  27.202   1.398
51410W        W23026   7.192   9.463  11.230
51411W        W23027  19.567   2.250   1.543
51412W        W23028  38.735  37.634  10.770
51413W        W23029   8.362   4.827   2.817
51414W        W23030  13.321  40.999  12.970
51415W        W23031  27.607  26.104  11.920
51416W        W23032   2.488  14.788   4.685
51417W        W23033  31.182  20.697   2.848
51418W        W23034   7.742  29.127  11.541
51419W        W23035  24.054  41.747  14.298
51420W        W23036  36.056  29.209   0.274
51421W        W23037  13.858  31.111   4.627
51422W        W23038   6.706  18.337  13.075
51423W        W23039  13.877   0.276   4.554
51424W        W23040  12.596  16.224  13.685
51425W        W23041   6.907  40.108  14.802
51426W        W23042  19.770  36.594  11.772
51427W        W23043  24.074  14.629   4.874
51428W        W23044   6.111  37.201   2.368
51429W        W23045  18.678   9.618  14.000
51430W        W23046  15.857  17.725   2.913
51431W        W23047  12.641  25.500   4.625
51432W        W23048  12.487  28.830  14.696
51433W        W23049  22.024   5.928  12.955
51434W        W23050  40.901  21.538   0.396
51435W        W23051  29.363  16.724  10.428
51436W        W23052  39.827  14.239   0.475
51437W        W23053  15.696  41.904  13.074
51438W        W23054   1.837  43.198   5.074
51439W        W23055  40.588  21.809  13.814
51440W        W23056   2.848  10.343   2.366
51441W        W23057  31.366  28.474   3.619
51442W        W23058   2.172   6.194   2.918
51443W        W23059  26.529  24.775   3.847
51444W        W23060  26.960  14.127   9.625
51445W        W23061  33.088   0.498  14.538
51446W        W23062  42.432  37.413  13.427
51447W        W23063   4.806   5.273  11.856
51448W        W23064  22.002   4.320   0.516
51449W        W23065   3.774  39.539   4.139
51450W        W23066  37.737  15.990   2.123
51451W        W23067   5.142  33.020  11.235
51452W        W23068  31.497  25.219  11.884
51453W        W23069   6.119   3.940   4.729
51454W        W23070  39.810  16.666  12.657
51455W        W23071  41.475  13.999  14.145
51456W        W23072  21.059  19.511  13.920
51457W        W23073  23.731  23.181  12.870
51458W        W23074  13.175  23.223   4.394
51459W        W23075  22.169  27.736   3.674
51460W        W23076  27.405  34.499  11.128
51461W        W23077   3.251  34.397  13.809
51462W        W23078  12.169   0.743   3.831
51463W        W23079  12.368  33.074   1.758
51464W        W23080  14.563  22.341  10.985
51465W        W23081  20.279  35.625   3.185
51466W        W23082  40.691  16.767   2.254
51467W        W23083  40.036  31.995  11.146
51468W        W23084  12.605  21.705   0.337
51469W        W23085   0.147  36.060   5.596
51470W        W23086  42.279  39.510  11.031
51471W        W23087  37.384  13.271  11.099
51472W        W23088   3.648  17.196   0.443
51473W        W23089  13.620  32.211   3.551
51474W        W23090  18.662  24.104   3.618
51475W        W23091   3.638   4.372  11.153
51476W        W23092  14.636   5.264   4.330
51477W        W23093   1.489  38.874  12.902
51478W        W23094   1.276  17.153   0.304
51479W        W23095  40.877  41.470  14.455
51480W        W23096   5.229  42.951   0.462
51481W        W23097  40.492  44.156   0.806
51482W        W23098  14.609  19.813   1.160
51483W        W23099  12.145  19.145   0.012
51484W        W23100  36.401  31.009   4.377
51485W        W23101   6.097  37.011   1.663
51486W        W23102  12.098  15.644  10.666
51487W        W23103  43.821  21.134  11.572
51488W        W23104   3.187  20.485  11.003
51489W        W23105  36.778  10.655   5.116
51490W        W23106  25.557   5.677   3.710
51491W        W23107   5.460   3.710  13.931
51492W        W23108   4.962  17.671  14.133
51493W        W23109  13.698  27.492  13.396
51494W        W23110  16.620  33.554  13.814
51495W        W23111  16.226  28.288   4.073
51496W        W23112   4.515  15.328  14.819
51497W        W23113  26.786  29.860   5.132
51498W        W23114  31.517   4.128  11.617
51499W        W23115  35.663  12.076   4.741
51500W        W23116  27.092   2.322  13.709
51501W        W23117  21.858  14.680  11.100
51502W        W23118  34.910   5.898  13.436
51503W        W23119  19.222  23.934  11.167
51504W        W23120   1.846   0.851  12.424
51505W        W23121  27.918  15.673  11.169
51506W        W23122  11.387  14.341  12.389
51507W        W23123  44.595  37.145   2.319
51508W        W23124  21.727  28.024   4.564
51509W        W23125  44.715  36.688   1.426
51510W        W23126  10.473  31.485   2.196
51511W        W23127  38.992  38.834   4.131
51512W        W23128  38.820   0.295   4.703
51513W        W23129  11.164  40.323   0.864
51514W        W23130   9.744  33.948   1.430
51515W        W23131  33.973  33.990   3.198
51516W        W23132   0.291  42.026   1.756
51517W        W23133  14.158  42.194   4.562
51518W        W23134  34.909  38.850   2.644
51519W        W23135   1.942  27.674   3.282
51520W        W23136   9.376  10.754  13.941
51521W        W23137  36.977  30.958   1.868
51522W        W23138   2.677  38.937  11.480
51523W        W23139  43.113   8.047  14.903
51524W        W23140   7.626  20.506   1.421
51525W        W23141  11.373  28.400  13.914
51526W        W23142  34.354  10.688   0.307
51527W        W23143  27.461   0.143  11.515
51528W        W23144  43.746  25.178  13.954
51529W        W23145  19.255  12.336  14.747
51530W        W23146  18.664  15.104   1.696
51531W        W23147   7.759  43.846   1.679
51532W        W23148  20.150   3.346  12.320
51533W        W23149  25.578  18.364  13.337
51534W        W23150  16.058  21.308  11.108
51535W        W23151  23.079  37.204   3.213
51536W        W23152  16.186  35.136  12.888
51537W        W23153  36.033  16.647  10.666
51538W        W23154  35.320   9.429   0.868
51539W        W23155  24.255  20.179   0.904
51540W        W23156  35.944  18.379  13.891
51541W        W23157  25.138  38.927  11.932
51542W        W23158  28.498  34.382  12.869
51543W        W23159  18.202  39.041  12.627
51544W        W23160  31.490   5.966  14.522
51545W        W23161  31.601  23.667   2.681
51546W        W23162   7.385  19.656   0.812
51547W        W23163   6.843   9.896   2.894
51548W        W23164   0.359  41.806   4.127
51549W        W23165   8.764  29.947   0.256
51550W        W23166  37.289  24.382  11.454
51551W        W23167  26.207  42.843   4.263
51552W        W23168  40.775  22.746   0.970
51553W        W23169  37.480  17.831  10.911
51554W        W23170  30.109  36.218  13.329
51555W        W23171  35.979  27.800  11.884
51556W        W23172  36.678  40.436   2.440
51557W        W23173   0.249  40.398   0.334
51558W        W23174  43.948  37.491   5.031
51559W        W23175  26.626   8.761  12.801
51560W        W23176  40.541   2.010  11.570
51561W        W23177  37.747  11.745   2.301
51562W        W23178   5.821  15.958   0.004
51563W        W23179   2.778  41.535  14.238
51564W        W23180   6.786  13.379   3.359
51565W        W23181  17.043  21.110  11.536
51566W        W23182   4.374  17.489   1.887
51567W        W23183  29.687  20.123   0.290
51568W        W23184  24.960  34.322   3.249
51569W        W23185  21.596  35.319  10.368
51570W        W23186   2.282  37.628   2.908
51571W        W23187   6.444  39.998  13.024
51572W        W23188   7.322  40.945   4.501
51573W        W23189  34.195  26.888  11.981
51574W        W23190  20.515  21.004   3.962
51575W        W23191  19.448   9.710   3.771
51576W        W23192  20.684  31.469   4.401
51577W        W23193  20.446   4.683  12.019
51578W        W23194   7.576  39.595  11.181
51579W        W23195   4.448  16.754   4.190
51580W        W23196  14.587  25.623  12.015
51581W        W23197   0.338  15.703  10.335
51582W        W23198  40.298  24.168  14.780
51583W        W23199  24.280   5.199  12.024
51584W        W23200   6.198  32.965  13.403
51585W        W23201  41.260   4.899   1.942
51586W        W23202  13.491  39.989  11.637
51587W        W23203   6.938  32.045  11.484
51588W        W23204  25.277  16.809   2.716
51589W        W23205  37.215  12.674   1.360
51590W        W23206  38.199   8.814  10.821
51591W        W23207  39.907  25.004  11.641
51592W        W23208  42.022  36.443   4.607
51593W        W23209  26.732  23.698  11.714
51594W        W23210  30.618  14.635   1.784
51595W        W23211  29.917   4.436   3.009
51596W        W23212  15.298  35.394  13.025
51597W        W23213  42.647  41.625   4.189
51598W        W23214  11.806  21.160  14.282
51599W        W23215   1.981  33.054   3.214
51600W        W23216  23.937  27.974   1.930
51601W        W23217  31.881   3.051  13.042
51602W        W23218  21.237  43.288  13.972
51603W        W23219   8.013  12.785   3.578
51604W        W23220  16.674  26.481  10.688
51605W        W23221  32.388  43.470   2.813
51606W        W23222  18.603  25.191   1.910
51607W        W23223  42.266  10.456   4.545
51608W        W23224  37.911   6.368  13.498
51609W        W23225   3.948  27.363   2.269
51610W        W23226  36.325  42.504   2.844
51611W        W23227  29.614  37.477   3.373
51612W        W23228  26.135  29.378  11.251
51613W        W23229  20.178  21.246  10.752
51614W        W23230  38.446  40.850   1.566
51615W        W23231  34.268  41.870   1.315
51616W        W23232  28.397  24.762   0.695
51617W        W23233  13.068   9.109   2.312
51618W        W23234  22.821  36.364   4.080
51619W        W23235  22.821   5.696   4.096
51620W        W23236  35.504  39.569  14.854
51621W        W23237   2.392  38.047  13.518
51622W        W23238  24.760  30.291  14.952
51623W        W23239  14.566   5.932   0.795
51624W        W23240   5.179  24.809  14.793
51625W        W23241   7.726   1.673  12.436
51626W        W23242  21.279  27.233   3.676
51627W        W23243  19.104  20.718  11.853
51628W        W23244  17.612   4.205   4.494
51629W        W23245   2.493  34.021  10.608
51630W        W23246  28.702  33.078   3.852
51631W        W23247  28.576  17.813   2.237
51632W        W23248  19.662  17.353  13.513
51633W        W23249  28.973  35.494   0.991
51634W        W23250  20.824  27.775   3.672
51635W        W23251  37.539  30.040  10.712
51636W        W23252  42.564  42.296  14.895
51637W        W23253  13.770  11.587   3.900
51638W        W23254  35.567   1.287   0.714
51639W        W23255  16.378  27.881   2.467
51640W        W23256  17.622  28.128  13.548
51641W        W23257  12.554  34.326  13.835
51642W        W23258  16.182  41.574   2.357
51643W        W23259   1.445  38.796   1.500
51644W        W23260   9.734   4.546   3.959
51645W        W23261  21.826  11.810  12.920
51646W        W23262  20.109  26.959   4.248
51647W        W23263   4.818  25.422   1.326
51648W        W23264  42.046  24.501   4.480
51649W        W23265  19.688   8.608  14.506
51650W        W23266  38.524   6.963   5.003
51651W        W23267  38.286  10.144   4.998
51652W        W23268  37.859  29.012  11.438
51653W        W23269  25.776  19.102   5.267
51654W        W23270  37.848   1.728  11.254
51655W        W23271  38.451  31.208  14.032
51656W        W23272  43.953   9.576  10.638
51657W        W23273  26.792  17.754   3.204
51658W        W23274  19.778  25.657  13.882
51659W        W23275   0.508  10.649   1.395
51660W        W23276  31.465  15.045  12.324
51661W        W23277  43.620  44.776  11.982
51662W        W23278   5.719  42.272  13.491
51663W        W23279   9.727  19.552  14.973
51664W        W23280   1.676   0.897  11.044
51665W        W23281  18.847  37.615   2.578
51666W        W23282  22.944  36.240   3.111
51667W        W23283  30.153  23.810  14.917
51668W        W23284   6.252   8.148   2.156
51669W        W23285  22.955   3.828   3.402
51670W        W23286  35.439  41.191   2.001
51671W        W23287  43.501  11.399   1.161
51672W        W23288  43.245   8.459   0.201
51673W        W23289  30.857  38.771   4.730
51674W        W23290  44.869   7.108   3.711
51675W        W23291  16.087  23.462   2.400
51676W        W23292  34.462  33.862  10.522
51677W        W23293  37.043  32.187  12.027
51678W        W23294  34.655  10.857  14.884
51679W        W23295  21.059   8.279  14.324
51680W        W23296  38.427   2.712   3.562
51681W        W23297  14.260  19.734  12.142
51682W        W23298  34.020  26.149   0.781
51683W        W23299  43.390  17.522   1.770
51684W        W23300  24.029  12.761  10.314
51685W        W23301  33.818   1.289  12.970
51686W        W23302   3.441   9.816  13.525
51687W        W23303   0.278  32.647  13.938
51688W        W23304  16.152  22.205  10.589
51689W        W23305  42.274  11.828   3.497
51690W        W23306  21.374  21.836  10.078
51691W        W23307  23.008  40.592  10.459
51692W        W23308  17.136  12.213   2.249
51693W        W23309  19.717  41.365   2.743
51694W        W23310  37.398   1.761  11.492
51695W        W23311  25.500  23.601   3.125
51696W        W23312  39.474   2.746   1.429
51697W        W23313  28.398  41.884  11.621
51698W        W23314  41.697   9.667   0.314
51699W        W23315   3.426  31.888   0.988
51700W        W23316  40.951   4.534   4.215
51701W        W23317  19.081  25.055  10.646
51702W        W23318  14.259   0.246  12.263
51703W        W23319  41.291   1.928   1.792
51704W        W23320  20.629  43.068   4.105
51705W        W23321   5.719   1.465   4.293
51706W        W23322  39.322   1.426  14.493
51707W        W23323   6.702  24.407  13.522
51708W        W23324  21.655  29.142   3.764
51709W        W23325  34.118  25.935   3.741
51710W        W23326   3.679  23.997   0.260
51711W        W23327  36.260  11.976   1.672
51712W        W23328  42.095  11.121   0.311
51713W        W23329  41.328  17.297   0.879
51714W        W23330  30.643  14.108   1.722
51715W        W23331   7.584   0.556   2.594
51716W        W23332  16.005  41.103   3.527
51717W        W23333  32.145  35.104  11.917
51718W        W23334  20.645   1.925   4.650
51719W        W23335  33.057   3.622   0.222
51720W        W23336  31.645  10.414  13.227
51721W        W23337  31.061  20.152  10.854
51722W        W23338  42.396  25.936   2.964
51723W        W23339  24.596   5.383   3.585
51724W        W23340  30.207  31.964  11.562
51725W        W23341  31.531  10.779   4.535
51726W        W23342  39.710  19.133   4.594
51727W        W23343  25.149  34.510   2.445
51728W        W23344   7.839   1.997  10.725
51729W        W23345  22.408  26.019  14.364
51730W        W23346  31.190  19.073   4.755
51731W        W23347  15.285  16.113  12.874
51732W        W23348  18.757  34.652   0.418
51733W        W23349  30.929   0.633   3.590
51734W        W23350  35.083  32.621  10.699
51735W        W23351  35.441  39.729   3.132
51736W        W23352  42.047  15.312  11.578
51737W        W23353  42.427   9.633  12.572
51738W        W23354  27.499   4.296  14.963
51739W        W23355  21.081  25.207  13.260
51740W        W23356  28.587   7.921  10.684
51741W        W23357  29.911  27.851  14.870
51742W        W23358   3.860  31.025  13.794
51743W        W23359  27.903   7.890  14.433
51744W        W23360   8.226  23.989   3.822
51745W        W23361  27.617  43.629   0.010
51746W        W23362  25.692  44.486   3.810
51747W        W23363  14.232  25.119  12.849
51748W        W23364  19.413  10.159  12.018
51749W        W23365   2.497  22.086  10.270
51750W        W23366   4.365  13.153   4.160
51751W        W23367  30.358  14.019  12.132
51752W        W23368  34.662  22.331  12.043
51753W        W23369  42.047  35.877   3.307
51754W        W23370  22.723  43.438  13.965
51755W        W23371  39.876   1.311   1.943
51756W        W23372   3.135  40.398   1.342
51757W        W23373  42.732  30.144  11.910
51758W        W23374  23.219  37.815  13.274
51759W        W23375  35.748  35.307  12.089
51760W        W23376  31.448   4.234   4.745
51761W        W23377   3.469  24.249   0.932
51762W        W23378   3.875   2.321  13.059
51763W        W23379  16.087  12.809  12.016
51764W        W23380  27.182  19.254   4.436
51765W        W23381  25.552  21.742  11.716
51766W        W23382  42.025  18.786   2.439
51767W        W23383  27.941  43.092  13.481
51768W        W23384  14.789   9.640  10.596
51769W        W23385  15.517   4.703  13.452
51770W        W23386   9.977  26.824  13.009
51771W        W23387  15.697  15.827  13.548
51772W        W23388   8.424  31.643  11.188
51773W        W23389   4.635  12.576   1.614
51774W        W23390  28.595  28.203  12.652
51775W        W23391  15.135  10.221  10.374
51776W        W23392  19.172  23.086   1.879
51777W        W23393  40.442  19.619   2.944
51778W        W23394  42.984  44.466   5.078
51779W        W23395  22.660  12.636   1.376
51780W        W23396  11.392  16.294  12.334
51781W        W23397  31.579  11.186  10.781
51782W        W23398  21.509   5.518  10.998
51783W        W23399   7.494  43.639  14.383
51784W        W23400  36.515  36.877  13.954
51785W        W23401  22.949   6.875   1.792
51786W        W23402  39.000  21.653   3.313
51787W        W23403  42.929  30.196  12.700
51788W        W23404   8.857  28.631   3.236
51789W        W23405  21.092  29.398   2.696
51790W        W23406  18.328   0.220   1.973
51791W        W23407   0.890   1.862   0.993
51792W        W23408  30.200  37.506  12.610
51793W        W23409  43.285  38.412  13.508
51794W        W23410   8.324  25.246   0.994
51795W        W23411   5.389  31.919   2.345
51796W        W23412  15.913   4.152  10.135
51797W        W23413   8.849  21.467  12.976
51798W        W23414  21.578  31.522   4.344
51799W        W23415  32.373  27.126  10.421
51800W        W23416  40.151   3.932  13.895
51801W        W23417  22.588  12.227  14.861
51802W        W23418  30.425  29.255   4.548
51803W        W23419   7.857  40.557  10.503
51804W        W23420   6.880   4.777   0.281
51805W        W23421  27.849  39.576  14.009
51806W        W23422  18.557   8.219  14.588
51807W        W23423  14.045  22.624   0.454
51808W        W23424  35.254   8.600  11.419
51809W        W23425  29.514  32.750  11.102
51810W        W23426   5.494  35.550  13.962
51811W        W23427   1.150  24.563  10.168
51812W        W23428  19.285  16.193   1.501
51813W        W23429   9.863  18.212  12.040
51814W        W23430  11.968  38.854   1.721
51815W        W23431  22.759  38.604  13.448
51816W        W23432  41.381  37.539   2.775
51817W        W23433   9.674  30.192   0.401
51818W        W23434  28.682  18.592  11.113
51819W        W23435  26.963  21.672   3.761
51820W        W23436   3.698  30.682   0.594
51821W        W23437   2.205  33.531   3.348
51822W        W23438  35.208   3.771   4.086
51823W        W23439   2.239  44.486  12.868
51824W        W23440  16.096   2.408  13.973
51825W        W23441   6.507  44.498  11.182
51826W        W23442  24.261  31.212   2.321
51827W        W23443  40.796  14.095  12.113
51828W        W23444  31.186   3.328   4.294
51829W        W23445  21.709  43.812  14.418
51830W        W23446  42.886  35.259   0.895
51831W        W23447  22.656  36.354  13.280
51832W        W23448   4.432  32.961  14.790
51833W        W23449  18.845  12.102   4.479
51834W        W23450  32.671  19.133   1.153
51835W        W23451   1.421  19.449   1.516
51836W        W23452  24.237  14.763   1.304
51837W        W23453  27.281   4.412  11.116
51838W        W23454  21.212  27.657   4.018
51839W        W23455  25.901  23.167   1.358
51840W        W23456   1.960   6.972  13.033
51841W        W23457  34.178   1.844   0.925
51842W        W23458  25.934   9.601  12.003
51843W        W23459  10.273  43.329   2.501
51844W        W23460   7.651  23.426   2.637
51845W        W23461  27.458  31.618  12.370
51846W        W23462  24.991   4.689   4.917
51847W        W23463  28.142  26.513  11.494
51848W        W23464   9.841  28.013   1.694
51849W        W23465  36.696  28.587  11.419
51850W        W23466  34.960   9.402  13.374
51851W        W23467  30.390  16.276  12.487
51852W        W23468   2.318  30.430   4.127
51853W        W23469  33.624   8.330   2.265
51854W        W23470  29.464  32.663  12.064
51855W        W23471  32.203   4.834  11.989
51856W        W23472  13.883  18.124  10.640
51857W        W23473  12.310  41.746   3.712
51858W        W23474  16.796   6.825   2.348
51859W        W23475  23.604   4.405   3.102
51860W        W23476  29.094   6.907   1.885
51861W        W23477  35.536   1.300   3.994
51862W        W23478  42.785  39.506  10.356
51863W        W23479  44.903  26.337  12.602
51864W        W23480  36.077  37.363  10.610
51865W        W23481  26.682  40.615  14.359
51866W        W23482  24.062  39.917  14.234
51867W        W23483  36.419  39.343  14.506
51868W        W23484   2.438  29.097   4.095
51869W        W23485  44.465  32.904  13.579
51870W        W23486   1.828  26.578  10.658
51871W        W23487  29.910  13.198  12.306
51872W        W23488  21.587   0.813   2.724
51873W        W23489  34.531  34.483   4.288
51874W        W23490  36.046  40.567  12.317
51875W        W23491  13.888  44.249   3.264
51876W        W23492  23.607   1.696  12.448
51877W        W23493  28.928  10.810  13.102
51878W        W23494  43.755  11.287  11.422
51879W        W23495  41.833  40.834  11.145
51880W        W23496  35.987   5.393   4.082
51881W        W23497   8.593  37.573  10.307
51882W        W23498  21.506  10.073  12.487
51883W        W23499  11.569   2.793  13.578
51884W        W23500  14.621  33.897   4.074
51885W        W23501   0.650  17.583   0.972
51886W        W23502   9.936  30.675  12.652
51887W        W23503  12.177  37.780  11.909
51888W        W23504  44.470  43.850  12.654
51889W        W23505  17.092  34.938   3.997
51890W        W23506  29.404  35.171  11.663
51891W        W23507  29.413  26.088   1.972
51892W        W23508  37.162  16.103   1.189
51893W        W23509   9.293   7.441  11.510
51894W        W23510  30.997  21.853  14.405
51895W        W23511  21.431  23.150   0.945
51896W        W23512  18.340   1.460   2.065
51897W        W23513   7.776  12.308  11.599
51898W        W23514  12.364  30.562   2.897
51899W        W23515  12.844  10.077  14.488
51900W        W23516  37.829  10.333  12.027
51901W        W23517  12.870  32.070  14.582
51902W        W23518  19.308  26.974   3.720
51903W        W23519   9.208   4.893  13.273
51904W        W23520  30.483  31.718   4.580
51905W        W23521  21.601  24.796   1.318
51906W        W23522  21.424  40.547   2.751
51907W        W23523   8.577  35.029  11.577
51908W        W23524   6.810   9.862  10.685
51909W        W23525   5.154  19.260  10.414
51910W        W23526  12.638   3.257   0.391
51911W        W23527  10.162  17.226  12.604
51912W        W23528  20.094  10.832   0.099
51913W        W23529   1.007   1.257   3.670
51914W        W23530  33.349  14.159   4.042
51915W        W23531  17.222   3.386   4.985
51916W        W23532  34.991  29.875  11.230
51917W        W23533  33.550  29.540   2.330
51918W        W23534  24.842  18.794   4.136
51919W        W23535  44.533  44.015  14.458
51920W        W23536  18.722  36.597   2.461
51921W        W23537  28.218  25.506  12.500
51922W        W23538  40.947  11.233  10.730
51923W        W23539  18.887  25.142   3.767
51924W        W23540  12.581  33.944   0.486
51925W        W23541  44.677  31.651   3.528
51926W        W23542  16.090   7.678  13.799
51927W        W23543  42.604   4.434  12.425
51928W        W23544   3.095  25.525   5.838
51929W        W23545  30.398   5.227  10.822
51930W        W23546  10.087   1.981   2.046
51931W        W23547  33.948  25.650   1.910
51932W        W23548  21.154  22.924  11.457
51933W        W23549   1.094  17.337  14.826
51934W        W23550   0.711   5.392   1.801
51935W        W23551  37.877  30.150   3.392
51936W        W23552  42.663  24.752   3.287
51937W        W23553  18.331   5.184  14.681
51938W        W23554  27.575  27.500   2.372
51939W        W23555   3.096  40.053  11.105
51940W        W23556  37.986   9.297  13.009
51941W        W23557  38.225   3.203  11.682
51942W        W23558   5.279  16.257   4.408
51943W        W23559   8.917   0.255  12.434
51944W        W23560   8.820   0.679   4.562
51945W        W23561   8.039  35.518   4.018
51946W        W23562  24.873  17.164  13.611
51947W        W23563  20.705   4.843   0.549
51948W        W23564  26.932  29.594   2.541
51949W        W23565   3.253  11.682  13.404
51950W        W23566   6.392  36.774   4.637
51951W        W23567   4.955   6.744  14.020
51952W        W23568   5.807  37.819   4.112
51953W        W23569  17.652   2.410   4.951
51954W        W23570  18.461  38.160  11.128
51955W        W23571  22.921  39.996  13.759
51956W        W23572   5.366  29.343   3.164
51957W        W23573  22.547  38.009  14.492
51958W        W23574  17.914   5.454  11.586
51959W        W23575  16.799  19.987   1.343
51960W        W23576  41.323   2.688   2.883
51961W        W23577   7.318   2.482   0.790
51962W        W23578  29.913  35.931   3.670
51963W        W23579   4.252  41.275  11.223
51964W        W23580   4.012   2.179   3.250
51965W        W23581  19.556  14.841  11.170
51966W        W23582   9.679  14.280   1.799
51967W        W23583  17.584   6.130   3.515
51968W        W23584  23.717  23.252  13.384
51969W        W23585  36.056  24.683   3.695
51970W        W23586  16.769  14.171  14.006
51971W        W23587  40.341  35.409   3.825
51972W        W23588  40.113  41.355   3.238
51973W        W23589  40.504  38.912  11.709
51974W        W23590  19.705  43.516   4.636
51975W        W23591   4.381  33.662   0.480
51976W        W23592  15.827   8.789  13.879
51977W        W23593  11.919  14.032   1.307
51978W        W23594   1.528  17.000  14.839
51979W        W23595   9.928  30.338   2.716
51980W        W23596  25.092  42.322   1.378
51981W        W23597  34.568  28.552   0.022
51982W        W23598  42.535   4.933  12.395
51983W        W23599  38.843  43.441  13.196
51984W        W23600  42.501  15.136  13.340
51985W        W23601  39.738  43.858  14.072
51986W        W23602  29.001  26.546   0.090
51987W        W23603  38.102  34.926   1.952
51988W        W23604  30.983  26.083   4.128
51989W        W23605  19.797  26.871   3.855
51990W        W23606  20.381   9.198   2.639
51991W        W23607  19.243  23.400   1.487
51992W        W23608  22.231   3.938   2.353
51993W        W23609  30.174  15.908   3.684
51994W        W23610  37.345  36.962   1.553
51995W        W23611   5.748   1.225   2.751
51996W        W23612  16.598  20.532  14.812
51997W        W23613  25.696  41.965  11.968
51998W        W23614   8.259  25.686   0.726
51999W        W23615  18.275  36.958  12.985
52000W        W23616   0.619   0.725  13.083
52001W        W23617  43.365  22.167  12.784
52002W        W23618   0.429  10.164   3.431
52003W        W23619  28.535   3.427   3.242
52004W        W23620  20.584   2.725   0.172
52005W        W23621  11.236   4.974   0.916
52006W        W23622  36.480  24.248  14.699
52007W        W23623  19.225  20.803  11.345
52008W        W23624  32.156  18.320  11.592
52009W        W23625   5.433   6.571  12.527
52010W        W23626   7.748   5.790   2.176
52011W        W23627  11.577   7.864   0.661
52012W        W23628  12.866  34.151  11.067
52013W        W23629  11.797  31.329  11.886
52014W        W23630   4.772  21.136   3.368
52015W        W23631  27.487   9.919   3.541
52016W        W23632  15.228   2.906  14.941
52017W        W23633  20.667   8.220  12.545
52018W        W23634   8.745  39.505   2.804
52019W        W23635  22.210   8.325  13.484
52020W        W23636  15.308  24.709   4.404
52021W        W23637   3.426  34.470  12.276
52022W        W23638  10.601  22.211   1.857
52023W        W23639  12.874  33.924  12.858
52024W        W23640  29.191  42.415  11.531
52025W        W23641  23.875  24.175   2.662
52026W        W23642  18.865  15.749   4.195
52027W        W23643  21.392   5.032  12.034
52028W        W23644  40.800   3.976  10.611
52029W        W23645   6.314  15.208   3.676
52030W        W23646   2.458  28.980   0.756
52031W        W23647  28.048  38.524   2.675
52032W        W23648   7.869  20.502  12.112
52033W        W23649   5.506  24.120   4.243
52034W        W23650  22.299   8.806   1.323
52035W        W23651   1.825   6.282   3.295
52036W        W23652  11.057  24.660   0.400
52037W        W23653  18.147  17.718   0.409
52038W        W23654  24.015  26.451  12.559
52039W        W23655  36.507   5.593  10.763
52040W        W23656  18.101  28.228  13.723
52041W        W23657  39.409  31.885  12.806
52042W        W23658   6.941  11.019   0.720
52043W        W23659  23.065  20.665   2.845
52044W        W23660  11.050  25.966  10.523
52045W        W23661  37.880   1.003   2.439
52046W        W23662  43.719  30.595   0.469
52047W        W23663   9.656  33.482   3.448
52048W        W23664  30.365  29.119   3.311
52049W        W23665   7.207   6.803   4.300
52050W        W23666  21.756  24.853  12.473
52051W        W23667  10.903  29.357  14.050
52052W        W23668  32.102  13.664  13.431
52053W        W23669  17.210  36.783   3.452
52054W        W23670  36.492  22.963  10.554
52055W        W23671  14.172  41.202  11.550
52056W        W23672   1.351  35.588  11.641
52057W        W23673  16.185  15.725  11.500
52058W        W23674  23.652   1.615   0.932
52059W        W23675  32.805   1.503   4.971
52060W        W23676  30.467  37.979   1.141
52061W        W23677  20.132  17.757  11.370
52062W        W23678  13.312  43.851  13.446
52063W        W23679   5.757  29.175  11.720
52064W        W23680  35.076  43.887  10.399
52065W        W23681  29.945  20.600   0.817
52066W        W23682   2.438  34.081   0.382
52067W        W23683  27.584  10.759   2.276
52068W        W23684  28.339  10.860   1.895
52069W        W23685  44.729  37.036   4.067
52070W        W23686  29.711  23.591  11.113
52071W        W23687   4.173   6.652  12.379
52072W        W23688  27.884   2.909  12.390
52073W        W23689  42.467  16.704   4.316
52074W        W23690  33.555   1.790  13.595
52075W        W23691  27.029  41.118   1.666
52076W        W23692   7.327  17.912  13.136
52077W        W23693  33.977  41.037   4.676
52078W        W23694  38.665  32.113  11.406
52079W        W23695   2.231  11.211  10.784
52080W        W23696  18.609  14.247  14.739
52081W        W23697  22.519  26.046  11.094
52082W        W23698  30.122  34.257   0.839
52083W        W23699  14.106   4.714  10.630
52084W        W23700  18.770   9.365   1.782
52085W        W23701   5.426   5.908  11.442
52086W        W23702  41.307   5.740   3.285
52087W        W23703  41.486  22.871   2.514
52088W        W23704  25.528   9.298  11.505
52089W        W23705  42.417  13.167  13.541
52090W        W23706  17.806  20.032  13.084
52091W        W23707  38.028   6.062  12.098
52092W        W23708  26.002   9.928   2.755
52093W        W23709  26.597   5.719  14.410
52094W        W23710  43.297  26.433  11.480
52095W        W23711  41.397  37.084   4.413
52096W        W23712   6.034  37.813   3.227
52097W        W23713  15.686  29.072   4.119
52098W        W23714  10.133  34.377  10.958
52099W        W23715  38.804  42.378   2.193
52100W        W23716  15.688   9.887   3.618
52101W        W23717  29.958   5.335   1.804
52102W        W23718  21.089  39.613   2.397
52103W        W23719  28.401  14.682   0.337
52104W        W23720   6.521   3.678   2.291
52105W        W23721  19.320  42.824   4.469
52106W        W23722  10.374  43.912  11.502
52107W        W23723  43.383  36.317   2.201
52108W        W23724  34.386  10.212  11.539
52109W        W23725  10.608  37.279   4.086
52110W        W23726   0.820  28.075   1.999
52111W        W23727  32.608  27.210   0.313
52112W        W23728   1.840  24.252  11.710
52113W        W23729  31.885  40.598   3.571
52114W        W23730  13.503  34.482  11.564
52115W        W23731  28.071  12.905   2.218
52116W        W23732  23.183  16.250   2.599
52117W        W23733  23.153  23.718   0.440
52118W        W23734  27.485  35.063  10.534
52119W        W23735  26.491  17.163   2.892
52120W        W23736  41.563  42.653   3.599
52121W        W23737   8.969  10.143   4.386
52122W        W23738  17.247  10.836   1.908
52123W        W23739  24.622  44.772  14.106
52124W        W23740   4.495  43.797  11.532
52125W        W23741  15.032   4.268   5.196
52126W        W23742   8.765  23.849  14.730
52127W        W23743  35.828  10.525  12.017
52128W        W23744  16.688  38.627   0.834
52129W        W23745   5.697  37.906   1.417
52130W        W23746  35.062  39.828  11.619
52131W        W23747  23.132   4.771   0.957
52132W        W23748  26.553  10.680  12.181
52133W        W23749  17.046   0.864  11.174
52134W        W23750  14.718  30.835   1.033
52135W        W23751  43.606  37.112  10.634
52136W        W23752   1.584  14.831  14.486
52137W        W23753  19.252  31.471  13.565
52138W        W23754  20.264  10.082   1.301
52139W        W23755  23.638  34.476   2.368
52140W        W23756  43.500   2.492   0.235
52141W        W23757   5.485  14.888   4.282
52142W        W23758   5.354   8.882  11.526
52143W        W23759  36.125  23.200   4.706
52144W        W23760  39.260  21.457   4.770
52145W        W23761   4.991  36.492  12.089
52146W        W23762  38.470  22.963   4.627
52147W        W23763  41.695  36.604   0.932
52148W        W23764   6.990  41.842  12.852
52149W        W23765   0.030  12.416   4.191
52150W        W23766   7.323  12.049   1.870
52151W        W23767  21.624  32.215  14.847
52152W        W23768  22.139   9.753   2.900
52153W        W23769  38.441  24.633   1.508
52154W        W23770  22.550   8.144  11.688
52155W        W23771  10.623  26.610   2.772
52156W        W23772  43.102  33.848   3.166
52157W        W23773  31.648  43.983  10.942
52158W        W23774   2.402   5.725  11.554
52159W        W23775  16.286  14.323  14.030
52160W        W23776  13.290  41.761   1.261
52161W        W23777  19.088  18.747   0.430
52162W        W23778  31.131  10.228   2.331
52163W        W23779  33.007   4.374  13.312
52164W        W23780  33.029  18.285   2.677
52165W        W23781  38.868   3.959  11.049
52166W        W23782   0.808  10.319   0.757
52167W        W23783   5.601   1.728  11.678
52168W        W23784  42.027  19.632   2.075
52169W        W23785  25.938  32.634  14.948
52170W        W23786   9.290  32.610  13.627
52171W        W23787  16.205  44.626  10.996
52172W        W23788  25.094  32.567   2.919
52173W        W23789  20.005  17.074   3.363
52174W        W23790  35.467   1.241   4.638
52175W        W23791  13.533  14.838   4.044
52176W        W23792  17.878  41.397  13.979
52177W        W23793   5.143  36.040   0.513
52178W        W23794  37.644  24.741  10.673
52179W        W23795  28.445   2.555  14.185
52180W        W23796   1.466  20.206   1.977
52181W        W23797  44.482   7.922  13.322
52182W        W23798  20.118  16.303   1.582
52183W        W23799  19.813   8.959   4.160
52184W        W23800   8.599  20.566  14.463
52185W        W23801  23.278  28.116   2.346
52186W        W23802   1.637  33.911   3.611
52187W        W23803  18.713  40.377  10.049
52188W        W23804   1.200  15.575   4.153
52189W        W23805   0.233   1.064  13.050
52190W        W23806  21.237  34.224   1.722
52191W        W23807  17.280  37.513  12.512
52192W        W23808  21.030  35.141   4.159
52193W        W23809  19.876  21.049   4.571
52194W        W23810  35.880   2.813  13.467
52195W        W23811  31.524   5.135  14.781
52196W        W23812   2.549   0.445  10.236
52197W        W23813  19.755   2.063   2.891
52198W        W23814  21.468  23.084   3.600
52199W        W23815  11.071  10.788   4.012
52200W        W23816  33.667  34.300   0.275
52201W        W23817  29.622   0.287   1.259
52202W        W23818  38.016  33.628   3.701
52203W        W23819  34.521  32.456   3.049
52204W        W23820  14.094  34.007   2.782
52205W        W23821   9.035  40.800   2.418
52206W        W23822  23.093  41.819  12.488
52207W        W23823  37.536   9.501  14.989
52208W        W23824  28.778   1.866   0.764
52209W        W23825  29.268  15.004  14.118
52210W        W23826  42.105  13.655   3.844
52211W        W23827   0.430   1.274   0.455
52212W        W23828  21.060  35.940  12.230
52213W        W23829  41.457  42.219   2.725
52214W        W23830  12.272   1.504  12.890
52215W        W23831   4.262   8.266  11.994
52216W        W23832  35.947  12.535   4.594
52217W        W23833  21.739  13.658   4.613
52218W        W23834  12.870   3.381   2.787
52219W        W23835   5.928   2.326  13.407
52220W        W23836  27.758  37.821  14.859
52221W        W23837  39.351  43.940  14.433
52222W        W23838  13.861  43.705   2.362
52223W        W23839  15.698  19.268  14.160
52224W        W23840   8.850  18.500  14.594
52225W        W23841  33.536  31.936   3.125
52226W        W23842  31.732  14.322  11.216
52227W        W23843  32.576  26.032  13.150
52228W        W23844  26.228  21.107   2.242
52229W        W23845  11.341  31.861  14.402
52230W        W23846   4.884  42.150   3.708
52231W        W23847  28.088  32.685  13.437
52232W        W23848  24.432  16.389  12.121
52233W        W23849  44.831  14.681  10.539
52234W        W23850  40.923  10.284  10.834
52235W        W23851  19.990  18.075   3.577
52236W        W23852  32.924  28.431   4.671
52237W        W23853  18.699  11.711   0.784
52238W        W23854   7.138  11.808  14.780
52239W        W23855  19.646   8.115  13.133
52240W        W23856  10.247  39.611  11.234
52241W        W23857   0.349   0.355  10.634
52242W        W23858   6.616   2.807   3.273
52243W        W23859  27.143  37.988  11.215
52244W        W23860  43.983  16.809   1.974
52245W        W23861  30.053   2.198   0.923
52246W        W23862  36.077  42.067  12.597
52247W        W23863   0.904   9.861  11.150
52248W        W23864  31.302  22.619  11.541
52249W        W23865  15.596  10.663  12.390
52250W        W23866  14.845  27.602   0.445
52251W        W23867  27.749  42.655   0.050
52252W        W23868  15.224  15.761  14.282
52253W        W23869  11.206  15.690   0.994
52254W        W23870  44.329  38.776   1.821
52255W        W23871  29.114  31.930  11.139
52256W        W23872  16.355  28.571   3.649
52257W        W23873  24.974   1.778  11.652
52258W        W23874  31.683  17.212   3.742
52259W        W23875   3.704  35.634  13.574
52260W        W23876   4.632   3.117  12.980
52261W        W23877  10.879  40.781   3.088
52262W        W23878   3.383  31.332   4.064
52263W        W23879  26.110  25.186  14.313
52264W        W23880  39.613   3.910  13.961
52265W        W23881   3.795   2.658   1.046
52266W        W23882  33.383   1.368   3.721
52267W        W23883  43.831  27.400  12.136
52268W        W23884  27.350   0.718   2.726
52269W        W23885  33.943  40.230  10.741
52270W        W23886  44.852  24.228  10.838
52271W        W23887  40.096   1.305   4.245
52272W        W23888  29.375   1.285   2.208
52273W        W23889   6.762   4.423  13.046
52274W        W23890  34.419   2.009  10.670
52275W        W23891  27.100  36.358  14.369
52276W        W23892  42.837  28.254   1.669
52277W        W23893  17.737  32.015   2.701
52278W        W23894   7.924  11.331  14.391
52279W        W23895  42.517  41.508   3.268
52280W        W23896  40.636   5.682   9.858
52281W        W23897  35.342   9.795   4.093
52282W        W23898  35.760  18.655   2.356
52283W        W23899  17.211   8.949   5.184
52284W        W23900  18.509  11.479  14.495
52285W        W23901  17.794  37.567  12.416
52286W        W23902  14.792   9.751  14.384
52287W        W23903  41.363  34.901   3.268
52288W        W23904  14.219  11.024   1.338
52289W        W23905  21.433  13.786  12.534
52290W        W23906   4.196   4.259  14.720
52291W        W23907  37.160  23.926  14.008
52292W        W23908  10.092  25.461  12.103
52293W        W23909  10.325  38.540  12.367
52294W        W23910  24.016   7.412   2.453
52295W        W23911  23.825  33.140  11.065
52296W        W23912  38.797  34.394  14.953
52297W        W23913   6.187  15.865  12.399
52298W        W23914  30.030   5.162  13.079
52299W        W23915  42.718   2.718   1.433
52300W        W23916  36.479  18.213   4.050
52301W        W23917   1.018  16.346  13.070
52302W        W23918   5.738  30.639  11.961
52303W        W23919  12.889  43.079   4.573
52304W        W23920   2.778  34.352  12.735
52305W        W23921   4.886   1.165  14.393
52306W        W23922  31.164  17.797  14.241
52307W        W23923   8.990  22.839  14.034
52308W        W23924  43.852  17.009   3.394
52309W        W23925  44.518  36.495  12.978
52310W        W23926  20.064  12.615   2.128
52311W        W23927   0.926  44.307   4.966
52312W        W23928   4.917   3.940  10.623
52313W        W23929  37.343  15.594   5.078
52314W        W23930  12.992  27.088  11.426
52315W        W23931  42.073  41.936  12.143
52316W        W23932  11.126  38.860   3.654
52317W        W23933   3.330  35.684  11.630
52318W        W23934  17.872   5.702  13.012
52319W        W23935  22.675   0.237   3.189
52320W        W23936  41.848  22.039  11.628
52321W        W23937  22.579  30.641  14.549
52322W        W23938  18.605  21.904   3.351
52323W        W23939  24.610   6.345   2.678
52324W        W23940  13.208  15.798  14.329
52325W        W23941  19.893   6.994  12.155
52326W        W23942  18.989   7.047   2.714
52327W        W23943  26.268  41.079  10.324
52328W        W23944  30.096   7.932   2.198
52329W        W23945  42.887  23.142  11.443
52330W        W23946   9.944  25.472  10.763
52331W        W23947  25.618  11.646  11.169
52332W        W23948  31.690   2.703   0.351
52333W        W23949  21.214  12.821   4.714
52334W        W23950  10.943  37.338  11.717
52335W        W23951  39.990  23.489   3.729
52336W        W23952  30.636   2.903   4.088
52337W        W23953  18.581  37.828  10.456
52338W        W23954  35.094   7.161   3.413
52339W        W23955   2.974   7.430  12.198
52340W        W23956  23.919  18.704   1.679
52341W        W23957  12.035   4.192   5.068
52342W        W23958  26.853  16.594  11.186
52343W        W23959  20.548  13.377   3.592
52344W        W23960  35.318   9.876   4.597
52345W        W23961  17.691  34.326  12.075
52346W        W23962  25.998   8.814  13.526
52347W        W23963  32.439  26.643  10.651
52348W        W23964  18.091  29.195  12.915
52349W        W23965   3.213  15.599   2.842
52350W        W23966  19.136  29.353   2.099
52351W        W23967  33.044   5.703  13.808
52352W        W23968  31.027  39.283   3.199
52353W        W23969  13.887  37.040  14.816
52354W        W23970  25.111  11.305   4.596
52355W        W23971  37.856  36.785   0.017
52356W        W23972  21.014  38.396   4.579
52357W        W23973   7.735  26.122   2.323
52358W        W23974  27.437  16.514   4.200
52359W        W23975  33.033  13.349  14.480
52360W        W23976   8.603  34.931   3.637
52361W        W23977   8.392   5.710   3.766
52362W        W23978  31.520   9.829  12.554
52363W        W23979  12.147   2.400   2.492
52364W        W23980   2.410  12.509   4.969
52365W        W23981  36.441  23.253  14.454
52366W        W23982  36.258  35.377  12.562
52367W        W23983  43.854  11.624  12.177
52368W        W23984  24.730  23.451   0.737
52369W        W23985  29.133  15.239   0.424
52370W        W23986  41.019  16.666   1.381
52371W        W23987   1.857  23.736  14.849
52372W        W23988  31.491  42.617   4.547
52373W        W23989  18.284  31.939  11.422
52374W        W23990  27.586  30.027  11.159
52375W        W23991  41.471   9.647  14.858
52376W        W23992  27.680  31.198  12.588
52377W        W23993   3.633  24.994  12.581
52378W        W23994   1.276  42.096  12.930
52379W        W23995  26.477  14.013   4.232
52380W        W23996  11.468   2.286   1.168
52381W        W23997  33.632   3.947  14.858
52382W        W23998  21.068  23.637   2.172
52383W        W23999   3.911   7.694   0.038
52384W        W24000  14.700  26.388  14.595
52385W        W24001  44.829  16.922  13.189
52386W        W24002  24.260  37.287   2.577
52387W        W24003  15.582   1.955   1.010
52388W        W24004  33.784  40.213  11.497
52389W        W24005  42.025  15.732   0.350
52390W        W24006  22.536  36.074   2.295
52391W        W24007  42.856  24.298   3.282
52392W        W24008  24.124   8.229   4.878
52393W        W24009  44.350  37.131  14.943
52394W        W24010  16.183  27.722   1.754
52395W        W24011  14.785  12.825  14.118
52396W        W24012  14.772  25.094   1.458
52397W        W24013   6.475  41.076   1.835
52398W        W24014  42.985  13.637  13.579
52399W        W24015   3.960  28.874   0.846
52400W        W24016   0.339  44.954  13.692
52401W        W24017  29.241  14.164  13.381
52402W        W24018  14.420  40.016  10.329
52403W        W24019   0.541  37.610   1.135
52404W        W24020  14.357   8.964  12.076
52405W        W24021  27.177   9.181  11.173
52406W        W24022  12.345   7.776  11.962
52407W        W24023  17.106  38.460  13.972
52408W        W24024  35.503  42.880   5.093
52409W        W24025  13.095  35.908  11.399
52410W        W24026  27.460  15.220   2.698
52411W        W24027  25.956  22.568  12.005
52412W        W24028  11.556  30.594  14.733
52413W        W24029  33.109  21.268   1.267
52414W        W24030  30.056   4.305   4.022
52415W        W24031  31.631  37.631  12.606
52416W        W24032  32.658   4.533   1.023
52417W        W24033  32.796  15.520  12.188
52418W        W24034  40.759  12.340   1.375
52419W        W24035  22.181  19.730   4.050
52420W        W24036  10.621  19.094  13.411
52421W        W24037  26.959   4.281   0.877
52422W        W24038   7.225   7.497   3.719
52423W        W24039  44.299  33.625   1.426
52424W        W24040  25.648   9.569   3.344
52425W        W24041  34.020  42.077  11.188
52426W        W24042   4.157  42.893  13.894
52427W        W24043  44.139  38.989  14.781
52428W        W24044  19.560   5.912  10.117
52429W        W24045  39.911  27.708  11.174
52430W        W24046  41.403  14.430  13.144
52431W        W24047   2.925  41.280   3.383
52432W        W24048  42.284  39.337  14.749
52433W        W24049  32.074  23.595   0.545
52434W        W24050   3.612  12.743  13.990
52435W        W24051  44.080  22.497  11.623
52436W        W24052  39.009  24.271   2.687
52437W        W24053  44.284  13.190   2.283
52438W        W24054  33.992  13.100  14.476
52439W        W24055  37.742  18.812   0.477
52440W        W24056  17.361   6.868   4.614
52441W        W24057  27.426  16.007  10.532
52442W        W24058  38.391  44.477  13.363
52443W        W24059  18.014   8.702  11.119
52444W        W24060  23.688  15.897   4.538
52445W        W24061  13.881  29.074   4.625
52446W        W24062  36.945  16.907  13.331
52447W        W24063  38.024  22.453  11.985
52448W        W24064  27.426  32.520   4.144
52449W        W24065   0.798  19.351   4.144
52450W        W24066  42.686   3.148  13.996
52451W        W24067  13.645   7.358   0.513
52452W        W24068  23.368   3.038  13.606
52453W        W24069  35.329  17.566   2.855
52454W        W24070   8.993   7.981  13.401
52455W        W24071  30.587  30.134   3.186
52456W        W24072  12.450  23.019  12.336
52457W        W24073   7.862  34.387  12.427
52458W        W24074  16.543  44.991  10.234
52459W        W24075  33.471   9.823   3.144
52460W        W24076  21.802  40.935   0.876
52461W        W24077  17.844  44.998   0.013
52462W        W24078   2.185  18.226   3.845
52463W        W24079  28.441  11.223  12.454
52464W        W24080  16.155  15.144   3.348
52465W        W24081  38.892  43.945   4.101
52466W        W24082  28.877  40.037  14.805
52467W        W24083  43.532  23.318   2.202
52468W        W24084   3.769  15.654   2.693
52469W        W24085  40.816  17.548   1.874
52470W        W24086  15.378  31.705   3.037
52471W        W24087   5.647  25.286   2.158
52472W        W24088   2.988  33.429   2.858
52473W        W24089  31.705  11.135   2.246
52474W        W24090  41.375  34.718   1.495
52475W        W24091  25.561  43.916   2.617
52476W        W24092   4.394  35.138  12.468
52477W        W24093   2.164   1.873   0.472
52478W        W24094  40.468   7.870   0.749
52479W        W24095  12.848  27.879   1.731
52480W        W24096  35.513  11.032  10.340
52481W        W24097  27.015   9.176  10.693
52482W        W24098   4.248   2.479   4.557
52483W        W24099  41.094  25.126   4.775
52484W        W24100   6.391  27.665   1.443
52485W        W24101  26.105  34.104  10.382
52486W        W24102  36.983   8.456  11.090
52487W        W24103   2.746   8.393  13.866
52488W        W24104  36.588  36.569   1.194
52489W        W24105  28.718  43.495  11.884
52490W        W24106  16.292   9.283  13.052
52491W        W24107  38.163  44.865  13.955
52492W        W24108  25.309  19.675   1.503
52493W        W24109  27.551  29.838  13.989
52494W        W24110  40.534  43.387   3.393
52495W        W24111  11.367  41.832   2.286
52496W        W24112  26.710  40.400  10.658
52497W        W24113  44.692   4.455  11.850
52498W        W24114   8.099  38.509   3.354
52499W        W24115  44.198  18.551  12.969
52500W        W24116  19.335  36.884  12.025
52501W        W24117   2.045  41.723   2.742
52502W        W24118  35.566  17.708  12.568
52503W        W24119  13.255  14.161   2.223
52504W        W24120  41.951   4.778   2.658
52505W        W24121  28.524  16.339   2.291
52506W        W24122  43.333  16.890   3.934
52507W        W24123  30.959   4.960   1.971
52508W        W24124   1.063  29.619   2.629
52509W        W24125   7.856  37.905  11.697
52510W        W24126  40.817  28.441   0.864
52511W        W24127  27.028  19.696  12.500
52512W        W24128  44.078  12.593  11.172
52513W        W24129  32.594  13.682   1.899
52514W        W24130  30.114  19.944  10.642
52515W        W24131  36.571  33.848  10.745
52516W        W24132  17.301   9.868  13.962
52517W        W24133  13.479  43.889  14.437
52518W        W24134  44.496  24.274   1.391
52519W        W24135  18.504  17.618  10.584
52520W        W24136   3.314  38.173  12.921
52521W        W24137  42.486  33.311   1.399
52522W        W24138  39.361  13.700  12.913
52523W        W24139  29.897  20.301  13.489
52524W        W24140  19.596   9.282  11.581
52525W        W24141  18.084  40.071  12.474
52526W        W24142  14.042  23.268  13.018
52527W        W24143   3.804  35.818   4.122
52528W        W24144   1.949  26.371  13.310
52529W        W24145  38.606  11.110   4.139
52530W        W24146   1.263  44.804   2.643
52531W        W24147  22.457  41.870  13.587
52532W        W24148   7.305  37.543   1.392
52533W        W24149  24.842  17.106   3.506
52534W        W24150   7.155  13.820   0.342
52535W        W24151  30.916  32.342  12.953
52536W        W24152   5.744  35.972  14.697
52537W        W24153  41.711  26.700  10.689
52538W        W24154  18.217  21.361   2.738
52539W        W24155  31.630  38.325   1.876
52540W        W24156  22.157  16.238   0.895
52541W        W24157  17.870  27.087   4.781
52542W        W24158  41.303   8.116  10.748
52543W        W24159  36.318  13.712   1.812
52544W        W24160  29.247   5.731   2.219
52545W        W24161   9.654   6.034  13.052
52546W        W24162  18.859  19.221  11.578
52547W        W24163  34.017  22.994  11.106
52548W        W24164  16.813  15.311   0.196
52549W        W24165  18.622  31.849   3.343
52550W        W24166  31.465   9.401   1.167
52551W        W24167  30.501  31.843   2.819
52552W        W24168  23.078  36.978  14.824
52553W        W24169  35.139  38.354   1.895
52554W        W24170   4.426  26.098  11.499
52555W        W24171  16.664   0.294   3.363
52556W        W24172  26.633  34.933  11.545
52557W        W24173  31.472  27.779   1.774
52558W        W24174  27.209  36.078  13.940
52559W        W24175  29.152   6.010   4.553
52560W        W24176  27.692  44.152  12.533
52561W        W24177  16.676  34.658   3.818
52562W        W24178  19.890  26.021   1.131
52563W        W24179  41.053   6.925  12.934
52564W        W24180  36.556   4.975  12.232
52565W        W24181   5.984   3.147   1.255
52566W        W24182  39.381  18.979   3.120
52567W        W24183   6.405  28.534   2.015
52568W        W24184  17.717  12.164   0.948
52569W        W24185  26.263   4.701  13.478
52570W        W24186   1.022  19.010   1.876
52571W        W24187   7.327  38.231   1.786
52572W        W24188   0.973   9.770  14.710
52573W        W24189  15.794  26.885  14.574
52574W        W24190  44.387  35.578  13.065
52575W        W24191  37.348  17.910  11.466
52576W        W24192  21.129  24.780   4.126
52577W        W24193  31.064   1.230  13.367
52578W        W24194  28.061  28.880   4.024
52579W        W24195   0.483  17.533  14.033
52580W        W24196  27.547  34.360   1.308
52581W        W24197  32.154   2.247  12.000
52582W        W24198  34.773  30.730   2.750
52583W        W24199  18.690  44.853   3.812
52584W        W24200  16.638  35.684   3.764
52585W        W24201  19.967  28.513   0.138
52586W        W24202  29.393   8.454  13.094
52587W        W24203  14.965  27.107  14.599
52588W        W24204   5.703  38.481  11.117
52589W        W24205  14.346   4.932  10.229
52590W        W24206  44.121  30.014   0.048
52591W        W24207  44.929  42.490   2.717
52592W        W24208  15.598   5.346  10.323
52593W        W24209  14.161  42.174  11.140
52594W        W24210   2.849   7.433  14.007
52595W        W24211  27.183  23.522   3.204
52596W        W24212  21.637  42.208  13.420
52597W        W24213  35.159  16.372   3.072
52598W        W24214   2.658  44.832  14.366
52599W        W24215   9.300  36.565   4.416
52600W        W24216  34.462   2.687  13.591
52601W        W24217  21.312  28.711   0.480
52602W        W24218  32.054  39.999   1.387
52603W        W24219   7.926  34.085   2.943
52604W        W24220  35.101  28.188  10.159
52605W        W24221   6.141  31.640  13.420
52606W        W24222  14.569  27.123  11.440
52607W        W24223  23.979  16.378   3.219
52608W        W24224   3.818   1.238   1.004
52609W        W24225  35.307  35.317   2.893
52610W        W24226  10.411  39.389   4.582
52611W        W24227  39.381  22.853  12.077
52612W        W24228  28.947  11.317  12.887
52613W        W24229  31.947  18.095  13.934
52614W        W24230  37.537  36.289  10.559
52615W        W24231  26.847   1.571  14.859
52616W        W24232  43.607  11.143  14.201
52617W        W24233  13.882  35.112  14.929
52618W        W24234   3.921  32.387  13.548
52619W        W24235  10.343  13.636  11.477
52620W        W24236  20.774   8.556   3.746
52621W        W24237  14.223  10.735   0.428
52622W        W24238  32.992  30.356   3.238
52623W        W24239  43.549   2.433   1.206
52624W        W24240  24.676  34.359  11.155
52625W        W24241   0.458  33.443  14.368
52626W        W24242  43.526  34.152   1.234
52627W        W24243  28.066  36.170  14.050
52628W        W24244  21.701  20.709  12.279
52629W        W24245  18.476  12.725   1.784
52630W        W24246   3.302  30.214  12.254
52631W        W24247  12.356  24.741  12.015
52632W        W24248  27.189  24.497   4.376
52633W        W24249  29.099  33.785   0.813
52634W        W24250  41.289  10.719   3.344
52635W        W24251   1.402  13.742   4.700
52636W        W24252  15.573  26.969  11.001
52637W        W24253  13.062  31.705  11.949
52638W        W24254  35.530  44.319  14.528
52639W        W24255  17.620  33.200   1.112
52640W        W24256  34.441  17.847   1.195
52641W        W24257  26.455  21.055  10.853
52642W        W24258  19.278  30.002  14.770
52643W        W24259  29.607  24.141  13.967
52644W        W24260  15.117  28.067   2.773
52645W        W24261  33.683   2.782  10.415
52646W        W24262  28.516   4.722  14.388
52647W        W24263  40.751   4.690  11.850
52648W        W24264  37.277  36.569   0.720
52649W        W24265  31.999   3.857   1.715
52650W        W24266  39.557   2.760  14.322
52651W        W24267  18.612  41.745   0.432
52652W        W24268  13.399  24.512   0.154
52653W        W24269  10.245  14.758   2.222
52654W        W24270   3.748  40.133   0.306
52655W        W24271  37.039  22.134  14.295
52656W        W24272  28.463  42.027  12.140
52657W        W24273  27.473  36.755  12.414
52658W        W24274  44.675  43.456   2.896
52659W        W24275   5.077  26.057  11.061
52660W        W24276  44.035  44.797   0.363
52661W        W24277  17.236  29.800  13.995
52662W        W24278  28.588   4.364   1.391
52663W        W24279  25.158  10.386   1.699
52664W        W24280   3.268  23.085   0.673
52665W        W24281  44.413  22.243   0.463
52666W        W24282   6.310  35.094  13.549
52667W        W24283  28.496  10.637  12.169
52668W        W24284  43.360  30.436  12.903
52669W        W24285  36.062   2.866  10.577
52670W        W24286  24.246  17.112   1.876
52671W        W24287  40.301  35.219  11.526
52672W        W24288  23.034   8.772   4.618
52673W        W24289  39.056  28.650  12.879
52674W        W24290  28.472  44.457   2.175
52675W        W24291  34.433  11.508  14.095
52676W        W24292   8.690  13.690  12.176
52677W        W24293  17.759  13.573   1.219
52678W        W24294  24.655  38.843   3.318
52679W        W24295  17.702   0.035   2.711
52680W        W24296  23.403   1.879   2.435
52681W        W24297  19.676  14.212  13.893
52682W        W24298   5.318  41.504  12.358
52683W        W24299  13.322  16.072  13.901
52684W        W24300  25.709  16.062  10.000
52685W        W24301  29.624  21.100  11.644
52686W        W24302   1.981  42.970   1.823
52687W        W24303  40.483  26.119   2.024
52688W        W24304   2.573   0.686   2.193
52689W        W24305  28.535  11.858   0.417
52690W        W24306  33.393  35.397   4.384
52691W        W24307  11.850  37.537  11.599
52692W        W24308  26.519  29.477  14.813
52693W        W24309  41.818  14.259   3.299
52694W        W24310  28.209   7.288  12.830
52695W        W24311  28.350  18.795   2.219
52696W        W24312  37.676  10.766  13.006
52697W        W24313  40.063   0.274  10.723
52698W        W24314  11.071   2.832   3.735
52699W        W24315  28.470   3.688   0.573
52700W        W24316  41.861  13.473  14.279
52701W        W24317  29.903  28.977  11.621
52702W        W24318   6.915   3.946  13.845
52703W        W24319  16.006  38.807   2.690
52704W        W24320  26.202   5.284  14.695
52705W        W24321  28.605   3.357   0.207
52706W        W24322   7.992  13.841   1.783
52707W        W24323  28.156  15.998  12.811
52708W        W24324  10.377  18.553  13.925
52709W        W24325  26.976   6.106  11.938
52710W        W24326  19.154  35.054  10.901
52711W        W24327   1.529  21.483  13.004
52712W        W24328  19.028   7.730  13.648
52713W        W24329  12.637   2.759  14.329
52714W        W24330  43.221  31.921  10.694
52715W        W24331  15.211  15.875  13.351
52716W        W24332  30.603  19.207   1.852
52717W        W24333   3.216  20.246  12.858
52718W        W24334  39.401  16.291  13.095
52719W        W24335  36.379   1.321   1.884
52720W        W24336  18.543  32.279   1.383
52721W        W24337  44.427   5.486  12.614
52722W        W24338  17.737  15.552   1.279
52723W        W24339   8.418  39.793  14.266
52724W        W24340  11.577   7.616   4.883
52725W        W24341  20.258  21.051  10.162
52726W        W24342  44.943  19.790   2.726
52727W        W24343  17.329  37.559   2.753
52728W        W24344   3.643  35.606   1.900
52729W        W24345  10.820  10.313   4.520
52730W        W24346   2.785  22.601   4.165
52731W        W24347  39.452  27.648   1.920
52732W        W24348  44.589  30.942   1.268
52733W        W24349  20.298  19.796  13.425
52734W        W24350  12.311  21.531  12.621
52735W        W24351  17.034  16.345   3.739
52736W        W24352  14.728  40.973  13.831
52737W        W24353   4.699  10.400   1.309
52738W        W24354  15.082  26.218   4.578
52739W        W24355  35.634  34.520   3.335
52740W        W24356  41.547  43.311  12.346
52741W        W24357  35.429   6.731   4.843
52742W        W24358  32.192   1.349  13.852
52743W        W24359  17.738  33.090  11.916
52744W        W24360  39.522   4.678  11.151
52745W        W24361  44.081   4.125  12.404
52746W        W24362  34.445  37.589  13.345
52747W        W24363  20.748  32.545   4.463
52748W        W24364  44.545  23.059   3.770
52749W        W24365  44.315  42.029  14.418
52750W        W24366  31.306   4.214  12.088
52751W        W24367  29.898  17.124   4.510
52752W        W24368   8.874   8.868   4.981
52753W        W24369  16.150  27.538   0.813
52754W        W24370  15.621  42.958  10.380
52755W        W24371  20.638  18.701   0.822
52756W        W24372  26.604  37.906  13.021
52757W        W24373   3.125  40.871   2.257
52758W        W24374  41.521  40.309  12.429
52759W        W24375  14.553  14.781  11.570
52760W        W24376  33.653  16.676   0.089
52761W        W24377   9.845  12.582   3.627
52762W        W24378  30.884   9.589  13.390
52763W        W24379  26.245  31.540  12.058
52764W        W24380  22.231  25.542   1.344
52765W        W24381  17.524  37.368   4.559
52766W        W24382  29.469  16.151   4.235
52767W        W24383   4.738  26.453   1.218
52768W        W24384  16.183  10.788   1.684
52769W        W24385  40.756  38.121   3.755
52770W        W24386  20.409  42.992  14.577
52771W        W24387  29.447  33.990   0.442
52772W        W24388   3.890   4.642  14.396
52773W        W24389   5.822  21.866   2.689
52774W        W24390  34.962  20.270   3.712
52775W        W24391  40.442  35.995   0.996
52776W        W24392  28.047   9.722   2.882
52777W        W24393   8.386  22.917  10.937
52778W        W24394  35.359  16.298  11.125
52779W        W24395  21.304  16.833   2.782
52780W        W24396  27.866  27.151   2.160
52781W        W24397  17.236  11.596  13.457
52782W        W24398  34.432  33.977   4.388
52783W        W24399  42.877   4.132  12.105
52784W        W24400  13.633  19.882  11.021
52785W        W24401  23.634  30.508  10.611
52786W        W24402  16.848  41.354   3.234
52787W        W24403  36.508  16.489   4.515
52788W        W24404   9.105  25.499  14.223
52789W        W24405  21.156  24.960  12.810
52790W        W24406   0.669  42.079  14.322
52791W        W24407   4.181   1.526   4.619
52792W        W24408  10.719   1.490   4.280
52793W        W24409  27.345  39.396  10.610
52794W        W24410  33.506  22.755  14.826
52795W        W24411  11.264   3.379   0.110
52796W        W24412   1.055   9.208  10.584
52797W        W24413  24.529  22.052  13.836
52798W        W24414  34.297  13.759   1.037
52799W        W24415  18.436  14.274   4.117
52800W        W24416   8.419  21.514   2.400
52801W        W24417  19.571  14.430  12.065
52802W        W24418  37.226   3.323  12.880
52803W        W24419  27.520   5.667  14.392
52804W        W24420  41.877   7.587  10.923
52805W        W24421  39.096  16.678  14.480
52806W        W24422  17.694  41.415  13.476
52807W        W24423  11.777  17.226   3.356
52808W        W24424   7.246   6.844  14.497
52809W        W24425  42.020  24.440  11.531
52810W        W24426  14.932  22.673  10.740
52811W        W24427  33.157  36.030   1.138
52812W        W24428  34.458  20.474  13.156
52813W        W24429  19.068  31.210  12.567
52814W        W24430  42.727  24.943  13.938
52815W        W24431   2.807  26.488  14.310
52816W        W24432   4.854  19.172  14.960
52817W        W24433  43.418   6.096   4.186
52818W        W24434  11.862  24.682   0.898
52819W        W24435  27.098  26.053  11.985
52820W        W24436   6.112  31.113   3.781
52821W        W24437  36.038  14.848  10.630
52822W        W24438   5.173   4.813   2.725
52823W        W24439  44.306   5.363  12.126
52824W        W24440  11.710  23.085   2.894
52825W        W24441  13.091  43.620   1.903
52826W        W24442  16.146  11.294  14.027
52827W        W24443  20.200   6.483  12.060
52828W        W24444  41.861  26.014   2.960
52829W        W24445  32.557  31.654  11.131
52830W        W24446  25.563  32.643   3.811
52831W        W24447  11.627   0.516   1.237
52832W        W24448  42.016  28.049   4.480
52833W        W24449  34.646  44.942  14.033
52834W        W24450  22.226  13.255  13.928
52835W        W24451  17.559  11.904   0.162
52836W        W24452  42.453  12.348   1.752
52837W        W24453   0.695   9.722  14.282
52838W        W24454   2.478   6.356  13.413
52839W        W24455  40.234  20.907   3.362
52840W        W24456  25.495  26.865   1.824
52841W        W24457  42.171  16.605  12.925
52842W        W24458   5.314   6.632  11.153
52843W        W24459  31.462  41.050   1.392
52844W        W24460  23.736  29.478   0.712
52845W        W24461  37.481   8.565   3.753
52846W        W24462  36.505  41.770   1.981
52847W        W24463  10.092  32.575   1.344
52848W        W24464  24.021   2.348  13.904
52849W        W24465  27.201  25.532  12.575
52850W        W24466  15.778  17.350   1.292
52851W        W24467  41.846  31.024  10.827
52852W        W24468  33.458   5.465   2.842
52853W        W24469   5.808   0.945  13.995
52854W        W24470  36.893  27.048   3.810
52855W        W24471  30.663  20.026   2.390
52856W        W24472   5.548  38.487  12.577
52857W        W24473  11.695  35.876   0.916
52858W        W24474   4.908   2.569   3.019
52859W        W24475  25.399  40.458   4.991
52860W        W24476  22.561  13.642   0.355
52861W        W24477   8.860  24.220  11.200
52862W        W24478  32.363  18.719  14.465
52863W        W24479   0.207  22.589   5.079
52864W        W24480  30.874  31.008   2.052
52865W        W24481   1.046  43.600  10.772
52866W        W24482  11.783  23.533   4.198
52867W        W24483  42.433  31.464   0.795
52868W        W24484  18.870  39.565   2.844
52869W        W24485  16.570   9.508   3.963
52870W        W24486  16.051   2.376   3.903
52871W        W24487  11.127  15.732  12.452
52872W        W24488  11.200  12.179   0.233
52873W        W24489   2.647  33.977   3.707
52874W        W24490  36.988  10.168   3.326
52875W        W24491  42.481  17.582   4.401
52876W        W24492  33.746  37.582   5.118
52877W        W24493  24.009  32.061  14.266
52878W        W24494  13.164  22.039  13.412
52879W        W24495  34.471   1.140   3.067
52880W        W24496  37.075  18.985   4.541
52881W        W24497  31.466  10.758  14.983
52882W        W24498  24.515   8.649   0.230
52883W        W24499  21.205  37.363  12.782
52884W        W24500  37.642  31.614  10.439
52885W        W24501  42.470  28.612  10.769
52886W        W24502  30.378  40.271  14.354
52887W        W24503  44.537  22.878   2.716
52888W        W24504  16.549  12.215   4.392
52889W        W24505  43.371  15.299  11.826
52890W        W24506   0.929  19.691  10.774
52891W        W24507  28.104  40.060   1.189
52892W        W24508  21.589  10.135  13.502
52893W        W24509  27.549  13.704  14.949
52894W        W24510  17.149  12.914   0.826
52895W        W24511  18.674   0.862   3.574
52896W        W24512   4.261  38.286  14.815
52897W        W24513  27.919   9.910   3.878
52898W        W24514  20.859   8.190   4.722
52899W        W24515  43.389  41.843  14.983
52900W        W24516  33.634  28.600  13.858
52901W        W24517  20.519  24.686   0.356
52902W        W24518  36.382  25.960   1.767
52903W        W24519  21.676  24.391  14.353
52904W        W24520  40.364  11.733  14.717
52905W        W24521  35.857  38.355   4.264
52906W        W24522  28.460  24.445   1.081
52907W        W24523   6.152   3.846  14.328
52908W        W24524   2.492  11.654   4.094
52909W        W24525  29.739  14.386   0.224
52910W        W24526  35.885  24.137  14.973
52911W        W24527  43.285   8.657  11.193
52912W        W24528  32.395   5.127  14.856
52913W        W24529  18.202  27.179  11.623
52914W        W24530  25.627   5.330  14.730
52915W        W24531   0.363  35.351   2.881
52916W        W24532  21.086  43.861   2.262
52917W        W24533   0.996  21.995   4.954
52918W        W24534  29.500  11.264   4.087
52919W        W24535   1.285  29.956  12.146
52920W        W24536  18.710  21.478  13.214
52921W        W24537  15.186  20.553  11.157
52922W        W24538  43.923  19.121  14.910
52923W        W24539   9.777  17.471   3.841
52924W        W24540  22.026  21.021   0.288
52925W        W24541   3.800   1.959   4.936
52926W        W24542   8.349  13.483  10.756
52927W        W24543  24.284  27.917  13.469
52928W        W24544  12.274  40.838   0.386
52929W        W24545  15.590  28.939  13.930
52930W        W24546  17.936  31.897   2.190
52931W        W24547  20.664  22.439   1.268
52932W        W24548   9.806  37.093  12.620
52933W        W24549  38.240  40.849  11.225
52934W        W24550   3.339  29.055   3.289
52935W        W24551  15.261  22.130  14.836
52936W        W24552   7.721   4.891  12.897
52937W        W24553  40.271  42.815   4.566
52938W        W24554  25.217  30.561   3.829
52939W        W24555  33.518  11.573  11.179
52940W        W24556  12.128  25.649   1.880
52941W        W24557   0.441  29.532   3.388
52942W        W24558  21.051   8.898   3.107
52943W        W24559  19.818  37.458  11.589
52944W        W24560   7.914  17.642   3.190
52945W        W24561   5.598  34.072   0.154
52946W        W24562  21.664   8.358  12.062
52947W        W24563  22.175  11.580  11.889
52948W        W24564  44.629  12.450   4.546
52949W        W24565  39.799  40.992   4.162
52950W        W24566  30.370  32.610   3.180
52951W        W24567  43.990  39.107  13.348
52952W        W24568  38.749  12.243   0.952
52953W        W24569   6.519   1.953   4.598
52954W        W24570  10.298  36.951  10.174
52955W        W24571  14.363   8.296   2.409
52956W        W24572  35.335  37.563  14.823
52957W        W24573  25.607   9.817  11.535
52958W        W24574   8.512  31.701  12.909
52959W        W24575  15.703  44.446   2.872
52960W        W24576   2.196   3.294  11.159
52961W        W24577   4.383  37.367  11.060
52962W        W24578   3.267  42.412   4.645
52963W        W24579  35.978   2.826   1.289
52964W        W24580  28.861  19.652  11.143
52965W        W24581  20.814   8.946   1.164
52966W        W24582  39.528  28.634  11.375
52967W        W24583  41.695  26.942  12.505
52968W        W24584  33.341  39.314  14.793
52969W        W24585  30.397  37.300   4.144
52970W        W24586  29.224  10.069  12.026
52971W        W24587   6.229  15.011  11.130
52972W        W24588   0.550  15.157  12.028
52973W        W24589  19.825  25.038   2.554
52974W        W24590  43.442  42.689   4.275
52975W        W24591  14.488  23.980  13.551
52976W        W24592  31.529  11.896  13.520
52977W        W24593  39.501  10.648  14.404
52978W        W24594   5.331  36.301  12.485
52979W        W24595  36.698  40.840   1.775
52980W        W24596  42.983  10.903   4.542
52981W        W24597  36.101  32.769   4.612
52982W        W24598  18.218  40.630  14.099
52983W        W24599  42.738  29.713   1.386
52984W        W24600  15.877   4.735  11.089
52985W        W24601  22.618  30.136   1.852
52986W        W24602  25.209  32.695  12.984
52987W        W24603  25.472  16.677   2.219
52988W        W24604  29.932   5.854  14.320
52989W        W24605   3.590  41.515  13.038
52990W        W24606  15.843  41.392   0.774
52991W        W24607  42.015   1.466   1.977
52992W        W24608  30.531   3.123   3.627
52993W        W24609   9.217  40.255   0.026
52994W        W24610  23.244   3.416  13.955
52995W        W24611   4.895  32.384   1.858
52996W        W24612  35.369  25.128  14.199
52997W        W24613  21.040  19.704   0.309
52998W        W24614  11.690   5.482   0.233
52999W        W24615  36.057  21.312   1.871
53000W        W24616  24.998  12.314   0.392
53001W        W24617  36.957  21.652   1.337
53002W        W24618  17.273  36.500   1.313
53003W        W24619  37.353  24.727   1.409
53004W        W24620  42.812   4.321   0.217
53005W        W24621  34.411  13.608  14.012
53006W        W24622   2.430  39.397  11.579
53007W        W24623  12.291  28.883  11.159
53008W        W24624  26.156  18.202   3.162
53009W        W24625   9.126   4.750   1.407
53010W        W24626  30.720  35.862  11.551
53011W        W24627  10.946  32.427  11.550
53012W        W24628   5.236  43.645   0.402
53013W        W24629   7.188  24.165  10.786
53014W        W24630  35.593   8.172   4.329
53015W        W24631  21.240  21.896   4.083
53016W        W24632  33.046  40.582  13.909
53017W        W24633  18.363  22.993   2.091
53018W        W24634  16.706   8.527  10.808
53019W        W24635   5.474  13.293  11.972
53020W        W24636   8.551  41.302   3.140
53021W        W24637  18.754  33.151   0.310
53022W        W24638  22.543   8.453  14.024
53023W        W24639  44.715  23.741  12.351
53024W        W24640  35.627   2.518   4.100
53025W        W24641  14.085  37.518   2.171
53026W        W24642  16.200  25.139   4.696
53027W        W24643   9.069   8.300   0.941
53028W        W24644  26.235  22.276  14.694
53029W        W24645   7.880  10.112  13.573
53030W        W24646  31.439  24.128  14.283
53031W        W24647  10.133   8.493   1.850
53032W        W24648  42.175   0.980   2.207
53033W        W24649  31.486  14.849  11.662
53034W        W24650  38.351  37.534   2.775
53035W        W24651  20.042  14.299  11.881
53036W        W24652  20.075  22.880   2.373
53037W        W24653  14.680  12.899  12.545
53038W        W24654  28.908  24.615   1.395
53039W        W24655   2.013  20.810  14.707
53040W        W24656  35.894   0.528  12.611
53041W        W24657  24.742  26.533   0.264
53042W        W24658  26.870  22.986  13.069
53043W        W24659  34.856  26.844  14.291
53044W        W24660   1.308  28.719   1.403
53045W        W24661   8.658  17.258  10.482
53046W        W24662  40.030  42.834  12.468
53047W        W24663  15.207   9.358  10.730
53048W        W24664  22.780   6.797  14.488
53049W        W24665  21.672  18.142   3.356
53050W        W24666   4.897   4.262  11.013
53051W        W24667   0.871   0.961  14.515
53052W        W24668   4.192  16.236   1.156
53053W        W24669   3.729   0.431   2.444
53054W        W24670  32.892  12.713  14.092
53055W        W24671  15.242  24.172  13.145
53056W        W24672  39.316  42.395  14.106
53057W        W24673   8.028   1.880  11.177
53058W        W24674  10.965   3.748  11.224
53059W        W24675   3.409  34.044   0.988
53060W        W24676   2.623  17.287  14.613
53061W        W24677  13.973   6.252   1.202
53062W        W24678  21.066  22.940   4.952
53063W        W24679   1.749  27.377   1.643
53064W        W24680  23.433  13.387  14.461
53065W        W24681  22.646  34.037   2.904
53066W        W24682  22.071   9.985   1.084
53067W        W24683  15.569  11.270   1.141
53068W        W24684  27.455  27.140   4.757
53069W        W24685  13.283  39.791  13.463
53070W        W24686  42.495  42.873  12.798
53071W        W24687  11.004  21.772   2.938
53072W        W24688  20.547  24.143  12.621
53073W        W24689  28.971  27.659   0.263
53074W        W24690  10.345  24.538   4.187
53075W        W24691  32.148  17.414   3.682
53076W        W24692   7.800  25.372  11.194
53077W        W24693  39.881  28.533   4.550
53078W        W24694   4.995  13.285  14.110
53079W        W24695  14.564  42.731   3.660
53080W        W24696   1.780  16.485  10.770
53081W        W24697   8.751  27.743   1.412
53082W        W24698  21.688  23.704   2.909
53083W        W24699  32.582  35.006  14.315
53084W        W24700   7.325   0.898   1.930
53085W        W24701  39.967  24.712  12.982
53086W        W24702  42.310  38.359   2.010
53087W        W24703  15.165   8.940   4.664
53088W        W24704  31.183  33.549   1.769
53089W        W24705   9.675   4.391   3.431
53090W        W24706  11.327  11.223   4.022
53091W        W24707  31.056  43.837  13.435
53092W        W24708  44.801  21.978   1.921
53093W        W24709  20.060  14.389   1.841
53094W        W24710   7.339  19.285   3.180
53095W        W24711  13.908  13.295   2.788
53096W        W24712  32.684  14.282   3.578
53097W        W24713  32.105  33.029  10.541
53098W        W24714  29.580   1.854  12.046
53099W        W24715  39.038  43.800  12.396
53100W        W24716  23.584  20.528  12.088
53101W        W24717  20.217  12.675  11.589
53102W        W24718  36.325  30.465   0.810
53103W        W24719  17.612  26.259   1.307
53104W        W24720  16.453  24.601  14.973
53105W        W24721  13.337  42.665   1.053
53106W        W24722  29.677  17.329  13.466
53107W        W24723  34.846   9.162   0.826
53108W        W24724  26.691   1.945   2.797
53109W        W24725  37.138  10.789  13.902
53110W        W24726   5.267  22.513   2.299
53111W        W24727   6.993  31.743  13.850
53112W        W24728  29.193  29.482  11.597
53113W        W24729  10.909   2.856   1.388
53114W        W24730   8.357  35.094   2.303
53115W        W24731  36.110   4.285   1.730
53116W        W24732  16.291  34.802  11.460
53117W        W24733  20.104  29.702  10.298
53118W        W24734  29.578  32.862   3.217
53119W        W24735  32.166  36.340  14.570
53120W        W24736   4.798  19.594  12.427
53121W        W24737  34.420   0.079   2.705
53122W        W24738  41.952  23.945  10.664
53123W        W24739   1.788  44.692   3.357
53124W        W24740  10.297  36.606   2.187
53125W        W24741  16.714  31.197  12.509
53126W        W24742   8.996   9.906  14.822
53127W        W24743  23.053  28.210  10.765
53128W        W24744   7.375  30.446   3.598
53129W        W24745  38.598  41.037  13.600
53130W        W24746  26.639  13.785   1.897
53131W        W24747   8.688  38.102   2.569
53132W        W24748  10.929  24.024   0.846
53133W        W24749  16.746   8.425   3.780
53134W        W24750  34.053  31.937   4.615
53135W        W24751   3.437  26.673   1.276
53136W        W24752  33.739  11.330  14.852
53137W        W24753  35.626  41.889   1.451
53138W        W24754   1.321  32.488   1.383
53139W        W24755  33.593  11.097   0.452
53140W        W24756  37.473   3.564   4.008
53141W        W24757  28.170  43.084   4.198
53142W        W24758  14.470  42.942  12.524
53143W        W24759   3.255   1.250  11.508
53144W        W24760  15.788  34.886  10.546
53145W        W24761  36.898  43.928   0.524
53146W        W24762  25.158   8.227   0.729
53147W        W24763  19.786  23.164  12.705
53148W        W24764  38.380  29.014  10.760
53149W        W24765  26.070  15.376  13.087
53150W        W24766  34.904  40.895  12.807
53151W        W24767  21.594   7.880  14.418
53152W        W24768  43.333  18.946  13.856
53153W        W24769   0.295   8.907   0.043
53154W        W24770   7.946  42.194   4.759
53155W        W24771   5.392  22.040  14.051
53156W        W24772  24.405  17.332   3.345
53157W        W24773  10.392  28.643  11.111
53158W        W24774  16.697  32.075  13.354
53159W        W24775  33.311  18.071   3.970
53160W        W24776  12.146  18.704   3.293
53161W        W24777  12.310   2.259  12.005
53162W        W24778  36.086  24.502  11.535
53163W        W24779  26.954   4.942   2.413
53164W        W24780  19.153   6.785   0.483
53165W        W24781  44.214  38.008   1.190
53166W        W24782   3.240  25.546  11.905
53167W        W24783  35.170  30.992  14.548
53168W        W24784   4.422   1.823  10.068
53169W        W24785  10.211  19.156  10.713
53170W        W24786  15.303  42.876   0.271
53171W        W24787  43.801  30.731   2.225
53172W        W24788  32.522  14.171   0.891
53173W        W24789   0.000  27.068  14.429
53174W        W24790   5.868  26.680   3.879
53175W        W24791  17.318  26.472  11.025
53176W        W24792  35.845   0.835  14.908
53177W        W24793  12.159   3.751   3.275
53178W        W24794   8.290  36.633   2.335
53179W        W24795  36.972   2.240   3.854
53180W        W24796  17.611   7.075   3.184
53181W        W24797  29.127  25.518  10.575
53182W        W24798   5.964  23.624   0.237
53183W        W24799  19.617  37.409   4.668
53184W        W24800  37.366  26.680   2.434
53185W        W24801  40.508  11.877  13.309
53186W        W24802  13.255  30.165  12.370
53187W        W24803  37.680   4.726   2.302
53188W        W24804   9.829  16.921   3.836
53189W        W24805  34.840  20.223   4.219
53190W        W24806  18.483  18.768   4.641
53191W        W24807  32.538   5.944   3.761
53192W        W24808  10.343   5.017   3.002
53193W        W24809   0.312  23.246   4.656
53194W        W24810  26.279  34.947  14.768
53195W        W24811  28.555  16.343  11.176
53196W        W24812  35.897  33.472  13.810
53197W        W24813  18.147  39.685   4.025
53198W        W24814   6.914   1.698   2.893
53199W        W24815   0.502  29.662   1.754
53200W        W24816   6.837  34.119   1.177
53201W        W24817  37.944  16.135   3.825
53202W        W24818  36.145  40.905  14.437
53203W        W24819  18.804  11.016  11.294
53204W        W24820  15.303  12.399  12.004
53205W        W24821  24.180  40.958   1.209
53206W        W24822  14.177  27.533  11.618
53207W        W24823  42.441  15.287   1.978
53208W        W24824  26.488   5.188   1.627
53209W        W24825  28.976  40.082   1.162
53210W        W24826  18.163  33.011  14.039
53211W        W24827  10.425  19.701   3.739
53212W        W24828  12.102  38.346   1.867
53213W        W24829   2.896   2.909   3.787
53214W        W24830  33.819  36.519  11.629
53215W        W24831  27.177   3.689   1.755
53216W        W24832  31.562  32.857   2.811
53217W        W24833  15.030  11.191   0.363
53218W        W24834  14.585  21.985   0.485
53219W        W24835  29.625  41.115   4.898
53220W        W24836   6.155   3.396  12.500
53221W        W24837  39.999  32.327   2.947
53222W        W24838  41.435  25.223  13.604
53223W        W24839  37.594  40.299   1.251
53224W        W24840  38.475  33.896   3.678
53225W        W24841  40.364  20.675  12.391
53226W        W24842   4.215  29.107  12.077
53227W        W24843  23.933  18.584   3.080
53228W        W24844  22.632   5.188  13.901
53229W        W24845   4.031  27.710  10.299
53230W        W24846  27.296  15.488   0.883
53231W        W24847  34.371   3.931   2.779
53232W        W24848  43.733   3.246  11.343
53233W        W24849   4.640  15.734  13.968
53234W        W24850   2.302  13.121  13.545
53235W        W24851  13.817   1.738  10.673
53236W        W24852  21.331  16.592   0.758
53237W        W24853  39.067  13.223   0.875
53238W        W24854  41.541  41.191   1.796
53239W        W24855  33.008  25.060   0.105
53240W        W24856  20.798   3.860   4.561
53241W        W24857  32.166  15.892  11.029
53242W        W24858   3.904  38.753   2.135
53243W        W24859  33.118  29.267  13.285
53244W        W24860  21.465  44.767   0.388
53245W        W24861  35.423  42.359  12.217
53246W        W24862  23.765  14.309   4.576
53247W        W24863  17.183  33.329  13.083
53248W        W24864   6.802  23.721   3.653
53249W        W24865  14.670  24.048  12.881
53250W        W24866  16.683  28.539  11.754
53251W        W24867  10.393  19.310  12.994
53252W        W24868   5.700  19.287  13.861
53253W        W24869  32.703  12.959  10.671
53254W        W24870  31.478  20.499   2.473
53255W        W24871   6.258  37.095  10.508
53256W        W24872  26.133  30.920   0.675
53257W        W24873  26.422  33.584   4.142
53258W        W24874  31.159  25.275  13.721
53259W        W24875  20.031   6.911   1.865
53260W        W24876  10.430   8.008  13.481
53261W        W24877  36.372  40.222  11.987
53262W        W24878  21.586   2.921   3.556
53263W        W24879  33.496  26.085  13.144
53264W        W24880  18.991  11.331  11.663
53265W        W24881  42.505   5.879  14.410
53266W        W24882  26.074  16.716  12.888
53267W        W24883  13.003   5.885   3.776
53268W        W24884  14.549  22.660   4.399
53269W        W24885  15.747  37.350  13.072
53270W        W24886   7.843   8.845   0.664
53271W        W24887  33.143  26.537   0.492
53272W        W24888  39.520  26.765  11.970
53273W        W24889  34.473  14.372   1.754
53274W        W24890  27.264  27.709  14.315
53275W        W24891  39.810  10.576   2.864
53276W        W24892  41.779  42.058  13.501
53277W        W24893  28.903  21.037  12.519
53278W        W24894   4.282   1.784  12.486
53279W        W24895   1.898  33.610   4.318
53280W        W24896  38.453  39.486  11.847
53281W        W24897  23.697  38.456   2.722
53282W        W24898  26.029   6.787   3.600
53283W        W24899  27.511  35.123  14.338
53284W        W24900  24.748  27.466  11.913
53285W        W24901   5.966  19.607   1.929
53286W        W24902   6.768  27.159  13.562
53287W        W24903  43.325  35.946  12.691
53288W        W24904  11.207   9.707   0.273
53289W        W24905  20.600  39.018   3.164
53290W        W24906  18.007  29.578  11.201
53291W        W24907   6.691  40.110   0.914
53292W        W24908  43.820  36.360  10.938
53293W        W24909   9.754  24.513  10.399
53294W        W24910   6.209  42.323   3.359
53295W        W24911   9.808   7.045   2.786
53296W        W24912   6.906  36.314   1.832
53297W        W24913  37.058  18.728  12.472
53298W        W24914  11.531  16.771  14.485
53299W        W24915   9.314  16.640  14.289
53300W        W24916   6.414  14.776  14.352
53301W        W24917  21.081  13.624   1.295
53302W        W24918  30.905  36.135   0.955
53303W        W24919  38.823   5.334  11.046
53304W        W24920   9.249  19.224  11.460
53305W        W24921  43.673  32.245   3.667
53306W        W24922  42.996  26.626   2.835
53307W        W24923  24.758  26.166   2.453
53308W        W24924  32.083  18.667  11.144
53309W        W24925  26.011  23.181  12.871
53310W        W24926  43.685  24.748   2.315
53311W        W24927   9.341  28.794   3.721
53312W        W24928  20.017  29.287  11.151
53313W        W24929   3.620  19.141  12.223
53314W        W24930  13.721  11.079   4.800
53315W        W24931  10.784  41.020  14.244
53316W        W24932  21.059  17.992  13.841
53317W        W24933  39.198  36.580   2.685
53318W        W24934  35.118   9.361   1.376
53319W        W24935  42.287   8.650  11.549
53320W        W24936  21.243  25.172   3.150
53321W        W24937  29.971  25.607   3.802
53322W        W24938  24.245  16.626   2.837
53323W        W24939  44.755   3.675   2.185
53324W        W24940  31.808  26.699   3.556
53325W        W24941  11.274  17.243   4.884
53326W        W24942   4.286  29.406  13.922
53327W        W24943  20.926  19.820   2.704
53328W        W24944  39.436  37.522  12.974
53329W        W24945  39.307   6.865   2.245
53330W        W24946  39.417  13.584   9.537
53331W        W24947  22.527  12.201  14.346
53332W        W24948  44.957  20.720   1.352
53333W        W24949   1.027  18.756   2.759
53334W        W24950  38.851  35.630  10.626
53335W        W24951  38.981  11.689  14.407
53336W        W24952  13.790  26.042  12.071
53337W        W24953  29.967   7.441  11.172
53338W        W24954   3.014   1.056   0.034
53339W        W24955  18.067  26.530  14.583
53340W        W24956  38.509  10.365   2.278
53341W        W24957  37.652  12.279  13.846
53342W        W24958  24.431   2.854  14.303
53343W        W24959  15.903  21.950   2.280
53344W        W24960  42.256  24.179   0.903
53345W        W24961  35.610  28.058   4.720
53346W        W24962   7.421   4.225   4.431
53347W        W24963  13.270   3.428   5.049
53348W        W24964   1.327  19.008  12.010
53349W        W24965  39.106  11.854  13.898
53350W        W24966  10.284   6.975  11.139
53351W        W24967   6.294  34.012  12.888
53352W        W24968   1.127  38.980   2.857
53353W        W24969  15.697   3.616   3.601
53354W        W24970  29.587  15.554   0.841
53355W        W24971  11.544  28.614  14.868
53356W        W24972  23.225  39.967   1.860
53357W        W24973  39.440  30.450   1.518
53358W        W24974  21.748  36.420   0.394
53359W        W24975  21.668  10.856  10.681
53360W        W24976   6.926  16.156   3.662
53361W        W24977   7.437  40.013   2.250
53362W        W24978  29.419  43.882   1.307
53363W        W24979  17.800  10.984  12.841
53364W        W24980  15.749   2.321   4.760
53365W        W24981  42.899  16.135   4.980
53366W        W24982  32.589  37.434  11.720
53367W        W24983  14.221  44.413   4.652
53368W        W24984  14.792  26.491   4.235
53369W        W24985  19.621  30.881   3.650
53370W        W24986  18.652  31.197   2.150
53371W        W24987  17.613   8.920   4.784
53372W        W24988  25.486   8.039  13.583
53373W        W24989  32.127  16.717   0.979
53374W        W24990  42.173  26.770  12.544
53375W        W24991   6.298  21.268  11.707
53376W        W24992   6.272  39.951  13.516
53377W        W24993  32.070  34.800   1.706
53378W        W24994  39.575  12.710  12.929
53379W        W24995   5.726  19.152   2.613
53380W        W24996  28.562  27.495   4.394
53381W        W24997  15.847  35.640  12.029
53382W        W24998  32.516  31.343   1.331
53383W        W24999   5.209  15.150  14.314
53384W        W25000  38.338  32.996   0.260
53385W        W25001  29.936  30.486  10.419
53386W        W25002  28.594  12.853   4.421
53387W        W25003   9.395  22.063   2.817
53388W        W25004  19.287  12.233  13.374
53389W        W25005  31.400   7.292   4.165
53390W        W25006   8.871   1.765   3.703
53391W        W25007  44.986  18.187  11.993
53392W        W25008  24.752   0.669   4.234
53393W        W25009  22.579   1.803   1.773
53394W        W25010   2.748   7.654  13.122
53395W        W25011  24.226  18.173  13.283
53396W        W25012  16.026  35.379  12.450
53397W        W25013  25.141  36.349   3.457
53398W        W25014  35.389  22.058  12.546
53399W        W25015  41.857   3.241   1.676
53400W        W25016  26.609  42.908  13.540
53401W        W25017  21.469  31.988   0.319
53402W        W25018  44.230  38.553   4.124
53403W        W25019  33.855  18.086   1.380
53404W        W25020   0.729  39.992   3.876
53405W        W25021  23.150  28.556  14.298
53406W        W25022  22.242  19.816   2.047
53407W        W25023  42.273   1.688  14.801
53408W        W25024  23.674  22.550   4.608
53409W        W25025  13.419  25.798  10.348
53410W        W25026   4.805  44.310  13.387
53411W        W25027  44.456   8.411   0.799
53412W        W25028  43.302  19.047  12.950
53413W        W25029  43.365   8.887   0.476
53414W        W25030   7.654  10.856   3.122
53415W        W25031  23.081  22.693  13.887
53416W        W25032  25.908  41.834  14.506
53417W        W25033  35.083  37.900   4.602
53418W        W25034   2.984   0.831  12.895
53419W        W25035  22.262  37.450  11.194
53420W        W25036  10.280  13.072  11.523
53421W        W25037  25.635  32.384   4.578
53422W        W25038   8.635  22.165   1.945
53423W        W25039  13.237   1.437  14.296
53424W        W25040  12.723  33.683  11.532
53425W        W25041  32.928  18.185   1.206
53426W        W25042  44.454  38.070   3.237
53427W        W25043  31.394  40.971  12.018
53428W        W25044   9.267  14.143   0.469
53429W        W25045  40.835  13.179   4.067
53430W        W25046  37.624  44.806   3.094
53431W        W25047  42.263  43.985   3.675
53432W        W25048   0.591  40.743   2.802
53433W        W25049   6.329  25.057  13.374
53434W        W25050  34.910  27.608  13.329
53435W        W25051  43.499  28.995   0.032
53436W        W25052  15.832  33.661   0.731
53437W        W25053  33.675  31.145   0.348
53438W        W25054  33.926  10.662   0.026
53439W        W25055   6.725  23.201  10.610
53440W        W25056   4.831   6.136  12.005
53441W        W25057  29.059  28.620   0.410
53442W        W25058  26.612  10.181   1.085
53443W        W25059  14.032  23.905  14.385
53444W        W25060  11.735  40.587  11.401
53445W        W25061  38.810   5.936  14.741
53446W        W25062  37.942  23.131   2.463
53447W        W25063  21.226  36.415  12.388
53448W        W25064  17.628  27.393  14.925
53449W        W25065  31.690   2.775  11.952
53450W        W25066  16.176   3.825  11.516
53451W        W25067  19.630   0.314  11.767
53452W        W25068   9.325  38.283  12.133
53453W        W25069  20.918  26.010  13.425
53454W        W25070   4.644   5.782   0.872
53455W        W25071  39.433  28.449   1.315
53456W        W25072   1.910  40.273  10.706
53457W        W25073  32.103  31.122  11.522
53458W        W25074  18.549  10.091  11.828
53459W        W25075   8.615  39.238   1.825
53460W        W25076  23.473   8.897   3.461
53461W        W25077  39.352   1.741  10.904
53462W        W25078  27.130  22.767  13.877
53463W        W25079  21.557  13.858   1.740
53464W        W25080  14.672  38.794   3.965
53465W        W25081   3.329   5.013   5.183
53466W        W25082  22.644   7.279  11.459
53467W        W25083   1.375  11.309   1.310
53468W        W25084   0.569  35.162  14.589
53469W        W25085   5.326  24.123  12.961
53470W        W25086  40.290  12.386  12.421
53471W        W25087   6.432  29.091   4.182
53472W        W25088  41.819  30.093  13.482
53473W        W25089   1.227  32.446  13.435
53474W        W25090  39.861  44.817   0.778
53475W        W25091  25.669   7.927  12.339
53476W        W25092  31.633   6.561  12.434
53477W        W25093  26.643  44.690  14.333
53478W        W25094  12.660  36.076  11.169
53479W        W25095  18.115  11.158  14.370
53480W        W25096  36.020   0.383   0.681
53481W        W25097  31.884  11.583   2.423
53482W        W25098  40.947  16.081  14.497
53483W        W25099  29.634  22.679  13.614
53484W        W25100  42.150  35.779   5.631
53485W        W25101  25.162  11.274  12.500
53486W        W25102   4.651  24.509   2.842
53487W        W25103  35.983   4.857  13.077
53488W        W25104  28.872  16.607   1.442
53489W        W25105  31.555   0.950  13.289
53490W        W25106  19.177   9.408  13.004
53491W        W25107   8.749  24.119  10.706
53492W        W25108  41.082  35.523   0.515
53493W        W25109  17.631  42.999   2.189
53494W        W25110  29.241  11.202  13.303
53495W        W25111  19.323  22.593   4.326
53496W        W25112  24.171  13.184   4.688
53497W        W25113   9.766  27.606  13.288
53498W        W25114  40.910  42.396   1.843
53499W        W25115  39.203  24.491  13.533
53500W        W25116  15.840  17.265  10.665
53501W        W25117  16.215   3.104  13.451
53502W        W25118  16.706  25.441  10.643
53503W        W25119   1.508   3.921  14.312
53504W        W25120  12.045  21.121  11.510
53505W        W25121   6.235  27.988   3.744
53506W        W25122  20.248  13.152  12.975
53507W        W25123  33.061  33.856   2.663
53508W        W25124  30.627   5.944  13.429
53509W        W25125  11.329   0.410  14.865
53510W        W25126   5.423   5.384   3.741
53511W        W25127  13.358  24.006   1.041
53512W        W25128  44.872  39.533  14.976
53513W        W25129  32.333  37.624   4.215
53514W        W25130  10.643  23.458  14.420
53515W        W25131   4.749  37.505  14.053
53516W        W25132  22.294  24.091   1.193
53517W        W25133  19.812  21.034  14.753
53518W        W25134   6.765  23.321   1.935
53519W        W25135   7.437  40.487  11.592
53520W        W25136  15.031   6.152  11.013
53521W        W25137  36.104  18.334   2.703
53522W        W25138  17.983  30.012  12.010
53523W        W25139  30.149  11.587   3.721
53524W        W25140  15.760  19.114   0.048
53525W        W25141  39.470  40.028   3.857
53526W        W25142  21.473  17.270  14.945
53527W        W25143  14.004  39.912  12.518
53528W        W25144  21.345  10.394  10.569
53529W        W25145  44.451  18.246  12.011
53530W        W25146  18.612  30.917   1.230
53531W        W25147  42.489  42.031  13.012
53532W        W25148  31.594   0.423   0.359
53533W        W25149  19.693   3.375  12.121
53534W        W25150  21.779  10.088   2.703
53535W        W25151  14.111  36.483   2.660
53536W        W25152  11.091  41.852   0.750
53537W        W25153   2.823   3.748  12.175
53538W        W25154  28.454  16.896   3.678
53539W        W25155  39.311  32.221  10.615
53540W        W25156  32.618   6.797  12.587
53541W        W25157  32.829   5.017  11.492
53542W        W25158   2.005   0.377  12.179
53543W        W25159  25.765  18.635   1.019
53544W        W25160  39.848  26.193   4.929
53545W        W25161  24.598  13.643   3.479
53546W        W25162   8.663  20.085   3.498
53547W        W25163  27.693   6.910   1.895
53548W        W25164  10.912   9.110  13.015
53549W        W25165  11.160   0.815   0.826
53550W        W25166  13.168  31.503   4.964
53551W        W25167  31.172   9.892  13.750
53552W        W25168   5.758  23.664   1.874
53553W        W25169  29.419  24.732   2.142
53554W        W25170  31.017  17.975   3.731
53555W        W25171  31.983   0.599   3.719
53556W        W25172  29.481  22.665   2.613
53557W        W25173  26.407  41.276   3.720
53558W        W25174  25.547   5.230   1.424
53559W        W25175  21.657  41.995   0.014
53560W        W25176   0.361   3.825  10.740
53561W        W25177   5.914  31.512   4.888
53562W        W25178  37.006  28.580   3.598
53563W        W25179  21.215  18.717   2.385
53564W        W25180  16.608   2.426  13.969
53565W        W25181  20.060   3.142   4.166
53566W        W25182  28.439   8.934   0.670
53567W        W25183  27.038  29.164   2.954
53568W        W25184   0.929   2.243  11.095
53569W        W25185   5.262  14.372  12.500
53570W        W25186  36.315  20.564  11.134
53571W        W25187  22.504  30.618  14.042
53572W        W25188  41.954  44.081  11.942
53573W        W25189   2.366  33.271   4.220
53574W        W25190  13.237   8.751  14.433
53575W        W25191  30.396  36.887   1.975
53576W        W25192  20.434  16.645  12.133
53577W        W25193   3.655  21.003   4.734
53578W        W25194  38.296  38.877   1.799
53579W        W25195  10.458  35.401   4.147
53580W        W25196   4.826  17.706   1.784
53581W        W25197  26.983  32.801  12.797
53582W        W25198   2.015   2.525  11.665
53583W        W25199  14.846   8.756  11.232
53584W        W25200  18.553  23.970  13.131
53585W        W25201  32.006  17.095  12.574
53586W        W25202  11.482  19.080  12.957
53587W        W25203  10.109  31.658   0.373
53588W        W25204  33.872  17.677   2.864
53589W        W25205   9.832  38.126  12.951
53590W        W25206  27.001   0.930  10.496
53591W        W25207   7.839  16.163  12.031
53592W        W25208  26.268  28.764   2.779
53593W        W25209  37.407  14.057   4.331
53594W        W25210  43.292  30.083   4.291
53595W        W25211  41.729  19.475  10.726
53596W        W25212  31.374   4.970  14.296
53597W        W25213   7.181   3.175   4.497
53598W        W25214  20.640   6.171  12.035
53599W        W25215   2.774  10.730  13.890
53600W        W25216  11.554  19.044   0.269
53601W        W25217  41.845  13.207  12.154
53602W        W25218  19.797  37.651   0.371
53603W        W25219  22.746  14.312  13.427
53604W        W25220  42.871  20.015  12.135
53605W        W25221   7.416  31.437   3.100
53606W        W25222  38.835   5.633   2.652
53607W        W25223  21.434  35.416  14.690
53608W        W25224   8.413  31.905   0.344
53609W        W25225   5.915   8.349  10.720
53610W        W25226   0.378  38.092   5.096
53611W        W25227   3.939  30.900  13.297
53612W        W25228  44.739  37.943   2.132
53613W        W25229  16.025  13.018   1.360
53614W        W25230  25.240  34.059  11.945
53615W        W25231   0.192   4.057  13.788
53616W        W25232  24.032   2.335   2.758
53617W        W25233   9.683   1.685   3.291
53618W        W25234  14.809   4.248  14.524
53619W        W25235   9.824  43.769  14.402
53620W        W25236   1.449  28.556   2.795
53621W        W25237  10.412  33.913   4.163
53622W        W25238   3.024  20.773   4.030
53623W        W25239  36.762  20.853   4.127
53624W        W25240  11.486  37.850   2.364
53625W        W25241  29.128   3.842  13.339
53626W        W25242  40.589  36.294  12.935
53627W        W25243  32.614  24.531   4.134
53628W        W25244   9.867  25.092   0.323
53629W        W25245   0.105  24.106  14.280
53630W        W25246   1.847  17.216   0.676
53631W        W25247  38.806   7.286   0.184
53632W        W25248  26.694  30.797  11.814
53633W        W25249  31.945   7.347  14.335
53634W        W25250  14.859   9.912  11.455
53635W        W25251  41.912  29.567  12.056
53636W        W25252  20.880  26.245  12.947
53637W        W25253   4.284  18.627   1.047
53638W        W25254   5.174  27.445  12.084
53639W        W25255  11.067  29.015  10.843
53640W        W25256  27.928  33.802   1.930
53641W        W25257  21.116   0.484   0.755
53642W        W25258  13.633  39.683  14.479
53643W        W25259  28.858   3.404  13.419
53644W        W25260  36.683  36.789  11.896
53645W        W25261  15.667  24.101   3.375
53646W        W25262  44.179  34.638   3.788
53647W        W25263  34.600  25.637  12.448
53648W        W25264  15.849   6.571  10.079
53649W        W25265  24.241  22.745  14.026
53650W        W25266  38.496  18.715  14.391
53651W        W25267  30.240  27.252   0.543
53652W        W25268  15.393  32.394  14.675
53653W        W25269   7.184  21.305   4.432
53654W        W25270   7.225  28.097  11.814
53655W        W25271  40.312  30.851   1.442
53656W        W25272  20.853  11.377  12.049
53657W        W25273  31.598  41.364   0.136
53658W        W25274   9.877  15.376  10.945
53659W        W25275  28.335   5.807   0.134
53660W        W25276   0.274  25.149  12.899
53661W        W25277  44.451   3.451  11.210
53662W        W25278  15.171  21.698   1.309
53663W        W25279  23.048  22.424  11.117
53664W        W25280  23.197   5.695  13.420
53665W        W25281  33.304  33.010   0.420
53666W        W25282  14.772  37.976  12.127
53667W        W25283  25.693  13.628  11.039
53668W        W25284  38.477   5.061   4.625
53669W        W25285  32.274  35.824   0.371
53670W        W25286  13.649  24.181   4.589
53671W        W25287  29.930  37.324   0.584
53672W        W25288   6.730  31.672   1.286
53673W        W25289  36.537  24.160   0.985
53674W        W25290  44.839   6.569   3.742
53675W        W25291  19.219  38.183  13.650
53676W        W25292  32.852  32.495  12.396
53677W        W25293  43.800   1.152  10.437
53678W        W25294  35.496  43.388   4.660
53679W        W25295  14.919   3.434  10.709
53680W        W25296   0.271  40.455  14.294
53681W        W25297  13.498   9.166  10.596
53682W        W25298  19.654  20.753   5.132
53683W        W25299  17.647  43.518   0.321
53684W        W25300   2.731  30.693   3.984
53685W        W25301  18.815  27.461   3.670
53686W        W25302  41.979   3.545  11.968
53687W        W25303  16.018  22.464   1.289
53688W        W25304   4.430   7.246   0.702
53689W        W25305   2.657   1.530   2.488
53690W        W25306  38.976  35.462   4.577
53691W        W25307  27.498  28.008   2.642
53692W        W25308  13.259  21.515  12.878
53693W        W25309   3.274   0.464  13.584
53694W        W25310  13.319  25.377   1.154
53695W        W25311  35.889   7.140  12.955
53696W        W25312   2.309  16.251   4.571
53697W        W25313  28.277  31.482  14.397
53698W        W25314  27.182  23.026   1.897
53699W        W25315  16.874   3.901  12.539
53700W        W25316  15.232  28.557   0.461
53701W        W25317  26.954  42.309  13.969
53702W        W25318  44.427  11.144  12.836
53703W        W25319  21.947   9.402  14.717
53704W        W25320   0.714  25.666   3.815
53705W        W25321  39.419   8.709  12.874
53706W        W25322  40.470  20.472   3.111
53707W        W25323  31.316  22.359   0.320
53708W        W25324  43.342  11.498   2.439
53709W        W25325  39.454  11.313  14.977
53710W        W25326   6.816  10.578  14.816
53711W        W25327  19.122   4.017   0.832
53712W        W25328  19.194  16.345   3.646
53713W        W25329  39.433  35.270   4.774
53714W        W25330  18.942   8.111  14.235
53715W        W25331  41.599   3.540   3.839
53716W        W25332  27.658  22.079   0.551
53717W        W25333  32.124  29.024  14.707
53718W        W25334   1.820  21.188   0.699
53719W        W25335   2.884  13.081  11.812
53720W        W25336  31.227   7.246  13.493
53721W        W25337  28.909   1.732  13.416
53722W        W25338  37.288  40.956   4.310
53723W        W25339  22.953   3.830  13.844
53724W        W25340  36.923  27.840  10.884
53725W        W25341  34.909   4.235  10.919
53726W        W25342  27.043   1.966   4.153
53727W        W25343   1.133  37.778  12.476
53728W        W25344  38.784  30.165  11.158
53729W        W25345  18.136  10.636  14.366
53730W        W25346  23.255   2.765   1.923
53731W        W25347  38.392  27.530  14.831
53732W        W25348  25.152   5.290   2.267
53733W        W25349   6.257  37.562   4.086
53734W        W25350  25.566  17.033   1.373
53735W        W25351  29.616  36.119   2.379
53736W        W25352  33.045  25.949  10.736
53737W        W25353  31.201  11.811   1.329
53738W        W25354  10.396  28.232  12.870
53739W        W25355  13.210   7.559   1.378
53740W        W25356  43.763  11.844  13.079
53741W        W25357  15.969   2.325   3.389
53742W        W25358  25.904   2.805  14.264
53743W        W25359  37.763  40.320   3.721
53744W        W25360  28.391  14.242   3.256
53745W        W25361  29.010   9.679  11.046
53746W        W25362  30.165   7.848  12.625
53747W        W25363  25.234  11.234   0.707
53748W        W25364  20.862  14.558   0.846
53749W        W25365   7.326  34.584  10.675
53750W        W25366   1.353  23.537   0.702
53751W        W25367  26.051  20.631   4.643
53752W        W25368  35.827   5.534  11.488
53753W        W25369  16.694  16.431  12.997
53754W        W25370  29.607  17.805   2.373
53755W        W25371  25.013  40.886   0.064
53756W        W25372  15.328  11.619   0.312
53757W        W25373  39.345  22.217  11.633
53758W        W25374  44.370   1.269   3.845
53759W        W25375  30.612   5.696  12.560
53760W        W25376  39.302   0.210  13.408
53761W        W25377  38.017  18.495  14.506
53762W        W25378  11.897  30.868   4.143
53763W        W25379  22.607  35.548  13.938
53764W        W25380  34.592   4.247  13.021
53765W        W25381   1.963  26.126  11.576
53766W        W25382  25.489  23.642   1.218
53767W        W25383   2.447  39.611   4.863
53768W        W25384  39.751  10.454   0.556
53769W        W25385   1.960  30.894   1.608
53770W        W25386  44.231   5.079   4.173
53771W        W25387   7.796  36.028   4.905
53772W        W25388   3.817  29.479   0.007
53773W        W25389  18.950  19.727   4.717
53774W        W25390   4.610  44.374  12.911
53775W        W25391   2.361  10.726   4.418
53776W        W25392  43.555  19.662   2.824
53777W        W25393  24.497   0.826  10.329
53778W        W25394  38.138  27.951   0.460
53779W        W25395  18.689   7.408  11.241
53780W        W25396  20.750  16.282  14.525
53781W        W25397  16.278  43.527  13.977
53782W        W25398  41.827  14.769   1.975
53783W        W25399  22.152  35.167   3.005
53784W        W25400  40.138   2.899  10.700
53785W        W25401  23.877  19.539  12.961
53786W        W25402  42.406   9.845  13.511
53787W        W25403  20.074  30.436   2.782
53788W        W25404  31.671  17.657  14.342
53789W        W25405  39.306  40.781   1.232
53790W        W25406  37.862   9.144   3.225
53791W        W25407  23.561  44.976   1.185
53792W        W25408  17.002  44.776  10.173
53793W        W25409  34.151  27.771  12.375
53794W        W25410   2.956  12.114  14.058
53795W        W25411   1.447  43.747   2.675
53796W        W25412  17.108  13.397  14.122
53797W        W25413   4.888  34.435   2.879
53798W        W25414  43.242   2.950  13.364
53799W        W25415  23.705  31.935   5.012
53800W        W25416   2.348  15.184   0.723
53801W        W25417  41.540  28.451  14.302
53802W        W25418  40.403  25.647  14.445
53803W        W25419   0.691  27.439  11.086
53804W        W25420  25.695  21.975   0.471
53805W        W25421  31.806  30.629  12.049
53806W        W25422  38.780  32.764   5.085
53807W        W25423  13.187  22.550  13.821
53808W        W25424  21.151  21.091   1.316
53809W        W25425  36.877   3.172   0.679
53810W        W25426  28.874  39.821   2.596
53811W        W25427  36.146  21.720   0.953
53812W        W25428  21.996  23.759  13.349
53813W        W25429  42.747   9.163   0.828
53814W        W25430   5.872  39.585   2.085
53815W        W25431   2.262  30.379   0.910
53816W        W25432   8.448  18.111  14.593
53817W        W25433  39.926  44.448   2.152
53818W        W25434   1.299  18.464   1.253
53819W        W25435  44.698  29.201  14.405
53820W        W25436  13.245  36.009  14.544
53821W        W25437   9.379  39.728   0.136
53822W        W25438  29.093  42.188  13.049
53823W        W25439  38.450  22.564  14.976
53824W        W25440   1.718  17.092  11.128
53825W        W25441  26.811  30.951   2.385
53826W        W25442   5.310  19.710   3.690
53827W        W25443   8.164  19.255  11.770
53828W        W25444  29.923  18.627  12.558
53829W        W25445  41.785  24.654   2.980
53830W        W25446  32.518   4.342  14.183
53831W        W25447  27.493  32.466  14.904
53832W        W25448  27.589  19.145  10.698
53833W        W25449  24.936  22.681  13.435
53834W        W25450  20.739   5.719   2.816
53835W        W25451   4.773  27.996  12.683
53836W        W25452  11.654  10.608  11.530
53837W        W25453  36.645  30.620   4.576
53838W        W25454  26.282  38.937   0.797
53839W        W25455  41.332  24.598   3.287
53840W        W25456   3.909  19.686   1.884
53841W        W25457  31.494  33.556  12.020
53842W        W25458  35.975  44.859  10.716
53843W        W25459  25.135  31.051   0.710
53844W        W25460  35.424   8.440   3.292
53845W        W25461  37.854  16.498   2.245
53846W        W25462  20.180  22.962   2.884
53847W        W25463  29.914  32.480   4.094
53848W        W25464  18.761   6.792  13.470
53849W        W25465   5.125  28.075  13.063
53850W        W25466  27.143  40.177   5.022
53851W        W25467  14.828   1.451  11.837
53852W        W25468  33.453   6.733   4.623
53853W        W25469   5.406  18.989  11.611
53854W        W25470   9.898  16.230   4.297
53855W        W25471  32.391  12.083   2.734
53856W        W25472  20.131   9.201  13.390
53857W        W25473   3.747  44.787   3.656
53858W        W25474  17.366   1.932  13.920
53859W        W25475   0.780  25.206  11.030
53860W        W25476   8.451  19.869  11.687
53861W        W25477  38.868   9.691   5.341
53862W        W25478  13.323  24.912   0.895
53863W        W25479  12.157   5.764   2.358
53864W        W25480   8.959   6.347  11.261
53865W        W25481  43.316  40.284   0.243
53866W        W25482   7.114  12.317   0.310
53867W        W25483  39.475  27.856   0.289
53868W        W25484  12.673  32.878  12.080
53869W        W25485  24.279  36.401   1.996
53870W        W25486  27.744  13.315   0.342
53871W        W25487  31.575  41.822  12.396
53872W        W25488   8.327   4.591  14.958
53873W        W25489  18.243  11.591  13.427
53874W        W25490  44.927   2.166   0.666
53875W        W25491   7.145   9.755  14.918
53876W        W25492   5.976  24.690   0.984
53877W        W25493   6.351  22.947  10.862
53878W        W25494  42.384   0.949  12.326
53879W        W25495   2.753  23.091  12.428
53880W        W25496  31.194  16.379   1.774
53881W        W25497   9.424  17.541  13.892
53882W        W25498  13.596  33.554  10.451
53883W        W25499  23.670  14.842   3.691
53884W        W25500  29.045  42.436   3.175
53885W        W25501  43.717  32.744   3.753
53886W        W25502  12.746   7.226   3.346
53887W        W25503  31.435  16.768   2.641
53888W        W25504  27.569  36.288  11.157
53889W        W25505  22.592  16.505  12.848
53890W        W25506  31.063  19.981  13.791
53891W        W25507  18.251  26.091  12.451
53892W        W25508  37.788  38.096  14.455
53893W        W25509  26.960  17.541   1.695
53894W        W25510  37.001  11.133   0.915
53895W        W25511  18.312  36.775   0.009
53896W        W25512  28.404  39.915  10.521
53897W        W25513  34.888  17.549   1.342
53898W        W25514   8.902  13.265  13.546
53899W        W25515  19.564  11.668  14.913
53900W        W25516   4.216  40.233  14.046
53901W        W25517  15.696   8.392  12.040
53902W        W25518  12.568   5.654   2.864
53903W        W25519  41.044  30.668  13.435
53904W        W25520  40.511  37.770  14.894
53905W        W25521  21.737   4.794   2.219
53906W        W25522  19.498   6.346  11.443
53907W        W25523   6.824  22.288  11.840
53908W        W25524  24.585  28.009  13.868
53909W        W25525   9.132  16.552   0.814
53910W        W25526  19.265  25.547  10.692
53911W        W25527  42.305  20.125  13.899
53912W        W25528  21.436  21.055  12.033
53913W        W25529  10.460  24.626  12.158
53914W        W25530  25.523  11.508   0.317
53915W        W25531   1.830  18.478   1.995
53916W        W25532  33.961  34.575   0.947
53917W        W25533  38.964   6.158   2.736
53918W        W25534  32.650   0.227   0.305
53919W        W25535  40.475  15.403  11.481
53920W        W25536  10.010  33.095  13.054
53921W        W25537   7.349  22.533   3.748
53922W        W25538  14.068  15.854   1.762
53923W        W25539  26.109  40.832   2.543
53924W        W25540  20.832   9.966  11.134
53925W        W25541  17.071  14.379   2.876
53926W        W25542   6.683   2.437  12.530
53927W        W25543  35.136   6.508   2.183
53928W        W25544   9.270  38.380  14.323
53929W        W25545  10.759   4.059  14.986
53930W        W25546  10.091  43.316  14.783
53931W        W25547  13.582  26.769  12.112
53932W        W25548  18.011  39.796   2.656
53933W        W25549   3.590  36.499  10.830
53934W        W25550  31.487  43.489   2.967
53935W        W25551  39.498   0.751   3.243
53936W        W25552  26.151  19.277   0.273
53937W        W25553  27.897   7.282   0.658
53938W        W25554  20.033  24.070  14.466
53939W        W25555   9.174  30.900  10.650
53940W        W25556  29.656  27.968  10.614
53941W        W25557  36.282   2.049  13.519
53942W        W25558  27.108  22.149  14.369
53943W        W25559  40.849  43.282  12.021
53944W        W25560  31.991  33.290  12.397
53945W        W25561  15.663  23.247  10.467
53946W        W25562   1.001   3.916   4.309
53947W        W25563  44.454  33.739  14.636
53948W        W25564  27.164   8.667   2.150
53949W        W25565  38.844  25.727   3.550
53950W        W25566  31.170  35.312  14.387
53951W        W25567  33.522  23.678   4.979
53952W        W25568  18.651  16.085   2.891
53953W        W25569   7.110   2.465  13.903
53954W        W25570  22.724  10.966   2.760
53955W        W25571  34.464  40.818   4.523
53956W        W25572  11.107   9.161   0.296
53957W        W25573   3.502  39.777  14.501
53958W        W25574  13.164   0.968   1.513
53959W        W25575  12.198  11.440  14.792
53960W        W25576   4.132  15.294   4.414
53961W        W25577  25.470  31.013  13.473
53962W        W25578  34.360   9.058  14.287
53963W        W25579  20.123  11.127  13.937
53964W        W25580   0.344  37.898  14.210
53965W        W25581   5.786  30.604  11.440
53966W        W25582  12.927  18.755   1.495
53967W        W25583  27.032   9.083  13.978
53968W        W25584  40.555  40.859  14.015
53969W        W25585  29.548   4.258  14.989
53970W        W25586   3.559  44.878  11.570
53971W        W25587  15.735  27.470  12.944
53972W        W25588   8.215  29.160  12.981
53973W        W25589  40.682   7.445  11.690
53974W        W25590  19.815  13.793   0.780
53975W        W25591  43.481  36.952  12.539
53976W        W25592  22.713  23.521   0.695
53977W        W25593  36.011  40.792  11.844
53978W        W25594  34.883  29.923   1.861
53979W        W25595   3.374  24.417  10.347
53980W        W25596  12.888  36.670  14.593
53981W        W25597  15.147  36.255   3.080
53982W        W25598   1.221  18.526  12.119
53983W        W25599  26.510   1.957   4.167
53984W        W25600   8.382  19.708   3.787
53985W        W25601  40.122  18.045   2.436
53986W        W25602   2.497  19.593   3.852
53987W        W25603  35.308  29.159  14.302
53988W        W25604  13.561  12.278  14.523
53989W        W25605   7.940  16.194  14.253
53990W        W25606  24.827   5.514  11.411
53991W        W25607  31.884  16.458   2.813
53992W        W25608  21.709  35.530   4.729
53993W        W25609  43.244  34.242   5.689
53994W        W25610  43.947  43.951  11.880
53995W        W25611   8.135  16.037   0.607
53996W        W25612  17.108  41.535   2.230
53997W        W25613  16.483  21.683  13.592
53998W        W25614  25.465  28.955  10.262
53999W        W25615  38.487   6.722   2.036
54000W        W25616   2.023  39.499   1.191
54001W        W25617  25.589  40.455  14.720
54002W        W25618  30.004   8.718   2.820
54003W        W25619  19.184  25.758  12.629
54004W        W25620  30.200  26.928  10.799
54005W        W25621  41.016   9.908   2.298
54006W        W25622  10.576  15.146   2.268
54007W        W25623   2.633   6.537  10.263
54008W        W25624   4.358  31.007  13.610
54009W        W25625  40.349   2.414   2.497
54010W        W25626  31.997  20.320   2.664
54011W        W25627   3.071  13.490  12.070
54012W        W25628  18.215   5.666   1.521
54013W        W25629  38.787  31.492   2.424
54014W        W25630  20.763  33.146  12.989
54015W        W25631  16.189  33.917   1.662
54016W        W25632  11.175  32.600   2.418
54017W        W25633  16.830   4.453  12.541
54018W        W25634  41.013  36.854  10.361
54019W        W25635  38.295  43.062   0.585
54020W        W25636  22.095  29.152   3.145
54021W        W25637  32.096  12.841   4.896
54022W        W25638  25.119   9.589  10.695
54023W        W25639  41.523  14.776  13.955
54024W        W25640  42.835  26.563   1.395
54025W        W25641  35.900   6.787   4.578
54026W        W25642  29.992  24.522  11.570
54027W        W25643  43.723   6.869   3.210
54028W        W25644   8.519  30.686  12.194
54029W        W25645  15.086   1.164   0.815
54030W        W25646  37.315  40.621  12.123
54031W        W25647  31.626  22.991   1.141
54032W        W25648  34.645   8.787   1.987
54033W        W25649  18.160  31.001  14.546
54034W        W25650  11.722  40.172   1.763
54035W        W25651  12.128  17.346  14.845
54036W        W25652  25.967  23.999  13.794
54037W        W25653  11.870  28.243  13.947
54038W        W25654  16.267  13.217   4.634
54039W        W25655  10.145  13.830  14.298
54040W        W25656   1.523  10.756   3.157
54041W        W25657  32.525  14.628   2.807
54042W        W25658  42.798  13.214  14.881
54043W        W25659  33.920  11.737  13.997
54044W        W25660  29.427  36.139   3.648
54045W        W25661   8.354   4.422  14.291
54046W        W25662  32.357  30.084  10.669
54047W        W25663  12.799  18.018   1.880
54048W        W25664  29.953  30.490  12.590
54049W        W25665  22.289  13.897   2.881
54050W        W25666   3.267  31.929  11.553
54051W        W25667   5.172  16.175  14.563
54052W        W25668  17.767  28.390   4.716
54053W        W25669   3.248  35.160  11.530
54054W        W25670  21.492  31.944   4.034
54055W        W25671  10.617  23.139  11.123
54056W        W25672  21.420   4.267   4.582
54057W        W25673  29.243   5.549  12.457
54058W        W25674  12.780  27.201   4.082
54059W        W25675  42.217  13.130  14.873
54060W        W25676  27.132   6.844  12.395
54061W        W25677  36.273  22.185   1.607
54062W        W25678   6.183  10.515  11.573
54063W        W25679  36.549   7.837  13.484
54064W        W25680   2.532  19.264   4.990
54065W        W25681  40.466  11.786   2.602
54066W        W25682  17.591   1.715   3.669
54067W        W25683   2.946  39.807   2.140
54068W        W25684  31.710  38.866  13.292
54069W        W25685  21.209  37.478   3.356
54070W        W25686  37.002  18.260   4.088
54071W        W25687   0.919  33.299  11.172
54072W        W25688  20.198  20.313   0.264
54073W        W25689  12.870  32.992  13.525
54074W        W25690  32.483  30.192   3.243
54075W        W25691  24.947  29.614   0.579
54076W        W25692  33.116  11.813  10.937
54077W        W25693   1.251  24.668  14.380
54078W        W25694  12.652  14.125  11.911
54079W        W25695  30.516   2.434   2.826
54080W        W25696  40.007  24.538  12.491
54081W        W25697   8.664  17.204  14.137
54082W        W25698   1.508  11.343  11.208
54083W        W25699  11.354  29.984   1.023
54084W        W25700  12.414  19.789   1.759
54085W        W25701  22.108  22.401   2.856
54086W        W25702  24.214  11.850  14.509
54087W        W25703  33.927  38.480  10.825
54088W        W25704  11.617   5.441   1.678
54089W        W25705  21.998  40.921  12.169
54090W        W25706  20.631  40.854  11.165
54091W        W25707   1.093  30.081   1.435
54092W        W25708   4.311  34.762  11.646
54093W        W25709  25.730  22.387  11.569
54094W        W25710  13.773  31.870  12.894
54095W        W25711   2.347  31.138   2.820
54096W        W25712   9.191  43.767   3.154
54097W        W25713  17.124  31.377  11.133
54098W        W25714  11.590  19.727  11.224
54099W        W25715  38.801  16.055  11.003
54100W        W25716  43.081  29.624   4.252
54101W        W25717  17.565  41.481  11.547
54102W        W25718  15.122  18.721   0.724
54103W        W25719   9.277   8.368  12.499
54104W        W25720  37.946  16.829   0.931
54105W        W25721  34.101   8.865  10.899
54106W        W25722  44.585  31.742   3.043
54107W        W25723  10.460  21.266  13.093
54108W        W25724   5.711  44.792  10.517
54109W        W25725  10.516  11.336   0.051
54110W        W25726  21.047   1.307   1.158
54111W        W25727   3.201  26.063  11.880
54112W        W25728  43.429  11.394   3.303
54113W        W25729  41.024  16.171   0.351
54114W        W25730  14.569   1.370  14.879
54115W        W25731  21.775  14.625   3.677
54116W        W25732  29.584  29.576   3.680
54117W        W25733  37.795  40.630  11.958
54118W        W25734  37.877   1.231   3.829
54119W        W25735  28.190  17.626   3.423
54120W        W25736  41.952   5.194  11.180
54121W        W25737   6.202  11.139  14.277
54122W        W25738  25.679  12.916  11.670
54123W        W25739  44.423   3.997   0.184
54124W        W25740   3.999  28.104   4.684
54125W        W25741  16.330  40.951   4.414
54126W        W25742  31.945  12.086   3.534
54127W        W25743  12.094  19.588  11.314
54128W        W25744  15.080  44.018   0.300
54129W        W25745   2.436  20.010  14.298
54130W        W25746  42.235  14.582   3.334
54131W        W25747   0.913  39.835  11.716
54132W        W25748  19.332  20.024  12.444
54133W        W25749  18.483  37.203   1.319
54134W        W25750  33.495   8.371  11.390
54135W        W25751  21.157  39.281  10.723
54136W        W25752  26.040  13.362  12.008
54137W        W25753  17.582  42.963   0.840
54138W        W25754   1.975  26.537  10.119
54139W        W25755  40.880  20.163   4.306
54140W        W25756  23.151  29.023   3.889
54141W        W25757  23.509  27.921   0.302
54142W        W25758  24.901   0.866  11.189
54143W        W25759  26.973  36.862   3.724
54144W        W25760   9.859  20.321  12.645
54145W        W25761  10.681  13.088   0.391
54146W        W25762  16.162  15.567   4.227
54147W        W25763  20.740  39.570  14.797
54148W        W25764  33.358   9.796  13.020
54149W        W25765  10.399  12.312  10.504
54150W        W25766  37.338  30.051  12.895
54151W        W25767  34.921   8.180  14.210
54152W        W25768  40.800  38.380   2.389
54153W        W25769  43.043  19.047  13.400
54154W        W25770  17.914   7.124  13.235
54155W        W25771  43.922   0.475   0.268
54156W        W25772  34.699   2.523  12.884
54157W        W25773  34.885  26.080  12.481
54158W        W25774  19.467  32.337   1.351
54159W        W25775  11.620   6.003   0.170
54160W        W25776  17.320  33.938  11.594
54161W        W25777  25.386  18.821   1.319
54162W        W25778  11.797  23.180   3.789
54163W        W25779  33.864  12.306  10.788
54164W        W25780  26.569  14.401  11.833
54165W        W25781   1.591  34.571   4.291
54166W        W25782  32.210  37.038  11.045
54167W        W25783  15.713  20.142   1.731
54168W        W25784   5.912  37.474   4.502
54169W        W25785  34.877  21.976  12.472
54170W        W25786   6.732  18.182   3.383
54171W        W25787  37.768  30.736   1.294
54172W        W25788  15.230   5.230  14.554
54173W        W25789  36.621  28.027  14.560
54174W        W25790   2.304  35.441   4.152
54175W        W25791  41.151  26.520   0.740
54176W        W25792  33.973  16.624   0.472
54177W        W25793   8.938  13.226   4.031
54178W        W25794   1.455  44.558  11.100
54179W        W25795   7.078  16.210  11.993
54180W        W25796   6.895   1.363   0.662
54181W        W25797   6.146  20.736   3.240
54182W        W25798  40.433  20.876   4.268
54183W        W25799  27.917  18.129   1.159
54184W        W25800  23.614   7.359   2.088
54185W        W25801  42.533  16.932  13.113
54186W        W25802  26.435  25.567  13.102
54187W        W25803  25.924   0.799  13.407
54188W        W25804  23.513  31.149  12.551
54189W        W25805  35.365  15.068   3.323
54190W        W25806  42.937  37.893  10.494
54191W        W25807  43.588  10.661   1.951
54192W        W25808  10.205  29.747  13.667
54193W        W25809  10.290  43.293   0.380
54194W        W25810  22.623  33.827   4.697
54195W        W25811  34.945  42.588  10.393
54196W        W25812  32.764  40.666  14.742
54197W        W25813  23.995  20.725   4.493
54198W        W25814  15.356  16.778  11.938
54199W        W25815  37.875  32.052   2.734
54200W        W25816  19.245   0.791   1.414
54201W        W25817  24.466  22.240  12.879
54202W        W25818  17.598  14.840   0.417
54203W        W25819  33.635   9.072   4.284
54204W        W25820  32.007  28.546  14.507
54205W        W25821  42.890   1.052  14.759
54206W        W25822  22.565  40.987  13.365
54207W        W25823  17.102   2.863  12.523
54208W        W25824  39.989  26.640  13.176
54209W        W25825   9.262  14.480  10.686
54210W        W25826  25.954  27.933   1.401
54211W        W25827   4.795  30.426  12.132
54212W        W25828  37.545  19.691  14.308
54213W        W25829  13.425  14.081  14.454
54214W        W25830  35.445  13.311  11.049
54215W        W25831  27.998  34.273   1.014
54216W        W25832  16.756   4.704   2.795
54217W        W25833   4.365  12.717  13.871
54218W        W25834   7.229  36.503  10.668
54219W        W25835   0.046  32.017  11.604
54220W        W25836   5.906  40.239  13.250
54221W        W25837   9.702  33.252  12.638
54222W        W25838   4.134   5.747   0.807
54223W        W25839  28.949   1.216   3.780
54224W        W25840  20.617   0.700  10.733
54225W        W25841  38.550  14.353  14.398
54226W        W25842   4.892  41.009   4.448
54227W        W25843  28.549  44.196  11.082
54228W        W25844   7.945  28.414   3.787
54229W        W25845  41.428  26.922   2.166
54230W        W25846  12.268   1.432   0.444
54231W        W25847  28.426  25.968  14.920
54232W        W25848  41.763  12.359   0.260
54233W        W25849  36.334  21.327   0.356
54234W        W25850  25.202  18.906   0.317
54235W        W25851  37.033  41.575   4.374
54236W        W25852  11.605  11.864  12.382
54237W        W25853  39.580  35.920   2.451
54238W        W25854   4.694  32.403   2.734
54239W        W25855   9.106  22.053  13.607
54240W        W25856  31.997  41.576   3.814
54241W        W25857  25.520  37.488  13.744
54242W        W25858   7.849  30.666  10.688
54243W        W25859  17.524  42.394  11.573
54244W        W25860  12.338  25.967   2.654
54245W        W25861   1.732  15.358   3.713
54246W        W25862  30.279  38.526  10.478
54247W        W25863   1.381  12.549  14.933
54248W        W25864  24.400  38.013   4.573
54249W        W25865  18.681  35.934   4.211
54250W        W25866   5.775  18.260  13.009
54251W        W25867  43.578  35.086   2.681
54252W        W25868  44.284  23.934  13.876
54253W        W25869  11.429  38.534  13.001
54254W        W25870   9.834   6.350  11.864
54255W        W25871   4.824  14.719  10.790
54256W        W25872  24.059   3.960  14.428
54257W        W25873  11.328  24.987  12.408
54258W        W25874   3.938   3.951   2.594
54259W        W25875  37.150   8.303  11.535
54260W        W25876  10.855  26.724  13.033
54261W        W25877  31.541  28.791  14.384
54262W        W25878  11.267  18.805  11.151
54263W        W25879  16.111  44.754   1.371
54264W        W25880  21.560  40.072  10.516
54265W        W25881  42.405  16.643  10.547
54266W        W25882  26.635   0.827   4.451
54267W        W25883  10.152  36.358  10.856
54268W        W25884  14.997  33.591   3.337
54269W        W25885   6.107   2.745   0.448
54270W        W25886  25.508  41.332  10.682
54271W        W25887  30.618   7.626   3.403
54272W        W25888  27.367   2.953  12.435
54273W        W25889  34.831  24.624  13.918
54274W        W25890  24.915  37.536  14.943
54275W        W25891   7.455  38.009   2.274
54276W        W25892  22.303  26.631  10.562
54277W        W25893  16.680   2.081  14.470
54278W        W25894  23.822  19.622   4.198
54279W        W25895  35.187  31.599   4.408
54280W        W25896  31.965  27.742   9.856
54281W        W25897  27.266   6.345   0.068
54282W        W25898  18.416   6.267  11.618
54283W        W25899   7.739  23.043   1.398
54284W        W25900  18.634  33.014   1.814
54285W        W25901  31.141  39.383   1.891
54286W        W25902   8.396  38.535   2.903
54287W        W25903  18.129  19.200   1.198
54288W        W25904  42.302  33.477  14.504
54289W        W25905  11.939  43.347  13.005
54290W        W25906   5.930  19.601   2.834
54291W        W25907  42.463   6.499   4.841
54292W        W25908  11.846  39.321  12.076
54293W        W25909  10.143   5.424  12.459
54294W        W25910   6.451  19.138  12.445
54295W        W25911  16.873  29.935   0.322
54296W        W25912  35.213  39.473   0.721
54297W        W25913  20.326  34.044   2.357
54298W        W25914  36.965  12.332   3.905
54299W        W25915   3.930   2.401  11.430
54300W        W25916  38.008   7.916  14.640
54301W        W25917   0.959   1.465  14.286
54302W        W25918  10.809   7.923  10.445
54303W        W25919  28.723  30.466   2.790
54304W        W25920   6.368  15.934   2.988
54305W        W25921  44.286  22.961  12.510
54306W        W25922  22.729  29.624  12.589
54307W        W25923   1.891  14.050   0.821
54308W        W25924   2.123  43.967   0.473
54309W        W25925   5.284  21.087  12.976
54310W        W25926  11.940  11.668  13.809
54311W        W25927  30.465  10.714  10.722
54312W        W25928  19.684   7.819   1.800
54313W        W25929   2.795   1.682  13.369
54314W        W25930  16.329   1.278   1.245
54315W        W25931  35.122  34.355   2.636
54316W        W25932  42.558  12.351  12.006
54317W        W25933  37.672  11.284   4.595
54318W        W25934   6.743  34.387  13.458
54319W        W25935  25.529  22.789   0.662
54320W        W25936  27.451  25.803   3.953
54321W        W25937  26.202  10.646  13.817
54322W        W25938  15.107   9.344  14.313
54323W        W25939  17.530  38.385   3.191
54324W        W25940  30.889  36.614   0.636
54325W        W25941  15.767  44.821  14.796
54326W        W25942  23.299  18.203   2.851
54327W        W25943  39.004   2.858   1.641
54328W        W25944  36.148  32.671  14.899
54329W        W25945  25.461  23.705   4.152
54330W        W25946  40.578   0.238   4.931
54331W        W25947  34.527  29.944   0.761
54332W        W25948   1.178  21.078  10.755
54333W        W25949  29.467   7.250   3.187
54334W        W25950  29.128  24.236  11.477
54335W        W25951  30.917  18.789   0.255
54336W        W25952  39.863  23.471  14.882
54337W        W25953  37.988   1.799  10.742
54338W        W25954  37.048  23.657   0.308
54339W        W25955  25.375  12.819   1.199
54340W        W25956  16.297  29.635  11.635
54341W        W25957  41.678  11.567   3.320
54342W        W25958  29.941  15.119   1.293
54343W        W25959  20.397   1.418  11.198
54344W        W25960  14.382  14.128   4.545
54345W        W25961   2.825  29.121   1.761
54346W        W25962   5.583  22.120   3.205
54347W        W25963  37.170  36.809  11.739
54348W        W25964  42.211   7.924  11.108
54349W        W25965   0.808   4.185   1.347
54350W        W25966  18.254  27.612   0.340
54351W        W25967  36.787  13.073  13.821
54352W        W25968  21.218  27.381   2.727
54353W        W25969   3.099   5.240   3.897
54354W        W25970   3.751  18.131  13.530
54355W        W25971   8.575   3.908  11.525
54356W        W25972   1.047  40.504   2.714
54357W        W25973  37.963  14.348   3.229
54358W        W25974  13.881  36.611   4.188
54359W        W25975  19.615  29.365   1.203
54360W        W25976  40.446  19.999   1.369
54361W        W25977   4.682  35.052   2.292
54362W        W25978   2.349  40.468  13.477
54363W        W25979  22.949   1.721   2.169
54364W        W25980  27.181   2.017  10.674
54365W        W25981   2.814  26.155   3.181
54366W        W25982  11.264   7.478   0.755
54367W        W25983  38.494  26.102  11.080
54368W        W25984  13.625   5.439  11.563
54369W        W25985  37.507   1.536   3.641
54370W        W25986  31.091   4.361  14.936
54371W        W25987  43.560  22.074   1.980
54372W        W25988  35.904   7.391  14.471
54373W        W25989   7.511  35.251   2.939
54374W        W25990  40.708  29.654  12.827
54375W        W25991  17.999  11.155   3.988
54376W        W25992  18.618  42.298   1.498
54377W        W25993   0.941  23.797   3.287
54378W        W25994  12.349   8.833  13.953
54379W        W25995  38.803  34.397  11.003
54380W        W25996  21.236  28.756  13.033
54381W        W25997  15.277  28.749   1.000
54382W        W25998  23.614  31.449  10.650
54383W        W25999  23.698  33.533  11.408
54384W        W26000  19.225  18.987   1.259
54385W        W26001  27.476  20.979  12.462
54386W        W26002  33.150  41.851  12.450
54387W        W26003  39.902   6.945  11.020
54388W        W26004   1.536  27.096  11.430
54389W        W26005  23.020  38.367   4.931
54390W        W26006  26.135  12.291   0.446
54391W        W26007  32.416  43.376   4.938
54392W        W26008  31.531  11.666  14.504
54393W        W26009   8.763  22.631   4.524
54394W        W26010  29.545  19.828  14.856
54395W        W26011  40.470   0.465   2.817
54396W        W26012  10.115  23.158   2.916
54397W        W26013   3.210  28.730   0.433
54398W        W26014  24.757  34.599   2.807
54399W        W26015  43.808  44.719  10.736
54400W        W26016  35.539  43.112  13.070
54401W        W26017   8.186  21.499   4.859
54402W        W26018  40.286  44.068   1.736
54403W        W26019  42.371   4.053  13.414
54404W        W26020  18.677  24.155   0.728
54405W        W26021  27.082  27.114  13.234
54406W        W26022   9.964   3.990   0.644
54407W        W26023  12.190  18.202  11.500
54408W        W26024  28.939  28.610   1.418
54409W        W26025  38.830  35.624  11.511
54410W        W26026  37.936  10.403  13.894
54411W        W26027  20.608  36.986   3.600
54412W        W26028  34.064  21.255   2.706
54413W        W26029  41.959  40.991   1.007
54414W        W26030  34.099  42.938   0.374
54415W        W26031   9.588  43.777  13.540
54416W        W26032   4.940  43.444  13.911
54417W        W26033  12.786  11.992   2.332
54418W        W26034  37.302  21.212  14.982
54419W        W26035  18.036  40.489  11.089
54420W        W26036  31.631  19.717   2.867
54421W        W26037  36.683  35.919   1.220
54422W        W26038  42.500   5.752   4.648
54423W        W26039  36.421  38.552  10.660
54424W        W26040  30.177  29.387  12.908
54425W        W26041  28.942  36.654   0.177
54426W        W26042  20.295  35.617   4.579
54427W        W26043   3.731   4.421  11.999
54428W        W26044  20.492  16.725   2.242
54429W        W26045  18.912   6.897  14.003
54430W        W26046   1.512   5.895   3.209
54431W        W26047   2.207  27.866  14.178
54432W        W26048  40.942   3.990  12.433
54433W        W26049  10.468  41.459   1.416
54434W        W26050  40.896   4.434  14.432
54435W        W26051  27.684   9.524  12.899
54436W        W26052  42.799  20.728  11.150
54437W        W26053   5.951   1.263  12.818
54438W        W26054  17.751   8.006   3.079
54439W        W26055   9.150   3.193   3.723
54440W        W26056  30.039   8.662   4.881
54441W        W26057  39.965  29.375  13.901
54442W        W26058  37.404   9.849  14.004
54443W        W26059  10.691  31.415   0.987
54444W        W26060   2.231  17.109  11.162
54445W        W26061  21.224  34.677  14.081
54446W        W26062  30.113  25.753   4.653
54447W        W26063  36.502  27.937   0.902
54448W        W26064   3.392  24.106   2.355
54449W        W26065  44.166  27.560  13.565
54450W        W26066  41.774  12.221  13.828
54451W        W26067  28.511  15.668   3.199
54452W        W26068  31.067  43.263  11.382
54453W        W26069  21.764  34.556   0.791
54454W        W26070  15.673  25.489   4.869
54455W        W26071   6.119   7.535   3.734
54456W        W26072   1.163  18.989   4.085
54457W        W26073  18.256  40.610  10.618
54458W        W26074  17.807  42.820  13.378
54459W        W26075  34.914   4.965   1.286
54460W        W26076  43.899  33.611   1.790
54461W        W26077  40.350   4.804   0.375
54462W        W26078  26.202   2.865   1.221
54463W        W26079  22.540  23.921  13.461
54464W        W26080  13.010  11.005  14.320
54465W        W26081  37.140  42.367  12.393
54466W        W26082  42.713  19.651  10.881
54467W        W26083  12.848  21.043  14.926
54468W        W26084  30.404  20.501  13.426
54469W        W26085  11.053  13.822  12.562
54470W        W26086  17.700  11.125   4.440
54471W        W26087  20.817   1.378   0.686
54472W        W26088  21.219  44.460  10.344
54473W        W26089  38.534   1.513   1.846
54474W        W26090  24.225  32.482  14.444
54475W        W26091   6.234  34.479   1.759
54476W        W26092   0.248  31.791   4.222
54477W        W26093  11.661  36.412  14.580
54478W        W26094  44.042  10.499  13.167
54479W        W26095  11.832  28.160   4.076
54480W        W26096  20.339  10.301  13.327
54481W        W26097  13.590  10.985  11.167
54482W        W26098  14.517  17.367  12.927
54483W        W26099  22.010   4.785  10.567
54484W        W26100  21.501  34.365   1.283
54485W        W26101  12.188  32.372   3.721
54486W        W26102  19.210  11.647   0.299
54487W        W26103  15.117  12.093   0.249
54488W        W26104  16.352  27.701  14.126
54489W        W26105   1.653  40.083   3.304
54490W        W26106  32.447  17.155   0.976
54491W        W26107  34.019  40.542   4.518
54492W        W26108  42.984  32.947   3.175
54493W        W26109  40.029   6.003   1.378
54494W        W26110  44.432  43.996  12.139
54495W        W26111  25.947  33.904   2.875
54496W        W26112   9.189  15.532  11.418
54497W        W26113  21.529   3.000   0.528
54498W        W26114  40.065  28.899  13.716
54499W        W26115   0.404  12.396   1.946
54500W        W26116   1.941  43.830   2.238
54501W        W26117  14.582  35.624  14.354
54502W        W26118  28.878   1.216  10.666
54503W        W26119  37.112  44.717  14.858
54504W        W26120  26.962   7.763   2.584
54505W        W26121  43.413  14.235  13.846
54506W        W26122  19.602  14.220   0.434
54507W        W26123   5.549  38.425   2.157
54508W        W26124  35.426  39.595  13.920
54509W        W26125  15.322   4.891  13.915
54510W        W26126  24.270  31.736  12.497
54511W        W26127  32.129  25.053   3.136
54512W        W26128  23.728  40.756  14.840
54513W        W26129   3.762  41.933   1.070
54514W        W26130  32.692  17.641   0.857
54515W        W26131   2.240  36.354  11.198
54516W        W26132  37.794  30.169  12.038
54517W        W26133  33.384  32.302  11.167
54518W        W26134  44.174  25.098   1.205
54519W        W26135  19.759  15.660  13.430
54520W        W26136  19.173  37.866  14.474
54521W        W26137   6.731  10.068  14.901
54522W        W26138  14.514   4.468  11.044
54523W        W26139   5.387  11.827  11.483
54524W        W26140  19.742  28.268   2.267
54525W        W26141  39.491  11.409  10.547
54526W        W26142  15.204   2.744  10.486
54527W        W26143  41.529  14.806   0.723
54528W        W26144  16.340  40.349  11.598
54529W        W26145  44.951  28.335  11.119
54530W        W26146   1.696  44.182   2.564
54531W        W26147  38.883  10.186  10.828
54532W        W26148  28.188  15.535  13.052
54533W        W26149  25.962  22.569  13.486
54534W        W26150   8.616  31.134   3.680
54535W        W26151  33.031  18.012   3.110
54536W        W26152  39.821  31.912   4.112
54537W        W26153   9.468  41.540   1.314
54538W        W26154   4.761   2.000  12.482
54539W        W26155   1.348  17.140  12.481
54540W        W26156   1.411  37.478  10.424
54541W        W26157  44.846  11.424  14.492
54542W        W26158  33.313  18.147  10.850
54543W        W26159  15.568  16.852   5.119
54544W        W26160  37.487  40.915   4.920
54545W        W26161   2.739   7.425   4.184
54546W        W26162  21.457   8.910  14.842
54547W        W26163   5.923  20.068  14.828
54548W        W26164   0.957  31.161   3.965
54549W        W26165  20.613  23.447   2.066
54550W        W26166  30.836  22.174  11.174
54551W        W26167  18.359  21.303   3.624
54552W        W26168   4.748   1.199  13.281
54553W        W26169   3.421  39.514   2.387
54554W        W26170  26.926  24.270   1.743
54555W        W26171   9.292   2.920  14.434
54556W        W26172  44.058  23.218  12.125
54557W        W26173   3.990  27.642  10.814
54558W        W26174   5.618  25.546  12.481
54559W        W26175  36.062  37.918   4.479
54560W        W26176   0.795  28.144  11.975
54561W        W26177  30.340  41.029  10.817
54562W        W26178  22.165  40.194   2.162
54563W        W26179  11.652  33.948  13.493
54564W        W26180  42.025   1.014   1.241
54565W        W26181  44.170  13.724   4.099
54566W        W26182  26.675  27.634  12.506
54567W        W26183  32.158  31.482   2.931
54568W        W26184  41.825  41.583   0.311
54569W        W26185  31.817  27.809   2.831
54570W        W26186  22.973  14.707   2.868
54571W        W26187  34.506  41.065   2.662
54572W        W26188  44.164  32.415   3.741
54573W        W26189  41.735  25.588   2.204
54574W        W26190  43.768  35.589   1.241
54575W        W26191  22.787  18.245  11.491
54576W        W26192   5.184  13.878   2.263
54577W        W26193  31.279  25.448  13.086
54578W        W26194   8.306   7.750   3.898
54579W        W26195  27.595  11.961   2.259
54580W        W26196   1.298  43.487   3.106
54581W        W26197  15.299   5.983  10.589
54582W        W26198   4.997   9.482   4.854
54583W        W26199  16.724  23.707  12.949
54584W        W26200  25.651  11.579  12.048
54585W        W26201  21.087  19.255  14.379
54586W        W26202  18.088   8.026  12.069
54587W        W26203  18.671  17.070   2.226
54588W        W26204  44.863   6.153  11.627
54589W        W26205  41.281  27.675  12.883
54590W        W26206  13.066  38.095   4.142
54591W        W26207  29.014  16.498  10.931
54592W        W26208   2.768  26.757   1.146
54593W        W26209  38.818   8.132  12.623
54594W        W26210  16.449  31.386   3.931
54595W        W26211   2.946  42.324   2.208
54596W        W26212  27.667  37.575  10.664
54597W        W26213   5.867  34.438   0.370
54598W        W26214  42.992  14.858   0.988
54599W        W26215  19.630  25.569   1.866
54600W        W26216  36.171   6.673  13.171
54601W        W26217  13.310  11.628  11.578
54602W        W26218   7.941  31.974  11.583
54603W        W26219  37.563  24.196   1.883
54604W        W26220   2.493   8.784   1.036
54605W        W26221  27.399  35.560  10.651
54606W        W26222  25.042  15.795   1.835
54607W        W26223  39.088  39.972   3.501
54608W        W26224  35.556  40.376  12.391
54609W        W26225   1.224  12.688  13.336
54610W        W26226  24.951  32.502   2.424
54611W        W26227  34.441  29.888   3.163
54612W        W26228  37.628  18.542  14.201
54613W        W26229  29.547  38.177   2.618
54614W        W26230  33.421  15.799   4.215
54615W        W26231  33.266  35.869  12.571
54616W        W26232  14.857  29.419  13.467
54617W        W26233  21.748  41.186   0.398
54618W        W26234  13.152  37.918   0.754
54619W        W26235  38.373  39.549   3.573
54620W        W26236  34.831  40.941  11.445
54621W        W26237   3.184   2.430   4.539
54622W        W26238  25.776  39.698   4.228
54623W        W26239  21.850  44.887  12.472
54624W        W26240  26.855   0.558  11.170
54625W        W26241   9.112  36.051  12.161
54626W        W26242  33.276  24.792   2.851
54627W        W26243   6.784  30.749  13.001
54628W        W26244  24.970  20.688   0.835
54629W        W26245  34.963  44.682   2.172
54630W        W26246  24.753  43.897   4.226
54631W        W26247   9.687  33.102   0.198
54632W        W26248  42.924  13.728   2.336
54633W        W26249  39.792  19.723   0.382
54634W        W26250  31.384   4.015   0.651
54635W        W26251  28.060  16.761  10.682
54636W        W26252  10.134  29.959  12.389
54637W        W26253  29.478  44.987  12.235
54638W        W26254  39.789  44.459  12.357
54639W        W26255  27.615  37.605  14.419
54640W        W26256   3.028   6.608  13.881
54641W        W26257  23.256  17.180  13.552
54642W        W26258   4.312  20.616  11.690
54643W        W26259  35.306  35.550  11.965
54644W        W26260  38.139  24.770   2.349
54645W        W26261  26.284  26.626   5.073
54646W        W26262  13.652  28.293   4.017
54647W        W26263   2.319  17.628   0.699
54648W        W26264  11.867  10.174  14.391
54649W        W26265  29.151  12.676   4.091
54650W        W26266  44.058  18.830  13.391
54651W        W26267  44.276   2.786   4.751
54652W        W26268  38.450   6.285  14.921
54653W        W26269   0.800  19.294  12.944
54654W        W26270  17.960  35.917   3.284
54655W        W26271   8.074  37.393  14.351
54656W        W26272  19.147  44.486  13.886
54657W        W26273  40.158   3.886  14.441
54658W        W26274   3.312  34.016   3.721
54659W        W26275   4.531   7.686   2.296
54660W        W26276  10.420  18.505  11.156
54661W        W26277  23.223  42.897  11.951
54662W        W26278  33.870  41.541   4.581
54663W        W26279  33.775  13.210  10.499
54664W        W26280  40.263  25.595  13.908
54665W        W26281  28.688  10.591  11.282
54666W        W26282  13.591  28.673   4.731
54667W        W26283  41.316  25.380   1.440
54668W        W26284   0.719   3.342  12.512
54669W        W26285  42.112   9.312  13.499
54670W        W26286   6.663  38.131   1.468
54671W        W26287  40.437   6.347  14.063
54672W        W26288  39.339  16.998   3.177
54673W        W26289   1.955  22.759  12.859
54674W        W26290  39.913  15.266  10.646
54675W        W26291   7.953   3.046   3.729
54676W        W26292  11.562   7.545  11.626
54677W        W26293  44.245   4.443  10.364
54678W        W26294  25.046  19.235  13.373
54679W        W26295  36.943  41.480   2.072
54680W        W26296  44.560  24.977   2.264
54681W        W26297  22.520   8.567   0.925
54682W        W26298  32.139  31.005   1.228
54683W        W26299  36.628  15.338  11.539
54684W        W26300   6.512  30.243  14.264
54685W        W26301  39.429   1.517   0.915
54686W        W26302  29.015  37.885   3.284
54687W        W26303  16.773  22.448   4.233
54688W        W26304  13.742  28.100   1.049
54689W        W26305  14.041  38.024   2.290
54690W        W26306  32.761  29.096   2.163
54691W        W26307   2.485   0.268   0.484
54692W        W26308  16.332  13.393  13.552
54693W        W26309  44.335   5.906   4.552
54694W        W26310   8.635   7.335   3.878
54695W        W26311  19.190  41.534  13.827
54696W        W26312  28.547  19.252  13.387
54697W        W26313   9.002   4.441   5.031
54698W        W26314   2.281   4.236  13.804
54699W        W26315   2.239  17.590  14.044
54700W        W26316  36.017   4.537  11.682
54701W        W26317   4.255  17.368  13.490
54702W        W26318   9.861  30.009   3.205
54703W        W26319   8.312   7.312   0.421
54704W        W26320  37.693  14.772  14.776
54705W        W26321   8.191  11.665  10.770
54706W        W26322  22.509   2.834  10.407
54707W        W26323  26.581   6.602   0.347
54708W        W26324  12.179  12.598  10.856
54709W        W26325  19.625  25.607   1.336
54710W        W26326   2.346  26.440   3.246
54711W        W26327  20.701  30.387  11.092
54712W        W26328   6.860  13.402  13.458
54713W        W26329  29.183   3.754   1.805
54714W        W26330  36.134  28.075  12.311
54715W        W26331  28.471  21.303  13.806
54716W        W26332  15.345  29.911  14.070
54717W        W26333  39.926  41.712  12.560
54718W        W26334  16.094  31.651   4.216
54719W        W26335  29.495  33.473  14.820
54720W        W26336  20.549  15.895   2.692
54721W        W26337  34.091  34.029   1.227
54722W        W26338  32.951  35.330  14.067
54723W        W26339  16.186  16.549  14.752
54724W        W26340  44.658  15.321   4.717
54725W        W26341   5.218  17.558  10.577
54726W        W26342  24.521  36.992  11.591
54727W        W26343  31.492   4.451   3.708
54728W        W26344  20.936  31.626  10.689
54729W        W26345  29.664  35.241   1.439
54730W        W26346  28.373  20.009  11.442
54731W        W26347  10.074  13.346  11.134
54732W        W26348  24.047  34.201  11.479
54733W        W26349  37.508  26.036   4.826
54734W        W26350   8.979  33.639   3.506
54735W        W26351  35.772  22.333   4.298
54736W        W26352  25.424  21.464  14.879
54737W        W26353  24.569   5.323  14.922
54738W        W26354  12.728   2.847   3.497
54739W        W26355  26.807  31.278  12.863
54740W        W26356  37.626  44.936  13.913
54741W        W26357  22.805  23.010   1.332
54742W        W26358  34.612  20.969  13.289
54743W        W26359  44.973  37.166   2.806
54744W        W26360  27.932  31.765   5.077
54745W        W26361   6.941  37.110   1.360
54746W        W26362  35.582   4.316   1.754
54747W        W26363  19.299  11.056   2.266
54748W        W26364  36.399   3.044   0.852
54749W        W26365   6.289  24.683   2.186
54750W        W26366  25.690   3.446   4.693
54751W        W26367  27.532  36.294  12.003
54752W        W26368  27.544   5.381  12.062
54753W        W26369  22.093  13.839   2.399
54754W        W26370  29.116   3.772   1.243
54755W        W26371   6.675  16.319  13.548
54756W        W26372  19.626  28.142  10.461
54757W        W26373   9.744  19.944  11.798
54758W        W26374  35.443  38.590   4.130
54759W        W26375   4.204  16.508  14.389
54760W        W26376   2.525  38.845   4.235
54761W        W26377  16.152  28.520   1.451
54762W        W26378  32.568   2.228   1.202
54763W        W26379  23.167   8.466  13.413
54764W        W26380  23.551  16.996  13.155
54765W        W26381  21.669  17.763   0.703
54766W        W26382   2.999  28.988  10.403
54767W        W26383  10.266  19.083  13.858
54768W        W26384  25.636  42.821  13.538
54769W        W26385   2.489  10.065   5.235
54770W        W26386  26.707   8.680   4.563
54771W        W26387  17.556  40.461   1.475
54772W        W26388  27.599  13.359  10.067
54773W        W26389  17.056  21.525   2.163
54774W        W26390  18.618  17.724  13.779
54775W        W26391  14.558   7.865   0.942
54776W        W26392  44.385  31.927   4.398
54777W        W26393  33.002   6.737   0.350
54778W        W26394  34.198  16.869   2.534
54779W        W26395  26.418  43.772   0.448
54780W        W26396  24.572  14.875  12.570
54781W        W26397   3.868  20.900  11.665
54782W        W26398  31.592  18.289   0.786
54783W        W26399  15.422   3.546  10.893
54784W        W26400  42.128   2.243   1.859
54785W        W26401  34.626  31.540   1.784
54786W        W26402  38.509  16.168   2.777
54787W        W26403  40.539  14.245  11.626
54788W        W26404   6.722  28.134  12.017
54789W        W26405  12.316   6.868  12.899
54790W        W26406  41.457  14.107  11.479
54791W        W26407  22.088  42.235  12.335
54792W        W26408  16.491  39.855   0.228
54793W        W26409  22.687  25.794   4.325
54794W        W26410  10.877  28.053   1.985
54795W        W26411  40.234  14.962   1.376
54796W        W26412   0.708  35.250   3.245
54797W        W26413  28.892   7.160   2.279
54798W        W26414  22.064  13.421  14.408
54799W        W26415  37.628  31.100  10.571
54800W        W26416   2.168  41.814  13.056
54801W        W26417  25.227  18.535   2.548
54802W        W26418  42.267   4.074  12.532
54803W        W26419  18.244  22.137  12.411
54804W        W26420   0.890   3.709  12.875
54805W        W26421   9.391   6.074  11.118
54806W        W26422  43.800  27.444  14.392
54807W        W26423  34.127  36.526   0.317
54808W        W26424  39.386  11.352  12.874
54809W        W26425  10.894  29.450   0.787
54810W        W26426  14.705  22.213  11.477
54811W        W26427   0.747  38.855  13.876
54812W        W26428   0.461  25.413   2.514
54813W        W26429  26.687  37.910  13.946
54814W        W26430  20.020  36.834   2.197
54815W        W26431  28.570  37.376  14.221
54816W        W26432  38.224   5.239  10.379
54817W        W26433  22.534  34.680   1.846
54818W        W26434  12.518  12.479  10.476
54819W        W26435  13.356  38.207   0.378
54820W        W26436  39.080  43.785  10.686
54821W        W26437  42.823  20.253   3.370
54822W        W26438  16.405  40.004  11.981
54823W        W26439  20.531  44.655   2.271
54824W        W26440  32.946   8.820   2.765
54825W        W26441  28.662   5.483  14.035
54826W        W26442  20.951   0.051   2.842
54827W        W26443   2.810  33.227  14.351
54828W        W26444  14.651  13.182   3.731
54829W        W26445  41.900  36.108  10.235
54830W        W26446  14.964  35.536   4.187
54831W        W26447  23.285  26.912   1.499
54832W        W26448   2.580  27.650   4.566
54833W        W26449  12.418  35.566   4.312
54834W        W26450  27.184   2.546  10.709
54835W        W26451  12.374   5.029   2.719
54836W        W26452  24.190  41.360   0.179
54837W        W26453  18.901  40.080   1.699
54838W        W26454  38.720  43.747  11.991
54839W        W26455  11.157  11.454  11.516
54840W        W26456  25.137  19.268   4.253
54841W        W26457  35.337  20.648  11.047
54842W        W26458  18.759  41.359  14.044
54843W        W26459   1.771  38.481  13.796
54844W        W26460  33.973  30.350   4.497
54845W        W26461   7.712  42.938  13.857
54846W        W26462  22.078  43.057  12.029
54847W        W26463  10.826  32.916   2.728
54848W        W26464  36.941   6.814   1.951
54849W        W26465  36.850  34.895   3.279
54850W        W26466  15.376  23.852   1.689
54851W        W26467  19.076  37.715   1.753
54852W        W26468  44.461  11.398  13.292
54853W        W26469   3.831   1.409  14.000
54854W        W26470  17.574  32.951  14.746
54855W        W26471   0.358   6.278   4.494
54856W        W26472   4.099  34.728  14.792
54857W        W26473  11.843  43.262  12.082
54858W        W26474  35.083   0.515  13.953
54859W        W26475   1.767   3.817   0.411
54860W        W26476  36.061  32.258   4.581
54861W        W26477  27.032  40.916   4.510
54862W        W26478  19.022  35.618  12.599
54863W        W26479   2.841  41.368   4.697
54864W        W26480  20.303  14.277   3.774
54865W        W26481   5.327  30.185   0.357
54866W        W26482  44.007   8.555   3.653
54867W        W26483  34.067  32.877  11.459
54868W        W26484  10.490  24.107  12.946
54869W        W26485  10.530   2.826  11.150
54870W        W26486  21.921  17.257   2.112
54871W        W26487  31.037   9.361   0.845
54872W        W26488  28.943  35.835  11.918
54873W        W26489  41.659  10.113  11.493
54874W        W26490  42.937  40.748   3.291
54875W        W26491   9.727  16.411   3.839
54876W        W26492  20.473  10.657  10.660
54877W        W26493   5.414  42.928  14.480
54878W        W26494  30.012  33.759   0.743
54879W        W26495   2.702  42.864   4.736
54880W        W26496  40.240   4.851   3.238
54881W        W26497  24.475   3.760  13.874
54882W        W26498   1.503  10.809  14.346
54883W        W26499   9.889  38.566  12.657
54884W        W26500  43.882  25.026  14.428
54885W        W26501  31.158  42.278  14.973
54886W        W26502  42.352  32.341  14.027
54887W        W26503  34.516  37.605   1.685
54888W        W26504   9.234  24.206   4.836
54889W        W26505  40.167  29.152  12.296
54890W        W26506  42.840  34.082  12.369
54891W        W26507  38.832  13.665  12.834
54892W        W26508   9.846   6.674   1.204
54893W        W26509  28.908  23.867   4.086
54894W        W26510  31.437  36.445  13.916
54895W        W26511  13.081   6.612   0.971
54896W        W26512  20.536  24.551  12.949
54897W        W26513   0.025  27.379  14.867
54898W        W26514  19.500   3.634   1.311
54899W        W26515  22.673  40.567  14.833
54900W        W26516  26.471  35.012   4.977
54901W        W26517   6.538  28.764  11.510
54902W        W26518  29.101  12.621   2.623
54903W        W26519  12.548  17.858   2.428
54904W        W26520  12.639  24.236   4.822
54905W        W26521  17.608  33.126   1.737
54906W        W26522  19.991  43.473  11.623
54907W        W26523   9.932  25.062   1.845
54908W        W26524   4.006  33.097   2.207
54909W        W26525  32.028  15.387  10.959
54910W        W26526   9.115  13.484  10.554
54911W        W26527  36.621  26.107   3.814
54912W        W26528  18.575  22.252  12.923
54913W        W26529  33.154  12.301  12.852
54914W        W26530  31.469  20.654   3.292
54915W        W26531  36.858  13.623  13.051
54916W        W26532  14.860  42.278   2.725
54917W        W26533   5.090  21.794  11.651
54918W        W26534  24.724  20.773   0.397
54919W        W26535  36.380  44.344   9.974
54920W        W26536  26.228   4.881   0.857
54921W        W26537  17.513  19.921   4.305
54922W        W26538  29.463  37.214  14.012
54923W        W26539  26.454  42.432  13.189
54924W        W26540  41.544   9.377   4.457
54925W        W26541  38.907  11.562   0.528
54926W        W26542  30.465  25.676  13.080
54927W        W26543  40.254  42.920  14.922
54928W        W26544  10.128  12.719   4.615
54929W        W26545   5.331  25.598  11.124
54930W        W26546  36.987  25.503  14.338
54931W        W26547   7.213  38.280   0.342
54932W        W26548   7.713  29.029   4.535
54933W        W26549  13.696  15.586  14.237
54934W        W26550   6.807  34.416  12.516
54935W        W26551   4.471  40.480   2.337
54936W        W26552  30.747  44.328   0.688
54937W        W26553  34.055  29.928   0.130
54938W        W26554  10.171  32.688   4.626
54939W        W26555  42.394  35.486   0.630
54940W        W26556  34.758  31.428   4.621
54941W        W26557  28.103  30.214  11.108
54942W        W26558  35.192  31.371  14.100
54943W        W26559   0.537  26.109   1.839
54944W        W26560  30.249  21.641   2.913
54945W        W26561  37.404  35.776   1.489
54946W        W26562  44.867  20.731   0.322
54947W        W26563  44.336  21.250  11.699
54948W        W26564   7.189  42.805   1.107
54949W        W26565  11.612  34.400   3.113
54950W        W26566   4.452  23.871  14.802
54951W        W26567  37.424   5.852   4.140
54952W        W26568  14.738  29.293  11.019
54953W        W26569   1.648  15.035  12.956
54954W        W26570  36.255  12.207  10.832
54955W        W26571   0.775  37.402  12.618
54956W        W26572  41.900  10.411   0.890
54957W        W26573  23.644  12.527   0.492
54958W        W26574  30.867   4.523  13.482
54959W        W26575  37.850  12.867   2.843
54960W        W26576  16.163  26.939  14.926
54961W        W26577  22.616  28.900   3.233
54962W        W26578  36.403  33.515  13.418
54963W        W26579  33.923  28.421   0.196
54964W        W26580   3.490  17.715   1.871
54965W        W26581  37.099  22.356  13.821
54966W        W26582   4.184   0.604   2.657
54967W        W26583  31.317  11.615   0.506
54968W        W26584  23.742  11.473  14.211
54969W        W26585  16.561   2.713  13.488
54970W        W26586  37.549   9.400   2.447
54971W        W26587   5.948  13.154   2.603
54972W        W26588  35.064  33.977   4.197
54973W        W26589  37.449   4.680   3.122
54974W        W26590  16.056  12.185  13.102
54975W        W26591  17.632  40.886  11.404
54976W        W26592  42.227   5.038   2.260
54977W        W26593  33.757  27.502   3.162
54978W        W26594  29.914  41.309   3.248
54979W        W26595  16.548  27.094   4.316
54980W        W26596  39.098  38.327   1.789
54981W        W26597  34.416  32.407  13.960
54982W        W26598   5.385   7.500  11.553
54983W        W26599  24.061  18.188  14.710
54984W        W26600  44.516  36.797   4.596
54985W        W26601  44.770  42.289   2.262
54986W        W26602  33.234   6.917   0.975
54987W        W26603  44.430  38.906  14.367
54988W        W26604  43.454  28.570  10.514
54989W        W26605  11.664   7.178   4.627
54990W        W26606  24.407  19.111  11.199
54991W        W26607  13.572  36.409   3.817
54992W        W26608  42.459  43.470  11.535
54993W        W26609  39.491  37.569   0.800
54994W        W26610   3.892  35.881   0.842
54995W        W26611   6.634   0.324  14.997
54996W        W26612  20.322   7.955   4.299
54997W        W26613  38.795  44.786  11.604
54998W        W26614   8.000  36.053  10.728
54999W        W26615  24.127   4.477   2.766
55000W        W26616  28.744  43.539  12.873
55001W        W26617  16.754  30.588   3.913
55002W        W26618   7.887  39.140  10.296
55003W        W26619  28.166  24.082  12.418
55004W        W26620   6.442  41.940  14.416
55005W        W26621  12.627  30.061   3.785
55006W        W26622  26.933  19.202  11.113
55007W        W26623  38.045   4.256  11.907
55008W        W26624  23.354  37.992  12.461
55009W        W26625  11.768   0.447   4.729
55010W        W26626  27.044  40.946  11.979
55011W        W26627  10.088  34.101   2.221
55012W        W26628  19.972  23.189  14.546
55013W        W26629   2.753  27.455  11.105
55014W        W26630  40.551  40.999  10.804
55015W        W26631  24.076   8.488  10.377
55016W        W26632  34.136  39.349  10.768
55017W        W26633  26.501   0.240   3.248
55018W        W26634  22.681  41.060  12.386
55019W        W26635  33.496  25.586   0.696
55020W        W26636  27.101  23.457   3.712
55021W        W26637  30.189  17.713   1.507
55022W        W26638  21.003  13.694   0.295
55023W        W26639  41.113  16.812   3.079
55024W        W26640   9.325  24.046   2.365
55025W        W26641  30.029  29.773   1.935
55026W        W26642  22.072  36.905   0.823
55027W        W26643  33.514  25.485   1.195
55028W        W26644  14.327  35.388  12.996
55029W        W26645  30.009  23.538   4.942
55030W        W26646  20.196  27.423  11.512
55031W        W26647  32.032  20.138  12.557
55032W        W26648  11.254  41.693   3.697
55033W        W26649   3.980   2.533   2.244
55034W        W26650  23.069  14.577  12.495
55035W        W26651   1.444  38.526  12.471
55036W        W26652  27.107  27.697   2.445
55037W        W26653  21.348  42.247   3.265
55038W        W26654  21.303  39.920  11.511
55039W        W26655   3.518  41.487  11.143
55040W        W26656   5.245  28.239  12.571
55041W        W26657   0.984  14.882   4.855
55042W        W26658   6.018  34.799   3.677
55043W        W26659  11.362  15.502   5.024
55044W        W26660  32.247  28.225   0.374
55045W        W26661  36.109  19.892  11.620
55046W        W26662  10.082  18.105  14.014
55047W        W26663   3.990  31.422  12.454
55048W        W26664  28.799   2.717  13.731
55049W        W26665   3.465  20.619  13.781
55050W        W26666  18.251  38.758  10.575
55051W        W26667  42.928   9.879  13.368
55052W        W26668  21.075  14.235   4.466
55053W        W26669  13.974  21.540   3.696
55054W        W26670  20.314  19.557   4.540
55055W        W26671  20.310  24.012   0.854
55056W        W26672  34.215  23.274  14.016
55057W        W26673  25.991   0.996   0.155
55058W        W26674   8.521  36.577   3.345
55059W        W26675  16.302  27.262  12.248
55060W        W26676  32.065  27.940   4.976
55061W        W26677   7.347  25.734   0.379
55062W        W26678  30.560  38.864   1.391
55063W        W26679  33.442  10.941   3.295
55064W        W26680  16.826  31.055   2.220
55065W        W26681  14.730   1.547   0.889
55066W        W26682  19.634  21.780   3.730
55067W        W26683  25.112  26.014  10.776
55068W        W26684   0.366  26.237  13.812
55069W        W26685  16.038  42.957   0.795
55070W        W26686  29.444   0.840  14.396
55071W        W26687  12.317  12.227  12.512
55072W        W26688  34.556  15.132  14.839
55073W        W26689   1.698  21.948   3.921
55074W        W26690  39.760  24.013   3.733
55075W        W26691   0.760  40.067  11.258
55076W        W26692  26.566  32.038  14.211
55077W        W26693  16.762  27.442  11.638
55078W        W26694   7.866  21.612  14.281
55079W        W26695  37.870   7.933  11.041
55080W        W26696  13.619  12.233   3.281
55081W        W26697  17.799  42.934   2.697
55082W        W26698  11.618  44.520   1.176
55083W        W26699  41.833  42.655   0.240
55084W        W26700  18.402   8.794   4.161
55085W        W26701   1.253  29.907   2.243
55086W        W26702   9.319  19.631  11.746
55087W        W26703  19.351  30.158  13.886
55088W        W26704  16.235   7.356   2.916
55089W        W26705  32.483   9.370   0.722
55090W        W26706   0.975  41.727  14.550
55091W        W26707   9.706  35.295   4.913
55092W        W26708   7.749  14.338  11.528
55093W        W26709  11.779  22.200   4.703
55094W        W26710   1.853   0.865   1.940
55095W        W26711  26.658  21.141   4.601
55096W        W26712   6.547  33.534   5.050
55097W        W26713  21.685  40.249  12.147
55098W        W26714  26.464  23.091  14.922
55099W        W26715   9.388   7.124  11.132
55100W        W26716  30.601  19.703   4.222
55101W        W26717  18.203  23.621  10.747
55102W        W26718   2.223   9.585  14.502
55103W        W26719  20.598   8.765   2.416
55104W        W26720  21.266  33.190  12.943
55105W        W26721  21.221  44.562  13.366
55106W        W26722  11.898  37.440  13.590
55107W        W26723  38.123  20.805   9.857
55108W        W26724  24.191  19.766  13.999
55109W        W26725  15.103  37.952  14.989
55110W        W26726  38.972  36.344  12.029
55111W        W26727  19.576  35.536  13.946
55112W        W26728   2.393  24.631   0.217
55113W        W26729  35.378  29.631   2.215
55114W        W26730  33.973  13.397   4.245
55115W        W26731  30.176  35.603   0.683
55116W        W26732  30.296   5.161   4.113
55117W        W26733  43.889  34.785  14.961
55118W        W26734   8.285   7.739  12.927
55119W        W26735   2.114   2.526   2.739
55120W        W26736  14.645   6.332  12.698
55121W        W26737  38.860  21.833  10.766
55122W        W26738  36.172  23.299  14.910
55123W        W26739  29.673  16.489   2.664
55124W        W26740  44.399  37.356  14.464
55125W        W26741   5.123  29.078  11.529
55126W        W26742  39.005  38.067  11.598
55127W        W26743  32.712  38.802  11.547
55128W        W26744  23.014  34.406  10.232
55129W        W26745  41.602  28.624   2.246
55130W        W26746  25.481  10.849  13.950
55131W        W26747  23.989  38.778   4.011
55132W        W26748  21.723  28.071  13.325
55133W        W26749   3.709   9.157  10.735
55134W        W26750   9.239  14.237  11.156
55135W        W26751  44.494  39.963  12.048
55136W        W26752  40.344  17.192  11.064
55137W        W26753   3.412  40.981   2.720
55138W        W26754  32.032   1.413   3.655
55139W        W26755  24.753   6.756   4.752
55140W        W26756  21.778  17.463   1.683
55141W        W26757  38.383  25.085   0.897
55142W        W26758  30.840   9.883   1.558
55143W        W26759  43.724  38.470   3.700
55144W        W26760  11.641  11.683   4.525
55145W        W26761  22.727  32.086   0.485
55146W        W26762  40.209   3.092   3.309
55147W        W26763  44.135  42.929  11.484
55148W        W26764  26.533   3.378  13.962
55149W        W26765   1.427  36.925  13.038
55150W        W26766  12.995   2.346  13.843
55151W        W26767   6.655  16.109  11.666
55152W        W26768  17.133  11.310   3.612
55153W        W26769  21.090  44.428   0.554
55154W        W26770  39.488   9.781  11.431
55155W        W26771  24.251  17.533   2.213
55156W        W26772  41.538  15.753  12.857
55157W        W26773  42.266  35.984   2.847
55158W        W26774  33.587   4.942  11.488
55159W        W26775  26.750  35.061   4.524
55160W        W26776   9.851   9.287   2.774
55161W        W26777  17.167  31.750   4.989
55162W        W26778  24.189  40.000   3.347
55163W        W26779   7.890  27.064  12.935
55164W        W26780  44.687  39.062   3.350
55165W        W26781  43.857  28.295  13.124
55166W        W26782  28.075  41.056  11.974
55167W        W26783  30.553   5.730  14.282
55168W        W26784   4.239  26.686   2.874
55169W        W26785  20.600  10.603   0.335
55170W        W26786  24.690  17.950  13.342
55171W        W26787  24.971  25.190  13.738
55172W        W26788   5.158  32.473  12.945
55173W        W26789  40.316  23.536   4.133
55174W        W26790  16.796  42.772   3.804
55175W        W26791   7.366  27.431  11.176
55176W        W26792   4.761  31.195   0.426
55177W        W26793  30.778  20.167   4.434
55178W        W26794   9.718   3.033   1.014
55179W        W26795  17.851  32.933   3.216
55180W        W26796  44.081  14.438  13.137
55181W        W26797   2.432  26.868  13.073
55182W        W26798   0.047  36.365   1.719
55183W        W26799  18.745  25.217  11.931
55184W        W26800  19.038  33.686   1.495
55185W        W26801  19.409  21.518  10.496
55186W        W26802  35.143  44.332   2.506
55187W        W26803   3.636  39.016  12.887
55188W        W26804   4.740  27.148  12.155
55189W        W26805  29.038  38.659  14.776
55190W        W26806  33.662  42.184  14.334
55191W        W26807   2.351  26.422  10.465
55192W        W26808  34.250  16.155   1.335
55193W        W26809  28.957  11.442  11.534
55194W        W26810  21.750  17.145  13.964
55195W        W26811   7.168  34.436   0.917
55196W        W26812  20.064   7.417   1.813
55197W        W26813  10.255  40.101  12.571
55198W        W26814  41.643  11.727   1.854
55199W        W26815  19.338   7.804  14.048
55200W        W26816  30.272   1.362  10.683
55201W        W26817  42.352  36.064  12.923
55202W        W26818   8.214  19.647  12.990
55203W        W26819   8.828  32.380  13.642
55204W        W26820  20.966  41.051   0.655
55205W        W26821  26.513  37.816   0.861
55206W        W26822  25.924  40.361  12.466
55207W        W26823  16.723  16.149   0.288
55208W        W26824   9.875  27.370  10.720
55209W        W26825   3.235  33.110   4.835
55210W        W26826  30.483  13.340   0.029
55211W        W26827  19.756  28.368  11.168
55212W        W26828  43.249   9.730   2.478
55213W        W26829  20.040  32.850  12.486
55214W        W26830   4.104  31.388  13.344
55215W        W26831  27.777  31.450  13.285
55216W        W26832  38.921  16.078  10.473
55217W        W26833  21.550  43.289  13.334
55218W        W26834  11.596  24.240   1.680
55219W        W26835  34.544  34.119  12.403
55220W        W26836  42.266  37.329  11.565
55221W        W26837   6.769  12.423  13.560
55222W        W26838   0.771  29.947  13.322
55223W        W26839  40.567   9.922  12.539
55224W        W26840  42.660  40.276   3.232
55225W        W26841  32.150  37.347  13.447
55226W        W26842  11.936  24.044   2.123
55227W        W26843  25.503  27.183  10.880
55228W        W26844   7.193  38.122   3.925
55229W        W26845  34.850   3.688  12.923
55230W        W26846   2.984  35.452   2.242
55231W        W26847   2.497  37.502  13.572
55232W        W26848  24.364   9.860   4.393
55233W        W26849  35.600  44.326  12.437
55234W        W26850  40.731  39.259   0.856
55235W        W26851  23.192  34.908   1.518
55236W        W26852  26.039  21.294  11.044
55237W        W26853  30.913  41.474  14.499
55238W        W26854  37.535  21.037   0.921
55239W        W26855  13.433   8.173  12.552
55240W        W26856  21.280  30.017   3.591
55241W        W26857   0.815  33.994   4.631
55242W        W26858  23.300   1.945   1.198
55243W        W26859  41.336  36.897   3.388
55244W        W26860  24.960   2.381   4.762
55245W        W26861  38.391  11.752   0.687
55246W        W26862  15.041  16.838  14.863
55247W        W26863  30.539  11.864   2.737
55248W        W26864  21.043  36.602   2.426
55249W        W26865   7.228  26.698   2.879
55250W        W26866  44.589  31.086   0.311
55251W        W26867   1.279  40.982  13.550
55252W        W26868  33.051  22.500  14.929
55253W        W26869  22.675  38.094   2.035
55254W        W26870  40.453  30.609  10.655
55255W        W26871  26.685  30.131   1.684
55256W        W26872  11.607  33.235  13.991
55257W        W26873   9.441  30.061   2.846
55258W        W26874  44.154  10.793   1.020
55259W        W26875  43.916   8.301   2.359
55260W        W26876   6.987  40.065  10.713
55261W        W26877   0.255  20.009  14.366
55262W        W26878  24.079  36.938  11.030
55263W        W26879  40.049   5.266  11.753
55264W        W26880  23.210  13.132  14.013
55265W        W26881   1.356  30.585  12.320
55266W        W26882  40.978  23.554  13.510
55267W        W26883  24.090  18.636  13.511
55268W        W26884  34.716  13.144   4.732
55269W        W26885  28.472  26.606   3.943
55270W        W26886   8.919  38.391  12.448
55271W        W26887  38.300  24.226   3.743
55272W        W26888   6.152  27.298   1.181
55273W        W26889   8.725   2.175  10.775
55274W        W26890  27.310   9.003   0.447
55275W        W26891   0.016  30.373  10.617
55276W        W26892  19.090  39.094   2.870
55277W        W26893   8.917   2.742   3.632
55278W        W26894   0.419  31.662   2.858
55279W        W26895  15.976  33.481  11.662
55280W        W26896   9.102   1.761   4.153
55281W        W26897  39.993  10.342   5.174
55282W        W26898  17.560  40.942   1.245
55283W        W26899  23.637  39.263  12.971
55284W        W26900  21.711  15.806   1.474
55285W        W26901  41.536  24.926   3.777
55286W        W26902  28.126  11.724  14.917
55287W        W26903  44.792  44.444  14.331
55288W        W26904  27.152   6.158  11.072
55289W        W26905  32.924   6.674  10.761
55290W        W26906   7.830  33.166  10.702
55291W        W26907  36.075  27.547  10.926
55292W        W26908  11.251  43.212  13.843
55293W        W26909   2.216  33.102   1.853
55294W        W26910  25.533  32.006  10.722
55295W        W26911  36.254   3.927   2.906
55296W        W26912   3.398   8.994  14.847
55297W        W26913  41.464  21.677   3.701
55298W        W26914  40.950  36.430  14.545
55299W        W26915  22.630  33.352  11.967
55300W        W26916  33.365  13.827  12.054
55301W        W26917   9.059  11.422   0.324
55302W        W26918  41.260  36.183   2.858
55303W        W26919  15.401   8.313  12.467
55304W        W26920  30.216   3.311   4.881
55305W        W26921   5.469  10.023   4.688
55306W        W26922  12.552  34.372   2.695
55307W        W26923  28.939   4.239   1.770
55308W        W26924  11.835   5.252  14.779
55309W        W26925  39.495  15.069   1.796
55310W        W26926   8.173   5.673  10.523
55311W        W26927  10.303  43.426   4.888
55312W        W26928  41.225  18.669   4.233
55313W        W26929  13.554  35.510  12.355
55314W        W26930  34.844  33.483  11.628
55315W        W26931   0.239   5.714  14.221
55316W        W26932  16.654  21.219  13.871
55317W        W26933  40.612  22.196   1.708
55318W        W26934  42.243  18.784  14.552
55319W        W26935  28.361  42.316  11.094
55320W        W26936  18.474  10.041   4.973
55321W        W26937   3.893  21.355   0.943
55322W        W26938  23.128  40.908   3.206
55323W        W26939   0.867  38.762   4.756
55324W        W26940  25.124  18.738  13.169
55325W        W26941  27.041  29.921   0.294
55326W        W26942  26.273  23.029   0.397
55327W        W26943  28.939   4.720  11.814
55328W        W26944  15.074  42.627  14.273
55329W        W26945   1.113  36.948  11.371
55330W        W26946  35.261  24.727   4.134
55331W        W26947  29.397  35.008   1.036
55332W        W26948  27.791  29.007   3.344
55333W        W26949  32.289  28.356   5.262
55334W        W26950  43.522  27.022   1.905
55335W        W26951  20.207  37.880   3.757
55336W        W26952   3.938   5.487   1.559
55337W        W26953   3.871  29.436   2.396
55338W        W26954   8.451  19.293   4.181
55339W        W26955  44.051  38.288   5.415
55340W        W26956  12.720   4.541  13.037
55341W        W26957  12.172  29.780  14.516
55342W        W26958  26.211  11.581   0.915
55343W        W26959   4.778  25.040  10.638
55344W        W26960  32.919   6.367  12.593
55345W        W26961  23.097   9.613  12.773
55346W        W26962  27.503   9.720   2.152
55347W        W26963   7.535   8.426  11.465
55348W        W26964  33.048  27.072  14.327
55349W        W26965  44.833  10.866  13.060
55350W        W26966  18.149  20.240  13.873
55351W        W26967  16.772   6.435  11.892
55352W        W26968   7.217  41.884   4.903
55353W        W26969   6.394  10.686   0.157
55354W        W26970  24.117   9.700   1.687
55355W        W26971  27.958  40.611  14.722
55356W        W26972  24.145  42.306   1.647
55357W        W26973  42.253  21.144   0.262
55358W        W26974  25.169   7.637  10.667
55359W        W26975  34.085  35.881  14.921
55360W        W26976  17.596   5.391  12.017
55361W        W26977  29.986  20.466  12.130
55362W        W26978   1.842  28.183  12.852
55363W        W26979  28.563   0.498  13.658
55364W        W26980   8.469   4.003   2.921
55365W        W26981  13.722   0.777  14.890
55366W        W26982  43.496  29.355   1.799
55367W        W26983  24.469  17.658   2.940
55368W        W26984   6.669   8.208   3.519
55369W        W26985  35.666  24.146  11.659
55370W        W26986  29.464  19.335   0.996
55371W        W26987  44.229  41.970   3.280
55372W        W26988  34.283  33.459   0.817
55373W        W26989   7.619   5.722   1.207
55374W        W26990  38.983  24.756   5.216
55375W        W26991  27.613  43.120  14.854
55376W        W26992  31.457  35.278   2.785
55377W        W26993  11.364  38.333  11.120
55378W        W26994  38.828   3.837   2.724
55379W        W26995   1.470  32.968   3.232
55380W        W26996  14.227  40.533   0.406
55381W        W26997  44.677  27.157  12.930
55382W        W26998  33.151  10.236  11.219
55383W        W26999  37.797  19.234   3.328
55384W        W27000  27.195   8.619   3.698
55385W        W27001  36.587  24.046   3.384
55386W        W27002   1.858  10.821  11.680
55387W        W27003  22.765  18.587  12.977
55388W        W27004   8.786  43.200   2.789
55389W        W27005  10.653   9.457   3.300
55390W        W27006  29.241  28.369  14.021
55391W        W27007  28.405  34.924   2.277
55392W        W27008  28.671   5.132  12.539
55393W        W27009  44.936   7.056  12.451
55394W        W27010  23.892  37.042  12.595
55395W        W27011  32.968  19.592   3.378
55396W        W27012  38.506  31.000   0.745
55397W        W27013  17.340  38.448   1.774
55398W        W27014   3.524  37.008   4.137
55399W        W27015  12.105  12.342  11.999
55400W        W27016  11.387  32.247  11.115
55401W        W27017  40.741  32.562  13.424
55402W        W27018  16.941  36.046   2.401
55403W        W27019  27.091  30.430   0.048
55404W        W27020  17.737   3.762   0.430
55405W        W27021  22.512  29.907  11.207
55406W        W27022   5.867   4.276  11.399
55407W        W27023  22.027   5.895   1.203
55408W        W27024  37.463  14.353   3.465
55409W        W27025  43.507  42.473  13.483
55410W        W27026  27.090  13.790   4.071
55411W        W27027  43.359  15.163   0.772
55412W        W27028  25.471   9.080  11.986
55413W        W27029  36.342   9.822   3.750
55414W        W27030   7.683   6.769  13.297
55415W        W27031  19.794  16.784   0.348
55416W        W27032   4.008  37.489   5.041
55417W        W27033   8.915  44.496  13.040
55418W        W27034  44.796  19.229   1.324
55419W        W27035  44.376   1.434  13.554
55420W        W27036  34.136   8.787  12.510
55421W        W27037  19.387  10.223   2.880
55422W        W27038   6.822  24.480   0.754
55423W        W27039   5.380  25.096   1.717
55424W        W27040  26.183  17.162  13.114
55425W        W27041  22.182  38.857   3.234
55426W        W27042  23.280   9.370  11.042
55427W        W27043  32.348  36.172   0.756
55428W        W27044  23.205  21.678  12.386
55429W        W27045  42.897  21.452  13.106
55430W        W27046  40.083  38.575   1.280
55431W        W27047  25.588  21.008  13.881
55432W        W27048   7.443   9.025   1.286
55433W        W27049  37.404   2.205  14.045
55434W        W27050  35.631  37.495  14.406
55435W        W27051   3.365  13.211   3.628
55436W        W27052  15.903  19.727   3.750
55437W        W27053  35.591   6.287  10.611
55438W        W27054   3.756  34.106   0.275
55439W        W27055  26.550   6.605   1.716
55440W        W27056   5.209  15.207   0.515
55441W        W27057  31.604  11.235  11.810
55442W        W27058   3.279  41.988  12.936
55443W        W27059   8.625   7.408  14.577
55444W        W27060   0.918  37.907   0.862
55445W        W27061  25.043  33.214  12.923
55446W        W27062  26.735  32.998   3.156
55447W        W27063   1.496  17.299  13.376
55448W        W27064  36.950  15.809  10.767
55449W        W27065  32.163   8.636  12.833
55450W        W27066  19.660  36.008   4.319
55451W        W27067  23.303  14.791  11.716
55452W        W27068  24.309  33.318  11.026
55453W        W27069   4.603  38.564  13.803
55454W        W27070  32.456   0.691   0.322
55455W        W27071  15.114   8.287  12.898
55456W        W27072  32.970  33.602  10.158
55457W        W27073  12.128   8.273  13.061
55458W        W27074  23.381  20.184  12.449
55459W        W27075  35.023  14.600   2.878
55460W        W27076  38.410   2.964  14.829
55461W        W27077  28.591  26.145  14.455
55462W        W27078  37.482  26.980   4.833
55463W        W27079  17.998  13.628  13.117
55464W        W27080  39.835   2.330  14.264
55465W        W27081  39.131  39.089  13.413
55466W        W27082   2.195   1.995   1.247
55467W        W27083  39.765  21.793  13.408
55468W        W27084  20.939  43.056  10.783
55469W        W27085  24.388  11.319  14.969
55470W        W27086  36.670  44.443  14.920
55471W        W27087  12.161  26.445   4.345
55472W        W27088  41.357  41.484  10.574
55473W        W27089   4.711  42.253   4.174
55474W        W27090  44.390  32.710  10.376
55475W        W27091   7.237  19.140  13.829
55476W        W27092  23.112  42.445  10.332
55477W        W27093  42.561  26.093   1.317
55478W        W27094  11.723  28.605   4.319
55479W        W27095  42.339   4.507   0.248
55480W        W27096  14.240   1.791  12.107
55481W        W27097  38.151  14.713   2.923
55482W        W27098  27.503   8.719   0.890
55483W        W27099  31.157  37.381   3.648
55484W        W27100   3.317  23.103  11.459
55485W        W27101  40.174  29.069  10.352
55486W        W27102  15.092  33.160   1.705
55487W        W27103  14.310  40.414  13.163
55488W        W27104  20.748  42.096   2.028
55489W        W27105   5.430  16.100   1.780
55490W        W27106   0.340   9.662   1.419
55491W        W27107  17.615   3.377  14.017
55492W        W27108  22.761  40.120   2.350
55493W        W27109  13.585  20.331   0.810
55494W        W27110  10.609  34.148  14.852
55495W        W27111  33.153  15.488   0.014
55496W        W27112   6.222  17.740   4.327
55497W        W27113  31.208   9.281  12.056
55498W        W27114  36.315  42.898  11.470
55499W        W27115  11.795   3.110   1.351
55500W        W27116  33.209   6.252   0.510
55501W        W27117  21.136  25.391   1.132
55502W        W27118   1.895  33.143   2.306
55503W        W27119  23.406   0.975  10.631
55504W        W27120  20.784  10.282  12.378
55505W        W27121  36.501  21.229   2.477
55506W        W27122  28.052  25.398  13.325
55507W        W27123  35.652  37.351   2.876
55508W        W27124  24.266  33.006  12.370
55509W        W27125   5.853   6.143   1.727
55510W        W27126  32.199  15.101   4.036
55511W        W27127  41.473   5.946   2.813
55512W        W27128   9.948  39.977  14.403
55513W        W27129  20.134  10.801  11.074
55514W        W27130  26.051  39.290   2.425
55515W        W27131  31.072  11.149   0.492
55516W        W27132   7.234   8.298  14.076
55517W        W27133  20.764  38.552   3.330
55518W        W27134  26.759   6.826  14.463
55519W        W27135   1.569  40.851  13.046
55520W        W27136   8.783  32.644   4.246
55521W        W27137  38.357  12.398  11.569
55522W        W27138  19.793  22.157   2.901
55523W        W27139  10.460  34.787  10.754
55524W        W27140  10.344  37.849  12.127
55525W        W27141  12.652   9.935   2.320
55526W        W27142   5.584   6.944   4.414
55527W        W27143  12.371  19.641  13.859
55528W        W27144   3.703  44.777   3.146
55529W        W27145  33.433  11.933  14.008
55530W        W27146  11.766  11.728  14.279
55531W        W27147  38.980  14.573  14.563
55532W        W27148   8.751  40.531  14.731
55533W        W27149  43.284  39.088   2.843
55534W        W27150  37.967  28.082  10.697
55535W        W27151  36.897   6.143  11.083
55536W        W27152   7.597  16.163   4.372
55537W        W27153  32.492   9.374  13.001
55538W        W27154  18.813   7.198  12.947
55539W        W27155  21.553  25.910  14.537
55540W        W27156  42.812  34.075   4.557
55541W        W27157  35.653  34.586   1.357
55542W        W27158  36.059  36.490  11.559
55543W        W27159  24.599  12.026   3.327
55544W        W27160  35.882   4.850  10.421
55545W        W27161  25.206  43.216   3.823
55546W        W27162  26.101   4.485   2.153
55547W        W27163  15.178   5.253  11.120
55548W        W27164  11.921  33.998  11.095
55549W        W27165  25.117  10.099  10.684
55550W        W27166  11.768  14.779  14.761
55551W        W27167   3.541   9.263   0.254
55552W        W27168  40.908  32.701   1.368
55553W        W27169   4.567  16.883  14.396
55554W        W27170  29.524  24.789  13.463
55555W        W27171   4.865  23.055   4.237
55556W        W27172  13.185  24.720   2.837
55557W        W27173  18.606  44.303  11.101
55558W        W27174  43.967   3.563   1.376
55559W        W27175  36.106  13.357   4.689
55560W        W27176  13.293  37.888  13.755
55561W        W27177  22.135  12.222  12.980
55562W        W27178  27.718  38.997   0.396
55563W        W27179  35.405  14.108  14.735
55564W        W27180  37.743   3.315   0.844
55565W        W27181  44.060  12.278   3.914
55566W        W27182  19.221   3.321   4.864
55567W        W27183  33.518   0.992   3.151
55568W        W27184  19.283  25.982   1.372
55569W        W27185  35.499  36.390   0.738
55570W        W27186   7.573  21.093  12.911
55571W        W27187   0.711  39.394  12.893
55572W        W27188  32.576  17.442   3.967
55573W        W27189  33.988  10.621   1.528
55574W        W27190  18.718   5.689   9.813
55575W        W27191   0.739  21.452  11.552
55576W        W27192   4.342  31.914  10.441
55577W        W27193  29.367   9.214  12.479
55578W        W27194  40.525   0.071   1.811
55579W        W27195  28.116  27.624   4.654
55580W        W27196  44.417  44.722  12.634
55581W        W27197  30.878  27.606  12.533
55582W        W27198  41.318   6.252  10.715
55583W        W27199  44.321   1.521   2.831
55584W        W27200   8.686  18.092  10.263
55585W        W27201  27.018  36.904   0.806
55586W        W27202  37.242  16.615   1.321
55587W        W27203  31.420  21.867   3.964
55588W        W27204  38.956  32.644   3.774
55589W        W27205  27.756  39.024  14.427
55590W        W27206   1.454  39.023   0.479
55591W        W27207   1.671  21.156  14.165
55592W        W27208   1.838  12.567  14.188
55593W        W27209  22.331   7.940  13.819
55594W        W27210   6.706  42.966  13.417
55595W        W27211  17.128  38.595   4.300
55596W        W27212  44.777  21.538  11.470
55597W        W27213  18.117  17.586  14.443
55598W        W27214  38.948   2.834   3.554
55599W        W27215  39.485   8.900   4.191
55600W        W27216  43.918  25.697  10.689
55601W        W27217  40.125  24.032  12.428
55602W        W27218  36.041  19.763   1.834
55603W        W27219  41.423  42.886   0.047
55604W        W27220  34.804   3.784   1.861
55605W        W27221   8.289  17.383  11.218
55606W        W27222  34.664  37.943  12.095
55607W        W27223  37.427  13.353   2.058
55608W        W27224  20.197   0.293   4.299
55609W        W27225   4.049  38.476   4.849
55610W        W27226  20.170   8.835  14.502
55611W        W27227  23.643  11.167   1.182
55612W        W27228  31.481   2.402   2.427
55613W        W27229  42.355  40.888  11.190
55614W        W27230   1.823   1.214   0.014
55615W        W27231  43.436   3.355  10.712
55616W        W27232   8.368  35.518   1.347
55617W        W27233  24.687   9.766  12.501
55618W        W27234  32.872  10.257  14.835
55619W        W27235  11.819  37.987  10.375
55620W        W27236  10.065  11.238  13.044
55621W        W27237  33.410   2.312  10.318
55622W        W27238  40.943   6.154   1.235
55623W        W27239   7.228  42.688   2.579
55624W        W27240   9.164  36.395  14.315
55625W        W27241  29.991  37.092   3.302
55626W        W27242   6.638  33.523   2.269
55627W        W27243  40.910  38.061   1.497
55628W        W27244  27.661  14.141  10.485
55629W        W27245  26.429  28.164   3.228
55630W        W27246   9.324  10.703  12.008
55631W        W27247  10.801  13.797  11.218
55632W        W27248  26.780   6.396   3.925
55633W        W27249   9.631  16.392   0.699
55634W        W27250   6.294  24.705  13.769
55635W        W27251  29.929  13.306   0.841
55636W        W27252  37.867  21.377   4.888
55637W        W27253  42.989  19.151   0.570
55638W        W27254   1.857  37.521  14.796
55639W        W27255  37.536  21.131  14.515
55640W        W27256  30.753  32.174   4.674
55641W        W27257  29.459  17.288  11.159
55642W        W27258  18.755  29.455   1.326
55643W        W27259  35.153  40.985  12.352
55644W        W27260  23.940   4.428   0.906
55645W        W27261  33.881  17.817   2.364
55646W        W27262  20.520  18.278   4.825
55647W        W27263  14.855  44.433  13.549
55648W        W27264   2.439  40.544  12.441
55649W        W27265   8.793  23.013  10.646
55650W        W27266  43.388  29.890  14.821
55651W        W27267  35.449  40.489   4.614
55652W        W27268  10.186  28.028  11.855
55653W        W27269  19.246  37.458  14.135
55654W        W27270  13.797  29.954   0.728
55655W        W27271  24.538  27.006  10.348
55656W        W27272   9.629   1.123   1.798
55657W        W27273  37.031  21.564  10.433
55658W        W27274   4.021  10.850   1.756
55659W        W27275  12.508  12.712   1.922
55660W        W27276   8.423  39.140   1.332
55661W        W27277  18.698  35.421  14.999
55662W        W27278   3.837  42.861  12.098
55663W        W27279  16.598  19.028  14.907
55664W        W27280  19.446  35.983   4.793
55665W        W27281   0.481  39.008  12.135
55666W        W27282  35.143  22.205  12.974
55667W        W27283  32.514  33.037  12.438
55668W        W27284  40.993  25.371  12.062
55669W        W27285  32.932  35.267   4.177
55670W        W27286   3.421  16.712  14.946
55671W        W27287  36.402  43.108  10.609
55672W        W27288  17.358  38.563  12.500
55673W        W27289  42.513  23.375   4.212
55674W        W27290  39.061  43.274  10.717
55675W        W27291  27.958  18.793   4.208
55676W        W27292  44.344   2.915  13.767
55677W        W27293  34.598  21.407   0.400
55678W        W27294  39.967   7.451  11.102
55679W        W27295  23.322   8.222  12.913
55680W        W27296  21.672  18.597   3.087
55681W        W27297  38.918  39.472   2.369
55682W        W27298  19.174   5.887  13.214
55683W        W27299  34.099  13.651   4.674
55684W        W27300  18.552  38.168  12.165
55685W        W27301  15.142  42.487   4.775
55686W        W27302  17.131   3.431   3.971
55687W        W27303   3.938  44.128   0.337
55688W        W27304  10.284  22.554  12.104
55689W        W27305  19.045   7.245   0.284
55690W        W27306  36.509  34.425   3.883
55691W        W27307  21.623  12.814  10.584
55692W        W27308   7.366   9.864  10.986
55693W        W27309  21.484  18.667  11.210
55694W        W27310  15.913   8.075   5.204
55695W        W27311  29.739  12.607   0.363
55696W        W27312   3.232  12.776  11.596
55697W        W27313   5.411  15.461   2.772
55698W        W27314  41.515  29.195   4.953
55699W        W27315  26.169   9.874   4.668
55700W        W27316  22.429   2.089   4.728
55701W        W27317  12.293  21.584   3.259
55702W        W27318   3.226  31.902  13.034
55703W        W27319  44.148  34.647  12.011
55704W        W27320  29.511  15.026   0.815
55705W        W27321  21.741  22.317  12.990
55706W        W27322  16.747  40.087  14.808
55707W        W27323  27.001  16.824   4.227
55708W        W27324  20.542  32.912  12.467
55709W        W27325  43.909  27.596  10.533
55710W        W27326  32.047  28.289   9.908
55711W        W27327  43.311  31.578   0.338
55712W        W27328  10.247  21.343   1.835
55713W        W27329   7.305  24.105  14.437
55714W        W27330  34.194   2.576  10.953
55715W        W27331   5.275  13.708   1.292
55716W        W27332  16.044  22.274  11.109
55717W        W27333  19.316  41.539  10.956
55718W        W27334  39.568  26.438  13.469
55719W        W27335  31.309  21.994  13.115
55720W        W27336   9.254   3.788  12.602
55721W        W27337   4.586   3.894   1.316
55722W        W27338   4.262  16.213   2.581
55723W        W27339   7.502  30.420  12.817
55724W        W27340  34.753  15.025   0.335
55725W        W27341  41.269  32.927  14.497
55726W        W27342  31.563  31.353  14.274
55727W        W27343  11.502  25.880  11.940
55728W        W27344  21.333  40.547  13.338
55729W        W27345  10.347   0.940   0.391
55730W        W27346   1.234  26.119  11.064
55731W        W27347   6.647  12.774  13.903
55732W        W27348  33.658  30.407  12.437
55733W        W27349  28.198  40.269   3.719
55734W        W27350  30.470   4.393   1.190
55735W        W27351  30.333  44.936   1.721
55736W        W27352   1.843  41.801  10.700
55737W        W27353  42.454  27.627  12.450
55738W        W27354   0.709  32.534   3.753
55739W        W27355  44.623  12.628  12.487
55740W        W27356  19.047  13.489  13.814
55741W        W27357  26.609   1.862  14.457
55742W        W27358  31.513  11.681   3.124
55743W        W27359  21.061  34.622   0.448
55744W        W27360   9.820  24.267   2.335
55745W        W27361  38.945  14.317   2.757
55746W        W27362  37.469  20.330  13.406
55747W        W27363  21.585  37.535   3.761
55748W        W27364   5.038  17.131   3.167
55749W        W27365  31.517   7.052   3.717
55750W        W27366  16.762  26.653   1.657
55751W        W27367  13.642  37.289   2.905
55752W        W27368  13.894  30.317   0.306
55753W        W27369  41.875  11.291   2.324
55754W        W27370  19.520  10.403   4.289
55755W        W27371  10.744  24.535  13.149
55756W        W27372  16.704  20.878  13.475
55757W        W27373  23.600  34.570   0.324
55758W        W27374  32.930  25.109   2.371
55759W        W27375  32.928  16.135   4.309
55760W        W27376   8.939  30.139   2.283
55761W        W27377  11.525  39.291  12.481
55762W        W27378  27.388   4.215   1.765
55763W        W27379  31.624  15.276  11.917
55764W        W27380  29.643  27.712  13.597
55765W        W27381  29.358  31.445   1.986
55766W        W27382  22.234  30.961  14.994
55767W        W27383  33.162  44.825   1.679
55768W        W27384  22.749  22.671   4.649
55769W        W27385  15.643  23.199  10.980
55770W        W27386  12.834  38.550   4.980
55771W        W27387  42.752  22.210   4.535
55772W        W27388   8.353  39.891  13.107
55773W        W27389  11.099   0.430   1.187
55774W        W27390  10.680  24.546   1.667
55775W        W27391  16.637  14.664  13.023
55776W        W27392  34.563  28.055   1.816
55777W        W27393   1.947  17.597   1.509
55778W        W27394  10.377   9.172   4.151
55779W        W27395  11.424  43.076   3.177
55780W        W27396  10.868  24.938  14.902
55781W        W27397  36.527  29.144   1.422
55782W        W27398  10.749  12.348  13.413
55783W        W27399  35.264  14.967   0.297
55784W        W27400  24.125   8.440  10.886
55785W        W27401  19.129  16.816  10.725
55786W        W27402   1.009   2.518   3.685
55787W        W27403   7.788  32.175   4.561
55788W        W27404   8.041  13.570  14.367
55789W        W27405  21.201  19.718   2.209
55790W        W27406  42.317  18.428  14.934
55791W        W27407   4.381  19.000   4.350
55792W        W27408  11.830  13.325   2.404
55793W        W27409  41.049   7.126   2.297
55794W        W27410  36.341  13.648   0.844
55795W        W27411   7.352  22.678   2.211
55796W        W27412  36.917  31.791  12.896
55797W        W27413  30.941  32.967   0.434
55798W        W27414   9.915  27.219   2.640
55799W        W27415   7.195   8.995   1.728
55800W        W27416  18.793   4.339  11.469
55801W        W27417   5.848   7.387   4.409
55802W        W27418   8.513  33.537   1.183
55803W        W27419  28.245  42.530   1.317
55804W        W27420  23.212  42.298  14.293
55805W        W27421   0.335  31.579  11.729
55806W        W27422   1.528   5.191  12.626
55807W        W27423  36.310  34.253  14.283
55808W        W27424  11.659  30.163  13.791
55809W        W27425   1.543   8.023   2.057
55810W        W27426   3.933  22.183   2.689
55811W        W27427  21.934  26.885   4.341
55812W        W27428  16.126   4.413  13.902
55813W        W27429   4.190   3.320  14.045
55814W        W27430  39.868  16.358   2.668
55815W        W27431  33.606  10.727  11.590
55816W        W27432  11.361  32.008  13.050
55817W        W27433  14.116  40.857  10.778
55818W        W27434  20.247  29.852   0.008
55819W        W27435   6.165  44.997  13.385
55820W        W27436  13.150  37.959  12.818
55821W        W27437  21.622  15.106   0.041
55822W        W27438   3.238  36.552   0.806
55823W        W27439  25.049  15.185  11.770
55824W        W27440  31.418  34.479  11.966
55825W        W27441  11.195  34.102   4.768
55826W        W27442  36.585  32.918   4.757
55827W        W27443   8.954   9.125  11.095
55828W        W27444  41.462  19.003  11.028
55829W        W27445  42.384   5.488  11.139
55830W        W27446  19.463  10.793  10.526
55831W        W27447  22.443  14.128   2.000
55832W        W27448  44.935  13.824   1.060
55833W        W27449  11.404  18.762  12.024
55834W        W27450  18.314  41.638  14.106
55835W        W27451  23.000   0.399  12.056
55836W        W27452  22.112  43.466   0.410
55837W        W27453  44.179   1.745   1.656
55838W        W27454  30.001  43.221   1.615
55839W        W27455   2.412  43.924   2.910
55840W        W27456  41.829  20.282  12.065
55841W        W27457  40.406  24.248  13.779
55842W        W27458  34.943  28.575  12.112
55843W        W27459  44.608  37.943  12.476
55844W        W27460   6.646  20.003  12.577
55845W        W27461  20.585   6.284  14.825
55846W        W27462  28.468  15.467   2.716
55847W        W27463  16.186  37.415   3.885
55848W        W27464  14.243  30.197   0.662
55849W        W27465  36.938  25.301   4.359
55850W        W27466  31.564  19.595  10.347
55851W        W27467  39.058  38.431   3.232
55852W        W27468  30.025  26.480  14.414
55853W        W27469  16.644   4.836  10.410
55854W        W27470  11.382  40.875   1.928
55855W        W27471  41.946  28.624  10.715
55856W        W27472   3.793  35.960   0.305
55857W        W27473  11.086  35.258  13.460
55858W        W27474  43.096  38.366  14.951
55859W        W27475  38.478  22.061  13.618
55860W        W27476  28.401  36.527  14.225
55861W        W27477  41.768   0.216  11.127
55862W        W27478  35.648  32.171   1.173
55863W        W27479  32.834  22.913  11.719
55864W        W27480  32.767  24.645   0.302
55865W        W27481  32.444  38.351  10.914
55866W        W27482  28.419   1.928  14.776
55867W        W27483  23.062  16.889   3.203
55868W        W27484   8.259   6.178   3.130
55869W        W27485  18.866  13.251   3.191
55870W        W27486   9.197  38.927   4.966
55871W        W27487  31.372  42.003  11.947
55872W        W27488   4.016  25.744  14.900
55873W        W27489  21.531   2.852  10.827
55874W        W27490  30.150  38.984  13.198
55875W        W27491  10.278  23.100  13.010
55876W        W27492  23.521   3.700   4.608
55877W        W27493  23.038  16.781   2.258
55878W        W27494   4.194  19.738   2.358
55879W        W27495   6.391  44.710  14.351
55880W        W27496  31.673  22.112  14.370
55881W        W27497   5.610  33.305  11.209
55882W        W27498  32.573  37.836  14.471
55883W        W27499  41.554  29.721  12.378
55884W        W27500  11.092   3.721  14.752
55885W        W27501  12.749  30.642  13.472
55886W        W27502  39.988   5.194  12.298
55887W        W27503  29.546  13.073   2.050
55888W        W27504   3.209  39.287   1.430
55889W        W27505   0.164  15.761   4.097
55890W        W27506  10.416  16.740   1.725
55891W        W27507  16.488  18.605  12.561
55892W        W27508   6.943  16.485   4.088
55893W        W27509   1.200  18.141   0.415
55894W        W27510  37.885  32.969  14.938
55895W        W27511  39.107  21.034  11.560
55896W        W27512  16.969  25.249  13.877
55897W        W27513  14.718  38.885  11.168
55898W        W27514  35.436   1.147   2.728
55899W        W27515  26.538  32.139   3.222
55900W        W27516   6.131  44.326  12.111
55901W        W27517  28.871  44.554  14.907
55902W        W27518  17.774  18.685  11.522
55903W        W27519  33.805   4.890   1.978
55904W        W27520  15.041   3.985   4.622
55905W        W27521   0.177  16.110  14.161
55906W        W27522   9.236  38.812  13.970
55907W        W27523  29.520  43.020   1.798
55908W        W27524  16.568  40.423   2.264
55909W        W27525  13.940   8.320   0.727
55910W        W27526  13.107  16.825  13.223
55911W        W27527  11.455  27.161  14.832
55912W        W27528  25.390  14.295  12.412
55913W        W27529  23.333  10.127  14.786
55914W        W27530  22.813   6.281   3.719
55915W        W27531  30.818  25.556   2.732
55916W        W27532  12.788  30.582  12.940
55917W        W27533  33.880  24.516  12.780
55918W        W27534  43.833   2.783  11.733
55919W        W27535  21.640  25.181  12.875
55920W        W27536  23.590  16.909   0.076
55921W        W27537  31.347   4.297   3.231
55922W        W27538  19.123  31.871   2.552
55923W        W27539  30.978  21.208   2.091
55924W        W27540  24.038   6.240   1.710
55925W        W27541  37.838  10.372  11.521
55926W        W27542  39.910  28.173   1.468
55927W        W27543  14.165   7.998   4.592
55928W        W27544  23.044  24.000  11.206
55929W        W27545  32.486  27.143  14.371
55930W        W27546  12.657  33.933  14.503
55931W        W27547  10.202  38.195   4.168
55932W        W27548   6.509  28.467  13.902
55933W        W27549  10.090  35.147   0.966
55934W        W27550  14.672  24.551   1.575
55935W        W27551   8.754  43.545   1.887
55936W        W27552  16.839  14.704   1.153
55937W        W27553  13.015  37.968  13.332
55938W        W27554  40.898   2.275   4.689
55939W        W27555  27.013  41.811  13.808
55940W        W27556  14.123   6.339  11.030
55941W        W27557  42.618  14.690   3.657
55942W        W27558   3.382   4.290   2.888
55943W        W27559  15.131  33.483  10.689
55944W        W27560  10.851   6.389   3.401
55945W        W27561   8.743  41.553   2.714
55946W        W27562  18.546  22.423   1.368
55947W        W27563  29.487  40.069   0.692
55948W        W27564  40.736   4.498  10.481
55949W        W27565  37.125  33.023   4.771
55950W        W27566  30.600  34.020  12.180
55951W        W27567   7.782  25.603   2.229
55952W        W27568  13.149  37.133   1.184
55953W        W27569  33.112  27.485   4.372
55954W        W27570  10.211  14.678  14.767
55955W        W27571   7.674  35.105   2.460
55956W        W27572  43.789  42.355   4.437
55957W        W27573  28.921   3.275   2.076
55958W        W27574  30.699  11.844   1.356
55959W        W27575   9.738  31.075  14.869
55960W        W27576  44.427  44.602   4.424
55961W        W27577  19.059  41.512  11.899
55962W        W27578  36.897   8.082  13.777
55963W        W27579  33.847  43.933   0.019
55964W        W27580  28.498  30.636   4.834
55965W        W27581  26.971  34.952  11.918
55966W        W27582   2.885  14.648  13.445
55967W        W27583   7.784  14.691  12.303
55968W        W27584  30.858   0.277  13.989
55969W        W27585   5.266  19.625  14.080
55970W        W27586  10.177  43.835  12.414
55971W        W27587  12.262   0.876  10.295
55972W        W27588  13.113   7.809   0.732
55973W        W27589  31.929  26.611   4.061
55974W        W27590  31.041  18.945   3.706
55975W        W27591  42.098  43.019   2.357
55976W        W27592   0.429  12.606   2.955
55977W        W27593  41.328  22.660   1.671
55978W        W27594  37.221  10.732  14.986
55979W        W27595  39.172   4.235   1.227
55980W        W27596  16.174  22.665  14.374
55981W        W27597   1.376  40.311   0.220
55982W        W27598  23.232  24.508   4.554
55983W        W27599  20.653  32.522   3.182
55984W        W27600  21.588   7.111   4.182
55985W        W27601  11.172   7.511   1.285
55986W        W27602  35.273  21.473  13.376
55987W        W27603  14.715  39.029  13.859
55988W        W27604  39.570  26.172   0.448
55989W        W27605   6.635   1.946   1.423
55990W        W27606  19.245  20.965   2.769
55991W        W27607  23.962  42.081  12.535
55992W        W27608  21.221  12.314  13.515
55993W        W27609  24.565  21.586   4.899
55994W        W27610  33.539  40.325  14.014
55995W        W27611  33.705  26.909  12.162
55996W        W27612  13.034  29.021   0.455
55997W        W27613   8.693  36.133  14.388
55998W        W27614  34.448   3.174  14.500
55999W        W27615  24.329   1.932  14.621
56000W        W27616  15.119  40.692  10.843
56001W        W27617  39.815  34.288  11.872
56002W        W27618   9.240  24.280  13.368
56003W        W27619  16.582  41.096  13.008
56004W        W27620   0.248  35.862  14.670
56005W        W27621  43.745  16.647   3.755
56006W        W27622   8.868  18.145  12.085
56007W        W27623  23.765  31.034   2.278
56008W        W27624   0.873  39.963   1.880
56009W        W27625   2.705  36.438  14.521
56010W        W27626  37.829   5.498   4.093
56011W        W27627  31.808  42.945   0.101
56012W        W27628  41.459  18.885   1.850
56013W        W27629  26.689  10.988  14.783
56014W        W27630  29.477  17.187  14.628
56015W        W27631  30.343  26.058  14.005
56016W        W27632  35.425  21.966  13.380
56017W        W27633  43.504  41.784   4.358
56018W        W27634   4.952  31.668  11.464
56019W        W27635  43.909  21.999   0.053
56020W        W27636   2.875  24.614   9.795
56021W        W27637  11.708  36.392  14.082
56022W        W27638  20.295  38.706  10.664
56023W        W27639  37.456  32.524   0.295
56024W        W27640  16.404  41.731  12.654
56025W        W27641   1.748  26.687  11.676
56026W        W27642  25.554   2.147  13.877
56027W        W27643  14.087  41.335   1.507
56028W        W27644   0.530  13.069   2.575
56029W        W27645  35.884  14.404   2.782
56030W        W27646  36.207  16.109  14.950
56031W        W27647  34.405   6.429   3.757
56032W        W27648  17.845  25.871  12.632
56033W        W27649  34.483  32.992   2.537
56034W        W27650   2.805  22.174   9.840
56035W        W27651   2.252  12.578   0.831
56036W        W27652  44.460  42.269  12.001
56037W        W27653  35.084  33.073   4.905
56038W        W27654  35.115   4.474  14.571
56039W        W27655  36.112   1.443  13.844
56040W        W27656   7.576  40.788  12.089
56041W        W27657  42.030   0.349  11.544
56042W        W27658  37.371  43.537   1.460
56043W        W27659  19.500  13.415   4.269
56044W        W27660  18.300  22.569   1.817
56045W        W27661   6.334  26.340   4.612
56046W        W27662  13.701  40.418  14.811
56047W        W27663  16.035  37.930   4.571
56048W        W27664  25.130  40.075  12.203
56049W        W27665  10.818  25.165   0.380
56050W        W27666   8.296   4.550   2.359
56051W        W27667  13.225  31.812   1.863
56052W        W27668  17.110  21.791   4.711
56053W        W27669  11.999  24.104  11.539
56054W        W27670  19.181  28.595   4.107
56055W        W27671   8.845   2.750  13.025
56056W        W27672   1.693  12.831  12.456
56057W        W27673  12.172  21.112   3.612
56058W        W27674   7.624   8.127   0.377
56059W        W27675  29.526  12.451  11.657
56060W        W27676  36.514  41.902   0.239
56061W        W27677  18.297  14.260  12.802
56062W        W27678  32.207  14.879  14.665
56063W        W27679  13.100  38.010   3.279
56064W        W27680  30.645  32.139   5.175
56065W        W27681  25.166  15.816   2.860
56066W        W27682   7.679  12.864  10.663
56067W        W27683  40.261  29.713   0.748
56068W        W27684  24.637  27.190  11.375
56069W        W27685  31.666   5.203   3.215
56070W        W27686  17.846  13.418  13.604
56071W        W27687  10.238  44.985  11.381
56072W        W27688  44.845  38.764   0.236
56073W        W27689  29.114  19.235  11.700
56074W        W27690  26.058  42.523   3.654
56075W        W27691   5.596   8.691  13.030
56076W        W27692  42.425   4.889   4.073
56077W        W27693  18.012   8.384   3.374
56078W        W27694  16.197  15.038  14.920
56079W        W27695  40.025  18.563  13.938
56080W        W27696  30.569   2.119   0.825
56081W        W27697  32.009  15.504  13.709
56082W        W27698   3.205  20.655  13.226
56083W        W27699   1.952  13.229   4.165
56084W        W27700  14.845   3.965  14.068
56085W        W27701  44.416   5.826  11.551
56086W        W27702   6.247   2.185  12.382
56087W        W27703   4.842  11.322   1.249
56088W        W27704   1.989  16.037  12.501
56089W        W27705   5.920   6.638  13.891
56090W        W27706  43.022  40.478  14.876
56091W        W27707  23.118   2.327  11.414
56092W        W27708  28.755  39.031  14.450
56093W        W27709  16.167  25.087   0.574
56094W        W27710  25.193  26.707  11.856
56095W        W27711  30.845   5.033  10.673
56096W        W27712   2.842  13.640   0.766
56097W        W27713   5.859  33.373   0.013
56098W        W27714  21.779  14.021   0.769
56099W        W27715   0.546  41.408   3.339
56100W        W27716  36.875   8.332  14.243
56101W        W27717  42.845  26.586  14.757
56102W        W27718  16.338  15.572   0.937
56103W        W27719   6.832  44.889   3.212
56104W        W27720  44.121   0.525  11.151
56105W        W27721  17.981   4.722  13.048
56106W        W27722  44.747  34.655  13.305
56107W        W27723  28.981  31.548   1.093
56108W        W27724  40.338  28.232  11.159
56109W        W27725  30.859  29.135  12.363
56110W        W27726   1.125  26.262   1.235
56111W        W27727  29.112  27.601  12.840
56112W        W27728  41.480  31.230   0.439
56113W        W27729  11.544  28.331  10.204
56114W        W27730  19.018  21.191  10.405
56115W        W27731  29.547  27.662  12.516
56116W        W27732   7.807   6.127   4.746
56117W        W27733  24.020   6.672  13.839
56118W        W27734  14.795  39.857   2.493
56119W        W27735  35.063  36.976   4.096
56120W        W27736  40.663  19.654   4.910
56121W        W27737  43.541  20.557   3.810
56122W        W27738  13.407  16.777  12.815
56123W        W27739   5.750   1.207   1.288
56124W        W27740   3.816  12.778  11.620
56125W        W27741  26.173  14.246   4.593
56126W        W27742   0.945  18.163   4.958
56127W        W27743   2.232  14.244  14.101
56128W        W27744  32.941  33.946  11.551
56129W        W27745  10.135  20.145   2.772
56130W        W27746  16.099  17.952  14.439
56131W        W27747   8.805   7.253   1.915
56132W        W27748  34.366  24.877  13.535
56133W        W27749  44.829   8.419   1.973
56134W        W27750  34.119  33.667   1.896
56135W        W27751  17.017   1.217   3.662
56136W        W27752  40.575  25.934   0.393
56137W        W27753  32.367  44.939   0.601
56138W        W27754   5.751   9.028  13.362
56139W        W27755   7.817  18.123  12.122
56140W        W27756  12.037   1.909  14.481
56141W        W27757  44.354  42.884  12.813
56142W        W27758  17.997  10.180   3.605
56143W        W27759   8.504  40.922   2.229
56144W        W27760   3.744  25.962  11.054
56145W        W27761  39.211  35.950  11.235
56146W        W27762  25.650  35.871  10.332
56147W        W27763  41.247  22.215   4.861
56148W        W27764  14.875  44.958   4.035
56149W        W27765  34.918  11.472  13.125
56150W        W27766   9.801  13.248   1.893
56151W        W27767  15.870   6.671   0.366
56152W        W27768  37.044  27.767  14.355
56153W        W27769  37.634  32.967   4.623
56154W        W27770  23.281  34.015   1.160
56155W        W27771   1.757   3.937   1.336
56156W        W27772  31.036  11.307   0.003
56157W        W27773  17.331  28.113   4.534
56158W        W27774  24.560  29.362  13.721
56159W        W27775   7.065  24.570  14.326
56160W        W27776  28.967  20.965   4.711
56161W        W27777   7.797   1.506  11.957
56162W        W27778  28.933   8.811   3.509
56163W        W27779  21.460   8.799   2.281
56164W        W27780  25.101  23.448  13.027
56165W        W27781   2.681  30.537   4.534
56166W        W27782  37.631  36.478   4.608
56167W        W27783  40.022  21.749  12.053
56168W        W27784  10.174  16.243  10.660
56169W        W27785   1.818  40.502   4.254
56170W        W27786  30.554  25.949   4.407
56171W        W27787  41.433  36.638  11.525
56172W        W27788  24.762   2.431   3.767
56173W        W27789   4.177  36.972   0.271
56174W        W27790  16.801  42.859  10.250
56175W        W27791  21.996   6.158  14.955
56176W        W27792  21.546  17.638  10.853
56177W        W27793  40.811   3.841   2.392
56178W        W27794  18.182  44.933  10.634
56179W        W27795  30.861   9.236   1.873
56180W        W27796  23.977  10.158   4.705
56181W        W27797  41.058  27.697  12.441
56182W        W27798  25.849  40.845  14.454
56183W        W27799  36.499   7.302   3.289
56184W        W27800   2.418  13.801   4.672
56185W        W27801  27.157  30.542   3.420
56186W        W27802   9.533   1.932  11.369
56187W        W27803  29.449  42.947   5.008
56188W        W27804  34.352  17.678  13.121
56189W        W27805   2.704  17.457   4.140
56190W        W27806   1.299  35.073  11.561
56191W        W27807  23.671  38.935   2.237
56192W        W27808  18.037   7.718  14.944
56193W        W27809  16.839  44.729  12.520
56194W        W27810   3.518  32.036   4.756
56195W        W27811   4.767  13.644   2.836
56196W        W27812   8.947  16.659  12.825
56197W        W27813  35.596  20.619   4.792
56198W        W27814  44.871  17.542  11.061
56199W        W27815  37.149   1.308  13.842
56200W        W27816  10.349  31.241   0.190
56201W        W27817   8.788  24.537   3.183
56202W        W27818  12.790  21.545  14.361
56203W        W27819  14.777  35.518   1.895
56204W        W27820  17.356   7.680   3.125
56205W        W27821  30.874  37.051   0.948
56206W        W27822  29.688  29.564  10.683
56207W        W27823  17.493  33.696   0.989
56208W        W27824  37.527  10.087  13.541
56209W        W27825  33.637  17.884   1.919
56210W        W27826  12.330  38.017  10.539
56211W        W27827  30.514  38.601   3.037
56212W        W27828   4.279  44.485   2.830
56213W        W27829  29.892  17.161  11.404
56214W        W27830  19.679  15.967   0.776
56215W        W27831  36.817  28.620  13.061
56216W        W27832  13.840  10.182   3.640
56217W        W27833   7.757  17.749   3.766
56218W        W27834  43.483  41.435  13.477
56219W        W27835  30.461  16.190  14.782
56220W        W27836  38.613  39.109   3.803
56221W        W27837  20.517  42.817  10.612
56222W        W27838   2.944  22.545   2.788
56223W        W27839  40.506  42.076  12.814
56224W        W27840  17.783  27.967   4.314
56225W        W27841   7.157  28.092  12.310
56226W        W27842  31.557  22.821   0.438
56227W        W27843  16.865  17.095   0.524
56228W        W27844  33.313  24.060  12.046
56229W        W27845  40.280  37.899  14.023
56230W        W27846   5.294  19.218  14.441
56231W        W27847   4.257  37.526   1.751
56232W        W27848  20.582   7.899  11.214
56233W        W27849  40.481  41.080  13.556
56234W        W27850   1.788  10.616  12.172
56235W        W27851   6.424   6.744   4.077
56236W        W27852  42.852  19.098  10.787
56237W        W27853  28.478   3.405  14.720
56238W        W27854   2.814  18.783  12.794
56239W        W27855   8.856  38.483   1.221
56240W        W27856  30.091  29.379  14.943
56241W        W27857  19.092  17.373  12.722
56242W        W27858  26.388   8.665  13.241
56243W        W27859  15.098  11.375  11.082
56244W        W27860  36.746  40.269   3.327
56245W        W27861  43.235  29.502  14.013
56246W        W27862  40.428  23.803   3.719
56247W        W27863  11.224  30.325  12.590
56248W        W27864   4.909  21.074  12.170
56249W        W27865   4.664  41.790   1.265
56250W        W27866  44.985  16.600  14.055
56251W        W27867  32.213  38.995  10.710
56252W        W27868  15.606   6.818  13.796
56253W        W27869  17.112  18.320   2.379
56254W        W27870  15.596  27.861  14.935
56255W        W27871   0.078  35.266  11.142
56256W        W27872  30.901  34.373   1.316
56257W        W27873  44.433  36.859   0.477
56258W        W27874  43.292  12.770   4.379
56259W        W27875  25.004  19.772   2.362
56260W        W27876  10.311  23.616   0.283
56261W        W27877  44.348   0.497  10.526
56262W        W27878  26.763  21.517  14.859
56263W        W27879   3.021  27.017  12.879
56264W        W27880  37.687  34.491   2.398
56265W        W27881  11.754  22.200   3.574
56266W        W27882  21.519  18.847   1.142
56267W        W27883  38.914  42.800   3.619
56268W        W27884  43.250  39.624  12.930
56269W        W27885   8.824  23.628  12.884
56270W        W27886  11.132  26.279  14.826
56271W        W27887  10.845   2.834   2.322
56272W        W27888   7.670  24.618   2.216
56273W        W27889   9.170  36.592  11.041
56274W        W27890  27.930   3.745  11.493
56275W        W27891  11.122  43.542  12.190
56276W        W27892  37.612  36.644   5.143
56277W        W27893  12.231  18.673  11.352
56278W        W27894  37.867  12.343  14.678
56279W        W27895   6.786  27.304   4.567
56280W        W27896   2.306   3.346  10.287
56281W        W27897  35.910  34.211   0.066
56282W        W27898  36.881  26.669  12.913
56283W        W27899  10.669  20.949  13.948
56284W        W27900   0.675  12.492  11.589
56285W        W27901   5.964  10.836   2.190
56286W        W27902  24.061  18.736   3.626
56287W        W27903  22.111  30.670   1.375
56288W        W27904  10.719  31.637  13.796
56289W        W27905  18.656  44.055   9.852
56290W        W27906  22.755   8.265  14.990
56291W        W27907  42.893  37.879   3.579
56292W        W27908   4.738  23.896   2.995
56293W        W27909  39.857  20.852   4.855
56294W        W27910   0.249  10.428  11.415
56295W        W27911  37.534   5.384   1.299
56296W        W27912   1.247  42.847  12.787
56297W        W27913  43.001  31.699   1.810
56298W        W27914  30.459   8.716  13.080
56299W        W27915  34.027  11.343  14.365
56300W        W27916   6.192  21.624   0.955
56301W        W27917  13.316  20.394   3.458
56302W        W27918  19.520  26.983  13.947
56303W        W27919  21.605  11.719  12.454
56304W        W27920   4.126  25.494   3.500
56305W        W27921   6.435  36.417  11.704
56306W        W27922   1.764   0.306  11.718
56307W        W27923  31.790   1.504  12.894
56308W        W27924  20.164  29.708  12.110
56309W        W27925   6.177   6.412   0.449
56310W        W27926  44.422  28.926   2.160
56311W        W27927  10.811  13.110  13.921
56312W        W27928   2.214  22.149  12.519
56313W        W27929  33.197   2.926   1.276
56314W        W27930  44.899   3.229  13.947
56315W        W27931  21.215  24.676   3.250
56316W        W27932   4.492  15.017  12.100
56317W        W27933  23.049  43.946  12.681
56318W        W27934   2.214  22.691  12.424
56319W        W27935   4.764  35.726   0.668
56320W        W27936  36.920  10.569  10.027
56321W        W27937  32.507  17.950   3.738
56322W        W27938  23.174  17.728   4.569
56323W        W27939  13.631  15.575  10.699
56324W        W27940  21.983  25.509   4.858
56325W        W27941   6.833  19.020  14.584
56326W        W27942   7.703  26.726   0.433
56327W        W27943  27.373  32.951  14.030
56328W        W27944   9.786  44.010  11.238
56329W        W27945   5.990  18.198   1.856
56330W        W27946  12.300  27.934  12.111
56331W        W27947  36.991  30.028  13.337
56332W        W27948  29.896  41.408   2.719
56333W        W27949  27.259  28.675   4.163
56334W        W27950  42.186   9.733   4.308
56335W        W27951  13.183  37.322  13.621
56336W        W27952   1.700  34.145   4.594
56337W        W27953   2.831   2.307  12.182
56338W        W27954  38.933  37.111   1.153
56339W        W27955   8.757   7.058   0.529
56340W        W27956  24.603  33.045  11.467
56341W        W27957  18.779  28.390   1.314
56342W        W27958  42.989  33.860   1.014
56343W        W27959  33.937   6.899  10.539
56344W        W27960  26.645  40.459   2.334
56345W        W27961  18.939   8.530  12.563
56346W        W27962   8.124  28.228  11.478
56347W        W27963  40.039  36.225  11.564
56348W        W27964  41.224   9.163  13.332
56349W        W27965  15.745  40.335   3.824
56350W        W27966  33.508   3.262   2.155
56351W        W27967  27.532  26.128   3.095
56352W        W27968  11.586  19.775  12.603
56353W        W27969  44.787  41.987   1.825
56354W        W27970   4.644  39.120   1.322
56355W        W27971  17.866  35.655  11.167
56356W        W27972  26.068  15.651  11.916
56357W        W27973  15.824  38.509  11.451
56358W        W27974  32.567   5.442  12.088
56359W        W27975  37.923   3.962  10.603
56360W        W27976  35.190  38.876  14.534
56361W        W27977  23.289  25.683   2.330
56362W        W27978  12.223   7.635  14.329
56363W        W27979  27.489  37.398   4.636
56364W        W27980  14.631  15.624   3.635
56365W        W27981  38.598  35.305   4.908
56366W        W27982  26.215  30.062  13.875
56367W        W27983  32.371  41.901  13.482
56368W        W27984  21.246   0.809   4.367
56369W        W27985  15.609  11.389  11.138
56370W        W27986  28.157  40.354   4.997
56371W        W27987  27.408  36.862   3.391
56372W        W27988  34.159  22.705  12.103
56373W        W27989  43.584  29.118  10.457
56374W        W27990  28.110  16.146  10.949
56375W        W27991  18.095  17.253  10.688
56376W        W27992  32.543  19.688   5.328
56377W        W27993   3.997   4.740  11.174
56378W        W27994   6.182  37.936  14.441
56379W        W27995  21.981   6.387  12.005
56380W        W27996   1.454  14.041   0.365
56381W        W27997  35.141  25.005  10.688
56382W        W27998  33.894  12.276  11.564
56383W        W27999  28.126  40.386  10.178
56384W        W28000  14.328  41.272  10.564
56385W        W28001  25.177  17.265   3.849
56386W        W28002  36.980   0.053   2.410
56387W        W28003  15.492   6.855  12.029
56388W        W28004  35.933   4.717   1.526
56389W        W28005  35.450  30.734   3.756
56390W        W28006  39.442  14.754  11.972
56391W        W28007   3.495  12.361  11.697
56392W        W28008  27.300  26.567  12.070
56393W        W28009   0.295  42.679   3.043
56394W        W28010   2.932   0.395   4.382
56395W        W28011  21.703  25.959   1.977
56396W        W28012  29.893   2.550   3.813
56397W        W28013  33.425   1.705   9.793
56398W        W28014  36.113  13.304  12.394
56399W        W28015  41.336  14.819   3.841
56400W        W28016   0.477  38.525  14.952
56401W        W28017  40.955  13.798  10.776
56402W        W28018  35.587  10.771   3.425
56403W        W28019  15.190  33.341   3.769
56404W        W28020   5.201  37.389   2.252
56405W        W28021  14.709  28.776  11.092
56406W        W28022  29.443  22.157  10.917
56407W        W28023  26.259  39.968   0.991
56408W        W28024  21.672  42.765  14.288
56409W        W28025  36.132  36.244   1.796
56410W        W28026   8.283   2.296  10.470
56411W        W28027  23.253  31.597  12.563
56412W        W28028  16.251  32.206  12.890
56413W        W28029  39.488  16.345  12.144
56414W        W28030  10.178  15.457  12.476
56415W        W28031   2.135  41.372   0.690
56416W        W28032  42.232  13.767  12.011
56417W        W28033  30.599   1.361  10.270
56418W        W28034  12.743  28.493   0.920
56419W        W28035  13.765  35.967   0.446
56420W        W28036  28.544   6.280   0.845
56421W        W28037  13.352  32.870   0.403
56422W        W28038  18.135  41.535  12.078
56423W        W28039  11.411  38.410   3.711
56424W        W28040  19.545  35.520  13.426
56425W        W28041  10.205  42.493   2.142
56426W        W28042  19.559   7.292   3.710
56427W        W28043   0.016  13.648  14.223
56428W        W28044  21.042  19.018   0.788
56429W        W28045  44.956  13.220  14.548
56430W        W28046   1.474  34.398  11.615
56431W        W28047  26.951  12.749   5.013
56432W        W28048   9.349  19.638   0.869
56433W        W28049  29.304   9.731   4.190
56434W        W28050  19.119   5.205   0.494
56435W        W28051  14.743  27.233   4.566
56436W        W28052  30.459  39.244   2.290
56437W        W28053  19.903   3.430   1.042
56438W        W28054  23.072   6.781  12.667
56439W        W28055  35.423  14.046  13.211
56440W        W28056   8.329  18.631  14.714
56441W        W28057  36.497  13.711   0.283
56442W        W28058   6.927  22.193   0.880
56443W        W28059   3.434  37.517  14.099
56444W        W28060  36.092  13.098   0.782
56445W        W28061  21.763  40.002  14.262
56446W        W28062  15.700   6.299   3.680
56447W        W28063  11.513  31.854   2.175
56448W        W28064  36.880  40.835  11.321
56449W        W28065   3.284  31.952   0.468
56450W        W28066  20.239   6.399   4.689
56451W        W28067   2.742  44.749  11.983
56452W        W28068   1.688  33.445   3.390
56453W        W28069  44.033  32.508  12.482
56454W        W28070   9.790  39.032   2.811
56455W        W28071  26.919  35.142   3.209
56456W        W28072  36.981  40.991   2.270
56457W        W28073  25.218  30.040   0.718
56458W        W28074  22.226   9.875   3.907
56459W        W28075  16.822  29.236   2.400
56460W        W28076   0.790   6.766   0.028
56461W        W28077   6.243  40.303   2.249
56462W        W28078  34.650   7.728  13.589
56463W        W28079   4.244  32.012   1.302
56464W        W28080  24.077  39.553   0.682
56465W        W28081   8.371  26.495  10.843
56466W        W28082  39.334  26.620   0.345
56467W        W28083   1.035  43.428   0.199
56468W        W28084  15.776  36.129  10.754
56469W        W28085  39.441  38.931  12.583
56470W        W28086  34.085  34.106   0.724
56471W        W28087  33.010  12.585  12.411
56472W        W28088  17.726   3.674  13.461
56473W        W28089   4.467  21.736  12.469
56474W        W28090  17.633  37.968  10.404
56475W        W28091  44.520   3.377   3.062
56476W        W28092  15.428  27.245   2.856
56477W        W28093  18.520   1.793   3.633
56478W        W28094  43.574  35.843   5.035
56479W        W28095  28.076  29.009   2.912
56480W        W28096  11.355   1.072   2.322
56481W        W28097  25.182   0.403  13.978
56482W        W28098  44.002   2.558   0.263
56483W        W28099  16.970  41.521  10.858
56484W        W28100  33.566   1.924   1.478
56485W        W28101  38.016  19.166  13.725
56486W        W28102  30.605  13.354   2.813
56487W        W28103  39.882  35.532   4.672
56488W        W28104  22.152  13.201   0.721
56489W        W28105  18.577  10.631   0.785
56490W        W28106   5.762   9.185   0.676
56491W        W28107   7.203  33.236   1.719
56492W        W28108  27.768  13.701  11.353
56493W        W28109  31.917  38.359   3.205
56494W        W28110  42.625  35.932  13.349
56495W        W28111   0.891  11.834  13.476
56496W        W28112  16.466   9.377   1.375
56497W        W28113  18.753  20.146   2.567
56498W        W28114  32.029   8.961  10.717
56499W        W28115  14.651  20.466   2.701
56500W        W28116  14.625  17.120   0.026
56501W        W28117  28.666  17.658   4.173
56502W        W28118   6.153  18.227   4.158
56503W        W28119  33.671  44.485  13.368
56504W        W28120  21.478   7.866  11.140
56505W        W28121   6.268   7.429  10.255
56506W        W28122  37.317  38.883  13.431
56507W        W28123  31.656  25.641  14.066
56508W        W28124  39.462  33.128  14.029
56509W        W28125  38.322  39.608  14.004
56510W        W28126   2.935   0.875   5.042
56511W        W28127  10.963  36.020  12.365
56512W        W28128  28.177  23.118   0.384
56513W        W28129   8.708   9.671   1.299
56514W        W28130  42.080  24.719  11.106
56515W        W28131  39.797   9.933  13.422
56516W        W28132  25.042   1.169   1.866
56517W        W28133  24.986  20.662   4.782
56518W        W28134   8.804  16.206   1.204
56519W        W28135  19.910  38.391  10.566
56520W        W28136  30.674  30.017  14.276
56521W        W28137  43.109   7.231   1.253
56522W        W28138   0.337   0.181  14.353
56523W        W28139   5.801  31.428  11.196
56524W        W28140  26.199  22.618  11.542
56525W        W28141  41.932  17.782  14.436
56526W        W28142  15.173  22.669  12.545
56527W        W28143   4.350  40.730  13.910
56528W        W28144  20.169  12.695   2.990
56529W        W28145  34.271   4.151   4.076
56530W        W28146  27.016  40.410  11.996
56531W        W28147  37.874  17.213  14.635
56532W        W28148  28.841   6.871   1.411
56533W        W28149  44.747  11.179  14.944
56534W        W28150  29.653  35.019   2.390
56535W        W28151  27.362  12.352   0.073
56536W        W28152  13.141  12.301  14.841
56537W        W28153  42.904  15.221  11.074
56538W        W28154  22.023   6.646   1.859
56539W        W28155  33.359   2.236   9.796
56540W        W28156  29.108  25.601  12.854
56541W        W28157  22.551  35.529   3.467
56542W        W28158  24.216  30.373   3.683
56543W        W28159  37.114   2.738  11.518
56544W        W28160  36.412   7.721   1.965
56545W        W28161  23.075  35.370   4.106
56546W        W28162  42.282  20.803  12.891
56547W        W28163  43.649  12.553  12.340
56548W        W28164  23.661  15.198   0.847
56549W        W28165  13.640  14.066   0.886
56550W        W28166  41.407  28.993   1.264
56551W        W28167  38.455  31.713  14.981
56552W        W28168   4.602  22.229   1.101
56553W        W28169  25.605   3.941  11.500
56554W        W28170  18.121   2.000  11.670
56555W        W28171   7.546   9.255   0.444
56556W        W28172  39.563  13.272   5.148
56557W        W28173  39.469  18.521  13.459
56558W        W28174  10.867  22.962   3.447
56559W        W28175  12.783   4.238  10.281
56560W        W28176  28.913  15.301  11.903
56561W        W28177  32.177  39.610   2.726
56562W        W28178   4.292   8.667  12.528
56563W        W28179  18.282  29.383  13.358
56564W        W28180  14.766  26.586   1.538
56565W        W28181  27.085  30.937   3.091
56566W        W28182  31.029   4.345  12.519
56567W        W28183  38.781   7.130  13.858
56568W        W28184  38.145   8.833  14.710
56569W        W28185   7.805  40.844   0.543
56570W        W28186  34.240  10.416   3.266
56571W        W28187  15.834  10.099  12.007
56572W        W28188  44.194   6.461  14.733
56573W        W28189   4.416   7.449  14.345
56574W        W28190  21.792   7.903   2.687
56575W        W28191  38.670   8.829  14.605
56576W        W28192  26.565  28.022   3.722
56577W        W28193  15.225   9.391   0.260
56578W        W28194  23.978  16.136   1.446
56579W        W28195  34.687  16.927  14.283
56580W        W28196   8.313  27.581  14.072
56581W        W28197  30.410  44.400  12.552
56582W        W28198  28.611  17.554   0.724
56583W        W28199   1.758  35.812  12.937
56584W        W28200  34.908  16.072  14.574
56585W        W28201   2.094  33.927  11.525
56586W        W28202   3.512   9.951  14.506
56587W        W28203  23.439  21.587  14.786
56588W        W28204  30.583  35.839  13.905
56589W        W28205  36.436  42.317   0.535
56590W        W28206  28.021  10.848  13.346
56591W        W28207   7.918  29.943  12.197
56592W        W28208  40.120  33.361   2.181
56593W        W28209   3.954   2.525  14.802
56594W        W28210  15.622  32.979   4.245
56595W        W28211  41.812  37.531  12.393
56596W        W28212  10.471  35.036   0.040
56597W        W28213  13.428  22.998   2.888
56598W        W28214  29.110  25.715   2.209
56599W        W28215  25.500  35.305  14.398
56600W        W28216   7.094   0.868   0.308
56601W        W28217  42.495  41.282  13.511
56602W        W28218  17.439  14.891  11.505
56603W        W28219  23.153  33.088  14.938
56604W        W28220  26.062  13.852  12.048
56605W        W28221  17.792  14.515  13.237
56606W        W28222   0.902  13.965   4.577
56607W        W28223  43.348   8.421  10.737
56608W        W28224  43.974   8.301  12.385
56609W        W28225  22.969  23.118   0.856
56610W        W28226  28.999   4.222  11.751
56611W        W28227  44.800  25.442   2.810
56612W        W28228  25.034  20.024  12.522
56613W        W28229  37.911  16.993   2.408
56614W        W28230  11.737  43.296  14.544
56615W        W28231  43.688  24.972   1.325
56616W        W28232  38.975  16.214   1.932
56617W        W28233  17.834  40.879  10.398
56618W        W28234  37.792  26.021   1.700
56619W        W28235  42.340  20.031   0.296
56620W        W28236  32.000   7.693   3.149
56621W        W28237  21.154  33.054   3.782
56622W        W28238  40.568  39.712  10.810
56623W        W28239  28.707  10.151  12.050
56624W        W28240   3.259  44.547   3.780
56625W        W28241  35.146  17.364  13.448
56626W        W28242  28.534  21.793   2.269
56627W        W28243  44.505  23.752   0.001
56628W        W28244   5.821   1.812  11.201
56629W        W28245  37.930  39.395  11.044
56630W        W28246  25.054  30.988   1.670
56631W        W28247  27.994  17.995  13.989
56632W        W28248  31.099  12.048   0.272
56633W        W28249   4.846  27.869  11.012
56634W        W28250  18.250  13.838  12.162
56635W        W28251  43.539  28.596  12.841
56636W        W28252  10.894  18.566  13.908
56637W        W28253  34.287  15.084  13.460
56638W        W28254  29.447  36.304   2.881
56639W        W28255  44.846   8.348   0.479
56640W        W28256  30.035   2.915  13.562
56641W        W28257  36.200   0.514  12.162
56642W        W28258  43.693   7.257  12.520
56643W        W28259  34.391  14.124  13.471
56644W        W28260   3.249   5.124  14.947
56645W        W28261   5.078   9.883  11.445
56646W        W28262  30.944  44.856   3.526
56647W        W28263  29.472  28.212  11.531
56648W        W28264  21.376  30.776   5.028
56649W        W28265   3.779  43.635   0.386
56650W        W28266   9.112  22.519  11.563
56651W        W28267  27.175  35.397   0.895
56652W        W28268  15.382   0.638   0.329
56653W        W28269  17.517  29.653  14.417
56654W        W28270  16.161  11.156   4.679
56655W        W28271  40.861  13.697   0.942
56656W        W28272  18.267   0.928  13.603
56657W        W28273  40.969   0.319  13.196
56658W        W28274   1.312  27.024  13.565
56659W        W28275   5.723  11.076  14.083
56660W        W28276   6.491   9.753  14.562
56661W        W28277  22.948  18.567   4.579
56662W        W28278  12.873   3.780   5.021
56663W        W28279   7.016  32.698   2.379
56664W        W28280  31.124  21.577  12.866
56665W        W28281  44.349  26.244  12.348
56666W        W28282  28.943  27.263  13.321
56667W        W28283  19.725  24.107  11.720
56668W        W28284   8.622  42.215  14.907
56669W        W28285  33.562  15.311  11.168
56670W        W28286  22.001   0.251  10.985
56671W        W28287  31.703   2.081   2.783
56672W        W28288   6.141  35.606  11.536
56673W        W28289  44.541  35.005  12.063
56674W        W28290  17.808  42.345  14.763
56675W        W28291  38.522  17.192  12.417
56676W        W28292   9.227  17.437   4.923
56677W        W28293  19.320  25.983   1.888
56678W        W28294  25.739  35.481   4.666
56679W        W28295  11.090  18.746   0.336
56680W        W28296  14.850  16.224  11.478
56681W        W28297  37.359   0.023  10.862
56682W        W28298   9.313  19.717   5.075
56683W        W28299  21.620  16.874   0.302
56684W        W28300  41.550   7.677  12.133
56685W        W28301   4.286  44.216   1.381
56686W        W28302  19.453  38.534  10.773
56687W        W28303  21.873   1.726  11.420
56688W        W28304  23.522  37.887  14.402
56689W        W28305  43.377  27.606  10.535
56690W        W28306  21.998  15.519   3.267
56691W        W28307  38.352  12.177   1.803
56692W        W28308  40.267   6.806   0.345
56693W        W28309   0.830  17.036   4.176
56694W        W28310   0.554  33.063   4.721
56695W        W28311  24.115   5.925   0.775
56696W        W28312  19.097  13.657   1.411
56697W        W28313  44.695  35.655   4.478
56698W        W28314  26.050  12.358  12.087
56699W        W28315   8.333  11.733   2.234
56700W        W28316  21.646  32.594  14.497
56701W        W28317  15.788  26.094   3.819
56702W        W28318  40.328  27.541   2.391
56703W        W28319  31.617   9.906   4.677
56704W        W28320  27.041  35.788   0.132
56705W        W28321   8.858  26.412  14.532
56706W        W28322  42.142  34.038  11.619
56707W        W28323  28.918   1.698   0.242
56708W        W28324  21.120  32.159   3.214
56709W        W28325  31.447  24.254  11.914
56710W        W28326  38.599  40.017   3.656
56711W        W28327   8.834  39.715  13.887
56712W        W28328  37.534  38.660   0.703
56713W        W28329  22.311  30.609   3.364
56714W        W28330   5.939  43.722   4.034
56715W        W28331   5.316  17.660   4.360
56716W        W28332  23.015   8.941  13.344
56717W        W28333   1.599  32.661   0.971
56718W        W28334  27.033  40.614  14.803
56719W        W28335  17.754  40.846   1.786
56720W        W28336  35.597  10.202  13.424
56721W        W28337  25.784  44.325  10.692
56722W        W28338   0.712  23.220   5.474
56723W        W28339  35.416  26.227   0.833
56724W        W28340  34.445  31.383   2.247
56725W        W28341   2.200  32.479  13.420
56726W        W28342  41.286  29.634  13.427
56727W        W28343   6.587  30.149   4.673
56728W        W28344  14.611   8.424   3.433
56729W        W28345  31.119  30.901   5.355
56730W        W28346  22.158  20.982  11.554
56731W        W28347  36.440  32.423   4.906
56732W        W28348  12.235  43.223  13.869
56733W        W28349  18.200  36.450   4.703
56734W        W28350   8.849  26.302  10.781
56735W        W28351  20.741  41.617   0.005
56736W        W28352  19.657  19.219  12.888
56737W        W28353  12.278  31.982   1.852
56738W        W28354  21.162  32.268   4.282
56739W        W28355   2.935  13.091  11.296
56740W        W28356  16.773  21.294   2.842
56741W        W28357   6.682  28.993  13.264
56742W        W28358  23.125  13.395   1.336
56743W        W28359  18.527   4.229   4.826
56744W        W28360   2.996  44.827  13.944
56745W        W28361  16.837  26.904   3.301
56746W        W28362  21.183  42.217   4.102
56747W        W28363  30.125  19.924  13.883
56748W        W28364  26.034  33.158  12.888
56749W        W28365   4.442  40.952   1.208
56750W        W28366  36.918  28.570   2.185
56751W        W28367   0.391  42.621  11.470
56752W        W28368  38.072  18.280   5.132
56753W        W28369  31.393  34.494   0.269
56754W        W28370   2.753   1.505   0.050
56755W        W28371  33.665  18.604   4.251
56756W        W28372  23.193  20.693  12.458
56757W        W28373   0.878  22.959   3.692
56758W        W28374  16.106  10.323   0.778
56759W        W28375  12.113  44.609   1.344
56760W        W28376  38.768   5.890   4.535
56761W        W28377   0.248  34.040   2.189
56762W        W28378  13.784  29.489   1.888
56763W        W28379  32.146  13.602   1.639
56764W        W28380   3.846  30.417   4.622
56765W        W28381   0.508  21.566   2.332
56766W        W28382  41.415  23.703   1.803
56767W        W28383  43.711  14.860  14.481
56768W        W28384  26.094  32.474  12.405
56769W        W28385  22.729  18.841   4.209
56770W        W28386  36.271   4.765  11.292
56771W        W28387   8.912  44.971  11.602
56772W        W28388  37.510  32.548   1.223
56773W        W28389  22.787  29.802   4.159
56774W        W28390  28.446  31.630   2.862
56775W        W28391  28.939  21.678  14.383
56776W        W28392  20.695  25.762   3.580
56777W        W28393  35.071   3.382   1.658
56778W        W28394   0.022  34.965   2.786
56779W        W28395  43.704  10.438   2.721
56780W        W28396   5.647   9.370   4.514
56781W        W28397   3.498  20.996   3.929
56782W        W28398  22.711  26.125   1.901
56783W        W28399  31.644  10.027  13.588
56784W        W28400  20.519   8.648   4.194
56785W        W28401  15.711  23.748  10.292
56786W        W28402   4.313  37.933   4.461
56787W        W28403  16.099  39.872  12.787
56788W        W28404  41.782  22.040  14.430
56789W        W28405   8.656  41.053  13.394
56790W        W28406   5.617  24.140  11.784
56791W        W28407  26.642  22.596  14.807
56792W        W28408  23.244  44.873  12.210
56793W        W28409  19.287  12.680   1.436
56794W        W28410  33.835  33.380  11.575
56795W        W28411  32.578  29.236   9.792
56796W        W28412   7.686   3.230  14.742
56797W        W28413   4.975  24.518  10.714
56798W        W28414  18.499  30.246  14.962
56799W        W28415  38.807   6.790  14.263
56800W        W28416   1.819  34.470   3.218
56801W        W28417  11.692  40.825  13.820
56802W        W28418  17.102  42.040  10.645
56803W        W28419  30.523  31.163  12.040
56804W        W28420   8.702  29.644   2.290
56805W        W28421  32.054  43.575  14.652
56806W        W28422  42.967  23.309   0.602
56807W        W28423   5.331  30.359  11.506
56808W        W28424   3.280  28.805   4.822
56809W        W28425   1.405  12.364   4.256
56810W        W28426  28.953   9.993  14.305
56811W        W28427  36.070  30.570   3.017
56812W        W28428  12.180  33.630   3.768
56813W        W28429  42.843   5.788  11.147
56814W        W28430  35.932  29.273   4.154
56815W        W28431  12.141  44.186  14.915
56816W        W28432  41.466  28.374  11.957
56817W        W28433  16.669  33.185  10.631
56818W        W28434  37.333   5.824  11.118
56819W        W28435   7.515  24.963  13.197
56820W        W28436   4.990  36.522   0.298
56821W        W28437  38.830   9.301   0.389
56822W        W28438  15.805  21.358  12.563
56823W        W28439   7.722  11.375   4.233
56824W        W28440  20.118  27.587  12.911
56825W        W28441  27.461  16.306   2.664
56826W        W28442   1.522  17.102   3.097
56827W        W28443  13.410  38.902   0.836
56828W        W28444  22.525   1.647   0.316
56829W        W28445  13.325  34.364  13.377
56830W        W28446  10.905   7.569  11.067
56831W        W28447  40.287  32.836  12.828
56832W        W28448  16.262  40.568   0.455
56833W        W28449  27.405   1.423  11.080
56834W        W28450   7.603  13.546   0.478
56835W        W28451  36.879  13.657   3.056
56836W        W28452  40.963   8.779   4.969
56837W        W28453  32.687  25.005   1.885
56838W        W28454  28.550  14.139  14.902
56839W        W28455  25.984   7.401  11.626
56840W        W28456  22.237  42.032  12.776
56841W        W28457  21.807  32.869  13.731
56842W        W28458  24.842  35.112  12.873
56843W        W28459  43.465  31.683  12.362
56844W        W28460   3.475  28.869  14.760
56845W        W28461  38.752  19.084   2.438
56846W        W28462  14.503   9.374   2.493
56847W        W28463  31.224  11.577  11.648
56848W        W28464  15.075  43.984  13.669
56849W        W28465  41.889  44.304   4.153
56850W        W28466  10.122  29.505   1.926
56851W        W28467  34.307  29.165  10.725
56852W        W28468  43.271  42.769   0.761
56853W        W28469  18.877  44.395  11.556
56854W        W28470  44.032  36.777  10.663
56855W        W28471  40.867  38.979   2.865
56856W        W28472  38.548  12.837  14.493
56857W        W28473  28.725  41.482  11.506
56858W        W28474  30.132  30.544   3.835
56859W        W28475  24.490  27.470   2.145
56860W        W28476  16.263  29.668   3.256
56861W        W28477  16.171  16.177   9.917
56862W        W28478  18.276   4.325  12.332
56863W        W28479  12.685  21.084   4.436
56864W        W28480  19.980  33.157  10.729
56865W        W28481   6.758  42.290  12.682
56866W        W28482   4.663   0.834  10.602
56867W        W28483  31.582  27.875   0.885
56868W        W28484  40.599  32.445  12.955
56869W        W28485  26.637  16.608  13.616
56870W        W28486  28.524  18.153   0.415
56871W        W28487  27.110  31.031  11.611
56872W        W28488   8.685  10.590  14.435
56873W        W28489  40.396  39.511   3.698
56874W        W28490   5.716   3.748   1.860
56875W        W28491  30.024  31.345  12.172
56876W        W28492  15.152  27.533  12.444
56877W        W28493  38.550  10.240  14.922
56878W        W28494   7.092  40.331   1.177
56879W        W28495  26.484   2.800  11.231
56880W        W28496  39.544  10.165  10.565
56881W        W28497  29.072  24.703   3.408
56882W        W28498  21.890  34.925   3.920
56883W        W28499   4.211  32.543  12.633
56884W        W28500  15.788  16.407   4.260
56885W        W28501  38.336  25.589  11.629
56886W        W28502  40.108   8.850  10.631
56887W        W28503  43.701  18.618  13.712
56888W        W28504  30.600  14.367   0.433
56889W        W28505  38.071  40.107  12.614
56890W        W28506  31.015  26.514  10.227
56891W        W28507  15.356  12.812  12.874
56892W        W28508  18.380  15.437   0.270
56893W        W28509   6.623  24.694  13.059
56894W        W28510  38.513  34.358  10.554
56895W        W28511   7.906  15.229   3.610
56896W        W28512  12.683  14.066   1.507
56897W        W28513  35.095   8.741  10.943
56898W        W28514  14.842  44.673   3.111
56899W        W28515  30.691  44.380   3.567
56900W        W28516  20.070  23.814  14.004
56901W        W28517  22.655  20.187  11.188
56902W        W28518   0.050  16.803   0.769
56903W        W28519   5.919  33.873  14.817
56904W        W28520  24.907   1.000   2.839
56905W        W28521  13.510  23.691   3.730
56906W        W28522  43.263  20.336  12.040
56907W        W28523  39.793   8.901   1.849
56908W        W28524  17.981  26.172  10.573
56909W        W28525   6.788  10.759  12.488
56910W        W28526   5.502  44.981   5.601
56911W        W28527   7.416  39.990   3.159
56912W        W28528  29.476   7.619  11.079
56913W        W28529  22.531  43.820  12.762
56914W        W28530  42.205  32.991   3.626
56915W        W28531  12.304  24.220  11.959
56916W        W28532  44.266  39.547  13.330
56917W        W28533  32.027  11.305  11.545
56918W        W28534  41.417  32.558   4.068
56919W        W28535  31.538  37.114   4.150
56920W        W28536   1.567  44.873   1.658
56921W        W28537  22.035   3.408  13.843
56922W        W28538  19.048  20.967   4.205
56923W        W28539  19.724  35.450   3.705
56924W        W28540  37.937  13.562  12.890
56925W        W28541  35.848   1.322   2.989
56926W        W28542   4.405  33.579   1.843
56927W        W28543  18.167  26.039   1.034
56928W        W28544   5.442  36.880  11.441
56929W        W28545  11.746   7.890   2.166
56930W        W28546  23.911  14.735  14.337
56931W        W28547  20.506  27.394   2.292
56932W        W28548   1.253  33.892   2.377
56933W        W28549  27.556  31.962  14.002
56934W        W28550  11.920  25.028  12.070
56935W        W28551  32.144   1.997   2.231
56936W        W28552  26.471   6.869  12.024
56937W        W28553  30.390  30.007  11.043
56938W        W28554   7.638  30.779  12.469
56939W        W28555  27.713  44.532  13.390
56940W        W28556  10.043  23.697   9.767
56941W        W28557   1.429  25.031  11.996
56942W        W28558   4.477  34.808   4.587
56943W        W28559  35.124  23.438  11.449
56944W        W28560  19.180  15.831   0.721
56945W        W28561  14.625   5.257  11.510
56946W        W28562  35.877  20.142  13.093
56947W        W28563  19.545   5.470   3.665
56948W        W28564  44.267  16.039  10.394
56949W        W28565   9.392  31.573  13.355
56950W        W28566   7.194  39.499   1.385
56951W        W28567  27.483  11.199  14.872
56952W        W28568   9.740  41.830   1.676
56953W        W28569   3.763  38.801  13.375
56954W        W28570  41.990  23.624  12.019
56955W        W28571  10.611  30.069   1.357
56956W        W28572  35.394   1.287   1.806
56957W        W28573   1.725  28.538   0.550
56958W        W28574   8.791  19.067  10.686
56959W        W28575  32.979  35.335  14.932
56960W        W28576  17.125   7.394   2.745
56961W        W28577  18.703   3.593   0.116
56962W        W28578  24.164  25.468  11.590
56963W        W28579   2.351  20.261  12.526
56964W        W28580  17.815  33.917   2.898
56965W        W28581  25.204   3.827  11.182
56966W        W28582  24.748  29.437   3.425
56967W        W28583  43.688  27.415   3.908
56968W        W28584  17.963  11.176  11.655
56969W        W28585   5.596   0.358   0.862
56970W        W28586  42.123   3.789  14.216
56971W        W28587  30.600   1.923   2.665
56972W        W28588  19.725   0.564   2.721
56973W        W28589  19.040   1.936   2.400
56974W        W28590  26.045  36.461   4.646
56975W        W28591  22.745  15.242  11.767
56976W        W28592  38.934  41.870   2.059
56977W        W28593  25.342  18.761   4.082
56978W        W28594  34.588   9.915  14.828
56979W        W28595  37.923  35.791  14.174
56980W        W28596  20.603  23.219   1.598
56981W        W28597  18.157  11.394  12.087
56982W        W28598  23.667  17.229  10.811
56983W        W28599  35.095  25.473   4.679
56984W        W28600   6.816   7.273  14.256
56985W        W28601  30.670   2.221   3.806
56986W        W28602  30.644  41.797   4.233
56987W        W28603   8.913  29.216  12.561
56988W        W28604  13.081   1.361   4.172
56989W        W28605  14.501   8.111   4.206
56990W        W28606  41.364   6.069  14.293
56991W        W28607  29.836  30.051   5.053
56992W        W28608  43.364  39.465  11.615
56993W        W28609  30.792   8.755   0.306
56994W        W28610   8.783  14.756   0.703
56995W        W28611   0.182  35.032   3.324
56996W        W28612  27.464  37.378   3.178
56997W        W28613   7.737   3.301  12.915
56998W        W28614  43.832   4.189   1.228
56999W        W28615  14.218  30.974  14.648
57000W        W28616   0.179  38.792  13.940
57001W        W28617  16.207  10.312   4.324
57002W        W28618  20.698  36.045   0.602
57003W        W28619   4.879  30.641   2.971
57004W        W28620  32.591  17.802  14.931
57005W        W28621   1.095   0.275   0.022
57006W        W28622  29.828  20.701   4.817
57007W        W28623  16.596  36.846  12.375
57008W        W28624   1.772  39.045   0.075
57009W        W28625  21.164  14.961  11.534
57010W        W28626  36.274  29.688   4.126
57011W        W28627  43.328  26.442  13.775
57012W        W28628  35.167  42.954   2.765
57013W        W28629  37.388  26.518  13.119
57014W        W28630  42.364  33.928  11.161
57015W        W28631   6.388  11.624  14.351
57016W        W28632   8.894  40.019  14.319
57017W        W28633   4.521  43.967   0.922
57018W        W28634  35.343  15.620  11.571
57019W        W28635  43.309  44.520  12.355
57020W        W28636   0.076  38.637  10.036
57021W        W28637  12.484  22.103   3.285
57022W        W28638  44.735  24.469   2.278
57023W        W28639   9.831   2.763  14.459
57024W        W28640  34.116   2.770   0.882
57025W        W28641   8.467   0.913   4.870
57026W        W28642   3.919  22.133   5.530
57027W        W28643  44.370   1.673  12.544
57028W        W28644  26.262  20.213   4.846
57029W        W28645  34.582  38.885   4.527
57030W        W28646   7.018  35.754   3.681
57031W        W28647   9.372   1.161  11.611
57032W        W28648  43.262   1.701   0.766
57033W        W28649  24.194   3.650  12.874
57034W        W28650  44.259   2.239  14.965
57035W        W28651   1.728  25.105   3.134
57036W        W28652  44.818  32.956  13.960
57037W        W28653  18.160  15.157   4.574
57038W        W28654  44.392  29.981  11.491
57039W        W28655  28.868   4.798  12.976
57040W        W28656   9.290   1.484  14.945
57041W        W28657  25.786  28.857  12.682
57042W        W28658   0.690  38.514  12.029
57043W        W28659   9.220  10.827   3.814
57044W        W28660  42.036  35.839   0.873
57045W        W28661  42.913   2.518  13.087
57046W        W28662  26.218  43.869  14.974
57047W        W28663  21.281  26.264   1.246
57048W        W28664  26.148  10.047   2.117
57049W        W28665  28.615  43.083  13.153
57050W        W28666   6.168   6.265  12.616
57051W        W28667  21.101  34.868  14.980
57052W        W28668  42.949   5.854  12.448
57053W        W28669  38.963  19.055  12.420
57054W        W28670  29.008   1.968   2.304
57055W        W28671   3.438  33.947  12.534
57056W        W28672  21.554  42.684   4.755
57057W        W28673  10.330  39.928   2.846
57058W        W28674  17.454  42.348   4.637
57059W        W28675  27.734   6.271  13.939
57060W        W28676   7.703  19.241  11.532
57061W        W28677  19.743  19.054  12.410
57062W        W28678  18.099  18.575  10.559
57063W        W28679  29.362  37.767  13.162
57064W        W28680  30.068  18.545  10.671
57065W        W28681   9.130  38.785  10.681
57066W        W28682  25.014  17.251  12.447
57067W        W28683  29.937  31.215   1.914
57068W        W28684  16.293  28.374   2.339
57069W        W28685  25.309   5.606  10.688
57070W        W28686  29.862  36.833   1.843
57071W        W28687  38.559   3.768   3.819
57072W        W28688  38.754  24.346  12.996
57073W        W28689  34.949  23.962   1.042
57074W        W28690  40.993   6.975  10.727
57075W        W28691  19.595  24.058  14.193
57076W        W28692  23.170   0.290  12.530
57077W        W28693  20.761  31.859  12.330
57078W        W28694  43.275  37.532  14.853
57079W        W28695  38.085  22.446   4.115
57080W        W28696  26.017   6.339   0.001
57081W        W28697  31.520  27.612   5.519
57082W        W28698   7.821   8.897  14.314
57083W        W28699  12.414  25.231  13.414
57084W        W28700  13.667  18.396  14.368
57085W        W28701  44.527   4.169   2.002
57086W        W28702  33.231  43.535   2.407
57087W        W28703   6.671   2.529  10.716
57088W        W28704  14.826   0.939   2.130
57089W        W28705  19.250  13.835  12.062
57090W        W28706  38.004  10.229   0.439
57091W        W28707  42.576  25.589   1.809
57092W        W28708  16.199  11.783  12.174
57093W        W28709  41.616  34.153  11.687
57094W        W28710  37.280  26.118   1.774
57095W        W28711   8.371  36.447   3.827
57096W        W28712   8.656  30.500  11.546
57097W        W28713  30.595   3.388  12.984
57098W        W28714  44.188  37.837   4.633
57099W        W28715   4.735  33.188  12.575
57100W        W28716   5.138  26.143   1.037
57101W        W28717  31.287  40.742   1.784
57102W        W28718   6.822  38.434   1.862
57103W        W28719  26.424  10.803   0.308
57104W        W28720   6.243  13.080  11.519
57105W        W28721  35.828   4.515  12.533
57106W        W28722  12.370  22.093   1.973
57107W        W28723  22.787   1.479  13.747
57108W        W28724  22.605  25.190   2.125
57109W        W28725   2.008  11.290   4.833
57110W        W28726  42.785  20.792   2.728
57111W        W28727   9.225   8.104  12.950
57112W        W28728   9.400  12.553  11.745
57113W        W28729  31.935  19.545   0.740
57114W        W28730  25.587  16.767  11.706
57115W        W28731  27.062  19.594  14.750
57116W        W28732  16.644   8.816  13.603
57117W        W28733   3.878  34.506  14.365
57118W        W28734  40.592   2.959  14.985
57119W        W28735  26.097  11.832  12.143
57120W        W28736   8.937  23.712  10.965
57121W        W28737  32.687   2.790   1.185
57122W        W28738   5.170   5.656  14.569
57123W        W28739  33.479   7.804   0.015
57124W        W28740  33.617  26.953  13.486
57125W        W28741  39.790  18.029   0.914
57126W        W28742  11.604   5.707  14.752
57127W        W28743   8.834  42.517   4.689
57128W        W28744  36.440  13.304  11.096
57129W        W28745  38.072  22.671   3.263
57130W        W28746  30.236  33.182  12.346
57131W        W28747   3.869  44.711   1.264
57132W        W28748  39.468  30.652  12.597
57133W        W28749  27.153  13.380  12.507
57134W        W28750   1.269  23.840  13.065
57135W        W28751   4.731  10.179  13.905
57136W        W28752  39.744  38.838   1.551
57137W        W28753  13.020  36.488  12.000
57138W        W28754  23.513  26.532   2.207
57139W        W28755   6.016  33.907  10.913
57140W        W28756  18.817   5.943  14.920
57141W        W28757  18.115  34.548   4.716
57142W        W28758  35.541  39.867   1.688
57143W        W28759  31.578  17.437   1.357
57144W        W28760  31.551  13.273   0.215
57145W        W28761  11.580  34.902  11.579
57146W        W28762  26.572   1.235  10.468
57147W        W28763  32.665  17.126   3.066
57148W        W28764  42.502  40.766  12.199
57149W        W28765   9.953   3.921   0.131
57150W        W28766  14.554  41.052  12.465
57151W        W28767  32.888  28.357   1.005
57152W        W28768  27.716  42.445  11.944
57153W        W28769  35.882  25.170   5.066
57154W        W28770  35.429  27.036   1.984
57155W        W28771  25.469  20.279   2.888
57156W        W28772  37.477  34.360   1.675
57157W        W28773  37.150  30.863  10.584
57158W        W28774  14.779  33.383   2.899
57159W        W28775  44.256  35.048   3.466
57160W        W28776   1.229   1.047   4.764
57161W        W28777  21.532  37.848   3.267
57162W        W28778  40.917   7.887  13.586
57163W        W28779  43.263  36.754   3.336
57164W        W28780  22.976  17.546  10.522
57165W        W28781  20.957  15.404  10.332
57166W        W28782   8.254   2.977   0.877
57167W        W28783  35.825  28.760   0.339
57168W        W28784  23.739  22.979   1.440
57169W        W28785  20.205   2.821   2.861
57170W        W28786  30.183  33.993   4.612
57171W        W28787  38.453  21.419   3.696
57172W        W28788  34.443  12.661  13.048
57173W        W28789  12.603  31.056  11.584
57174W        W28790  12.299  43.753  11.744
57175W        W28791  44.731   8.924   4.191
57176W        W28792  13.268  10.409  11.994
57177W        W28793  18.941  32.247   4.597
57178W        W28794   7.688  22.187  12.202
57179W        W28795  27.535  30.697   0.229
57180W        W28796   2.789  18.377  10.676
57181W        W28797   7.113  22.575  13.968
57182W        W28798  39.176  26.989  13.963
57183W        W28799   2.361  30.093   1.805
57184W        W28800  26.686  36.789  11.993
57185W        W28801  21.081  40.491  13.777
57186W        W28802  33.150  15.273   2.791
57187W        W28803  22.640   0.946   1.224
57188W        W28804  12.141   2.371   1.959
57189W        W28805  11.645  16.740   2.674
57190W        W28806  22.550  43.446   4.638
57191W        W28807   9.682  34.048  11.630
57192W        W28808  40.896  43.321  11.481
57193W        W28809  15.839  32.987  13.930
57194W        W28810  37.857  17.287  10.733
57195W        W28811   0.593  42.601   4.686
57196W        W28812   2.990  18.720   0.950
57197W        W28813   3.555   0.750   4.300
57198W        W28814  30.196  23.021  14.455
57199W        W28815   9.937  12.680   0.221
57200W        W28816  38.909  38.662   3.671
57201W        W28817  12.304  18.515  13.450
57202W        W28818   3.892  20.061  13.736
57203W        W28819  24.142  18.582  12.005
57204W        W28820  10.359  41.983   0.313
57205W        W28821  36.887  15.272  10.760
57206W        W28822  28.830  25.150   0.584
57207W        W28823  18.016  35.884   0.397
57208W        W28824  28.669  42.568   4.707
57209W        W28825  21.623  36.026   1.912
57210W        W28826   4.326  41.096  10.732
57211W        W28827  41.309   7.335   0.885
57212W        W28828   1.945   2.578   3.569
57213W        W28829   1.880  30.470  12.394
57214W        W28830   8.806  33.192   4.297
57215W        W28831  24.666  19.590   0.460
57216W        W28832  37.529  41.238  14.559
57217W        W28833  39.918  26.239   1.374
57218W        W28834  41.778  13.009   2.173
57219W        W28835  21.114  34.092   3.032
57220W        W28836   3.658  42.831   3.093
57221W        W28837  29.418   2.699  12.406
57222W        W28838  28.733  28.580  13.463
57223W        W28839  35.899  16.292   3.792
57224W        W28840   2.882  30.146   1.706
57225W        W28841  40.683  17.529  11.619
57226W        W28842  18.958  28.527  11.458
57227W        W28843  39.369   4.890   4.263
57228W        W28844   8.706  44.472  13.921
57229W        W28845  10.374   5.543  11.153
57230W        W28846   4.864  25.669  14.925
57231W        W28847  28.513  12.843   1.437
57232W        W28848  30.168   2.329   1.777
57233W        W28849  22.482  32.915   2.160
57234W        W28850  26.940  15.683   4.580
57235W        W28851  27.191  31.218  13.522
57236W        W28852  24.420  40.903  13.021
57237W        W28853  21.990  34.882  14.541
57238W        W28854  22.578   4.917   2.657
57239W        W28855  10.857  42.520  14.571
57240W        W28856  23.534  39.497  12.101
57241W        W28857  25.517  43.878  10.628
57242W        W28858  44.772   1.189   1.453
57243W        W28859  11.179   9.785   4.157
57244W        W28860  11.398   6.190  10.610
57245W        W28861  10.288  36.903   3.934
57246W        W28862   2.552  11.795   2.297
57247W        W28863  39.545  44.780  13.223
57248W        W28864  31.113  20.070  14.692
57249W        W28865   2.248  21.101  10.048
57250W        W28866  33.225  32.279   1.913
57251W        W28867   3.694  10.311  12.935
57252W        W28868  39.696  17.852   0.419
57253W        W28869   5.393  41.845   4.304
57254W        W28870  44.844   6.173   1.478
57255W        W28871  12.765  21.227   4.953
57256W        W28872   6.749   5.377  11.676
57257W        W28873  32.674  10.765   0.913
57258W        W28874  42.830   4.178  11.195
57259W        W28875   0.787   8.317  14.983
57260W        W28876  31.176  10.658  12.535
57261W        W28877  11.788  44.371  13.977
57262W        W28878  20.060  44.002  13.918
57263W        W28879   3.712   9.284   3.361
57264W        W28880  43.866  40.303   2.483
57265W        W28881  37.068   9.358  12.545
57266W        W28882  16.753  25.348   4.982
57267W        W28883   4.171  18.110   4.297
57268W        W28884  43.558  23.772  12.074
57269W        W28885  18.071  28.226  11.619
57270W        W28886   7.204  17.543  11.540
57271W        W28887  15.832  29.996  13.895
57272W        W28888  34.470  20.598  13.648
57273W        W28889  30.692  41.881   3.732
57274W        W28890  11.301   1.883  13.616
57275W        W28891  39.794  30.809  14.882
57276W        W28892  19.136   4.376   2.362
57277W        W28893   2.845  24.428  10.287
57278W        W28894   8.785  38.812   4.176
57279W        W28895  14.614  25.960   0.436
57280W        W28896  13.547   1.167   9.938
57281W        W28897  34.954  40.479   4.974
57282W        W28898  25.936   2.019  11.277
57283W        W28899  36.448  17.142  11.700
57284W        W28900  42.001   6.463   4.578
57285W        W28901  44.260  15.114   0.825
57286W        W28902  25.529  28.771   1.451
57287W        W28903  21.626  28.535   1.246
57288W        W28904  22.550  25.686   3.838
57289W        W28905  38.389  44.951  11.273
57290W        W28906  44.937  32.678   3.294
57291W        W28907  38.466  11.044   5.027
57292W        W28908  34.513  16.598  12.776
57293W        W28909   0.473  37.154  10.675
57294W        W28910   3.306  24.126  13.555
57295W        W28911   4.412  26.254  14.383
57296W        W28912  24.432  13.744   1.286
57297W        W28913  27.982  16.724   3.781
57298W        W28914  15.707  39.404   1.726
57299W        W28915  30.977  29.611   0.961
57300W        W28916  16.764  30.021   0.847
57301W        W28917  24.149  37.349  10.675
57302W        W28918  42.134  34.807   2.293
57303W        W28919  15.838  28.855  14.834
57304W        W28920  18.437  21.140   2.307
57305W        W28921  26.551  18.452  13.444
57306W        W28922  19.978  27.401   2.317
57307W        W28923  20.259  41.267   1.873
57308W        W28924  22.213  33.940  13.478
57309W        W28925  42.598   5.347   3.309
57310W        W28926  33.033   5.939   3.151
57311W        W28927  12.371  37.460  12.753
57312W        W28928  27.523  44.498  12.889
57313W        W28929  24.474   3.907  11.614
57314W        W28930   8.618  22.545  11.676
57315W        W28931  39.440  43.993   1.282
57316W        W28932  33.511  32.509   0.486
57317W        W28933  28.138  28.086  11.960
57318W        W28934  15.145  20.128   3.691
57319W        W28935  40.362  27.143  10.629
57320W        W28936  28.403   9.880   4.119
57321W        W28937  11.454   9.156  11.091
57322W        W28938  26.227  21.887   4.197
57323W        W28939   8.663   7.976   0.935
57324W        W28940  26.910   0.754   3.641
57325W        W28941  11.572  19.084   1.325
57326W        W28942  32.466  38.785  12.784
57327W        W28943  43.289  28.996  14.134
57328W        W28944  34.334  33.897  11.950
57329W        W28945  44.043  30.274   2.256
57330W        W28946  10.327   3.261   4.763
57331W        W28947   0.465  16.201   4.231
57332W        W28948   7.300  21.591  11.603
57333W        W28949  12.588  42.048  11.980
57334W        W28950   8.216  23.577   0.960
57335W        W28951  38.858  43.490   2.229
57336W        W28952   3.775  26.400   0.356
57337W        W28953  31.122  24.959  12.874
57338W        W28954  25.888   8.255  14.844
57339W        W28955   4.511   1.953   4.566
57340W        W28956  26.009  35.610   3.229
57341W        W28957   2.133  43.931  14.262
57342W        W28958  11.380  12.810   0.125
57343W        W28959   0.865  27.752  12.524
57344W        W28960  36.668  40.852  14.374
57345W        W28961  28.060   8.474  11.652
57346W        W28962  31.946  35.123   4.098
57347W        W28963   2.862  31.979   3.247
57348W        W28964  36.518  23.034   3.301
57349W        W28965   0.609   2.634   4.958
57350W        W28966  42.869  17.639  12.003
57351W        W28967  32.519  21.251  10.719
57352W        W28968   6.616  39.363  11.641
57353W        W28969  36.026   9.908   1.524
57354W        W28970  26.885  11.360   3.318
57355W        W28971  28.154  31.900   1.141
57356W        W28972  30.460  19.018  11.405
57357W        W28973  14.108  28.207  12.459
57358W        W28974  44.462   6.484  13.859
57359W        W28975  31.498  44.022   2.921
57360W        W28976  20.222  24.928   2.864
57361W        W28977  19.559  37.956  12.400
57362W        W28978   5.767  16.708   0.305
57363W        W28979  35.290   2.928   3.978
57364W        W28980  35.411  22.841  13.691
57365W        W28981  27.184  41.614   0.778
57366W        W28982  10.262  29.559  11.198
57367W        W28983  15.361  33.177   1.275
57368W        W28984   4.094  39.022   1.728
57369W        W28985   2.468  36.139   5.018
57370W        W28986  26.934   3.368   3.310
57371W        W28987   3.928  24.730  13.409
57372W        W28988  35.888  15.604   1.531
57373W        W28989  25.583  27.581   1.699
57374W        W28990  36.911  27.151  14.874
57375W        W28991  44.472   8.165   0.176
57376W        W28992  20.214  27.270  13.563
57377W        W28993   4.244  30.927   3.619
57378W        W28994  34.268  22.138   3.270
57379W        W28995  44.650   2.020   0.249
57380W        W28996  20.766  12.393  14.345
57381W        W28997  24.514   4.228  10.809
57382W        W28998  36.451  12.872  12.048
57383W        W28999   2.947   6.594  10.683
57384W        W29000   7.870  18.457   2.422
57385W        W29001  33.037  44.316  12.440
57386W        W29002  19.506  36.018   3.179
57387W        W29003   1.839  44.214  14.591
57388W        W29004  34.143  40.499  14.988
57389W        W29005  41.392  21.769   1.800
57390W        W29006   1.807  19.320  14.785
57391W        W29007  44.932  38.507   1.413
57392W        W29008   4.466  34.546   1.985
57393W        W29009  34.070  39.807  11.488
57394W        W29010  41.368  22.137   4.346
57395W        W29011  34.646  38.478   0.407
57396W        W29012  41.482  24.184  10.713
57397W        W29013  38.733   7.709   4.121
57398W        W29014  34.129   7.929  10.527
57399W        W29015   6.983  21.114   1.873
57400W        W29016  30.114  44.500   2.231
57401W        W29017   7.786  21.626  11.340
57402W        W29018  11.685  42.718  12.078
57403W        W29019  35.657  38.143   1.256
57404W        W29020  24.197  21.176   1.722
57405W        W29021  24.158  20.534  14.393
57406W        W29022   2.814  41.282  10.710
57407W        W29023  38.984  41.271   3.271
57408W        W29024  23.080  33.878   0.361
57409W        W29025  42.816  16.229   1.373
57410W        W29026   9.980  30.522   3.201
57411W        W29027   6.801  24.700  11.672
57412W        W29028  36.412  15.714   0.225
57413W        W29029  37.773  44.200   3.730
57414W        W29030  39.496  17.011  11.546
57415W        W29031  12.685  29.134  12.008
57416W        W29032  38.070  14.792  10.569
57417W        W29033   2.717  14.199  10.487
57418W        W29034  23.767   0.934   2.201
57419W        W29035  25.021  23.714   3.314
57420W        W29036  35.698  13.262  11.483
57421W        W29037   0.225  30.986  12.974
57422W        W29038  16.526  32.662  11.538
57423W        W29039  18.027  16.169  14.402
57424W        W29040  32.676  34.098   1.168
57425W        W29041  28.477  41.479   4.119
57426W        W29042  31.138   9.214  10.378
57427W        W29043  34.083  33.011  10.562
57428W        W29044   4.582  15.053   4.582
57429W        W29045  37.635  29.408   5.019
57430W        W29046  18.702  38.575  13.554
57431W        W29047  42.318  20.755  13.400
57432W        W29048  18.153  21.521  14.367
57433W        W29049  26.506   2.382   3.325
57434W        W29050  40.563  44.489  10.214
57435W        W29051  19.734  40.778   3.543
57436W        W29052  33.534  33.947   4.467
57437W        W29053  28.218  15.262  11.240
57438W        W29054   9.348  20.062  13.902
57439W        W29055   6.975  10.076  12.442
57440W        W29056   9.348  28.504  13.923
57441W        W29057  33.569   8.773   1.031
57442W        W29058  25.332  39.279   0.181
57443W        W29059   5.445  11.337  12.330
57444W        W29060  38.147  42.881   4.169
57445W        W29061  14.372  20.826   2.456
57446W        W29062  11.281   3.372  13.138
57447W        W29063  15.133  15.835   1.835
57448W        W29064  13.232  29.695  11.469
57449W        W29065   2.111  13.533  11.947
57450W        W29066  41.542  29.099   3.739
57451W        W29067  17.582  40.556  14.904
57452W        W29068   0.244   3.416  12.335
57453W        W29069  11.647  19.615   1.296
57454W        W29070  22.038  15.734   2.720
57455W        W29071  25.586  24.725  12.447
57456W        W29072   3.712  29.057   4.659
57457W        W29073   8.249  25.818   2.906
57458W        W29074  14.602   1.716  12.994
57459W        W29075  39.708  28.712   3.671
57460W        W29076  42.352  21.218  10.502
57461W        W29077  24.126  30.533  10.772
57462W        W29078   6.016   1.192   2.261
57463W        W29079  15.667  20.259  12.052
57464W        W29080  31.572   5.367  12.967
57465W        W29081  14.026  14.845   0.519
57466W        W29082  40.117  39.339  11.453
57467W        W29083  21.865  11.636  13.408
57468W        W29084  19.786  16.195   4.624
57469W        W29085  42.203   5.574   2.312
57470W        W29086  42.096  30.226  12.613
57471W        W29087  40.908  18.273   4.314
57472W        W29088   5.376  36.983  13.572
57473W        W29089  25.441  26.774  10.529
57474W        W29090  30.008   2.057   0.224
57475W        W29091  33.928  33.644   0.489
57476W        W29092  37.166   7.768  12.083
57477W        W29093  14.323   8.670  13.887
57478W        W29094  21.360   2.203  13.878
57479W        W29095  38.314   0.924   3.985
57480W        W29096  21.524   4.950   2.698
57481W        W29097  35.246  42.689   4.106
57482W        W29098   8.136  39.676   4.255
57483W        W29099  33.574   0.485   3.056
57484W        W29100  23.973  23.048   0.974
57485W        W29101  10.252   1.433  10.721
57486W        W29102  22.293  18.674  10.443
57487W        W29103   0.499   3.318   0.577
57488W        W29104  28.835  36.482   1.521
57489W        W29105  37.283  15.666   3.347
57490W        W29106  13.229  23.491  14.257
57491W        W29107  21.580  31.021  13.569
57492W        W29108  42.695  25.905   2.226
57493W        W29109  13.779  21.926  14.322
57494W        W29110   4.995  35.703  13.541
57495W        W29111  32.979  36.190  12.209
57496W        W29112  14.635  13.827  14.338
57497W        W29113   0.300   3.264  14.733
57498W        W29114  40.528  30.852   5.067
57499W        W29115  44.768  33.126   2.143
57500W        W29116  41.870   1.709  13.401
57501W        W29117   7.825  17.644   2.673
57502W        W29118  13.271  28.963   2.435
57503W        W29119   5.175  41.037  14.488
57504W        W29120  36.905  25.099  13.140
57505W        W29121  15.830  11.134  12.430
57506W        W29122  14.218   3.401  12.859
57507W        W29123  19.014  15.840   1.806
57508W        W29124   9.588  23.658   3.336
57509W        W29125   3.250  26.417  13.611
57510W        W29126  13.068   8.591   2.358
57511W        W29127  14.246   7.445  12.052
57512W        W29128  33.034   2.551   5.021
57513W        W29129  28.510  20.495  11.577
57514W        W29130  16.231   9.804  13.043
57515W        W29131  23.001  17.691   0.270
57516W        W29132  41.733  10.624   3.110
57517W        W29133  24.982  21.226   0.347
57518W        W29134  26.455  30.461   1.318
57519W        W29135   6.811  44.889   2.691
57520W        W29136  35.326   2.467  14.318
57521W        W29137  32.362  22.937  14.350
57522W        W29138   7.634  17.262   3.002
57523W        W29139  36.510  36.780  12.371
57524W        W29140  15.013  33.832   2.864
57525W        W29141  15.563  32.144  10.465
57526W        W29142  22.180  24.605   2.274
57527W        W29143  35.323  17.822   3.309
57528W        W29144  30.726  30.102   4.876
57529W        W29145   9.892  12.282  10.658
57530W        W29146  37.964  42.920   4.634
57531W        W29147  14.218   9.794   2.427
57532W        W29148  43.800   7.758   2.356
57533W        W29149  30.145   4.686  11.182
57534W        W29150  18.216  10.151   4.079
57535W        W29151  37.199  14.541   2.941
57536W        W29152   8.645  26.726   2.886
57537W        W29153  35.522  26.268   4.432
57538W        W29154  19.791  31.509  13.797
57539W        W29155  21.500  11.931  10.799
57540W        W29156  27.756  29.487  14.300
57541W        W29157  41.455  41.556  12.959
57542W        W29158  37.914  36.036  12.850
57543W        W29159   7.295  10.133  12.836
57544W        W29160  38.327  13.968   3.270
57545W        W29161  25.982  18.768   0.202
57546W        W29162  14.225  32.552  10.571
57547W        W29163  31.476  39.908   0.342
57548W        W29164   0.993  23.172   1.917
57549W        W29165   3.675  27.135   1.320
57550W        W29166  34.429  27.608  14.457
57551W        W29167  21.223   4.688   4.090
57552W        W29168   9.414  13.571  13.921
57553W        W29169  24.941   3.179   3.188
57554W        W29170  28.009  26.221   2.863
57555W        W29171   1.972  27.157   3.269
57556W        W29172  20.733  27.687   4.203
57557W        W29173  22.219  34.505  11.697
57558W        W29174  12.620  11.362  12.705
57559W        W29175   4.890  41.384   0.261
57560W        W29176   6.020  19.165   2.194
57561W        W29177  17.772  13.257  11.146
57562W        W29178   1.840  17.699   0.497
57563W        W29179   0.539  25.766  14.889
57564W        W29180  30.155  44.898  14.291
57565W        W29181  16.796  24.585  12.840
57566W        W29182  29.741   8.901   4.026
57567W        W29183  37.730  31.793   4.254
57568W        W29184  31.535   6.211  13.661
57569W        W29185  31.360   2.841  10.978
57570W        W29186  17.336  14.666   2.446
57571W        W29187   6.665   4.846   4.764
57572W        W29188  10.675   3.164   3.647
57573W        W29189  33.529  29.936  14.403
57574W        W29190   5.691   0.410   4.727
57575W        W29191  28.586   1.826   1.338
57576W        W29192  17.597   6.233   1.224
57577W        W29193  20.123  11.454  11.998
57578W        W29194   5.021  37.887  11.173
57579W        W29195  20.158  22.988   4.775
57580W        W29196  10.613   1.776   0.860
57581W        W29197  39.283  12.847  13.818
57582W        W29198   6.896   0.754  11.121
57583W        W29199   6.490  15.733   1.425
57584W        W29200  25.738  34.155   1.967
57585W        W29201  31.896  10.923  13.041
57586W        W29202  41.363  42.580  13.142
57587W        W29203  11.472  21.304  12.251
57588W        W29204   1.245   2.581  14.975
57589W        W29205  34.998  25.097   0.925
57590W        W29206  41.540   7.678  10.563
57591W        W29207  19.735  32.595   4.106
57592W        W29208   7.759  38.027  12.175
57593W        W29209  10.846   7.469   4.246
57594W        W29210   9.776  39.447  14.903
57595W        W29211   8.360  14.348  11.190
57596W        W29212   7.500  41.054   5.173
57597W        W29213  41.590  28.388   3.070
57598W        W29214  38.463  33.983   1.887
57599W        W29215  22.311  40.053  11.565
57600W        W29216  31.651  29.759  12.478
57601W        W29217  27.597  39.345   1.377
57602W        W29218  44.729  30.860  13.074
57603W        W29219  12.620  20.679  10.699
57604W        W29220  25.845   1.300  12.878
57605W        W29221   2.886  26.754  13.315
57606W        W29222  19.749  11.463  13.825
57607W        W29223  10.773  22.192  11.161
57608W        W29224   2.824  43.644  10.689
57609W        W29225  35.560  19.863  14.286
57610W        W29226   9.612  10.620   4.682
57611W        W29227  19.345  27.984   3.191
57612W        W29228  11.406  37.582   4.845
57613W        W29229   0.379  21.282  14.942
57614W        W29230  22.580  23.088   1.796
57615W        W29231  24.051  35.514   4.356
57616W        W29232  22.034  10.272   4.667
57617W        W29233  35.135  10.164   3.267
57618W        W29234  24.743  37.552   2.428
57619W        W29235  12.426  41.982  12.469
57620W        W29236  36.396  43.802   0.371
57621W        W29237  26.087  22.161  13.830
57622W        W29238   4.780  17.689  12.396
57623W        W29239  37.092  38.951   3.680
57624W        W29240   4.652   2.805   4.753
57625W        W29241  43.601   1.647  10.310
57626W        W29242   4.931  27.566  13.978
57627W        W29243  43.594  10.145  14.441
57628W        W29244  14.763  18.785   1.858
57629W        W29245  22.704  38.573   2.273
57630W        W29246  39.879  15.010  12.046
57631W        W29247  17.224  29.238  11.333
57632W        W29248  38.332   4.746   4.243
57633W        W29249  40.797  20.583   4.041
57634W        W29250   8.377  37.340   3.677
57635W        W29251  34.131  26.499  12.883
57636W        W29252   3.786  17.794  11.500
57637W        W29253  35.952  38.859   4.105
57638W        W29254  25.112  12.150  11.613
57639W        W29255   3.651  36.861  11.200
57640W        W29256  19.744  32.469  13.395
57641W        W29257  12.734  33.458  14.285
57642W        W29258   7.844  34.559   2.759
57643W        W29259  36.326  33.028  13.541
57644W        W29260  15.318  24.146   1.247
57645W        W29261  41.992  24.880   2.035
57646W        W29262  27.365  17.861   4.207
57647W        W29263  22.513  44.317   0.952
57648W        W29264  32.688   0.386   4.535
57649W        W29265  30.928  44.580   4.344
57650W        W29266  15.082  17.217  12.070
57651W        W29267   7.282  30.076   2.691
57652W        W29268   2.753  13.969  11.420
57653W        W29269  34.616   8.224  11.452
57654W        W29270  12.854  43.315   3.276
57655W        W29271  18.617  38.866   3.962
57656W        W29272  39.776   7.493   1.764
57657W        W29273   1.914  42.797  11.890
57658W        W29274  10.649  43.478  12.575
57659W        W29275  11.557   4.905   2.267
57660W        W29276  35.599  17.265  12.338
57661W        W29277  28.054  38.059   2.911
57662W        W29278   5.840   5.676  10.650
57663W        W29279   3.940  23.441   5.047
57664W        W29280   9.647  28.933   0.826
57665W        W29281  23.655  38.632   0.911
57666W        W29282  20.405  21.918   1.422
57667W        W29283  31.957  44.448  10.037
57668W        W29284  30.994  33.435   1.302
57669W        W29285  43.074  16.228  12.603
57670W        W29286  44.914  32.632   4.202
57671W        W29287  15.010  10.943   3.794
57672W        W29288  14.555  35.528   3.206
57673W        W29289  11.205  21.169  10.390
57674W        W29290  20.891  24.869  14.785
57675W        W29291  29.693  43.451  10.791
57676W        W29292  11.631  37.990  12.837
57677W        W29293  21.152  41.081   4.686
57678W        W29294  35.836  17.695   0.436
57679W        W29295  28.046  24.753   4.403
57680W        W29296  14.774  26.246  14.100
57681W        W29297   6.488  18.932   2.292
57682W        W29298  10.944   1.958   4.246
57683W        W29299  41.597  22.480  12.806
57684W        W29300  33.787  43.503  11.670
57685W        W29301  42.532  24.965  10.632
57686W        W29302  43.803  41.265   3.668
57687W        W29303  23.650  38.170  10.729
57688W        W29304   1.212  12.198   0.827
57689W        W29305  37.842  34.412   4.113
57690W        W29306  28.118  41.057  12.961
57691W        W29307  28.200   8.279  13.392
57692W        W29308  24.375  35.166  13.059
57693W        W29309  42.938  23.373  13.734
57694W        W29310  26.467  38.968  13.381
57695W        W29311  23.233   5.255  13.063
57696W        W29312  32.563  42.938   4.004
57697W        W29313  37.278  26.012  13.180
57698W        W29314  34.556  25.781   3.941
57699W        W29315  11.560   9.328   3.242
57700W        W29316  24.166  22.697   4.894
57701W        W29317  43.698  42.729   1.656
57702W        W29318  29.142   4.508   0.386
57703W        W29319  13.208   1.982  11.372
57704W        W29320   0.352   8.869  14.394
57705W        W29321  30.881  17.540  12.068
57706W        W29322   1.273  39.096   4.726
57707W        W29323   7.437  15.203  13.377
57708W        W29324  44.429  18.994  11.650
57709W        W29325   8.682  11.668   1.822
57710W        W29326  18.819  18.352   1.738
57711W        W29327   1.455  14.704   1.337
57712W        W29328  15.660  36.041   2.691
57713W        W29329  34.564   5.938   0.317
57714W        W29330   5.674  38.389  12.067
57715W        W29331  16.407   0.675   0.414
57716W        W29332  39.135  26.943   0.791
57717W        W29333  40.279  13.165   2.617
57718W        W29334  32.680   2.921  11.989
57719W        W29335  23.915  36.794   1.830
57720W        W29336  40.182  14.738   3.732
57721W        W29337  10.808  12.213   4.539
57722W        W29338   1.684  42.853  11.447
57723W        W29339   8.119  15.343  14.003
57724W        W29340   2.167  18.682  14.869
57725W        W29341  43.927   0.968  12.882
57726W        W29342  40.584  12.394   4.503
57727W        W29343  22.810  31.894  13.501
57728W        W29344  23.609  44.934  14.617
57729W        W29345  23.953  43.246   4.239
57730W        W29346   1.332  23.550  12.108
57731W        W29347   1.848  11.555   2.829
57732W        W29348  37.837   3.791   3.126
57733W        W29349   5.956  17.077   4.633
57734W        W29350   6.900  42.020   1.671
57735W        W29351  42.431  30.348   1.013
57736W        W29352   5.490  18.530  11.447
57737W        W29353  41.009  38.195   1.012
57738W        W29354  32.476  21.527  12.959
57739W        W29355  14.471   3.711   0.811
57740W        W29356  27.647  41.831   3.734
57741W        W29357   7.075  29.494  11.316
57742W        W29358   7.531   3.318  12.137
57743W        W29359  13.849  39.532  13.999
57744W        W29360  42.037  44.095  13.306
57745W        W29361  20.606  25.713   0.363
57746W        W29362  29.876  19.042  10.633
57747W        W29363  12.304   8.933   4.192
57748W        W29364  25.241  43.669  14.904
57749W        W29365   7.904   2.749  13.813
57750W        W29366  24.009  29.875   1.829
57751W        W29367  12.733   4.395   4.001
57752W        W29368   0.812   9.926  13.309
57753W        W29369  40.811   3.796   4.717
57754W        W29370  24.139   8.878  11.154
57755W        W29371  10.290  30.334   4.083
57756W        W29372  30.075   4.170  11.185
57757W        W29373  32.367  19.005   3.809
57758W        W29374  34.605  40.503  11.250
57759W        W29375   7.206  25.223   2.116
57760W        W29376  11.171  33.634   0.274
57761W        W29377  42.570  14.102  13.578
57762W        W29378  13.606  42.952   1.464
57763W        W29379   7.564  13.816  12.198
57764W        W29380  28.086  23.466   3.161
57765W        W29381  31.888   0.640   1.857
57766W        W29382  28.905  38.363  11.610
57767W        W29383   3.696  30.948   3.818
57768W        W29384  14.247  14.515  12.938
57769W        W29385  40.631   9.613   1.406
57770W        W29386   1.664   1.295  10.717
57771W        W29387  27.384   1.815   1.438
57772W        W29388  15.592  19.607   0.208
57773W        W29389  38.067  19.734   4.176
57774W        W29390  27.866  33.205   3.752
57775W        W29391  16.232  22.005   2.852
57776W        W29392  26.150  18.781  10.596
57777W        W29393   3.265  14.639  13.798
57778W        W29394  13.326  39.550   4.072
57779W        W29395  22.445  20.047  12.952
57780W        W29396   8.033   8.697  12.944
57781W        W29397   2.927   1.466  12.910
57782W        W29398  28.452  11.067  12.947
57783W        W29399  14.100  29.470  11.536
57784W        W29400  15.772  12.202  13.555
57785W        W29401   0.239  22.544   3.285
57786W        W29402  15.113   7.847  12.434
57787W        W29403  12.473   6.216   5.040
57788W        W29404  32.437  39.611  12.455
57789W        W29405  38.759  16.173  14.823
57790W        W29406  33.703  41.730   3.664
57791W        W29407   4.511  35.910  13.413
57792W        W29408  39.068  10.596   1.344
57793W        W29409  13.239   1.123  11.687
57794W        W29410  32.954  31.681   3.695
57795W        W29411   9.334  38.615   2.739
57796W        W29412  28.990   7.682  10.875
57797W        W29413  43.339  26.747  14.593
57798W        W29414  24.212  31.948  11.047
57799W        W29415  15.701  25.326  14.077
57800W        W29416  20.282  27.763   4.502
57801W        W29417  18.799  11.956   0.340
57802W        W29418  12.118  39.418   2.846
57803W        W29419  15.508  44.373   4.886
57804W        W29420   7.826   2.205   2.071
57805W        W29421  40.535   1.240  10.192
57806W        W29422  39.578  28.667  13.734
57807W        W29423  38.553  36.912  12.874
57808W        W29424  43.012  37.579   0.317
57809W        W29425   8.916  44.893   1.707
57810W        W29426   1.236  41.973  13.890
57811W        W29427   0.300   1.168  11.016
57812W        W29428  29.888  29.264  11.163
57813W        W29429  41.314  32.442  14.819
57814W        W29430  43.623  29.520   0.085
57815W        W29431  12.842  26.255  11.853
57816W        W29432  14.783  19.147   0.719
57817W        W29433  31.108  28.413  14.285
57818W        W29434  24.498  11.377  13.126
57819W        W29435  31.635  10.877   2.705
57820W        W29436  25.611   9.885   5.073
57821W        W29437  34.647  14.165   2.194
57822W        W29438  20.741  21.608  10.855
57823W        W29439  35.362  14.795  12.884
57824W        W29440  37.454  28.047  12.938
57825W        W29441   0.512  28.910   2.344
57826W        W29442  19.076  16.595  11.653
57827W        W29443  23.725  38.367   1.361
57828W        W29444  28.562  10.766  13.477
57829W        W29445   3.316   7.287   4.616
57830W        W29446  32.644   6.167  14.504
57831W        W29447   4.734  29.596   1.820
57832W        W29448   9.470   7.102  10.253
57833W        W29449  43.485   3.804   1.247
57834W        W29450  20.808   2.266   5.005
57835W        W29451  21.683   8.419   1.339
57836W        W29452   5.251   2.485  13.059
57837W        W29453  11.055  29.999   3.684
57838W        W29454  42.054  31.179   1.883
57839W        W29455  30.888  34.434  11.944
57840W        W29456   2.019  36.752   3.621
57841W        W29457  28.083  41.500  13.767
57842W        W29458  28.721  11.878   4.070
57843W        W29459   7.605  28.317  11.517
57844W        W29460  41.477  38.492  11.121
57845W        W29461   1.860   9.318   3.728
57846W        W29462  33.543   6.460  13.760
57847W        W29463   6.326  16.834  14.600
57848W        W29464  43.946  31.679  12.158
57849W        W29465  43.942  36.524  12.891
57850W        W29466  38.448  12.748  11.203
57851W        W29467  41.762  21.275   3.640
57852W        W29468  14.198  16.837   2.156
57853W        W29469  34.055   6.736   2.759
57854W        W29470   3.812  31.270  10.824
57855W        W29471  34.324  14.802   0.203
57856W        W29472  14.317  43.930  11.737
57857W        W29473   8.487  18.301   0.075
57858W        W29474  38.527  26.249   0.447
57859W        W29475  27.027   7.195   0.694
57860W        W29476   5.996  26.151   4.200
57861W        W29477   6.004  10.757  13.756
57862W        W29478  29.910  26.079   2.127
57863W        W29479  12.391   0.883  14.302
57864W        W29480  43.777  11.267  12.545
57865W        W29481  38.489   6.917  13.404
57866W        W29482  23.303   9.222  13.012
57867W        W29483  22.075  21.067   3.289
57868W        W29484  38.002  14.139   0.293
57869W        W29485  19.317   4.415  12.519
57870W        W29486  15.100  34.376  10.400
57871W        W29487  16.798  36.298   0.852
57872W        W29488  39.420  10.955  10.760
57873W        W29489   6.114  17.445   2.271
57874W        W29490  42.845  19.759  11.368
57875W        W29491  40.758  42.343  13.872
57876W        W29492  30.443   9.538  11.111
57877W        W29493  14.180   0.188  14.392
57878W        W29494  12.336  42.277   0.850
57879W        W29495   5.081   3.409   0.765
57880W        W29496  36.108  21.839   3.536
57881W        W29497  27.661   2.361  11.913
57882W        W29498  39.601   1.218  13.005
57883W        W29499  39.030  34.569  12.377
57884W        W29500  33.006   6.177   3.601
57885W        W29501  44.196  10.119   4.963
57886W        W29502  26.422  32.467   1.377
57887W        W29503  35.932  30.866  11.896
57888W        W29504  40.785  30.884  12.589
57889W        W29505  34.934  30.183  12.993
57890W        W29506  38.035   3.465   1.346
57891W        W29507  30.982  12.923  11.206
57892W        W29508   2.218  39.272  13.880
57893W        W29509  30.928  20.838   0.322
57894W        W29510  43.130  15.726  11.149
57895W        W29511  37.068   7.737  13.418
57896W        W29512  32.419   1.785   1.414
57897W        W29513  20.028  25.250   1.792
57898W        W29514   5.588  10.125  12.564
57899W        W29515   2.431  29.939   3.761
57900W        W29516   7.686  23.101  12.489
57901W        W29517  19.182  37.321   3.363
57902W        W29518  19.753   6.568  12.397
57903W        W29519  12.337   0.725  14.808
57904W        W29520  17.229  37.834   0.793
57905W        W29521   0.683  23.940   0.300
57906W        W29522  26.798  41.031  13.922
57907W        W29523   5.704  19.717   1.417
57908W        W29524   0.325   7.765  13.555
57909W        W29525   6.862  26.031   2.504
57910W        W29526  35.366  27.130  11.489
57911W        W29527  18.615  41.006  14.881
57912W        W29528  14.781  42.393   3.274
57913W        W29529  12.285  29.836   3.159
57914W        W29530  10.107  42.864  10.092
57915W        W29531  33.690  37.337   3.788
57916W        W29532  12.383  33.985  13.325
57917W        W29533  23.132  36.510   2.694
57918W        W29534  37.829   8.637  10.530
57919W        W29535  25.003   9.349  11.144
57920W        W29536  14.348  37.849  13.089
57921W        W29537   0.319  23.527   0.757
57922W        W29538   0.501  26.942   3.350
57923W        W29539  19.834  33.943   3.253
57924W        W29540  16.582   2.193   2.294
57925W        W29541  12.217  20.825  14.324
57926W        W29542  16.679  29.904  12.902
57927W        W29543   7.801  14.357   3.085
57928W        W29544  39.068  21.945  11.229
57929W        W29545  29.666   5.421   2.307
57930W        W29546  24.102  42.622   4.695
57931W        W29547  19.276  24.578  10.680
57932W        W29548   4.779  35.076  14.423
57933W        W29549  25.521   9.058  13.398
57934W        W29550  39.000   5.970  14.255
57935W        W29551  12.128   5.891   0.752
57936W        W29552  42.933   1.307  14.292
57937W        W29553  37.048  24.945   0.606
57938W        W29554  29.792  10.527  12.799
57939W        W29555  37.961  40.483  12.953
57940W        W29556  12.143  26.019  10.748
57941W        W29557   7.645  28.153  12.136
57942W        W29558  43.994  24.998  13.515
57943W        W29559  33.252  27.627  12.100
57944W        W29560  22.698  31.916  11.197
57945W        W29561  11.772  14.689  13.315
57946W        W29562  18.668  27.101   4.232
57947W        W29563   1.422  34.961   1.541
57948W        W29564  33.081  22.649   0.429
57949W        W29565  40.373   9.846   0.622
57950W        W29566  31.955  10.276   2.701
57951W        W29567  17.725  41.295  10.690
57952W        W29568  33.199   9.592   1.299
57953W        W29569  31.151   3.036   2.271
57954W        W29570  14.018  23.994   1.677
57955W        W29571   7.035  19.675   1.181
57956W        W29572  41.540  18.175   0.355
57957W        W29573   1.283  41.971   4.271
57958W        W29574   3.698   8.180  13.748
57959W        W29575  18.500  19.518  12.152
57960W        W29576   6.418  43.246  13.770
57961W        W29577  31.671  23.623  13.409
57962W        W29578  29.011  36.530  14.696
57963W        W29579  44.350  37.565   3.258
57964W        W29580  12.420  23.484  12.576
57965W        W29581  22.332  37.439  10.661
57966W        W29582   9.440  32.290  14.454
57967W        W29583   9.525   9.925  12.393
57968W        W29584  15.237  18.915  14.888
57969W        W29585  12.238  20.587  12.085
57970W        W29586   4.692  39.557  13.846
57971W        W29587  36.461  36.152  11.604
57972W        W29588  30.834  11.587  11.280
57973W        W29589   5.440  33.134   2.724
57974W        W29590   4.246  19.707   3.275
57975W        W29591   9.444  42.461  12.857
57976W        W29592  26.695  35.074  11.063
57977W        W29593   2.814  12.209  11.167
57978W        W29594  43.320  44.916   0.746
57979W        W29595  32.938   8.678   0.385
57980W        W29596  39.994  33.592  14.392
57981W        W29597   0.927  26.745   3.637
57982W        W29598   9.903  21.980  14.786
57983W        W29599  32.886  19.265  12.159
57984W        W29600  20.120  14.183  14.179
57985W        W29601  42.389   0.441  13.043
57986W        W29602  29.711   0.895   4.103
57987W        W29603  28.210   5.760   1.458
57988W        W29604  14.782  22.008  10.649
57989W        W29605   5.591  14.187  11.728
57990W        W29606  44.283   1.241   2.399
57991W        W29607  30.013   7.954  11.158
57992W        W29608  31.226   1.841   2.009
57993W        W29609   2.983  33.947  11.043
57994W        W29610   1.186   1.346   2.108
57995W        W29611  22.190  43.015   1.432
57996W        W29612   0.396  16.239   0.788
57997W        W29613  35.852  15.116  12.366
57998W        W29614  12.767  33.181  11.557
57999W        W29615   1.850  37.056   0.069
58000W        W29616  43.423   0.317   2.412
58001W        W29617  18.764  42.383  13.825
58002W        W29618  37.904  33.902  12.946
58003W        W29619  24.393   4.333   1.812
58004W        W29620  36.310   4.392   1.160
58005W        W29621  39.498  18.684  14.885
58006W        W29622  35.571   6.768  11.882
58007W        W29623  19.671  39.371  11.913
58008W        W29624  23.279  42.142   4.194
58009W        W29625  32.110  11.075  13.508
58010W        W29626  22.021  25.002   1.554
58011W        W29627  21.016   6.403   3.189
58012W        W29628  43.395   2.723   4.535
58013W        W29629   9.268  30.171  13.112
58014W        W29630  41.361   1.357   0.880
58015W        W29631  34.129  40.435  13.916
58016W        W29632  37.554  43.449  13.940
58017W        W29633   7.875   8.429   4.271
58018W        W29634  41.003  25.464  12.896
58019W        W29635  39.094  17.307  13.772
58020W        W29636   5.321  10.701  14.335
58021W        W29637  39.276  22.163  14.811
58022W        W29638  33.547  27.471  13.384
58023W        W29639  36.049  38.274  13.782
58024W        W29640  12.827  35.536  10.580
58025W        W29641   0.061  11.068  10.973
58026W        W29642  42.853  35.806  12.896
58027W        W29643  22.897  39.660  13.313
58028W        W29644  15.989  15.786  10.662
58029W        W29645  10.133  15.658   4.230
58030W        W29646   6.428  15.609  11.996
58031W        W29647  31.741  11.650   4.059
58032W        W29648  23.683  41.690  13.955
58033W        W29649  22.438  36.930   2.234
58034W        W29650  34.020   0.357  14.955
58035W        W29651  16.563  33.050   1.781
58036W        W29652   9.838  20.957  10.670
58037W        W29653  34.560  39.842  11.652
58038W        W29654   7.469  42.144   0.212
58039W        W29655  42.101   4.506  12.878
58040W        W29656  42.282  29.008  14.884
58041W        W29657  43.987  38.803   5.452
58042W        W29658  42.103  25.755  10.723
58043W        W29659  16.333  33.394   2.152
58044W        W29660   0.958  35.611  14.952
58045W        W29661  38.488  27.459   3.099
58046W        W29662   3.479  20.652  10.478
58047W        W29663   0.063  13.255   2.320
58048W        W29664  41.331  21.445  14.630
58049W        W29665  14.313  34.251  10.323
58050W        W29666   8.117  15.593  14.480
58051W        W29667  31.056  42.733   4.258
58052W        W29668  21.478   1.854  10.643
58053W        W29669   3.868   9.784  13.824
58054W        W29670  32.660  22.231  13.030
58055W        W29671  23.904  24.658   1.834
58056W        W29672  11.285  13.368  13.400
58057W        W29673  14.510  36.043  13.365
58058W        W29674  14.641   1.319  13.881
58059W        W29675  23.203  27.652   4.529
58060W        W29676  15.226  22.017   2.751
58061W        W29677  23.923  32.615   3.156
58062W        W29678  27.189  30.255  13.832
58063W        W29679  33.691  42.953  13.908
58064W        W29680  21.705  26.900  12.788
58065W        W29681   2.446  37.838  13.991
58066W        W29682   9.275  15.765  12.863
58067W        W29683  32.414   8.303  11.085
58068W        W29684  42.035  16.955   3.707
58069W        W29685  18.493  25.489   0.445
58070W        W29686  20.698   5.008   4.653
58071W        W29687  24.056  40.389   3.885
58072W        W29688  34.344  20.040  14.911
58073W        W29689   8.439  26.653  14.375
58074W        W29690  36.027   5.346  12.830
58075W        W29691  41.602  30.536  11.653
58076W        W29692  25.744  37.512   2.208
58077W        W29693  37.177  40.869  14.436
58078W        W29694  42.024  27.662   4.135
58079W        W29695  10.154  30.010  12.898
58080W        W29696  23.163  28.688   0.206
58081W        W29697  34.647   0.036   1.669
58082W        W29698  42.875  42.235   2.582
58083W        W29699  11.703   8.428  10.711
58084W        W29700  27.596   3.306  14.801
58085W        W29701  14.924   1.878  11.568
58086W        W29702  18.092   4.369   4.593
58087W        W29703  12.798  30.577  11.559
58088W        W29704  26.548   0.551  11.603
58089W        W29705  39.277  42.903   4.445
58090W        W29706   9.581  13.933  12.101
58091W        W29707  10.310   0.065  11.942
58092W        W29708  21.734  24.698   4.668
58093W        W29709  25.132  16.268  14.769
58094W        W29710  24.948  28.976  14.404
58095W        W29711  31.852   8.305   0.304
58096W        W29712  16.034  12.682   3.172
58097W        W29713  31.333  18.222   1.794
58098W        W29714   8.107  41.540   3.088
58099W        W29715  12.085  16.240   2.094
58100W        W29716   1.339   9.834   4.110
58101W        W29717   7.832   1.017   3.634
58102W        W29718  21.755  19.720   5.014
58103W        W29719  22.420   8.343   1.922
58104W        W29720   2.249  33.831  14.912
58105W        W29721  31.153   9.013  10.850
58106W        W29722  25.662  32.308   2.876
58107W        W29723  37.814   5.729  14.496
58108W        W29724  44.300  24.154   4.430
58109W        W29725  18.025  39.019  13.559
58110W        W29726  43.176  19.498   5.150
58111W        W29727  28.219  26.812  10.824
58112W        W29728  43.238  21.805  10.554
58113W        W29729  39.079  20.736   2.878
58114W        W29730  16.208  17.626  13.526
58115W        W29731  13.875  18.405  13.894
58116W        W29732  12.045  37.171   4.238
58117W        W29733   4.181  36.526  13.067
58118W        W29734   1.201  17.803  11.546
58119W        W29735  21.737  44.377  11.573
58120W        W29736  36.733  38.287  14.934
58121W        W29737   8.401  28.554  14.986
58122W        W29738  12.129  28.878  12.894
58123W        W29739   5.877   9.417  11.532
58124W        W29740  20.593  26.507   2.160
58125W        W29741  38.924  34.666   1.861
58126W        W29742   2.636   1.720   1.349
58127W        W29743  27.630  22.082  14.989
58128W        W29744  15.540  22.530  13.522
58129W        W29745   4.716   0.976  12.553
58130W        W29746  31.528  28.029  12.649
58131W        W29747  38.958  31.874  14.855
58132W        W29748  18.928  41.971   0.779
58133W        W29749  41.331  24.996  11.314
58134W        W29750  43.963  35.821  14.857
58135W        W29751   8.526  28.221   1.397
58136W        W29752   1.755  26.204  11.044
58137W        W29753   3.035   5.599  14.873
58138W        W29754  18.163   2.827  10.773
58139W        W29755   7.985   9.125  13.331
58140W        W29756  36.828   7.282  13.283
58141W        W29757  25.385  36.754   1.760
58142W        W29758   3.433  17.073  14.028
58143W        W29759  30.917  19.638   1.769
58144W        W29760   1.658  33.545  10.697
58145W        W29761   3.461  34.366   4.224
58146W        W29762  36.198  39.558  13.616
58147W        W29763  16.124  36.199   3.224
58148W        W29764  21.003  33.874  12.507
58149W        W29765  38.489  18.635   3.354
58150W        W29766   5.757   9.205   0.158
58151W        W29767  16.174  44.845  11.999
58152W        W29768  34.942  36.307  14.819
58153W        W29769  13.805  22.012   4.589
58154W        W29770  39.928  36.840  13.269
58155W        W29771  27.507  17.083  12.475
58156W        W29772   7.413  42.395   2.208
58157W        W29773  24.212  24.473  11.465
58158W        W29774  10.683  29.979  13.457
58159W        W29775  12.206   8.586  10.727
58160W        W29776  23.539  44.877   1.706
58161W        W29777  28.461  42.037   4.077
58162W        W29778  42.390  16.578   1.399
58163W        W29779  11.236  20.944   1.869
58164W        W29780   5.942  28.077   0.493
58165W        W29781  43.401  27.521   1.783
58166W        W29782  41.203  30.163  13.472
58167W        W29783  13.755   8.281  12.126
58168W        W29784  40.063  27.641  12.551
58169W        W29785  44.914  24.062  10.342
58170W        W29786  28.721  34.782  11.119
58171W        W29787  15.445  35.862  12.910
58172W        W29788  42.424  12.323  13.007
58173W        W29789  36.937  39.448   0.038
58174W        W29790  38.910  23.563   4.601
58175W        W29791  44.000  11.567  13.493
58176W        W29792  37.394  26.378  13.620
58177W        W29793  32.849  43.183   3.293
58178W        W29794   7.507  10.303  13.249
58179W        W29795  41.297  11.282  11.626
58180W        W29796   1.183  30.934  14.001
58181W        W29797  31.216  15.578   4.589
58182W        W29798  42.082  11.661  14.450
58183W        W29799  19.205  11.108  12.077
58184W        W29800  36.315  30.296   3.398
58185W        W29801  24.977  44.435   4.270
58186W        W29802  42.463  37.835  11.559
58187W        W29803   6.225   2.488  12.837
58188W        W29804  10.900  39.833  11.351
58189W        W29805   6.131  33.013  11.110
58190W        W29806   1.902  42.284  13.959
58191W        W29807  33.589  10.550  12.072
58192W        W29808  26.720   8.440  14.001
58193W        W29809  16.742  14.098  10.439
58194W        W29810   8.631  17.562  10.903
58195W        W29811  17.662  34.920  14.454
58196W        W29812  12.086  39.807   1.703
58197W        W29813  24.447  36.568  13.980
58198W        W29814   9.638  41.000  10.370
58199W        W29815   3.848  20.560   1.363
58200W        W29816  36.768   5.235   2.920
58201W        W29817  12.859   0.293  11.030
58202W        W29818  32.140  15.741   2.325
58203W        W29819  42.966  34.646  10.027
58204W        W29820  35.833   7.808   3.642
58205W        W29821  32.037  38.106   4.086
58206W        W29822  23.159  40.499   0.459
58207W        W29823   9.707  25.452   4.705
58208W        W29824  15.341   5.816   1.380
58209W        W29825  25.506   0.218   4.837
58210W        W29826  21.597  44.205  12.903
58211W        W29827  11.222  18.613   0.816
58212W        W29828   5.866  38.611  11.620
58213W        W29829   3.457  22.464  14.450
58214W        W29830  11.734  28.038  12.171
58215W        W29831  17.655  31.235  13.565
58216W        W29832  35.145   0.851  12.463
58217W        W29833  32.109  21.811  14.423
58218W        W29834   3.749  23.817   1.014
58219W        W29835  43.465  28.902   3.130
58220W        W29836   3.494  11.336   4.736
58221W        W29837  38.822  30.556  12.940
58222W        W29838  18.311  32.171   2.432
58223W        W29839   5.319   7.189   3.673
58224W        W29840  18.596  20.273   1.775
58225W        W29841   3.812   6.701   4.608
58226W        W29842  10.418  33.192   0.883
58227W        W29843   1.544  14.766   2.706
58228W        W29844   5.356   4.881   0.884
58229W        W29845   6.896  44.720   4.139
58230W        W29846   8.719  22.834   3.558
58231W        W29847  36.104  41.961   1.275
58232W        W29848  21.625   9.571  12.600
58233W        W29849  37.929  23.565   0.120
58234W        W29850  29.873   1.434   2.293
58235W        W29851  38.947  31.936  12.583
58236W        W29852  33.019  20.176  12.099
58237W        W29853  36.097  41.960  12.069
58238W        W29854   9.689  42.597  11.590
58239W        W29855  14.217  30.982  14.149
58240W        W29856  31.476  12.448  11.449
58241W        W29857   7.897  25.403   2.714
58242W        W29858  38.403   6.738  14.607
58243W        W29859   7.929  26.605   1.270
58244W        W29860  21.010   6.324  13.636
58245W        W29861  31.145  24.731  10.495
58246W        W29862  44.043  35.175  13.050
58247W        W29863   2.262   9.430   2.785
58248W        W29864  10.055   2.661   0.796
58249W        W29865  14.768  32.028   0.094
58250W        W29866  37.409   8.112  13.511
58251W        W29867  32.106  16.511   1.456
58252W        W29868  37.054  13.260   3.335
58253W        W29869  31.623   8.848   4.779
58254W        W29870  41.280  40.315   4.369
58255W        W29871   3.632  34.464   3.686
58256W        W29872  35.560  24.637   3.600
58257W        W29873  12.114   5.206   4.289
58258W        W29874  43.536  29.812  14.312
58259W        W29875  15.819   3.855   0.025
58260W        W29876  38.055  12.777  10.263
58261W        W29877  34.455  40.175   0.913
58262W        W29878  44.773  31.072  11.275
58263W        W29879   8.226  31.492   3.721
58264W        W29880  40.453  32.386   0.216
58265W        W29881  14.317  25.116  11.723
58266W        W29882  11.285  25.593   3.343
58267W        W29883  39.017  28.958  14.908
58268W        W29884  20.772  16.644  12.622
58269W        W29885   2.671  25.033  12.426
58270W        W29886   1.198   0.015  11.984
58271W        W29887   2.780  24.780  14.860
58272W        W29888  27.843  12.120  13.951
58273W        W29889   1.683  16.776   3.796
58274W        W29890   2.607   6.949  11.547
58275W        W29891  17.786  19.503   4.206
58276W        W29892  12.282  17.159  13.811
58277W        W29893  10.188  25.146   2.293
58278W        W29894  34.161  39.498   0.028
58279W        W29895  33.338  32.607   4.420
58280W        W29896   4.239  42.497   4.583
58281W        W29897  24.279   1.947  14.096
58282W        W29898   7.761  36.553   1.744
58283W        W29899  28.287  26.665   9.779
58284W        W29900  23.077   3.373  11.715
58285W        W29901  14.730  32.025   2.794
58286W        W29902  17.109  31.514  13.716
58287W        W29903  29.177  38.839  10.744
58288W        W29904  43.355  29.505  12.445
58289W        W29905  16.491  43.781  12.563
58290W        W29906  13.173   3.249   0.330
58291W        W29907  13.897  43.503  11.488
58292W        W29908   7.722  12.703   2.648
58293W        W29909   4.529  37.866  10.979
58294W        W29910  21.759  10.585  12.042
58295W        W29911  16.264  17.877   0.835
58296W        W29912  43.749   8.800   2.327
58297W        W29913   0.713  33.031  12.879
58298W        W29914  40.155  17.593   2.178
58299W        W29915  17.852  35.074  14.915
58300W        W29916  16.220  26.519   4.995
58301W        W29917   0.778  41.509  11.972
58302W        W29918  26.419  28.494  14.821
58303W        W29919  29.589   2.312   0.640
58304W        W29920  34.859   5.154   3.630
58305W        W29921  27.685  27.590   4.942
58306W        W29922  17.097   6.626  14.254
58307W        W29923  25.320  31.660  10.381
58308W        W29924  25.326  16.047  13.214
58309W        W29925   2.984  39.983  11.986
58310W        W29926  43.831  30.534   2.734
58311W        W29927  16.747  30.102  10.932
58312W        W29928  40.911  26.475  10.145
58313W        W29929   6.878  24.183  12.196
58314W        W29930  10.243  26.195   4.385
58315W        W29931  37.941   0.342  14.040
58316W        W29932  15.284   8.842   4.170
58317W        W29933   8.170  14.341   4.751
58318W        W29934  13.242  21.258   4.089
58319W        W29935  41.063  11.627  13.497
58320W        W29936  14.290  26.803  11.102
58321W        W29937  44.248  24.251   3.901
58322W        W29938  43.943  13.039   4.223
58323W        W29939   4.786  30.609  13.622
58324W        W29940   5.002   3.051  12.008
58325W        W29941  20.262  34.632   4.299
58326W        W29942  36.548  30.070   4.800
58327W        W29943  38.471  31.956  10.027
58328W        W29944   7.356  20.507   4.551
58329W        W29945  39.542  26.689   1.869
58330W        W29946   3.661  12.674   0.073
58331W        W29947  44.304   9.232   4.560
58332W        W29948   9.269  17.771  13.451
58333W        W29949  27.216  28.597  10.987
58334W        W29950  39.466   2.882   0.227
58335W        W29951  27.159  25.083   4.605
58336W        W29952  18.754  26.734  13.913
58337W        W29953  41.500  25.234  12.097
58338W        W29954  23.065  19.204   4.047
58339W        W29955  39.578   4.449  12.451
58340W        W29956   4.355  27.068   2.327
58341W        W29957  31.125  38.658  13.988
58342W        W29958  27.184  37.932  11.717
58343W        W29959   1.894  23.254  11.463
58344W        W29960  41.664  21.102   1.017
58345W        W29961  28.422   4.946   4.211
58346W        W29962   2.843   0.624  13.365
58347W        W29963  22.717  35.377  12.860
58348W        W29964  30.977  17.285   3.229
58349W        W29965   5.845  17.937  13.416
58350W        W29966  14.313  12.016  14.495
58351W        W29967  22.548   7.280   0.231
58352W        W29968   5.599  41.331  14.565
58353W        W29969  41.314  28.085   3.757
58354W        W29970  32.549  13.793   0.254
58355W        W29971  39.612  15.592   3.653
58356W        W29972  35.995   2.289   1.358
58357W        W29973  41.917  10.146   3.154
58358W        W29974   4.987  28.596  11.649
58359W        W29975  38.288  30.857   2.737
58360W        W29976  14.764  41.530  10.489
58361W        W29977  23.250   7.487  13.852
58362W        W29978  30.048  34.500   2.595
58363W        W29979  35.855  11.676   5.015
58364W        W29980  34.132   4.001  13.946
58365W        W29981   3.280  11.091  11.483
58366W        W29982   4.511  26.609  13.776
58367W        W29983  31.645  10.261   3.174
58368W        W29984  42.876   8.783   4.389
58369W        W29985   5.620  26.488   2.883
58370W        W29986  42.559  31.952   0.564
58371W        W29987  40.062  27.343   3.323
58372W        W29988  35.832   6.821   2.873
58373W        W29989  11.291   2.691  14.480
58374W        W29990  37.031  41.291  13.502
58375W        W29991  15.219   8.155  12.005
58376W        W29992  39.920  43.607   2.633
58377W        W29993  33.282  22.686   2.430
58378W        W29994   2.682   3.841   3.843
58379W        W29995  41.571  42.942   1.445
58380W        W29996  23.812   1.292   0.556
58381W        W29997  23.041  21.276   4.217
58382W        W29998  16.895   4.274  14.278
58383W        W29999   1.976  26.161   0.876
58384W        W30000   1.323   4.240   1.474
58385W        W30001   8.809  38.050  11.908
58386W        W30002  13.079  22.089  14.862
58387W        W30003   2.743   4.641  12.370
58388W        W30004   2.464  27.589   1.433
58389W        W30005  36.085   1.466  11.425
58390W        W30006  11.165  26.371   4.080
58391W        W30007  25.820   7.868   0.709
58392W        W30008  20.608   2.339  14.274
58393W        W30009  30.210  27.001  10.297
58394W        W30010   2.949  28.467  12.541
58395W        W30011  15.575  14.393  11.996
58396W        W30012  17.190   1.271  11.891
58397W        W30013  32.885  24.288  11.890
58398W        W30014  31.569  37.535   2.338
58399W        W30015  43.814  13.005  13.451
58400W        W30016  18.273  41.467   3.899
58401W        W30017  28.094   5.624  13.399
58402W        W30018  38.977  29.173   3.112
58403W        W30019  11.193  33.966  12.465
58404W        W30020  23.686   5.781   0.470
58405W        W30021  16.623   9.863   1.455
58406W        W30022  15.849  44.964  12.416
58407W        W30023   5.770  43.496   4.451
58408W        W30024   4.992  24.141   4.555
58409W        W30025  36.220  12.817  14.778
58410W        W30026  44.140  26.515  13.522
58411W        W30027  31.855  16.258  11.222
58412W        W30028  12.991  38.970  13.540
58413W        W30029  17.192  38.736  12.977
58414W        W30030   8.401   5.341   2.751
58415W        W30031  35.108  35.293  14.895
58416W        W30032  22.510  17.422  11.433
58417W        W30033   3.505  17.082  14.560
58418W        W30034   9.255  33.340   1.774
58419W        W30035  23.050   3.291  12.425
58420W        W30036   9.298  17.200  14.554
58421W        W30037  12.896  42.281   3.235
58422W        W30038   8.348  12.689   0.737
58423W        W30039   0.663  28.860  11.283
58424W        W30040  42.538  11.838  13.942
58425W        W30041  43.274  28.200   0.520
58426W        W30042  40.355  22.449   0.835
58427W        W30043   8.624  39.577   4.369
58428W        W30044   8.683  39.873   0.936
58429W        W30045  24.211  20.751   0.386
58430W        W30046  36.350  31.133  14.979
58431W        W30047  20.360  28.573   0.464
58432W        W30048  31.403  25.042  12.372
58433W        W30049  20.078  40.781  11.970
58434W        W30050  40.322  41.831   3.233
58435W        W30051   7.230  32.030  12.840
58436W        W30052  16.585  42.300  14.457
58437W        W30053  11.225  42.402   2.445
58438W        W30054  40.868  16.035  11.105
58439W        W30055  34.630   0.990  12.288
58440W        W30056  14.198  26.105   4.577
58441W        W30057  15.827  13.747  14.556
58442W        W30058  14.126  44.554   4.157
58443W        W30059  10.594   0.451   0.339
58444W        W30060  15.040  28.168  12.127
58445W        W30061  12.767   2.338   0.247
58446W        W30062  17.706  33.943  12.453
58447W        W30063  24.298  35.914   1.378
58448W        W30064  39.903   7.222   4.638
58449W        W30065  16.984  24.728  14.945
58450W        W30066  27.385   0.519  11.181
58451W        W30067  40.549  27.127   2.142
58452W        W30068  12.693  28.856  13.695
58453W        W30069  18.094  31.548   0.917
58454W        W30070  42.849  23.245   4.609
58455W        W30071  29.955  27.635   0.348
58456W        W30072  13.736  39.424   3.745
58457W        W30073   2.415  38.780  13.998
58458W        W30074  19.191  27.942   4.484
58459W        W30075  39.553  17.046  13.554
58460W        W30076   5.931  43.395  12.534
58461W        W30077   0.717  18.640   0.285
58462W        W30078   1.996  14.727  12.117
58463W        W30079  35.826  33.049   1.675
58464W        W30080  12.279   7.819   1.153
58465W        W30081  23.530  26.456   1.703
58466W        W30082  37.102  18.527   3.643
58467W        W30083  11.782  18.095   0.342
58468W        W30084  35.111  43.890  11.419
58469W        W30085  20.399   0.767   4.244
58470W        W30086  38.665  30.181   0.356
58471W        W30087   4.265   2.739   0.798
58472W        W30088   0.331  41.067   1.437
58473W        W30089   5.808   7.314   2.337
58474W        W30090  27.193  12.349   4.514
58475W        W30091  28.249  32.150  11.429
58476W        W30092  16.259   7.727  11.795
58477W        W30093  12.629   4.892   1.399
58478W        W30094  31.420  17.759  11.998
58479W        W30095  29.029  23.579   2.817
58480W        W30096  31.979   3.236   0.803
58481W        W30097  19.526  12.207   3.254
58482W        W30098  27.749  28.676   1.793
58483W        W30099  40.198  40.899  14.869
58484W        W30100  24.760  18.731  11.325
58485W        W30101   5.502  37.818  11.370
58486W        W30102  32.081  16.452  11.651
58487W        W30103  14.499  34.819  13.889
58488W        W30104  37.943   9.142   2.696
58489W        W30105  40.963  33.108  10.638
58490W        W30106  29.074  15.401  12.850
58491W        W30107  24.497  25.039  10.708
58492W        W30108  28.764  33.363  10.679
58493W        W30109  17.364   9.180  10.636
58494W        W30110  17.779   0.548   4.554
58495W        W30111  23.200  23.910  12.201
58496W        W30112   4.987   5.849   3.601
58497W        W30113  32.972  23.714   1.524
58498W        W30114  16.104  14.396   0.315
58499W        W30115  21.511  24.901  12.022
58500W        W30116  20.633   8.654  10.742
58501W        W30117  32.445  18.781   4.775
58502W        W30118  44.170  43.489   2.828
58503W        W30119  36.886  11.722  10.895
58504W        W30120   3.510   0.323  12.400
58505W        W30121  44.995  27.689  13.925
58506W        W30122  35.504  42.252   0.349
58507W        W30123  15.169   4.477   9.815
58508W        W30124  27.786  35.491   3.138
58509W        W30125  16.725  26.906  11.617
58510W        W30126   9.461  43.496   3.542
58511W        W30127   5.626  40.476  14.788
58512W        W30128  36.600  29.667  13.420
58513W        W30129  44.478  12.707  10.592
58514W        W30130  41.643  25.543  10.721
58515W        W30131   1.143  23.983   5.204
58516W        W30132  24.087  39.812   2.663
58517W        W30133  11.019  17.337   2.896
58518W        W30134  24.596   4.375   3.545
58519W        W30135  44.465  27.623   2.754
58520W        W30136  37.591  18.493   3.807
58521W        W30137  29.959  28.130   0.732
58522W        W30138  37.393  25.174  14.448
58523W        W30139  23.351  29.305   1.581
58524W        W30140  11.904  26.071  14.381
58525W        W30141   1.532  10.294  14.328
58526W        W30142   1.904  25.421  12.291
58527W        W30143  37.990  21.696   0.826
58528W        W30144  40.092  10.164  10.619
58529W        W30145  42.424  20.759   1.499
58530W        W30146   5.288  41.072   4.778
58531W        W30147  29.375  32.455   3.951
58532W        W30148  44.917  29.233  11.905
58533W        W30149  22.998  25.964   2.727
58534W        W30150  31.460  25.711  11.042
58535W        W30151  14.056  42.300  13.969
58536W        W30152  19.260   5.823  14.668
58537W        W30153   1.905  12.190   0.048
58538W        W30154   6.069   5.179  14.206
58539W        W30155  12.716   7.840  13.797
58540W        W30156  41.129   1.665  14.402
58541W        W30157  33.385  43.849   9.853
58542W        W30158   6.830  10.382  12.904
58543W        W30159  28.474  42.912   3.812
58544W        W30160  41.920  26.026   2.022
58545W        W30161   5.849   3.988  13.084
58546W        W30162  41.396  42.016  11.295
58547W        W30163  16.541  18.045   4.241
58548W        W30164  25.601   9.864  10.667
58549W        W30165  32.698  16.993   2.030
58550W        W30166   8.136  12.787   0.251
58551W        W30167  29.464  10.260  11.576
58552W        W30168  36.114  22.087   4.007
58553W        W30169  11.805   5.992  10.884
58554W        W30170   4.954  24.414   0.411
58555W        W30171  22.598  19.226   5.089
58556W        W30172  31.674   2.200  14.331
58557W        W30173  32.983  44.888  11.766
58558W        W30174  12.349   8.637  11.993
58559W        W30175  14.810   7.420  11.634
58560W        W30176  15.140  24.020  11.211
58561W        W30177   9.119  43.265   3.180
58562W        W30178  29.980  44.017   1.096
58563W        W30179  32.680  37.877  12.032
58564W        W30180  34.054  10.332  14.319
58565W        W30181  34.075  25.215   3.329
58566W        W30182  15.117  30.190  14.453
58567W        W30183  26.523  22.044  12.488
58568W        W30184  13.916  12.577  12.870
58569W        W30185  43.805  35.038  13.537
58570W        W30186  34.641   4.023  13.929
58571W        W30187  31.789  42.373  10.705
58572W        W30188  33.950  43.575  12.679
58573W        W30189  26.584  15.209   3.893
58574W        W30190  44.892  28.727  14.283
58575W        W30191  35.947  40.305   4.605
58576W        W30192  18.758  23.448   2.268
58577W        W30193  19.733  21.820  14.279
58578W        W30194  29.729  23.131  14.310
58579W        W30195  20.483  16.690  13.087
58580W        W30196   7.996  26.456  14.217
58581W        W30197  11.180  36.940  14.782
58582W        W30198   3.865  42.375   0.804
58583W        W30199  11.201  19.238  14.898
58584W        W30200  21.609  20.205  12.181
58585W        W30201  23.518   4.677   1.736
58586W        W30202   6.900  18.026  10.668
58587W        W30203   0.611   9.847   0.914
58588W        W30204  29.605  35.336  14.598
58589W        W30205   4.916  17.177  11.137
58590W        W30206  19.791  29.563   0.310
58591W        W30207  16.968  31.216   0.290
58592W        W30208   3.897  44.390   4.925
58593W        W30209  12.734  22.025   3.810
58594W        W30210  29.004  39.427  12.773
58595W        W30211  31.019  13.638   2.865
58596W        W30212  15.627  17.794   1.493
58597W        W30213  34.474  43.038   0.922
58598W        W30214  16.530  38.269   0.331
58599W        W30215   9.579   2.026  13.080
58600W        W30216  11.224   5.806  12.107
58601W        W30217  40.438  26.299   9.956
58602W        W30218  11.846  30.992   0.505
58603W        W30219  42.473   8.109   3.751
58604W        W30220  17.713  17.734   5.219
58605W        W30221  25.590  24.473  13.775
58606W        W30222  36.079   8.975   1.227
58607W        W30223  32.923  27.712  11.219
58608W        W30224   2.211  37.372  12.479
58609W        W30225   6.099   0.347   0.937
58610W        W30226  27.227  25.109  13.829
58611W        W30227  18.001  35.206   4.072
58612W        W30228   3.862  23.481  12.906
58613W        W30229  38.177  20.429   2.685
58614W        W30230  14.113  43.458   2.788
58615W        W30231  35.909   1.933  13.884
58616W        W30232  17.151  36.187   2.846
58617W        W30233  20.725  37.551   2.227
58618W        W30234  40.281  30.996  12.503
58619W        W30235  12.741  42.351  12.663
58620W        W30236  26.984  16.867   0.443
58621W        W30237  15.218  13.514  13.995
58622W        W30238  18.095  14.776  10.638
58623W        W30239  18.283  37.492  10.786
58624W        W30240   9.323  36.322  10.601
58625W        W30241  13.673  40.381   3.670
58626W        W30242  42.777  36.315  13.012
58627W        W30243   2.227  28.693  14.844
58628W        W30244   9.916   3.432   3.899
58629W        W30245  12.943   9.253  14.543
58630W        W30246  30.059  31.101  11.300
58631W        W30247  14.394  21.994  14.997
58632W        W30248   9.345   4.846   2.918
58633W        W30249   7.681  29.475   0.581
58634W        W30250   1.307  17.434  12.913
58635W        W30251  44.371  22.738   0.007
58636W        W30252  17.299  18.158   1.950
58637W        W30253   3.211  28.472   0.002
58638W        W30254  22.627  10.709   4.146
58639W        W30255   7.729  25.044  13.656
58640W        W30256  31.612  18.810   4.283
58641W        W30257  11.736  18.762   0.956
58642W        W30258   6.708   8.811   5.100
58643W        W30259  18.162  14.790  12.915
58644W        W30260  40.113  22.491  11.568
58645W        W30261   1.696   1.756  11.035
58646W        W30262  43.946  12.707   4.621
58647W        W30263  27.414  11.542  11.922
58648W        W30264  28.446  44.103   0.393
58649W        W30265  38.974   6.114   0.581
58650W        W30266  20.128  41.450  12.300
58651W        W30267  44.886   8.126   0.962
58652W        W30268  31.183  29.393   4.573
58653W        W30269   9.807  28.530   4.544
58654W        W30270  44.364  26.696   1.658
58655W        W30271  31.111  33.981  12.057
58656W        W30272  32.344  15.656  12.020
58657W        W30273  37.685  10.005  12.397
58658W        W30274  14.718  39.221   3.704
58659W        W30275  21.908  23.988   0.068
58660W        W30276  23.091  32.642   0.906
58661W        W30277  35.319   0.919   2.186
58662W        W30278   1.284  32.790  14.753
58663W        W30279  30.844  17.284  11.172
58664W        W30280  41.999  36.227  14.067
58665W        W30281  40.836  23.999   4.591
58666W        W30282  24.917  19.158  11.042
58667W        W30283  16.631  18.602   1.365
58668W        W30284  40.187  35.738  11.494
58669W        W30285  12.772  39.029   0.304
58670W        W30286   0.968  43.357  13.398
58671W        W30287  43.871  42.980  13.023
58672W        W30288  14.202  33.684   3.737
58673W        W30289  44.441  20.156  12.090
58674W        W30290  38.519  25.774  10.690
58675W        W30291  30.584  26.240  11.654
58676W        W30292  32.677   7.716  14.687
58677W        W30293  20.214  35.673  13.799
58678W        W30294   2.109   2.006  10.181
58679W        W30295  37.519  44.448   1.850
58680W        W30296  14.197  31.621   0.279
58681W        W30297   2.436  12.102  14.106
58682W        W30298  17.855  11.491   0.314
58683W        W30299  32.686  10.768  10.659
58684W        W30300  25.680  35.011  10.993
58685W        W30301  40.981  31.476   3.810
58686W        W30302   5.173   8.156  14.281
58687W        W30303   9.318  24.944   4.898
58688W        W30304  27.629  16.766  13.840
58689W        W30305  37.058  18.898  11.519
58690W        W30306  32.846  38.191   2.216
58691W        W30307   4.726  18.105  11.488
58692W        W30308  22.216  14.785   0.718
58693W        W30309  32.109  19.663   4.993
58694W        W30310  29.459  36.378  14.373
58695W        W30311   9.087  32.196   2.254
58696W        W30312   9.345  34.167   1.197
58697W        W30313  15.478  37.165   4.692
58698W        W30314   1.276   3.463  14.432
58699W        W30315  41.138   1.932   3.421
58700W        W30316  34.133  14.006   4.261
58701W        W30317  33.930  19.199  12.088
58702W        W30318  31.764  14.548  14.762
58703W        W30319   5.008  18.577  12.473
58704W        W30320  39.697   9.110  11.417
58705W        W30321  39.744   0.932   2.808
58706W        W30322   5.017  37.967  10.681
58707W        W30323   0.620  20.057   2.273
58708W        W30324  28.711  23.944  14.255
58709W        W30325  37.326   7.556  14.405
58710W        W30326  41.828  32.482   1.335
58711W        W30327  15.311  22.001  10.659
58712W        W30328  30.488   7.879  13.446
58713W        W30329  31.227  43.253  12.398
58714W        W30330  18.675  23.246   1.788
58715W        W30331  25.156  32.849  13.871
58716W        W30332  21.271  36.755  14.849
58717W        W30333  15.340  19.738   4.643
58718W        W30334  11.501   7.855  12.375
58719W        W30335   2.399  12.630  13.474
58720W        W30336  25.757  20.264   0.797
58721W        W30337   4.835   0.488  12.413
58722W        W30338  33.471  17.837   3.310
58723W        W30339  35.385   2.911  11.096
58724W        W30340   1.722  44.451  11.553
58725W        W30341  32.202  29.754  11.092
58726W        W30342  15.317  39.308   3.234
58727W        W30343  35.780  11.762  13.472
58728W        W30344  17.201  36.543  14.211
58729W        W30345  42.883   1.879   0.276
58730W        W30346   2.085  37.152  13.363
58731W        W30347  37.866  13.580   5.581
58732W        W30348   1.196  15.371  10.368
58733W        W30349   8.155  32.654  12.102
58734W        W30350  12.549   1.515  12.444
58735W        W30351  38.788  18.704   1.125
58736W        W30352  19.285   4.500   1.042
58737W        W30353  25.140  40.007   2.258
58738W        W30354   2.817  38.941   1.472
58739W        W30355  23.958  42.976   5.051
58740W        W30356  38.695  41.380  14.948
58741W        W30357  33.392  17.185   4.122
58742W        W30358   2.781   7.943  11.107
58743W        W30359  15.323  18.616   1.194
58744W        W30360  20.822  16.119  14.027
58745W        W30361  15.439  44.528  11.433
58746W        W30362  22.971  18.659  11.199
58747W        W30363  44.078  42.629   2.058
58748W        W30364  33.961  30.032   4.090
58749W        W30365  26.249  19.838  13.069
58750W        W30366  17.506  26.525   4.491
58751W        W30367  20.012  11.174  11.505
58752W        W30368   0.067  23.194  10.690
58753W        W30369  33.466   0.849  14.559
58754W        W30370  30.894  28.173   1.432
58755W        W30371  12.554  38.067  10.998
58756W        W30372  22.602  12.104   1.368
58757W        W30373  14.098  23.476   4.272
58758W        W30374  20.705   6.278  12.991
58759W        W30375  26.460   0.195  13.436
58760W        W30376  13.062  27.778   3.709
58761W        W30377  40.463  33.509   0.762
58762W        W30378  24.421  24.456  14.908
58763W        W30379  37.645  35.333   2.892
58764W        W30380  21.437  11.366  11.580
58765W        W30381  35.114  26.006  10.651
58766W        W30382   4.636  29.036   2.688
58767W        W30383  18.107  40.958   4.621
58768W        W30384   8.935  19.324   1.730
58769W        W30385  32.936  26.452  10.717
58770W        W30386  16.309  19.585   0.524
58771W        W30387  10.685  10.170  14.790
58772W        W30388   1.222  15.337   3.688
58773W        W30389  17.771  18.637   4.118
58774W        W30390   6.706  29.023   0.995
58775W        W30391   8.677  20.061  14.436
58776W        W30392  35.803  41.784   3.423
58777W        W30393  20.311   7.769   3.823
58778W        W30394  20.243  17.805  10.882
58779W        W30395  41.276  12.722   0.385
58780W        W30396  33.479  34.593  11.131
58781W        W30397  27.692  40.854  12.379
58782W        W30398  18.482  31.349  10.842
58783W        W30399  44.411  28.572   3.758
58784W        W30400  26.551  37.449  11.650
58785W        W30401  23.048   4.754   0.453
58786W        W30402  27.552   8.953  13.766
58787W        W30403  32.666  11.329  12.916
58788W        W30404  44.680   4.885   0.378
58789W        W30405  44.927  30.152  14.784
58790W        W30406  30.190  43.840   3.151
58791W        W30407   7.738   8.475  14.026
58792W        W30408  10.778   6.536  12.991
58793W        W30409  13.802  25.791   3.810
58794W        W30410  36.842  32.789  12.838
58795W        W30411  33.002  33.515  13.563
58796W        W30412  22.258  36.038   2.786
58797W        W30413  19.170  26.425   3.146
58798W        W30414  22.025   4.203  13.370
58799W        W30415  20.584  27.172   0.015
58800W        W30416  26.010  17.198   2.151
58801W        W30417  16.107  41.364  11.142
58802W        W30418  15.854  15.914  12.185
58803W        W30419  31.451  39.048  11.077
58804W        W30420  28.983   4.625  14.565
58805W        W30421  35.045  27.076   2.597
58806W        W30422  24.732  32.972   2.314
58807W        W30423  14.300   2.865   2.666
58808W        W30424   9.955  12.849  11.133
58809W        W30425  11.229  15.896  14.028
58810W        W30426  43.796  31.856  14.786
58811W        W30427   2.340  37.156   3.438
58812W        W30428   2.992  18.272   4.584
58813W        W30429   4.291  25.694   4.352
58814W        W30430   8.969  35.084  10.757
58815W        W30431  26.672   9.092   2.923
58816W        W30432   6.582  42.476  13.538
58817W        W30433  33.317   5.299  13.980
58818W        W30434  41.723  19.323   0.031
58819W        W30435   1.840  18.827  11.164
58820W        W30436  10.854  27.191   3.673
58821W        W30437  16.945  36.120   1.313
58822W        W30438  42.789  22.910  10.554
58823W        W30439  39.399  43.342   4.713
58824W        W30440   7.062  20.039   2.797
58825W        W30441  14.345  43.565  12.153
58826W        W30442   3.440   4.418  12.857
58827W        W30443  13.559  39.910   1.837
58828W        W30444  22.976  40.324   4.866
58829W        W30445  19.440  43.261  14.034
58830W        W30446  23.166  43.931  12.117
58831W        W30447   7.983  38.386   4.906
58832W        W30448  29.863  42.409  13.991
58833W        W30449   5.564  42.720  13.899
58834W        W30450  43.756  41.053  13.258
58835W        W30451  20.683   3.264  13.931
58836W        W30452  17.170  13.622   0.578
58837W        W30453  10.114   6.310   4.105
58838W        W30454  15.563  35.355   3.283
58839W        W30455  13.548  10.762   2.449
58840W        W30456  23.203  10.685   0.902
58841W        W30457  15.537  36.850   2.108
58842W        W30458  33.918   5.505  14.830
58843W        W30459  13.510  22.504  13.420
58844W        W30460   4.406   6.786   2.212
58845W        W30461  22.116  21.517  13.271
58846W        W30462  18.545  32.236   3.646
58847W        W30463   5.428  18.740  13.699
58848W        W30464  37.547  33.858  10.752
58849W        W30465  21.151  41.796  10.465
58850W        W30466   9.276  25.768  12.465
58851W        W30467   4.364  22.942   4.200
58852W        W30468  12.090  14.639   3.716
58853W        W30469  13.087  26.852   1.426
58854W        W30470  38.803  31.414   0.748
58855W        W30471  20.024  24.505  12.842
58856W        W30472  39.064  42.595   4.098
58857W        W30473  26.527  31.698  12.450
58858W        W30474  28.523  18.179  11.374
58859W        W30475  27.511  28.802   0.514
58860W        W30476  12.198  11.831   0.749
58861W        W30477  13.626  32.831   1.240
58862W        W30478  35.527  43.375   2.348
58863W        W30479  42.237  18.509   4.137
58864W        W30480   8.902  34.007  14.421
58865W        W30481  32.111  30.483  13.035
58866W        W30482  42.775   4.767  14.367
58867W        W30483  14.262  13.142   1.082
58868W        W30484  37.402   6.942   4.214
58869W        W30485  11.000  11.294   1.797
58870W        W30486  28.185  43.388   2.949
58871W        W30487  25.142  40.293   2.710
58872W        W30488  23.914  21.009   4.051
58873W        W30489  13.554  39.355   0.669
58874W        W30490  37.808   1.198  11.237
58875W        W30491  17.282   4.798   5.128
58876W        W30492  39.292  11.843   0.256
58877W        W30493  21.557   9.407   4.225
58878W        W30494  26.617  43.032  11.606
58879W        W30495  23.197   3.971   2.449
58880W        W30496  35.107  14.127   0.759
58881W        W30497  29.938  34.127   0.380
58882W        W30498   9.246  23.301  10.803
58883W        W30499  34.237  16.560  11.067
58884W        W30500  30.381  24.978  10.626
58885W        W30501  25.315  34.473  12.410
58886W        W30502  24.074  35.649  12.840
58887W        W30503   7.250   4.825  14.416
58888W        W30504  14.049  42.257  12.912
58889W        W30505  11.624  31.790  14.836
58890W        W30506   7.193  19.014   3.692
58891W        W30507   3.022  35.337   4.502
58892W        W30508  33.410  41.526  10.134
58893W        W30509   8.370  32.958   4.134
58894W        W30510  10.225   5.364   4.125
58895W        W30511   0.265  29.917  14.485
58896W        W30512  18.482  42.712   1.798
58897W        W30513   3.620   5.138   1.855
58898W        W30514  12.116  31.578  12.600
58899W        W30515  16.488   1.796   5.092
58900W        W30516  26.783   5.680   3.303
58901W        W30517  26.763  30.512  13.355
58902W        W30518  36.236  33.070   2.040
58903W        W30519  31.023  11.743  10.789
58904W        W30520  44.967  22.729   3.859
58905W        W30521   6.858  26.173   3.796
58906W        W30522  24.513  37.910   3.782
58907W        W30523  32.808  34.548  14.495
58908W        W30524  39.572   7.494  12.078
58909W        W30525  20.101  37.893  14.580
58910W        W30526  18.482  17.684  14.810
58911W        W30527  18.016  22.641  12.502
58912W        W30528  43.045  38.602  12.074
58913W        W30529  27.602  33.719   4.518
58914W        W30530   3.887  31.636   3.186
58915W        W30531   7.200  42.530   3.058
58916W        W30532  17.485  27.570   4.525
58917W        W30533  11.704  19.492   3.184
58918W        W30534   6.866  33.008   1.146
58919W        W30535  20.291   1.850   5.001
58920W        W30536  37.906  14.181  11.440
58921W        W30537  23.034  40.373  12.430
58922W        W30538  21.543  44.280   0.737
58923W        W30539  43.257  23.265   3.123
58924W        W30540  36.170  43.198   3.430
58925W        W30541  25.151   9.857   1.755
58926W        W30542  33.517  34.662  13.450
58927W        W30543  22.051   7.129   0.427
58928W        W30544  36.333  11.065  10.709
58929W        W30545  25.992   8.688   0.965
58930W        W30546  11.201  21.502   4.656
58931W        W30547  24.209  23.534  14.489
58932W        W30548  19.764  20.097  13.291
58933W        W30549   4.293  37.397   2.242
58934W        W30550  25.530  25.157  10.636
58935W        W30551  34.810  38.696   0.851
58936W        W30552  13.515  25.837  10.857
58937W        W30553  12.474  19.860  11.542
58938W        W30554  16.100   9.056   5.133
58939W        W30555  28.188  12.364   0.415
58940W        W30556  28.441  26.459  12.251
58941W        W30557  19.846  43.585  14.120
58942W        W30558  27.888  38.476  14.375
58943W        W30559  12.475  40.046  14.027
58944W        W30560   0.190  29.962   3.252
58945W        W30561  21.507  32.591   0.936
58946W        W30562  33.852  41.807  13.977
58947W        W30563  42.270  20.130   1.762
58948W        W30564  19.944  44.305  10.093
58949W        W30565  20.452  37.105   2.274
58950W        W30566  33.991  28.912   0.238
58951W        W30567  30.664  18.814   0.791
58952W        W30568  44.056  33.075   3.275
58953W        W30569  18.990  25.998  10.670
58954W        W30570  41.326  42.995   4.616
58955W        W30571  39.672  29.420   1.663
58956W        W30572   8.744  38.305   4.303
58957W        W30573  34.027  20.498   3.113
58958W        W30574  24.328   7.037  10.495
58959W        W30575  13.704  21.601   4.151
58960W        W30576  27.628  23.262   3.843
58961W        W30577   1.436   5.830   4.317
58962W        W30578  36.403  44.788   2.144
58963W        W30579   1.684   5.185  14.782
58964W        W30580  19.184  40.192  11.553
58965W        W30581  42.406  39.300  12.428
58966W        W30582  26.683  35.893   3.470
58967W        W30583   6.870  14.662  10.721
58968W        W30584  20.450  37.428   3.783
58969W        W30585  14.427   6.430  13.564
58970W        W30586  11.658   6.220   2.830
58971W        W30587   9.881  28.763  11.150
58972W        W30588   5.655  36.090   0.733
58973W        W30589  29.645   5.943   4.382
58974W        W30590  37.349  16.378  14.503
58975W        W30591  21.888  17.108  10.356
58976W        W30592  38.943   1.500   2.255
58977W        W30593  11.613  26.237   0.753
58978W        W30594   4.956  23.649  13.163
58979W        W30595  10.447  44.477  11.434
58980W        W30596  33.329   1.808   4.069
58981W        W30597  20.337  35.941  11.152
58982W        W30598   1.731   4.342   4.512
58983W        W30599  34.625  35.036  11.640
58984W        W30600  19.634  33.214   1.021
58985W        W30601  12.233  11.747  13.402
58986W        W30602  24.795  43.114  11.150
58987W        W30603  19.258  22.049  12.376
58988W        W30604  14.972  35.079   0.175
58989W        W30605  26.636  24.490  14.063
58990W        W30606  38.000   5.536  13.261
58991W        W30607   5.579  44.426   4.878
58992W        W30608   3.859   5.625  11.617
58993W        W30609   2.583  44.912  10.631
58994W        W30610  10.854   2.896   3.254
58995W        W30611  26.589  36.029   1.469
58996W        W30612   1.507   7.164   3.768
58997W        W30613  35.479  33.126  13.524
58998W        W30614  29.463  15.303   1.275
58999W        W30615  14.655  37.396  12.062
59000W        W30616  13.197  41.809  14.252
59001W        W30617  11.736  42.651   1.301
59002W        W30618   0.479  33.604   4.576
59003W        W30619  38.463  40.332   1.700
59004W        W30620   7.797  22.392  13.050
59005W        W30621  40.738  14.585  11.998
59006W        W30622   8.796  29.578  10.799
59007W        W30623  28.602   0.653  13.140
59008W        W30624  17.157  34.307   2.180
59009W        W30625   4.840  42.314  13.496
59010W        W30626  14.252  15.867  10.029
59011W        W30627  35.123  12.203   4.238
59012W        W30628   7.298  23.224   2.237
59013W        W30629   1.893   8.518   1.742
59014W        W30630  16.355   3.319  11.356
59015W        W30631   9.661  44.809   0.887
59016W        W30632  15.032  14.172  14.440
59017W        W30633  21.722  29.685  14.887
59018W        W30634  44.338  29.444   3.295
59019W        W30635  18.761  19.101  13.522
59020W        W30636  40.037  12.834  11.109
59021W        W30637  26.290  38.881  12.886
59022W        W30638  16.049  12.956   2.281
59023W        W30639  10.326  26.570  14.334
59024W        W30640  42.251  36.899   5.302
59025W        W30641  23.662   7.763  14.957
59026W        W30642  29.191  22.600  14.945
59027W        W30643  17.329  10.809   0.369
59028W        W30644  31.436   8.866   3.745
59029W        W30645  35.815  42.056  11.161
59030W        W30646  33.023   5.229   5.004
59031W        W30647  34.617   3.852   1.375
59032W        W30648  16.722  23.436   4.137
59033W        W30649  30.895  39.277   1.381
59034W        W30650  30.931  26.851  14.075
59035W        W30651  17.723  15.122  10.592
59036W        W30652  12.394  12.699  13.070
59037W        W30653  38.405  43.896   0.706
59038W        W30654  11.201  31.931   1.769
59039W        W30655   8.910  38.618   4.682
59040W        W30656  19.082  31.448   2.287
59041W        W30657  20.581  24.546  10.771
59042W        W30658  17.724   5.951   0.797
59043W        W30659  15.809   7.585  11.535
59044W        W30660  24.633   8.404  14.795
59045W        W30661  33.962   8.435   3.128
59046W        W30662  31.185  43.388   2.203
59047W        W30663  18.784  30.918   9.823
59048W        W30664  37.487  33.329   2.786
59049W        W30665   0.014   1.823  13.543
59050W        W30666   5.740   9.773   3.344
59051W        W30667  33.324   4.817   4.979
59052W        W30668  27.911  39.756   0.790
59053W        W30669  23.731   4.601  14.711
59054W        W30670   2.417  19.175  14.309
59055W        W30671   9.762   0.535  11.149
59056W        W30672   1.434  23.347   2.712
59057W        W30673   1.477  27.223   1.225
59058W        W30674  43.483  25.391  14.373
59059W        W30675  24.345  44.963  10.853
59060W        W30676  21.754  24.653   3.238
59061W        W30677   1.749   4.868  11.380
59062W        W30678  32.624   3.422   2.427
59063W        W30679   9.434  40.845   3.303
59064W        W30680  36.383  11.430  11.573
59065W        W30681  15.358  18.510  13.822
59066W        W30682  32.292  30.305  11.123
59067W        W30683  18.116  29.965  13.425
59068W        W30684  18.607  43.058  12.043
59069W        W30685  35.802  36.010   0.294
59070W        W30686  21.218  14.832  13.645
59071W        W30687   5.179  41.377   4.249
59072W        W30688  24.253  40.887   4.346
59073W        W30689  36.137   5.844  12.660
59074W        W30690  18.142  40.576  12.019
59075W        W30691  17.536  24.022  12.961
59076W        W30692  13.673  24.995  11.430
59077W        W30693  10.219  20.242  11.505
59078W        W30694  28.104   3.909   3.735
59079W        W30695  20.336  31.150  12.957
59080W        W30696  12.840  16.805   3.283
59081W        W30697  28.896  44.338   4.810
59082W        W30698  33.640  21.030  11.614
59083W        W30699  17.553  38.059  12.454
59084W        W30700  18.732  10.546   4.911
59085W        W30701  39.243  18.300  11.887
59086W        W30702  24.105  13.497  13.371
59087W        W30703  18.518  16.643  12.355
59088W        W30704  28.562  22.233  10.536
59089W        W30705  14.348  17.685   1.301
59090W        W30706  13.872  16.015  10.438
59091W        W30707  30.136  36.587   3.058
59092W        W30708  32.153   6.272   2.702
59093W        W30709   7.675  25.682  11.563
59094W        W30710   9.289   1.470  11.183
59095W        W30711  11.596  22.195  12.632
59096W        W30712  38.032  13.612  11.818
59097W        W30713   8.070  21.797  13.838
59098W        W30714  43.802  42.498   3.943
59099W        W30715  41.928  20.989  10.728
59100W        W30716  29.451  36.313  14.879
59101W        W30717  38.518  20.614  14.610
59102W        W30718  41.450  36.057  13.369
59103W        W30719  16.867  12.784   0.407
59104W        W30720  13.057   2.929   1.812
59105W        W30721  37.220  29.913   2.799
59106W        W30722  14.325   2.921  13.023
59107W        W30723  39.139  41.877   0.776
59108W        W30724   9.209  22.199  13.121
59109W        W30725  29.975   7.859  14.944
59110W        W30726  24.640  19.155  14.623
59111W        W30727  24.792  28.057   2.266
59112W        W30728   0.493  44.209  11.127
59113W        W30729  39.394  14.138   0.134
59114W        W30730  35.992  27.503   2.266
59115W        W30731  38.237  10.713   1.799
59116W        W30732  36.404  22.666   0.962
59117W        W30733  34.826   0.292  11.525
59118W        W30734  22.150  34.955   0.926
59119W        W30735  28.622  19.176   3.676
59120W        W30736  15.669  29.466  13.947
59121W        W30737   4.466  38.545  12.433
59122W        W30738  36.415  30.328  11.165
59123W        W30739  34.913  23.890   2.714
59124W        W30740   6.253   8.928  12.559
59125W        W30741  23.177   8.227   1.381
59126W        W30742   2.467  40.179   4.762
59127W        W30743   1.564  22.319   0.322
59128W        W30744   6.810  10.984  10.777
59129W        W30745   0.652  21.604  12.025
59130W        W30746  36.610  16.027  10.419
59131W        W30747  10.438  44.874   1.844
59132W        W30748  24.547  20.591   4.504
59133W        W30749  43.320  28.683  12.115
59134W        W30750  21.736  12.828  11.141
59135W        W30751  41.556  19.066   4.318
59136W        W30752   4.224   6.394   4.691
59137W        W30753   3.204  14.762  12.314
59138W        W30754  21.010  18.970  13.962
59139W        W30755   2.946  27.561  11.635
59140W        W30756  43.402  14.050   5.212
59141W        W30757  21.676  16.197   0.630
59142W        W30758   5.215  11.868   4.749
59143W        W30759  24.497  42.406   1.133
59144W        W30760   6.212  20.756   1.525
59145W        W30761  19.783  10.700  11.445
59146W        W30762   3.192  32.946  14.562
59147W        W30763   7.882   1.411   4.494
59148W        W30764  32.556  42.997   5.231
59149W        W30765  27.041  28.674  13.853
59150W        W30766  10.657  21.579  14.906
59151W        W30767  11.350  32.401   1.971
59152W        W30768  19.193  30.599   1.702
59153W        W30769  14.051   9.781  13.424
59154W        W30770  16.509   4.324   0.776
59155W        W30771  14.214  22.678  12.049
59156W        W30772  15.090   1.225   2.770
59157W        W30773  14.234   8.863  14.367
59158W        W30774  13.425  37.293  14.885
59159W        W30775  16.868  28.006  12.437
59160W        W30776   4.376  37.867   0.286
59161W        W30777  16.000   1.429   3.825
59162W        W30778  31.045  37.515   0.749
59163W        W30779  35.879  13.749   3.928
59164W        W30780  25.642   5.125  12.513
59165W        W30781  39.908  27.204   2.840
59166W        W30782   8.386  44.795   4.196
59167W        W30783  41.719  12.030  14.313
59168W        W30784  21.209   4.918   4.918
59169W        W30785  29.977  38.018  14.469
59170W        W30786   1.039  37.828  10.379
59171W        W30787  35.512  21.502  11.045
59172W        W30788   1.440   2.685  11.101
59173W        W30789  38.029  28.092   1.910
59174W        W30790  15.307  38.909  10.726
59175W        W30791  16.008  33.174  13.098
59176W        W30792   9.341  38.471  11.640
59177W        W30793  35.174  30.727   1.828
59178W        W30794  42.892  41.841  13.297
59179W        W30795  24.061  30.390   1.942
59180W        W30796  42.193  33.386   0.939
59181W        W30797  30.143   8.766   1.760
59182W        W30798  27.592  24.729   1.687
59183W        W30799  32.393  10.955  13.953
59184W        W30800  18.364  44.815  14.269
59185W        W30801  34.545   3.180   3.371
59186W        W30802  18.821  29.180  11.850
59187W        W30803   1.355  44.304  14.383
59188W        W30804  28.604   5.316  13.526
59189W        W30805  12.395  44.750   1.751
59190W        W30806  17.419  19.205  10.466
59191W        W30807  25.136  13.624  14.782
59192W        W30808  30.547  10.647   1.054
59193W        W30809   0.522  36.120  14.298
59194W        W30810  24.875  37.585   3.591
59195W        W30811  21.205  30.515  10.067
59196W        W30812   1.446  33.980  10.921
59197W        W30813   6.125  32.486  13.165
59198W        W30814  42.305  23.471   3.151
59199W        W30815  15.444  28.752   3.777
59200W        W30816  26.892   8.329   2.791
59201W        W30817   7.776  34.356  11.377
59202W        W30818  15.504  26.230   1.293
59203W        W30819   3.231  33.544   3.331
59204W        W30820  35.352  16.012  10.633
59205W        W30821  11.822   0.576  14.889
59206W        W30822  31.556   1.295   2.401
59207W        W30823  40.219  13.080  13.984
59208W        W30824  11.620   5.871  12.422
59209W        W30825  20.525  25.459   4.002
59210W        W30826   0.762  33.063   2.446
59211W        W30827  31.255  23.758   4.999
59212W        W30828   5.813   8.234   2.468
59213W        W30829  25.677  36.958   3.086
59214W        W30830  22.092  10.312   4.158
59215W        W30831  44.995   1.557  11.492
59216W        W30832  35.156  11.169  12.056
59217W        W30833  14.458  43.244   4.637
59218W        W30834  38.911  31.057   1.108
59219W        W30835  10.132   6.815  13.377
59220W        W30836  44.383  32.575   0.801
59221W        W30837  18.699  22.637  11.091
59222W        W30838  32.131   3.270  12.540
59223W        W30839  38.288  12.043   3.645
59224W        W30840  43.336  23.330   4.144
59225W        W30841  14.975  26.490  12.677
59226W        W30842  28.400  43.996   1.839
59227W        W30843  13.767   0.152  12.483
59228W        W30844  30.575  19.162   4.887
59229W        W30845  27.716  42.112  14.201
59230W        W30846  40.514  41.565  12.931
59231W        W30847  10.157  17.793   3.677
59232W        W30848  10.257   5.913  13.472
59233W        W30849  26.037  30.549   2.123
59234W        W30850  26.876  25.481   1.369
59235W        W30851  12.259  21.081   3.086
59236W        W30852   9.715   0.267   2.772
59237W        W30853  32.038  20.124   4.697
59238W        W30854  37.054  32.402   1.962
59239W        W30855  12.416  25.565   3.317
59240W        W30856  10.646  24.545  14.520
59241W        W30857  21.610  15.216   4.852
59242W        W30858  17.641   3.166  13.544
59243W        W30859  34.227  44.452   9.722
59244W        W30860  30.270  11.813   4.168
59245W        W30861  33.989  22.852   1.206
59246W        W30862  40.939  36.514  11.271
59247W        W30863  42.440  31.195   4.827
59248W        W30864  35.802  20.616  12.834
59249W        W30865  19.324  24.698  14.442
59250W        W30866  13.112  35.851  10.893
59251W        W30867   1.889  14.296   2.097
59252W        W30868  43.877  41.174  14.493
59253W        W30869  43.530  19.993   4.499
59254W        W30870  13.690  25.762  14.957
59255W        W30871  18.872  27.996  12.111
59256W        W30872   1.340  31.546  12.474
59257W        W30873  17.980   7.287   4.031
59258W        W30874  17.065  31.499   1.670
59259W        W30875   2.249   2.040  11.579
59260W        W30876  35.487  31.205   0.391
59261W        W30877  20.598  44.014   2.178
59262W        W30878  36.455   8.149   4.994
59263W        W30879   2.601   9.302  12.071
59264W        W30880  23.395  40.782   2.364
59265W        W30881  32.543   0.340  13.939
59266W        W30882  31.292  41.900   2.209
59267W        W30883  41.740  43.946   3.726
59268W        W30884  33.454   8.619   1.838
59269W        W30885  38.413  42.671   3.522
59270W        W30886  13.998   8.981  10.779
59271W        W30887  40.798  21.912   1.327
59272W        W30888   2.064   9.584  13.054
59273W        W30889  15.719  34.541  14.240
59274W        W30890  33.159  37.582   4.586
59275W        W30891  20.570   0.258  11.921
59276W        W30892   7.828  15.393   1.813
59277W        W30893  12.553   7.532   4.482
59278W        W30894  40.389  17.902  11.997
59279W        W30895  21.808  32.475   2.852
59280W        W30896  24.522  34.551  10.710
59281W        W30897   1.244  27.542   2.583
59282W        W30898   2.003  33.601  12.093
59283W        W30899  26.221   4.951   3.703
59284W        W30900  14.691  29.476   4.557
59285W        W30901  23.074  12.022  13.475
59286W        W30902  37.613  16.801  14.421
59287W        W30903  32.916  18.835  12.498
59288W        W30904  21.041  35.111   0.853
59289W        W30905  18.173  32.935  12.992
59290W        W30906   5.779  35.059   3.225
59291W        W30907  10.660   7.374   1.249
59292W        W30908  26.476  24.157   4.510
59293W        W30909  20.338  44.733  12.761
59294W        W30910  29.056  15.087  10.934
59295W        W30911   1.795  20.608   4.692
59296W        W30912  25.756   3.734   3.729
59297W        W30913   2.063  32.476   0.872
59298W        W30914  35.989   8.176  10.920
59299W        W30915  31.955  15.937   2.775
59300W        W30916  40.825   9.838   1.831
59301W        W30917  24.049   2.151   3.249
59302W        W30918  10.705   9.976   3.355
59303W        W30919  23.940  40.893  12.893
59304W        W30920  17.139  36.979  12.202
59305W        W30921  14.792  24.362  13.797
59306W        W30922  40.346  19.319  14.227
59307W        W30923  24.552   1.479  13.403
59308W        W30924  43.719   5.062   4.004
59309W        W30925  37.930   9.705   1.290
59310W        W30926   5.837  33.618  12.576
59311W        W30927  21.509  21.786   4.550
59312W        W30928  17.069  37.593   3.667
59313W        W30929   4.427   9.517   0.446
59314W        W30930  36.858   6.461  10.669
59315W        W30931  41.838   1.379   3.175
59316W        W30932  10.446  30.201   2.549
59317W        W30933  13.131  18.516   1.957
59318W        W30934  23.988  28.974   3.357
59319W        W30935  22.266  43.853  10.427
59320W        W30936  15.854   9.450   4.838
59321W        W30937  35.659  36.799   0.441
59322W        W30938  44.941  33.020  11.813
59323W        W30939   3.772  28.020  13.636
59324W        W30940  44.777   4.704   4.653
59325W        W30941  40.860  15.526  11.135
59326W        W30942   4.174   0.145   1.487
59327W        W30943  37.919   2.315  14.854
59328W        W30944  24.717  33.342   4.727
59329W        W30945  14.250  24.466  13.630
59330W        W30946  22.567  29.678  11.674
59331W        W30947  20.402  12.685  14.594
59332W        W30948  33.711  14.172  10.732
59333W        W30949  41.081  26.472   3.628
59334W        W30950  21.090  25.587  14.574
59335W        W30951  33.530  14.184  14.014
59336W        W30952   3.948   7.160   0.874
59337W        W30953  32.641  31.061   0.281
59338W        W30954  19.088  36.341  11.193
59339W        W30955  27.867  32.990   0.189
59340W        W30956   3.083  15.150  13.464
59341W        W30957   3.770   0.287   3.839
59342W        W30958  13.805   4.321  14.083
59343W        W30959  37.535  43.968   1.206
59344W        W30960  11.664  26.194  14.838
59345W        W30961  44.746  21.703   1.078
59346W        W30962  15.963  43.048  13.899
59347W        W30963  26.022  10.426   2.962
59348W        W30964  29.135  39.767  10.469
59349W        W30965  41.289  15.248  11.122
59350W        W30966   6.095  44.314   4.923
59351W        W30967  43.039  27.495  11.615
59352W        W30968  18.869  21.812  14.351
59353W        W30969  21.206  33.386  12.482
59354W        W30970  25.862  27.149   0.004
59355W        W30971  29.713  27.802   3.715
59356W        W30972  31.865  21.394  11.336
59357W        W30973  28.133  34.142   0.116
59358W        W30974  25.143  11.459  11.083
59359W        W30975   8.622  18.730   3.784
59360W        W30976  12.859  16.756  13.950
59361W        W30977  42.338  25.037  12.259
59362W        W30978  13.351  15.521   0.141
59363W        W30979  23.702   8.340  13.314
59364W        W30980  22.778  15.393   2.669
59365W        W30981  13.704  17.160   2.341
59366W        W30982   6.588  27.041  11.291
59367W        W30983  16.122  33.896  14.884
59368W        W30984   7.663  36.067   0.908
59369W        W30985  11.146  39.373  10.913
59370W        W30986   9.240  26.693  11.545
59371W        W30987  39.706  25.557  13.783
59372W        W30988  32.131  41.564  13.051
59373W        W30989   2.920  31.542  11.662
59374W        W30990  44.870  25.627   3.273
59375W        W30991  23.943  22.676  10.049
59376W        W30992  13.225  40.234   4.817
59377W        W30993  39.793  44.843  11.502
59378W        W30994  22.347  36.815   3.659
59379W        W30995  31.550   5.457  14.373
59380W        W30996  38.091  25.430  14.957
59381W        W30997  35.813  37.474  11.544
59382W        W30998  19.520  40.028  14.384
59383W        W30999  34.882  20.711  12.373
59384W        W31000  21.016  32.156  11.287
59385W        W31001  30.569  10.237  10.865
59386W        W31002  33.349  22.212   0.281
59387W        W31003   0.448  14.246  10.971
59388W        W31004   7.366  30.941   3.389
59389W        W31005   3.709  42.709  11.575
59390W        W31006  35.002   7.683   4.280
59391W        W31007  36.934  11.066   2.185
59392W        W31008  17.163  15.503   4.791
59393W        W31009   9.883  21.722   0.854
59394W        W31010  19.110   0.250  14.799
59395W        W31011  16.641   0.438  10.464
59396W        W31012  20.801  19.598   4.287
59397W        W31013  39.157  28.525   1.760
59398W        W31014  33.201  37.561   2.770
59399W        W31015   5.101  28.332   3.161
59400W        W31016  33.609  23.064   3.818
59401W        W31017  17.431   1.799   1.719
59402W        W31018  27.426   0.606   1.680
59403W        W31019  15.616  13.704   4.178
59404W        W31020  11.680   3.021  14.521
59405W        W31021  15.728  13.084   1.904
59406W        W31022   6.803  32.996  11.997
59407W        W31023  27.728  12.213  11.119
59408W        W31024  22.748   2.409   1.933
59409W        W31025  38.321  11.336  11.549
59410W        W31026  37.295  31.101   3.866
59411W        W31027  42.517   9.902  14.847
59412W        W31028  18.110  29.685   2.723
59413W        W31029   8.282  19.150  10.954
59414W        W31030   8.346   9.204  12.296
59415W        W31031  32.161   7.256   3.366
59416W        W31032  42.842  13.582   3.320
59417W        W31033  17.836   7.325  14.584
59418W        W31034  42.227  38.280   5.119
59419W        W31035  26.706   5.957  13.563
59420W        W31036  14.020  42.023  12.450
59421W        W31037  20.792  14.159  13.548
59422W        W31038   0.744  25.844   2.592
59423W        W31039  40.800   5.694   0.961
59424W        W31040  27.468  30.649  13.132
59425W        W31041  39.132   4.996  11.276
59426W        W31042  19.823   4.815   0.260
59427W        W31043  20.043  30.207   4.115
59428W        W31044  17.844  44.706   5.023
59429W        W31045  18.169   9.576  14.316
59430W        W31046  18.077  17.797  12.157
59431W        W31047   5.771  23.133   1.837
59432W        W31048  36.599  42.016   3.755
59433W        W31049  11.038  38.224   3.170
59434W        W31050  42.273  28.160  11.534
59435W        W31051  42.550  35.938   0.901
59436W        W31052  21.325  32.308   2.730
59437W        W31053  17.523  20.965  12.084
59438W        W31054  15.281  31.771  10.161
59439W        W31055  23.348  21.886   1.282
59440W        W31056  39.450  11.193  14.432
59441W        W31057  21.054  38.888  11.056
59442W        W31058  35.599  25.771  11.534
59443W        W31059  33.321  40.238   0.254
59444W        W31060  17.159  17.127  12.135
59445W        W31061  34.248  42.826  10.863
59446W        W31062  35.178   9.527  12.761
59447W        W31063  31.939  18.504   1.232
59448W        W31064   4.204  32.645   2.752
59449W        W31065  26.220   8.849   2.943
59450W        W31066  14.701  18.727  12.657
59451W        W31067  27.626  38.840  11.642
59452W        W31068  24.486  22.205  12.019
59453W        W31069  25.979  36.479  11.636
59454W        W31070  33.431  42.957   4.044
59455W        W31071  10.184   6.685   4.549
59456W        W31072  19.785  26.886   4.718
59457W        W31073  30.933  21.833   3.281
59458W        W31074   9.824  23.285   2.199
59459W        W31075  43.790  21.104   2.814
59460W        W31076   7.231  37.450  12.638
59461W        W31077  32.836  16.146   4.839
59462W        W31078  14.207   9.884   4.181
59463W        W31079  13.600  16.741   0.824
59464W        W31080   0.301  16.932  12.632
59465W        W31081  21.819  39.406  12.544
59466W        W31082  43.456  13.814   0.281
59467W        W31083  38.115   4.015  11.071
59468W        W31084  29.426   5.416  11.971
59469W        W31085  16.533  42.033   0.800
59470W        W31086  18.891  39.812  11.368
59471W        W31087   7.071  15.352  12.332
59472W        W31088  14.461  26.028   2.782
59473W        W31089  19.760  19.123   0.541
59474W        W31090  28.005   8.679   2.460
59475W        W31091   1.723  41.841   4.058
59476W        W31092  39.648  42.884   1.299
59477W        W31093  31.469  30.198  14.318
59478W        W31094  43.556  31.104   0.389
59479W        W31095  17.232  20.026  10.511
59480W        W31096  20.102  43.241   1.856
59481W        W31097  42.072  21.067   1.754
59482W        W31098  27.112   6.899  11.532
59483W        W31099   3.285   5.253  13.808
59484W        W31100   8.242  42.472   1.986
59485W        W31101  16.643  22.148  13.797
59486W        W31102  22.888  11.688  14.817
59487W        W31103  22.261  10.683  14.206
59488W        W31104   3.472   0.790  11.564
59489W        W31105  13.172  30.126   0.054
59490W        W31106  17.528  36.027  11.126
59491W        W31107  12.334  19.586  10.833
59492W        W31108  34.942  30.633  14.857
59493W        W31109  42.871  20.002   3.952
59494W        W31110  34.206   6.244  13.056
59495W        W31111  30.387  10.267   3.733
59496W        W31112   4.846  44.251   4.697
59497W        W31113  22.271  36.969   4.603
59498W        W31114  29.206  26.907   3.898
59499W        W31115  31.621  24.049  13.093
59500W        W31116  12.116  34.054  12.414
59501W        W31117   9.017  26.520  13.371
59502W        W31118  43.992  18.289   4.774
59503W        W31119  26.012  22.347  11.135
59504W        W31120  41.455   3.912   2.045
59505W        W31121   4.804  16.726  11.416
59506W        W31122   8.751  12.865   1.029
59507W        W31123  29.668   3.872  11.942
59508W        W31124  10.271  40.570  12.342
59509W        W31125  20.334  40.488  12.404
59510W        W31126  17.233  31.833  12.078
59511W        W31127  31.022  28.125   0.929
59512W        W31128   4.179   6.947  14.401
59513W        W31129  10.308  29.057   3.797
59514W        W31130  17.206  25.673  10.646
59515W        W31131  12.172   9.275   1.969
59516W        W31132  24.120  10.151  12.064
59517W        W31133   8.227  11.794  11.650
59518W        W31134   6.917   6.901  12.682
59519W        W31135   5.863   2.711   2.614
59520W        W31136  27.772   6.682  13.021
59521W        W31137  28.289  40.418  12.762
59522W        W31138  13.688   5.351   3.919
59523W        W31139  33.640  29.132   4.572
59524W        W31140  34.445  23.854   3.678
59525W        W31141  42.437  19.857  11.679
59526W        W31142  27.451  38.357   3.401
59527W        W31143   1.173   1.363  10.825
59528W        W31144  33.528   6.683   2.124
59529W        W31145  11.613  24.949  12.947
59530W        W31146  34.641   9.183   4.229
59531W        W31147  39.580   7.425   4.133
59532W        W31148  17.997   2.565   1.783
59533W        W31149  37.947  37.035  14.523
59534W        W31150  14.589  22.577   1.212
59535W        W31151  29.991   2.605  11.140
59536W        W31152  36.475   3.478   1.570
59537W        W31153   3.919  24.326   9.739
59538W        W31154   4.481  29.804  14.391
59539W        W31155  20.533  33.879  11.107
59540W        W31156  27.626  43.131   1.761
59541W        W31157  41.031  10.311   2.626
59542W        W31158  32.462  40.286   4.212
59543W        W31159  31.158  32.801  12.871
59544W        W31160  21.168  24.260  10.811
59545W        W31161  34.509  40.411  12.013
59546W        W31162   5.852  11.085   1.314
59547W        W31163  34.790  33.082   2.097
59548W        W31164  26.341  14.046  10.297
59549W        W31165  39.759  17.285   1.030
59550W        W31166   8.963   1.032  12.921
59551W        W31167  20.070  41.995   2.318
59552W        W31168   7.829  36.586  14.042
59553W        W31169  39.723  15.690   3.138
59554W        W31170  18.593  41.027   3.807
59555W        W31171  40.326   3.533   1.000
59556W        W31172  23.943  13.269   2.728
59557W        W31173  26.926  37.493  14.843
59558W        W31174  15.292  25.094   3.169
59559W        W31175  14.148  40.533   1.417
59560W        W31176  33.085  31.622   4.190
59561W        W31177  24.468   0.993   0.901
59562W        W31178   1.023  27.492   1.359
59563W        W31179  35.344  39.996   0.814
59564W        W31180  43.638  30.501  13.845
59565W        W31181  38.592   7.447  10.618
59566W        W31182  13.241  20.928   2.216
59567W        W31183  31.245  40.250  13.038
59568W        W31184  14.035  30.227   3.845
59569W        W31185  30.910   9.947  11.933
59570W        W31186   4.116  23.932  11.999
59571W        W31187  42.532   1.950  11.466
59572W        W31188  17.730  22.216  12.443
59573W        W31189  18.400   0.730  14.080
59574W        W31190   0.981  27.816  13.977
59575W        W31191   9.794   3.799  14.584
59576W        W31192   6.115  11.875   2.653
59577W        W31193  35.525  16.901  11.587
59578W        W31194  38.908  26.473   0.876
59579W        W31195  20.211  28.465  14.511
59580W        W31196  20.533  13.871  14.294
59581W        W31197  10.295  22.101   3.648
59582W        W31198  24.469  15.532  11.207
59583W        W31199  22.545  32.636   0.879
59584W        W31200  18.666  22.452  13.445
59585W        W31201  39.961   2.646   3.262
59586W        W31202  22.556  16.219   3.258
59587W        W31203  13.219  43.502   0.409
59588W        W31204  13.201  20.540  11.910
59589W        W31205   7.700   5.431   3.333
59590W        W31206   9.770  20.547   4.123
59591W        W31207   7.396  17.604   1.936
59592W        W31208  25.134  26.137   3.509
59593W        W31209   1.449   9.343   3.246
59594W        W31210  26.525  34.262   0.447
59595W        W31211  27.991  34.533   4.480
59596W        W31212  30.236  31.504   3.151
59597W        W31213  11.143  17.283  12.304
59598W        W31214   4.139  36.136   4.333
59599W        W31215  33.796  24.063  14.475
59600W        W31216  21.021   6.888   4.469
59601W        W31217  16.736   3.413   4.297
59602W        W31218  20.071  44.942   0.233
59603W        W31219  29.151  38.338  10.550
59604W        W31220  31.173  14.852   4.238
59605W        W31221  11.581   8.127  11.107
59606W        W31222   6.905  16.658   1.293
59607W        W31223  39.487   4.275   1.808
59608W        W31224  14.796  21.774  14.763
59609W        W31225  14.105  41.265   4.471
59610W        W31226  21.148  31.231  14.409
59611W        W31227  22.707  29.129   3.672
59612W        W31228  20.517  36.569  14.737
59613W        W31229  25.196   0.969  11.592
59614W        W31230  19.800  25.952  11.971
59615W        W31231  24.454  23.177  14.927
59616W        W31232  34.985   3.151   3.621
59617W        W31233  28.264  40.999   2.166
59618W        W31234  31.507   3.773   2.603
59619W        W31235  33.445  35.909   0.714
59620W        W31236   6.895  40.471   2.634
59621W        W31237  29.549   8.714  12.653
59622W        W31238  13.291  34.449  11.101
59623W        W31239  20.612  40.477  13.981
59624W        W31240  30.521   0.057  13.492
59625W        W31241  11.104   7.237   3.807
59626W        W31242   8.997  18.259   0.021
59627W        W31243  23.774   2.833   2.751
59628W        W31244  15.195   5.176   3.204
59629W        W31245  23.753  39.450   0.288
59630W        W31246   2.630   0.455  12.939
59631W        W31247  13.685  34.992   4.153
59632W        W31248  34.454  44.314   1.412
59633W        W31249  43.390  26.391   0.518
59634W        W31250  19.978  28.718   3.394
59635W        W31251  38.461   6.437  10.678
59636W        W31252  34.989  41.120  10.596
59637W        W31253   1.462   5.123   2.708
59638W        W31254  25.531   9.418   3.815
59639W        W31255  13.896  42.478  10.760
59640W        W31256  34.564   0.315   4.506
59641W        W31257  19.301  18.246  10.780
59642W        W31258  32.413   0.826  13.021
59643W        W31259  40.320  38.336   2.613
59644W        W31260  12.026   8.411   2.953
59645W        W31261   1.686  38.833  11.588
59646W        W31262  23.884  39.109  12.535
59647W        W31263  39.218  13.337   1.366
59648W        W31264  19.806  44.111   3.869
59649W        W31265  18.779  26.702   0.867
59650W        W31266  31.603  14.756   0.762
59651W        W31267   2.005   7.915   3.829
59652W        W31268  34.963  10.363   2.817
59653W        W31269   0.900  30.544   1.633
59654W        W31270   5.210   8.930  10.560
59655W        W31271  30.174  37.517   4.676
59656W        W31272  19.500  26.597  12.616
59657W        W31273   7.119   6.676   4.775
59658W        W31274   2.669  21.278   1.225
59659W        W31275  12.233   7.130  14.269
59660W        W31276  43.295  33.460   1.735
59661W        W31277  25.453   4.411   0.825
59662W        W31278  40.215  14.595   2.280
59663W        W31279  20.170   4.304  12.347
59664W        W31280  43.392  13.294  13.470
59665W        W31281   2.463  14.954  12.044
59666W        W31282  44.957  15.115  12.524
59667W        W31283  26.025  24.664  14.436
59668W        W31284  16.133  17.574  11.594
59669W        W31285  41.717  18.221  12.152
59670W        W31286  19.156  30.714  12.517
59671W        W31287  31.756   1.937  11.959
59672W        W31288  22.085  30.911   0.848
59673W        W31289  13.630  18.071   1.370
59674W        W31290  17.649  20.727  10.344
59675W        W31291  12.968  23.331  10.731
59676W        W31292  28.375   4.513  12.945
59677W        W31293  13.828  18.825   3.920
59678W        W31294  19.629   6.804   1.523
59679W        W31295  16.078   8.417   0.716
59680W        W31296  25.667  18.526   2.221
59681W        W31297  11.659  38.854   3.732
59682W        W31298   8.339  14.791  12.697
59683W        W31299   3.732  22.121   0.174
59684W        W31300  17.326  30.486  13.424
59685W        W31301   9.278  30.470   4.637
59686W        W31302  17.040  13.858  12.627
59687W        W31303  12.258  31.094   0.872
59688W        W31304  23.335  18.809  13.134
59689W        W31305   8.096  34.855   3.669
59690W        W31306  39.238  31.685   2.247
59691W        W31307   5.268   5.540  13.553
59692W        W31308  41.868  41.174  12.400
59693W        W31309   7.994  21.755  12.261
59694W        W31310  34.430  24.871   2.478
59695W        W31311  34.689  40.619   0.731
59696W        W31312  23.578  43.723  14.026
59697W        W31313   2.892   8.615  10.639
59698W        W31314  20.564  14.837  12.887
59699W        W31315  33.040  44.179   4.029
59700W        W31316   1.568   0.917   5.654
59701W        W31317  24.200  20.369   3.210
59702W        W31318  31.904  18.756  13.014
59703W        W31319  25.628  43.991   3.137
59704W        W31320  10.159  17.890   3.168
59705W        W31321   5.432   5.347   2.813
59706W        W31322   0.894  12.712   2.705
59707W        W31323  35.128   9.361   4.632
59708W        W31324  20.826   0.972  12.027
59709W        W31325  35.474  14.573   0.551
59710W        W31326  43.235  37.294   3.373
59711W        W31327  20.507  40.560  11.608
59712W        W31328  11.356  20.617  13.973
59713W        W31329   8.603  14.392   5.043
59714W        W31330  27.103  31.027   3.614
59715W        W31331  14.615  19.207  12.416
59716W        W31332  32.516  19.476  13.896
59717W        W31333  29.646  18.279  14.506
59718W        W31334  37.152  23.320  12.586
59719W        W31335   9.430  35.805   0.717
59720W        W31336  25.361  38.673   2.986
59721W        W31337  32.441  16.228   4.519
59722W        W31338  35.904  30.295  11.156
59723W        W31339  38.554   4.248   2.239
59724W        W31340  29.001   0.135  13.819
59725W        W31341  21.551   7.109  10.642
59726W        W31342  11.349  16.846  14.980
59727W        W31343  10.279  30.798  12.274
59728W        W31344  44.660   3.797   4.569
59729W        W31345  41.915  38.789  14.478
59730W        W31346  27.575   5.155   4.253
59731W        W31347  40.033  17.606   3.290
59732W        W31348   7.406  20.165  14.761
59733W        W31349  21.039  12.560   1.789
59734W        W31350  38.821  37.148   3.323
59735W        W31351   9.892  44.400  14.753
59736W        W31352  17.264  18.266  12.152
59737W        W31353  38.015  34.686   2.852
59738W        W31354   0.957   5.413   3.755
59739W        W31355   1.235  19.847   4.466
59740W        W31356  41.996  43.345   1.489
59741W        W31357   2.248  29.414  12.101
59742W        W31358  18.241  42.458  12.497
59743W        W31359  16.857   6.561   0.596
59744W        W31360  19.494  28.666   0.346
59745W        W31361  39.074  32.645  10.774
59746W        W31362  14.405  40.343   2.936
59747W        W31363  25.166  32.117  14.374
59748W        W31364  42.055  42.006  10.695
59749W        W31365  33.387  25.998  11.213
59750W        W31366   3.308  33.397  13.412
59751W        W31367   5.884   4.207  10.427
59752W        W31368   8.368  12.084   4.480
59753W        W31369  28.475   5.341   1.661
59754W        W31370  37.113  26.466   2.829
59755W        W31371  30.134   3.628  11.093
59756W        W31372  43.951  17.170   2.469
59757W        W31373   3.830  15.432  12.768
59758W        W31374  13.296   9.915   4.551
59759W        W31375  31.002  10.152  11.433
59760W        W31376   9.610  26.417   2.803
59761W        W31377   7.384  40.257   2.703
59762W        W31378  30.886  44.243   4.736
59763W        W31379  22.681  28.500   4.535
59764W        W31380  38.036  28.617  11.737
59765W        W31381  13.058  13.880  11.018
59766W        W31382  24.238  29.672  11.559
59767W        W31383  38.369  14.297   1.262
59768W        W31384   3.271  35.875   2.199
59769W        W31385   7.269  35.508  14.324
59770W        W31386   9.659  15.058  14.039
59771W        W31387  44.084  37.301  10.707
59772W        W31388  15.161  30.038   0.969
59773W        W31389  34.861  44.367  10.194
59774W        W31390  18.637  17.304   4.580
59775W        W31391  34.622  18.104   2.764
59776W        W31392   7.717  17.610  14.168
59777W        W31393  18.807   2.271   2.924
59778W        W31394  11.144   1.567   4.564
59779W        W31395  42.395  24.046   1.905
59780W        W31396  33.528  41.501  11.702
59781W        W31397  41.973  28.683  14.504
59782W        W31398  42.885   7.237  14.319
59783W        W31399  40.840  43.801  11.951
59784W        W31400  10.206  36.492   0.642
59785W        W31401  41.764  32.986  14.279
59786W        W31402   9.568  25.786  10.539
59787W        W31403  34.897  22.044   1.009
59788W        W31404  27.375  10.917   1.807
59789W        W31405  35.399  33.541   1.377
59790W        W31406  21.530   2.508   4.305
59791W        W31407  28.630  15.161  14.692
59792W        W31408  37.603  33.938  14.030
59793W        W31409   6.757   4.696  14.299
59794W        W31410  26.028  24.535   3.903
59795W        W31411  37.476   1.789  10.635
59796W        W31412  11.321  43.282  10.680
59797W        W31413   9.191   5.608   1.754
59798W        W31414  36.425  27.228   4.116
59799W        W31415  36.133   8.358   0.368
59800W        W31416   8.859  16.203  12.545
59801W        W31417  21.908  41.370  12.938
59802W        W31418  14.306  17.355  12.442
59803W        W31419  27.746   2.868  11.882
59804W        W31420   9.272  38.885  14.485
59805W        W31421  43.273   2.793  12.829
59806W        W31422  23.924   5.382  13.329
59807W        W31423  27.689  33.366  13.934
59808W        W31424  27.645   0.225  10.838
59809W        W31425  28.949  13.791   1.937
59810W        W31426  12.843  20.205  14.976
59811W        W31427  19.525  28.506  12.550
59812W        W31428  25.199  16.756  14.946
59813W        W31429   0.734  14.590   3.228
59814W        W31430  29.403  26.945   0.827
59815W        W31431  42.436   2.643   1.875
59816W        W31432  38.840  43.742  13.614
59817W        W31433  37.768  34.123   4.552
59818W        W31434  18.238  33.253   4.098
59819W        W31435  36.428  28.252   4.129
59820W        W31436  29.527  33.331   4.488
59821W        W31437  10.409  18.725   3.772
59822W        W31438  23.495  32.392   2.394
59823W        W31439  27.091  34.324   2.003
59824W        W31440  11.369  29.046   2.895
59825W        W31441  42.756   7.152  13.499
59826W        W31442  14.310   7.659   1.385
59827W        W31443  23.168  32.176  13.776
59828W        W31444  32.074  19.559   3.122
59829W        W31445  14.288  25.006   2.485
59830W        W31446   9.101  18.608   3.635
59831W        W31447   7.323  29.170  14.468
59832W        W31448   7.869  44.303  13.341
59833W        W31449  21.868  36.620   3.484
59834W        W31450   0.438  14.682   1.314
59835W        W31451   2.192  24.772   0.960
59836W        W31452  35.607   1.721   3.672
59837W        W31453  35.410  30.215  11.206
59838W        W31454  19.678  33.978  11.208
59839W        W31455  35.314  44.032   1.441
59840W        W31456  27.240   5.739   0.258
59841W        W31457   2.482  41.277   3.088
59842W        W31458  38.796  12.727  13.660
59843W        W31459   2.806   9.220   3.477
59844W        W31460  34.895  40.572  13.634
59845W        W31461  35.629  12.303   1.396
59846W        W31462  39.484   9.905  13.839
59847W        W31463  24.156  10.619  12.311
59848W        W31464   5.211   5.662   1.395
59849W        W31465  41.254  12.820   3.668
59850W        W31466  16.781  31.060   3.690
59851W        W31467   0.276   2.212  14.351
59852W        W31468  29.546  34.317   3.380
59853W        W31469   7.924  24.603  10.914
59854W        W31470   3.891  19.839   0.818
59855W        W31471  13.288  38.045  14.241
59856W        W31472  32.926  40.289  11.508
59857W        W31473  22.149  18.803   3.625
59858W        W31474  38.819   5.438  12.057
59859W        W31475  14.823  19.036   2.739
59860W        W31476  22.948  26.449  11.135
59861W        W31477  13.889   6.742   2.387
59862W        W31478  20.209  11.631   2.388
59863W        W31479  42.533  31.716  14.879
59864W        W31480  11.097  41.973  12.011
59865W        W31481  40.271  40.889   1.424
59866W        W31482  36.766  20.049  12.801
59867W        W31483  36.725  17.350  12.095
59868W        W31484  41.098   9.276  14.897
59869W        W31485  15.138  14.528   0.461
59870W        W31486  42.847  35.438  13.284
59871W        W31487  29.754  20.952  13.145
59872W        W31488  42.188  30.352  14.290
59873W        W31489  21.534  21.031  14.472
59874W        W31490   1.256  39.019  12.456
59875W        W31491  23.505  25.186  12.919
59876W        W31492   1.954   0.196  13.666
59877W        W31493   9.603  38.943  12.856
59878W        W31494  23.187   6.174  11.525
59879W        W31495   2.346  26.714   1.496
59880W        W31496  36.205  25.472   2.302
59881W        W31497  29.023  20.539   0.532
59882W        W31498   5.943  24.729  12.261
59883W        W31499  12.933   5.998  14.494
59884W        W31500  33.549  19.943  12.866
59885W        W31501  43.795   4.744   3.342
59886W        W31502   0.737  23.751   4.034
59887W        W31503  39.996  10.255   1.924
59888W        W31504   6.423  38.868  11.555
59889W        W31505  38.527  15.121  13.420
59890W        W31506  23.149   7.857  10.568
59891W        W31507  35.223   1.213  12.986
59892W        W31508  20.322  22.828  13.957
59893W        W31509  23.011   7.361  10.829
59894W        W31510  25.790  28.406   4.119
59895W        W31511  13.672   7.887   0.533
59896W        W31512  20.156  15.915   3.814
59897W        W31513  42.782  31.309  11.256
59898W        W31514  15.121   5.723  14.425
59899W        W31515  11.198   5.771   0.427
59900W        W31516  39.469  20.380   2.328
59901W        W31517  39.772  32.044  10.470
59902W        W31518  14.295   8.389   1.725
59903W        W31519  24.696  20.428  12.449
59904W        W31520  14.566  16.584   0.032
59905W        W31521  32.976   8.118  12.920
59906W        W31522  35.553   0.752  12.955
59907W        W31523  40.014   2.198  10.779
59908W        W31524   4.412  14.889  11.098
59909W        W31525  34.151  42.573  11.939
59910W        W31526  20.938   4.185  13.836
59911W        W31527  32.121  33.582  11.561
59912W        W31528  23.754  30.692  11.095
59913W        W31529  32.589  11.257  13.431
59914W        W31530  11.713   5.613   1.147
59915W        W31531  12.150   0.254  13.095
59916W        W31532   1.733  17.613   1.962
59917W        W31533  28.415  13.625   3.728
59918W        W31534  15.039  31.442  13.017
59919W        W31535  21.253  25.198   2.248
59920W        W31536  15.727  14.641  14.901
59921W        W31537  26.443  17.163  12.259
59922W        W31538  13.175   8.428   3.651
59923W        W31539  37.821  41.071  12.310
59924W        W31540  33.206  26.134   3.634
59925W        W31541  26.938  30.561   1.511
59926W        W31542  22.129  26.328   2.702
59927W        W31543  15.269   8.618   3.297
59928W        W31544  17.360  32.442  14.077
59929W        W31545  43.985  16.778   1.426
59930W        W31546  40.263  33.071   3.540
59931W        W31547  19.542  20.403   1.114
59932W        W31548  24.502  18.959  13.466
59933W        W31549   9.940  15.102  11.928
59934W        W31550  33.534  28.463   2.419
59935W        W31551  43.346  23.680  11.630
59936W        W31552   8.668  22.307   4.128
59937W        W31553  20.152  43.812   9.992
59938W        W31554  28.040  40.843  11.091
59939W        W31555   9.516  12.628   3.235
59940W        W31556   9.866   0.791   2.762
59941W        W31557  43.391  41.960   3.329
59942W        W31558   6.034   6.001   2.704
59943W        W31559  12.064  12.170  14.247
59944W        W31560  43.256  38.453  11.547
59945W        W31561  31.369  19.262   2.852
59946W        W31562  16.696  22.766   3.208
59947W        W31563  43.277  42.230   4.387
59948W        W31564  15.712  36.854  12.920
59949W        W31565  22.316  32.416  13.823
59950W        W31566  23.158  14.020   4.581
59951W        W31567  38.695  11.570  13.917
59952W        W31568  32.367  22.113   4.636
59953W        W31569  15.824  20.272  14.386
59954W        W31570  23.055   0.748   3.543
59955W        W31571  23.107   4.251   3.709
59956W        W31572   7.502   3.992  13.179
59957W        W31573  24.131  43.608  14.785
59958W        W31574  27.914  12.850  10.781
59959W        W31575  15.308  29.527   3.176
59960W        W31576  22.491   7.858   1.440
59961W        W31577  35.065  44.451  14.745
59962W        W31578   7.365   4.983   2.315
59963W        W31579  11.277  18.571   4.698
59964W        W31580  34.598  20.063   3.209
59965W        W31581  36.899  31.393   3.783
59966W        W31582  11.712  36.459  10.346
59967W        W31583  38.325   5.254  10.884
59968W        W31584  21.257  23.483   4.259
59969W        W31585   9.742  25.008  14.461
59970W        W31586  32.895  13.643  14.879
59971W        W31587  27.510   8.688   4.091
59972W        W31588  11.199  17.616  13.440
59973W        W31589  15.072  18.202  11.888
59974W        W31590  40.870   3.631  12.807
59975W        W31591  22.746  44.357   4.576
59976W        W31592  24.463  32.031  10.599
59977W        W31593  28.053  41.508  14.843
59978W        W31594  20.231  17.672   0.392
59979W        W31595  11.149  25.260  12.999
59980W        W31596  22.511  31.652   2.730
59981W        W31597  39.796  37.421   1.826
59982W        W31598  26.924  18.624  14.840
59983W        W31599  30.454   3.749   2.330
59984W        W31600   3.979  23.309  12.029
59985W        W31601  31.656  15.807  14.844
59986W        W31602  24.227  23.756  13.939
59987W        W31603  27.738  25.213  14.002
59988W        W31604   4.954  23.395   1.424
59989W        W31605   9.275  43.456   2.722
59990W        W31606  37.420  32.596  12.546
59991W        W31607  33.201  34.077   1.230
59992W        W31608  27.874  11.193   1.844
59993W        W31609  39.490  18.657   4.570
59994W        W31610  11.607  21.661  13.813
59995W        W31611  29.245  23.270  14.354
59996W        W31612  18.143   4.677   2.341
59997W        W31613  36.553  37.491  10.687
59998W        W31614  40.297   3.343  14.783
59999W        W31615   5.725  27.607  13.478
60000W        W31616   5.485  22.653   1.365
60001W        W31617   4.337   0.360  10.607
60002W        W31618   7.329  33.949  12.879
60003W        W31619  20.793  32.179  11.928
60004W        W31620  35.058  32.398   0.454
60005W        W31621  26.521  23.258   4.286
60006W        W31622  31.802  29.172  11.481
60007W        W31623  16.267  42.842   3.471
60008W        W31624  30.259  19.680   3.176
60009W        W31625  23.278   5.868  12.390
60010W        W31626  32.472  37.034   2.628
60011W        W31627  19.715   6.285   3.283
60012W        W31628  21.306  31.408  11.618
60013W        W31629  13.726  30.554  13.064
60014W        W31630  41.533  42.490   2.294
60015W        W31631  26.644   2.366  14.581
60016W        W31632   7.480  12.847   3.610
60017W        W31633  34.515   7.006  12.972
60018W        W31634   3.431  41.982   5.255
60019W        W31635  14.817  23.087   4.629
60020W        W31636  26.771  12.977   1.759
60021W        W31637  39.064  21.235  13.844
60022W        W31638  23.327  11.583  12.832
60023W        W31639  19.281   9.556  14.375
60024W        W31640  44.764  36.846   0.077
60025W        W31641   7.374  20.211   3.195
60026W        W31642  19.813  28.912  12.726
60027W        W31643  14.326  36.732  10.717
60028W        W31644   0.758   8.548  12.415
60029W        W31645  10.087  43.085   1.826
60030W        W31646   7.193   1.775   2.429
60031W        W31647  16.073   2.214   2.216
60032W        W31648  37.950   8.605   1.213
60033W        W31649  16.476  34.899   4.738
60034W        W31650  32.457   3.736  11.152
60035W        W31651   8.835  44.301   5.109
60036W        W31652   5.511  38.075   0.965
60037W        W31653  12.407  11.052   4.429
60038W        W31654  40.427   0.517   3.727
60039W        W31655  24.534  12.850  13.152
60040W        W31656  38.319   5.386  11.904
60041W        W31657  13.597  36.293   2.851
60042W        W31658  10.843   5.585  11.847
60043W        W31659   7.169  18.005   0.399
60044W        W31660  14.306   6.553   5.509
60045W        W31661   7.423  32.873   3.169
60046W        W31662  44.523  41.997  11.567
60047W        W31663  39.922  22.711  12.331
60048W        W31664  41.310  22.682  13.238
60049W        W31665  27.050  42.819  10.515
60050W        W31666   6.959  13.180  13.928
60051W        W31667  42.123   7.085   0.486
60052W        W31668  15.750  12.134  12.682
60053W        W31669  33.970   7.428  10.645
60054W        W31670  37.949   2.340   3.297
60055W        W31671  12.535  23.762  13.013
60056W        W31672  23.913   2.809  14.340
60057W        W31673  23.479  15.628  11.612
60058W        W31674  15.610   8.822   1.444
60059W        W31675  35.296  25.378   0.540
60060W        W31676  15.615   9.819   4.542
60061W        W31677  42.691  24.947   2.425
60062W        W31678  39.946  22.496   1.503
60063W        W31679  31.217  21.482   4.271
60064W        W31680  37.572  29.541  10.865
60065W        W31681  38.797  38.045  11.058
60066W        W31682  12.185  44.251   1.729
60067W        W31683  34.478   5.009  11.366
60068W        W31684  34.883  21.282   5.143
60069W        W31685  32.904  11.861   3.177
60070W        W31686   6.944  12.369  14.561
60071W        W31687  43.750  18.988   1.299
60072W        W31688  43.105   0.909  11.203
60073W        W31689   4.484  15.124   4.057
60074W        W31690  37.083  22.649  11.081
60075W        W31691  30.102  39.896  12.516
60076W        W31692  33.514  44.796  12.960
60077W        W31693  12.804   8.848  14.203
60078W        W31694   8.946  35.937  13.479
60079W        W31695   7.129  37.697   4.212
60080W        W31696   4.385  35.840   1.012
60081W        W31697  43.823   6.462   1.773
60082W        W31698  37.552  41.372  12.631
60083W        W31699  17.255  28.972   2.260
60084W        W31700  12.254  17.909   0.373
60085W        W31701  18.802  24.150   1.700
60086W        W31702  40.987  34.301  12.510
60087W        W31703  23.071  36.096   4.578
60088W        W31704  36.569  38.764  11.138
60089W        W31705   4.656  10.095   2.430
60090W        W31706  20.032  10.422  10.724
60091W        W31707  35.971  38.515  13.329
60092W        W31708  44.388  32.371  10.760
60093W        W31709  11.912  43.396   4.146
60094W        W31710   6.230   8.451   3.701
60095W        W31711  24.179  30.990  14.006
60096W        W31712  22.467  14.633  14.335
60097W        W31713   9.685  12.390  14.307
60098W        W31714  32.435  39.815  11.998
60099W        W31715   6.490   5.887  13.801
60100W        W31716  23.783  35.643   3.725
60101W        W31717  42.346  42.465  11.462
60102W        W31718  29.924  22.605   2.871
60103W        W31719  41.884   7.182  12.103
60104W        W31720  26.612  39.491   2.403
60105W        W31721  37.521   0.318   1.796
60106W        W31722  31.603  13.029  11.990
60107W        W31723  33.391  40.534  11.492
60108W        W31724  22.687  35.454   4.470
60109W        W31725  21.985   2.513   2.184
60110W        W31726  36.040  29.107   1.212
60111W        W31727  22.621  42.937  14.720
60112W        W31728  28.025  16.722  12.048
60113W        W31729  14.712  35.781  12.956
60114W        W31730   5.966   5.256  12.005
60115W        W31731  20.157  38.858   4.817
60116W        W31732  37.964   9.717  10.756
60117W        W31733  27.767  35.453   4.822
60118W        W31734  42.786  34.501  11.824
60119W        W31735  12.096  40.594  14.908
60120W        W31736  29.369  29.521   4.204
60121W        W31737  20.845  42.594   2.292
60122W        W31738  17.784   8.753  10.631
60123W        W31739  19.841  10.111   3.371
60124W        W31740   0.440   8.740  13.426
60125W        W31741  32.636  30.954   2.664
60126W        W31742  15.030  40.618   2.281
60127W        W31743  22.238  16.107   4.013
60128W        W31744  42.453   4.529   2.196
60129W        W31745  18.331  42.118  13.938
60130W        W31746  26.630  35.561  13.054
60131W        W31747  17.177  36.352  12.861
60132W        W31748  42.310   6.367  14.320
60133W        W31749  18.313  39.123  10.917
60134W        W31750  26.425  33.169  10.682
60135W        W31751  14.127   1.964   0.688
60136W        W31752  38.984  34.938  11.005
60137W        W31753  35.745  14.448  14.488
60138W        W31754  40.991  35.302  13.403
60139W        W31755  20.367  38.808   0.838
60140W        W31756  36.972   9.137   3.221
60141W        W31757  19.612  16.500  11.615
60142W        W31758  21.651  30.137  13.944
60143W        W31759  13.657  39.976   3.227
60144W        W31760  40.974   8.509  10.546
60145W        W31761  13.061  36.856  11.240
60146W        W31762   0.981  14.526  13.082
60147W        W31763  25.465   7.319  14.756
60148W        W31764  18.612   6.894  10.515
60149W        W31765  19.220  30.066   3.905
60150W        W31766  34.598  36.469  14.447
60151W        W31767   7.614  25.087   4.187
60152W        W31768   8.452  18.303   4.113
60153W        W31769  43.354   3.483   2.162
60154W        W31770  40.971   5.837   3.709
60155W        W31771  16.610   9.850   5.006
60156W        W31772  15.812  34.144  13.349
60157W        W31773  44.009  40.915  10.576
60158W        W31774  35.115  24.430   3.720
60159W        W31775  34.946  34.901   1.817
60160W        W31776  21.260  28.899   2.650
60161W        W31777  24.411  23.031   0.684
60162W        W31778  15.229  19.081   1.894
60163W        W31779  34.288   7.120  12.042
60164W        W31780  14.687  10.178  12.969
60165W        W31781  22.270  32.962  11.038
60166W        W31782  34.815  20.763   0.310
60167W        W31783  34.679   1.965   2.772
60168W        W31784  44.713  12.620   1.320
60169W        W31785  29.685   4.275   2.400
60170W        W31786  20.541  14.666   4.044
60171W        W31787  16.617   8.105   2.776
60172W        W31788  15.205   5.685  10.187
60173W        W31789  26.630  31.534   3.280
60174W        W31790   2.781  35.996   0.124
60175W        W31791  38.923  14.174   4.530
60176W        W31792  42.921   0.780  14.291
60177W        W31793   4.631  32.671   3.161
60178W        W31794  40.060   2.378  12.756
60179W        W31795  21.982  30.143   4.307
60180W        W31796  10.913   9.795   4.637
60181W        W31797   1.698  11.062  13.024
60182W        W31798  40.897  12.131   3.244
60183W        W31799   3.869   5.051   3.665
60184W        W31800  41.854  19.469   4.527
60185W        W31801  23.444  39.161  11.714
60186W        W31802  27.354   5.234  10.757
60187W        W31803   8.086  17.092  11.590
60188W        W31804  19.312  38.192   3.684
60189W        W31805  13.414  41.796   0.278
60190W        W31806  17.469   9.767  11.063
60191W        W31807   0.828  19.252  11.989
60192W        W31808  31.115   9.803   1.984
60193W        W31809  13.892  18.056   5.089
60194W        W31810  28.673  20.322  13.868
60195W        W31811  23.042  34.842  14.532
60196W        W31812  44.191  33.190   0.726
60197W        W31813  25.353   3.458  14.902
60198W        W31814   1.227  17.603   1.772
60199W        W31815  13.238  23.085   4.905
60200W        W31816  25.543   3.394  13.522
60201W        W31817  32.563  29.901  12.577
60202W        W31818   9.175  14.526  11.562
60203W        W31819  27.668  24.602   3.139
60204W        W31820  26.119  24.164   4.879
60205W        W31821  36.308   7.090  13.942
60206W        W31822  28.445  12.283   4.208
60207W        W31823   1.533  38.380   2.303
60208W        W31824  43.783  33.159  13.032
60209W        W31825   1.265   0.162  10.494
60210W        W31826  41.353   5.431   2.665
60211W        W31827  39.708  13.835   3.303
60212W        W31828   1.285  28.138   4.596
60213W        W31829   7.511  21.109   0.992
60214W        W31830  11.052  28.900  13.075
60215W        W31831  32.413  11.962  14.009
60216W        W31832  32.529  29.675   4.657
60217W        W31833  34.941  18.248   3.169
60218W        W31834  25.600  17.599   4.624
60219W        W31835   3.476  11.535   1.403
60220W        W31836   8.114   7.112  10.734
60221W        W31837  20.277   7.416   4.254
60222W        W31838   6.366  30.654   1.914
60223W        W31839   0.332  12.386  13.503
60224W        W31840  44.754  18.358   2.891
60225W        W31841  38.543  13.299   5.410
60226W        W31842  36.146  39.355  10.457
60227W        W31843  34.354  23.266  14.967
60228W        W31844  37.992  21.633  12.605
60229W        W31845   4.754  40.418   1.815
60230W        W31846   5.219  34.994   2.270
60231W        W31847   3.953  19.323   3.609
60232W        W31848   8.513  42.790   2.656
60233W        W31849  44.226  25.364  11.979
60234W        W31850  29.970  25.246   4.555
60235W        W31851  41.982  24.663  11.989
60236W        W31852  15.038  30.173   3.215
60237W        W31853  25.058   9.397  12.520
60238W        W31854  42.970  14.236   2.380
60239W        W31855  18.743   8.699  12.111
60240W        W31856  11.756  23.245  14.924
60241W        W31857  44.313   3.494  11.985
60242W        W31858  10.277  15.142  14.534
60243W        W31859   6.258  22.792   2.250
60244W        W31860  11.301   6.423  13.019
60245W        W31861  41.223  28.364  11.114
60246W        W31862   8.126  20.408  12.577
60247W        W31863  22.247   4.285   4.867
60248W        W31864   6.113  35.974   0.929
60249W        W31865  41.946   1.276  14.939
60250W        W31866  34.584  22.430   4.724
60251W        W31867  25.112  24.004  14.332
60252W        W31868  19.369   7.670   0.350
60253W        W31869  14.576  14.788   3.020
60254W        W31870  26.718   5.865  11.056
60255W        W31871   3.198  21.240   1.266
60256W        W31872  12.311  33.315  13.931
60257W        W31873  39.346   3.414   2.020
60258W        W31874   1.885  11.588   1.376
60259W        W31875   3.417   7.361   3.601
60260W        W31876  19.936   3.884   2.683
60261W        W31877  41.991  17.595   4.182
60262W        W31878  36.617  24.732   0.855
60263W        W31879  26.175  18.277  10.700
60264W        W31880   6.990  17.190   2.179
60265W        W31881   1.771  23.581  11.104
60266W        W31882  11.795  18.600   4.632
60267W        W31883   3.234  20.486  14.262
60268W        W31884  13.821  32.036   4.423
60269W        W31885  35.400  23.227  12.193
60270W        W31886  28.100   2.640  13.318
60271W        W31887   7.948  34.515   0.867
60272W        W31888   0.855  16.804  14.392
60273W        W31889  32.484  40.070   1.048
60274W        W31890  36.383  17.216  13.976
60275W        W31891  17.254   2.254  10.257
60276W        W31892   5.714   3.839   1.354
60277W        W31893  42.610  19.692  13.935
60278W        W31894  30.857  12.735   0.782
60279W        W31895   1.268  21.435  11.634
60280W        W31896  16.653   1.475   4.082
60281W        W31897   0.668  13.301  12.010
60282W        W31898  41.944  15.245   2.174
60283W        W31899  23.418  35.065   2.733
60284W        W31900  25.680   2.325  12.504
60285W        W31901  19.884  37.396   5.118
60286W        W31902   2.941  15.161   2.699
60287W        W31903  14.721   9.872   2.303
60288W        W31904  36.718  39.986  12.312
60289W        W31905  16.561  42.332   1.253
60290W        W31906  12.043  21.214   1.627
60291W        W31907  42.436  10.287   0.243
60292W        W31908   6.068   3.264  13.499
60293W        W31909  38.315  18.557  12.958
60294W        W31910  36.100  12.354  13.550
60295W        W31911   6.274  27.993  13.836
60296W        W31912  29.043  32.620  11.303
60297W        W31913  37.323  36.059  11.373
60298W        W31914  24.143  40.280   2.896
60299W        W31915  27.617  21.854  11.982
60300W        W31916   3.505  29.596  11.502
60301W        W31917  38.800  14.208   5.367
60302W        W31918   2.356  36.889  12.390
60303W        W31919  21.136   7.213   0.449
60304W        W31920  19.497  13.960   4.222
60305W        W31921  24.730   7.401  11.559
60306W        W31922  17.741  17.072   0.092
60307W        W31923  27.579  15.332   2.060
60308W        W31924  31.500  19.479  11.400
60309W        W31925  19.177  17.169   2.947
60310W        W31926  21.086  16.225  12.486
60311W        W31927   3.298  25.067   4.966
60312W        W31928  27.541  28.045  12.362
60313W        W31929   0.850   1.041   2.869
60314W        W31930  10.755  21.408  10.528
60315W        W31931   0.137  20.488  11.055
60316W        W31932  38.320  29.794   0.447
60317W        W31933  38.129   1.491   0.412
60318W        W31934  16.824  19.241  12.966
60319W        W31935  42.964   9.587  14.332
60320W        W31936  26.159  25.574  12.646
60321W        W31937  31.525  23.869  13.854
60322W        W31938  22.654  32.570   2.883
60323W        W31939  24.191  10.345   5.193
60324W        W31940   8.269   3.487  11.675
60325W        W31941   4.461   9.415  12.165
60326W        W31942  28.129  43.698   0.533
60327W        W31943  42.229  11.176   4.168
60328W        W31944  15.361  27.487   0.326
60329W        W31945  35.429  19.340  14.397
60330W        W31946  36.122  17.681  14.855
60331W        W31947  14.127  13.685   4.074
60332W        W31948  29.977  24.015  11.448
60333W        W31949  30.536   7.809   4.890
60334W        W31950  32.023  26.949   3.124
60335W        W31951  30.592   7.326  10.946
60336W        W31952  42.383  40.184   2.788
60337W        W31953  26.837  26.007  11.502
60338W        W31954  40.495  27.886  14.851
60339W        W31955  38.421  29.945   3.493
60340W        W31956  42.881  42.910  14.882
60341W        W31957   5.215  19.927   1.522
60342W        W31958   6.955  39.927   2.396
60343W        W31959  22.670  41.793  12.007
60344W        W31960  33.065   8.838  14.436
60345W        W31961  17.826  23.533   5.030
60346W        W31962  31.160   6.633  11.184
60347W        W31963  34.974  15.792  13.652
60348W        W31964   0.946  22.050   3.208
60349W        W31965  26.921  37.143   3.292
60350W        W31966  24.625  24.176   5.068
60351W        W31967   2.203  33.213  13.842
60352W        W31968  23.007  17.808   1.637
60353W        W31969  44.394  36.337   0.477
60354W        W31970  22.642  39.077   3.208
60355W        W31971  35.935  30.091  13.798
60356W        W31972   2.205   4.014   1.692
60357W        W31973  26.458  38.377  14.062
60358W        W31974  12.269  40.485   2.893
60359W        W31975  10.195  40.967  13.620
60360W        W31976  10.328  20.569  11.981
60361W        W31977  27.349  16.253  14.811
60362W        W31978  38.309  12.137  12.839
60363W        W31979  25.891  13.149   0.877
60364W        W31980  30.087   3.308  12.588
60365W        W31981  33.064   4.171  12.397
60366W        W31982  44.767   2.808   3.404
60367W        W31983  37.375   3.766  14.720
60368W        W31984  44.593  19.117   3.418
60369W        W31985   6.089  34.017  11.411
60370W        W31986  32.099  42.250  11.120
60371W        W31987  28.621  35.555  14.095
60372W        W31988   4.667  15.683   0.758
60373W        W31989  44.393   4.191  10.791
60374W        W31990  23.595  37.807  12.900
60375W        W31991  40.958  11.905  13.059
60376W        W31992  28.885  10.161   3.730
60377W        W31993  36.999  33.449   4.504
60378W        W31994  35.035   3.893   2.321
60379W        W31995  20.239  36.601   1.612
60380W        W31996  34.120   9.598   1.488
60381W        W31997  21.580   9.181  14.397
60382W        W31998  27.371  36.518   4.595
60383W        W31999   7.016  10.222  13.418
60384W        W32000  20.704  44.701   3.206
60385W        W32001  30.832  21.464  11.651
60386W        W32002   5.350  12.651   1.392
60387W        W32003   7.827  11.799   2.363
60388W        W32004  30.223  22.908   1.067
60389W        W32005   7.447  36.871  10.961
60390W        W32006   7.247  23.035  13.720
60391W        W32007  13.261  27.234   4.567
60392W        W32008  25.255  20.234   4.639
60393W        W32009  30.477  30.435   1.155
60394W        W32010  14.742  26.621  13.722
60395W        W32011  34.636  11.873  10.704
60396W        W32012   3.183  33.003   0.416
60397W        W32013   3.874   6.393  11.187
60398W        W32014   3.288  42.944  13.004
60399W        W32015  22.484  11.201   2.249
60400W        W32016  38.916  39.321  12.068
60401W        W32017  21.287  21.193   3.657
60402W        W32018  31.345   0.422   0.840
60403W        W32019  32.085  31.990   3.255
60404W        W32020  23.187   0.300   3.810
60405W        W32021  43.853  14.604   0.480
60406W        W32022   7.249   8.681   2.983
60407W        W32023  30.594  35.600  14.942
60408W        W32024   7.290  13.417   4.264
60409W        W32025   9.827  11.914  14.406
60410W        W32026  26.226  33.056   4.256
60411W        W32027   5.406  18.310  14.960
60412W        W32028  30.433  38.847  12.025
60413W        W32029  29.944  37.927  13.048
60414W        W32030  33.949   5.824  11.874
60415W        W32031   9.187  26.613   0.525
60416W        W32032  44.800  29.133  13.062
60417W        W32033  26.193   2.094   4.552
60418W        W32034  30.136  16.641  10.717
60419W        W32035  17.640   1.350   0.927
60420W        W32036  20.604   1.049  12.497
60421W        W32037  31.895  24.466   4.704
60422W        W32038  37.302  35.926  14.585
60423W        W32039  38.902   4.632   2.655
60424W        W32040  23.969  12.222  12.486
60425W        W32041  17.852  33.934   0.691
60426W        W32042  23.005  43.318   1.883
60427W        W32043  29.094  40.858   4.084
60428W        W32044  41.841  39.856   0.385
60429W        W32045  23.130  25.970  12.050
60430W        W32046  31.168   3.404   1.472
60431W        W32047  13.177  14.570  13.402
60432W        W32048  30.108  40.362  12.309
60433W        W32049  14.249  42.530   4.153
60434W        W32050  11.804  41.059   0.300
60435W        W32051  11.592  21.925   2.280
60436W        W32052   8.298   2.859  12.361
60437W        W32053   2.521  10.349  14.268
60438W        W32054  11.189   4.702  11.979
60439W        W32055  39.502  18.176  12.856
60440W        W32056  17.057  22.509  14.529
60441W        W32057  31.004  16.971  10.277
60442W        W32058   2.905  22.628   0.437
60443W        W32059   4.834  37.026   0.344
60444W        W32060  22.200   1.316  10.909
60445W        W32061  16.602  33.142   4.156
60446W        W32062  15.708   4.712   1.281
60447W        W32063   7.486  15.226  11.061
60448W        W32064   1.071  31.270  14.406
60449W        W32065  33.207  14.831  13.460
60450W        W32066  41.012  18.267   1.425
60451W        W32067   1.862   8.686   2.439
60452W        W32068   3.111   0.776   4.052
60453W        W32069  43.386  20.342   0.370
60454W        W32070  30.051  32.978   3.350
60455W        W32071  39.612  12.568   2.349
60456W        W32072  29.661   5.754  11.649
60457W        W32073  11.836   9.837  13.971
60458W        W32074  16.591  36.914   2.837
60459W        W32075  35.575  24.559  14.912
60460W        W32076  39.484  24.526  13.098
60461W        W32077  37.609  22.736   4.186
60462W        W32078   6.235   8.731  10.883
60463W        W32079  36.648  27.372   2.830
60464W        W32080   3.285  30.377   1.398
60465W        W32081  36.965   6.300  11.990
60466W        W32082  28.616  41.321   2.368
60467W        W32083  20.499  39.700   4.532
60468W        W32084  25.117  29.983   0.227
60469W        W32085  40.248  22.189   4.691
60470W        W32086  10.571  11.389   1.079
60471W        W32087  28.030  34.661  12.155
60472W        W32088  37.346  35.317   1.242
60473W        W32089  10.679   9.283  13.977
60474W        W32090  10.872  23.478   4.562
60475W        W32091  38.389  12.164  11.116
60476W        W32092   4.656  17.361   2.776
60477W        W32093  43.802   2.254  11.931
60478W        W32094  16.481  13.119   4.175
60479W        W32095  24.111   8.731   2.708
60480W        W32096  42.798  39.183  11.336
60481W        W32097  24.620  39.087   2.421
60482W        W32098  11.732   6.313  13.304
60483W        W32099  43.856  20.073  14.672
60484W        W32100  14.005  35.552  12.575
60485W        W32101  38.928  30.950  10.400
60486W        W32102   0.539   4.249   3.112
60487W        W32103  40.958  42.311  12.927
60488W        W32104   3.649  23.719  12.040
60489W        W32105  25.914  35.990   4.838
60490W        W32106  14.241  44.613   0.358
60491W        W32107  27.528  17.971  11.076
60492W        W32108  16.303  26.798  10.479
60493W        W32109  22.436   4.214   4.269
60494W        W32110  25.921   6.263  13.560
60495W        W32111  25.507   7.648   3.445
60496W        W32112  21.346  41.719  12.369
60497W        W32113  31.601  20.771  14.947
60498W        W32114   9.883  18.246   2.822
60499W        W32115   8.928  13.345  14.078
60500W        W32116  41.432  10.600   0.792
60501W        W32117   5.401  32.074  13.360
60502W        W32118  25.336  28.179  10.654
60503W        W32119  10.999  13.191   1.272
60504W        W32120  23.911   4.260  12.084
60505W        W32121  16.274  18.794   3.712
60506W        W32122  26.894  33.328  12.888
60507W        W32123   7.962  39.403  12.097
60508W        W32124   2.855  24.870  13.092
60509W        W32125   9.288  15.235   3.641
60510W        W32126  28.556  38.507   2.737
60511W        W32127   5.912  35.296  10.724
60512W        W32128   9.624  39.326   0.384
60513W        W32129  14.211   1.818   2.719
60514W        W32130   8.214  33.561  14.696
60515W        W32131  17.521  44.773  10.180
60516W        W32132  38.533  36.848   0.333
60517W        W32133  36.477   9.092   3.794
60518W        W32134  27.661   9.464   0.428
60519W        W32135  27.727   5.921   2.969
60520W        W32136   8.910  44.239  14.830
60521W        W32137  28.627  35.913   4.057
60522W        W32138  38.336  42.506   4.503
60523W        W32139  20.134  17.917  13.857
60524W        W32140  28.512  43.003  12.647
60525W        W32141  37.171  42.094   4.250
60526W        W32142   5.907   9.809   1.277
60527W        W32143  19.024  38.201   4.541
60528W        W32144  26.589   0.747   3.223
60529W        W32145  31.566  32.125  12.492
60530W        W32146  11.097  31.830   2.732
60531W        W32147  42.625   4.857   2.590
60532W        W32148   0.198   3.950   2.861
60533W        W32149  17.811  36.076   0.885
60534W        W32150  29.311  21.431   5.081
60535W        W32151   4.263  15.471  11.974
60536W        W32152  40.225   5.382   4.083
60537W        W32153  42.499  13.158  14.439
60538W        W32154  43.350  16.347  13.023
60539W        W32155  40.283  15.642  10.642
60540W        W32156  15.814  36.408  14.906
60541W        W32157   7.902  32.365  13.368
60542W        W32158  39.794  40.811  14.544
60543W        W32159   9.363  31.049   2.733
60544W        W32160  33.462  28.137  14.971
60545W        W32161  40.448  37.030   4.136
60546W        W32162  44.694  30.151  12.043
60547W        W32163   4.255  11.291  12.051
60548W        W32164  40.419   0.878   0.486
60549W        W32165   0.132   1.187  11.848
60550W        W32166   6.657  29.608  12.625
60551W        W32167  33.471  27.111  13.001
60552W        W32168   4.742  26.625   3.092
60553W        W32169  20.481  28.569  11.663
60554W        W32170  17.345   2.532   3.535
60555W        W32171  23.567  13.838  14.691
60556W        W32172  21.269  18.189   2.270
60557W        W32173  20.411  42.362   0.331
60558W        W32174  43.404   9.302   4.500
60559W        W32175  43.447   6.846  13.048
60560W        W32176  27.986   8.319   3.237
60561W        W32177  27.869  26.056  11.486
60562W        W32178  36.618  26.201  10.595
60563W        W32179  43.983  37.402  12.018
60564W        W32180  16.572  20.321   0.480
60565W        W32181  10.302  26.689  12.366
60566W        W32182  25.610  12.423  10.587
60567W        W32183  43.730  34.025   0.116
60568W        W32184  23.634  28.049   3.694
60569W        W32185  14.739  17.521   0.431
60570W        W32186   1.123  39.181   1.412
60571W        W32187   2.427   8.702   1.555
60572W        W32188  33.812  30.014   4.885
60573W        W32189  14.635   2.313  13.840
60574W        W32190  34.115  26.151   3.256
60575W        W32191  14.005  28.385  11.638
60576W        W32192  13.470   8.645   5.024
60577W        W32193  11.599  19.072   2.759
60578W        W32194   4.982  37.072  11.600
60579W        W32195  41.529  26.564  12.016
60580W        W32196  20.037  42.635  14.473
60581W        W32197  40.772  33.871  11.867
60582W        W32198  37.481  13.150   2.528
60583W        W32199  25.864   6.771  12.873
60584W        W32200   8.228  35.331  13.385
60585W        W32201   9.088  20.213  13.473
60586W        W32202  44.739  33.464  12.507
60587W        W32203  42.986  40.866  10.461
60588W        W32204  19.348  43.699   2.476
60589W        W32205   7.490  22.847   4.125
60590W        W32206  20.167  21.625   1.042
60591W        W32207  18.114   6.495   2.362
60592W        W32208  27.071  38.505   0.695
60593W        W32209  25.868   3.414   3.342
60594W        W32210  10.602  41.890  14.838
60595W        W32211   4.334   5.670  11.082
60596W        W32212  41.154  21.931  12.043
60597W        W32213  14.573  31.696  13.784
60598W        W32214   8.369  20.668  11.924
60599W        W32215  12.660  15.847  14.398
60600W        W32216   2.437  36.521  10.341
60601W        W32217  23.537   9.638  13.638
60602W        W32218  24.510  18.993   3.624
60603W        W32219  19.058  27.624   2.412
60604W        W32220  11.158   1.759   0.898
60605W        W32221  40.496  26.969  13.602
60606W        W32222   7.303   5.321   1.214
60607W        W32223   4.915  27.847   3.188
60608W        W32224   4.862  14.805   1.499
60609W        W32225  27.037  34.299   1.504
60610W        W32226  29.467  36.823  14.856
60611W        W32227  37.363   2.160   1.408
60612W        W32228  15.814  26.028  14.049
60613W        W32229  30.760  12.681   4.996
60614W        W32230  35.366   1.349  12.475
60615W        W32231  13.243  37.671  14.604
60616W        W32232  22.496  14.357  11.676
60617W        W32233  29.410  32.501   1.388
60618W        W32234  41.501  10.995  13.084
60619W        W32235  15.840  39.034  12.027
60620W        W32236  32.725  42.142  11.558
60621W        W32237   5.235  35.456   3.678
60622W        W32238   4.532  20.848   5.059
60623W        W32239  32.804  12.206  14.256
60624W        W32240   3.834  29.914   4.749
60625W        W32241  19.212  42.021  11.161
60626W        W32242   0.922  28.448   3.720
60627W        W32243   8.643  36.690  14.306
60628W        W32244  39.595   5.440   1.275
60629W        W32245  35.271  11.126   2.464
60630W        W32246   8.817   0.715  14.926
60631W        W32247  28.723  11.086  11.154
60632W        W32248  41.527   3.265   3.397
60633W        W32249  35.939  12.520  10.047
60634W        W32250  26.519   5.085  11.422
60635W        W32251  30.721   9.964  14.012
60636W        W32252  34.110  12.534   5.005
60637W        W32253   6.339  23.549  14.855
60638W        W32254  27.664  26.660   3.161
60639W        W32255   2.518  15.105   4.167
60640W        W32256  40.877  18.089  14.120
60641W        W32257  18.577  38.983  14.362
60642W        W32258  17.780  16.873   3.738
60643W        W32259  14.658  34.638  12.072
60644W        W32260  40.247   5.261   2.828
60645W        W32261   2.613   5.886  12.010
60646W        W32262   1.257  13.533  13.321
60647W        W32263  35.032  18.769  13.649
60648W        W32264   6.280  38.395  10.909
60649W        W32265   9.152   6.159  14.277
60650W        W32266  14.470  39.386  14.676
60651W        W32267   3.912   3.461  10.499
60652W        W32268  18.270   9.239   1.787
60653W        W32269  36.632  17.770  13.377
60654W        W32270  14.513  33.985  14.514
60655W        W32271  28.136   1.200  14.720
60656W        W32272  19.576   9.093  13.004
60657W        W32273  37.528  16.678   2.643
60658W        W32274  42.918  21.637  14.397
60659W        W32275  21.616  29.053   1.747
60660W        W32276  27.095  28.176  12.633
60661W        W32277  34.491   5.198   1.525
60662W        W32278  35.289  28.123  14.683
60663W        W32279  39.429  36.942   4.411
60664W        W32280  11.062  22.526   4.627
60665W        W32281  26.614  23.026   2.751
60666W        W32282  28.957   7.359   3.289
60667W        W32283   7.461  36.786   0.623
60668W        W32284  12.008  33.734  13.005
60669W        W32285   2.410  31.648   0.402
60670W        W32286  13.185  21.640  11.917
60671W        W32287  29.686  17.296   1.840
60672W        W32288   8.991  12.650   3.358
60673W        W32289  16.659   9.427  11.941
60674W        W32290  35.973  38.852   4.626
60675W        W32291  17.960  35.957   4.634
60676W        W32292  14.701  20.500   4.123
60677W        W32293   1.931  34.864  14.385
60678W        W32294   2.045   9.176  10.449
60679W        W32295  20.275   1.380   3.497
60680W        W32296   5.789  44.049  11.382
60681W        W32297  40.057  20.043   1.717
60682W        W32298  24.217  20.568   1.322
60683W        W32299  22.077  36.105  11.928
60684W        W32300  44.392   0.699   0.480
60685W        W32301  42.795  23.908  13.871
60686W        W32302  29.671   0.355  14.518
60687W        W32303  33.640   1.198  10.334
60688W        W32304  19.023   9.736   4.158
60689W        W32305  36.355  18.640  12.016
60690W        W32306  40.931  40.782  14.640
60691W        W32307  17.573  26.970   0.698
60692W        W32308  32.121  23.156   2.414
60693W        W32309  39.743  37.325   3.185
60694W        W32310  17.149  16.632  14.441
60695W        W32311  14.819  41.223  12.030
60696W        W32312   0.542   9.248  10.640
60697W        W32313   8.350   8.649   3.370
60698W        W32314  11.362  39.424  11.922
60699W        W32315  29.014  25.112  14.581
60700W        W32316  33.620  13.143   1.837
60701W        W32317   9.914  18.669  11.876
60702W        W32318   7.672  31.139   4.854
60703W        W32319  19.104  16.692   4.047
60704W        W32320   6.754  39.396   1.617
60705W        W32321  24.950   7.728   3.681
60706W        W32322  35.030  15.092   0.779
60707W        W32323  35.682  39.283  10.693
60708W        W32324  26.180  35.119  11.646
60709W        W32325  38.113  44.686   2.865
60710W        W32326  36.469  30.129  13.611
60711W        W32327  24.445  29.597   1.809
60712W        W32328  33.910  44.889   4.200
60713W        W32329   9.562  32.985  13.853
60714W        W32330   4.422  40.089   1.512
60715W        W32331   7.773  27.628   0.500
60716W        W32332  33.454  10.607   4.112
60717W        W32333  24.997   6.905  14.030
60718W        W32334   6.039  29.937   1.918
60719W        W32335  30.502  27.724  12.959
60720W        W32336  40.973  39.778  11.122
60721W        W32337  26.890   5.705  13.964
60722W        W32338  22.863  23.652   1.958
60723W        W32339  22.387  35.884  10.751
60724W        W32340  39.403  24.238   1.350
60725W        W32341   6.141  41.262   4.734
60726W        W32342  37.965  28.169  13.068
60727W        W32343  14.158  15.130   0.958
60728W        W32344  11.359  29.586   3.759
60729W        W32345  22.111  16.531   3.156
60730W        W32346   0.908  37.629   3.833
60731W        W32347   5.623  37.635  13.954
60732W        W32348  24.541  31.497   2.797
60733W        W32349  33.889  11.137  11.677
60734W        W32350  26.103  32.627  11.622
60735W        W32351  24.231  41.713   4.130
60736W        W32352   6.957  30.177  14.823
60737W        W32353  11.413  10.171  10.951
60738W        W32354  41.062  39.775   2.205
60739W        W32355   8.102  11.340  13.076
60740W        W32356  18.970   3.986   4.170
60741W        W32357   6.810  27.396  12.590
60742W        W32358   4.021   7.706   2.153
60743W        W32359  19.355  36.621  12.580
60744W        W32360   0.640  10.336  11.110
60745W        W32361   9.474  38.358  13.870
60746W        W32362   7.543  24.605  14.494
60747W        W32363   6.474  35.475   3.533
60748W        W32364  36.760   7.884   0.978
60749W        W32365  28.372   5.729  14.527
60750W        W32366  20.214   7.865  12.947
60751W        W32367  21.598   2.941  13.166
60752W        W32368  20.076  11.247  12.894
60753W        W32369  23.322  20.519  11.155
60754W        W32370  19.187  14.688   4.477
60755W        W32371   3.699  10.779  14.965
60756W        W32372  13.593   4.714   0.790
60757W        W32373  11.648  23.068   2.392
60758W        W32374  35.314   3.868   1.887
60759W        W32375  13.198  33.047  12.013
60760W        W32376   2.132   5.440   1.827
60761W        W32377  18.656  22.215   1.906
60762W        W32378  20.259   1.636   4.029
60763W        W32379  38.763   0.744  13.396
60764W        W32380  13.884   9.695  12.022
60765W        W32381   7.840   3.676   1.419
60766W        W32382  14.201  30.703   0.581
60767W        W32383   5.885   4.690  13.345
60768W        W32384   4.477   0.316   1.892
60769W        W32385  30.438  27.657  12.062
60770W        W32386  29.713   6.535  10.083
60771W        W32387  15.312  37.741   1.019
60772W        W32388  40.757  23.255   0.782
60773W        W32389  34.447  14.190  11.603
60774W        W32390  26.913  35.269  10.091
60775W        W32391  41.889  12.322  11.443
60776W        W32392  32.103  13.634  12.547
60777W        W32393  44.583  14.214  11.615
60778W        W32394   1.903  42.281  14.829
60779W        W32395  19.791  21.567  10.842
60780W        W32396  10.231  34.028   3.200
60781W        W32397   0.712  25.824  13.976
60782W        W32398  30.466   0.170  14.887
60783W        W32399   8.871  33.842  14.900
60784W        W32400  15.149  34.299   4.722
60785W        W32401  37.946  42.459  11.922
60786W        W32402  14.694  33.542  12.863
60787W        W32403   0.537  26.378  13.191
60788W        W32404  11.584  31.055  11.527
60789W        W32405  37.136   3.696  12.527
60790W        W32406   6.897  43.874  12.838
60791W        W32407  24.225  22.537  11.610
60792W        W32408  24.155  21.713  12.417
60793W        W32409  32.552  27.644  14.270
60794W        W32410  25.654  26.623  13.588
60795W        W32411  13.107  18.082  11.225
60796W        W32412  33.452  13.225   3.605
60797W        W32413  34.164  34.097  10.862
60798W        W32414  36.419  40.851  11.101
60799W        W32415  20.203  14.773  11.593
60800W        W32416  32.492  10.441  13.992
60801W        W32417  13.673   4.955   1.208
60802W        W32418  10.782  31.816  13.294
60803W        W32419  27.313  31.339   4.564
60804W        W32420  17.478  15.558  14.052
60805W        W32421  11.929  14.332  14.521
60806W        W32422  17.628  17.632  14.217
60807W        W32423  26.702  28.959   0.694
60808W        W32424  44.529   4.097   4.166
60809W        W32425   5.856  25.474  12.945
60810W        W32426  21.161  26.988  13.323
60811W        W32427  10.129   3.213  11.983
60812W        W32428  14.286  24.918   1.528
60813W        W32429  11.049  13.060  11.980
60814W        W32430  32.652  18.129  14.375
60815W        W32431  34.705  23.514   0.286
60816W        W32432  31.129  27.385  10.754
60817W        W32433  42.682  38.446  10.275
60818W        W32434  27.937  35.333   4.025
60819W        W32435  43.950  28.376  11.938
60820W        W32436  11.154   9.328   4.562
60821W        W32437   5.323  44.539   9.827
60822W        W32438  28.878   8.493  13.083
60823W        W32439   6.293  37.602  10.428
60824W        W32440   3.344   1.274   3.128
60825W        W32441  34.020  34.496  13.527
60826W        W32442  26.992  25.745   2.312
60827W        W32443  21.714   5.768  14.704
60828W        W32444   6.928  13.678  12.759
60829W        W32445  22.112  42.107   4.625
60830W        W32446  38.863  34.708  13.433
60831W        W32447  15.135  21.019  13.874
60832W        W32448   8.672  13.306   0.758
60833W        W32449  22.791  39.350   0.375
60834W        W32450  28.370   8.122   4.962
60835W        W32451   5.106  12.781  13.354
60836W        W32452  28.586  23.083   3.223
60837W        W32453  23.719  35.681   4.775
60838W        W32454  24.187   0.479   0.337
60839W        W32455   5.636  26.187  14.857
60840W        W32456  19.564  36.995   3.197
60841W        W32457  43.576  43.872  14.330
60842W        W32458  13.818   7.588  10.458
60843W        W32459   3.514  16.263  12.622
60844W        W32460   9.862   5.859  10.700
60845W        W32461  32.542  42.564   4.380
60846W        W32462  12.544   6.624  13.325
60847W        W32463  15.332  18.583  10.785
60848W        W32464  23.100  19.218   3.547
60849W        W32465   8.322  33.092  14.499
60850W        W32466   2.975   4.980  12.080
60851W        W32467  28.169  35.085   3.641
60852W        W32468  25.738  30.636  14.756
60853W        W32469  13.595  13.202   3.195
60854W        W32470  37.774  43.455  10.510
60855W        W32471  30.409   6.107  11.263
60856W        W32472  10.117  38.966   4.475
60857W        W32473  18.449  12.072   4.157
60858W        W32474  35.618  15.346   4.238
60859W        W32475   9.702  33.527  13.081
60860W        W32476  34.912  34.586  14.355
60861W        W32477  18.541  16.668  14.897
60862W        W32478  32.887  29.869   3.373
60863W        W32479  16.762  44.071   5.042
60864W        W32480  22.562  26.659  13.587
60865W        W32481  14.284  15.118   4.383
60866W        W32482  44.777  35.150  12.510
60867W        W32483  26.611  10.266   5.039
60868W        W32484  38.942  40.342  13.121
60869W        W32485  36.368  25.937  14.890
60870W        W32486  20.561  44.826  11.053
60871W        W32487  16.076  37.025   0.912
60872W        W32488  23.954  25.927   2.831
60873W        W32489  20.683  19.163   1.783
60874W        W32490  19.618  40.956   4.019
60875W        W32491  12.329  32.712  12.927
60876W        W32492   1.209  24.577   1.715
60877W        W32493  23.764  27.150  12.018
60878W        W32494   1.387  17.168   3.585
60879W        W32495  18.810  43.008   2.812
60880W        W32496  32.867  42.793   4.730
60881W        W32497   1.418  40.983  10.664
60882W        W32498  18.088  18.115   4.143
60883W        W32499   9.217  30.131   1.399
60884W        W32500  44.376   0.683   3.801
60885W        W32501  10.469  30.862   1.852
60886W        W32502  25.795   3.935   4.554
60887W        W32503  16.308  32.124   4.109
60888W        W32504  35.457  20.860  13.952
60889W        W32505  12.549  26.756  11.364
60890W        W32506  29.414  42.097   4.183
60891W        W32507  38.289  17.807  11.203
60892W        W32508  22.056  17.457   9.976
60893W        W32509  40.031  19.211   1.262
60894W        W32510  19.559  35.893  12.950
60895W        W32511  18.113  16.314  13.077
60896W        W32512   4.367  25.924   0.941
60897W        W32513  31.662  43.423  10.575
60898W        W32514   2.794  29.439   2.207
60899W        W32515  21.704  18.070  10.614
60900W        W32516   0.251  34.455   1.868
60901W        W32517  42.348   3.872   4.721
60902W        W32518  24.384  30.893   3.661
60903W        W32519  33.594   5.185   4.109
60904W        W32520  16.784  27.628  13.026
60905W        W32521  38.343   9.352   4.196
60906W        W32522  22.142  17.861   0.939
60907W        W32523  20.851  17.104   4.366
60908W        W32524  17.701  29.555  12.013
60909W        W32525  36.893  40.767  12.843
60910W        W32526  18.712   4.907  12.385
60911W        W32527  43.775  35.587   0.309
60912W        W32528  30.629  27.958   2.744
60913W        W32529  33.677  33.151   1.283
60914W        W32530  32.595  22.576   0.267
60915W        W32531  34.806  21.655   3.710
60916W        W32532  17.117   6.289   3.288
60917W        W32533   5.176   5.758   4.067
60918W        W32534   9.400  19.605   3.766
60919W        W32535  13.586   1.730  11.127
60920W        W32536  38.429  23.405  12.908
60921W        W32537  29.074  13.302  12.858
60922W        W32538  26.056  30.405  12.482
60923W        W32539  10.994  41.539   1.528
60924W        W32540  24.952  30.018   4.618
60925W        W32541  22.889  43.431   4.237
60926W        W32542   6.344   0.363   1.396
60927W        W32543  16.300  39.035   1.344
60928W        W32544   0.862  20.750   2.175
60929W        W32545  28.807  21.621   4.148
60930W        W32546  14.352  15.630   0.813
60931W        W32547  30.134  35.446   2.226
60932W        W32548  37.203  41.702  13.035
60933W        W32549  42.958   3.561   4.721
60934W        W32550  36.446  17.031  14.948
60935W        W32551  13.534   6.857   0.966
60936W        W32552  40.425  24.833   2.257
60937W        W32553  24.904  21.396  14.866
60938W        W32554  18.270   2.396   2.219
60939W        W32555  36.334  30.124  12.085
60940W        W32556  15.363  43.292   4.084
60941W        W32557  38.038  13.147   3.762
60942W        W32558  44.500  10.592  14.361
60943W        W32559  10.781  21.081   1.639
60944W        W32560  38.873   4.541   3.597
60945W        W32561  23.698  33.332   1.492
60946W        W32562  19.637   7.737  10.442
60947W        W32563  27.521  40.006   4.731
60948W        W32564  17.963  19.521  13.535
60949W        W32565  41.907  17.085  12.950
60950W        W32566  26.123  39.384  14.533
60951W        W32567  16.655  11.383   3.911
60952W        W32568  10.080  43.982   1.011
60953W        W32569  22.573  37.951  13.954
60954W        W32570  30.574   7.201  12.823
60955W        W32571  41.284  27.857  13.728
60956W        W32572   7.975  11.084  11.152
60957W        W32573  40.564  12.660   1.755
60958W        W32574   1.026  42.956  14.485
60959W        W32575  23.633  18.016   4.520
60960W        W32576  26.713  24.032  12.917
60961W        W32577  31.149   0.448   4.582
60962W        W32578  14.802  10.705  10.686
60963W        W32579  20.378   8.273   3.877
60964W        W32580  15.851   4.302  13.490
60965W        W32581  26.037  11.592  11.677
60966W        W32582  13.255   7.640   0.254
60967W        W32583  24.350  18.824   1.422
60968W        W32584  30.893  10.899  12.066
60969W        W32585  26.703  13.710  11.262
60970W        W32586  28.586  34.090  13.293
60971W        W32587   3.385   5.294  10.684
60972W        W32588  12.038  22.052   1.023
60973W        W32589   8.594  31.867  12.429
60974W        W32590  43.352   5.783   3.767
60975W        W32591  40.687  33.138   3.809
60976W        W32592  36.657  11.108   4.597
60977W        W32593  28.697  33.616  13.981
60978W        W32594  43.409  42.725  13.043
60979W        W32595  22.600  28.663   2.785
60980W        W32596   8.870  40.619  14.228
60981W        W32597   5.449   8.135   4.927
60982W        W32598  34.972  12.277  10.541
60983W        W32599  33.550  44.766   0.435
60984W        W32600  37.266   6.751  11.345
60985W        W32601  12.293  16.167   3.623
60986W        W32602  11.243  38.741  13.426
60987W        W32603   6.320  23.050  12.333
60988W        W32604  22.944  25.256  14.263
60989W        W32605  26.498  17.121   3.833
60990W        W32606  13.495  44.496  14.966
60991W        W32607   1.686   5.194   4.189
60992W        W32608  12.266  11.087   0.162
60993W        W32609   3.332  43.074  11.429
60994W        W32610  44.745  25.111  12.856
60995W        W32611  25.207  39.973   3.724
60996W        W32612  22.660  43.304   1.470
60997W        W32613   0.010  14.270   4.174
60998W        W32614  35.033  42.420   3.330
60999W        W32615  14.136  39.808  12.042
61000W        W32616   6.397   8.068   0.969
61001W        W32617  44.880  31.784   2.234
61002W        W32618  34.562  30.398   1.001
61003W        W32619  27.162  18.191   1.062
61004W        W32620   0.413   8.037  11.221
61005W        W32621  44.854  18.221   1.432
61006W        W32622  10.380  30.089   4.517
61007W        W32623  40.058  18.097  11.586
61008W        W32624   0.173  30.987  12.134
61009W        W32625  13.082  31.614  14.932
61010W        W32626   9.840   6.894   1.946
61011W        W32627  18.010  36.643   0.890
61012W        W32628  22.515   3.466   2.795
61013W        W32629  22.925  40.273   3.675
61014W        W32630  36.050  17.013  11.044
61015W        W32631   6.339   5.916   3.109
61016W        W32632   3.540  28.678  14.138
61017W        W32633   9.487  11.168   3.520
61018W        W32634  24.900  44.405  13.848
61019W        W32635  13.200  26.456   4.118
61020W        W32636  22.776  13.757   2.815
61021W        W32637  29.590  42.345  14.425
61022W        W32638  40.243  19.135  14.693
61023W        W32639  40.315   1.327   2.365
61024W        W32640   9.953  34.845  10.781
61025W        W32641  20.081  41.801  11.925
61026W        W32642  30.867  14.166  10.780
61027W        W32643  21.594  16.319  12.404
61028W        W32644  38.316  10.736  11.154
61029W        W32645   0.724  16.250  11.516
61030W        W32646  28.572  38.544   4.762
61031W        W32647   8.839  18.274  11.207
61032W        W32648  19.281  27.656  13.887
61033W        W32649  35.059  23.779  12.905
61034W        W32650  28.113  11.361   1.294
61035W        W32651   3.241   1.142   5.696
61036W        W32652   5.243  35.579  11.135
61037W        W32653  19.920  12.694  14.364
61038W        W32654  12.097  23.060   1.646
61039W        W32655  42.467   7.738   3.362
61040W        W32656   2.770   4.375  13.902
61041W        W32657  21.362  34.516   3.700
61042W        W32658   6.228  38.522   2.806
61043W        W32659   8.720  38.176   4.798
61044W        W32660   4.808  22.350   0.625
61045W        W32661   7.842   7.808   1.031
61046W        W32662  29.499  17.070  12.629
61047W        W32663   7.148  19.751   3.254
61048W        W32664  27.132  14.548   1.045
61049W        W32665  44.056   7.467  13.984
61050W        W32666  25.815  17.781  12.424
61051W        W32667  32.477  43.811  14.444
61052W        W32668  14.261  20.063  14.907
61053W        W32669  12.100  15.155  11.224
61054W        W32670  16.159  29.943  12.460
61055W        W32671  32.061  20.988  14.846
61056W        W32672  35.066  19.789   4.433
61057W        W32673  21.751  16.632  14.760
61058W        W32674  25.658  16.554   1.211
61059W        W32675  33.974  32.683  10.928
61060W        W32676  14.182  15.802  12.461
61061W        W32677  19.525   6.854  14.565
61062W        W32678  13.699  41.261  13.767
61063W        W32679  30.650  12.752   3.124
61064W        W32680  15.085   4.748  14.407
61065W        W32681  17.717  22.270  10.651
61066W        W32682  21.624  40.057   2.323
61067W        W32683   1.411  44.329   3.930
61068W        W32684   2.288   5.747   2.655
61069W        W32685  18.380  17.508   3.351
61070W        W32686  37.376  20.666   3.899
61071W        W32687  19.234  27.761  12.853
61072W        W32688  27.177   6.180  13.562
61073W        W32689   5.373   4.195   1.117
61074W        W32690  33.440  17.225  13.833
61075W        W32691  31.110  30.965   4.849
61076W        W32692   2.967  44.339  12.198
61077W        W32693  17.219  42.518   1.758
61078W        W32694   0.061  37.069   4.474
61079W        W32695  26.605  20.726   2.930
61080W        W32696  33.554  24.513   4.393
61081W        W32697  40.123  27.120   4.094
61082W        W32698  31.471  20.073  10.539
61083W        W32699  22.107  24.742  10.795
61084W        W32700  35.153  18.061   2.754
61085W        W32701  11.205  12.090  11.154
61086W        W32702  33.937   0.293   5.117
61087W        W32703   7.574  42.015  11.779
61088W        W32704  10.397   5.253   1.414
61089W        W32705  26.361   6.220  13.302
61090W        W32706   5.771  12.246  11.553
61091W        W32707  41.479  44.423   4.445
61092W        W32708  10.534  32.956   2.299
61093W        W32709  42.036  27.175   1.407
61094W        W32710  23.636  22.226   0.962
61095W        W32711  14.344  20.095  11.491
61096W        W32712  41.900   0.025   3.625
61097W        W32713   9.425  40.521   4.036
61098W        W32714   1.427  37.484  12.138
61099W        W32715  33.117  38.626   4.573
61100W        W32716   4.779  28.355  11.194
61101W        W32717   4.532   2.086  14.267
61102W        W32718  26.565  10.868  13.479
61103W        W32719  21.457  11.943  13.789
61104W        W32720  19.644  44.173  12.669
61105W        W32721  39.621  11.647   3.189
61106W        W32722  17.389  15.164  13.506
61107W        W32723   0.336  42.775   0.422
61108W        W32724  21.526  26.958  11.062
61109W        W32725  21.020  30.408   4.882
61110W        W32726  33.061  36.061  12.994
61111W        W32727  10.713  31.799  10.904
61112W        W32728  14.179   8.590   0.308
61113W        W32729   6.883  40.776   1.941
61114W        W32730  40.632  41.086   4.568
61115W        W32731  16.636  18.191  12.807
61116W        W32732  31.682  27.294  13.273
61117W        W32733  20.698  39.637   1.420
61118W        W32734  22.709  32.855  12.009
61119W        W32735   9.940  22.026   2.715
61120W        W32736  29.051  32.365   0.443
61121W        W32737  35.862  40.959   1.394
61122W        W32738  15.767  11.756  13.063
61123W        W32739  14.363  28.567  14.173
61124W        W32740  35.161  15.430   4.511
61125W        W32741  37.280  20.461  13.929
61126W        W32742   5.897  11.833   3.379
61127W        W32743   0.707  44.969   1.795
61128W        W32744  15.247  26.523  10.719
61129W        W32745   2.469  31.657  12.584
61130W        W32746  13.183   4.033  14.265
61131W        W32747  21.586  16.341   1.625
61132W        W32748  12.578  26.204   3.690
61133W        W32749  41.136  29.187  10.682
61134W        W32750  40.327  23.505   0.961
61135W        W32751  22.002   0.690   1.891
61136W        W32752   7.874  39.455   0.770
61137W        W32753   6.975  27.018   1.066
61138W        W32754   9.553  17.143  10.692
61139W        W32755  43.934  26.806   2.848
61140W        W32756  31.879   0.954  13.735
61141W        W32757  13.086  17.569   1.894
61142W        W32758  36.223  30.493  13.920
61143W        W32759  15.366  14.138  12.899
61144W        W32760  33.179  20.719   4.142
61145W        W32761  17.658  40.496   0.968
61146W        W32762  19.641   1.233  11.582
61147W        W32763  10.550   7.742  14.834
61148W        W32764  28.484   6.720  12.117
61149W        W32765  23.668   4.267   0.407
61150W        W32766   1.788  35.085   1.168
61151W        W32767  31.830   0.681  14.815
61152W        W32768   1.416  37.089  12.513
61153W        W32769  34.508  18.797  11.004
61154W        W32770   0.601  21.789   5.527
61155W        W32771  43.510  15.204   3.261
61156W        W32772  28.063  17.141  10.202
61157W        W32773  25.537  26.374  14.009
61158W        W32774   5.496   1.474  12.968
61159W        W32775  29.457  25.933  14.873
61160W        W32776   8.907  14.128  12.377
61161W        W32777  21.515  38.373   1.375
61162W        W32778  23.530   2.288  11.096
61163W        W32779  42.851  38.587   0.406
61164W        W32780   7.643  43.963   3.711
61165W        W32781  16.364   4.192  13.398
61166W        W32782  17.844  25.210  14.157
61167W        W32783   1.901  29.419  12.635
61168W        W32784  18.147  16.311  12.227
61169W        W32785  30.928   5.959   0.798
61170W        W32786  32.046   4.878  13.602
61171W        W32787  39.552  18.739  13.919
61172W        W32788   4.893  44.875   1.406
61173W        W32789  41.405  17.813   1.721
61174W        W32790  21.588  19.138   4.304
61175W        W32791  19.225  36.553  11.649
61176W        W32792  29.850  40.234   4.303
61177W        W32793  41.565  44.034  13.517
61178W        W32794  36.251  12.791   1.836
61179W        W32795  15.822  39.744   0.051
61180W        W32796  14.032  37.102   4.177
61181W        W32797  12.562  34.286  10.575
61182W        W32798  17.196  17.791   3.651
61183W        W32799  43.419  29.864   1.803
61184W        W32800  27.691   3.400  12.322
61185W        W32801  12.472  14.668  14.057
61186W        W32802  13.250  33.460  13.997
61187W        W32803   6.240  42.395  12.546
61188W        W32804   8.250  34.462  14.756
61189W        W32805  44.261  30.604  12.698
61190W        W32806   7.561  11.743  13.951
61191W        W32807   5.258  24.182  11.440
61192W        W32808   7.224  27.830   3.338
61193W        W32809   4.500  28.460  11.647
61194W        W32810  19.507   8.792   1.696
61195W        W32811  24.976   2.490   0.043
61196W        W32812  26.441   3.563  11.520
61197W        W32813  10.923  24.395  14.953
61198W        W32814   8.782  31.030  11.880
61199W        W32815  24.118  13.884   1.690
61200W        W32816  31.910  24.195  14.060
61201W        W32817   7.392  29.919  12.031
61202W        W32818  26.409  11.895   1.288
61203W        W32819  30.013  30.858  13.537
61204W        W32820  32.726  21.398   3.556
61205W        W32821  36.601  18.311   3.163
61206W        W32822  19.287  41.767   3.621
61207W        W32823  14.188  11.683  11.282
61208W        W32824  20.171  40.727  10.554
61209W        W32825  38.242  22.009   4.375
61210W        W32826   3.310   0.918  13.296
61211W        W32827  30.877  26.763   2.395
61212W        W32828  35.562  26.094  14.351
61213W        W32829   7.795  39.436  14.845
61214W        W32830  41.859   0.660  14.952
61215W        W32831   1.325   4.687  12.586
61216W        W32832   8.374  39.039   2.262
61217W        W32833  32.226  16.303   0.390
61218W        W32834  17.688  15.542   2.747
61219W        W32835  41.111  43.572  12.416
61220W        W32836   1.075  29.151  10.552
61221W        W32837  17.720   9.388  14.536
61222W        W32838  37.837  25.890  14.791
61223W        W32839  21.015  10.427  11.341
61224W        W32840   4.236  29.043   4.515
61225W        W32841  31.524   4.958   3.657
61226W        W32842  43.554  41.885   0.468
61227W        W32843  19.565  24.525   0.366
61228W        W32844  28.126  12.583  12.465
61229W        W32845  36.494  43.002   2.896
61230W        W32846  27.039  37.995   0.874
61231W        W32847  18.885  28.108  13.007
61232W        W32848  37.968  43.017  12.330
61233W        W32849  21.600   5.666  11.479
61234W        W32850   4.483  40.944   0.283
61235W        W32851  13.683   8.755   4.104
61236W        W32852  12.882  34.430   1.214
61237W        W32853   5.393  19.511   2.825
61238W        W32854   0.851  16.979  10.307
61239W        W32855  23.479  14.014   3.303
61240W        W32856  23.008  41.413  12.132
61241W        W32857  18.581  33.615  14.258
61242W        W32858  31.447  32.060   4.417
61243W        W32859  37.235  42.492  13.954
61244W        W32860  22.295  25.444   4.410
61245W        W32861  26.111   8.853  12.769
61246W        W32862  14.301   5.787   0.339
61247W        W32863  42.409  38.742   2.656
61248W        W32864  23.324  18.222   1.468
61249W        W32865  26.616  16.640   3.638
61250W        W32866  28.115  10.356  13.483
61251W        W32867  25.097   8.944   1.912
61252W        W32868  36.909  33.394  13.921
61253W        W32869  22.008  16.252   2.723
61254W        W32870  10.037  34.938   2.676
61255W        W32871  10.806  35.782   4.272
61256W        W32872  13.537  16.935   3.671
61257W        W32873  35.209  26.910  12.841
61258W        W32874   8.856  17.173   2.279
61259W        W32875  33.693  32.631   2.848
61260W        W32876  19.439  24.520  11.987
61261W        W32877  23.955  20.901  12.115
61262W        W32878  39.349  40.050   0.743
61263W        W32879   5.834  26.602   4.389
61264W        W32880  24.687  33.883   3.381
61265W        W32881   2.247   8.769  10.907
61266W        W32882  28.412  12.365  14.509
61267W        W32883  23.414  34.911  13.993
61268W        W32884  17.745  12.911  13.494
61269W        W32885  10.824  24.648   3.213
61270W        W32886  13.148  34.382  14.007
61271W        W32887  40.880  16.836  12.425
61272W        W32888  36.084   1.976   2.765
61273W        W32889  23.275   0.870   3.092
61274W        W32890  21.112  39.789  10.619
61275W        W32891   6.773   1.185  13.041
61276W        W32892  20.563  18.678  14.817
61277W        W32893  29.269  35.770  12.300
61278W        W32894  25.487  20.136   0.297
61279W        W32895  33.470   3.801   3.755
61280W        W32896  35.516  11.291   1.639
61281W        W32897  22.729  42.343   1.440
61282W        W32898   5.751  10.884  10.681
61283W        W32899  30.622  42.894   3.156
61284W        W32900   2.956  37.292   2.206
61285W        W32901  33.043   8.223  11.924
61286W        W32902  36.643  24.174  12.548
61287W        W32903  33.888  14.095   2.776
61288W        W32904  25.750  40.458   2.111
61289W        W32905  36.478  21.027  11.004
61290W        W32906   3.756  31.676   0.300
61291W        W32907   6.260   4.079   3.827
61292W        W32908  36.993  24.298   3.560
61293W        W32909   6.130  29.656  12.542
61294W        W32910  41.964   6.085  11.680
61295W        W32911  36.323  29.422   5.056
61296W        W32912  35.930  21.001   0.520
61297W        W32913  25.697  39.402   1.278
61298W        W32914  39.949  14.047   1.424
61299W        W32915  39.338  29.539   3.159
61300W        W32916  44.455  14.319   4.576
61301W        W32917   2.832  20.756   3.508
61302W        W32918  15.273  44.715   2.733
61303W        W32919   1.414   6.947   0.477
61304W        W32920  35.167  30.681  11.248
61305W        W32921  11.180  38.957  11.232
61306W        W32922  27.533  21.770   4.299
61307W        W32923  30.050  36.509  13.731
61308W        W32924  31.945  31.038  10.671
61309W        W32925  37.808  23.427  13.644
61310W        W32926  23.520  30.814   1.859
61311W        W32927  20.045   9.851  12.683
61312W        W32928   6.271  32.656  14.759
61313W        W32929   0.418  10.383   2.931
61314W        W32930  35.850  16.202   2.392
61315W        W32931  24.154  32.721   1.865
61316W        W32932  37.172   3.441   2.159
61317W        W32933  39.363  13.290  14.049
61318W        W32934  22.783  28.055  12.049
61319W        W32935  23.075  44.966   1.993
61320W        W32936  20.293  33.173   4.131
61321W        W32937   3.319  24.876   1.735
61322W        W32938  20.209  36.938   4.391
61323W        W32939  29.901  38.103  10.426
61324W        W32940  32.895  19.975   0.993
61325W        W32941  22.433  28.499  13.552
61326W        W32942  16.321  37.962  14.311
61327W        W32943  17.626  37.502   0.715
61328W        W32944  18.047  13.636  10.792
61329W        W32945  38.817  38.799   1.780
61330W        W32946  40.870  13.599   4.595
61331W        W32947  15.029  39.940   4.680
61332W        W32948  16.859  14.633  14.272
61333W        W32949  31.909  22.569   1.759
61334W        W32950  13.850  20.220  12.525
61335W        W32951  15.418   7.928  11.559
61336W        W32952   1.726  42.178   2.667
61337W        W32953  27.067  19.371  14.252
61338W        W32954  17.267  18.103  10.038
61339W        W32955  26.373  23.650   2.824
61340W        W32956  43.776  15.680   0.489
61341W        W32957  19.946  34.405   4.651
61342W        W32958   8.648  22.236  12.487
61343W        W32959  17.837   5.761  11.159
61344W        W32960   5.501  13.097   2.325
61345W        W32961  20.217  36.508   3.036
61346W        W32962   1.794  21.074   4.054
61347W        W32963  10.176  19.751   1.398
61348W        W32964   5.358  13.170   1.350
61349W        W32965  20.112   8.911  10.725
61350W        W32966   1.270  28.654  12.553
61351W        W32967  15.325  17.397   3.705
61352W        W32968  12.915   7.225  11.341
61353W        W32969  11.693  25.677   2.752
61354W        W32970  28.241  28.558  13.350
61355W        W32971  20.938   0.304  14.781
61356W        W32972  39.138   6.358  12.874
61357W        W32973  22.533  32.373   1.514
61358W        W32974   5.799  31.821  14.940
61359W        W32975  43.688  37.542   4.592
61360W        W32976  17.193   2.996   1.693
61361W        W32977  30.596   3.474   2.749
61362W        W32978  11.744  41.686   1.904
61363W        W32979   7.332  14.210   3.316
61364W        W32980  26.064  17.382   3.723
61365W        W32981  29.175  10.032   0.738
61366W        W32982  27.492  17.339  14.849
61367W        W32983  39.392  44.392   4.730
61368W        W32984  23.804   3.968  13.443
61369W        W32985  36.815  28.620   0.392
61370W        W32986   0.624  24.901   5.564
61371W        W32987  24.048  44.469   3.198
61372W        W32988  30.184  37.369   2.827
61373W        W32989  18.001  42.887   1.810
61374W        W32990   6.675  24.064  10.706
61375W        W32991   9.147  27.102   3.254
61376W        W32992  33.433   8.660   2.654
61377W        W32993  41.246   9.445   0.397
61378W        W32994   6.428  39.647   0.374
61379W        W32995  29.669   7.195   2.621
61380W        W32996  20.288   0.428   0.390
61381W        W32997  13.937   4.479   1.185
61382W        W32998  13.691  17.567   4.921
61383W        W32999  31.270  22.956   2.566
61384W        W33000   9.235  31.203   0.002
61385W        W33001   8.802  42.320   1.255
61386W        W33002  11.153  21.692  12.305
61387W        W33003   7.748  19.983  11.215
61388W        W33004  36.431  27.262  13.460
61389W        W33005  34.863  10.662   0.321
61390W        W33006   4.413  39.522  13.379
61391W        W33007  17.201  39.997   4.614
61392W        W33008  35.424  27.158   0.445
61393W        W33009  35.322  18.778   1.430
61394W        W33010  41.764   5.769  10.411
61395W        W33011   0.737  43.834   4.865
61396W        W33012   6.380  20.270   1.565
61397W        W33013  39.194  35.655   0.395
61398W        W33014  38.291  28.932  14.436
61399W        W33015  43.818   6.048   3.720
61400W        W33016  11.567  40.254  14.879
61401W        W33017  26.254  20.506   1.209
61402W        W33018  17.822   1.984   4.633
61403W        W33019  16.271   9.892   2.732
61404W        W33020  33.530   2.264  14.332
61405W        W33021   8.816  32.908  11.112
61406W        W33022  33.336  26.095  14.540
61407W        W33023  35.881  30.033   4.812
61408W        W33024  44.324  31.493  12.460
61409W        W33025  10.789   7.560  14.367
61410W        W33026   3.860  29.012   1.686
61411W        W33027  10.865  13.587  12.994
61412W        W33028  43.776   7.626   0.207
61413W        W33029  18.326  34.102  11.573
61414W        W33030   0.892  29.716  12.365
61415W        W33031   5.951  19.573  11.128
61416W        W33032  13.532  35.608  11.074
61417W        W33033  13.730   8.874  14.403
61418W        W33034  44.414   3.340   1.174
61419W        W33035  42.003   9.702   0.716
61420W        W33036   4.444   1.786  14.673
61421W        W33037  25.037  16.161   5.154
61422W        W33038  34.436  15.734   0.691
61423W        W33039  14.846   8.837   0.870
61424W        W33040  41.055  17.884  11.594
61425W        W33041  23.434  35.161  14.456
61426W        W33042  12.833  14.573  12.409
61427W        W33043   9.151   6.190   3.578
61428W        W33044  42.030  38.816  13.384
61429W        W33045  15.121   6.684   1.787
61430W        W33046  36.282  19.364  12.394
61431W        W33047  35.056  10.226   2.280
61432W        W33048  40.095  15.318   3.099
61433W        W33049  31.679  23.726   3.572
61434W        W33050  31.164  33.608   2.799
61435W        W33051  32.238  34.669   3.276
61436W        W33052  41.409  41.116  12.014
61437W        W33053  19.736  44.372   3.133
61438W        W33054   0.912   6.305  13.629
61439W        W33055  31.004  34.389   4.666
61440W        W33056  26.710  22.789  11.493
61441W        W33057  31.213  12.183  12.857
61442W        W33058  37.952  43.208   2.705
61443W        W33059  15.664  15.572   2.650
61444W        W33060  19.563  35.543   2.345
61445W        W33061  34.924  38.042   0.360
61446W        W33062  10.951  29.955   1.716
61447W        W33063  37.300  11.657  14.864
61448W        W33064   0.515  36.614  10.625
61449W        W33065  34.556  31.613  12.448
61450W        W33066  34.022   0.346  10.196
61451W        W33067  39.889   1.775  14.933
61452W        W33068  41.796  15.669  12.418
61453W        W33069  43.679  27.329   2.699
61454W        W33070  10.848  12.625   1.348
61455W        W33071  10.699  16.391   2.703
61456W        W33072  26.159  11.436  12.629
61457W        W33073  16.540   2.775   4.672
61458W        W33074  34.892  12.841  13.957
61459W        W33075   7.456  27.520   3.687
61460W        W33076   8.272   1.714   4.308
61461W        W33077  36.597  35.929   1.740
61462W        W33078  15.644   3.977   1.714
61463W        W33079  37.572  25.912  13.596
61464W        W33080  13.731  34.190   3.913
61465W        W33081  12.284  25.599  12.412
61466W        W33082  10.852  43.822   2.786
61467W        W33083  39.437  20.181  14.589
61468W        W33084   7.218  12.541   1.764
61469W        W33085  12.628  16.496  12.383
61470W        W33086  27.293  30.446   2.937
61471W        W33087  42.104  42.455  10.977
61472W        W33088  12.392  19.611  14.816
61473W        W33089  33.230  19.093  13.429
61474W        W33090  15.755   8.268  13.762
61475W        W33091  22.200  12.860   1.473
61476W        W33092  36.153  30.543   4.708
61477W        W33093   8.757  10.503  13.527
61478W        W33094  11.164  34.115  11.575
61479W        W33095  34.137   4.753  12.070
61480W        W33096  26.585  29.397  12.096
61481W        W33097  35.388   8.729   3.708
61482W        W33098   7.361  14.612   0.921
61483W        W33099  25.069   2.007  13.851
61484W        W33100   2.958  19.600   1.437
61485W        W33101  37.444  24.252  10.760
61486W        W33102  26.648  33.554   3.666
61487W        W33103  29.551  33.635   4.085
61488W        W33104  14.142  32.931   2.299
61489W        W33105   0.163  13.277  13.772
61490W        W33106  20.112  40.516   9.855
61491W        W33107   5.853  14.910  13.841
61492W        W33108  43.861  34.529  10.462
61493W        W33109  31.817   6.030  11.863
61494W        W33110  42.151  41.252   1.432
61495W        W33111  24.548  15.095  10.517
61496W        W33112  14.490  27.196  14.360
61497W        W33113  33.544  18.091  12.599
61498W        W33114  30.059  17.491   1.052
61499W        W33115  20.929  41.195   4.222
61500W        W33116  33.032  35.117   3.665
61501W        W33117   5.202  16.139   3.922
61502W        W33118  20.542  13.236  10.661
61503W        W33119  14.357  26.929  11.985
61504W        W33120  21.080   4.663   0.870
61505W        W33121   9.701  41.581   4.566
61506W        W33122  17.694  22.548  11.612
61507W        W33123   2.222   9.119  14.311
61508W        W33124   4.793  40.476   2.740
61509W        W33125  18.694  32.037  13.922
61510W        W33126  44.550  41.272   2.050
61511W        W33127  42.541  30.480  11.518
61512W        W33128  21.185  17.016  13.961
61513W        W33129  33.405   2.195  14.831
61514W        W33130  33.614   8.199   3.666
61515W        W33131  29.094  10.164   0.190
61516W        W33132   9.841  18.742  12.390
61517W        W33133  23.785  20.556   2.293
61518W        W33134   7.744  17.660  12.957
61519W        W33135  40.381   1.101  11.997
61520W        W33136  17.726  36.798   3.408
61521W        W33137  28.117  43.498  14.934
61522W        W33138  33.363  23.057  10.482
61523W        W33139  19.696  20.120   0.231
61524W        W33140   7.312  12.536   0.752
61525W        W33141   8.599  40.745  11.199
61526W        W33142  20.207   4.384  13.824
61527W        W33143  19.870  10.866   3.655
61528W        W33144  22.842  20.019  11.640
61529W        W33145  11.665   1.864   0.851
61530W        W33146  39.840   0.194  14.477
61531W        W33147  18.119  41.586   0.347
61532W        W33148  21.372  41.912   2.690
61533W        W33149  22.128  33.068   3.945
61534W        W33150   9.174  12.216   3.142
61535W        W33151  11.065  18.313  14.821
61536W        W33152  32.381  38.268  11.856
61537W        W33153  10.399  30.330  12.062
61538W        W33154   2.052  14.159   4.201
61539W        W33155  13.025   0.102   3.533
61540W        W33156  24.122  14.188   0.768
61541W        W33157  16.794   3.412  12.318
61542W        W33158  24.901   7.323   4.637
61543W        W33159  43.957  12.260   3.404
61544W        W33160   3.438  12.236  14.894
61545W        W33161  22.203  33.943   1.741
61546W        W33162  41.242  22.990  11.967
61547W        W33163  44.915  37.800  11.053
61548W        W33164  26.616  41.030   3.273
61549W        W33165  29.565   9.412   0.319
61550W        W33166  38.310  21.379  14.039
61551W        W33167  31.007  39.210  14.693
61552W        W33168  19.058  30.408  11.378
61553W        W33169   1.552  22.252  10.288
61554W        W33170   8.070  18.710  11.115
61555W        W33171  36.558  13.529  13.491
61556W        W33172  20.099  37.847  12.058
61557W        W33173  40.989  18.043   1.917
61558W        W33174  18.522  15.263   0.725
61559W        W33175  39.064  42.838  13.329
61560W        W33176  23.328  17.174  11.177
61561W        W33177   4.993  41.440   3.226
61562W        W33178  12.230   2.864   2.747
61563W        W33179  11.594  43.894   0.859
61564W        W33180  39.262  23.154   2.128
61565W        W33181  25.937  40.802   0.377
61566W        W33182  25.859   1.658   9.965
61567W        W33183  24.264  23.162  12.170
61568W        W33184  26.101   9.089  13.946
61569W        W33185  38.953  14.864  13.596
61570W        W33186  12.591  35.344   2.967
61571W        W33187   6.845  24.658   4.892
61572W        W33188   0.243  12.649   1.229
61573W        W33189  19.212  28.413  12.108
61574W        W33190  32.386  26.007   0.479
61575W        W33191   9.494  34.374  11.992
61576W        W33192  19.351  16.106  11.789
61577W        W33193  23.245   5.595   0.708
61578W        W33194   5.255   7.144   1.246
61579W        W33195   2.722   9.191  13.521
61580W        W33196  42.354   8.848  14.687
61581W        W33197  23.782   9.791  14.069
61582W        W33198  22.325  11.631   4.324
61583W        W33199  43.883  17.561  11.129
61584W        W33200  32.908  15.695   1.876
61585W        W33201  16.609  17.714  10.186
61586W        W33202  30.163  32.667  13.332
61587W        W33203  37.655   7.860  11.943
61588W        W33204  25.901  22.110   4.573
61589W        W33205   2.739   0.310  11.571
61590W        W33206  38.545  22.630  14.041
61591W        W33207   8.927  34.393   0.999
61592W        W33208  14.024   2.930   0.714
61593W        W33209   1.694  22.176  12.564
61594W        W33210  11.152  12.803  10.697
61595W        W33211   4.706   7.932   3.821
61596W        W33212  18.296  25.089  12.127
61597W        W33213  22.573   1.768  14.416
61598W        W33214  12.699  43.802  11.093
61599W        W33215  20.577  18.478  12.438
61600W        W33216   5.308  42.460  10.811
61601W        W33217   0.994  33.464   2.211
61602W        W33218  42.060  34.589  14.803
61603W        W33219  10.721  17.538  11.986
61604W        W33220  40.840  20.823  12.559
61605W        W33221  44.683   8.376  13.116
61606W        W33222   0.904  43.655  14.766
61607W        W33223  43.300   5.014  11.130
61608W        W33224  42.325  34.851  11.462
61609W        W33225  31.114  22.900  11.929
61610W        W33226  17.049  23.537  10.369
61611W        W33227  29.070   1.967   1.190
61612W        W33228  24.213  42.014  11.092
61613W        W33229  44.075  16.154  12.654
61614W        W33230   7.422  32.909   2.651
61615W        W33231  27.892  43.172   3.329
61616W        W33232  34.869  30.957  14.122
61617W        W33233  10.838  44.893  12.229
61618W        W33234  22.519  28.086  10.721
61619W        W33235  22.389  36.540   3.209
61620W        W33236  14.804  12.924   1.310
61621W        W33237  20.085  32.301  10.756
61622W        W33238  11.271  25.374   1.830
61623W        W33239  40.567   2.710   3.312
61624W        W33240  17.773  10.437   0.192
61625W        W33241  40.347  19.250  12.839
61626W        W33242  29.657  37.904  13.562
61627W        W33243  20.536  11.146  10.789
61628W        W33244  22.692  14.586  10.572
61629W        W33245  44.865   5.715  12.451
61630W        W33246  39.611  42.870  13.403
61631W        W33247   4.767   9.416  14.366
61632W        W33248  16.352  29.831   1.942
61633W        W33249  18.421  22.237   3.743
61634W        W33250  34.595  30.414   3.153
61635W        W33251   3.425  33.691   1.942
61636W        W33252   1.496  31.811  12.038
61637W        W33253  27.939  10.334  12.675
61638W        W33254  44.073  37.202   2.197
61639W        W33255  11.598  20.773  13.437
61640W        W33256  15.689   9.121   0.208
61641W        W33257  35.806  36.431  12.019
61642W        W33258   5.885  14.384  13.719
61643W        W33259  35.396  40.907   4.900
61644W        W33260  16.742  11.184  11.080
61645W        W33261  33.967  36.894   1.704
61646W        W33262  42.969   5.853  10.184
61647W        W33263  11.186  39.244  10.409
61648W        W33264  31.650  18.204  11.685
61649W        W33265  43.358  17.161   3.092
61650W        W33266  39.454  19.044   3.635
61651W        W33267  15.632  23.760  12.059
61652W        W33268   4.325  21.006   0.963
61653W        W33269   5.808  36.765   4.008
61654W        W33270  29.557  34.187   4.152
61655W        W33271  28.696  39.442  11.969
61656W        W33272   5.074   6.607  12.886
61657W        W33273  20.143  27.097  13.049
61658W        W33274  26.468  43.611  10.773
61659W        W33275  14.034   8.412   2.822
61660W        W33276  10.079   5.137   2.547
61661W        W33277  41.718  44.878  11.623
61662W        W33278  22.986   8.359   0.899
61663W        W33279   4.347   7.459  10.587
61664W        W33280  19.119  25.240  13.813
61665W        W33281  11.154  18.707  12.935
61666W        W33282   7.750   2.293   4.037
61667W        W33283  27.025  41.128   0.733
61668W        W33284  21.890  19.834   1.631
61669W        W33285   8.881   3.511   2.148
61670W        W33286  44.053  41.467   3.261
61671W        W33287  20.681  20.286  12.956
61672W        W33288   0.213  26.639   3.673
61673W        W33289   7.888  24.991   0.897
61674W        W33290  23.453  29.835  11.669
61675W        W33291  39.741  18.698   1.291
61676W        W33292  34.642   6.366  13.353
61677W        W33293  32.448  25.516  11.406
61678W        W33294  12.132  19.100  11.616
61679W        W33295  39.231  18.251  11.154
61680W        W33296  30.955   0.484  12.640
61681W        W33297  26.587  26.960  14.004
61682W        W33298  36.317   5.883  14.527
61683W        W33299   0.690  30.858  14.309
61684W        W33300  17.292  32.932  14.283
61685W        W33301  26.727  26.246   2.739
61686W        W33302   3.698   0.931   3.349
61687W        W33303  19.239  19.607  14.714
61688W        W33304   0.394   9.316   4.612
61689W        W33305  28.593  26.526  12.924
61690W        W33306  31.081   7.777   5.025
61691W        W33307  14.512  15.808  14.480
61692W        W33308  31.148  32.206  14.837
61693W        W33309  42.409  28.923   4.542
61694W        W33310  34.949  40.774   2.703
61695W        W33311   3.279   8.385   0.670
61696W        W33312  40.592  10.068  13.359
61697W        W33313   3.714  25.889   0.310
61698W        W33314   8.637  23.121  14.335
61699W        W33315  33.108   1.432   0.452
61700W        W33316  43.231  32.652  13.321
61701W        W33317  32.226  26.036   2.753
61702W        W33318  14.496  31.731   3.707
61703W        W33319  17.823  14.078  12.924
61704W        W33320  17.626   7.197   1.782
61705W        W33321   9.451  37.479  12.345
61706W        W33322  23.112  41.223   4.565
61707W        W33323  35.951  20.669  13.324
61708W        W33324  25.561  20.214  14.431
61709W        W33325   1.837  28.781   3.361
61710W        W33326   9.976  39.286   4.092
61711W        W33327  37.901  24.005  10.819
61712W        W33328  15.966  34.462   4.180
61713W        W33329  15.313  36.191  12.491
61714W        W33330  40.798  12.654  10.668
61715W        W33331  14.824  15.229   2.802
61716W        W33332  14.211  13.686   3.161
61717W        W33333  19.692  25.385   4.424
61718W        W33334   1.539  30.420   3.119
61719W        W33335  40.768  20.514  12.131
61720W        W33336  18.182  22.758   3.663
61721W        W33337  11.905  38.329  13.126
61722W        W33338  10.351  23.685  10.688
61723W        W33339  19.095  33.508   0.081
61724W        W33340   2.474  25.209   0.801
61725W        W33341  23.636  14.278   0.499
61726W        W33342  13.642  37.602   2.508
61727W        W33343  24.938   7.111   2.768
61728W        W33344  43.379   4.000  12.152
61729W        W33345  22.509  21.282  13.520
61730W        W33346  41.979   8.309  13.772
61731W        W33347  15.049  18.793   5.427
61732W        W33348  42.012  37.584   4.587
61733W        W33349  33.471  35.523  14.978
61734W        W33350   8.235  34.226   1.808
61735W        W33351  14.680  30.715   0.153
61736W        W33352  32.152  14.395   3.570
61737W        W33353  33.159  23.831   3.798
61738W        W33354  13.110  42.126   1.928
61739W        W33355  27.231  32.890   1.268
61740W        W33356  17.223  10.196  14.395
61741W        W33357   0.283  15.303  11.615
61742W        W33358  27.676  13.787  11.975
61743W        W33359  17.212  39.025  10.373
61744W        W33360  35.575  21.109   4.623
61745W        W33361  26.017  25.382   2.422
61746W        W33362  21.503  13.339   4.209
61747W        W33363  40.034  22.767   0.549
61748W        W33364  19.556  30.104  13.295
61749W        W33365  19.314  40.120  10.707
61750W        W33366  13.999   9.862   0.487
61751W        W33367   2.541  33.973  12.456
61752W        W33368  43.772  14.194  12.273
61753W        W33369  25.098  40.106   3.238
61754W        W33370  32.123  23.998   1.421
61755W        W33371   4.522   4.661   1.530
61756W        W33372   8.426  30.109   2.364
61757W        W33373  43.732  26.683   0.832
61758W        W33374  39.677  35.561   0.502
61759W        W33375   1.890  21.804  12.257
61760W        W33376  28.990   9.873  13.502
61761W        W33377   2.732  22.629   5.060
61762W        W33378  17.501   0.283  11.477
61763W        W33379  10.312   5.501  14.218
61764W        W33380  27.046  16.322  10.709
61765W        W33381  15.371   8.566  11.094
61766W        W33382  21.542  15.129   2.381
61767W        W33383  34.608  19.018   2.809
61768W        W33384  36.595  24.798  12.413
61769W        W33385  19.579  42.322   3.734
61770W        W33386  28.548  13.682   3.224
61771W        W33387   3.493  23.663  12.547
61772W        W33388  30.384  36.509   0.504
61773W        W33389  31.458  38.052   2.306
61774W        W33390   0.868  10.223   3.165
61775W        W33391  25.632  23.787  11.416
61776W        W33392  41.467  32.075   1.207
61777W        W33393  40.317  35.971  11.963
61778W        W33394  38.312  25.574   3.675
61779W        W33395  19.923  17.470   0.957
61780W        W33396   5.792   0.529  14.927
61781W        W33397   3.483  40.875   4.057
61782W        W33398  11.252  40.398   1.756
61783W        W33399  26.144  22.732   2.765
61784W        W33400   2.463  34.459  14.436
61785W        W33401  40.992  15.167   0.728
61786W        W33402  10.238  31.977  11.621
61787W        W33403  13.972  21.073   1.872
61788W        W33404  36.015  21.376   4.551
61789W        W33405  43.022   9.916  14.713
61790W        W33406  10.085  31.148   2.289
61791W        W33407  30.428  39.237   4.154
61792W        W33408  40.431  26.057  14.066
61793W        W33409  11.542  34.733  12.092
61794W        W33410   9.213  32.862   3.238
61795W        W33411  24.716  16.567   4.464
61796W        W33412  38.277  10.801   9.927
61797W        W33413  16.761  13.260  13.273
61798W        W33414  35.956  29.025  14.786
61799W        W33415  11.506  32.141   3.116
61800W        W33416  29.542  40.623   3.076
61801W        W33417  14.133   7.195  10.533
61802W        W33418  40.335  44.026  12.991
61803W        W33419   3.483  28.760  11.573
61804W        W33420  25.594   4.763   1.825
61805W        W33421  19.593  32.032   2.387
61806W        W33422  11.657  21.727  11.457
61807W        W33423  21.061   8.235   1.791
61808W        W33424  41.044  36.703   2.039
61809W        W33425  27.697  23.034  13.520
61810W        W33426  43.992  11.378  13.014
61811W        W33427  12.929  33.495   3.260
61812W        W33428  34.602  19.973   4.601
61813W        W33429   0.101  21.160  13.187
61814W        W33430  18.803  44.988   3.302
61815W        W33431  25.141  10.925  14.722
61816W        W33432  44.482  25.957   0.968
61817W        W33433  29.940  24.993  11.378
61818W        W33434   2.873  36.511   0.016
61819W        W33435  27.033  39.974  13.415
61820W        W33436  36.827  22.031  10.706
61821W        W33437   8.033  41.340  14.850
61822W        W33438  11.286   1.473  11.417
61823W        W33439  10.169  31.863  12.453
61824W        W33440  39.994  27.863   3.347
61825W        W33441  24.115  34.372   0.214
61826W        W33442   0.496  28.587  11.949
61827W        W33443   2.425  29.881   0.811
61828W        W33444   2.523   2.494  12.576
61829W        W33445  18.678  32.372   4.144
61830W        W33446   1.337   2.678   1.933
61831W        W33447  36.153  28.986  12.415
61832W        W33448  12.147  34.867  11.110
61833W        W33449   0.502  39.392   1.221
61834W        W33450  12.126  21.995  11.400
61835W        W33451   6.430   8.278  10.711
61836W        W33452  39.560  11.697   0.918
61837W        W33453   2.809  40.769  10.742
61838W        W33454   0.349   0.373  13.362
61839W        W33455  42.438  34.184   4.196
61840W        W33456  33.933  16.879  13.594
61841W        W33457  34.576  31.927   4.535
61842W        W33458  19.694   4.819  12.545
61843W        W33459   8.395   6.859   0.858
61844W        W33460  27.709   0.789  13.143
61845W        W33461  23.709   5.345  10.730
61846W        W33462  28.414  13.046  13.120
61847W        W33463  36.991  38.937   4.205
61848W        W33464  26.643  17.438  10.070
61849W        W33465  15.784  41.112  12.883
61850W        W33466  32.479  22.213   3.247
61851W        W33467  32.055   5.204   2.761
61852W        W33468   5.940  32.014   0.401
61853W        W33469  38.863   8.623   0.406
61854W        W33470  40.482  24.162  12.110
61855W        W33471  39.890  17.120  14.469
61856W        W33472   9.217  31.048  12.650
61857W        W33473  39.967  34.760   4.299
61858W        W33474  25.451   2.923  11.212
61859W        W33475  39.419  33.943   2.166
61860W        W33476   7.141  20.060   4.677
61861W        W33477  11.227   4.394   0.899
61862W        W33478   4.368   6.434  11.439
61863W        W33479  31.303  27.010  12.038
61864W        W33480   8.197  35.571  12.490
61865W        W33481  26.274  41.628   5.070
61866W        W33482  44.733   5.798  14.298
61867W        W33483  15.682  25.211   0.414
61868W        W33484  31.695  26.399   0.773
61869W        W33485  27.000  11.856  11.857
61870W        W33486  38.229  21.749   2.738
61871W        W33487  35.341  44.898  13.510
61872W        W33488  44.838  20.678  12.974
61873W        W33489  13.236   1.520  13.732
61874W        W33490  44.647   5.851   0.323
61875W        W33491  13.119  22.270   1.362
61876W        W33492  41.533  35.282   0.684
61877W        W33493  13.656  25.603  14.045
61878W        W33494  12.729  22.339  13.052
61879W        W33495  13.627  43.466   1.958
61880W        W33496  43.702  26.652   4.180
61881W        W33497  36.331  21.088   3.456
61882W        W33498  34.932  23.482   0.797
61883W        W33499  31.392  13.900   3.133
61884W        W33500   1.465  15.103   4.102
61885W        W33501  39.764   6.834   3.430
61886W        W33502  30.536   1.484  12.006
61887W        W33503   5.452   4.360  14.335
61888W        W33504  17.835  22.535   4.254
61889W        W33505  12.688   3.903   3.257
61890W        W33506  13.055  36.434   3.889
61891W        W33507  38.288  10.195   3.613
61892W        W33508   2.209  27.893   4.146
61893W        W33509  35.018  36.819   1.766
61894W        W33510  36.834  13.107  12.884
61895W        W33511  31.914  41.792  14.276
61896W        W33512  37.911  29.508  13.900
61897W        W33513  22.492  28.895   1.373
61898W        W33514  37.441   9.097   1.517
61899W        W33515  10.559  36.946  13.816
61900W        W33516  15.346  39.917  12.118
61901W        W33517   4.265  11.330   1.835
61902W        W33518  40.887  24.764   0.790
61903W        W33519  16.630  11.814  11.800
61904W        W33520   3.535  30.407   5.033
61905W        W33521  41.425  14.369   4.599
61906W        W33522   2.556  23.573   3.609
61907W        W33523  10.249  13.380   0.527
61908W        W33524   7.388  18.988   1.699
61909W        W33525  29.532   7.939  11.481
61910W        W33526  36.939  25.745  12.895
61911W        W33527  31.572  34.622  11.099
61912W        W33528  35.224  17.270  10.306
61913W        W33529  32.474  23.553   2.267
61914W        W33530  26.387  41.930  14.580
61915W        W33531   3.344  29.033   1.829
61916W        W33532   2.476   5.253   2.838
61917W        W33533  41.255  29.974   0.019
61918W        W33534  21.085  16.359  10.962
61919W        W33535  43.742  31.605   2.992
61920W        W33536  31.141  20.132   2.684
61921W        W33537  10.877  32.389   1.160
61922W        W33538  31.030  19.065   3.174
61923W        W33539   1.133  22.644  10.182
61924W        W33540  38.803  11.576  11.453
61925W        W33541  24.254  35.902   2.687
61926W        W33542  37.038  35.664   0.893
61927W        W33543  25.801  42.587   0.699
61928W        W33544   8.947   4.916   3.719
61929W        W33545  21.294  17.533   1.506
61930W        W33546  10.626   8.821   0.308
61931W        W33547  34.514   8.797   1.088
61932W        W33548  21.218  13.897  10.666
61933W        W33549  10.277  34.628  11.362
61934W        W33550   0.883  21.211   1.233
61935W        W33551  23.421  31.890   2.322
61936W        W33552  24.090  36.798  14.918
61937W        W33553  20.047  25.215  13.943
61938W        W33554  14.143  12.720   4.152
61939W        W33555  43.450  27.013   3.409
61940W        W33556  38.422  28.245  10.893
61941W        W33557  16.645   0.765  13.106
61942W        W33558  24.012  29.037   5.083
61943W        W33559  44.442   9.472   2.700
61944W        W33560  33.928  34.670   1.868
61945W        W33561  44.299  35.510   2.553
61946W        W33562  31.460  16.803  10.498
61947W        W33563  35.448  15.573   3.309
61948W        W33564   5.927  41.216   3.135
61949W        W33565  22.009  21.602   4.472
61950W        W33566  28.649  40.275   1.532
61951W        W33567  33.940  38.591  14.441
61952W        W33568  31.467  12.719  14.508
61953W        W33569  34.138  30.147  13.364
61954W        W33570   0.725   7.609   0.408
61955W        W33571   0.866  23.124   0.921
61956W        W33572  11.851  33.828   3.395
61957W        W33573  16.045  25.938  10.985
61958W        W33574  12.221  22.767   4.081
61959W        W33575  23.343   6.231   3.752
61960W        W33576  34.193   5.748  12.831
61961W        W33577  15.461  19.542  10.966
61962W        W33578  18.759  11.692  11.997
61963W        W33579  39.250  36.009  14.180
61964W        W33580  27.423  24.243   1.657
61965W        W33581  18.422  35.779   2.168
61966W        W33582  44.225   9.448   1.723
61967W        W33583  31.942   0.698  11.897
61968W        W33584   8.930  42.001  11.691
61969W        W33585  22.199  28.024  11.420
61970W        W33586  34.842   9.231   1.796
61971W        W33587   9.589  42.040   1.226
61972W        W33588  23.355  21.672  10.614
61973W        W33589  20.581  17.651  13.940
61974W        W33590  35.461  44.837  13.009
61975W        W33591  29.523  14.439  10.688
61976W        W33592  41.964   2.846   0.238
61977W        W33593  43.133  26.558  11.014
61978W        W33594  14.818  35.393  11.036
61979W        W33595  15.568  12.006  14.502
61980W        W33596  31.655  41.543  13.892
61981W        W33597  35.047   5.187  13.945
61982W        W33598   3.738   1.425   9.682
61983W        W33599   8.141  13.259  12.482
61984W        W33600  42.873  10.326  14.964
61985W        W33601  33.193  43.948   0.391
61986W        W33602  38.454   1.958   4.707
61987W        W33603  24.075  21.691   1.746
61988W        W33604   1.388  39.526  11.568
61989W        W33605   7.414  16.628   1.428
61990W        W33606  14.168  23.359  14.764
61991W        W33607   3.416  24.705  14.417
61992W        W33608   4.491  43.076  14.883
61993W        W33609   5.939  37.559  12.511
61994W        W33610   9.376  17.274   0.083
61995W        W33611  16.428  24.117   0.220
61996W        W33612  28.199  10.767  12.554
61997W        W33613   4.162  37.204  11.871
61998W        W33614  31.029  25.214   0.888
61999W        W33615  18.034  24.189  12.518
62000W        W33616   6.954  15.582   4.194
62001W        W33617   2.818   7.937  14.121
62002W        W33618  44.748  38.227   3.668
62003W        W33619  11.827  26.261   1.844
62004W        W33620  33.049  10.862   2.785
62005W        W33621  11.574   0.702  13.475
62006W        W33622  27.052  18.332  13.555
62007W        W33623  36.115  39.288  11.935
62008W        W33624  25.792  20.112  12.159
62009W        W33625  12.012  29.361  10.693
62010W        W33626   5.184  37.955  14.659
62011W        W33627  30.604  28.215  12.993
62012W        W33628  15.264  35.409  10.744
62013W        W33629  10.466  18.006  11.229
62014W        W33630  29.406  41.347  12.603
62015W        W33631  40.477  23.549   1.860
62016W        W33632   9.352  13.678   0.244
62017W        W33633   4.796  36.469   1.227
62018W        W33634  19.561  11.850  13.128
62019W        W33635  21.536  22.316   0.535
62020W        W33636  32.760  10.755   1.434
62021W        W33637  22.171  35.525  13.617
62022W        W33638  19.773  43.015  11.694
62023W        W33639  22.567  14.357   2.913
62024W        W33640  39.438  42.674   3.169
62025W        W33641  23.447  30.039  12.143
62026W        W33642   0.588  35.621  14.369
62027W        W33643   7.318  34.382  11.148
62028W        W33644  38.042  24.569   4.168
62029W        W33645  13.181  21.101   3.619
62030W        W33646   8.161   7.308   3.664
62031W        W33647   8.071   6.643   1.203
62032W        W33648  26.198   3.481   3.750
62033W        W33649  43.832  23.502  11.723
62034W        W33650  38.397  41.102   2.403
62035W        W33651   4.279  16.644  12.723
62036W        W33652  39.156  20.087  12.355
62037W        W33653  26.166   6.364   4.804
62038W        W33654  25.782  11.800   1.125
62039W        W33655  18.534  18.827  14.794
62040W        W33656  11.494  21.730  13.294
62041W        W33657  41.595  42.406  11.004
62042W        W33658  10.497  42.014  12.479
62043W        W33659   9.169  42.808  14.255
62044W        W33660  33.464  22.279   1.763
62045W        W33661  15.161  11.347  11.966
62046W        W33662  27.414   7.226   2.266
62047W        W33663  28.325   1.806  13.802
62048W        W33664  21.148  31.834   2.781
62049W        W33665   6.055  40.201  12.726
62050W        W33666   9.895  35.590  10.706
62051W        W33667  13.301   2.711  13.954
62052W        W33668  41.459   4.731   1.390
62053W        W33669  37.227  26.488  10.948
62054W        W33670  17.690  33.066  12.843
62055W        W33671   7.305  26.356   3.288
62056W        W33672  14.171   6.185  12.532
62057W        W33673  13.211  40.465  14.986
62058W        W33674  28.752  35.312   3.202
62059W        W33675  20.268  26.143   4.848
62060W        W33676  24.124  28.781  11.425
62061W        W33677  33.783  10.289  10.685
62062W        W33678   7.848  19.987  14.058
62063W        W33679  38.971   3.083   4.873
62064W        W33680   2.991  27.576   1.559
62065W        W33681  32.263  29.272   2.157
62066W        W33682  44.980   9.897   3.455
62067W        W33683  25.099   0.225   3.380
62068W        W33684   1.839   0.378   9.762
62069W        W33685  35.682  25.492   2.257
62070W        W33686  12.251  15.344   1.729
62071W        W33687  14.163  18.550  13.465
62072W        W33688  44.843  18.575   0.644
62073W        W33689   3.648  30.998  11.220
62074W        W33690  32.904  21.776  13.097
62075W        W33691  33.273  13.549   3.202
62076W        W33692  35.573   3.576  12.497
62077W        W33693  42.334  15.750  11.556
62078W        W33694  25.752  19.107  14.017
62079W        W33695  39.817  14.568  14.026
62080W        W33696  20.723  44.690  13.113
62081W        W33697  10.178  15.400  11.601
62082W        W33698  34.436  15.160   3.453
62083W        W33699   1.396  26.666   1.904
62084W        W33700  29.140  11.823   3.286
62085W        W33701   0.910  16.374  10.548
62086W        W33702  21.680  34.974  13.971
62087W        W33703  34.972  30.944   3.641
62088W        W33704  43.052  44.107   3.190
62089W        W33705   0.476  17.741   2.800
62090W        W33706   1.223  20.704  11.981
62091W        W33707  41.407  40.966  14.653
62092W        W33708  20.675  12.888   3.109
62093W        W33709  15.663  13.717   3.341
62094W        W33710  32.056  40.528  11.882
62095W        W33711  30.578  27.203  14.246
62096W        W33712   6.551  15.377   1.790
62097W        W33713  41.414  21.549   1.126
62098W        W33714  26.432  32.342   4.329
62099W        W33715   1.821  42.308  10.674
62100W        W33716   2.936  34.206  13.428
62101W        W33717  23.217  14.717  12.968
62102W        W33718  12.212  11.194   2.326
62103W        W33719  13.860  37.270  12.869
62104W        W33720  34.040   4.820   1.023
62105W        W33721  22.935  19.569   0.831
62106W        W33722  32.155   4.027   2.347
62107W        W33723   6.991  26.477  14.367
62108W        W33724  18.521  38.520   2.393
62109W        W33725  42.522  21.010  14.793
62110W        W33726  42.608   1.367  10.661
62111W        W33727  16.197  24.734   3.857
62112W        W33728  19.505   6.450   0.237
62113W        W33729  11.885  21.223  12.572
62114W        W33730  33.564  37.724  11.902
62115W        W33731   1.230   2.640   2.990
62116W        W33732  24.065   8.133  13.963
62117W        W33733   9.598  11.856  10.682
62118W        W33734  29.294   0.377  11.126
62119W        W33735  15.219  43.381   0.479
62120W        W33736  32.180  44.873  11.423
62121W        W33737  25.260  34.604   2.927
62122W        W33738   9.139  42.431  10.605
62123W        W33739  31.967  19.238   4.089
62124W        W33740  40.133  22.245  12.048
62125W        W33741  38.677   1.447  11.311
62126W        W33742   5.900  18.465  13.472
62127W        W33743  21.001  16.709   2.139
62128W        W33744  35.943  21.772  11.145
62129W        W33745   1.366   2.494   4.662
62130W        W33746   9.272  29.372  10.627
62131W        W33747  17.622  43.292  10.289
62132W        W33748  12.219  36.832  10.994
62133W        W33749  24.398  18.979  11.703
62134W        W33750  11.510  23.431  13.193
62135W        W33751   1.588   1.654  14.862
62136W        W33752   8.726  36.761   2.904
62137W        W33753   5.144  42.881   4.616
62138W        W33754  37.494   6.213   2.374
62139W        W33755   0.512  12.841   1.656
62140W        W33756  43.449   4.678  10.768
62141W        W33757  37.919  16.916   1.892
62142W        W33758  13.696  23.688  13.126
62143W        W33759   8.874  16.326  14.389
62144W        W33760  33.831  30.358   2.769
62145W        W33761  30.986   6.452   0.972
62146W        W33762  23.678   3.965  11.225
62147W        W33763  18.782  42.792   1.361
62148W        W33764   1.796  20.682  12.864
62149W        W33765  27.946  14.693   2.595
62150W        W33766  29.419  13.274  14.754
62151W        W33767  13.204  10.827   4.294
62152W        W33768  31.945   9.635   1.365
62153W        W33769  31.473   8.916  12.879
62154W        W33770   3.750  17.940  14.476
62155W        W33771  40.856   1.707   3.838
62156W        W33772   4.723  21.217   0.045
62157W        W33773  13.717  19.879  14.909
62158W        W33774  10.228  43.394   3.864
62159W        W33775  39.942  27.848   0.666
62160W        W33776  30.162  32.434  10.701
62161W        W33777  39.659  32.415   4.140
62162W        W33778  18.078  16.720   1.769
62163W        W33779  33.219  42.343  13.553
62164W        W33780  34.835  42.109   4.843
62165W        W33781  15.648  38.974  14.696
62166W        W33782  31.492   1.746   1.003
62167W        W33783  21.177  25.876   0.885
62168W        W33784  36.306  44.717   4.488
62169W        W33785   9.407   9.408  12.487
62170W        W33786  22.550  14.698  12.455
62171W        W33787  42.576  27.696   0.908
62172W        W33788  15.853  30.017   4.768
62173W        W33789  19.695  24.170  10.704
62174W        W33790  43.389  25.016   2.964
62175W        W33791  34.917  28.558  14.104
62176W        W33792  34.067   1.792  13.448
62177W        W33793  26.643   0.528  10.380
62178W        W33794  26.482  36.766   0.805
62179W        W33795  27.282  15.617   1.391
62180W        W33796  12.291  36.284  11.476
62181W        W33797  16.044  18.160   4.251
62182W        W33798  38.594  41.529  11.551
62183W        W33799   7.621   7.828  14.243
62184W        W33800  41.931   5.859   3.924
62185W        W33801  15.312  40.783   0.720
62186W        W33802  18.661  36.152  13.854
62187W        W33803  22.085   9.426   4.301
62188W        W33804  34.081   0.804   5.037
62189W        W33805   1.947  28.572  14.409
62190W        W33806  14.259  37.070   1.214
62191W        W33807   8.922   4.028  13.589
62192W        W33808  38.722  31.524   1.294
62193W        W33809  21.805   2.512  12.913
62194W        W33810   3.995  17.103  11.542
62195W        W33811  36.886  22.577  10.597
62196W        W33812  15.689  13.767  14.054
62197W        W33813  14.246  14.354   2.094
62198W        W33814  22.830   6.701  10.717
62199W        W33815  15.525  24.581  14.801
62200W        W33816  18.690  22.720   3.703
62201W        W33817  28.012  33.484   4.288
62202W        W33818  35.465  33.083  12.011
62203W        W33819   7.698   7.181  14.218
62204W        W33820  23.261  36.890  13.374
62205W        W33821  32.457  43.066   1.829
62206W        W33822  10.656  36.921  12.459
62207W        W33823  14.981  33.892   0.979
62208W        W33824  17.540  27.401   0.968
62209W        W33825  20.526   5.675   1.511
62210W        W33826  25.256  20.767   2.359
62211W        W33827  30.032   7.915   4.136
62212W        W33828  13.744  34.970  12.159
62213W        W33829  13.577   4.405   2.297
62214W        W33830  12.031  31.957   2.328
62215W        W33831   1.590  40.729  11.100
62216W        W33832  40.771  41.992   4.081
62217W        W33833   5.674  14.269  10.895
62218W        W33834  44.107  33.141  14.494
62219W        W33835  30.731   5.511  10.475
62220W        W33836  10.971   5.211  12.570
62221W        W33837  26.503  39.080  14.342
62222W        W33838   1.265  23.022   1.458
62223W        W33839  10.180  12.536   2.868
62224W        W33840  41.925  21.176  12.908
62225W        W33841  41.277  34.973   1.935
62226W        W33842   8.289  42.416   4.437
62227W        W33843   4.395  36.937  14.765
62228W        W33844   5.458  14.609   4.720
62229W        W33845  33.550  36.357   1.012
62230W        W33846  13.084   0.332   2.199
62231W        W33847  41.405   0.465  13.418
62232W        W33848   7.564  14.774  11.312
62233W        W33849  38.258  38.812  12.566
62234W        W33850  17.423  25.144  12.194
62235W        W33851  36.601   4.364   1.597
62236W        W33852  16.953  31.427   4.018
62237W        W33853  25.134  29.793  14.763
62238W        W33854  31.682  23.517  11.168
62239W        W33855  16.297  36.794  14.931
62240W        W33856  29.984  33.350   4.155
62241W        W33857   2.896  37.064  12.966
62242W        W33858   5.374  14.839  12.362
62243W        W33859  39.790  42.511  13.879
62244W        W33860  36.155  43.791   4.132
62245W        W33861  28.992   2.340   4.128
62246W        W33862  13.448  25.224   3.690
62247W        W33863   7.294  17.792  14.962
62248W        W33864  34.999  21.212   0.094
62249W        W33865  32.459   7.459  12.071
62250W        W33866  28.715   0.442   2.330
62251W        W33867   2.846  28.779  12.113
62252W        W33868  20.627   7.631  10.774
62253W        W33869  29.353  17.692   1.940
62254W        W33870  24.034   7.353  11.256
62255W        W33871  39.309  20.997   3.306
62256W        W33872  19.724  29.579  14.254
62257W        W33873  12.561  33.125   3.276
62258W        W33874  34.677  19.611  14.939
62259W        W33875  16.869  31.765   0.238
62260W        W33876  39.970  33.158   3.133
62261W        W33877   4.957  38.469   3.348
62262W        W33878  17.992  30.216  12.975
62263W        W33879  39.817   3.181  14.520
62264W        W33880  12.651  38.815  13.146
62265W        W33881   8.193  33.582   2.977
62266W        W33882  27.623  24.808   3.627
62267W        W33883  19.312  35.867   0.644
62268W        W33884   5.618  22.981  12.370
62269W        W33885  30.048  20.756  11.689
62270W        W33886  12.330  26.592   1.864
62271W        W33887  35.868  22.477   3.794
62272W        W33888  38.408  13.380   2.024
62273W        W33889  41.730  37.554   1.387
62274W        W33890   6.002   7.680   0.805
62275W        W33891  41.904   0.330  12.857
62276W        W33892  12.097  12.454   0.234
62277W        W33893  39.894  23.222  12.218
62278W        W33894  35.568  32.202  13.087
62279W        W33895  18.884  43.571  10.687
62280W        W33896   3.204  15.645  14.034
62281W        W33897  10.419  23.183   3.335
62282W        W33898   7.822  25.945   0.825
62283W        W33899  40.948  33.809  12.334
62284W        W33900   2.011  35.164  14.796
62285W        W33901   6.786   8.563   3.181
62286W        W33902  44.454  44.615  11.026
62287W        W33903  35.572   7.276   1.779
62288W        W33904  36.476  35.772   4.096
62289W        W33905   2.765  30.229  12.232
62290W        W33906  24.017  17.255  12.917
62291W        W33907  20.472  44.951   0.552
62292W        W33908   4.827  44.368   1.612
62293W        W33909  22.016  24.478   1.388
62294W        W33910  24.513  34.928  12.498
62295W        W33911  44.492  15.586   1.258
62296W        W33912   8.850  30.606   0.562
62297W        W33913   6.419  20.762   0.017
62298W        W33914  23.227  41.419  13.515
62299W        W33915  10.070   0.611  14.267
62300W        W33916  19.807  12.207  12.453
62301W        W33917   3.985  26.077  13.485
62302W        W33918  14.598  34.656   0.870
62303W        W33919   6.182   6.787   1.335
62304W        W33920  36.884  14.121  14.750
62305W        W33921  42.437  38.563  12.942
62306W        W33922  26.766  25.475  14.454
62307W        W33923  10.334  43.418  10.629
62308W        W33924  33.999  25.635   0.806
62309W        W33925   1.938  41.331   2.147
62310W        W33926  22.751  40.848   4.213
62311W        W33927  25.501  24.019  13.531
62312W        W33928  32.984  32.517   1.160
62313W        W33929  41.886  19.768  12.948
62314W        W33930  23.638  16.220  10.762
62315W        W33931  23.506  12.791   2.734
62316W        W33932   0.950   5.171   1.391
62317W        W33933  16.851  42.815   0.376
62318W        W33934   2.566  24.214  14.298
62319W        W33935  24.223  27.953   0.925
62320W        W33936  23.038   6.538  11.852
62321W        W33937  27.483   2.824   3.782
62322W        W33938   4.146  22.509   2.355
62323W        W33939  22.484  30.203   4.273
62324W        W33940  38.498  39.817   4.120
62325W        W33941   6.720   5.420  13.912
62326W        W33942  40.867  11.186   3.098
62327W        W33943  10.028   2.777  11.293
62328W        W33944  14.265  14.893  11.997
62329W        W33945  16.323  31.554  12.562
62330W        W33946  27.631  40.528  10.875
62331W        W33947  19.887  26.525  12.968
62332W        W33948  37.353  10.353  11.733
62333W        W33949  21.286  44.336   4.884
62334W        W33950  14.672  11.510   2.861
62335W        W33951  28.630   3.160   4.447
62336W        W33952  39.010  14.395  12.569
62337W        W33953  25.275  12.090   1.733
62338W        W33954   6.351  35.335  12.711
62339W        W33955  25.836  17.272  11.636
62340W        W33956  10.873  27.981  14.880
62341W        W33957  42.179  35.983   1.911
62342W        W33958  12.317  33.454  14.753
62343W        W33959  36.969  14.635  14.780
62344W        W33960  13.548  42.940  14.268
62345W        W33961  24.147  28.658   4.336
62346W        W33962   6.938  44.318   2.481
62347W        W33963  23.604  15.726   0.399
62348W        W33964  19.686   9.593  14.038
62349W        W33965   4.297  41.280   1.812
62350W        W33966  30.899  25.978  13.170
62351W        W33967   8.716  40.418   2.218
62352W        W33968  23.090  22.619   2.924
62353W        W33969   8.298  25.473  12.367
62354W        W33970  16.976  16.828   2.351
62355W        W33971   3.344   0.279   0.369
62356W        W33972  18.835  32.899  12.153
62357W        W33973  11.827  27.478  14.403
62358W        W33974  37.914  33.515  13.799
62359W        W33975   3.195  33.435  10.765
62360W        W33976   5.386  34.682   1.844
62361W        W33977  42.889  29.175   2.106
62362W        W33978  36.415   4.873  14.488
62363W        W33979  11.839   1.813   4.673
62364W        W33980  34.885  11.135   4.152
62365W        W33981  43.314  14.097  14.861
62366W        W33982   0.109  40.073  13.916
62367W        W33983  16.583  10.004   3.788
62368W        W33984  15.665   2.806   2.698
62369W        W33985  39.268  11.966   1.260
62370W        W33986   8.173  17.302   2.886
62371W        W33987   2.683  14.389  13.856
62372W        W33988  38.414  10.360  13.669
62373W        W33989  26.040  21.811  11.037
62374W        W33990   2.050  42.665  13.167
62375W        W33991  20.005   2.697   3.339
62376W        W33992  26.433  39.171   4.587
62377W        W33993  13.755  13.339   0.398
62378W        W33994   3.381  44.017   1.412
62379W        W33995  12.171  25.439  11.113
62380W        W33996  30.875   8.196   4.102
62381W        W33997  11.784  26.752  14.869
62382W        W33998  34.890  25.617   0.892
62383W        W33999   9.308  35.069  13.844
62384W        W34000   8.907  32.037  12.847
62385W        W34001  25.469   8.703   2.214
62386W        W34002   7.503   4.184   0.448
62387W        W34003  21.434  43.241   0.647
62388W        W34004  39.830  38.321   0.507
62389W        W34005  34.537  25.187   0.156
62390W        W34006  44.921  20.205  12.685
62391W        W34007  25.863  37.088  12.896
62392W        W34008  25.975  13.614   2.811
62393W        W34009  25.953  26.258   1.587
62394W        W34010  22.514  35.385  10.877
62395W        W34011  28.837  15.855   1.890
62396W        W34012   6.823   4.091   2.334
62397W        W34013   1.809  41.383   3.797
62398W        W34014  12.827  37.645  12.542
62399W        W34015  31.168   9.563  10.757
62400W        W34016  12.626  14.181   2.901
62401W        W34017  33.069  28.148  13.256
62402W        W34018   2.679  33.573  10.846
62403W        W34019   3.744  35.393   0.922
62404W        W34020  22.602  24.147  11.444
62405W        W34021  24.674  23.292  12.810
62406W        W34022  14.109   3.533  10.121
62407W        W34023  25.567   9.987  14.870
62408W        W34024  25.631  25.524   4.631
62409W        W34025   5.472  10.675  11.070
62410W        W34026  36.461  27.200   2.327
62411W        W34027  32.684  39.991  13.356
62412W        W34028  37.244  27.030  14.485
62413W        W34029  18.603  18.782   0.707
62414W        W34030   5.693   5.312  14.972
62415W        W34031  11.887  11.346   3.657
62416W        W34032  33.566  41.805  14.999
62417W        W34033  42.549  26.530   0.533
62418W        W34034   0.492  22.753  13.851
62419W        W34035   9.892   9.730   3.788
62420W        W34036  24.177   1.749   2.916
62421W        W34037   6.929   8.452  13.379
62422W        W34038  13.648  42.285  12.096
62423W        W34039  33.081  13.584   1.746
62424W        W34040   5.380   9.851   2.295
62425W        W34041  40.245  36.917   4.587
62426W        W34042  10.053  40.634   2.247
62427W        W34043  17.982  18.700   4.567
62428W        W34044  22.449   3.664  12.511
62429W        W34045  15.315  42.174  10.593
62430W        W34046  21.974  38.897   4.213
62431W        W34047  20.517   6.812   4.367
62432W        W34048  33.883   1.111   4.046
62433W        W34049  22.538  31.447  13.712
62434W        W34050   3.432   2.040   1.546
62435W        W34051  20.054  28.958   1.267
62436W        W34052  21.727  35.516   0.672
62437W        W34053   3.835   6.380  12.074
62438W        W34054  18.084  20.572   0.901
62439W        W34055  38.060  17.024  13.337
62440W        W34056   6.975  30.635   0.417
62441W        W34057  38.409   5.720   0.010
62442W        W34058  15.933  11.112   2.730
62443W        W34059  13.307   7.695  13.864
62444W        W34060   8.446   3.658  14.954
62445W        W34061  43.282  19.221   1.444
62446W        W34062   3.016  38.967   0.489
62447W        W34063  15.752  41.888  10.625
62448W        W34064  44.708  18.702  13.865
62449W        W34065  40.572  41.999   2.304
62450W        W34066  36.911  11.631  10.398
62451W        W34067  20.166  11.391  10.455
62452W        W34068   6.226  17.585   0.465
62453W        W34069  41.866  32.037  10.221
62454W        W34070  14.553   7.408   3.278
62455W        W34071  23.586  35.132   0.288
62456W        W34072  10.952  27.819   0.397
62457W        W34073  26.505  19.081   1.395
62458W        W34074   7.498  39.948  10.811
62459W        W34075   6.785  30.890   1.721
62460W        W34076   0.285  36.203   0.665
62461W        W34077  23.698  25.463   2.787
62462W        W34078  25.347   0.318  12.080
62463W        W34079  38.953  15.220  10.413
62464W        W34080   9.965   1.790   4.652
62465W        W34081  28.980   9.809   4.890
62466W        W34082  26.159  20.184   4.339
62467W        W34083  34.437  30.971  13.817
62468W        W34084  28.301  40.018  13.100
62469W        W34085  40.560  21.862  12.104
62470W        W34086   3.196  22.622   0.904
62471W        W34087  44.535  20.293   4.183
62472W        W34088  39.964  12.849   4.058
62473W        W34089   8.915  23.107  12.932
62474W        W34090  16.764   2.861  14.880
62475W        W34091  14.260  24.437   0.065
62476W        W34092  43.671   1.256  12.004
62477W        W34093   5.650  20.229   0.263
62478W        W34094  36.120  42.997   3.906
62479W        W34095  18.794   9.741   4.629
62480W        W34096   8.935  28.882   2.772
62481W        W34097  35.436  30.999  13.833
62482W        W34098  19.124   3.933  12.395
62483W        W34099   0.085  28.975  10.616
62484W        W34100  24.247  15.497  10.750
62485W        W34101  44.020  44.498  11.802
62486W        W34102  26.077   5.656  11.310
62487W        W34103  25.959  21.398   4.089
62488W        W34104  29.803   1.692  12.496
62489W        W34105  10.343  35.941  10.618
62490W        W34106  38.105  44.449  14.537
62491W        W34107  25.731  21.185   0.807
62492W        W34108  17.942  19.301   3.764
62493W        W34109  23.352  39.685  12.988
62494W        W34110  23.722   6.673   4.450
62495W        W34111  23.026  38.376  11.592
62496W        W34112   3.042   2.339  12.648
62497W        W34113   8.880  20.784   2.728
62498W        W34114  23.659  21.005   1.746
62499W        W34115   4.833  41.812   2.375
62500W        W34116   8.137  21.581   4.330
62501W        W34117  38.015  17.379   0.112
62502W        W34118   6.837  11.787  10.869
62503W        W34119   9.088   9.704   2.706
62504W        W34120  30.524   0.368  10.911
62505W        W34121  41.821  22.924  12.632
62506W        W34122   5.795  35.586  11.136
62507W        W34123   4.287  33.280   3.616
62508W        W34124  37.611  17.532  11.726
62509W        W34125  44.622  17.025   5.023
62510W        W34126  43.408  13.875  10.917
62511W        W34127   5.913   9.425  13.636
62512W        W34128  37.972   6.531   0.771
62513W        W34129  22.422  17.899  11.544
62514W        W34130  38.022  33.518   2.304
62515W        W34131  25.103  42.717   2.259
62516W        W34132   5.869  15.424  14.628
62517W        W34133  30.662  34.990  14.027
62518W        W34134   5.037  23.680   3.356
62519W        W34135  26.092  15.526   0.828
62520W        W34136  23.522  22.528   1.919
62521W        W34137  18.534  12.177  12.037
62522W        W34138  16.095  13.712  11.529
62523W        W34139  35.593   8.901  11.166
62524W        W34140  16.543  36.390  11.592
62525W        W34141  34.853  27.888   4.175
62526W        W34142   6.600  38.860   2.745
62527W        W34143  15.205   3.201   4.238
62528W        W34144  39.821  17.239   2.995
62529W        W34145  42.953   5.973   4.952
62530W        W34146  13.089  19.198   1.284
62531W        W34147  12.610  28.439  14.118
62532W        W34148  41.416   2.517  13.423
62533W        W34149  35.542  38.138  13.510
62534W        W34150  38.317  11.338   2.279
62535W        W34151  25.409  31.985  11.611
62536W        W34152   9.452   6.961  13.832
62537W        W34153  13.306  21.929  12.572
62538W        W34154   9.168  39.580   3.161
62539W        W34155  34.846  29.090  12.405
62540W        W34156  28.034  37.459  13.437
62541W        W34157  38.029   0.697   2.902
62542W        W34158  29.500  24.983   3.248
62543W        W34159  44.205  18.710  13.867
62544W        W34160  14.863  19.808  10.643
62545W        W34161  44.330  25.499   1.953
62546W        W34162  12.761   4.817   4.309
62547W        W34163  30.327  36.050   1.807
62548W        W34164   8.224  30.817   4.911
62549W        W34165   2.034  17.184  14.737
62550W        W34166   3.853   6.421   0.375
62551W        W34167  32.493  27.449  11.326
62552W        W34168   0.731  20.929  14.742
62553W        W34169   8.264  41.233  12.431
62554W        W34170   5.376  25.643  13.776
62555W        W34171  31.096  38.078  11.975
62556W        W34172  21.296  37.468  13.670
62557W        W34173  16.680  11.387   4.820
62558W        W34174  19.510   1.517  11.153
62559W        W34175  35.185  10.781  14.903
62560W        W34176  15.588   1.515  14.757
62561W        W34177  40.993  18.771  11.693
62562W        W34178  24.707  36.471  11.518
62563W        W34179  17.273  22.866   1.825
62564W        W34180   2.358  18.706  13.320
62565W        W34181  34.186  43.980  12.429
62566W        W34182  18.066   4.304  11.140
62567W        W34183  33.627  41.075  13.434
62568W        W34184   5.971  26.160  13.453
62569W        W34185  13.015  30.093  13.367
62570W        W34186  16.219  23.553   2.958
62571W        W34187  20.523  38.784  13.461
62572W        W34188   8.347   6.337   2.619
62573W        W34189  26.175   7.924  12.530
62574W        W34190  30.061  40.421  10.824
62575W        W34191  18.732  19.134   0.341
62576W        W34192   2.975  37.013   4.206
62577W        W34193  13.537  44.796   1.183
62578W        W34194   3.855   9.961  11.814
62579W        W34195  21.666  42.778   0.679
62580W        W34196   1.497  18.073   1.787
62581W        W34197  39.365   1.250  13.531
62582W        W34198  31.849  27.099  14.809
62583W        W34199   0.949  14.230  13.498
62584W        W34200   2.385  22.564  10.527
62585W        W34201   6.727   7.336   2.498
62586W        W34202   5.408  24.968  13.391
62587W        W34203   1.744  16.037   3.363
62588W        W34204  14.143   0.793   3.649
62589W        W34205  18.147  41.867   4.553
62590W        W34206   0.224  10.039  11.018
62591W        W34207  38.866  11.803  12.522
62592W        W34208  11.630  35.718  11.268
62593W        W34209  38.947  30.195   4.591
62594W        W34210  15.789  14.717  13.416
62595W        W34211   7.808  10.765   0.698
62596W        W34212   6.301  25.054   4.558
62597W        W34213   4.724   0.291  13.393
62598W        W34214   2.464  20.360   2.432
62599W        W34215  43.358  27.217  14.387
62600W        W34216  30.185  16.510   2.794
62601W        W34217  30.053  41.297   4.640
62602W        W34218   7.426  37.078   3.275
62603W        W34219   0.907  13.593  10.589
62604W        W34220  42.764   8.658   2.297
62605W        W34221  27.961   0.163   2.061
62606W        W34222  27.239  17.592   2.920
62607W        W34223   7.250   4.243  12.443
62608W        W34224   0.236  31.264  14.914
62609W        W34225   5.784  33.416   0.535
62610W        W34226   9.437  40.782   4.543
62611W        W34227  43.573  21.167  13.263
62612W        W34228   1.598  23.826  14.382
62613W        W34229  15.147  23.194   3.326
62614W        W34230  40.466  34.740  11.600
62615W        W34231   4.978  15.334  13.886
62616W        W34232  36.129  11.429   3.591
62617W        W34233  11.104  27.953  13.975
62618W        W34234  13.337  26.356   1.593
62619W        W34235   3.254  30.071   0.961
62620W        W34236  18.658  16.081  10.956
62621W        W34237  26.334  40.905  14.550
62622W        W34238  10.771  22.926  12.875
62623W        W34239  42.855  19.125   4.566
62624W        W34240  37.997  36.365  12.108
62625W        W34241  14.740  14.604   4.929
62626W        W34242   6.447  42.776  12.983
62627W        W34243  41.216  21.009   0.303
62628W        W34244  33.400   3.962   1.976
62629W        W34245  39.401  17.758  13.806
62630W        W34246  35.864  41.259   0.255
62631W        W34247  27.464  21.870  11.141
62632W        W34248   7.782  42.895   0.423
62633W        W34249  26.628  40.858   0.919
62634W        W34250  15.082  20.637  14.532
62635W        W34251  36.270  10.152   1.918
62636W        W34252  23.175   6.823   2.601
62637W        W34253  12.237  41.496   4.146
62638W        W34254   8.612  13.236  13.016
62639W        W34255  38.910  33.484  10.687
62640W        W34256  20.632  22.932   2.088
62641W        W34257  25.264  24.519  12.081
62642W        W34258  30.445  20.510   2.179
62643W        W34259  35.984   4.356  13.873
62644W        W34260  29.152  35.548   0.026
62645W        W34261  42.063  14.761  14.924
62646W        W34262  22.029   5.164   4.008
62647W        W34263  44.198  34.166  14.355
62648W        W34264  42.337  18.707  13.646
62649W        W34265   7.920  44.939  11.962
62650W        W34266  40.417   9.059  14.317
62651W        W34267  38.824   8.657  11.120
62652W        W34268  25.265  27.471  12.600
62653W        W34269  25.669   6.420  11.651
62654W        W34270  18.108  41.080   3.073
62655W        W34271  37.258   2.659  12.289
62656W        W34272  13.358  12.535   0.293
62657W        W34273  33.871  11.748   4.657
62658W        W34274  24.518  40.512   4.608
62659W        W34275  42.845   4.247  14.351
62660W        W34276  14.800  11.152  14.912
62661W        W34277  36.592  22.223  13.828
62662W        W34278  11.297  15.081   0.030
62663W        W34279  38.034  39.518   2.251
62664W        W34280  31.900   4.821  10.728
62665W        W34281  22.045   8.381   3.382
62666W        W34282  11.166  14.418   1.661
62667W        W34283  40.033  18.722   4.610
62668W        W34284   8.681  31.119  10.887
62669W        W34285  37.482   9.935  10.904
62670W        W34286  12.462  25.635  10.704
62671W        W34287   7.913  13.716  12.564
62672W        W34288  15.655   9.560   3.198
62673W        W34289  31.652  21.752   0.007
62674W        W34290   2.906  34.262  14.242
62675W        W34291   0.543   1.482   1.934
62676W        W34292   2.896  27.555  14.590
62677W        W34293  40.525   8.379  11.801
62678W        W34294  23.684   6.920  13.048
62679W        W34295  21.116  22.045  12.166
62680W        W34296  38.923  40.472   3.724
62681W        W34297  28.956  29.151   3.347
62682W        W34298  34.651  35.670   4.830
62683W        W34299   2.351  13.792  14.892
62684W        W34300  38.648  34.320   1.540
62685W        W34301   0.895  36.443  11.540
62686W        W34302  12.658  18.625   0.506
62687W        W34303   6.815  17.621  14.857
62688W        W34304  18.045   4.788  14.423
62689W        W34305  43.519  14.721  13.976
62690W        W34306  43.007  34.363  10.473
62691W        W34307  13.504  43.983   2.047
62692W        W34308   2.331   9.669   0.004
62693W        W34309  36.169  18.124  14.469
62694W        W34310  24.336   9.936   0.654
62695W        W34311  43.197  19.257   1.955
62696W        W34312   9.754  14.423  10.493
62697W        W34313  17.997  10.773   2.371
62698W        W34314  16.519  33.854   2.611
62699W        W34315   9.777  16.802  12.465
62700W        W34316  23.723  43.294   3.782
62701W        W34317  35.331  32.464   0.874
62702W        W34318  17.218  32.089   0.442
62703W        W34319  26.595  40.971  12.983
62704W        W34320  16.158  33.911   2.194
62705W        W34321  20.604  20.298  13.866
62706W        W34322  24.678  22.489  12.457
62707W        W34323  20.543   0.999  13.436
62708W        W34324  23.999  43.980  10.444
62709W        W34325  40.525  41.809   1.804
62710W        W34326  12.640  23.736  10.669
62711W        W34327  21.087  14.815  13.010
62712W        W34328  22.214   5.455  12.916
62713W        W34329   4.435  27.610  14.127
62714W        W34330  20.157  13.424  14.816
62715W        W34331  16.344  37.343   4.866
62716W        W34332  25.306  31.141   0.241
62717W        W34333  39.757  44.045   0.113
62718W        W34334   0.537  23.407   1.209
62719W        W34335  35.540  26.701   0.642
62720W        W34336   9.224  29.688   2.247
62721W        W34337   9.694  16.059   0.258
62722W        W34338  13.230  22.413  10.669
62723W        W34339   2.419  44.543   1.904
62724W        W34340  11.584  35.995   2.827
62725W        W34341  16.063  26.547   0.241
62726W        W34342   8.876  27.552   0.886
62727W        W34343  16.202   6.025   0.921
62728W        W34344  13.421   6.643   3.895
62729W        W34345  24.898   4.431   1.892
62730W        W34346   2.482   5.493  12.601
62731W        W34347  44.250  44.987   4.137
62732W        W34348  10.300   0.845   5.070
62733W        W34349  10.882   8.714  11.782
62734W        W34350  42.922  21.578   1.262
62735W        W34351  42.156   9.590  13.945
62736W        W34352  10.735   6.397   2.895
62737W        W34353  13.424  15.837  10.254
62738W        W34354  18.151  36.415   0.453
62739W        W34355  32.167   7.307   4.701
62740W        W34356  26.490  11.848  13.380
62741W        W34357  21.595  20.219   4.575
62742W        W34358   4.219  39.038   3.931
62743W        W34359  25.214  21.491   1.217
62744W        W34360  30.061  28.209  13.330
62745W        W34361  15.661  36.487  11.510
62746W        W34362  42.208  39.835  13.302
62747W        W34363   1.911  19.596  13.290
62748W        W34364  15.917  16.207  11.457
62749W        W34365  15.226   8.809   1.838
62750W        W34366  44.376  37.883   0.348
62751W        W34367  43.768  17.753  14.488
62752W        W34368  26.468  24.600   2.755
62753W        W34369  30.451  25.604   1.428
62754W        W34370  38.843   4.796   1.862
62755W        W34371  20.312  15.256  13.131
62756W        W34372  40.266  28.096  11.659
62757W        W34373  23.929  29.069   1.300
62758W        W34374  35.480  27.824  13.864
62759W        W34375  13.793   4.008  10.134
62760W        W34376  33.356  17.214  12.383
62761W        W34377  26.154   4.205   4.254
62762W        W34378  39.774  12.580   3.636
62763W        W34379  28.380  38.324  14.452
62764W        W34380  10.407  18.256   2.868
62765W        W34381  28.185  19.607  12.786
62766W        W34382  35.934  42.290   3.182
62767W        W34383  21.412  37.063   3.625
62768W        W34384  20.432   3.757   2.746
62769W        W34385  11.195   4.900  12.914
62770W        W34386  32.500  35.159  14.857
62771W        W34387   0.470  22.503   3.735
62772W        W34388  20.281  25.727  11.925
62773W        W34389  39.513  16.173  12.609
62774W        W34390  31.437  18.975  12.521
62775W        W34391  40.563  37.870  11.144
62776W        W34392  28.138  22.228   1.327
62777W        W34393  13.707  26.097   4.758
62778W        W34394  29.160  10.319   4.146
62779W        W34395   5.629  17.232   0.308
62780W        W34396  18.005   1.158   1.744
62781W        W34397  26.471  22.445   1.347
62782W        W34398   9.621  37.395   3.350
62783W        W34399  16.570  14.247  14.484
62784W        W34400  31.616  31.499   0.010
62785W        W34401  42.702   7.893  14.507
62786W        W34402  28.705  40.233   3.626
62787W        W34403  36.070  42.137   3.682
62788W        W34404  22.519  26.258   4.400
62789W        W34405  38.156  39.905  14.960
62790W        W34406   6.108  41.005  14.268
62791W        W34407  10.223  14.625  10.957
62792W        W34408  15.050  12.669   3.147
62793W        W34409   5.019  25.114  13.674
62794W        W34410  24.485  13.171   2.756
62795W        W34411  26.041   7.587  13.014
62796W        W34412  42.848  41.354  11.873
62797W        W34413  39.601  11.064  12.484
62798W        W34414  18.181  17.654  13.017
62799W        W34415  32.129  41.882   2.619
62800W        W34416  43.672  40.675   0.925
62801W        W34417   0.752  36.121  13.099
62802W        W34418  36.066  39.951  14.884
62803W        W34419  35.324  39.129   1.369
62804W        W34420   2.028  22.956  10.498
62805W        W34421  13.675  32.558   1.746
62806W        W34422  44.988  33.581   2.288
62807W        W34423  19.798   7.789  12.032
62808W        W34424  41.936  10.118   0.344
62809W        W34425  12.991   2.905  10.487
62810W        W34426  44.302  11.152   0.179
62811W        W34427   0.206  24.884  12.471
62812W        W34428  24.115  40.341  11.978
62813W        W34429   9.349  42.162   4.894
62814W        W34430   1.999   5.271   0.211
62815W        W34431  41.887  39.581   4.633
62816W        W34432  13.201  31.078   2.423
62817W        W34433  16.093   4.310   1.625
62818W        W34434  26.086  39.848  12.448
62819W        W34435  22.009  34.323   1.279
62820W        W34436  32.175  14.254  14.614
62821W        W34437  12.575   6.017  11.539
62822W        W34438  23.029   9.997   2.011
62823W        W34439   5.786  28.748   1.358
62824W        W34440  11.958  22.616  11.089
62825W        W34441  17.774  20.325   2.329
62826W        W34442   3.025  35.135   2.714
62827W        W34443  35.401   4.892   9.864
62828W        W34444  39.514   4.714   3.774
62829W        W34445  15.111  12.150   3.839
62830W        W34446  42.889  40.592   4.554
62831W        W34447  24.497  13.877   0.157
62832W        W34448  42.857  32.332  11.529
62833W        W34449   9.621  27.101  13.890
62834W        W34450  36.042  35.615  14.505
62835W        W34451  37.792  36.122  11.160
62836W        W34452  16.042  11.092   3.262
62837W        W34453  31.805  34.545  10.239
62838W        W34454  43.592   4.576  14.853
62839W        W34455  37.822  24.568  14.037
62840W        W34456  34.727  16.701  13.236
62841W        W34457   4.786   4.829   5.025
62842W        W34458  38.521   0.278   1.206
62843W        W34459  32.177  13.254   0.806
62844W        W34460  37.456   4.871  10.652
62845W        W34461  40.354  15.206   0.022
62846W        W34462  35.183  42.788  13.859
62847W        W34463  15.994  13.328   5.083
62848W        W34464  23.910   8.867  10.700
62849W        W34465  34.554  26.521   1.750
62850W        W34466  27.941   4.323   2.733
62851W        W34467  44.326  29.575  14.425
62852W        W34468   1.504   8.727   0.508
62853W        W34469  30.675  34.278   3.237
62854W        W34470   5.623  35.148   1.986
62855W        W34471   0.213   3.877   1.309
62856W        W34472   4.282  13.457   2.678
62857W        W34473  19.535  15.761   0.321
62858W        W34474  33.270  37.263  12.706
62859W        W34475   0.182  30.860   4.995
62860W        W34476  30.115  43.317  11.653
62861W        W34477  19.710  20.608   4.161
62862W        W34478  23.190   3.812  12.962
62863W        W34479  43.962  17.162   0.622
62864W        W34480  15.845  13.071  12.400
62865W        W34481  31.020   7.687  14.533
62866W        W34482   9.790  11.623  13.941
62867W        W34483   8.497   7.223   2.710
62868W        W34484  19.997   8.285   0.662
62869W        W34485  11.357  21.289   4.179
62870W        W34486  24.793  41.899  13.012
62871W        W34487  20.388  15.617   1.419
62872W        W34488  29.170   3.154   5.347
62873W        W34489  26.391  32.926   0.980
62874W        W34490  34.961  20.774   3.531
62875W        W34491  34.225  44.486   2.176
62876W        W34492  12.614  40.509  14.234
62877W        W34493   4.176  38.269  13.857
62878W        W34494  31.086   7.106   1.167
62879W        W34495  44.852   4.802  14.847
62880W        W34496   2.319  28.109   4.605
62881W        W34497  11.041  42.093  12.722
62882W        W34498  35.143  27.247  11.055
62883W        W34499   2.039  12.049   3.638
62884W        W34500  37.593  31.192  11.411
62885W        W34501  34.124   7.665   2.501
62886W        W34502   9.835   4.743  11.109
62887W        W34503  35.762   4.233   2.681
62888W        W34504   7.936  39.001  10.800
62889W        W34505   5.926  26.138   0.869
62890W        W34506  25.874  25.032   2.004
62891W        W34507   5.052  38.333   2.184
62892W        W34508   1.929  22.666   1.378
62893W        W34509  26.715  24.233  10.734
62894W        W34510  17.549  18.154  14.997
62895W        W34511  38.883   2.044  10.756
62896W        W34512  19.546  11.792  12.606
62897W        W34513  27.120  37.298   5.042
62898W        W34514  20.992  18.745   1.912
62899W        W34515  14.793  26.619  11.393
62900W        W34516  40.849  16.150   3.649
62901W        W34517  24.089  44.357   9.948
62902W        W34518  23.126  16.460  12.080
62903W        W34519  32.707  40.531   1.011
62904W        W34520  18.241  29.105  14.334
62905W        W34521   3.583   0.416  11.194
62906W        W34522   1.004  11.315  14.978
62907W        W34523  34.526  25.009   1.994
62908W        W34524  18.253   5.162   2.223
62909W        W34525  16.777  24.765  13.808
62910W        W34526   1.198  41.220   0.964
62911W        W34527  28.653  15.748  12.899
62912W        W34528  31.380  26.879  14.918
62913W        W34529  17.284  10.261   0.441
62914W        W34530  37.063   8.844   2.758
62915W        W34531   8.953  16.020   4.188
62916W        W34532  40.711  33.955   0.826
62917W        W34533   1.017  11.722   0.778
62918W        W34534   2.904   4.301   2.639
62919W        W34535  36.212  22.071  12.953
62920W        W34536  40.484  36.117   2.441
62921W        W34537  10.235  35.258   4.946
62922W        W34538  41.956  31.490  13.768
62923W        W34539  25.459  15.826   2.145
62924W        W34540  43.309   6.280  12.451
62925W        W34541  28.543  14.281  14.313
62926W        W34542  37.044  17.862   2.749
62927W        W34543   3.407   5.783  11.451
62928W        W34544  17.730  18.094  12.340
62929W        W34545  36.671  12.056   1.358
62930W        W34546  31.836  37.286  10.068
62931W        W34547  10.313  15.330   3.035
62932W        W34548   8.942  34.583  10.719
62933W        W34549  34.325   5.424  13.867
62934W        W34550   8.673  21.587  14.738
62935W        W34551  30.412   7.664  11.325
62936W        W34552  34.974  16.470   2.364
62937W        W34553  31.394   9.548  14.341
62938W        W34554  27.670  12.532  14.697
62939W        W34555   5.444   9.862   2.851
62940W        W34556   6.778  13.223  12.932
62941W        W34557  29.826   9.877   2.320
62942W        W34558  20.394   7.977   0.457
62943W        W34559  33.154  42.330  14.386
62944W        W34560  35.286   0.534   3.114
62945W        W34561  41.221   2.136   2.264
62946W        W34562  10.629  11.622  11.575
62947W        W34563  22.373  24.456  14.739
62948W        W34564  36.481  44.722   4.993
62949W        W34565  38.623  20.733  10.730
62950W        W34566  24.472  37.983  11.920
62951W        W34567   6.032  36.362   4.964
62952W        W34568  24.994   6.450  14.935
62953W        W34569  14.225  10.497  11.439
62954W        W34570  28.563  10.413  13.905
62955W        W34571  27.433  36.562  13.348
62956W        W34572  32.047  27.943   3.312
62957W        W34573  42.488  20.267  13.413
62958W        W34574   9.345   2.455   1.920
62959W        W34575   7.170  16.679  14.779
62960W        W34576  12.785  13.792   1.952
62961W        W34577   7.304   1.085   0.747
62962W        W34578  31.352  33.431   4.095
62963W        W34579  27.160  24.651   4.875
62964W        W34580  16.214  29.413  12.644
62965W        W34581   4.497  35.604   0.229
62966W        W34582  31.413   5.809  12.179
62967W        W34583   0.176  19.493  12.643
62968W        W34584  34.655  22.814  12.216
62969W        W34585  38.412  43.192  13.020
62970W        W34586  41.495  32.856   1.931
62971W        W34587  24.492  15.555   4.145
62972W        W34588  37.273  37.141   0.862
62973W        W34589  37.057   4.599   1.466
62974W        W34590   1.688  31.040  11.648
62975W        W34591   8.736  26.783  11.650
62976W        W34592   6.927  15.718  11.975
62977W        W34593  13.326  14.382  12.505
62978W        W34594  44.799  36.442   3.389
62979W        W34595  38.800  31.980   5.016
62980W        W34596  11.669   5.944   5.136
62981W        W34597   7.227   6.804  13.071
62982W        W34598  17.130   5.635  11.321
62983W        W34599  34.722  13.138  11.863
62984W        W34600  23.483  38.280   3.172
62985W        W34601  29.738  31.476   3.231
62986W        W34602  42.467  28.005  14.260
62987W        W34603  12.011  30.577  14.966
62988W        W34604  18.515  36.841  12.525
62989W        W34605  28.516  27.125  13.022
62990W        W34606  12.148  12.412  14.715
62991W        W34607  14.662   0.371   1.527
62992W        W34608  36.590  16.109  11.476
62993W        W34609  14.103  40.439  11.153
62994W        W34610  29.663  38.583  11.261
62995W        W34611  26.678  11.803   0.843
62996W        W34612  12.705   9.866  12.461
62997W        W34613  32.257  31.515   3.432
62998W        W34614  28.252  26.663   1.831
62999W        W34615   5.184  23.015  14.431
63000W        W34616  10.100   1.549   2.329
63001W        W34617  34.663  18.327   3.724
63002W        W34618  43.413  39.966  11.213
63003W        W34619  43.198   8.796  13.829
63004W        W34620  29.604  14.553   1.828
63005W        W34621   9.309  31.664  13.848
63006W        W34622  38.790  21.488  14.208
63007W        W34623   6.415  41.551   2.028
63008W        W34624  24.381  10.320  14.613
63009W        W34625   7.732  37.382   4.996
63010W        W34626  30.487  14.190  13.092
63011W        W34627  33.007  40.567  13.040
63012W        W34628   3.918  19.508   0.422
63013W        W34629  15.344  41.557   5.182
63014W        W34630  18.836   2.142  13.736
63015W        W34631  14.972   6.603  10.106
63016W        W34632  43.461  42.702   2.130
63017W        W34633  30.725   4.035  11.797
63018W        W34634  32.861  26.970   1.640
63019W        W34635  19.644  33.122   0.515
63020W        W34636  43.022  34.528   5.303
63021W        W34637  27.969  19.254  14.496
63022W        W34638  27.804  33.943   2.410
63023W        W34639  14.698  23.126  10.866
63024W        W34640  19.176   0.417  13.432
63025W        W34641  20.498  10.237  14.024
63026W        W34642   6.310  23.609   1.862
63027W        W34643  20.976  22.195  12.628
63028W        W34644  44.182   8.312  13.240
63029W        W34645   7.938  10.596  11.943
63030W        W34646   0.426  39.421  10.639
63031W        W34647   5.619  18.173  11.099
63032W        W34648  29.528   5.604   1.814
63033W        W34649  20.577  14.319   3.138
63034W        W34650  11.327   7.384  14.865
63035W        W34651  41.925   2.453   3.226
63036W        W34652  28.356  13.836  13.520
63037W        W34653  30.828  43.051  10.982
63038W        W34654   6.866  15.840   1.784
63039W        W34655  17.233  30.107   2.778
63040W        W34656  35.853  32.986   4.181
63041W        W34657  10.128   2.875  13.258
63042W        W34658  44.280  36.359  12.523
63043W        W34659  34.827  32.739   1.693
63044W        W34660  40.297  31.903  14.501
63045W        W34661  40.387   4.406  12.224
63046W        W34662  20.584   3.214  12.039
63047W        W34663  12.280  17.552  11.178
63048W        W34664  14.139  43.256  13.428
63049W        W34665   2.088  35.042   0.289
63050W        W34666  38.854   1.286   3.638
63051W        W34667   0.767  17.276   2.832
63052W        W34668  17.008  30.475  11.175
63053W        W34669   7.459  34.580  12.127
63054W        W34670  34.333  33.533  11.561
63055W        W34671   1.193   8.357   4.161
63056W        W34672  32.081  22.202   2.409
63057W        W34673  19.838  38.248  11.066
63058W        W34674   3.486   3.413   3.416
63059W        W34675  12.858  42.551   4.611
63060W        W34676   5.376   0.274  11.483
63061W        W34677  32.517   2.539   1.598
63062W        W34678  36.992  26.977   2.729
63063W        W34679  12.565  14.835  12.830
63064W        W34680   3.840  14.729  10.710
63065W        W34681  36.907  22.585  14.729
63066W        W34682  41.732  37.459   0.394
63067W        W34683   3.767  22.584  13.403
63068W        W34684   6.321   7.618   2.337
63069W        W34685   8.385  30.949   0.676
63070W        W34686  44.814  44.967   4.375
63071W        W34687  15.479  37.831   5.178
63072W        W34688   9.615  18.937  10.629
63073W        W34689  42.724   5.831   3.177
63074W        W34690  15.561  12.689   4.236
63075W        W34691  28.703  30.084   3.716
63076W        W34692  30.896  27.484   9.847
63077W        W34693  17.766  31.212   1.205
63078W        W34694  28.429   1.401  10.428
63079W        W34695  37.853  42.111   4.673
63080W        W34696  24.441  25.759  13.000
63081W        W34697  11.731   2.105  11.153
63082W        W34698   6.775  17.142  12.931
63083W        W34699  32.140   9.058  14.870
63084W        W34700  27.175  32.603   0.794
63085W        W34701   4.692  15.716  10.784
63086W        W34702   0.891  21.123   0.723
63087W        W34703  33.617   4.029  13.970
63088W        W34704  41.155  31.212  12.439
63089W        W34705  36.344  28.320  11.692
63090W        W34706  40.658  43.888   2.438
63091W        W34707   8.726   2.607  10.502
63092W        W34708  25.862   3.731  14.400
63093W        W34709   0.739  28.523   0.223
63094W        W34710  35.033  33.833   2.751
63095W        W34711   9.724  24.103   0.986
63096W        W34712  33.531   9.585  13.481
63097W        W34713   7.263  40.183   0.381
63098W        W34714   3.895  34.437  11.506
63099W        W34715  25.970  13.817   5.509
63100W        W34716  36.454  25.709  10.669
63101W        W34717  41.411  27.209   1.733
63102W        W34718  21.434  37.624  14.827
63103W        W34719  10.156  39.093   0.930
63104W        W34720  33.414  39.820  14.922
63105W        W34721  14.770  14.091  12.341
63106W        W34722  13.200  20.011   0.709
63107W        W34723   1.756   2.433   0.305
63108W        W34724  14.321   8.499   4.596
63109W        W34725  14.562  26.363   0.111
63110W        W34726  38.881  14.741   1.761
63111W        W34727  41.163  14.336   2.710
63112W        W34728  38.579  17.578   2.707
63113W        W34729   8.653  20.495   0.347
63114W        W34730   0.230  42.922  13.457
63115W        W34731  22.978  44.976   1.488
63116W        W34732   4.520  20.361  11.078
63117W        W34733  23.256  41.344  12.582
63118W        W34734   8.675   5.710  13.434
63119W        W34735   6.713  32.135  13.698
63120W        W34736   0.793   5.216   2.298
63121W        W34737  43.792   1.688   0.579
63122W        W34738  35.451  39.511   4.161
63123W        W34739  27.179   4.096  11.968
63124W        W34740  26.714  29.088  12.516
63125W        W34741   4.424  29.806  11.487
63126W        W34742  14.715  24.117  12.373
63127W        W34743  25.739  23.634   0.767
63128W        W34744   3.488  22.183  12.894
63129W        W34745  24.657  15.860  10.852
63130W        W34746  25.660  22.474  13.899
63131W        W34747   9.249  30.683  14.839
63132W        W34748  15.350  40.398  12.331
63133W        W34749   5.353  17.645   2.361
63134W        W34750  34.141  43.871   3.143
63135W        W34751   1.689  13.242  12.066
63136W        W34752  13.026   6.745   4.512
63137W        W34753  17.060   4.453   3.818
63138W        W34754  19.523   0.469  13.889
63139W        W34755  31.400   9.867  12.029
63140W        W34756  40.255   9.703   3.619
63141W        W34757   5.259   0.899  14.171
63142W        W34758   0.573  43.348  10.772
63143W        W34759  42.718   0.829   4.667
63144W        W34760   5.839   1.325  14.348
63145W        W34761  28.491  25.654  14.060
63146W        W34762  16.341   2.812  13.022
63147W        W34763  21.650   2.668  14.589
63148W        W34764  23.593   4.871   3.823
63149W        W34765  30.992  24.688  12.470
63150W        W34766  37.483  27.291  10.235
63151W        W34767  16.870  22.035  14.256
63152W        W34768   2.535  41.765   4.535
63153W        W34769  33.738  18.376  11.079
63154W        W34770  20.183  16.993  10.239
63155W        W34771  28.065  12.685  11.605
63156W        W34772  27.475  34.936  11.976
63157W        W34773  27.798  13.648  10.478
63158W        W34774  15.242  33.986  11.179
63159W        W34775  30.966  33.059  10.603
63160W        W34776   6.700  24.047   0.438
63161W        W34777  21.211   5.724  14.923
63162W        W34778   0.014  24.990   1.438
63163W        W34779   7.195  41.418   4.655
63164W        W34780  30.604   9.275   0.174
63165W        W34781   6.890  41.718   3.612
63166W        W34782  37.733  26.013   0.833
63167W        W34783  33.364  25.241  14.363
63168W        W34784  32.217  14.815  12.361
63169W        W34785   7.246  21.238   2.328
63170W        W34786  19.696  23.283   1.716
63171W        W34787  41.393   3.522   1.708
63172W        W34788   8.359   6.521  13.443
63173W        W34789  34.295  17.605  12.616
63174W        W34790  24.438  29.899  11.976
63175W        W34791   6.641  25.225   1.253
63176W        W34792  44.781  26.145  11.303
63177W        W34793  11.703   3.457   4.514
63178W        W34794   3.297   0.051   3.730
63179W        W34795  36.919  20.091  13.287
63180W        W34796   9.368  30.560   4.119
63181W        W34797  32.022   6.433   4.498
63182W        W34798  36.962  26.081  12.260
63183W        W34799  18.181  40.538   3.197
63184W        W34800   7.150   2.725  10.818
63185W        W34801   4.387  11.592  10.681
63186W        W34802  44.891   2.162   1.188
63187W        W34803  14.142   8.696  11.610
63188W        W34804  37.002  16.096   3.302
63189W        W34805  16.287  12.666  10.615
63190W        W34806  11.362  16.773  13.997
63191W        W34807   0.522  24.470   2.878
63192W        W34808  38.054  31.212   3.356
63193W        W34809  30.226  43.793   0.203
63194W        W34810  23.483  33.498  10.910
63195W        W34811  13.769  34.995   2.317
63196W        W34812  37.455  31.860  11.263
63197W        W34813   9.821   7.626  11.609
63198W        W34814  28.537  22.862  12.183
63199W        W34815  14.286  23.972  11.118
63200W        W34816  33.238   4.382  14.061
63201W        W34817   7.249  38.238  13.891
63202W        W34818  15.608   1.158  13.852
63203W        W34819   0.533  39.756  13.779
63204W        W34820  28.540  16.131  10.664
63205W        W34821  42.845  40.871  13.583
63206W        W34822  34.332  41.758  11.985
63207W        W34823  42.270   8.353   2.328
63208W        W34824   3.810  32.587  10.397
63209W        W34825   8.161  27.041   2.262
63210W        W34826  40.292  30.582  12.851
63211W        W34827  43.227  22.509  13.835
63212W        W34828   3.413  31.499   0.649
63213W        W34829  27.963  27.046   4.024
63214W        W34830  21.759  29.715  10.179
63215W        W34831   0.802  17.339  14.385
63216W        W34832  20.374  44.437  13.948
63217W        W34833  33.641  43.177   0.438
63218W        W34834  18.352   1.721  12.955
63219W        W34835  38.444  28.498  12.063
63220W        W34836  29.655  16.014   2.894
63221W        W34837  36.072  18.669   1.943
63222W        W34838  15.847  32.951  11.642
63223W        W34839   7.312  24.734  11.507
63224W        W34840  42.364  34.613   4.504
63225W        W34841  13.249  37.053  13.053
63226W        W34842  44.009  41.613   0.769
63227W        W34843  16.297  41.891   0.296
63228W        W34844  11.863  35.195  12.938
63229W        W34845  15.784   7.387   0.968
63230W        W34846   9.645  40.894   0.853
63231W        W34847  39.356  36.127   2.872
63232W        W34848  10.395  32.189  12.103
63233W        W34849  36.580  44.393  11.024
63234W        W34850  14.637  36.533   0.804
63235W        W34851  30.461  38.835   0.024
63236W        W34852   4.904  19.674  10.219
63237W        W34853   6.139  32.148  14.771
63238W        W34854  16.134  26.159  11.450
63239W        W34855  39.699  19.448  12.680
63240W        W34856  40.271  18.641  13.037
63241W        W34857  39.994   1.366   2.996
63242W        W34858  29.433  14.153  11.120
63243W        W34859  18.033  22.520   1.380
63244W        W34860  18.199  35.940  14.032
63245W        W34861  22.557  44.803   4.261
63246W        W34862  10.915  22.738  10.981
63247W        W34863   2.168  10.368   3.509
63248W        W34864  24.950  21.044  14.468
63249W        W34865   0.952  41.231  10.634
63250W        W34866  15.110  43.397   3.055
63251W        W34867  13.710  11.731  10.695
63252W        W34868  21.323  26.714  13.794
63253W        W34869   4.741  23.964   3.650
63254W        W34870  15.113  19.711  13.057
63255W        W34871   0.894  36.959  12.330
63256W        W34872  26.450  12.288   2.259
63257W        W34873  30.656   3.244   2.293
63258W        W34874  40.489  30.529  12.353
63259W        W34875   4.863  10.753   4.709
63260W        W34876   3.657  11.867  11.630
63261W        W34877  29.611  16.653   4.195
63262W        W34878  17.106   1.452  13.919
63263W        W34879   9.797   6.842   3.251
63264W        W34880  25.622   6.099   0.227
63265W        W34881  39.331  19.022   1.846
63266W        W34882  35.027   0.776  14.394
63267W        W34883   3.968  29.512  13.405
63268W        W34884  40.387  43.185  12.237
63269W        W34885   2.535  10.194  10.639
63270W        W34886  36.436   0.503   0.301
63271W        W34887   0.361  23.508  13.511
63272W        W34888  26.682  23.045  13.581
63273W        W34889  18.802  37.621   0.552
63274W        W34890  11.536  37.335   4.288
63275W        W34891   0.745  36.456  11.061
63276W        W34892  21.268  15.201  14.016
63277W        W34893  41.504   1.231   2.801
63278W        W34894  13.459  38.259   3.746
63279W        W34895  36.551  43.441   2.665
63280W        W34896  15.394   1.785  11.377
63281W        W34897   3.201  32.686   1.713
63282W        W34898   4.452   7.780   4.666
63283W        W34899   7.925  11.676   0.342
63284W        W34900   8.173  16.102   1.136
63285W        W34901  39.461   2.249  13.469
63286W        W34902  29.383  34.541   1.275
63287W        W34903  26.994  11.184   0.931
63288W        W34904  34.493   2.250  11.688
63289W        W34905  38.601  27.723   0.288
63290W        W34906   7.742  26.515  11.636
63291W        W34907   6.150  13.399   1.671
63292W        W34908  12.294  11.001   2.858
63293W        W34909  18.724   6.236  12.034
63294W        W34910   4.896   4.422  12.943
63295W        W34911  43.266  33.556  11.975
63296W        W34912  14.754  17.081  12.496
63297W        W34913   6.303  26.722  14.192
63298W        W34914   5.067  43.504   2.166
63299W        W34915  15.267  40.544   3.777
63300W        W34916  14.537  15.086   1.372
63301W        W34917   3.294  30.497  10.638
63302W        W34918   8.962  43.609   4.546
63303W        W34919  26.605  20.612  10.592
63304W        W34920  30.980  12.749   2.694
63305W        W34921   9.132  27.999  13.925
63306W        W34922   8.250  40.518   3.156
63307W        W34923  17.238  21.621  14.330
63308W        W34924  43.487   7.334   4.547
63309W        W34925  34.534   8.190   4.810
63310W        W34926  25.801  31.187   3.704
63311W        W34927  13.582  43.556   3.754
63312W        W34928  35.246  23.643  14.798
63313W        W34929  23.060  18.570  13.527
63314W        W34930   8.394  44.417   1.484
63315W        W34931  39.743   7.129  11.472
63316W        W34932  12.630  13.716  14.456
63317W        W34933  33.703  18.549  10.391
63318W        W34934  41.004  23.523  14.047
63319W        W34935  30.323  30.073   4.024
63320W        W34936  35.542   3.328   0.690
63321W        W34937   9.839  15.578  13.886
63322W        W34938  37.531   5.278  14.717
63323W        W34939   0.280  31.053  11.142
63324W        W34940  16.199  21.575   1.213
63325W        W34941  28.549   3.950   1.030
63326W        W34942  23.747  10.809  14.519
63327W        W34943   7.540  26.322  12.308
63328W        W34944   3.482  20.677  12.771
63329W        W34945  44.952   4.416  12.829
63330W        W34946  15.268  21.491   2.738
63331W        W34947  36.010   1.738   1.276
63332W        W34948  18.077  22.085   4.101
63333W        W34949  28.802  18.780   3.071
63334W        W34950  26.499  12.576  12.024
63335W        W34951  39.875  40.061   0.053
63336W        W34952  11.799  10.406   1.173
63337W        W34953  15.647  39.394   1.173
63338W        W34954   5.042   0.327   2.505
63339W        W34955  11.618   9.295   0.402
63340W        W34956  27.206  13.802  12.214
63341W        W34957  23.697  42.063   1.866
63342W        W34958  38.276  18.034  13.019
63343W        W34959  30.379   2.151  13.961
63344W        W34960  23.212  16.164   4.543
63345W        W34961   8.161  26.310   0.926
63346W        W34962  36.921  24.822   1.698
63347W        W34963  42.241  25.692   4.809
63348W        W34964  34.043  14.940  14.787
63349W        W34965  29.444  20.806   0.769
63350W        W34966   7.407  33.942  11.396
63351W        W34967  43.949   0.536  11.624
63352W        W34968  37.590  10.377   4.148
63353W        W34969   5.833   7.351   2.918
63354W        W34970  42.744  14.249   3.895
63355W        W34971  29.603  40.620   4.661
63356W        W34972   6.864   8.881   3.612
63357W        W34973  25.251  34.112   1.659
63358W        W34974  25.550  34.421   4.587
63359W        W34975  21.408  34.467   2.158
63360W        W34976  37.840  33.358  12.779
63361W        W34977   0.450  19.524  11.676
63362W        W34978  18.608   6.861   0.783
63363W        W34979  15.034  30.691   3.233
63364W        W34980  42.831   4.304  13.447
63365W        W34981   0.423   0.432   1.777
63366W        W34982  40.895  38.405   3.316
63367W        W34983  18.009  33.951   1.342
63368W        W34984  40.223  21.191   4.636
63369W        W34985  10.951  37.271   1.796
63370W        W34986  25.001  14.714  10.946
63371W        W34987   5.017  32.541   4.433
63372W        W34988  44.413  13.381  12.005
63373W        W34989  17.198   1.326  11.386
63374W        W34990  17.345  44.311   0.563
63375W        W34991  20.640  44.181  13.129
63376W        W34992  15.010  27.140   1.904
63377W        W34993  26.574  41.543   3.299
63378W        W34994  32.009   3.479  14.397
63379W        W34995  10.929   4.644  11.543
63380W        W34996  12.800  27.494  13.707
63381W        W34997   0.326  22.060  11.013
63382W        W34998   8.945  35.841   4.441
63383W        W34999  37.936   4.651  13.051
63384W        W35000  11.231  17.134   2.440
63385W        W35001  32.559  20.217  14.741
63386W        W35002  42.509  28.103   2.934
63387W        W35003  38.399  42.229  12.054
63388W        W35004   9.390   7.209   4.636
63389W        W35005  21.563  40.313   3.896
63390W        W35006   3.327  15.345  14.434
63391W        W35007  13.893  17.662  12.455
63392W        W35008  14.399   4.092  14.811
63393W        W35009  26.069  23.528  12.025
63394W        W35010  36.047  21.951  10.365
63395W        W35011  18.168  22.144   2.187
63396W        W35012  39.056  22.785   2.421
63397W        W35013  21.701  30.590   4.310
63398W        W35014  44.874   0.020   0.230
63399W        W35015  19.725  25.241   3.300
63400W        W35016  20.099  40.349   1.453
63401W        W35017  13.149  20.019  10.968
63402W        W35018  21.425  16.193  10.624
63403W        W35019  29.607  40.181  11.654
63404W        W35020  10.061  32.131   2.226
63405W        W35021  17.681  20.181   3.452
63406W        W35022  19.751   2.255   3.376
63407W        W35023  20.036  10.767  12.571
63408W        W35024  32.980   0.698   1.165
63409W        W35025   7.297  19.048   4.568
63410W        W35026   6.860  43.213  12.961
63411W        W35027  33.687  30.651  14.786
63412W        W35028  22.230   5.653  14.834
63413W        W35029  28.493  14.622  10.640
63414W        W35030   5.007   6.300  12.469
63415W        W35031  12.733  39.904   2.212
63416W        W35032  15.712  41.802   2.358
63417W        W35033  25.613  36.451   3.259
63418W        W35034  10.463   6.323   4.915
63419W        W35035  21.559  17.646  13.812
63420W        W35036   5.234  31.460   4.617
63421W        W35037  34.452   7.682   2.104
63422W        W35038  31.210   8.192  14.507
63423W        W35039  13.116  13.179  12.875
63424W        W35040  44.881  25.978   2.667
63425W        W35041   9.676  29.098  13.352
63426W        W35042  41.512  29.153  13.000
63427W        W35043   5.783   6.832  11.297
63428W        W35044  11.127  15.061   0.502
63429W        W35045   2.916  29.751   3.685
63430W        W35046  37.799  24.578   2.701
63431W        W35047  14.268  39.556   0.119
63432W        W35048   4.483  10.236  12.451
63433W        W35049  23.084  18.052  10.668
63434W        W35050  14.274  28.824   0.323
63435W        W35051  38.528   7.249  11.093
63436W        W35052  20.246  16.799   0.813
63437W        W35053   2.576  31.128  13.436
63438W        W35054  14.517  26.043   3.312
63439W        W35055  43.153  40.252   3.391
63440W        W35056   8.693  36.838   1.775
63441W        W35057  14.363  26.873   0.847
63442W        W35058  29.885  20.187   1.197
63443W        W35059  36.059  32.097  10.304
63444W        W35060  38.610  38.525  11.108
63445W        W35061  33.046  34.793  14.068
63446W        W35062   1.707  19.652   4.184
63447W        W35063  12.028   6.763  13.376
63448W        W35064  31.599  18.172  12.961
63449W        W35065  11.810  40.196  12.325
63450W        W35066  16.486   0.994   0.819
63451W        W35067   0.237   5.784  11.916
63452W        W35068  36.103  10.235   0.082
63453W        W35069  24.997  30.039   1.694
63454W        W35070  30.885  12.230  10.693
63455W        W35071  26.587   8.719  11.433
63456W        W35072  23.207  29.860  12.557
63457W        W35073  43.947  22.495  14.844
63458W        W35074  21.435  34.124   0.826
63459W        W35075  15.092   3.936  10.750
63460W        W35076  35.370  28.708   1.675
63461W        W35077   3.172  25.707  13.297
63462W        W35078  19.727  36.840   3.696
63463W        W35079  21.862   1.306  13.356
63464W        W35080  23.205   5.226   3.896
63465W        W35081  39.126  28.958  13.478
63466W        W35082  33.425  31.724  12.065
63467W        W35083  25.436  19.373   2.409
63468W        W35084  27.160  11.628  12.579
63469W        W35085  18.626  28.332   3.453
63470W        W35086  35.548  11.342   0.209
63471W        W35087  42.538  34.466   1.025
63472W        W35088  27.464  31.234   2.901
63473W        W35089  16.748   2.244   4.864
63474W        W35090  27.184  12.280   1.918
63475W        W35091  21.812  22.659  12.526
63476W        W35092  27.143  33.905   1.220
63477W        W35093  32.375  24.090   3.987
63478W        W35094  33.697   5.957  12.629
63479W        W35095   6.030  34.659   4.215
63480W        W35096  40.760  20.152  13.823
63481W        W35097   0.470   7.448  11.841
63482W        W35098  24.277   7.093  11.629
63483W        W35099  20.732   1.767   4.169
63484W        W35100   3.178   9.964   2.289
63485W        W35101  27.432  32.977  14.891
63486W        W35102  29.037  16.178  11.893
63487W        W35103  24.022  13.621   2.134
63488W        W35104   6.851   3.182   2.312
63489W        W35105  19.178  38.069  13.126
63490W        W35106  24.361   5.463  10.565
63491W        W35107   7.460   1.251  12.625
63492W        W35108  22.811  12.865  11.797
63493W        W35109  10.900  35.891  14.596
63494W        W35110  15.369  25.921  12.402
63495W        W35111  42.456  30.928  14.363
63496W        W35112  29.405   9.643  13.299
63497W        W35113   3.815  36.916  12.986
63498W        W35114  24.075  35.461  13.725
63499W        W35115  22.000   0.914  11.708
63500W        W35116  35.410  28.480  11.887
63501W        W35117  30.383  12.304  12.544
63502W        W35118  43.476   6.367  13.874
63503W        W35119  14.967   7.295   4.678
63504W        W35120  41.830   6.940   0.040
63505W        W35121   1.865  21.607   2.238
63506W        W35122   9.057  17.301  11.716
63507W        W35123  27.012  30.486  12.381
63508W        W35124  34.118   6.497   4.181
63509W        W35125  16.082  39.288  11.140
63510W        W35126  38.548  25.061   2.541
63511W        W35127  10.274  36.976  12.820
63512W        W35128  23.976  38.363   1.817
63513W        W35129  21.325  31.959   1.301
63514W        W35130  21.721   3.890   4.785
63515W        W35131  32.803  36.563   3.862
63516W        W35132   5.378  23.149  11.946
63517W        W35133  27.398   0.435  14.401
63518W        W35134   2.823  16.655  11.605
63519W        W35135  31.141   2.837   4.082
63520W        W35136  35.112  40.487  12.594
63521W        W35137  26.471  26.271   1.735
63522W        W35138  32.223  39.333  11.105
63523W        W35139  15.194  23.414   1.933
63524W        W35140  24.448  17.768   4.225
63525W        W35141  12.936   1.856   3.886
63526W        W35142   7.250  10.520  12.440
63527W        W35143  44.379  32.096   1.069
63528W        W35144   2.888  26.170  10.620
63529W        W35145  17.023  16.598  14.963
63530W        W35146  36.498  38.466   1.853
63531W        W35147  17.687  40.202   2.436
63532W        W35148  20.704  11.936   3.240
63533W        W35149  25.983  44.607  11.712
63534W        W35150  28.070  31.864  13.911
63535W        W35151  34.004  27.515  12.817
63536W        W35152  34.569   3.388   4.793
63537W        W35153  38.912  12.075   3.305
63538W        W35154  18.621  37.513  13.839
63539W        W35155  26.959  44.899   0.504
63540W        W35156   8.697  15.573  11.253
63541W        W35157  20.377  34.362   3.869
63542W        W35158  19.698  23.074  12.198
63543W        W35159  29.195  32.576  14.928
63544W        W35160   8.281  33.465   5.002
63545W        W35161   8.186  15.274   0.223
63546W        W35162  13.659  35.788  14.155
63547W        W35163   5.348  39.452  12.430
63548W        W35164  37.343  26.395  14.960
63549W        W35165  11.856  31.995  12.366
63550W        W35166  15.539  15.214   4.687
63551W        W35167  17.343  36.523  12.401
63552W        W35168  11.983   6.476  10.019
63553W        W35169  27.193  11.676   0.856
63554W        W35170   1.907  34.643   2.174
63555W        W35171  44.850   0.535   3.622
63556W        W35172  28.715  14.183  11.532
63557W        W35173  21.315  20.793  11.027
63558W        W35174  39.872  29.293   4.678
63559W        W35175   4.295  37.387   0.660
63560W        W35176  21.239  18.197  14.446
63561W        W35177  12.330  35.244  14.528
63562W        W35178  17.468  37.457  12.018
63563W        W35179  35.037  26.588  12.435
63564W        W35180  32.032   9.125  12.934
63565W        W35181  24.608   3.346  11.586
63566W        W35182  13.609  41.355   3.694
63567W        W35183  11.706  25.631  10.822
63568W        W35184   4.324  13.336  12.437
63569W        W35185  34.433  32.074   4.022
63570W        W35186  11.820  19.793   4.984
63571W        W35187  27.028  39.327  14.386
63572W        W35188  13.958   5.880   1.789
63573W        W35189   7.814  35.589  11.512
63574W        W35190  38.851   2.304  11.551
63575W        W35191   0.406  13.295  14.224
63576W        W35192  11.316  28.054   1.675
63577W        W35193  29.661  25.725   0.301
63578W        W35194  35.044   7.333   1.566
63579W        W35195  41.402  17.607   3.401
63580W        W35196  12.737   6.733   2.194
63581W        W35197  27.998  28.948  13.593
63582W        W35198  40.485  10.813  14.282
63583W        W35199  24.874  34.648  14.791
63584W        W35200  41.506  29.742   1.809
63585W        W35201  22.189  44.784  11.131
63586W        W35202   1.818   9.250  11.839
63587W        W35203  20.625  18.731  11.990
63588W        W35204  21.071  35.408  13.558
63589W        W35205  32.150   3.827  10.718
63590W        W35206   8.088   2.779   0.400
63591W        W35207  26.112  25.474   1.931
63592W        W35208  22.742  17.109  13.263
63593W        W35209   2.959  30.394  14.231
63594W        W35210  14.691  31.116  11.969
63595W        W35211   0.919  31.044   2.408
63596W        W35212  11.586  25.525   4.575
63597W        W35213  25.789  28.075  14.342
63598W        W35214  20.530  23.225  13.540
63599W        W35215  38.267  15.819   1.855
63600W        W35216  33.942  31.651   3.265
63601W        W35217   5.251  32.938   3.614
63602W        W35218  19.726  16.776  10.113
63603W        W35219   6.817  29.506  14.009
63604W        W35220   5.838   5.882   3.228
63605W        W35221  11.391  22.101   0.118
63606W        W35222  28.601  24.220  11.454
63607W        W35223   2.926   1.987   4.682
63608W        W35224  26.225  21.653  13.090
63609W        W35225  19.535  43.837  14.974
63610W        W35226  20.965   8.594  11.986
63611W        W35227  14.761   8.258   4.639
63612W        W35228   8.233  17.492  14.261
63613W        W35229  22.039   2.855  14.313
63614W        W35230   4.294   8.735  11.448
63615W        W35231  27.654   2.901   1.612
63616W        W35232   8.476  27.738   3.190
63617W        W35233  14.493  44.422  12.379
63618W        W35234  42.963  44.790  12.614
63619W        W35235  42.895   2.022  12.964
63620W        W35236   9.208  36.095  11.196
63621W        W35237  37.140  29.050  13.045
63622W        W35238   1.898  31.481  12.861
63623W        W35239  36.893  30.354  12.075
63624W        W35240  14.965  22.556  14.406
63625W        W35241  28.943  24.669   2.923
63626W        W35242  31.863  18.092   4.350
63627W        W35243  25.439  11.377  12.935
63628W        W35244  10.338   3.718   0.855
63629W        W35245  37.340   8.961   0.625
63630W        W35246  23.203   1.187   2.146
63631W        W35247   0.293   3.302  13.341
63632W        W35248  44.801  41.183  11.195
63633W        W35249  38.588  22.487   3.260
63634W        W35250  26.689  17.142   3.361
63635W        W35251  10.272  26.147   2.331
63636W        W35252   1.616  44.538   1.255
63637W        W35253  11.941   5.005   0.218
63638W        W35254   8.204  34.297   4.569
63639W        W35255  43.949   6.964   1.781
63640W        W35256  15.790  36.575  11.031
63641W        W35257  20.618  35.501  14.429
63642W        W35258  12.675  33.415   3.725
63643W        W35259  24.708  22.120   1.210
63644W        W35260  17.330   9.343   4.648
63645W        W35261  24.386  24.606   0.849
63646W        W35262  39.975  37.587   1.370
63647W        W35263  41.869  44.644   0.841
63648W        W35264   5.904  23.464   1.436
63649W        W35265  33.021  32.041   3.303
63650W        W35266   5.700  44.596  12.224
63651W        W35267  18.305   4.542  11.519
63652W        W35268  27.851   3.744   4.168
63653W        W35269  12.272  35.647   1.503
63654W        W35270  18.048  40.801   2.659
63655W        W35271  20.794  10.775   4.316
63656W        W35272  41.806  41.097   4.875
63657W        W35273   1.000  42.349   3.216
63658W        W35274  30.216  42.231  11.530
63659W        W35275   7.087  39.737  11.092
63660W        W35276  40.431  38.204  12.548
63661W        W35277  43.013  43.263  12.406
63662W        W35278  14.694  24.253  14.830
63663W        W35279   8.932   0.442   4.995
63664W        W35280  28.971  37.444  13.886
63665W        W35281  36.154  42.183  14.399
63666W        W35282  11.266  33.040   4.564
63667W        W35283   1.189  35.361   3.159
63668W        W35284  38.574  23.042   2.820
63669W        W35285  23.155  35.494  11.511
63670W        W35286  10.941   7.995  12.955
63671W        W35287  33.387   2.829  11.407
63672W        W35288  41.811  14.785  14.453
63673W        W35289  34.732   9.644  12.530
63674W        W35290  30.429  41.268  13.323
63675W        W35291   8.415  43.276  13.128
63676W        W35292  38.250  11.489   4.900
63677W        W35293  25.773  29.908   4.292
63678W        W35294  17.248  11.287  14.085
63679W        W35295  39.831  20.515  11.428
63680W        W35296   2.493  24.660   3.382
63681W        W35297  36.549   6.706   0.772
63682W        W35298  16.762   0.892   1.241
63683W        W35299  11.598  14.259  14.912
63684W        W35300   2.105  29.061   1.177
63685W        W35301  17.320  29.930   1.744
63686W        W35302  27.168  35.865   2.651
63687W        W35303  41.750  41.699  12.470
63688W        W35304   9.208  37.381   4.929
63689W        W35305   7.342  36.812   1.550
63690W        W35306   5.698   0.964   4.462
63691W        W35307   2.148  19.065  13.826
63692W        W35308  24.021  42.167   1.157
63693W        W35309   6.179  40.337   3.267
63694W        W35310  37.867  27.558   0.706
63695W        W35311  26.059  17.152  12.589
63696W        W35312  10.438  23.716   4.434
63697W        W35313  35.877  43.952  12.915
63698W        W35314  11.184   4.175  11.057
63699W        W35315   0.386  43.426   4.392
63700W        W35316  11.334   1.390   1.479
63701W        W35317  42.337   5.028  14.429
63702W        W35318  33.151  44.458  13.673
63703W        W35319   1.960  19.686   2.258
63704W        W35320  14.021  24.131   2.685
63705W        W35321  34.156  38.989   4.225
63706W        W35322   0.411  22.165   0.945
63707W        W35323  32.877  11.161  13.859
63708W        W35324  35.371  33.100   3.230
63709W        W35325  16.198  29.432   1.260
63710W        W35326  32.091   0.895  12.403
63711W        W35327  42.400  31.036  13.485
63712W        W35328  44.082  35.944   5.062
63713W        W35329  40.750   9.544  13.558
63714W        W35330  38.432  26.637  11.006
63715W        W35331   4.209  10.365  12.907
63716W        W35332  23.307  23.527   4.467
63717W        W35333  35.140   8.107  11.598
63718W        W35334  26.241  39.528   0.017
63719W        W35335   3.708   8.480   1.852
63720W        W35336   1.762   5.360  11.609
63721W        W35337   4.706   2.160  11.624
63722W        W35338  27.729  31.940   3.318
63723W        W35339   7.250   1.452  11.180
63724W        W35340  32.180  36.756   2.298
63725W        W35341  29.111  33.051  14.159
63726W        W35342  24.694  12.783   3.736
63727W        W35343  11.755  18.214  10.727
63728W        W35344   6.280  13.893   2.833
63729W        W35345  25.699  16.088   4.565
63730W        W35346  20.709   0.231   1.848
63731W        W35347  27.169  25.214   0.669
63732W        W35348  37.067   5.077  12.575
63733W        W35349  37.482  19.045   3.843
63734W        W35350   4.869  24.834   3.217
63735W        W35351  36.868   7.511  11.480
63736W        W35352   1.122  39.888  14.618
63737W        W35353   8.838  15.146   3.406
63738W        W35354  37.482  32.918  10.577
63739W        W35355  11.924  25.747  13.904
63740W        W35356  40.372  40.581  12.041
63741W        W35357  28.458  13.349   1.299
63742W        W35358   5.900   4.661   1.782
63743W        W35359  33.103  30.378   1.679
63744W        W35360  33.583  20.107  10.291
63745W        W35361  22.986   1.335   1.202
63746W        W35362  11.360   5.012  10.750
63747W        W35363  22.271   5.248   2.373
63748W        W35364  21.176  39.492   3.676
63749W        W35365  13.273  42.613  12.902
63750W        W35366  31.456  21.015  14.429
63751W        W35367  10.461  34.399   1.979
63752W        W35368   2.894  13.442  12.578
63753W        W35369  30.866   8.578   2.901
63754W        W35370  19.726   7.697  14.402
63755W        W35371  13.559  41.799  14.700
63756W        W35372  35.840  32.489   0.807
63757W        W35373   6.679  43.195  11.158
63758W        W35374  39.826  39.280   0.766
63759W        W35375  11.367  42.058   4.182
63760W        W35376   2.945  30.189  13.199
63761W        W35377  37.929  22.215   0.800
63762W        W35378  13.358  36.666   1.262
63763W        W35379  33.856  32.668   4.237
63764W        W35380  27.226   0.815  12.934
63765W        W35381  10.555  19.251  14.882
63766W        W35382  33.758   4.781  12.895
63767W        W35383  19.808   3.382   0.006
63768W        W35384  14.344  35.773  11.600
63769W        W35385  31.981  32.867   1.881
63770W        W35386  43.270  24.596   4.687
63771W        W35387  33.121   6.990   3.233
63772W        W35388  36.649  32.396  11.556
63773W        W35389  14.270  25.654   4.792
63774W        W35390   3.673   7.456   2.789
63775W        W35391   4.082  14.166  14.415
63776W        W35392   9.187  35.845  14.353
63777W        W35393  29.998  29.493  13.884
63778W        W35394  30.485  28.500   0.048
63779W        W35395  29.952   6.179   0.252
63780W        W35396   8.745  33.005   2.342
63781W        W35397  14.174  13.023  10.764
63782W        W35398  12.373  13.685   3.479
63783W        W35399  43.426   6.330  11.485
63784W        W35400  42.020  28.523  13.072
63785W        W35401   3.862  14.038   0.860
63786W        W35402  28.538  12.810   1.978
63787W        W35403  37.053   8.906  10.871
63788W        W35404  11.676  29.625   0.212
63789W        W35405  30.381  24.629   4.121
63790W        W35406  18.243  38.957   1.907
63791W        W35407  17.129  34.354  11.364
63792W        W35408  13.511  20.694  13.373
63793W        W35409  16.629   1.600   0.318
63794W        W35410   8.820  22.724  11.182
63795W        W35411  25.534  31.496  10.814
63796W        W35412  17.922   2.909  11.943
63797W        W35413  13.496  12.272   2.766
63798W        W35414   1.338  22.990   2.257
63799W        W35415   3.365  13.313   4.240
63800W        W35416  38.115   5.002   2.350
63801W        W35417  36.477   8.334  11.057
63802W        W35418  10.140  27.570  14.435
63803W        W35419  34.023  29.415   0.231
63804W        W35420  14.074  36.550   3.682
63805W        W35421  19.190  26.948   4.230
63806W        W35422  19.457  22.183  10.912
63807W        W35423  27.513   2.911  14.468
63808W        W35424  17.083   5.447   3.881
63809W        W35425  43.988  42.017  12.007
63810W        W35426  12.644   6.489  13.989
63811W        W35427  19.087  21.575  12.449
63812W        W35428  13.578  16.762  14.450
63813W        W35429   8.460  13.301  13.874
63814W        W35430  30.535  22.371  12.485
63815W        W35431  39.458   0.004  11.158
63816W        W35432  19.090  20.501  10.976
63817W        W35433  10.938  37.344  12.558
63818W        W35434  40.883  22.618  13.514
63819W        W35435   9.570  19.078  14.570
63820W        W35436   6.233  14.065   2.339
63821W        W35437  34.020   9.706   0.964
63822W        W35438  42.359  24.664   3.687
63823W        W35439  29.427  18.187  10.779
63824W        W35440  40.344  17.580  10.676
63825W        W35441   2.734  40.868  13.478
63826W        W35442  16.499   3.843   3.237
63827W        W35443  39.536   5.200   3.569
63828W        W35444  26.512  43.249  14.291
63829W        W35445  44.424  36.082  13.838
63830W        W35446  10.735  14.151  14.021
63831W        W35447  10.616  39.998  10.552
63832W        W35448  23.534  16.134   4.104
63833W        W35449  23.083   7.935   0.480
63834W        W35450  42.786  31.528   0.396
63835W        W35451   3.161  31.099  12.570
63836W        W35452  21.534  10.319   3.923
63837W        W35453   6.833  22.589   0.427
63838W        W35454   1.750  35.746   1.962
63839W        W35455  21.628  16.165  13.358
63840W        W35456  41.987  37.883   4.179
63841W        W35457  21.085   8.904  10.716
63842W        W35458   4.045  24.034   4.217
63843W        W35459  19.448   1.026  11.048
63844W        W35460  23.076  25.501  12.966
63845W        W35461  15.566  22.961  14.869
63846W        W35462   8.318   1.437  11.026
63847W        W35463  31.589   9.428  12.944
63848W        W35464  13.646  42.640  13.856
63849W        W35465  19.654  21.524  11.601
63850W        W35466  27.710  42.003  11.137
63851W        W35467  22.160  43.947  14.139
63852W        W35468  30.231  10.592  11.480
63853W        W35469  24.474  22.280  11.209
63854W        W35470   9.227  39.587   2.641
63855W        W35471  44.400  39.417  14.265
63856W        W35472  16.768  26.950   4.831
63857W        W35473  33.378  20.043   4.286
63858W        W35474  12.743  14.227   4.691
63859W        W35475  40.408  27.748  11.296
63860W        W35476  44.333  15.326   3.625
63861W        W35477  39.555   2.856  11.676
63862W        W35478  22.528  34.356  14.925
63863W        W35479  44.853  39.999  12.453
63864W        W35480  19.172  34.510   4.194
63865W        W35481  26.560  41.186   4.210
63866W        W35482   2.462  43.978  12.876
63867W        W35483  44.772  37.726  10.174
63868W        W35484   0.006   1.542  13.119
63869W        W35485  26.122  40.049  14.856
63870W        W35486  16.569  36.481  13.349
63871W        W35487   5.838  28.219   1.440
63872W        W35488  30.690  10.414  10.358
63873W        W35489  26.491  44.085  12.487
63874W        W35490  15.041  38.953  13.372
63875W        W35491  11.142  25.200  13.873
63876W        W35492  32.903  31.223  10.895
63877W        W35493   9.161   7.813   0.785
63878W        W35494   7.112   6.747   3.326
63879W        W35495  31.144  31.314   2.391
63880W        W35496   7.758  11.058  12.784
63881W        W35497  32.061  42.447  11.980
63882W        W35498  36.206  14.807   2.922
63883W        W35499  18.304  16.923  11.073
63884W        W35500  42.505  16.468  14.401
63885W        W35501  27.898  11.822  11.963
63886W        W35502   7.696  41.237   4.710
63887W        W35503  32.372  32.185  14.450
63888W        W35504  39.484  34.149  14.056
63889W        W35505  44.323  20.060   0.906
63890W        W35506   8.679   4.274  12.767
63891W        W35507  24.081  11.829  14.011
63892W        W35508   9.569  14.150   4.518
63893W        W35509  10.594  35.048   1.001
63894W        W35510   8.215   0.744   3.165
63895W        W35511   0.332  42.027   1.196
63896W        W35512   3.917  34.415  12.530
63897W        W35513  13.713  33.939   3.247
63898W        W35514  40.475   6.228   2.756
63899W        W35515  40.710  21.937   3.564
63900W        W35516  35.898  23.452  13.305
63901W        W35517  38.575  18.531  11.643
63902W        W35518  16.055  39.795   1.841
63903W        W35519  41.554  42.099   5.024
63904W        W35520  33.507   8.825  10.708
63905W        W35521  11.172   9.888  14.692
63906W        W35522   6.610  12.259   0.395
63907W        W35523  17.242  35.955  12.534
63908W        W35524  35.560  31.916  14.854
63909W        W35525  19.990  25.666   5.255
63910W        W35526  25.603  30.097  12.575
63911W        W35527  26.409  32.512  14.035
63912W        W35528   4.342  43.353   0.925
63913W        W35529  42.383  15.380   4.751
63914W        W35530   0.256  36.266   3.249
63915W        W35531   1.356  22.552  10.663
63916W        W35532  29.012  23.468  13.415
63917W        W35533  13.742  12.310   1.445
63918W        W35534   6.314  33.572   3.178
63919W        W35535   4.185  10.184   3.314
63920W        W35536  43.764  19.616  12.135
63921W        W35537  40.853   8.901   1.777
63922W        W35538  23.181  29.216   0.244
63923W        W35539  32.452  12.198  12.375
63924W        W35540  29.558  27.681  11.021
63925W        W35541  12.901  12.724  13.024
63926W        W35542  23.446   7.331   3.148
63927W        W35543  19.594   1.306  12.632
63928W        W35544  10.341  28.175  10.874
63929W        W35545  30.631  41.927   0.499
63930W        W35546  29.537  37.050   4.645
63931W        W35547  26.511  26.931  11.847
63932W        W35548   6.929  17.874   1.826
63933W        W35549   3.487  41.255   2.261
63934W        W35550  33.527  15.598  11.600
63935W        W35551  41.610   1.201  12.971
63936W        W35552  33.596  22.015  10.709
63937W        W35553  13.637   5.768   4.596
63938W        W35554  16.696   0.307  13.918
63939W        W35555  34.090   6.683  11.480
63940W        W35556  41.112  43.811   0.449
63941W        W35557   0.889  41.605  14.061
63942W        W35558  22.155  31.944  10.576
63943W        W35559   6.301  28.093  14.882
63944W        W35560  20.141  17.982  12.157
63945W        W35561   4.676  37.348   1.450
63946W        W35562   6.206  24.794   0.307
63947W        W35563  29.206  17.311   1.605
63948W        W35564  36.591  27.732   1.422
63949W        W35565   8.221  41.601   0.270
63950W        W35566  14.759  42.791   1.457
63951W        W35567  19.793  22.478   2.135
63952W        W35568  12.390  17.806  14.865
63953W        W35569  36.909   7.211  14.289
63954W        W35570  18.783  18.709   3.815
63955W        W35571   0.039  25.114  13.849
63956W        W35572  14.529  41.446   1.226
63957W        W35573  26.625   6.146  11.475
63958W        W35574  37.598   3.805  12.787
63959W        W35575  31.905   5.505   2.311
63960W        W35576  13.180  27.060  12.385
63961W        W35577  22.541  15.214   0.307
63962W        W35578  17.170  40.886  10.121
63963W        W35579  10.772  32.613   3.164
63964W        W35580  29.153   6.872  11.483
63965W        W35581  33.978  44.997  11.642
63966W        W35582  37.344  37.431   1.804
63967W        W35583  12.606  20.207   1.978
63968W        W35584   0.528  20.492  12.424
63969W        W35585  43.542  36.630   4.646
63970W        W35586  34.943  26.215   0.005
63971W        W35587  30.410  17.824   2.922
63972W        W35588  20.530  28.297   2.187
63973W        W35589  30.436   8.485  14.059
63974W        W35590   4.778  15.739   1.726
63975W        W35591   7.940   6.691  13.752
63976W        W35592  13.670  26.694   4.198
63977W        W35593  16.567  32.831   3.688
63978W        W35594   7.708  20.068  12.530
63979W        W35595  38.335   3.394  13.992
63980W        W35596   0.919  15.616   1.125
63981W        W35597   8.773  18.011   0.452
63982W        W35598   7.897  11.428  14.887
63983W        W35599   5.163  44.669   4.673
63984W        W35600  40.674  43.910  13.374
63985W        W35601   5.415  31.031  12.890
63986W        W35602  28.978   9.657   2.482
63987W        W35603  11.135  31.216   1.199
63988W        W35604  22.547  29.184   2.807
63989W        W35605  21.044  12.167  10.145
63990W        W35606  24.943  12.430  11.205
63991W        W35607  38.881   0.284  14.307
63992W        W35608   7.597  24.673   0.409
63993W        W35609  15.291  38.465  14.330
63994W        W35610  13.361  27.181  11.900
63995W        W35611  21.699   2.219  11.574
63996W        W35612   6.388  28.469   3.619
63997W        W35613  17.661  14.659  11.902
63998W        W35614  20.187  29.127   3.698
63999W        W35615  28.907  18.289   1.254
64000W        W35616  24.721   2.216   1.003
64001W        W35617  24.639  13.794  12.384
64002W        W35618  41.285  18.668   1.323
64003W        W35619  44.435  11.651   2.339
64004W        W35620  30.042   0.474  14.967
64005W        W35621  27.186  12.859  12.533
64006W        W35622  24.668  18.023   3.847
64007W        W35623  11.275  27.943  10.991
64008W        W35624  26.428  34.941   4.106
64009W        W35625   3.209  34.087   4.610
64010W        W35626  12.303  22.655  13.935
64011W        W35627  26.816  17.195  11.904
64012W        W35628   4.753  15.583   4.123
64013W        W35629  37.455  32.525   4.793
64014W        W35630  23.920  37.293  14.916
64015W        W35631  16.221  23.927  13.018
64016W        W35632  13.710   4.930  14.302
64017W        W35633  12.786   0.055   4.016
64018W        W35634   5.102  22.259   3.143
64019W        W35635   5.678  11.878   0.892
64020W        W35636  18.384  41.989   0.809
64021W        W35637  19.241  36.113  12.578
64022W        W35638  26.417   6.410  11.083
64023W        W35639  33.143  28.047  11.575
64024W        W35640   5.631  29.098  13.508
64025W        W35641  42.444  10.303   2.453
64026W        W35642  18.087   3.929  12.030
64027W        W35643  35.016   8.317  10.627
64028W        W35644  13.644  36.512   0.501
64029W        W35645  10.799   6.297  12.362
64030W        W35646  24.375  41.082   2.461
64031W        W35647  14.189  32.106   1.945
64032W        W35648   3.812  31.628   1.349
64033W        W35649  14.681  30.832  13.486
64034W        W35650   3.574  14.811   4.907
64035W        W35651   3.727  44.942   2.188
64036W        W35652  13.757   3.862  13.781
64037W        W35653  29.991   4.365  11.654
64038W        W35654  37.541  13.108   4.073
64039W        W35655   7.047  36.831   0.941
64040W        W35656  44.944  44.347   4.624
64041W        W35657  28.178  20.489  13.980
64042W        W35658   5.246   1.305   2.591
64043W        W35659  43.935   6.890  12.829
64044W        W35660  24.486  33.525   0.632
64045W        W35661  32.473   4.170  11.511
64046W        W35662  39.500   2.519   0.987
64047W        W35663   6.660  25.221  11.073
64048W        W35664  42.936  36.727   0.941
64049W        W35665  21.576  37.143  14.023
64050W        W35666  44.961  12.244   2.853
64051W        W35667   1.868   8.276  12.647
64052W        W35668   0.420  32.823  10.529
64053W        W35669  22.014  37.923  12.418
64054W        W35670  16.039   2.725   4.565
64055W        W35671  10.893   8.795  12.409
64056W        W35672  40.907   9.170   4.149
64057W        W35673  29.074  17.938   3.931
64058W        W35674  34.666  37.342  10.522
64059W        W35675  38.389  28.584   2.169
64060W        W35676  31.958  10.365  11.387
64061W        W35677  36.967   8.213  12.824
64062W        W35678   4.921  22.000   3.869
64063W        W35679   9.797  41.117  14.904
64064W        W35680   6.283  15.726  10.687
64065W        W35681   6.104   5.755  14.272
64066W        W35682  32.848  37.317  10.386
64067W        W35683   1.845  37.917  11.492
64068W        W35684  38.819  27.967  11.138
64069W        W35685  32.061   9.469  10.691
64070W        W35686  18.846  34.928   2.476
64071W        W35687  13.618  41.246   4.264
64072W        W35688   8.860  10.824  13.935
64073W        W35689  40.407  32.124   3.618
64074W        W35690  33.984   4.630  11.583
64075W        W35691  16.548   3.910   0.449
64076W        W35692  12.888   7.342  12.524
64077W        W35693   2.160  22.595   0.924
64078W        W35694  41.589  27.988  11.116
64079W        W35695  43.533   6.762  12.524
64080W        W35696   8.461  29.552   0.040
64081W        W35697   3.338  19.023  14.534
64082W        W35698   3.831  27.437   0.942
64083W        W35699  15.896  28.016   2.424
64084W        W35700  32.536   0.474   5.047
64085W        W35701  14.456  30.273  11.921
64086W        W35702   7.734  13.333   2.846
64087W        W35703  39.334  42.457  13.595
64088W        W35704  16.047   8.155   1.182
64089W        W35705  11.247  44.460   3.632
64090W        W35706   9.392   7.900   2.378
64091W        W35707  36.877  40.757   3.755
64092W        W35708  23.098  12.320   1.343
64093W        W35709  35.169  11.088   3.724
64094W        W35710  10.169   7.727  13.119
64095W        W35711  26.183  38.810   3.597
64096W        W35712  22.169  22.394  13.382
64097W        W35713  32.402   8.770   1.225
64098W        W35714  27.941  40.054  12.164
64099W        W35715  16.428   0.554   2.789
64100W        W35716  44.498   1.504  13.039
64101W        W35717   1.067  43.996  10.417
64102W        W35718  33.424  13.790   0.487
64103W        W35719  28.178  20.428   0.078
64104W        W35720  25.509   4.609   2.751
64105W        W35721  24.098  26.124   2.378
64106W        W35722  30.739  30.612   4.077
64107W        W35723   2.877   7.162   1.423
64108W        W35724   3.803  27.169  11.574
64109W        W35725  26.176   0.792   1.053
64110W        W35726  44.351  40.539  13.542
64111W        W35727  34.542  16.059  13.518
64112W        W35728  33.089  29.491   1.958
64113W        W35729  36.881  21.816  12.453
64114W        W35730  21.784  24.181  11.611
64115W        W35731  33.686   6.754   4.111
64116W        W35732  25.224  43.986  11.212
64117W        W35733  41.863   6.215   3.070
64118W        W35734  14.290  38.481   2.189
64119W        W35735  23.779  22.787  11.525
64120W        W35736  36.991   9.653   3.263
64121W        W35737   7.224  12.175  10.703
64122W        W35738   6.656  19.152  13.046
64123W        W35739  12.790  31.107   0.400
64124W        W35740  17.092  25.118  10.777
64125W        W35741  40.993  12.690   4.098
64126W        W35742   9.066  34.727   3.632
64127W        W35743  10.251  43.803   0.578
64128W        W35744  33.390  29.601  13.004
64129W        W35745  13.838  10.588   4.830
64130W        W35746   1.438  33.611  14.392
64131W        W35747  34.592  39.544  12.100
64132W        W35748  30.971  35.470   2.819
64133W        W35749  35.839  21.167  10.377
64134W        W35750  25.818  24.975   3.733
64135W        W35751  43.716  41.210   0.875
64136W        W35752  41.992  37.420   2.846
64137W        W35753  24.151  37.044   1.399
64138W        W35754  32.291  43.370   4.106
64139W        W35755  19.983  28.387  11.631
64140W        W35756  12.904  23.137   1.424
64141W        W35757  21.896  23.618   1.866
64142W        W35758  29.451   3.798   2.460
64143W        W35759  13.592  13.636  12.619
64144W        W35760  20.493   9.349   1.232
64145W        W35761  43.533  14.055   4.700
64146W        W35762  24.839   3.012   4.352
64147W        W35763  34.521  16.591   3.766
64148W        W35764  18.285  38.433  12.851
64149W        W35765  42.619   3.372   0.904
64150W        W35766  30.490  18.232   0.099
64151W        W35767  27.946   4.765   4.126
64152W        W35768  22.803  31.553  12.852
64153W        W35769  11.898  38.754   0.941
64154W        W35770   4.892  43.350   4.742
64155W        W35771  13.877  38.699   0.928
64156W        W35772  41.057  13.999   4.250
64157W        W35773  23.024  32.236   2.289
64158W        W35774  10.150  40.036  10.744
64159W        W35775  44.707   7.332  12.966
64160W        W35776  32.135  38.855  12.361
64161W        W35777  11.729   9.271   3.727
64162W        W35778  26.339  12.066   1.788
64163W        W35779  30.147  38.623   4.235
64164W        W35780  16.560  40.544  13.015
64165W        W35781  39.589  17.762   1.309
64166W        W35782  31.531  38.343  14.061
64167W        W35783  40.514  16.261  12.344
64168W        W35784  23.324  24.887  13.316
64169W        W35785  26.499  31.134   0.383
64170W        W35786  24.683   7.934   0.045
64171W        W35787  13.340  36.292  10.662
64172W        W35788  27.025  13.724  11.734
64173W        W35789   2.998  25.185   0.772
64174W        W35790  26.879  32.922  10.573
64175W        W35791   7.665  21.709   0.948
64176W        W35792  31.345  30.911  11.466
64177W        W35793   2.863   9.485   4.867
64178W        W35794  17.889   6.648   1.302
64179W        W35795  40.600  14.924  11.642
64180W        W35796   4.210  43.950   3.741
64181W        W35797  10.430  36.505  12.736
64182W        W35798   3.307  22.173  14.884
64183W        W35799  43.974  20.599  12.565
64184W        W35800  24.119  26.228  10.397
64185W        W35801  25.752  14.721  13.078
64186W        W35802  23.614  43.506   1.737
64187W        W35803   2.547   7.825   3.908
64188W        W35804  44.595  38.823  10.131
64189W        W35805  38.019  44.187  13.598
64190W        W35806  34.587  10.327   3.650
64191W        W35807  12.592  27.151   3.606
64192W        W35808  36.027  38.350   4.739
64193W        W35809  41.080   5.386   4.536
64194W        W35810  43.508  27.015   4.885
64195W        W35811  25.950   6.735   4.105
64196W        W35812  13.339  25.335   2.404
64197W        W35813   0.920  25.153  11.941
64198W        W35814  14.324  14.096  10.684
64199W        W35815   4.929  14.599  13.688
64200W        W35816  43.930  32.372  10.540
64201W        W35817  14.775  12.868   0.360
64202W        W35818  41.417   6.988  11.915
64203W        W35819   2.271  18.162   1.437
64204W        W35820  43.560  39.774  12.551
64205W        W35821  39.230  28.544   3.695
64206W        W35822  24.692  16.770   0.749
64207W        W35823  44.411  34.459   4.199
64208W        W35824  31.617  43.156   0.533
64209W        W35825  28.962  29.086  11.144
64210W        W35826   0.337  22.672   2.785
64211W        W35827  13.137   0.903   4.588
64212W        W35828  14.578  30.335  13.529
64213W        W35829  12.830  20.621   4.216
64214W        W35830  38.856  42.619   0.356
64215W        W35831  26.147  31.503   0.552
64216W        W35832  39.725  44.809  12.740
64217W        W35833  20.744  37.550   0.169
64218W        W35834  30.576  20.209  13.868
64219W        W35835   0.851  35.822  12.160
64220W        W35836  32.082  14.596   0.586
64221W        W35837  24.501  33.217   2.693
64222W        W35838   4.503  23.775   2.355
64223W        W35839  27.054  16.910   1.329
64224W        W35840  18.576   3.724   1.498
64225W        W35841  30.326  36.414   0.004
64226W        W35842  12.790  44.555  10.569
64227W        W35843  32.931   2.521   3.160
64228W        W35844  28.445  34.588  13.352
64229W        W35845   4.243  43.961  14.913
64230W        W35846  16.712  19.578  13.872
64231W        W35847  33.927  20.634  11.380
64232W        W35848  20.577  43.383  10.977
64233W        W35849  43.175  19.457  11.002
64234W        W35850  31.670  39.245   3.602
64235W        W35851  31.091   9.860   1.064
64236W        W35852  23.109  43.305  10.465
64237W        W35853  33.706  26.223   3.643
64238W        W35854  25.506   2.535  14.962
64239W        W35855  17.756  17.851  13.270
64240W        W35856  28.125   7.696   1.988
64241W        W35857  13.691  37.049  13.697
64242W        W35858  28.942  30.906   2.489
64243W        W35859  21.970  41.339  14.401
64244W        W35860   0.012  26.023  13.465
64245W        W35861  34.996   7.229  13.032
64246W        W35862  11.785  40.578  14.460
64247W        W35863  23.431  29.248  14.801
64248W        W35864  31.079  15.761  10.228
64249W        W35865  38.234  11.088   4.522
64250W        W35866  11.852  38.995   0.498
64251W        W35867  19.175   4.899  12.572
64252W        W35868  10.678   3.334   2.406
64253W        W35869   1.425  42.375   4.733
64254W        W35870  44.305  30.865  13.973
64255W        W35871  21.722  19.049   3.791
64256W        W35872  11.500  16.179   1.326
64257W        W35873  34.505  17.623  10.401
64258W        W35874  13.673   2.846  14.718
64259W        W35875  34.048  33.566  13.931
64260W        W35876   7.969   3.670  14.779
64261W        W35877  20.055   4.336   3.629
64262W        W35878  30.162  16.671  14.884
64263W        W35879  17.965  21.215  12.097
64264W        W35880  35.150  17.124  10.794
64265W        W35881  22.156  27.367   2.788
64266W        W35882  32.908  24.516   1.253
64267W        W35883  12.337  22.137   0.602
64268W        W35884   8.788   0.561   3.151
64269W        W35885  28.508  33.799   3.188
64270W        W35886   8.490  35.975  10.609
64271W        W35887  18.560  23.123  12.967
64272W        W35888  15.847  16.757  12.077
64273W        W35889  43.050  15.999  11.595
64274W        W35890  30.219  10.238  10.502
64275W        W35891  23.135  40.785  11.510
64276W        W35892   9.632  43.839   1.898
64277W        W35893  19.277   1.973  10.698
64278W        W35894  27.286   4.948  11.191
64279W        W35895  36.445  12.319  11.426
64280W        W35896   7.591  24.011   0.811
64281W        W35897  13.421  43.420  10.780
64282W        W35898  24.876  32.623   4.417
64283W        W35899  13.908  34.573   3.599
64284W        W35900  10.858  42.845  13.708
64285W        W35901  26.574  39.007   3.307
64286W        W35902   2.979   2.510  14.955
64287W        W35903  37.533  35.994   0.050
64288W        W35904   6.333  23.227   3.164
64289W        W35905  13.248  22.649  12.041
64290W        W35906  33.775  18.452   0.037
64291W        W35907  10.653  18.778   2.654
64292W        W35908  21.205   9.487   2.471
64293W        W35909  17.609  40.771   4.755
64294W        W35910  12.917  34.359   3.767
64295W        W35911   3.981   4.326  12.864
64296W        W35912  38.426  12.170   3.175
64297W        W35913  34.112  30.841   4.595
64298W        W35914  42.417  38.801   4.260
64299W        W35915   8.945  43.431   3.642
64300W        W35916  16.981  19.736   2.906
64301W        W35917  24.521  16.151  13.488
64302W        W35918  34.649  27.182  11.113
64303W        W35919  25.173   5.689   2.631
64304W        W35920  15.710  37.003   3.094
64305W        W35921   0.331  15.265   4.274
64306W        W35922  13.653   1.328  14.016
64307W        W35923  23.070  15.671  11.238
64308W        W35924   0.548   5.248  12.387
64309W        W35925  24.940  16.162   4.240
64310W        W35926   3.340  25.656  11.007
64311W        W35927  36.531  32.084  12.105
64312W        W35928   6.252  42.029   0.338
64313W        W35929  17.635  36.536  13.415
64314W        W35930  21.353  35.512  12.915
64315W        W35931  24.379  12.438  14.675
64316W        W35932  12.409   3.722  12.875
64317W        W35933   2.583  21.493   4.594
64318W        W35934  44.471  25.621   0.451
64319W        W35935  18.863  34.380  13.028
64320W        W35936  32.596  34.833   3.748
64321W        W35937  11.562  16.756   3.204
64322W        W35938  34.199  35.357  13.569
64323W        W35939  10.640  12.797  10.556
64324W        W35940  38.770  18.865  12.973
64325W        W35941  29.527  42.212   1.258
64326W        W35942  16.810  29.124   1.343
64327W        W35943  30.405  36.537   2.404
64328W        W35944   2.535  29.433  13.463
64329W        W35945  38.535  15.531   2.263
64330W        W35946  31.032   8.893   2.240
64331W        W35947  18.361  43.519   2.334
64332W        W35948  21.648   5.821   4.584
64333W        W35949   8.602  34.484   1.523
64334W        W35950   9.678  32.161  10.868
64335W        W35951  33.733  24.692   0.531
64336W        W35952   0.321   8.450  11.609
64337W        W35953  23.955  31.869  10.610
64338W        W35954   2.016  40.710  12.815
64339W        W35955   3.809  31.236  12.907
64340W        W35956  28.234   5.414  12.518
64341W        W35957   5.477  37.476  14.833
64342W        W35958   7.021   8.366   4.379
64343W        W35959  17.397   1.845   0.863
64344W        W35960  19.022  40.832   2.539
64345W        W35961  33.904  37.650   0.802
64346W        W35962  17.531  21.473  12.179
64347W        W35963   0.266  26.981  11.881
64348W        W35964  29.921   5.387  14.562
64349W        W35965  27.213  28.592  14.319
64350W        W35966  44.496  35.467   1.739
64351W        W35967  38.328  32.676  14.840
64352W        W35968  18.653  41.384  11.578
64353W        W35969  19.826  18.338  13.360
64354W        W35970  14.211  43.898   4.594
64355W        W35971  21.506  32.955  12.437
64356W        W35972  22.453  38.404  14.187
64357W        W35973  19.239  10.154   3.946
64358W        W35974  29.784  24.508  14.381
64359W        W35975   6.752  32.151   2.938
64360W        W35976  30.839   1.642   9.835
64361W        W35977  23.464   5.184   0.953
64362W        W35978   5.645  19.805  11.656
64363W        W35979  14.186  24.594  10.459
64364W        W35980   5.118  37.522  12.097
64365W        W35981  19.528  33.498  11.107
64366W        W35982  11.357   2.860   4.176
64367W        W35983  18.570  25.692   0.916
64368W        W35984   8.856   8.091   0.461
64369W        W35985  14.652  20.143   3.207
64370W        W35986   3.398   3.325   2.933
64371W        W35987  22.149   9.676  11.208
64372W        W35988  26.142   8.953  11.357
64373W        W35989  21.815  26.645   0.457
64374W        W35990  32.067  28.610   2.499
64375W        W35991  27.111  40.339  14.371
64376W        W35992  42.952  37.113  14.403
64377W        W35993  23.417   8.403   3.311
64378W        W35994  33.221  41.489  12.103
64379W        W35995  36.730  37.754  13.980
64380W        W35996  29.120  38.044   2.279
64381W        W35997  28.658  19.744   1.353
64382W        W35998  24.073  12.182   3.309
64383W        W35999  33.904  25.162   1.219
64384W        W36000  14.949   7.154  10.238
64385W        W36001   4.260   9.633   0.939
64386W        W36002  18.402  30.620   3.738
64387W        W36003  22.032   7.891   3.153
64388W        W36004  16.827   0.323   1.944
64389W        W36005   6.836  19.020  10.557
64390W        W36006  33.326  19.653  11.071
64391W        W36007  22.453  27.112   4.331
64392W        W36008  12.156  10.865  13.365
64393W        W36009  23.528  15.923  11.195
64394W        W36010  27.506  21.358   1.307
64395W        W36011   4.392  18.523   4.557
64396W        W36012  10.156  16.097   1.963
64397W        W36013  10.230  24.291  10.984
64398W        W36014  32.609  29.181  13.141
64399W        W36015  39.553  32.125   1.188
64400W        W36016  18.282   8.797   3.225
64401W        W36017  11.033   7.256   0.287
64402W        W36018  14.603  16.634  13.430
64403W        W36019  21.088   3.704   3.063
64404W        W36020  37.398  37.708  10.576
64405W        W36021  32.613   1.840  10.183
64406W        W36022  24.965  39.274  13.063
64407W        W36023   2.971  13.557   1.718
64408W        W36024   5.787  44.141   2.323
64409W        W36025   3.923   5.255  14.387
64410W        W36026  13.640   7.790  14.276
64411W        W36027  32.930   2.132   4.205
64412W        W36028  16.283  23.553  11.523
64413W        W36029   3.923  16.658   4.178
64414W        W36030   5.536  12.079  11.042
64415W        W36031   9.807   1.043  13.424
64416W        W36032  11.062  28.619   4.639
64417W        W36033   0.700  13.005  11.600
64418W        W36034  25.057  12.328   1.282
64419W        W36035   1.200  27.032  10.499
64420W        W36036  19.345  27.342  10.756
64421W        W36037   6.854  28.036   0.711
64422W        W36038  11.815  17.507   4.262
64423W        W36039   7.544  33.923  12.417
64424W        W36040  41.534   4.357   0.200
64425W        W36041  21.640   4.248  14.720
64426W        W36042  10.525  42.952   3.129
64427W        W36043  44.967  38.439   2.330
64428W        W36044  16.730   1.345  10.345
64429W        W36045  37.424  35.969   4.515
64430W        W36046   6.389   6.752  12.032
64431W        W36047  37.603   6.374  12.605
64432W        W36048  37.404  25.010  11.915
64433W        W36049  43.433  29.418   3.248
64434W        W36050  32.042   8.200   4.810
64435W        W36051  40.253  29.895   3.256
64436W        W36052  16.995  10.192   5.011
64437W        W36053  17.208  22.362   2.620
64438W        W36054   8.583  10.297   2.247
64439W        W36055  37.930  24.634   0.548
64440W        W36056  26.463  10.274   3.765
64441W        W36057  37.398  20.876  13.424
64442W        W36058   6.452  17.563  12.026
64443W        W36059  41.847  33.143   3.231
64444W        W36060   1.724  20.658   2.819
64445W        W36061  12.576  12.220  13.874
64446W        W36062  11.833   7.272   4.152
64447W        W36063  20.059  38.932  11.111
64448W        W36064   1.715  21.997  10.700
64449W        W36065  19.786  16.050  11.483
64450W        W36066  34.584  23.608  12.902
64451W        W36067  22.111  23.305  13.613
64452W        W36068  17.493  39.377   1.640
64453W        W36069   3.822   8.209  14.260
64454W        W36070  36.111  38.798   2.730
64455W        W36071  12.819  29.932   4.301
64456W        W36072  44.489  27.475  14.911
64457W        W36073   6.359  22.966  14.195
64458W        W36074   8.069   5.553   4.145
64459W        W36075  14.997  34.933  13.979
64460W        W36076   4.334  33.475   0.973
64461W        W36077  18.110  36.443   3.316
64462W        W36078  13.857  43.916   2.842
64463W        W36079  37.951  29.521  11.213
64464W        W36080   5.006  15.234   3.226
64465W        W36081  44.516  20.277  13.926
64466W        W36082  16.062   6.366   2.380
64467W        W36083  35.982  15.263   4.626
64468W        W36084  26.798  18.584   3.736
64469W        W36085   9.181  15.375   2.157
64470W        W36086  22.145  29.982  10.436
64471W        W36087  37.961   2.988   0.519
64472W        W36088  33.223  14.265   2.198
64473W        W36089  20.631  40.525  10.719
64474W        W36090  15.120  18.724   2.258
64475W        W36091  11.126  24.746  12.844
64476W        W36092   8.115  27.931   1.393
64477W        W36093   5.260  44.801  12.380
64478W        W36094   3.287   3.826  11.518
64479W        W36095  32.433  39.806  12.937
64480W        W36096   0.112  31.480   1.880
64481W        W36097  39.991   4.610  13.428
64482W        W36098  14.350  44.491   2.324
64483W        W36099  14.358  22.793  11.013
64484W        W36100  37.680  42.025   4.180
64485W        W36101  43.431  21.467   3.683
64486W        W36102   1.584   9.838   3.138
64487W        W36103  26.145  11.883  14.544
64488W        W36104  35.356   9.426  14.961
64489W        W36105   3.311  28.080   2.016
64490W        W36106   6.091  18.071  12.261
64491W        W36107  28.454   3.433   1.653
64492W        W36108   2.893  18.719   0.430
64493W        W36109  43.304  18.816   2.201
64494W        W36110  25.709  20.499  11.048
64495W        W36111  25.519  17.687   1.911
64496W        W36112   3.678  32.135   4.261
64497W        W36113  40.347   4.126   3.738
64498W        W36114  37.026   4.242   3.361
64499W        W36115  29.982  24.698  12.553
64500W        W36116  15.349  10.839   4.165
64501W        W36117  43.871  33.340   4.853
64502W        W36118  28.433  19.593   2.771
64503W        W36119  33.965  14.117  14.348
64504W        W36120  38.992  42.542  12.887
64505W        W36121  37.656  43.332   4.695
64506W        W36122  19.951  42.497  12.840
64507W        W36123  44.026  19.600   0.063
64508W        W36124  33.780  22.349   3.257
64509W        W36125  34.963  37.864   1.763
64510W        W36126   9.522  24.708   0.279
64511W        W36127  17.555  29.912   0.288
64512W        W36128  32.180  23.703  11.896
64513W        W36129  25.528  34.053  14.963
64514W        W36130  41.816  42.445  10.532
64515W        W36131  21.539  10.771   2.164
64516W        W36132  22.529  20.385  12.535
64517W        W36133   8.838  43.438  11.983
64518W        W36134  14.920   6.155  13.555
64519W        W36135  20.691  44.029   3.920
64520W        W36136  44.138   3.411   3.624
64521W        W36137  13.631   1.898  12.011
64522W        W36138  11.117  13.374  11.217
64523W        W36139  18.818  32.260   2.417
64524W        W36140  24.758  16.142   2.865
64525W        W36141  35.853   6.417   1.910
64526W        W36142  17.154  31.030  13.472
64527W        W36143   6.231  33.601   0.786
64528W        W36144   8.009   4.190   0.559
64529W        W36145  10.481  10.714  12.211
64530W        W36146  33.479  23.043   1.279
64531W        W36147  19.015  26.944  10.794
64532W        W36148  40.171  30.408  13.324
64533W        W36149  41.736  28.654  13.500
64534W        W36150   0.591  15.002  14.655
64535W        W36151  30.513  21.194   2.912
64536W        W36152  15.633  44.668  13.783
64537W        W36153   9.132  18.169  10.656
64538W        W36154  26.263   2.888   4.502
64539W        W36155  41.563   1.240   1.338
64540W        W36156   6.284  28.194  12.526
64541W        W36157  29.404  18.843   4.528
64542W        W36158  39.501   5.833  11.376
64543W        W36159   5.608  42.693   1.217
64544W        W36160   3.775  43.290   2.873
64545W        W36161  36.733  16.711   1.238
64546W        W36162  28.952  14.721   1.188
64547W        W36163  20.615  28.157   0.269
64548W        W36164   4.997  21.122   5.028
64549W        W36165   4.361   9.760   1.433
64550W        W36166  32.451  35.409   2.475
64551W        W36167   1.362  25.303   3.447
64552W        W36168   2.016   9.920  13.444
64553W        W36169  25.986  15.864  12.952
64554W        W36170   5.844   0.749   2.977
64555W        W36171  36.939  29.109   3.839
64556W        W36172  42.638   6.645  12.162
64557W        W36173  28.099  35.840   2.749
64558W        W36174  41.833   4.767   0.232
64559W        W36175   5.607   7.621   3.716
64560W        W36176   9.740   1.901   2.838
64561W        W36177  37.346  38.836  14.328
64562W        W36178  13.242   8.187   0.418
64563W        W36179  33.710  17.577  12.489
64564W        W36180  26.901  39.548   3.667
64565W        W36181  26.861  14.127   2.198
64566W        W36182   9.623   6.260   3.792
64567W        W36183   3.216  11.786  12.458
64568W        W36184  39.998   4.228  14.822
64569W        W36185  36.583  28.378  14.972
64570W        W36186   1.767   2.957  11.906
64571W        W36187  35.170  30.246   1.586
64572W        W36188   0.273  44.216   0.374
64573W        W36189   5.538  15.651   0.391
64574W        W36190   7.663  41.950   2.354
64575W        W36191  15.605  27.449   3.759
64576W        W36192  33.315  19.302   0.387
64577W        W36193  24.616  32.721   2.754
64578W        W36194  16.811  21.251   1.318
64579W        W36195   3.351  38.071   0.882
64580W        W36196  39.120   2.932  12.857
64581W        W36197   7.878  31.417  11.869
64582W        W36198  15.237  24.135  14.455
64583W        W36199  16.995   2.501   2.221
64584W        W36200  44.847  17.733   1.197
64585W        W36201  23.479  28.634   3.739
64586W        W36202  43.008   0.317  13.361
64587W        W36203   8.354  37.741  13.399
64588W        W36204   8.636   0.058   4.571
64589W        W36205   0.735  17.642   1.992
64590W        W36206  36.972   0.969  11.637
64591W        W36207  29.536  31.022  12.833
64592W        W36208   7.430  11.239  14.858
64593W        W36209  11.776   8.392   2.211
64594W        W36210  14.169  12.816   2.743
64595W        W36211  37.069  16.456   2.769
64596W        W36212  17.704  43.864  13.531
64597W        W36213  34.664  36.413   1.770
64598W        W36214  44.545  32.231  11.599
64599W        W36215  42.125  30.386  14.878
64600W        W36216  33.478  19.470  13.119
64601W        W36217  27.852  44.857  12.103
64602W        W36218  13.177  11.052   1.421
64603W        W36219  41.844   5.579   0.045
64604W        W36220  29.384  18.367  11.246
64605W        W36221  16.279  28.230  11.592
64606W        W36222  20.831   8.758   0.271
64607W        W36223  36.056  12.417   3.430
64608W        W36224  25.921  14.096  14.840
64609W        W36225  20.404  42.049  12.592
64610W        W36226  30.414  18.819  12.651
64611W        W36227  26.066   7.959   2.648
64612W        W36228   2.404  44.986   2.758
64613W        W36229  38.280  15.572  13.531
64614W        W36230  35.420  11.820   1.253
64615W        W36231  15.167   5.683   3.199
64616W        W36232   3.514   6.922   2.748
64617W        W36233   7.784   5.265   2.235
64618W        W36234  21.663  44.959  14.930
64619W        W36235  37.808  34.191  14.894
64620W        W36236   6.372  32.346  14.373
64621W        W36237   0.926  29.228  11.050
64622W        W36238   1.317  20.954   1.421
64623W        W36239   2.606   2.859  14.933
64624W        W36240  30.761   2.831  12.108
64625W        W36241  14.084  29.718  13.938
64626W        W36242   2.732  35.923   2.926
64627W        W36243   7.503   2.956  13.383
64628W        W36244  22.989  33.540  11.105
64629W        W36245  20.561  11.649  10.689
64630W        W36246  25.482  35.100  10.524
64631W        W36247  42.725  42.996   0.513
64632W        W36248  39.441  23.957   2.791
64633W        W36249  43.401  20.698  13.396
64634W        W36250  19.183   8.739  14.854
64635W        W36251   1.814   5.899   3.692
64636W        W36252   0.409  29.651  11.088
64637W        W36253  34.501  14.267  11.066
64638W        W36254  21.794  18.239  11.112
64639W        W36255  28.379  44.820  12.162
64640W        W36256  38.741  33.378  11.742
64641W        W36257  36.879   5.506  11.670
64642W        W36258  16.588  18.488  11.697
64643W        W36259  31.649  22.568   4.667
64644W        W36260  12.172   2.220   4.534
64645W        W36261  20.079  31.472   2.775
64646W        W36262  19.209  26.053   0.349
64647W        W36263  29.095  13.813  11.395
64648W        W36264   6.955   9.066  12.076
64649W        W36265  23.111   6.986   4.064
64650W        W36266   4.615  43.590  14.832
64651W        W36267  36.599  42.489  11.591
64652W        W36268  24.066  17.690  13.487
64653W        W36269  43.699  19.769  11.621
64654W        W36270   0.874  37.370   3.275
64655W        W36271  29.690  36.368   1.719
64656W        W36272  19.198  19.193  11.161
64657W        W36273  33.359  10.949  13.790
64658W        W36274  24.635  11.472  13.602
64659W        W36275  12.055  41.233  12.010
64660W        W36276  33.347  41.359  12.595
64661W        W36277  26.070   2.457  12.872
64662W        W36278  33.525   0.210  11.074
64663W        W36279  12.419  41.311   2.550
64664W        W36280  21.823  23.635  11.467
64665W        W36281  42.754  30.982  10.744
64666W        W36282  21.663  31.247   0.857
64667W        W36283  37.770  22.503  10.508
64668W        W36284  21.721   0.878   3.670
64669W        W36285   2.902  41.998   1.352
64670W        W36286  27.178   4.442   3.564
64671W        W36287  25.211   1.773   1.746
64672W        W36288   1.266  23.642  13.560
64673W        W36289  12.051  27.586  12.419
64674W        W36290  27.174  23.574  11.407
64675W        W36291  18.741  29.196   1.781
64676W        W36292  11.246  39.361  14.489
64677W        W36293   3.140   1.690   0.343
64678W        W36294  30.058  22.000   1.223
64679W        W36295  25.663  40.757   1.219
64680W        W36296  29.154  22.497   3.825
64681W        W36297  20.340  12.136   1.146
64682W        W36298  40.854   7.795   3.833
64683W        W36299   9.664  44.393   9.743
64684W        W36300  31.844  41.951   1.298
64685W        W36301  29.611   2.406  13.506
64686W        W36302  25.375  24.564   0.676
64687W        W36303   8.921  35.109  12.939
64688W        W36304  26.626   6.739   2.204
64689W        W36305  36.883  11.225  14.018
64690W        W36306  15.822  27.170   0.278
64691W        W36307  32.028  33.470   0.694
64692W        W36308  23.322  41.831   3.222
64693W        W36309  32.990  41.885   4.198
64694W        W36310  21.694   5.478  12.869
64695W        W36311  36.717  19.682  11.054
64696W        W36312   4.305  23.589  10.622
64697W        W36313  18.965   0.863   1.858
64698W        W36314   2.719  22.760   3.205
64699W        W36315  12.615  32.560  14.316
64700W        W36316  42.831  39.521  11.724
64701W        W36317  15.552  30.880   5.072
64702W        W36318  18.457  29.636   3.614
64703W        W36319  43.260  38.840  13.804
64704W        W36320  17.175  22.728   5.092
64705W        W36321  10.406  33.132  12.711
64706W        W36322  23.761  43.482  12.484
64707W        W36323  28.001  37.213  12.091
64708W        W36324  17.956  19.198   2.108
64709W        W36325   8.019  32.152  14.074
64710W        W36326  32.868   1.216   2.475
64711W        W36327  15.117  39.219  11.142
64712W        W36328   8.321  15.387  10.962
64713W        W36329  10.143  22.518  11.587
64714W        W36330  38.712  19.083   4.648
64715W        W36331  29.099   3.541  11.041
64716W        W36332  38.394  31.620   3.184
64717W        W36333  11.817   3.464  10.961
64718W        W36334  30.514   7.857   3.868
64719W        W36335  44.891  41.550   0.826
64720W        W36336  44.394   8.903   0.979
64721W        W36337  14.817  29.485  12.133
64722W        W36338  20.975   8.520   0.891
64723W        W36339   9.735  16.170  11.379
64724W        W36340  22.792  22.201  14.777
64725W        W36341  10.036  15.716   2.780
64726W        W36342  39.127  11.065  13.221
64727W        W36343  15.190  34.622   0.358
64728W        W36344  10.211  43.891   4.668
64729W        W36345   9.123  36.905  11.451
64730W        W36346  19.225  43.706  11.961
64731W        W36347  20.239  24.315   1.649
64732W        W36348  41.405  15.292  13.015
64733W        W36349  12.608  44.324  12.336
64734W        W36350  37.126  36.375   4.662
64735W        W36351   4.005  36.035  13.354
64736W        W36352  17.017  33.589  12.416
64737W        W36353  23.276   6.426   1.459
64738W        W36354  17.136  30.572   1.199
64739W        W36355  18.224  13.108  11.446
64740W        W36356  11.923  37.382  14.996
64741W        W36357  41.392  42.480  14.539
64742W        W36358  18.978  40.433   4.929
64743W        W36359  20.044  11.253   4.027
64744W        W36360  31.907  24.075  13.553
64745W        W36361  11.630   5.231  12.861
64746W        W36362  31.936  15.833   5.266
64747W        W36363  35.072  13.543   1.639
64748W        W36364  28.867   0.246  13.318
64749W        W36365  36.682   0.047   0.074
64750W        W36366  12.730  22.754  11.501
64751W        W36367  26.780  35.895  10.960
64752W        W36368  40.948  33.936  13.448
64753W        W36369   2.281  29.893  14.453
64754W        W36370  16.168  21.268   3.405
64755W        W36371  17.794  43.375   1.754
64756W        W36372  16.183  23.220   1.956
64757W        W36373   5.228  23.174  13.107
64758W        W36374   0.490   4.876   2.815
64759W        W36375  19.061  18.268  12.972
64760W        W36376  43.230  22.105   2.374
64761W        W36377   3.380  13.619   4.732
64762W        W36378  33.626   3.846  12.158
64763W        W36379  38.871  29.137  13.071
64764W        W36380  14.357  11.420   1.973
64765W        W36381  10.775  42.318  13.617
64766W        W36382   6.354   6.255  13.450
64767W        W36383  31.523  44.881  14.639
64768W        W36384   1.008  10.721   3.018
64769W        W36385  41.041  35.472   1.945
64770W        W36386  10.257   4.471  13.836
64771W        W36387   5.247  17.529   0.858
64772W        W36388  27.081  42.491   1.489
64773W        W36389  13.877   6.382  13.511
64774W        W36390  33.084  18.251  13.346
64775W        W36391  18.202  22.706  11.591
64776W        W36392   5.325  12.823  11.512
64777W        W36393  18.209   2.192   2.780
64778W        W36394  40.919  20.736  13.062
64779W        W36395  35.940  38.361  11.908
64780W        W36396  26.112  17.537  14.771
64781W        W36397  20.721   8.245   2.377
64782W        W36398  12.161  39.015   3.186
64783W        W36399  13.091   1.439  14.844
64784W        W36400  44.926  44.537   1.631
64785W        W36401  41.069   5.258  14.317
64786W        W36402  40.897  36.464   2.493
64787W        W36403   4.209   1.478  11.775
64788W        W36404   3.830  42.392   1.326
64789W        W36405  20.093  36.008   2.882
64790W        W36406   6.311  22.522  13.080
64791W        W36407  28.435  41.916   3.243
64792W        W36408  25.907  25.630  13.085
64793W        W36409  31.431  27.184  14.472
64794W        W36410  14.272  38.442  13.367
64795W        W36411   5.774  32.634  12.487
64796W        W36412  17.288  10.413  14.891
64797W        W36413  11.558  15.858   2.732
64798W        W36414   1.804   8.371   3.706
64799W        W36415  36.813   8.113  11.873
64800W        W36416   8.483  21.678  12.133
64801W        W36417   6.490  27.037  10.388
64802W        W36418  30.482   9.237   3.694
64803W        W36419  15.917   5.068  12.587
64804W        W36420  22.625  37.632   0.840
64805W        W36421  29.876  29.389   3.279
64806W        W36422  15.940  19.991   4.197
64807W        W36423  26.596  18.222   3.440
64808W        W36424   8.939  40.825   1.931
64809W        W36425  38.025  17.547   2.791
64810W        W36426  29.476  21.877   0.495
64811W        W36427   9.371   4.603   0.179
64812W        W36428   8.203  30.842  13.883
64813W        W36429  25.175  33.601   4.643
64814W        W36430   6.597  20.989  12.990
64815W        W36431  29.097  14.194  10.520
64816W        W36432   8.774  21.996   3.289
64817W        W36433  15.848  34.528  12.396
64818W        W36434   8.468  23.361   2.324
64819W        W36435  28.045   1.449   0.735
64820W        W36436  23.222  34.000   1.660
64821W        W36437  18.870   6.411   0.807
64822W        W36438  44.326  24.045  12.501
64823W        W36439  35.149  42.791  12.037
64824W        W36440  34.227  32.148  11.606
64825W        W36441  19.741   6.857   0.018
64826W        W36442   8.865  26.026   1.764
64827W        W36443  20.550  41.595  11.672
64828W        W36444  16.893  27.910  10.750
64829W        W36445  27.928  42.702  11.552
64830W        W36446  17.551   8.315  10.770
64831W        W36447  36.438  27.804  11.617
64832W        W36448   1.062  21.924  11.476
64833W        W36449  13.019  19.085  11.552
64834W        W36450  11.379  12.645  12.079
64835W        W36451  34.134  34.956   2.328
64836W        W36452  35.807  19.480  11.508
64837W        W36453   0.938  27.963  14.532
64838W        W36454  23.110  11.343   4.160
64839W        W36455   9.105  38.429   0.322
64840W        W36456  32.344  10.588  12.056
64841W        W36457  16.526   8.922   4.758
64842W        W36458  21.051  44.414   3.909
64843W        W36459   1.475  31.069  12.587
64844W        W36460  15.441  38.349  14.826
64845W        W36461  44.411  11.935  10.451
64846W        W36462  31.093  24.468   0.401
64847W        W36463  20.245  22.390  11.326
64848W        W36464  43.050  22.213   1.851
64849W        W36465  42.330  18.090  11.271
64850W        W36466  18.024  13.893   0.406
64851W        W36467  44.057  38.526  14.556
64852W        W36468   2.363   1.251  14.414
64853W        W36469  26.553   0.064   2.296
64854W        W36470  41.160  34.952   3.747
64855W        W36471  34.358  42.443   2.631
64856W        W36472  35.645  41.887  12.337
64857W        W36473  43.334   1.164   1.327
64858W        W36474   3.089   1.747   3.122
64859W        W36475  25.656   1.999   1.532
64860W        W36476  11.740   6.226  12.782
64861W        W36477  26.783   0.772   0.726
64862W        W36478  34.704  31.433  13.918
64863W        W36479   7.266  40.232  11.158
64864W        W36480  27.416  36.407   2.821
64865W        W36481  33.904   4.260  12.868
64866W        W36482  39.264  37.816   1.732
64867W        W36483   3.576  37.868  10.658
64868W        W36484  44.604  21.429  12.604
64869W        W36485  22.013  12.259  11.663
64870W        W36486  37.986  29.117  14.871
64871W        W36487  38.033  38.339  12.590
64872W        W36488  18.151  28.040   0.665
64873W        W36489  35.945  22.104  13.420
64874W        W36490  35.600  18.541  12.521
64875W        W36491  39.289  29.637   0.687
64876W        W36492  27.864  24.080   0.323
64877W        W36493   6.023  10.500  12.504
64878W        W36494  23.246  17.207   4.597
64879W        W36495  29.540  20.504   4.043
64880W        W36496  29.994  16.173  14.998
64881W        W36497  38.808  30.660   2.285
64882W        W36498  34.423  26.421   0.928
64883W        W36499  16.178  40.590   4.742
64884W        W36500   5.264  34.437  13.426
64885W        W36501  38.106  21.099  11.986
64886W        W36502   3.246   5.650   1.863
64887W        W36503  41.751   1.835  10.307
64888W        W36504  38.751  39.827  12.075
64889W        W36505  31.016  16.395  13.326
64890W        W36506  41.016  30.403  12.568
64891W        W36507  30.548   2.700  14.854
64892W        W36508  25.058  15.542  11.003
64893W        W36509  40.322   5.600  14.936
64894W        W36510  44.307  34.670   2.814
64895W        W36511  10.813  19.111  13.924
64896W        W36512   1.208  38.546   0.413
64897W        W36513  44.174  27.611   1.707
64898W        W36514  41.763   8.304  14.768
64899W        W36515  13.187  23.027  14.032
64900W        W36516  16.538  39.467   1.202
64901W        W36517  32.545   9.790  12.469
64902W        W36518   9.384  30.577  12.821
64903W        W36519  18.273  10.825   2.826
64904W        W36520  22.982  14.678   1.933
64905W        W36521   5.185  19.526   1.183
64906W        W36522  30.640  35.573  13.150
64907W        W36523   7.466  16.583   4.098
64908W        W36524  31.879  41.307   4.241
64909W        W36525  39.832   0.783   1.861
64910W        W36526  14.289  11.074  13.658
64911W        W36527   3.445  25.555   2.926
64912W        W36528  14.151  22.018   1.260
64913W        W36529  31.111  12.566  12.524
64914W        W36530  25.892  11.951  12.604
64915W        W36531  35.054  24.386  14.786
64916W        W36532  37.274  22.949  12.958
64917W        W36533   7.173   0.900  12.318
64918W        W36534  43.043  25.235  12.633
64919W        W36535   7.296   7.243  12.424
64920W        W36536  10.300  44.072  11.987
64921W        W36537  10.743   7.368  10.638
64922W        W36538  23.638   5.244   4.187
64923W        W36539  30.439  31.069   4.107
64924W        W36540  41.848  38.491  10.635
64925W        W36541  42.538  17.105   2.223
64926W        W36542  31.727  28.120   4.624
64927W        W36543  17.526   8.199   0.527
64928W        W36544  34.410   6.848  12.460
64929W        W36545  34.076  11.887   4.194
64930W        W36546  27.864  18.475   1.619
64931W        W36547  16.323  21.223  13.422
64932W        W36548  42.213  28.033   0.797
64933W        W36549  33.177   9.204  11.995
64934W        W36550  43.451  19.457  13.854
64935W        W36551  32.650  40.866  11.131
64936W        W36552  18.171  22.406   2.692
64937W        W36553  18.608  24.589  13.905
64938W        W36554  12.201   4.758  12.905
64939W        W36555   5.760   9.170  12.854
64940W        W36556  28.504  37.554   4.478
64941W        W36557  44.726  27.145   2.676
64942W        W36558  25.927  43.000   0.415
64943W        W36559   1.925  20.031  14.079
64944W        W36560  18.849   4.773   2.839
64945W        W36561  28.551  44.365   4.347
64946W        W36562  27.476  41.694  13.515
64947W        W36563  15.102  19.789   0.293
64948W        W36564  35.557   3.466   1.723
64949W        W36565   8.878   0.209  14.721
64950W        W36566  37.811  20.539   3.637
64951W        W36567  23.898   2.452   1.298
64952W        W36568  40.773  14.371   3.136
64953W        W36569   3.210  24.053   4.648
64954W        W36570  44.759  10.284  11.494
64955W        W36571  20.516  22.055   2.305
64956W        W36572  20.346   4.786   2.681
64957W        W36573  26.053  17.265   2.657
64958W        W36574  42.961  11.365  13.444
64959W        W36575  33.923  19.237   1.368
64960W        W36576  21.093  34.432  13.537
64961W        W36577  19.720   3.365   4.594
64962W        W36578  27.694  28.369  11.991
64963W        W36579  30.867  35.453   3.823
64964W        W36580  38.669  21.581  13.717
64965W        W36581  16.653   8.263   3.273
64966W        W36582  13.257  27.496   4.104
64967W        W36583   6.929   5.790  11.115
64968W        W36584  30.674  23.113   0.898
64969W        W36585  32.484  32.875  11.951
64970W        W36586  44.032  41.427  13.049
64971W        W36587  43.545  18.267   3.828
64972W        W36588   8.890  38.969   1.448
64973W        W36589  14.304  39.403  11.466
64974W        W36590  19.364  26.044   3.740
64975W        W36591  23.107   9.927   0.247
64976W        W36592  20.622  36.177  12.696
64977W        W36593   1.840   7.328   4.569
64978W        W36594  23.066  24.504   2.721
64979W        W36595  16.249  36.789  11.155
64980W        W36596   5.040   7.119  14.819
64981W        W36597  30.646  38.294   2.644
64982W        W36598  27.022  13.156  14.353
64983W        W36599  32.108  41.964   0.389
64984W        W36600  28.726  20.972   1.787
64985W        W36601   1.294  39.499   1.880
64986W        W36602  30.001   4.191  12.146
64987W        W36603  30.271  41.595   0.351
64988W        W36604  19.325  27.209  11.715
64989W        W36605  16.640  43.287   4.650
64990W        W36606  12.140  22.541   1.250
64991W        W36607  24.557  24.803  12.864
64992W        W36608  19.503  18.739   2.311
64993W        W36609  20.468  37.377  13.384
64994W        W36610  28.523   2.081  10.399
64995W        W36611  14.088   4.466   2.215
64996W        W36612  28.411  33.859  12.004
64997W        W36613  13.818  19.260  14.908
64998W        W36614  17.067  32.440  13.195
64999W        W36615   7.438  28.051   0.449
65000W        W36616  36.836  30.169   2.586
65001W        W36617  30.028   7.629   0.418
65002W        W36618  43.570  35.031  11.076
65003W        W36619  15.343  39.937  14.903
65004W        W36620   3.529  18.247  11.052
65005W        W36621  27.602   6.876  10.616
65006W        W36622  23.531   7.405   2.643
65007W        W36623  29.421  21.105  12.441
65008W        W36624  30.714  13.344   0.498
65009W        W36625   5.080   1.348   9.908
65010W        W36626   7.750  29.524  12.471
65011W        W36627  16.189  16.723  10.650
65012W        W36628  44.524   6.263  11.993
65013W        W36629   1.423  43.966  10.798
65014W        W36630  30.557  16.121  12.006
65015W        W36631  21.673  11.831   3.219
65016W        W36632  38.138   2.759   3.083
65017W        W36633   2.309  25.967  14.593
65018W        W36634  22.032   1.591   3.105
65019W        W36635   2.891  23.071   2.797
65020W        W36636  13.277  22.140  12.069
65021W        W36637  37.851  38.510   2.375
65022W        W36638  13.530  16.584  11.564
65023W        W36639  18.122   6.565  13.995
65024W        W36640  19.033   1.007   0.989
65025W        W36641  42.698  10.359   0.957
65026W        W36642  38.110  14.577  14.536
65027W        W36643  37.914  37.154   4.915
65028W        W36644  10.174  30.910  11.142
65029W        W36645  23.603  19.703   1.117
65030W        W36646  15.880   0.418   2.675
65031W        W36647  41.394  21.623   2.323
65032W        W36648  40.915  33.382  11.946
65033W        W36649   5.661  32.806  14.040
65034W        W36650   7.672  43.444   4.139
65035W        W36651  29.433  24.480   3.085
65036W        W36652   7.346  39.854  14.951
65037W        W36653  40.552   7.979  10.841
65038W        W36654   8.639  32.627  14.432
65039W        W36655  16.354  25.064  13.720
65040W        W36656  18.120   2.274  12.134
65041W        W36657  39.606   7.636  10.750
65042W        W36658  35.479  20.544   1.778
65043W        W36659  38.611  34.324  12.606
65044W        W36660  29.016  14.236  14.565
65045W        W36661  26.753  36.448   2.281
65046W        W36662   1.555  31.046  10.652
65047W        W36663  26.050  42.338   4.127
65048W        W36664  23.263  31.218  11.659
65049W        W36665  44.540  25.426  11.490
65050W        W36666   4.875  39.574   0.204
65051W        W36667  31.354  32.606  11.987
65052W        W36668  19.139   8.841   4.590
65053W        W36669   6.870  33.514  12.612
65054W        W36670  19.134   2.570  12.424
65055W        W36671  25.020  35.484   4.131
65056W        W36672  26.719  26.196   0.344
65057W        W36673  31.935  24.972   4.822
65058W        W36674  33.707  22.330   4.796
65059W        W36675  11.796  44.874   3.114
65060W        W36676  44.173  33.421  12.353
65061W        W36677   8.182  36.807   1.869
65062W        W36678  27.549  29.704  11.582
65063W        W36679  43.407  25.177   3.508
65064W        W36680   5.678  32.390   2.547
65065W        W36681   6.795  35.375   1.688
65066W        W36682   4.837  30.833  14.999
65067W        W36683  38.265  35.132   1.227
65068W        W36684  41.557   7.149   3.618
65069W        W36685  21.225  13.421  13.517
65070W        W36686  34.176   8.225   0.847
65071W        W36687   6.868  25.499   1.801
65072W        W36688  38.779   7.815  11.486
65073W        W36689   9.967  15.616   0.315
65074W        W36690  43.008  36.906   0.070
65075W        W36691  41.304  17.727   1.215
65076W        W36692  28.703  13.632   0.948
65077W        W36693  35.179  43.681   3.330
65078W        W36694   8.701  43.352  10.944
65079W        W36695  27.614   5.207   4.802
65080W        W36696   5.883  24.653  14.478
65081W        W36697   3.642   1.581   1.374
65082W        W36698   2.699  29.668   1.722
65083W        W36699  43.792  21.984  13.998
65084W        W36700  10.805  14.979   3.843
65085W        W36701  34.079  39.105   4.720
65086W        W36702   4.395  18.684  13.838
65087W        W36703  27.151  32.955  11.019
65088W        W36704   9.780   4.433  12.463
65089W        W36705  42.516  40.588  12.822
65090W        W36706   9.356  21.638   1.646
65091W        W36707  17.262  13.596  11.222
65092W        W36708   2.860  31.652  11.150
65093W        W36709  30.502  16.964   1.698
65094W        W36710   8.248  39.383   3.583
65095W        W36711  26.661  12.143   0.449
65096W        W36712  26.629  24.731  12.207
65097W        W36713  22.268  13.410  11.120
65098W        W36714  27.487  17.303   1.619
65099W        W36715  21.687  38.347   3.237
65100W        W36716   3.945  14.778   0.521
65101W        W36717  37.412  10.893   2.298
65102W        W36718  28.919  30.185   4.171
65103W        W36719  26.106  30.823   0.154
65104W        W36720  10.833  40.459  11.504
65105W        W36721  26.529  23.599  10.763
65106W        W36722  24.263   6.715   4.502
65107W        W36723  38.865  21.572  12.369
65108W        W36724  16.682  24.251  13.662
65109W        W36725  40.957  24.245   0.938
65110W        W36726  41.270   6.868  11.152
65111W        W36727  11.618  12.153  13.952
65112W        W36728  40.304  39.804   4.144
65113W        W36729  41.536  11.757  13.774
65114W        W36730  18.498  27.225  13.898
65115W        W36731   7.345  43.290  12.065
65116W        W36732   0.884  32.459   4.269
65117W        W36733   5.132  27.567   2.793
65118W        W36734   5.655  35.813  11.588
65119W        W36735  31.063  30.578   2.755
65120W        W36736  13.019  40.217  14.058
65121W        W36737  18.436  40.764   0.306
65122W        W36738  19.845  42.269  12.004
65123W        W36739   5.933  16.299   1.784
65124W        W36740  30.491   4.322  10.972
65125W        W36741  33.605  14.744   0.784
65126W        W36742   7.634  26.481  14.989
65127W        W36743   7.781   7.700   3.735
65128W        W36744  16.854  15.752  11.998
65129W        W36745   4.470  30.105  11.903
65130W        W36746   7.175  17.807   0.862
65131W        W36747  17.572  38.947   2.899
65132W        W36748  10.831  29.159   4.672
65133W        W36749  35.859  38.750  13.887
65134W        W36750   1.579   2.212  11.623
65135W        W36751  19.464   2.698   1.284
65136W        W36752  36.712  20.462   2.604
65137W        W36753  20.291  23.604  14.455
65138W        W36754  35.657  40.730   1.843
65139W        W36755  31.023  31.447  10.652
65140W        W36756  17.530   7.742   0.853
65141W        W36757  37.460  32.324  13.435
65142W        W36758   8.586  17.178  11.576
65143W        W36759  13.361   4.535  14.251
65144W        W36760  13.378  41.389  13.323
65145W        W36761  37.034  29.341  13.910
65146W        W36762  30.138  26.990  11.691
65147W        W36763  15.610   0.013  11.382
65148W        W36764  35.510  44.816  14.403
65149W        W36765  11.895   5.826  13.358
65150W        W36766  33.616  31.458   0.745
65151W        W36767  37.729  29.077  14.422
65152W        W36768  30.472   7.879   0.255
65153W        W36769  26.220   8.592  13.957
65154W        W36770  34.949  17.133   4.584
65155W        W36771  33.809   6.331   4.610
65156W        W36772  10.882  14.995  12.077
65157W        W36773  33.984  15.540  13.383
65158W        W36774   7.866  30.430   0.297
65159W        W36775  34.676  26.734   0.618
65160W        W36776  24.237  33.933   3.107
65161W        W36777   3.191  44.283  13.279
65162W        W36778  43.327  23.058  13.592
65163W        W36779  35.686  33.345   2.622
65164W        W36780  42.944   1.841   1.723
65165W        W36781  40.807  26.451  10.707
65166W        W36782  35.014  43.026   0.369
65167W        W36783  25.174  28.728  12.100
65168W        W36784   4.243  41.318   2.703
65169W        W36785  29.444   4.386  14.489
65170W        W36786   5.097   3.191  10.324
65171W        W36787  36.882   3.224   1.780
65172W        W36788  24.813   2.176   5.192
65173W        W36789  21.312   5.431  13.243
65174W        W36790  13.838  17.604   1.293
65175W        W36791  33.539  27.973  14.469
65176W        W36792  21.786  42.806   2.893
65177W        W36793  18.088   7.484   2.606
65178W        W36794  31.786  12.175  11.953
65179W        W36795   4.401  22.446   2.797
65180W        W36796  21.487  39.897   0.197
65181W        W36797  37.576  40.817  14.059
65182W        W36798  12.252  22.544  14.834
65183W        W36799  35.586  12.560  10.427
65184W        W36800  12.657   9.994   1.053
65185W        W36801  30.155  28.360  11.159
65186W        W36802  34.997  43.233  14.875
65187W        W36803   2.408  32.110   4.915
65188W        W36804  41.346  26.622   0.252
65189W        W36805  18.156  15.831   1.215
65190W        W36806  34.927  21.688  10.414
65191W        W36807  37.614  31.794  14.856
65192W        W36808  26.998  28.040   1.878
65193W        W36809   3.530  24.621   4.790
65194W        W36810   3.542  40.580   2.234
65195W        W36811   9.381  20.648   2.843
65196W        W36812  19.620  39.984   4.923
65197W        W36813  42.562   8.206   1.895
65198W        W36814   1.366   3.400   3.281
65199W        W36815  42.708  26.755   1.874
65200W        W36816  14.041  31.115   1.859
65201W        W36817  30.905   3.614  11.059
65202W        W36818  39.875  41.758   1.504
65203W        W36819  29.642  14.646   3.289
65204W        W36820  38.950  41.632  10.979
65205W        W36821   7.007   3.175  12.074
65206W        W36822   2.705  25.801  14.909
65207W        W36823  37.366  29.375   3.977
65208W        W36824  17.566   5.848  11.580
65209W        W36825  29.957  23.021  11.673
65210W        W36826  41.012  29.185  13.414
65211W        W36827  38.732  17.699   2.181
65212W        W36828  31.958  11.309  13.953
65213W        W36829  37.819  26.338  13.926
65214W        W36830   2.337  44.815  10.188
65215W        W36831  22.641  18.675   1.229
65216W        W36832  31.021  43.994   3.752
65217W        W36833   4.574  38.807   4.272
65218W        W36834  35.453   8.783  13.238
65219W        W36835   1.774  25.405  13.316
65220W        W36836  18.688  29.303   3.273
65221W        W36837  20.059  38.370   2.273
65222W        W36838  29.587   9.619   1.924
65223W        W36839  36.126  30.137  10.709
65224W        W36840  17.867  24.282  12.055
65225W        W36841  44.479   9.373   2.188
65226W        W36842  29.857  29.450   4.982
65227W        W36843  41.530  35.563  11.511
65228W        W36844   9.391   9.549  14.797
65229W        W36845  13.238  23.049  14.536
65230W        W36846  33.969  43.042  12.591
65231W        W36847  30.419   6.665   3.227
65232W        W36848  25.898   0.253  11.129
65233W        W36849  10.615   9.767  13.248
65234W        W36850  32.366  33.056  12.958
65235W        W36851  10.251  31.323   1.761
65236W        W36852   1.194  39.310  14.789
65237W        W36853  10.390   3.410   9.878
65238W        W36854   2.487  10.745   2.779
65239W        W36855  41.523  20.592   0.266
65240W        W36856  21.138  13.352   4.801
65241W        W36857  23.020  16.758  14.471
65242W        W36858  13.846  12.722   4.610
65243W        W36859  32.511  30.111  13.031
65244W        W36860  10.881  26.636  13.872
65245W        W36861  32.186   3.273  11.193
65246W        W36862  20.920  20.966  12.013
65247W        W36863  13.389  37.390   4.721
65248W        W36864  16.647  25.034   0.237
65249W        W36865  20.843  15.698   1.703
65250W        W36866  22.514   6.228  14.849
65251W        W36867  19.176  11.935   0.720
65252W        W36868  32.348  21.604   0.940
65253W        W36869  15.916  13.803   3.777
65254W        W36870   0.929  44.084  13.770
65255W        W36871   3.849  41.435  13.479
65256W        W36872  22.288  29.801   4.017
65257W        W36873  37.060  34.386  11.520
65258W        W36874  33.554  17.583   1.234
65259W        W36875   6.797  25.940  12.582
65260W        W36876  30.145   9.845   1.038
65261W        W36877  26.142  36.027  11.400
65262W        W36878  29.102  12.863   4.568
65263W        W36879   2.845  43.461  14.516
65264W        W36880  26.931   5.250   0.704
65265W        W36881  36.751  25.691  11.100
65266W        W36882  43.839   7.232   2.234
65267W        W36883  42.957  43.614   3.135
65268W        W36884  16.312  31.512   2.849
65269W        W36885  36.263   4.847  12.652
65270W        W36886   9.736   5.069  14.799
65271W        W36887  35.830  25.010  14.921
65272W        W36888  39.439  42.780   2.658
65273W        W36889   3.765  41.946   0.559
65274W        W36890  33.501  35.540  11.860
65275W        W36891  33.529  39.927   1.946
65276W        W36892  33.017  35.840   2.729
65277W        W36893  41.870   5.370   2.000
65278W        W36894  33.179   4.808   0.203
65279W        W36895  20.425  40.753   2.244
65280W        W36896  35.042  33.596  13.032
65281W        W36897  42.979  35.725   0.716
65282W        W36898   6.319  29.602  13.041
65283W        W36899  16.154  26.735  11.552
65284W        W36900  39.599  35.470  13.386
65285W        W36901  11.410  29.254   0.462
65286W        W36902  26.045   7.693  12.079
65287W        W36903  24.257  24.050   3.609
65288W        W36904  16.123  16.298  11.952
65289W        W36905  37.839  39.399  11.555
65290W        W36906  32.170  44.511   0.418
65291W        W36907  44.942  23.544  12.791
65292W        W36908  42.893  34.271   0.685
65293W        W36909  34.179  11.047  14.768
65294W        W36910   9.835  22.528   1.494
65295W        W36911  33.005  28.611   2.885
65296W        W36912  37.031  35.052   4.284
65297W        W36913  16.370  13.699  12.014
65298W        W36914  16.932  37.105   3.793
65299W        W36915  36.173  29.128   3.232
65300W        W36916  27.606  36.005   3.920
65301W        W36917  32.579  24.924   1.232
65302W        W36918  39.562  20.409  12.649
65303W        W36919  13.164  36.486   1.712
65304W        W36920  28.239  29.410  13.540
65305W        W36921  34.071  42.500   4.250
65306W        W36922  33.657  19.334   3.628
65307W        W36923  16.809  35.330   1.213
65308W        W36924  31.447  21.255  11.082
65309W        W36925  18.848  29.123  14.964
65310W        W36926   3.428  40.523  11.649
65311W        W36927  17.170  12.872   3.723
65312W        W36928  23.999   6.940   4.115
65313W        W36929   9.032  24.538   0.222
65314W        W36930  30.184  19.055   0.690
65315W        W36931   1.583   8.227   0.337
65316W        W36932  17.572   8.474   3.143
65317W        W36933   4.984   8.443  12.582
65318W        W36934  17.613  37.212   0.283
65319W        W36935  11.888  30.632   3.655
65320W        W36936  31.509   8.346  14.919
65321W        W36937  36.974  13.650   2.557
65322W        W36938  13.875  18.640   1.300
65323W        W36939  22.275   6.274   1.473
65324W        W36940  26.869  33.861   4.104
65325W        W36941  22.876  24.363  14.807
65326W        W36942  36.212  19.590  11.189
65327W        W36943  19.136  13.629   3.944
65328W        W36944  35.705  31.665   2.386
65329W        W36945   7.684  42.898  10.709
65330W        W36946   2.731  35.363  12.869
65331W        W36947  25.116  14.111  13.812
65332W        W36948   1.815   8.363  11.709
65333W        W36949  12.239  16.469  13.381
65334W        W36950   9.194  16.132   1.727
65335W        W36951   5.764  25.120   5.040
65336W        W36952  18.696  12.041   4.977
65337W        W36953   4.191  13.721   2.231
65338W        W36954  18.797  35.195   4.872
65339W        W36955  27.255  35.569   4.725
65340W        W36956  32.678   3.926   2.225
65341W        W36957  36.146  25.424   1.398
65342W        W36958  11.828  15.879   3.189
65343W        W36959  22.194  15.986   4.517
65344W        W36960   7.704   2.913  10.428
65345W        W36961   2.354  16.814  12.574
65346W        W36962  31.171  12.609   3.155
65347W        W36963  12.376   7.284  12.532
65348W        W36964  29.592  43.948  10.888
65349W        W36965  13.171  10.659  10.613
65350W        W36966  30.236  26.603  13.450
65351W        W36967  14.857  18.531   2.795
65352W        W36968  21.042  20.443   0.461
65353W        W36969   5.650  33.383  12.998
65354W        W36970   8.367  32.164  14.522
65355W        W36971  23.436  14.621   0.024
65356W        W36972  23.519  17.438   3.531
65357W        W36973   4.169  27.217   3.638
65358W        W36974   7.924  21.103  11.187
65359W        W36975   9.771  42.445   2.414
65360W        W36976  30.540  19.976  14.794
65361W        W36977  40.202  11.149  13.976
65362W        W36978   2.463   8.451   2.323
65363W        W36979   1.080  34.088   1.835
65364W        W36980   6.112  28.427  12.971
65365W        W36981  32.363  35.885  12.342
65366W        W36982   1.393   4.613   2.691
65367W        W36983  14.992   9.388  12.486
65368W        W36984   2.770  25.647   0.790
65369W        W36985  14.552  18.521  11.007
65370W        W36986  19.667   1.940  12.870
65371W        W36987   2.513  21.831   0.079
65372W        W36988   4.888   8.243   4.206
65373W        W36989  33.260  29.756  14.818
65374W        W36990  39.870  40.572   1.488
65375W        W36991   3.841  20.842   0.843
65376W        W36992  38.446  32.777  12.525
65377W        W36993  39.380  39.629  12.903
65378W        W36994  34.880  15.503   0.466
65379W        W36995   5.463  15.301  10.845
65380W        W36996  35.518  32.952   0.004
65381W        W36997  36.436   7.381   1.351
65382W        W36998  35.449  26.491   3.160
65383W        W36999  35.103  42.575   4.900
65384W        W37000  34.053  14.785  12.371
65385W        W37001  27.692  40.352   1.474
65386W        W37002  36.319  23.012   0.336
65387W        W37003  18.754   9.679  10.592
65388W        W37004   0.637  31.876   3.336
65389W        W37005  40.933   9.804  13.075
65390W        W37006  14.579  24.061   4.401
65391W        W37007  40.364  40.962   0.489
65392W        W37008  37.151  27.070  12.614
65393W        W37009  32.535   9.376  10.523
65394W        W37010   9.869  40.930  14.425
65395W        W37011   7.236  12.072  11.598
65396W        W37012  38.771   5.410   4.384
65397W        W37013   6.455   5.311   4.575
65398W        W37014  16.221  38.787   0.875
65399W        W37015  20.114  13.892   1.751
65400W        W37016  13.964  30.610   2.086
65401W        W37017  27.190  24.013   3.731
65402W        W37018   5.317  41.315  12.833
65403W        W37019  22.765  30.363  11.213
65404W        W37020   8.159  32.964   3.675
65405W        W37021  15.842  37.567   4.907
65406W        W37022  16.203  23.945  14.774
65407W        W37023  15.223  25.731   4.431
65408W        W37024  39.402  40.483  13.341
65409W        W37025  28.463  13.249   2.264
65410W        W37026  18.211   3.137   5.144
65411W        W37027  15.193   4.842   5.043
65412W        W37028   5.321   7.706  14.518
65413W        W37029   7.692  39.903   0.483
65414W        W37030  31.466  44.966  13.622
65415W        W37031  29.464  40.609   3.634
65416W        W37032  13.522  16.338   3.770
65417W        W37033   8.787  43.718   2.792
65418W        W37034   9.354   5.213  10.657
65419W        W37035  43.733   2.334  14.803
65420W        W37036  35.588  36.615   3.644
65421W        W37037  11.712  41.949  10.373
65422W        W37038   5.367  36.893  14.547
65423W        W37039  39.888  38.423   3.884
65424W        W37040  27.138  34.577  12.509
65425W        W37041   2.800  33.325  13.474
65426W        W37042  17.340   7.163  12.006
65427W        W37043  30.722  14.860  12.636
65428W        W37044  40.291  29.923  13.468
65429W        W37045   3.759  34.563   4.607
65430W        W37046   6.771  15.310   4.589
65431W        W37047   9.479  36.839  13.434
65432W        W37048  43.459  22.008  13.264
65433W        W37049  19.368   4.589   2.762
65434W        W37050   3.402  13.056  12.005
65435W        W37051  10.789  31.741   9.964
65436W        W37052  15.685  24.430  14.303
65437W        W37053  41.585  10.038   0.716
65438W        W37054  14.391  32.806  12.173
65439W        W37055   6.774  14.652  11.654
65440W        W37056  42.827  20.781  12.615
65441W        W37057  36.050  36.493   4.871
65442W        W37058  43.016  37.597   3.018
65443W        W37059  37.403  13.247  12.115
65444W        W37060   6.840  32.387  14.560
65445W        W37061   6.891  15.407   2.203
65446W        W37062  27.494   1.188  12.525
65447W        W37063   3.118  10.719   2.162
65448W        W37064  32.421  10.282  12.607
65449W        W37065  20.526  29.015   2.009
65450W        W37066  43.408  14.717   1.752
65451W        W37067   6.918  29.341   0.334
65452W        W37068   9.165  38.843   5.479
65453W        W37069   2.748  30.118   3.289
65454W        W37070  28.468  39.937   4.873
65455W        W37071  26.474  22.652  11.985
65456W        W37072  27.942  31.258   4.999
65457W        W37073  39.044  20.757  12.022
65458W        W37074   3.180  36.678  14.333
65459W        W37075   8.708  18.659   1.474
65460W        W37076  15.551   0.930   1.770
65461W        W37077  41.909  36.970  10.501
65462W        W37078  17.667  26.603   2.141
65463W        W37079  43.732  40.853  11.505
65464W        W37080  10.601  14.351   3.882
65465W        W37081   0.024  43.453   2.525
65466W        W37082  14.603  30.054  14.346
65467W        W37083   3.335  11.086   0.761
65468W        W37084  28.873  37.578  11.162
65469W        W37085  21.593  39.494  11.516
65470W        W37086  29.372  29.497   9.698
65471W        W37087  42.117  12.957  10.420
65472W        W37088  27.408  10.697   4.324
65473W        W37089  32.996  15.743  13.358
65474W        W37090  13.158  17.616  11.031
65475W        W37091   5.329  29.147   1.348
65476W        W37092  38.247  37.458   1.733
65477W        W37093  42.488  38.081   1.083
65478W        W37094  37.758  43.398   1.805
65479W        W37095   9.622   0.068  13.173
65480W        W37096   1.411  24.974   1.996
65481W        W37097  15.634  17.257   4.086
65482W        W37098  36.913  13.596  14.763
65483W        W37099  23.741  30.677  12.582
65484W        W37100  10.641  34.395   1.189
65485W        W37101  27.260  17.570   3.799
65486W        W37102  20.735  41.481   1.961
65487W        W37103  42.928  19.280  13.886
65488W        W37104  13.196  10.831   3.792
65489W        W37105  32.406  44.263  12.156
65490W        W37106   3.737  43.181  10.683
65491W        W37107  26.574   8.886  13.700
65492W        W37108  28.752  28.449   1.877
65493W        W37109  42.189   2.958   4.458
65494W        W37110  29.054   6.867  14.807
65495W        W37111  35.143  32.662   1.295
65496W        W37112  41.386  27.729   1.784
65497W        W37113  24.778   9.258   2.167
65498W        W37114  11.123  27.405  12.105
65499W        W37115  31.039  28.116  12.460
65500W        W37116  41.906  18.737   0.002
65501W        W37117   4.817  20.865   9.836
65502W        W37118  36.454  18.065  14.978
65503W        W37119   4.670  40.282  10.748
65504W        W37120   3.208  11.959   0.341
65505W        W37121  10.096  26.069   0.004
65506W        W37122  21.988  36.849  13.806
65507W        W37123  40.280  26.004   4.670
65508W        W37124  17.834   3.199  10.619
65509W        W37125  21.649  16.332   3.218
65510W        W37126  24.107  16.169   4.703
65511W        W37127  42.036  31.420  10.507
65512W        W37128   8.549  27.141  13.832
65513W        W37129  36.002  20.712  13.842
65514W        W37130  33.916   1.941   4.756
65515W        W37131  16.818  20.180  13.047
65516W        W37132  27.853   0.881   5.030
65517W        W37133  23.690  37.100  10.674
65518W        W37134   4.903   4.310  12.357
65519W        W37135  19.537   3.423   3.665
65520W        W37136   0.557  43.360   3.912
65521W        W37137   8.138  41.910  11.906
65522W        W37138   3.522  23.498   0.376
65523W        W37139  35.160  21.407   4.699
65524W        W37140  30.026  18.163   3.195
65525W        W37141  16.325  14.048  11.221
65526W        W37142   8.785  32.921  11.620
65527W        W37143  27.446  44.913  14.342
65528W        W37144  39.194  35.162  14.042
65529W        W37145  37.279  18.685   2.181
65530W        W37146  43.052  34.869  12.990
65531W        W37147  37.519   7.680   1.324
65532W        W37148  15.899   6.806   1.268
65533W        W37149  21.694   6.881   2.793
65534W        W37150  40.517  13.092  10.642
65535W        W37151   5.364   5.233   0.495
65536W        W37152   8.397  24.779   4.901
65537W        W37153  44.019  31.044   3.375
65538W        W37154  37.813  31.008   0.043
65539W        W37155  37.137  21.469   0.885
65540W        W37156  18.588  22.580  13.935
65541W        W37157  12.389  26.098   4.649
65542W        W37158  29.942  22.084  11.684
65543W        W37159   8.830  24.563   4.090
65544W        W37160   6.266   9.259  10.243
65545W        W37161  27.951  38.530  12.856
65546W        W37162  36.625  28.188  10.638
65547W        W37163  13.227  21.197   2.670
65548W        W37164  25.129  38.419   1.311
65549W        W37165   1.513  37.883   0.208
65550W        W37166  33.230  28.159   1.801
65551W        W37167  12.365   9.296  12.950
65552W        W37168  22.479  36.604   0.999
65553W        W37169  13.106  32.350   2.704
65554W        W37170   5.723  38.361   1.663
65555W        W37171  29.375  17.641   0.377
65556W        W37172  22.543  32.270  10.292
65557W        W37173  35.502  22.039   4.645
65558W        W37174  21.354  24.656  14.848
65559W        W37175   4.938  22.896   2.261
65560W        W37176  30.402  43.042  13.314
65561W        W37177  35.659  19.602   0.944
65562W        W37178  32.114  12.537   0.493
65563W        W37179  32.686  10.246   2.160
65564W        W37180  17.182  30.125   4.570
65565W        W37181  28.635   7.935   3.743
65566W        W37182  39.695  38.144   4.559
65567W        W37183   1.192  17.060  11.118
65568W        W37184   1.241   7.471   1.238
65569W        W37185  25.102   3.950   3.372
65570W        W37186   2.425  22.979  14.999
65571W        W37187  12.891  12.777  14.513
65572W        W37188  24.783  18.362  13.019
65573W        W37189  36.540  39.026  11.573
65574W        W37190  40.804  25.161  11.577
65575W        W37191   0.806   4.795  12.463
65576W        W37192  17.515  32.523  13.571
65577W        W37193  17.323  27.804   1.230
65578W        W37194   1.465  43.267   0.456
65579W        W37195  20.027  10.367   4.262
65580W        W37196  31.052  38.131  13.932
65581W        W37197  11.170  15.200  12.851
65582W        W37198   5.516   0.314   4.229
65583W        W37199   3.924  13.828   2.763
65584W        W37200  37.766  26.763   3.353
65585W        W37201  36.195  22.696   4.117
65586W        W37202   6.470  10.878  13.887
65587W        W37203  26.022   7.158  12.068
65588W        W37204   5.886  38.999   3.904
65589W        W37205  31.976  16.887  10.678
65590W        W37206  29.959  30.991  14.464
65591W        W37207  42.564  11.194   1.122
65592W        W37208  23.991  20.678  14.882
65593W        W37209  35.594  31.017   1.766
65594W        W37210  36.576  27.997   3.706
65595W        W37211  42.048   8.408   2.819
65596W        W37212  17.333   3.387   0.268
65597W        W37213  36.481  27.231   1.438
65598W        W37214  24.790  42.000  12.140
65599W        W37215  11.781  19.494  12.998
65600W        W37216  25.602  44.822  13.667
65601W        W37217  37.852  44.513  10.291
65602W        W37218  19.186  44.677  13.045
65603W        W37219  15.344   7.356  11.575
65604W        W37220  23.004   5.849   2.134
65605W        W37221  24.607  39.625  12.905
65606W        W37222  20.712  16.212  12.886
65607W        W37223  41.344  43.934   3.206
65608W        W37224  28.667  19.641   2.312
65609W        W37225  29.766  25.636   4.270
65610W        W37226   9.773  13.130  12.430
65611W        W37227   6.451  30.112  14.768
65612W        W37228   0.541   4.216   2.195
65613W        W37229  33.642  10.034  11.145
65614W        W37230  16.782  29.040   1.917
65615W        W37231  25.585   8.938   1.189
65616W        W37232  29.015  21.492   4.613
65617W        W37233  30.949  36.337  11.061
65618W        W37234  38.679  24.689  13.426
65619W        W37235  27.601   6.910  13.461
65620W        W37236  42.285   7.446  11.215
65621W        W37237  17.187  14.146   4.632
65622W        W37238  43.210  38.493   3.739
65623W        W37239  34.404   5.475   3.690
65624W        W37240  29.866  23.993  14.398
65625W        W37241  12.772  36.262   0.253
65626W        W37242  19.580  36.519   2.311
65627W        W37243  33.944   1.692   9.908
65628W        W37244   6.711   3.305  14.855
65629W        W37245  16.086  42.942  14.921
65630W        W37246  17.233  39.980   4.099
65631W        W37247  32.731  16.733  14.830
65632W        W37248   4.416  13.979   2.612
65633W        W37249  41.871   4.476   1.015
65634W        W37250  14.522  21.663  11.955
65635W        W37251  16.334  26.524   1.898
65636W        W37252   6.118  34.132   0.871
65637W        W37253  34.072  24.115  14.896
65638W        W37254  13.632  35.447   1.598
65639W        W37255  16.204  34.133  12.994
65640W        W37256  24.124  32.977  10.662
65641W        W37257  39.772  31.864   2.888
65642W        W37258  32.883   4.395   0.032
65643W        W37259  44.428  23.243   1.441
65644W        W37260   4.256  41.459   1.335
65645W        W37261  39.969   1.397   1.047
65646W        W37262   4.737  41.774  14.388
65647W        W37263  28.696  19.434   4.539
65648W        W37264  19.484   2.788   3.290
65649W        W37265  14.703  18.034  14.051
65650W        W37266  14.861  26.940  11.797
65651W        W37267  31.986  34.087  11.759
65652W        W37268  32.677  30.439  14.912
65653W        W37269  29.258  27.548  11.448
65654W        W37270  40.294  23.828  11.105
65655W        W37271  10.444  42.947   2.214
65656W        W37272  43.564  15.316   2.333
65657W        W37273   4.933  15.743   1.226
65658W        W37274   0.826  28.240   2.482
65659W        W37275  40.396  30.091  14.408
65660W        W37276  44.540  38.727  13.064
65661W        W37277  18.722  19.657   0.506
65662W        W37278  10.941  10.701  13.047
65663W        W37279  44.175  10.701   3.263
65664W        W37280   4.763  39.246  14.805
65665W        W37281  38.749  33.217   2.407
65666W        W37282  25.055  33.925   1.215
65667W        W37283  24.762  25.077   2.605
65668W        W37284  25.851   5.484  13.123
65669W        W37285   8.212  36.362  14.321
65670W        W37286  28.645   5.738   3.841
65671W        W37287  37.540  35.494  12.815
65672W        W37288  44.479  19.233   3.907
65673W        W37289  13.720   9.677   4.348
65674W        W37290   4.405  41.970  11.470
65675W        W37291  24.057   1.913  11.249
65676W        W37292  14.481   2.914  10.237
65677W        W37293  18.266  39.385  13.030
65678W        W37294  29.967  35.265   4.205
65679W        W37295   8.615   6.307  13.039
65680W        W37296  25.711  22.717   2.452
65681W        W37297  17.823  42.794   3.759
65682W        W37298   6.311  43.539   2.780
65683W        W37299  34.149  25.149   1.668
65684W        W37300  13.225   9.383   2.755
65685W        W37301  39.423  17.121   2.666
65686W        W37302  29.624  23.085  12.341
65687W        W37303  36.032  22.754   1.398
65688W        W37304  28.953  27.337  11.871
65689W        W37305  32.163   8.716   0.398
65690W        W37306  41.479  12.634   2.346
65691W        W37307  28.718  30.270   1.818
65692W        W37308  25.107  15.296   0.757
65693W        W37309  35.576  12.201   3.261
65694W        W37310  31.905  26.711  13.960
65695W        W37311   8.137  35.811   1.712
65696W        W37312  43.281  27.473   3.610
65697W        W37313  17.065  32.391   2.202
65698W        W37314  23.897   3.783   3.226
65699W        W37315  16.511  28.367  13.650
65700W        W37316   9.674  22.540   3.243
65701W        W37317  32.451  41.047  10.651
65702W        W37318   6.611   5.977  14.311
65703W        W37319  29.983  32.972   0.730
65704W        W37320  25.568  41.239  13.463
65705W        W37321  43.214  31.199  12.399
65706W        W37322   8.615  11.841   0.939
65707W        W37323   5.262  31.356  11.069
65708W        W37324  17.011  33.593   2.699
65709W        W37325  32.898  25.184  14.081
65710W        W37326   4.753  41.102  12.051
65711W        W37327  11.771  35.488   2.920
65712W        W37328  21.827  18.028  13.557
65713W        W37329  37.549  35.836   0.977
65714W        W37330  39.391  15.607  11.028
65715W        W37331   9.502   1.980   1.832
65716W        W37332   0.759  42.001   1.991
65717W        W37333  30.191  13.041   4.305
65718W        W37334  35.010  22.379  11.668
65719W        W37335  40.857  32.909   3.373
65720W        W37336  33.489  40.348   1.653
65721W        W37337  22.601  23.757   2.430
65722W        W37338  13.812  43.760   3.333
65723W        W37339  17.810  32.997   4.284
65724W        W37340  13.037   1.347  12.408
65725W        W37341  41.872  13.241   4.066
65726W        W37342  36.086  44.006   1.745
65727W        W37343  29.428   5.409   1.363
65728W        W37344  31.309  40.218   1.727
65729W        W37345  25.643  13.232   1.409
65730W        W37346   0.275  25.292  14.859
65731W        W37347  43.670  41.359  11.472
65732W        W37348   7.506   8.130   4.499
65733W        W37349  25.500  25.834  13.934
65734W        W37350   7.849  37.801  13.566
65735W        W37351  22.180  11.612   3.293
65736W        W37352  42.456  17.074   3.133
65737W        W37353  41.192  21.072   1.239
65738W        W37354  35.916   1.327   2.110
65739W        W37355  14.133  18.629  14.378
65740W        W37356  35.541   5.190   2.268
65741W        W37357  28.967  28.948  13.159
65742W        W37358  40.045   4.403   2.533
65743W        W37359  38.055  17.816  13.447
65744W        W37360  18.039   1.346  14.744
65745W        W37361  40.694  24.600  13.537
65746W        W37362  29.483  31.174   3.608
65747W        W37363   6.430  32.723   1.056
65748W        W37364   0.390   8.945   2.743
65749W        W37365  28.996  34.422  11.582
65750W        W37366  34.983  44.795  11.853
65751W        W37367  22.642  30.924   2.363
65752W        W37368  36.024   8.447  14.015
65753W        W37369  28.949   0.974  12.024
65754W        W37370  20.405  40.774  12.958
65755W        W37371  41.487  41.983   0.415
65756W        W37372  26.947  10.387   2.679
65757W        W37373  17.151   6.664  13.052
65758W        W37374  20.105   4.383   0.785
65759W        W37375  10.402  24.222   0.853
65760W        W37376  21.596  31.516   2.775
65761W        W37377   7.052  17.275   3.604
65762W        W37378  27.842  16.455  14.749
65763W        W37379  23.225  42.483  13.777
65764W        W37380  12.285  26.033   3.157
65765W        W37381   2.350   6.857   0.324
65766W        W37382  17.572  30.976  12.589
65767W        W37383  27.562  41.351  14.992
65768W        W37384  12.626   7.936  14.292
65769W        W37385  42.390  11.776  14.867
65770W        W37386  39.041  32.394  13.867
65771W        W37387  13.341   7.840  12.977
65772W        W37388   7.241  36.976   3.784
65773W        W37389  42.028  13.163   3.043
65774W        W37390  33.532  38.388  14.193
65775W        W37391  42.071  16.844  13.395
65776W        W37392  42.044  24.659   2.528
65777W        W37393  35.004  28.155  13.336
65778W        W37394  32.990  24.573  14.824
65779W        W37395  24.413  19.464   1.647
65780W        W37396  13.104  26.389   0.810
65781W        W37397  36.098  18.169   0.432
65782W        W37398  18.449  12.422   2.274
65783W        W37399  38.326  32.088  10.596
65784W        W37400   0.409  21.455  14.058
65785W        W37401  39.144  22.714  12.634
65786W        W37402  21.958   4.909  12.863
65787W        W37403  16.327  20.129   0.040
65788W        W37404   3.280  29.298  10.090
65789W        W37405  33.800  27.155  14.836
65790W        W37406  34.476  39.395   4.469
65791W        W37407  41.084  14.040  13.804
65792W        W37408  32.543  24.847  14.873
65793W        W37409  35.115  34.921  11.518
65794W        W37410  17.563  28.929   2.789
65795W        W37411  43.402  21.603  12.927
65796W        W37412   0.458  26.668   1.781
65797W        W37413  37.621  40.225  11.200
65798W        W37414  39.280  43.953  13.778
65799W        W37415  23.240  11.732   4.831
65800W        W37416  20.679  37.429  14.222
65801W        W37417   2.831  20.172   0.197
65802W        W37418  34.033  15.061  11.228
65803W        W37419  26.232  42.207  12.723
65804W        W37420   4.259  37.176  12.969
65805W        W37421  43.567  31.540  11.385
65806W        W37422  37.058  14.721  10.746
65807W        W37423  25.600   2.576  11.981
65808W        W37424  43.269  18.628  11.527
65809W        W37425  29.503  13.724   3.067
65810W        W37426  26.392   2.305  10.554
65811W        W37427  19.235  15.532  12.561
65812W        W37428  39.357  36.704  12.447
65813W        W37429  40.290  43.823   3.389
65814W        W37430   7.119  16.268  13.837
65815W        W37431  33.409  40.123  14.477
65816W        W37432   5.600   6.868   3.102
65817W        W37433   2.800  14.710  10.660
65818W        W37434  29.040   0.285  11.575
65819W        W37435  10.513  28.104   0.242
65820W        W37436  19.770  40.779  11.159
65821W        W37437  20.274   8.715  13.480
65822W        W37438  37.995  40.346   0.905
65823W        W37439  14.497   9.698  13.964
65824W        W37440  10.104  26.609   2.125
65825W        W37441  13.424  30.152   4.892
65826W        W37442   9.587  13.204  11.227
65827W        W37443  32.435  33.665   1.001
65828W        W37444  14.537  18.183  11.901
65829W        W37445  14.120  43.039   4.303
65830W        W37446   7.915  22.939   2.759
65831W        W37447  37.421  29.392  12.094
65832W        W37448  36.512  39.797  13.973
65833W        W37449  31.104  39.857  13.326
65834W        W37450  26.078   4.755   1.349
65835W        W37451  34.029  38.275  14.903
65836W        W37452  29.007  34.393   2.645
65837W        W37453   8.353  33.066  11.863
65838W        W37454  29.938  41.804  13.321
65839W        W37455  36.362  22.174   2.660
65840W        W37456   8.241   0.003  13.752
65841W        W37457  26.139  20.311  13.253
65842W        W37458   1.250  38.467  10.708
65843W        W37459  16.151  32.588   0.438
65844W        W37460  35.894  30.573   3.514
65845W        W37461  17.826   0.488  11.061
65846W        W37462  29.225   3.293   3.962
65847W        W37463  33.402  44.867   2.169
65848W        W37464  16.716  36.819  11.393
65849W        W37465  42.743  17.324   0.873
65850W        W37466  12.427  42.612  14.417
65851W        W37467  43.361  34.436   4.081
65852W        W37468  17.289  21.650  10.068
65853W        W37469  44.158  41.251  14.053
65854W        W37470  21.287  40.473   2.264
65855W        W37471  22.200  20.179   4.280
65856W        W37472  10.784  31.100   4.107
65857W        W37473  32.141  19.050   2.340
65858W        W37474  15.090   9.067  13.530
65859W        W37475   0.700  40.160  12.521
65860W        W37476  34.944  14.575   1.770
65861W        W37477  40.291   6.218  11.558
65862W        W37478  29.089  27.547   2.880
65863W        W37479  30.617  15.083  14.410
65864W        W37480  27.967  42.453   2.249
65865W        W37481  41.707   6.394   0.897
65866W        W37482  27.569  42.916  11.243
65867W        W37483   1.455  10.658  13.476
65868W        W37484  41.355  17.456  12.759
65869W        W37485  30.365  28.969  12.456
65870W        W37486  24.663  18.624  14.566
65871W        W37487   5.765  28.453  14.537
65872W        W37488  25.693  21.685  12.208
65873W        W37489  10.073  12.738  14.357
65874W        W37490  27.694  40.549  11.391
65875W        W37491  24.169  15.586   3.676
65876W        W37492  37.550  26.189   2.572
65877W        W37493  43.563  38.815   2.171
65878W        W37494  19.315  17.673   2.890
65879W        W37495  15.984  26.900  12.450
65880W        W37496  21.453  34.602  13.214
65881W        W37497  44.755  16.654   4.684
65882W        W37498  17.734   9.632  14.992
65883W        W37499  32.603  44.769   3.374
65884W        W37500  13.151  34.499  10.412
65885W        W37501  39.528   3.050   2.413
65886W        W37502   5.322  24.989   0.676
65887W        W37503  21.800  17.351  11.201
65888W        W37504  40.746  12.878   1.301
65889W        W37505  44.363  26.764   2.552
65890W        W37506  15.685  34.348  12.884
65891W        W37507  30.065  21.593   0.266
65892W        W37508  36.670  26.616  11.884
65893W        W37509  13.072  15.776   1.021
65894W        W37510  32.936  37.044  11.608
65895W        W37511  17.251   5.930   4.823
65896W        W37512  25.812  27.469  12.708
65897W        W37513  44.688  42.524   3.645
65898W        W37514   6.737  12.351  10.651
65899W        W37515   4.289  22.070  14.542
65900W        W37516  11.720  20.656  12.033
65901W        W37517  24.937  36.628  10.743
65902W        W37518   0.006  21.520   2.224
65903W        W37519  15.235  38.413   4.734
65904W        W37520  41.434  32.604   4.579
65905W        W37521   8.872  37.874   0.323
65906W        W37522  12.805  38.703  13.973
65907W        W37523  40.404  25.180   1.659
65908W        W37524  18.124   2.435   4.711
65909W        W37525  41.524   2.341   0.902
65910W        W37526   7.450  25.166   2.842
65911W        W37527  19.878   9.158  13.849
65912W        W37528  17.550  39.869  14.344
65913W        W37529  11.379  41.784   0.304
65914W        W37530  25.695  43.026  10.175
65915W        W37531   8.877  26.999   1.707
65916W        W37532  33.516   1.504   3.208
65917W        W37533  35.085  10.220  14.386
65918W        W37534  32.579  19.712   3.064
65919W        W37535   6.394  35.698   0.254
65920W        W37536  18.573  26.485   3.884
65921W        W37537  29.652  25.732  13.515
65922W        W37538  43.330  11.587  14.303
65923W        W37539  10.293  40.452   2.708
65924W        W37540   1.489  42.875  10.982
65925W        W37541  11.981  44.773  10.621
65926W        W37542  38.040  42.878   0.149
65927W        W37543  39.391  24.180  14.761
65928W        W37544   8.817  32.050  11.977
65929W        W37545  22.706   8.746   0.230
65930W        W37546  29.061  25.592  14.340
65931W        W37547  16.185  25.600   4.426
65932W        W37548  18.762   8.358  13.783
65933W        W37549  27.741   8.241   0.787
65934W        W37550  35.080  24.910   1.408
65935W        W37551  28.630  13.829   4.552
65936W        W37552   7.100  20.676   4.157
65937W        W37553  33.955  44.484  11.590
65938W        W37554   8.683  21.584  11.552
65939W        W37555  24.678  19.249  12.506
65940W        W37556  42.030  33.402   0.274
65941W        W37557   4.057  19.074   2.086
65942W        W37558  14.070  20.598  14.238
65943W        W37559  30.655  24.330  14.176
65944W        W37560  37.924  25.034   4.350
65945W        W37561   1.732  34.601   1.331
65946W        W37562  18.781   5.626  13.003
65947W        W37563  10.554  31.150  10.565
65948W        W37564   2.626   9.066   5.057
65949W        W37565  24.006  32.678  14.889
65950W        W37566   0.731  30.996  11.390
65951W        W37567  15.226  38.809   3.169
65952W        W37568  21.978   7.837  11.153
65953W        W37569  17.816  40.465  14.437
65954W        W37570   6.321   0.678   2.264
65955W        W37571   6.321  44.724   3.314
65956W        W37572  42.564  34.768  12.907
65957W        W37573  14.591  19.286   1.186
65958W        W37574   4.268  10.279   1.588
65959W        W37575   0.069   2.852  11.470
65960W        W37576   1.399  22.241  14.105
65961W        W37577  39.761  16.455   0.020
65962W        W37578   0.185  30.483  12.339
65963W        W37579  30.219  13.850  11.602
65964W        W37580   7.102  20.077  11.501
65965W        W37581  44.253  26.186  10.521
65966W        W37582  22.918  12.604   0.062
65967W        W37583  42.504  43.358   3.138
65968W        W37584  28.739  30.612   3.297
65969W        W37585   8.305  23.119  10.470
65970W        W37586  20.520  12.849   0.097
65971W        W37587  27.993   2.338   2.384
65972W        W37588  17.119   3.928   3.787
65973W        W37589  28.430   7.846  14.394
65974W        W37590   2.307   2.784  11.234
65975W        W37591   9.146  34.629   1.429
65976W        W37592  10.362   6.320   3.643
65977W        W37593  40.369   4.416  13.730
65978W        W37594  12.118  22.317  13.428
65979W        W37595  36.552  18.888  12.450
65980W        W37596  19.771  15.877   4.182
65981W        W37597  42.901  27.453   4.569
65982W        W37598  13.682   2.178   4.895
65983W        W37599  10.065  13.654   4.133
65984W        W37600  17.273   2.660   2.792
65985W        W37601  22.558  32.701   3.803
65986W        W37602  44.107  39.065  11.857
65987W        W37603  17.858  44.344   0.620
65988W        W37604  27.595  18.297  13.814
65989W        W37605  10.176  38.992  13.506
65990W        W37606  15.391  23.674  14.787
65991W        W37607  24.875  25.095  14.398
65992W        W37608  26.510   8.225   4.689
65993W        W37609  31.189  27.263   1.468
65994W        W37610  41.289  37.667  10.598
65995W        W37611  16.542  31.469  14.944
65996W        W37612  34.972  35.431  10.572
65997W        W37613  27.073   0.094  11.176
65998W        W37614  24.963  39.802   2.713
65999W        W37615  30.450  40.088  11.166
66000W        W37616  22.784  20.265   0.657
66001W        W37617  44.311   0.850   1.396
66002W        W37618   7.809  18.702  14.966
66003W        W37619  22.714  12.330  10.531
66004W        W37620  34.636  13.723   1.414
66005W        W37621  28.220  19.543  11.782
66006W        W37622  42.826  23.542  14.244
66007W        W37623   3.717  28.998  11.981
66008W        W37624  18.051  34.521  11.753
66009W        W37625  31.342   6.735  13.347
66010W        W37626  28.048  44.134   1.480
66011W        W37627  43.094  29.741  11.103
66012W        W37628  36.529  40.319   4.204
66013W        W37629  13.808  26.657  13.587
66014W        W37630  22.053   9.277   0.642
66015W        W37631  10.164  12.816  12.402
66016W        W37632  43.311  25.023   0.380
66017W        W37633   8.051  36.957  12.941
66018W        W37634  21.784  12.889   4.116
66019W        W37635  13.865  10.180   1.708
66020W        W37636   7.241   7.330  13.937
66021W        W37637  27.117  17.292  13.571
66022W        W37638  42.044  42.845   1.247
66023W        W37639  37.977  32.506   0.966
66024W        W37640   8.959  29.824   2.706
66025W        W37641  17.162  36.442   0.502
66026W        W37642  19.075  26.269  11.530
66027W        W37643  31.739  43.666  12.470
66028W        W37644  43.437  31.499   4.337
66029W        W37645  40.116  18.604  11.711
66030W        W37646  43.366  37.964  14.108
66031W        W37647  24.002  25.739   1.669
66032W        W37648  29.131  19.570   0.054
66033W        W37649  14.053  26.663   3.756
66034W        W37650  39.520  28.858   0.370
66035W        W37651   7.703  16.558   4.738
66036W        W37652  37.621  22.577  12.989
66037W        W37653  19.582  29.621   4.598
66038W        W37654  27.924   2.937   1.183
66039W        W37655  41.321   7.782   4.730
66040W        W37656  45.000  44.835   2.313
66041W        W37657  18.820   3.191  13.885
66042W        W37658  18.827  34.376  13.942
66043W        W37659  42.581   3.964  11.609
66044W        W37660  27.185  23.778   4.569
66045W        W37661  15.581  38.561   1.418
66046W        W37662  23.049  14.063  10.482
66047W        W37663  12.514  43.827  14.853
66048W        W37664  29.140   4.684  13.569
66049W        W37665   7.652  31.634  12.523
66050W        W37666  12.754   4.183  14.498
66051W        W37667   1.936  12.848  13.754
66052W        W37668  20.345  10.655   4.577
66053W        W37669  10.415  27.476   4.877
66054W        W37670  25.533  32.157   1.775
66055W        W37671  44.985   3.680  13.512
66056W        W37672  31.012  35.266  12.414
66057W        W37673  13.401  43.887   2.564
66058W        W37674  29.512   8.106  14.874
66059W        W37675  31.870  40.490   1.383
66060W        W37676  20.468   6.516   2.586
66061W        W37677  38.946  20.419  11.061
66062W        W37678   5.217  18.144   2.308
66063W        W37679  42.266  31.592   0.307
66064W        W37680  31.226  27.480   5.096
66065W        W37681  29.729  24.907  12.997
66066W        W37682  40.410  15.793  11.120
66067W        W37683   8.721  29.083  10.623
66068W        W37684  21.334   3.646  13.021
66069W        W37685   2.098   2.665  14.938
66070W        W37686  37.494  40.342  13.211
66071W        W37687  22.426  27.507   3.225
66072W        W37688  15.174  32.334  10.194
66073W        W37689  13.808  19.504  10.726
66074W        W37690   4.886  18.334   4.696
66075W        W37691  32.011  18.934  14.776
66076W        W37692   5.371  38.028   1.897
66077W        W37693  18.855  26.593   4.315
66078W        W37694   6.112   6.921   3.152
66079W        W37695  41.729  25.455  11.610
66080W        W37696  15.162   6.458   2.726
66081W        W37697   2.272  37.344   4.366
66082W        W37698  14.338   5.175  11.073
66083W        W37699  43.573  26.547  10.039
66084W        W37700  20.776   7.649  11.655
66085W        W37701   7.687  12.669   4.581
66086W        W37702  26.637   2.233  12.661
66087W        W37703   1.742  11.078   2.619
66088W        W37704  33.330   3.569   4.897
66089W        W37705   4.975  35.469   2.340
66090W        W37706  30.523   9.043  11.152
66091W        W37707  13.606  22.274  13.942
66092W        W37708  23.134  19.010  10.409
66093W        W37709   8.881  32.951   0.813
66094W        W37710  24.874  36.167  10.520
66095W        W37711  42.758  41.471   2.242
66096W        W37712   6.509  19.634   9.922
66097W        W37713  32.469  20.202   4.438
66098W        W37714  39.819  36.626   4.516
66099W        W37715  13.074  39.851  10.672
66100W        W37716  32.539  24.329  14.964
66101W        W37717  30.534  18.377   4.479
66102W        W37718   8.153  18.120   3.278
66103W        W37719  19.757   5.938  14.543
66104W        W37720  43.430  37.888   1.434
66105W        W37721   4.887  12.098  14.941
66106W        W37722  31.236  15.175  13.404
66107W        W37723   6.354  33.454  14.404
66108W        W37724  18.261  16.165  10.602
66109W        W37725  13.315   5.294  14.870
66110W        W37726  29.208  10.582  11.260
66111W        W37727  15.536  39.874   1.825
66112W        W37728  10.600  25.634   4.661
66113W        W37729  24.148  33.595   1.381
66114W        W37730  29.224  27.859   3.862
66115W        W37731  28.563  17.401  12.086
66116W        W37732  11.221  31.487  13.098
66117W        W37733  12.553  23.478  14.927
66118W        W37734  35.536   2.032  10.791
66119W        W37735   1.711  12.029   3.247
66120W        W37736   6.369   2.900  12.520
66121W        W37737  33.502  20.119  11.962
66122W        W37738   2.802  10.309   4.875
66123W        W37739  37.161   5.066  13.933
66124W        W37740   2.890   8.326   3.424
66125W        W37741  28.855  28.191   3.648
66126W        W37742  34.771  34.207  12.881
66127W        W37743   9.392   8.881  12.435
66128W        W37744  28.563  17.128  11.525
66129W        W37745  20.264  30.426  10.783
66130W        W37746   7.099   2.199  12.282
66131W        W37747   0.502  34.849   2.951
66132W        W37748  13.470  11.218   3.103
66133W        W37749  28.720  39.858  13.894
66134W        W37750  11.987  39.276   0.020
66135W        W37751  33.446  10.353   4.550
66136W        W37752  21.750  17.311   3.359
66137W        W37753  23.011  33.978  12.359
66138W        W37754  26.083  17.231   3.213
66139W        W37755  13.083  23.977  14.347
66140W        W37756  30.033  27.807  12.354
66141W        W37757   1.271  13.849  14.330
66142W        W37758   1.338  29.016  11.863
66143W        W37759  28.190  38.384  10.410
66144W        W37760  25.878  34.558  14.022
66145W        W37761   3.899   9.240  12.892
66146W        W37762  25.053  20.693  10.477
66147W        W37763  27.105  20.272  11.219
66148W        W37764  25.021  39.102   1.703
66149W        W37765  10.304  41.753  14.384
66150W        W37766  27.714   0.731  12.640
66151W        W37767  19.807  17.351   4.127
66152W        W37768   4.257  39.281  14.975
66153W        W37769  37.035  14.273   0.742
66154W        W37770  16.391  11.318   2.913
66155W        W37771  43.925  20.189   4.762
66156W        W37772   0.979  17.051   3.260
66157W        W37773  12.194  33.459  10.905
66158W        W37774  26.068   4.829   4.558
66159W        W37775  29.752  31.377  11.017
66160W        W37776  25.584  33.020   1.406
66161W        W37777  24.234  27.385  12.419
66162W        W37778  44.315   1.277  14.934
66163W        W37779  14.195  27.196   4.635
66164W        W37780  43.022  27.994  11.051
66165W        W37781  31.978  38.302  12.187
66166W        W37782  37.445  33.057   0.332
66167W        W37783  42.226  21.762  14.302
66168W        W37784  16.147  33.355   1.679
66169W        W37785  10.102   7.641   0.519
66170W        W37786  11.985  25.632  11.983
66171W        W37787  18.140  10.385  12.106
66172W        W37788  14.944  15.173  11.543
66173W        W37789  11.505   8.204   4.158
66174W        W37790  15.054   4.874   2.241
66175W        W37791  17.655   3.492   2.659
66176W        W37792   5.413  15.844   4.759
66177W        W37793  31.143  15.787  14.738
66178W        W37794  13.841  38.332   1.324
66179W        W37795  23.166   0.861   1.148
66180W        W37796  18.322   1.848  10.738
66181W        W37797  37.762  15.214  10.597
66182W        W37798  17.255  22.554  10.663
66183W        W37799  29.330  12.827  14.209
66184W        W37800  42.804   4.289   2.560
66185W        W37801  38.861  30.581   5.363
66186W        W37802  11.810  16.740  11.118
66187W        W37803  41.123  36.679   2.917
66188W        W37804  27.058   5.401  14.340
66189W        W37805  34.651  14.724   0.821
66190W        W37806  20.961  24.461   0.155
66191W        W37807  43.834  30.642  12.980
66192W        W37808  39.447  38.520   4.793
66193W        W37809  11.396  36.348  12.515
66194W        W37810  10.127  10.371   0.478
66195W        W37811   8.595  21.210   4.148
66196W        W37812   5.938  20.587   0.022
66197W        W37813  20.749  30.967   4.187
66198W        W37814  44.710  17.609   3.378
66199W        W37815  23.163  21.430   2.425
66200W        W37816  23.388  37.005  12.510
66201W        W37817  23.052  37.556  10.264
66202W        W37818  41.825  23.985   1.207
66203W        W37819  30.326   2.483   0.543
66204W        W37820  17.143  24.084  13.837
66205W        W37821  40.844  40.579  10.700
66206W        W37822  20.524   3.640   1.294
66207W        W37823  34.656  31.969   1.448
66208W        W37824  12.871  28.102   2.197
66209W        W37825  16.645  20.936   3.355
66210W        W37826  14.640  44.931   0.409
66211W        W37827  10.296  14.364   5.080
66212W        W37828   1.477  33.542  12.989
66213W        W37829   0.316  31.442   1.182
66214W        W37830   9.119  33.953   0.769
66215W        W37831  25.714  11.750   3.551
66216W        W37832   9.349  15.092  14.564
66217W        W37833   4.668   7.272  13.025
66218W        W37834  38.840  36.571   4.419
66219W        W37835  15.094   1.881   1.220
66220W        W37836  34.637   3.338   0.401
66221W        W37837  29.904   0.349  12.583
66222W        W37838   9.072  20.821  12.588
66223W        W37839  18.526   0.822   0.908
66224W        W37840  14.206  38.960   2.360
66225W        W37841  18.714  11.350  12.592
66226W        W37842  25.677  36.332   4.300
66227W        W37843   5.167  12.881  12.020
66228W        W37844  11.233   3.634  10.756
66229W        W37845   5.994  15.044  12.991
66230W        W37846   5.572  21.788  11.817
66231W        W37847  41.821   7.329  13.625
66232W        W37848  37.978   3.302  14.802
66233W        W37849   2.232  44.049   0.965
66234W        W37850  10.294   5.661   2.369
66235W        W37851   9.024  10.304   1.266
66236W        W37852  26.511  43.784  13.326
66237W        W37853   0.393   7.088   3.152
66238W        W37854  35.884  37.947   3.955
66239W        W37855  23.145  23.236  10.701
66240W        W37856   4.783  14.771   0.981
66241W        W37857   1.880  37.053   0.610
66242W        W37858  28.704  43.371   2.922
66243W        W37859   4.226  40.589  14.439
66244W        W37860   1.546  36.935  11.648
66245W        W37861  43.097  11.741  11.476
66246W        W37862   1.363  10.336   3.935
66247W        W37863   2.960  28.624  11.632
66248W        W37864   0.586  20.365   4.049
66249W        W37865   4.301   0.512   4.648
66250W        W37866  10.152  22.442  14.753
66251W        W37867  31.178  24.722  11.990
66252W        W37868   1.606   6.836  11.702
66253W        W37869  44.139  12.364  14.765
66254W        W37870  36.427  18.668   3.829
66255W        W37871  39.990   5.776  11.542
66256W        W37872  16.638  32.542  12.916
66257W        W37873  28.835  11.613   3.645
66258W        W37874  11.779  17.081  13.969
66259W        W37875  20.106  14.129   4.236
66260W        W37876  29.856   1.539   0.289
66261W        W37877   0.148  21.819  13.770
66262W        W37878  38.732  12.316  11.896
66263W        W37879   1.994  26.993  10.383
66264W        W37880  22.868   4.100  12.036
66265W        W37881  16.296   9.994  11.788
66266W        W37882   9.080  27.452  11.121
66267W        W37883   1.129  33.627  11.561
66268W        W37884  11.545  21.679   2.774
66269W        W37885  43.404  35.562  10.190
66270W        W37886  16.064  25.451  11.171
66271W        W37887   6.654  44.839  12.491
66272W        W37888  18.030  28.032   1.688
66273W        W37889  34.629   1.818   3.659
66274W        W37890  10.659  18.798  14.332
66275W        W37891  25.788  24.872  14.022
66276W        W37892  10.569  29.955  11.025
66277W        W37893  13.320  14.587  13.936
66278W        W37894  38.621  26.913   0.893
66279W        W37895  19.165  17.346   3.447
66280W        W37896  13.371  40.931  11.213
66281W        W37897  16.677   9.607   2.913
66282W        W37898   9.692  33.474   4.477
66283W        W37899   4.138  31.421   3.734
66284W        W37900  28.146   7.379   2.838
66285W        W37901   1.031   1.754  14.992
66286W        W37902  38.560  26.397   1.772
66287W        W37903  32.590  20.690  13.654
66288W        W37904  40.424  30.834   2.319
66289W        W37905  18.111  28.755  11.598
66290W        W37906  11.628  24.133   3.533
66291W        W37907   8.217  14.079  11.600
66292W        W37908  27.493  41.258   4.120
66293W        W37909  31.070   5.205   3.753
66294W        W37910  35.944  17.854  13.893
66295W        W37911  28.497  23.502   3.504
66296W        W37912  15.638   7.995   1.902
66297W        W37913   6.934   7.922   3.900
66298W        W37914  37.491  44.588  13.275
66299W        W37915  41.528  44.936   3.254
66300W        W37916   2.292  33.411  14.325
66301W        W37917   4.788  40.805  12.474
66302W        W37918   5.817  19.169  14.380
66303W        W37919  39.270  14.909  14.279
66304W        W37920   9.191  22.623   2.254
66305W        W37921   0.295  12.844   2.157
66306W        W37922  28.389  21.157  12.425
66307W        W37923  11.663  35.510  14.937
66308W        W37924  11.790  25.228  12.536
66309W        W37925   9.193  23.154  14.413
66310W        W37926  22.042  10.153  11.920
66311W        W37927  13.777  17.139  12.632
66312W        W37928  10.611  27.074  13.895
66313W        W37929  19.658  22.996   0.420
66314W        W37930  21.178  33.680  14.008
66315W        W37931  20.653  29.639   2.807
66316W        W37932   6.636  26.160   1.536
66317W        W37933  17.905  17.699   3.336
66318W        W37934  16.207  29.654  13.865
66319W        W37935  11.881  24.534  11.899
66320W        W37936   2.956  13.524  11.559
66321W        W37937   9.356   6.597  10.238
66322W        W37938   7.727   0.800   3.008
66323W        W37939  21.202  32.847   4.359
66324W        W37940  16.599  25.062  14.720
66325W        W37941   5.964  35.326   3.643
66326W        W37942   9.723  26.485  11.128
66327W        W37943  11.185  23.042  12.553
66328W        W37944   7.436  32.402   2.485
66329W        W37945   0.985  10.417  13.461
66330W        W37946  17.621  16.367   3.700
66331W        W37947  25.957   3.536   2.445
66332W        W37948   7.593  19.443   5.101
66333W        W37949  10.785  20.288   4.360
66334W        W37950  33.335  28.707   4.520
66335W        W37951  35.388   6.204   3.359
66336W        W37952  32.842   8.314   1.847
66337W        W37953  31.345  14.692  13.479
66338W        W37954  39.922  24.121   4.700
66339W        W37955   9.589   1.396   1.336
66340W        W37956  19.566  10.653  11.892
66341W        W37957  14.851  18.783  10.665
66342W        W37958   7.421  13.642  14.195
66343W        W37959  34.920   0.685  11.974
66344W        W37960  34.609  40.660   2.338
66345W        W37961  20.117  42.376  14.015
66346W        W37962  32.470  14.101   2.655
66347W        W37963   4.444  29.032  14.933
66348W        W37964  25.868  15.782   2.477
66349W        W37965  39.038  20.068   2.325
66350W        W37966  12.680  15.654   4.702
66351W        W37967  42.509   0.354   2.841
66352W        W37968  31.224  38.974  11.516
66353W        W37969  39.477   1.281  14.966
66354W        W37970  31.698  21.460   2.671
66355W        W37971   0.755   8.785  10.745
66356W        W37972  43.872  17.068  14.171
66357W        W37973   3.053  16.707  12.043
66358W        W37974  41.388  37.470  12.064
66359W        W37975  11.386   1.480   2.630
66360W        W37976   3.316  26.205   0.468
66361W        W37977  21.198   9.676   1.530
66362W        W37978  30.558  30.637  10.551
66363W        W37979  38.389  31.295   1.767
66364W        W37980  31.367  21.709   2.350
66365W        W37981  32.710  39.378   0.380
66366W        W37982  44.134  26.770  11.080
66367W        W37983  18.101  27.730  12.511
66368W        W37984   4.042  30.024  13.505
66369W        W37985  15.732  41.529  11.885
66370W        W37986  43.890  38.921  14.242
66371W        W37987  24.158  30.201  11.563
66372W        W37988  23.305   7.858   2.820
66373W        W37989   3.285   5.622   3.104
66374W        W37990  35.162  33.477  14.477
66375W        W37991   6.908  23.951  11.153
66376W        W37992  30.496  10.742   0.047
66377W        W37993  34.917  34.033   2.291
66378W        W37994  14.704  16.299  10.556
66379W        W37995  20.614   7.478   2.293
66380W        W37996   7.705   1.992  13.336
66381W        W37997   4.010  22.489  12.952
66382W        W37998  29.719  26.151   1.125
66383W        W37999   2.477  29.122  13.865
66384W        W38000   4.059  24.792   9.945
66385W        W38001  19.758  35.950  14.752
66386W        W38002  25.101  29.068   3.594
66387W        W38003  22.442  32.817  10.118
66388W        W38004  27.172  19.196  12.597
66389W        W38005  44.689  44.302  12.497
66390W        W38006  29.453  44.512   3.224
66391W        W38007  13.779  37.954   0.447
66392W        W38008  14.842  24.055   2.849
66393W        W38009   1.739  19.788  11.044
66394W        W38010  16.631  30.110   4.078
66395W        W38011  44.436  17.226  14.856
66396W        W38012  13.347   2.506   1.771
66397W        W38013  43.708   5.666   3.377
66398W        W38014  19.221  34.860   0.806
66399W        W38015  29.935  36.967   3.841
66400W        W38016  27.046   1.802  13.782
66401W        W38017  38.835  37.543   4.698
66402W        W38018  42.036   2.309   0.980
66403W        W38019  12.255  17.305   1.516
66404W        W38020  34.249  21.839  12.013
66405W        W38021   8.322  26.744   0.694
66406W        W38022   3.980  16.560   0.792
66407W        W38023  30.866  13.719   0.817
66408W        W38024   5.022   4.740   2.207
66409W        W38025  21.281  10.691  10.976
66410W        W38026  43.943  12.394   0.772
66411W        W38027  25.101  12.833   2.638
66412W        W38028  42.623   9.852   3.767
66413W        W38029  21.473  26.990   4.593
66414W        W38030   4.727  26.979  12.648
66415W        W38031  37.146   0.367  10.560
66416W        W38032   6.468  25.606  14.317
66417W        W38033  13.123  44.094   1.667
66418W        W38034  36.533  41.003   2.789
66419W        W38035  29.034  27.725   3.387
66420W        W38036  24.030  42.800   0.263
66421W        W38037  37.528  18.721   4.629
66422W        W38038  35.899  39.802   2.877
66423W        W38039   0.976  35.523   0.848
66424W        W38040  12.780  28.626  13.172
66425W        W38041  44.649  11.814   2.784
66426W        W38042  17.061   5.226   4.352
66427W        W38043   2.897  42.761  11.026
66428W        W38044  38.763  11.146  14.751
66429W        W38045  37.109  36.887  11.106
66430W        W38046  23.418  18.044  12.189
66431W        W38047  38.619  20.034  12.032
66432W        W38048  40.259  40.866   3.385
66433W        W38049   3.360  24.639   5.276
66434W        W38050   6.923   4.325  11.633
66435W        W38051   7.759  35.645  14.235
66436W        W38052  26.125  40.909   3.976
66437W        W38053  34.765  38.378  12.782
66438W        W38054  12.736  37.537  13.450
66439W        W38055   8.868   0.228   2.656
66440W        W38056  22.375   4.348   0.887
66441W        W38057  28.388  26.012   3.160
66442W        W38058  30.617  29.933  10.029
66443W        W38059   1.498  26.523  13.605
66444W        W38060   2.052   7.142   0.691
66445W        W38061  25.410  13.107   1.856
66446W        W38062  36.724   9.974   1.718
66447W        W38063  13.873  14.169  10.397
66448W        W38064  31.370  10.349   4.750
66449W        W38065   9.189   3.281   1.218
66450W        W38066  16.664  15.778  14.564
66451W        W38067  39.050  19.947  10.902
66452W        W38068  33.479   6.770   0.013
66453W        W38069  37.634  25.706   1.264
66454W        W38070  38.346  39.224   3.086
66455W        W38071  27.053  28.230  13.546
66456W        W38072  12.673  39.845   4.366
66457W        W38073  18.684  12.656  11.983
66458W        W38074  16.260  42.010   2.646
66459W        W38075  11.674  39.020   4.475
66460W        W38076  22.449  27.596   4.089
66461W        W38077  23.658  22.700   0.741
66462W        W38078   9.835   5.854   4.165
66463W        W38079  28.694  31.966  12.496
66464W        W38080  18.821  42.425  14.962
66465W        W38081  41.438  20.586   1.223
66466W        W38082  25.210  18.336   1.389
66467W        W38083  32.439  25.091  14.335
66468W        W38084  15.328  26.553   0.256
66469W        W38085   6.743  13.668  11.924
66470W        W38086  19.527  10.581  14.315
66471W        W38087  15.725  18.575  11.136
66472W        W38088  15.925   1.935   1.799
66473W        W38089  36.951   1.442   0.218
66474W        W38090   3.269  12.670   4.471
66475W        W38091  23.779  34.898  11.105
66476W        W38092  17.069   5.373   3.349
66477W        W38093  41.816  10.597  13.131
66478W        W38094   6.760  31.279  13.820
66479W        W38095   7.724   5.992  12.142
66480W        W38096  43.793  14.219   1.470
66481W        W38097  16.192  10.776  10.695
66482W        W38098  19.415   0.679   4.060
66483W        W38099  36.103  44.753   3.168
66484W        W38100  39.557  40.823   4.580
66485W        W38101  11.406  31.540  11.582
66486W        W38102  10.783  21.233   4.820
66487W        W38103  28.395  29.209   0.307
66488W        W38104   3.329  29.334   2.291
66489W        W38105  29.921   9.235   1.647
66490W        W38106   4.868  16.190  12.595
66491W        W38107  19.595   9.127   4.621
66492W        W38108   9.655  25.455   1.674
66493W        W38109  17.665  35.578   1.482
66494W        W38110  20.052  36.245   0.080
66495W        W38111   4.259   4.810  12.505
66496W        W38112  14.530   5.780  11.551
66497W        W38113  25.668  32.116   3.924
66498W        W38114  44.211   7.788   0.423
66499W        W38115  40.774  12.545  12.441
66500W        W38116  34.127  18.286   3.669
66501W        W38117  23.804  41.266   1.460
66502W        W38118  25.704  14.183   0.702
66503W        W38119  30.811   6.157  14.448
66504W        W38120   0.308  19.036   4.470
66505W        W38121  10.249  31.033  14.733
66506W        W38122   6.708  14.546   1.390
66507W        W38123   8.255  44.502  13.618
66508W        W38124  38.352  10.737   0.873
66509W        W38125  24.231   3.294  12.507
66510W        W38126  12.027   2.785  13.278
66511W        W38127   2.974  36.889   1.857
66512W        W38128  37.402   5.525   1.791
66513W        W38129  43.721  21.570  10.598
66514W        W38130   8.223  18.707   0.764
66515W        W38131   0.754  40.663  14.287
66516W        W38132  10.098  28.090   1.232
66517W        W38133  22.002  34.219  13.918
66518W        W38134  18.604   3.497  11.001
66519W        W38135   2.047  21.846   1.842
66520W        W38136  11.208  26.893  12.021
66521W        W38137  22.014  44.296  11.124
66522W        W38138  28.756   8.351   0.846
66523W        W38139  39.910  26.013  10.441
66524W        W38140  21.028  27.728  11.969
66525W        W38141  26.763  33.009  12.372
66526W        W38142  40.081  18.113   1.380
66527W        W38143  12.887  38.373   0.870
66528W        W38144  20.630   5.751  13.058
66529W        W38145  19.738   4.625  13.007
66530W        W38146  37.155  17.253   0.454
66531W        W38147  40.846  26.785  13.277
66532W        W38148  40.733   1.009  12.356
66533W        W38149  35.923   5.846   2.665
66534W        W38150  18.527   3.931   1.022
66535W        W38151  40.871  19.585   1.089
66536W        W38152  26.142  13.219   1.315
66537W        W38153  31.237  11.179   4.653
66538W        W38154  18.039  28.119   2.773
66539W        W38155  24.893  13.326  11.156
66540W        W38156  25.584  13.732  14.355
66541W        W38157   6.979  37.854   1.789
66542W        W38158  18.209   9.550  11.501
66543W        W38159  22.596  24.020  14.517
66544W        W38160  24.932   3.267   0.695
66545W        W38161   0.968  13.605  12.879
66546W        W38162  39.514  20.957  13.851
66547W        W38163  14.754   5.400   2.993
66548W        W38164   7.738  27.208  12.378
66549W        W38165  33.662  42.536   1.238
66550W        W38166  15.721  40.064  10.924
66551W        W38167  20.975  40.315  11.547
66552W        W38168  19.057   1.869  13.361
66553W        W38169  38.310   0.650  14.841
66554W        W38170  17.830  13.790   3.719
66555W        W38171   4.519  20.579  14.910
66556W        W38172  25.519   5.800  12.871
66557W        W38173  40.880   0.865   0.240
66558W        W38174  37.133  12.162   1.170
66559W        W38175   3.265  40.565  10.652
66560W        W38176  40.157  18.070  13.797
66561W        W38177   1.876   0.567   2.868
66562W        W38178  31.927  23.037   4.602
66563W        W38179  29.087  34.842   3.489
66564W        W38180  32.125  13.084  11.518
66565W        W38181   3.957  33.892  12.552
66566W        W38182  16.654   0.306  14.446
66567W        W38183  36.509  25.728  11.565
66568W        W38184  31.986  33.484   1.201
66569W        W38185  44.368  35.212   2.972
66570W        W38186  16.287  27.412   0.093
66571W        W38187  22.676  23.507   1.245
66572W        W38188   1.744   6.763  12.606
66573W        W38189  19.995  37.900  14.081
66574W        W38190  42.612   2.225   1.606
66575W        W38191  10.659  26.455   4.168
66576W        W38192  14.165   8.155   3.254
66577W        W38193   6.772  15.522  14.764
66578W        W38194  20.825  40.338  14.436
66579W        W38195  17.593  19.670   5.216
66580W        W38196  37.111  27.115   0.829
66581W        W38197  18.393  19.040  12.354
66582W        W38198   9.325  28.692   0.464
66583W        W38199  27.248  11.848  10.287
66584W        W38200  38.838  13.264  13.828
66585W        W38201   7.765  20.517   3.392
66586W        W38202  34.350   2.053   4.110
66587W        W38203  21.968  41.988   0.440
66588W        W38204  21.752  28.452   0.735
66589W        W38205  10.379  11.082  12.556
66590W        W38206  36.961  24.975   1.155
66591W        W38207  38.433  30.109   4.062
66592W        W38208  35.938  34.755   2.659
66593W        W38209  25.320   2.394   0.439
66594W        W38210  23.889  13.872  13.764
66595W        W38211  28.007  25.654  13.867
66596W        W38212  25.558  28.111   1.711
66597W        W38213  34.968  37.955  10.735
66598W        W38214  27.646  15.890   3.292
66599W        W38215  10.692   0.799  11.267
66600W        W38216  15.157  27.701  11.934
66601W        W38217   9.857  40.465  11.487
66602W        W38218  23.199  31.569   3.365
66603W        W38219  13.303  19.680  11.962
66604W        W38220  29.024  17.770  12.927
66605W        W38221  40.936  14.212   4.712
66606W        W38222   9.630  10.865   1.792
66607W        W38223  41.831  44.244  12.424
66608W        W38224   6.438  35.059   3.811
66609W        W38225  19.706  18.018  12.437
66610W        W38226  20.215   5.940  14.776
66611W        W38227  34.661   9.180   3.149
66612W        W38228   0.089  40.099  12.903
66613W        W38229  28.187  41.315   1.790
66614W        W38230   0.244  44.259   1.320
66615W        W38231   5.213   6.306   3.464
66616W        W38232  10.632  25.711   1.665
66617W        W38233  33.065   6.738   2.745
66618W        W38234   4.692  17.828   3.586
66619W        W38235   2.238  34.590  13.574
66620W        W38236   0.254  18.132  11.542
66621W        W38237  40.268  29.181   0.791
66622W        W38238  44.958  13.136  11.149
66623W        W38239   2.898  12.173  12.647
66624W        W38240  25.158  18.830   0.846
66625W        W38241  14.742  10.847  13.071
66626W        W38242  26.636   6.832  12.543
66627W        W38243  37.593  13.477   5.124
66628W        W38244  29.903  12.350   3.355
66629W        W38245  23.512  34.766  12.004
66630W        W38246  26.146  33.359  13.537
66631W        W38247  37.565   3.198   4.594
66632W        W38248   5.311  44.005   1.311
66633W        W38249  43.915  42.794   3.538
66634W        W38250  41.408  19.796   1.829
66635W        W38251  13.903  37.286   4.641
66636W        W38252  17.235  24.050   4.620
66637W        W38253  33.469   6.668  10.551
66638W        W38254   5.390  12.067  11.928
66639W        W38255  27.238  28.053   0.550
66640W        W38256  33.388  42.716  11.705
66641W        W38257   6.671  19.524  14.688
66642W        W38258   6.337  13.603   3.258
66643W        W38259  27.889  13.344  10.920
66644W        W38260  37.414  24.501  11.952
66645W        W38261   6.894  35.315   2.196
66646W        W38262  33.871   8.026  13.036
66647W        W38263   1.631  37.464   2.314
66648W        W38264  32.328  36.319  13.148
66649W        W38265  13.729  19.190   3.551
66650W        W38266  24.969   1.902  12.138
66651W        W38267   7.248  24.161   4.350
66652W        W38268  40.493  17.752   2.907
66653W        W38269  37.925  11.666  10.968
66654W        W38270  18.789  17.556   1.193
66655W        W38271   3.610  25.422   3.398
66656W        W38272  43.564  26.386   1.426
66657W        W38273  14.137   0.527  13.997
66658W        W38274  34.377  25.366   1.036
66659W        W38275  23.634  38.500   4.706
66660W        W38276   8.405  33.105  13.557
66661W        W38277  29.125  16.850   1.859
66662W        W38278  43.775   7.892  11.465
66663W        W38279   1.677  24.426   0.987
66664W        W38280  23.152  22.241  14.162
66665W        W38281  15.697   9.788   2.173
66666W        W38282   3.960  23.856   2.375
66667W        W38283  17.365  28.740  12.089
66668W        W38284  30.816  22.482  11.566
66669W        W38285  30.098  12.997   0.439
66670W        W38286  35.286  41.274  12.898
66671W        W38287  34.085   7.919   3.859
66672W        W38288   1.433   5.258   1.214
66673W        W38289   7.746  32.575   4.897
66674W        W38290  37.600   6.950   0.783
66675W        W38291  19.095   8.476   1.696
66676W        W38292  22.931  14.873  12.091
66677W        W38293  23.663  14.325   3.710
66678W        W38294   5.640  14.130   2.262
66679W        W38295   6.402  31.825   0.673
66680W        W38296  10.341  12.347   4.361
66681W        W38297  13.597  28.273   1.496
66682W        W38298  35.718  25.535  11.099
66683W        W38299  13.119  17.026  11.006
66684W        W38300  41.847   5.937  13.157
66685W        W38301  31.869  43.230  14.266
66686W        W38302   1.295  12.763   0.420
66687W        W38303  32.028  37.705   2.124
66688W        W38304  13.515  12.215  10.763
66689W        W38305  41.954   4.924   1.257
66690W        W38306  19.775  39.058   2.221
66691W        W38307  20.335  42.058  11.547
66692W        W38308   3.083  38.996   1.904
66693W        W38309  39.606  32.067  13.910
66694W        W38310   5.280  35.812   0.961
66695W        W38311   0.926   7.819  14.845
66696W        W38312  36.644  21.171  11.820
66697W        W38313  22.145   4.716   0.230
66698W        W38314   3.817   7.081  12.575
66699W        W38315  34.919  29.562   2.424
66700W        W38316  42.842   0.550  14.773
66701W        W38317  34.995  21.296  10.078
66702W        W38318   8.213  12.095  12.451
66703W        W38319  41.060  11.301  12.226
66704W        W38320  43.032   1.798  14.417
66705W        W38321  21.921  10.831   0.536
66706W        W38322  34.988  16.574   4.001
66707W        W38323   7.860   5.227   1.327
66708W        W38324   8.894  34.677  12.523
66709W        W38325  28.802  35.189  10.791
66710W        W38326  13.614   7.126   3.932
66711W        W38327  43.504  33.132  10.615
66712W        W38328  36.952  33.064   2.764
66713W        W38329   4.950  18.278   2.749
66714W        W38330  43.340   7.623  12.525
66715W        W38331  19.670   7.776  10.952
66716W        W38332  34.521  25.570   0.519
66717W        W38333  16.641   4.141   3.691
66718W        W38334   9.073  40.326   1.229
66719W        W38335  10.766  26.669  12.135
66720W        W38336   1.768  28.343  14.848
66721W        W38337  30.726   6.231   3.316
66722W        W38338  26.557  15.593  12.497
66723W        W38339  24.022  22.678  13.534
66724W        W38340   4.843  29.989   4.134
66725W        W38341  15.236   5.474  10.669
66726W        W38342  37.859   7.340   1.024
66727W        W38343  37.161  26.923  11.196
66728W        W38344  27.545  41.079  11.955
66729W        W38345  16.200  43.046   4.442
66730W        W38346  43.894  44.018  12.856
66731W        W38347  33.820   1.927   4.213
66732W        W38348  42.993  19.056   2.702
66733W        W38349  39.003  30.364  14.835
66734W        W38350  11.293  30.390  11.241
66735W        W38351  44.942  25.071   1.928
66736W        W38352  35.373   3.353  12.104
66737W        W38353  38.931  23.092   4.345
66738W        W38354  33.379  34.938  14.897
66739W        W38355   6.754  19.947   1.493
66740W        W38356   8.505  42.450  10.591
66741W        W38357  16.766  26.632   2.207
66742W        W38358  35.442  11.816  12.995
66743W        W38359  41.910  40.854   3.437
66744W        W38360  13.254  29.624  14.984
66745W        W38361   1.987  26.014  14.998
66746W        W38362   0.447   5.921  13.782
66747W        W38363  36.717  32.954   2.312
66748W        W38364  19.089  23.096  10.631
66749W        W38365  36.822  29.971  12.850
66750W        W38366   3.485  27.080   0.823
66751W        W38367  17.197  26.123  14.073
66752W        W38368  22.026  35.150  13.016
66753W        W38369   9.321  29.446  13.895
66754W        W38370  34.429  39.312  12.528
66755W        W38371  24.945  13.581   0.999
66756W        W38372   7.180  27.536  11.644
66757W        W38373  22.770  28.649  10.800
66758W        W38374   2.434  11.897  11.996
66759W        W38375  22.898  20.055   1.472
66760W        W38376  27.752  15.791  13.097
66761W        W38377  35.257   1.612  10.655
66762W        W38378  30.880   7.604   4.576
66763W        W38379  28.057  24.590  10.213
66764W        W38380   9.458   6.118   1.834
66765W        W38381   6.398  27.538  12.067
66766W        W38382  11.716   4.578   1.368
66767W        W38383  38.035   6.666   3.846
66768W        W38384   3.248  44.861  12.523
66769W        W38385  41.997  29.560  10.740
66770W        W38386  32.902  20.694  11.924
66771W        W38387   2.922  31.495   3.439
66772W        W38388  41.468  30.198   0.430
66773W        W38389  39.977  11.314  10.310
66774W        W38390   4.641  22.752   0.965
66775W        W38391  39.929   5.161  10.874
66776W        W38392  26.250  26.981   1.283
66777W        W38393  24.346  35.052  12.002
66778W        W38394   4.310  10.025   0.584
66779W        W38395  33.657  35.798  10.570
66780W        W38396   3.178  44.024  11.298
66781W        W38397  18.646   8.354  12.967
66782W        W38398   5.745  28.951   3.163
66783W        W38399  22.743   1.723   2.664
66784W        W38400  11.224   6.854   4.655
66785W        W38401  24.899  13.071   1.829
66786W        W38402  26.176  14.080  13.514
66787W        W38403  23.479   2.713  12.151
66788W        W38404  17.802   9.600  13.933
66789W        W38405  40.551  16.269  11.443
66790W        W38406  35.547  11.643  11.508
66791W        W38407  33.512  41.362  11.197
66792W        W38408  18.694  11.157   0.858
66793W        W38409   7.735  26.620   3.085
66794W        W38410  31.462  38.078   3.235
66795W        W38411  24.975   2.758  11.140
66796W        W38412  27.627   2.431  14.326
66797W        W38413   6.392  31.565   3.724
66798W        W38414   0.026  28.678   1.619
66799W        W38415  42.333  25.630  13.478
66800W        W38416   1.679   4.782  10.530
66801W        W38417   0.920  20.242  12.631
66802W        W38418   0.313  28.160  10.532
66803W        W38419  10.835  20.648  14.761
66804W        W38420  44.204   2.650  12.482
66805W        W38421   1.233   6.759  13.764
66806W        W38422   6.419  11.952  10.631
66807W        W38423  40.567  37.960  12.966
66808W        W38424  43.856  38.019   3.020
66809W        W38425  43.377  16.207  14.872
66810W        W38426  44.978  15.379  13.436
66811W        W38427  33.999  28.577  10.756
66812W        W38428  17.400   3.884  11.319
66813W        W38429  28.572  15.611   4.131
66814W        W38430  41.231  14.806  11.916
66815W        W38431  41.112   6.342  11.183
66816W        W38432  15.487  34.097   2.768
66817W        W38433  33.624   9.740  14.992
66818W        W38434  14.766   2.791   1.923
66819W        W38435  36.403  19.702   3.753
66820W        W38436  44.787  24.497  11.717
66821W        W38437  22.032  31.032   3.212
66822W        W38438   2.124  33.996   3.780
66823W        W38439  21.071   9.613  10.132
66824W        W38440   0.762  26.969  12.801
66825W        W38441  34.965  31.164   4.121
66826W        W38442  12.168  17.506  13.423
66827W        W38443   6.442  22.036   3.785
66828W        W38444  43.410  24.747   3.792
66829W        W38445  20.641  23.935   2.251
66830W        W38446  31.688  34.839  10.661
66831W        W38447  22.771  15.113   1.776
66832W        W38448  12.825  44.488   1.916
66833W        W38449  27.963   5.457   0.268
66834W        W38450  19.954   1.840  10.299
66835W        W38451  42.851  17.186   2.784
66836W        W38452  37.960  36.209  11.625
66837W        W38453  20.131  13.354   4.697
66838W        W38454   8.716   3.174  14.275
66839W        W38455  10.088  26.491  10.769
66840W        W38456  18.788   5.434  14.851
66841W        W38457  32.331  34.139  13.798
66842W        W38458  35.545   0.583  13.747
66843W        W38459  16.368   9.412   4.898
66844W        W38460  12.113   9.373  12.074
66845W        W38461  27.543  27.480  14.951
66846W        W38462  16.767  21.053  14.831
66847W        W38463  44.806  10.750  10.641
66848W        W38464  17.208   4.828  11.664
66849W        W38465  31.943  25.459   3.430
66850W        W38466  44.273  29.237   4.219
66851W        W38467  44.256  36.076  10.872
66852W        W38468  40.897  42.555  12.480
66853W        W38469  14.071  22.103   0.387
66854W        W38470   4.164  22.561  10.942
66855W        W38471  28.155  26.006   0.357
66856W        W38472   8.732  42.383   3.726
66857W        W38473  18.514  22.964   3.303
66858W        W38474  20.162  39.704  10.703
66859W        W38475  14.253  43.591   1.340
66860W        W38476  39.945   2.289   0.847
66861W        W38477   0.255  36.582   0.275
66862W        W38478  44.419  11.113  14.304
66863W        W38479  30.885  42.411  14.046
66864W        W38480   5.878  10.116   2.925
66865W        W38481  36.832  13.589  10.238
66866W        W38482  31.211  23.045   0.824
66867W        W38483  40.613  14.734   0.452
66868W        W38484  24.567  19.807  11.601
66869W        W38485  38.258  41.764   3.486
66870W        W38486  14.592  28.983  10.617
66871W        W38487  24.207  43.491   2.886
66872W        W38488  32.111   9.186  12.021
66873W        W38489  38.768  33.903  14.752
66874W        W38490  10.875  14.822   2.836
66875W        W38491  43.131   8.781   3.353
66876W        W38492  40.451   7.626  13.507
66877W        W38493   6.795  14.883  13.988
66878W        W38494   6.912   2.680   2.350
66879W        W38495  36.010  38.889  10.657
66880W        W38496  26.694  31.820  11.917
66881W        W38497  34.074  32.127   3.151
66882W        W38498  40.420  12.905  12.390
66883W        W38499   8.671   9.907  12.690
66884W        W38500  26.472  27.276   0.341
66885W        W38501  30.852  18.055   4.214
66886W        W38502  11.393  14.691   0.697
66887W        W38503  34.172  41.301  14.035
66888W        W38504  15.638   7.043  12.886
66889W        W38505   2.209  19.968   3.306
66890W        W38506  39.259  16.854  13.999
66891W        W38507  30.065  19.108   3.313
66892W        W38508   8.989  35.827   4.953
66893W        W38509  23.882  34.308   0.678
66894W        W38510  26.627  12.955  10.251
66895W        W38511  15.798  44.974   4.756
66896W        W38512  16.999  36.510  11.974
66897W        W38513  39.772  42.535  10.743
66898W        W38514  33.125  32.897  13.306
66899W        W38515  35.297  39.373  11.618
66900W        W38516  35.336  35.437   0.830
66901W        W38517  39.027  34.370  13.792
66902W        W38518  19.602  41.237  13.995
66903W        W38519  17.223  31.327  12.384
66904W        W38520  35.994   5.464   2.313
66905W        W38521  21.181   4.734  11.077
66906W        W38522  29.522  24.260   1.858
66907W        W38523   4.649  12.880   0.768
66908W        W38524  20.933  21.295  12.435
66909W        W38525  40.636   2.727  13.282
66910W        W38526  28.877  24.720   0.892
66911W        W38527   7.281  36.357   1.091
66912W        W38528  31.216   0.451   3.138
66913W        W38529  17.979   4.411   1.752
66914W        W38530  28.712  10.923  14.576
66915W        W38531  25.100  17.771   3.789
66916W        W38532   4.931  14.606  10.287
66917W        W38533  18.789   7.062   5.176
66918W        W38534  13.639  23.708   1.473
66919W        W38535  30.658  33.523  13.429
66920W        W38536  17.536  23.114   2.687
66921W        W38537  15.496  32.114   9.856
66922W        W38538   1.938  33.065  10.685
66923W        W38539  38.950  40.324   1.885
66924W        W38540  27.481  18.682   2.406
66925W        W38541  19.883  16.727  11.218
66926W        W38542  25.294  42.086   0.881
66927W        W38543  24.975   8.739   2.368
66928W        W38544  32.459   5.542   0.853
66929W        W38545  24.121   1.937   5.198
66930W        W38546  19.255   4.991   4.289
66931W        W38547  15.633  28.518  12.807
66932W        W38548  10.717  41.469  10.621
66933W        W38549  11.956  13.738   3.816
66934W        W38550  37.914   9.725   0.323
66935W        W38551  26.059  25.645  11.596
66936W        W38552  29.448  29.927   2.300
66937W        W38553  42.986  16.085   0.514
66938W        W38554  19.154  30.361   4.748
66939W        W38555  19.060  11.916  13.963
66940W        W38556  30.502   6.873   2.761
66941W        W38557  34.846  36.567  13.351
66942W        W38558  21.724  39.348   4.082
66943W        W38559  41.208   1.195  12.141
66944W        W38560  41.097   5.041  11.649
66945W        W38561   2.037  31.349  14.392
66946W        W38562  41.306  41.840  14.795
66947W        W38563  21.726  32.039  14.345
66948W        W38564  24.826  29.663  10.689
66949W        W38565  44.413  26.305   3.572
66950W        W38566  44.812  31.692  12.464
66951W        W38567  30.107   1.947   4.480
66952W        W38568  24.674   1.559   1.868
66953W        W38569  42.055  17.230   4.587
66954W        W38570  10.207   9.189   3.315
66955W        W38571  15.180  26.109  11.519
66956W        W38572  37.051  17.648  11.123
66957W        W38573  26.184  27.415   2.241
66958W        W38574  13.366   9.396   4.621
66959W        W38575  32.945  44.497  14.153
66960W        W38576   1.398  12.846   1.425
66961W        W38577  26.519  31.973   0.831
66962W        W38578  26.444  15.718   4.725
66963W        W38579  29.228  27.210   0.249
66964W        W38580  40.061  15.270  12.463
66965W        W38581  37.035  26.519   1.448
66966W        W38582  32.590  11.439   3.269
66967W        W38583   9.636  12.377   0.951
66968W        W38584  40.616  43.622  12.381
66969W        W38585  15.613   5.407   4.592
66970W        W38586  28.572   8.647  14.091
66971W        W38587  44.221  13.708   2.159
66972W        W38588  16.239  44.447   5.573
66973W        W38589  38.028  14.486  10.998
66974W        W38590  11.879  12.221  11.529
66975W        W38591  33.591  25.276  10.115
66976W        W38592   8.315  44.759   3.244
66977W        W38593  38.769   5.936  13.358
66978W        W38594   7.343  17.049  12.065
66979W        W38595   5.420  26.895   4.192
66980W        W38596  14.174  38.649  12.891
66981W        W38597  43.765  33.971  14.596
66982W        W38598   6.840  35.843   0.453
66983W        W38599  32.160   4.648  11.130
66984W        W38600  32.857   5.609   1.182
66985W        W38601   2.883   4.388  10.785
66986W        W38602  14.203  27.334  11.142
66987W        W38603  31.077  18.818   1.163
66988W        W38604  39.501  28.199  12.148
66989W        W38605   8.648  20.585   1.298
66990W        W38606  31.372  35.783   2.650
66991W        W38607  16.157  24.239  14.344
66992W        W38608   1.160  15.741   2.878
66993W        W38609  15.331   9.206  12.103
66994W        W38610  35.589  31.977   4.554
66995W        W38611   4.664  22.584   4.483
66996W        W38612  25.548  32.139  13.571
66997W        W38613  34.397   1.414   9.853
66998W        W38614  33.015  28.946   0.272
66999W        W38615   5.089  19.298   0.432
67000W        W38616  31.070  24.216   1.411
67001W        W38617  10.696  15.202  14.236
67002W        W38618  38.673  18.316  13.910
67003W        W38619  24.633   2.903  14.854
67004W        W38620   8.365  24.656   4.372
67005W        W38621   2.289  34.490   3.733
67006W        W38622   7.282  42.259  14.283
67007W        W38623  29.816  38.495  14.311
67008W        W38624  28.032  22.948   3.120
67009W        W38625   9.406  31.838  11.967
67010W        W38626   5.250   0.036  13.854
67011W        W38627  40.999  41.917   1.621
67012W        W38628  43.063  30.422   3.898
67013W        W38629  27.153  37.756  12.194
67014W        W38630  23.184  10.281  10.955
67015W        W38631   5.494   2.334   0.822
67016W        W38632   9.455   3.382   4.642
67017W        W38633  33.888  21.795   3.392
67018W        W38634   4.332  17.503  12.177
67019W        W38635  13.226  25.271  11.996
67020W        W38636  21.889   4.191   0.988
67021W        W38637  20.222   3.993   2.261
67022W        W38638  10.472  42.832  12.747
67023W        W38639  11.531  27.172   1.589
67024W        W38640  15.340  30.673  14.368
67025W        W38641   8.368  44.410   4.622
67026W        W38642  38.050  18.232   4.215
67027W        W38643   9.971  13.538   4.719
67028W        W38644  32.375   8.527   1.889
67029W        W38645  29.224  38.852   3.685
67030W        W38646  29.671   9.140  10.702
67031W        W38647  32.599   1.010  10.677
67032W        W38648  33.846  23.763  13.335
67033W        W38649  30.923   6.199  13.067
67034W        W38650   9.807  10.814   3.203
67035W        W38651   4.452  12.204  14.030
67036W        W38652  41.251  39.078  12.943
67037W        W38653  24.732   6.855  11.583
67038W        W38654  34.596  36.126  12.993
67039W        W38655   0.741  22.558   4.992
67040W        W38656  36.388  43.369  13.580
67041W        W38657  16.073  33.547  12.159
67042W        W38658  31.157  42.953  14.337
67043W        W38659  12.076  13.179  12.810
67044W        W38660   6.672   6.486   0.658
67045W        W38661  31.477   6.929   1.483
67046W        W38662   4.817  28.046  11.621
67047W        W38663  20.633   2.432   2.782
67048W        W38664  14.609  44.799  11.690
67049W        W38665  44.339  15.850   4.721
67050W        W38666  23.048  28.036   1.418
67051W        W38667  33.107  44.327   4.535
67052W        W38668  13.479  12.727   3.384
67053W        W38669  31.663  37.999  13.451
67054W        W38670  20.615  17.123  10.606
67055W        W38671  13.735  41.993  10.731
67056W        W38672  29.235  31.492   3.260
67057W        W38673  27.207   9.200   2.207
67058W        W38674   9.456  37.714   4.037
67059W        W38675  23.983   4.633  12.895
67060W        W38676  44.245  25.063  12.786
67061W        W38677  12.311   3.317  10.829
67062W        W38678  37.459   5.192   2.195
67063W        W38679  43.396   5.835  13.869
67064W        W38680   8.905  28.617  11.348
67065W        W38681  32.931  33.042   2.619
67066W        W38682   0.553  41.245   4.887
67067W        W38683   1.404  30.712   0.406
67068W        W38684  24.973  13.871  11.908
67069W        W38685  23.543  31.934   3.214
67070W        W38686  37.581  24.153  14.216
67071W        W38687   9.633   6.434   4.840
67072W        W38688   9.400  42.356  14.477
67073W        W38689  41.124   6.865   3.584
67074W        W38690  26.948  38.314  12.949
67075W        W38691   9.833  15.726   2.239
67076W        W38692  19.213  28.887  11.974
67077W        W38693  13.673  44.719   2.183
67078W        W38694  12.195   5.287  12.869
67079W        W38695  32.470  26.158   3.183
67080W        W38696  31.081  29.645   3.746
67081W        W38697  17.753   2.199   3.471
67082W        W38698  34.701  33.492  10.227
67083W        W38699   4.478  24.887   0.713
67084W        W38700  42.404  19.216  12.314
67085W        W38701   4.345  21.265   4.279
67086W        W38702  19.645  15.141  14.755
67087W        W38703  16.747  40.605  13.915
67088W        W38704   3.252  26.571  10.776
67089W        W38705   8.796  15.505   4.130
67090W        W38706   9.524  29.553   4.686
67091W        W38707  32.104  17.467   1.360
67092W        W38708   9.877  17.622   1.311
67093W        W38709  25.240  37.924   3.262
67094W        W38710   5.780  25.634   4.843
67095W        W38711  24.847   8.364  12.767
67096W        W38712   2.433  31.380   4.229
67097W        W38713   9.958  10.208   4.708
67098W        W38714   8.217  27.641   3.615
67099W        W38715  43.495  41.560  12.182
67100W        W38716  25.236  30.981   2.151
67101W        W38717  33.119  33.913  12.426
67102W        W38718  37.453   8.368   3.266
67103W        W38719   0.465   0.738   1.331
67104W        W38720   1.727  29.051  14.344
67105W        W38721  40.841  15.679   1.396
67106W        W38722  10.794  44.716   3.678
67107W        W38723  23.085  43.827  13.969
67108W        W38724  36.024  22.463  14.410
67109W        W38725  19.542  34.172   1.859
67110W        W38726  42.272  41.212  12.069
67111W        W38727  17.655  33.392  13.687
67112W        W38728  24.666  15.819   0.342
67113W        W38729   9.069  44.391  13.548
67114W        W38730   2.281   6.063   3.506
67115W        W38731  29.372  15.150   2.806
67116W        W38732  26.126   1.460  10.640
67117W        W38733  35.024  40.805  14.319
67118W        W38734  29.944  15.428  11.362
67119W        W38735  20.013  26.554   3.499
67120W        W38736  41.797   6.265   2.557
67121W        W38737  26.692  21.708   3.292
67122W        W38738  29.482  16.102  14.262
67123W        W38739  14.505  35.598  12.521
67124W        W38740  15.560  29.284   2.790
67125W        W38741  12.839  42.883   0.655
67126W        W38742  40.902  30.497   3.253
67127W        W38743  24.067  25.666   0.728
67128W        W38744  17.106  30.208  13.033
67129W        W38745   2.705  24.116   3.305
67130W        W38746  37.859  30.594  11.126
67131W        W38747  31.143   6.190  14.043
67132W        W38748  35.151   8.450   4.106
67133W        W38749  30.637  25.204  12.881
67134W        W38750  23.590   9.756  10.911
67135W        W38751  30.175  10.255  11.861
67136W        W38752  42.348  36.785  10.714
67137W        W38753  19.185   4.700   1.956
67138W        W38754  13.828  20.229  11.350
67139W        W38755  36.442  13.821  14.791
67140W        W38756  44.366  15.702  14.844
67141W        W38757  15.075  12.177   4.367
67142W        W38758  12.193  32.400   1.280
67143W        W38759  21.133   8.344  10.716
67144W        W38760  13.251   3.152   2.268
67145W        W38761  29.474   0.908  12.885
67146W        W38762   4.640   5.292   1.932
67147W        W38763  27.300  37.269   3.669
67148W        W38764  36.780   1.713   3.211
67149W        W38765   4.192  36.122   1.415
67150W        W38766  10.603  17.275  11.543
67151W        W38767   0.018   1.717   0.917
67152W        W38768  40.456  14.648   0.943
67153W        W38769  14.339  11.721  10.790
67154W        W38770  40.494  36.423   3.758
67155W        W38771  44.873  39.395  14.478
67156W        W38772  40.940  38.059  15.000
67157W        W38773  23.751  38.884   1.356
67158W        W38774   4.650   4.234   4.552
67159W        W38775  21.052  16.697   0.331
67160W        W38776  13.063  36.373  12.868
67161W        W38777   1.974  42.456   1.684
67162W        W38778  27.990  31.226  11.098
67163W        W38779   8.413  10.416  11.923
67164W        W38780  15.813  29.495  12.978
67165W        W38781  42.575  30.455   4.586
67166W        W38782   0.252  21.138   3.596
67167W        W38783   7.662  26.211   1.810
67168W        W38784  12.782  10.435   0.704
67169W        W38785  26.395   4.449   1.731
67170W        W38786  39.934  13.726   4.950
67171W        W38787  28.985  13.559  13.864
67172W        W38788   3.931  42.837  14.774
67173W        W38789  35.988  33.500   4.174
67174W        W38790  17.084  19.186   2.326
67175W        W38791   5.795  29.350   3.492
67176W        W38792  24.123   2.850  13.863
67177W        W38793  16.107  33.485  10.619
67178W        W38794  19.400  21.603   0.213
67179W        W38795  24.449  27.314   2.929
67180W        W38796  18.324  35.047   0.217
67181W        W38797  12.922  19.504  12.356
67182W        W38798  21.612   8.163  13.076
67183W        W38799  17.281  32.048   9.899
67184W        W38800  41.886  15.861   5.133
67185W        W38801  28.510  42.569   4.213
67186W        W38802  15.270  11.348   1.756
67187W        W38803  44.111   1.775  10.221
67188W        W38804  44.758  13.674  11.209
67189W        W38805  35.625  37.327   0.420
67190W        W38806  23.469   6.665   0.957
67191W        W38807  28.005  39.093  13.950
67192W        W38808   6.888  21.713  12.918
67193W        W38809  36.406  42.238   2.382
67194W        W38810  38.029   6.264  14.405
67195W        W38811   7.239  37.722  13.823
67196W        W38812  30.695   0.690   0.769
67197W        W38813   2.944  35.022   1.809
67198W        W38814  30.460   4.823   4.550
67199W        W38815  34.506  27.974  13.316
67200W        W38816  21.281  27.197  12.861
67201W        W38817  42.411  28.501  14.069
67202W        W38818  34.370  11.093  10.992
67203W        W38819  44.251  28.942  13.959
67204W        W38820  32.901   9.345  14.616
67205W        W38821  36.194  29.106  13.794
67206W        W38822  26.850   2.427   0.106
67207W        W38823   5.492  35.701   0.407
67208W        W38824  12.417  30.895  14.476
67209W        W38825  34.470  20.343   1.752
67210W        W38826  12.092   8.262   1.827
67211W        W38827  35.516   6.912  14.951
67212W        W38828  15.562  31.505  14.769
67213W        W38829  14.597   2.467   4.553
67214W        W38830  36.499  31.965   4.643
67215W        W38831  42.356  35.570  13.586
67216W        W38832  26.787  37.073   2.219
67217W        W38833  42.328  38.976  14.239
67218W        W38834   6.325  22.750   0.495
67219W        W38835  42.582  16.166  10.753
67220W        W38836   1.335  40.581   4.070
67221W        W38837  37.325  22.318  10.726
67222W        W38838  29.970   9.711   0.558
67223W        W38839  27.396  42.911   0.313
67224W        W38840   2.245   1.497  10.179
67225W        W38841  16.683  13.157   1.942
67226W        W38842   8.864  30.189  13.451
67227W        W38843  12.496  15.329   2.212
67228W        W38844  20.188  16.472   0.356
67229W        W38845   6.931   3.254   0.853
67230W        W38846  23.576  15.659  13.068
67231W        W38847  15.096   0.440   1.266
67232W        W38848   6.331   7.263   2.828
67233W        W38849  23.061   7.637   3.259
67234W        W38850  20.643  40.595  14.849
67235W        W38851  24.508  31.340   4.422
67236W        W38852   5.019   5.270  10.793
67237W        W38853  41.662   1.286   2.305
67238W        W38854  13.655  12.199  12.599
67239W        W38855  17.282  43.486   0.848
67240W        W38856  10.468  37.349  11.506
67241W        W38857  41.285   2.473  14.334
67242W        W38858   2.456  42.485  11.057
67243W        W38859  35.631  28.126  14.279
67244W        W38860   2.734  18.748   4.747
67245W        W38861  42.072  44.435  12.927
67246W        W38862  19.074  29.483   4.525
67247W        W38863  20.804  11.625  11.145
67248W        W38864  17.509   4.763   2.237
67249W        W38865  12.304   0.316   4.697
67250W        W38866  11.227  30.537   4.341
67251W        W38867   8.238  11.983   1.795
67252W        W38868   0.951   4.624  12.998
67253W        W38869  17.811  24.589  10.754
67254W        W38870  39.536  44.340  13.978
67255W        W38871  40.880  44.229   0.108
67256W        W38872   5.428  31.868  11.537
67257W        W38873  39.295  39.510  14.291
67258W        W38874  25.781  16.916  10.370
67259W        W38875  22.786  26.092   0.924
67260W        W38876  38.911   7.887   4.607
67261W        W38877  16.251  32.613  11.115
67262W        W38878  15.842  28.658  10.517
67263W        W38879   1.216  12.158  13.181
67264W        W38880  20.125   3.397  11.814
67265W        W38881  29.076  11.936   2.377
67266W        W38882  21.998  26.561   1.369
67267W        W38883  44.338  39.022   0.247
67268W        W38884   4.985  21.513   4.052
67269W        W38885  15.149  43.856  10.655
67270W        W38886  32.538  21.703   3.165
67271W        W38887  18.036  23.933  14.074
67272W        W38888  11.301  26.382   3.422
67273W        W38889  38.498  31.621  12.560
67274W        W38890   9.821   1.406  10.429
67275W        W38891  39.055  16.133  12.337
67276W        W38892   8.819  10.211  13.098
67277W        W38893  12.735   1.127  12.992
67278W        W38894  34.381  13.872   1.837
67279W        W38895   1.725  11.785  13.757
67280W        W38896  26.080   4.021   2.349
67281W        W38897  33.874   5.757  14.305
67282W        W38898  10.945  17.637  10.682
67283W        W38899  18.729   5.291  10.843
67284W        W38900   0.415  18.519   1.430
67285W        W38901  19.298   9.172   0.355
67286W        W38902  20.015  19.289   3.382
67287W        W38903  38.413  33.836   1.398
67288W        W38904  42.148   6.389   1.169
67289W        W38905   1.485  11.174  13.489
67290W        W38906  17.065   5.505  13.378
67291W        W38907  23.786   5.801  12.494
67292W        W38908  27.021  38.840   1.417
67293W        W38909  24.037  12.931   1.214
67294W        W38910  16.099  38.585  12.038
67295W        W38911  42.098   3.399  10.731
67296W        W38912   3.219  18.241  12.815
67297W        W38913  39.382   5.707  14.514
67298W        W38914  38.744  10.167  11.715
67299W        W38915  11.102   5.208   4.112
67300W        W38916  43.643  31.073  13.185
67301W        W38917  36.152  30.613  11.505
67302W        W38918  38.643  29.132   4.373
67303W        W38919  43.220  41.445  11.221
67304W        W38920  39.044  19.731  11.989
67305W        W38921  20.988  28.032   0.881
67306W        W38922  42.497  27.569  11.598
67307W        W38923  11.374  37.132  12.068
67308W        W38924  44.677   7.492  12.480
67309W        W38925  25.120   9.123   1.305
67310W        W38926  17.564  13.660   2.709
67311W        W38927  20.463  29.134  13.822
67312W        W38928   0.726  10.403  13.016
67313W        W38929  24.202  22.133  14.999
67314W        W38930  20.806  13.763   3.798
67315W        W38931   9.779  37.353   4.266
67316W        W38932   7.682  22.351  11.734
67317W        W38933  34.937  21.521  11.414
67318W        W38934  23.436  43.906  13.103
67319W        W38935  18.749  21.594   0.236
67320W        W38936   4.450  19.083   1.228
67321W        W38937  29.437   8.267  11.870
67322W        W38938  16.064  14.300   3.709
67323W        W38939  42.310  10.124   0.712
67324W        W38940  22.449  21.204   0.523
67325W        W38941  14.708  33.387   0.280
67326W        W38942  41.929  43.321  11.499
67327W        W38943   1.264  13.341  14.550
67328W        W38944  24.248   5.438   2.848
67329W        W38945  10.392  19.255  11.588
67330W        W38946  34.413  39.321   0.428
67331W        W38947  34.119  11.609  11.681
67332W        W38948  17.233  43.223   0.411
67333W        W38949   2.757   6.942  14.161
67334W        W38950  25.176  25.547  11.704
67335W        W38951   4.155  13.167   1.681
67336W        W38952  40.890  28.359   3.627
67337W        W38953  32.432  26.269  14.597
67338W        W38954  20.641   4.633  13.806
67339W        W38955  41.497  41.900  13.902
67340W        W38956  21.224  31.549   3.213
67341W        W38957  26.961  37.353  13.008
67342W        W38958  36.798   1.871  14.985
67343W        W38959  10.049  38.951   3.367
67344W        W38960  34.320  32.651   3.904
67345W        W38961   7.423  20.749   3.704
67346W        W38962  18.729  24.944   3.305
67347W        W38963  21.544  35.306   2.490
67348W        W38964  43.790  13.509   4.364
67349W        W38965   2.826  43.499  13.571
67350W        W38966  37.329  20.148   1.455
67351W        W38967  35.167  15.206   1.565
67352W        W38968  28.746  29.448  13.313
67353W        W38969   6.877  20.143  13.908
67354W        W38970  24.771  10.714   0.779
67355W        W38971  39.756   3.237  10.707
67356W        W38972  19.581   2.560  11.114
67357W        W38973  22.608   3.927   4.967
67358W        W38974  16.207  25.728  12.986
67359W        W38975  30.986  12.343  12.052
67360W        W38976  12.838   5.642   4.197
67361W        W38977  16.855  38.887  10.745
67362W        W38978  32.070  30.635   3.875
67363W        W38979  16.480  15.745   0.049
67364W        W38980   9.853  27.548  13.804
67365W        W38981  31.215  28.630  14.762
67366W        W38982  12.814   9.603  12.041
67367W        W38983   2.371  32.148  11.712
67368W        W38984  18.456   1.342   1.522
67369W        W38985  25.521  39.527  14.726
67370W        W38986  19.638   2.200   1.035
67371W        W38987   3.920  36.998   3.775
67372W        W38988  41.511  44.411   3.771
67373W        W38989  14.337  28.678   0.875
67374W        W38990   5.551  30.017   1.739
67375W        W38991  38.452  14.555  12.942
67376W        W38992  15.709  13.388  10.744
67377W        W38993  32.079  17.395  14.507
67378W        W38994  41.888  11.849   0.998
67379W        W38995   8.374  14.543   2.276
67380W        W38996  35.732  19.700  11.042
67381W        W38997   1.143  44.515  12.871
67382W        W38998  33.044  21.464  14.897
67383W        W38999  11.080  27.372   4.201
67384W        W39000  28.177  25.589  11.614
67385W        W39001  20.032  13.972  11.043
67386W        W39002  23.325   8.718   1.089
67387W        W39003  43.490  15.329   3.770
67388W        W39004  40.635   1.349   0.347
67389W        W39005  13.784  42.647  13.103
67390W        W39006  17.655  17.686  10.957
67391W        W39007  18.559  39.575   0.873
67392W        W39008  34.401  15.558  12.574
67393W        W39009  43.282   6.919  10.610
67394W        W39010  26.615  10.824  10.689
67395W        W39011  31.012  18.093  14.827
67396W        W39012   0.642  21.247   4.031
67397W        W39013  15.565  28.211  13.491
67398W        W39014   6.040  15.274   1.827
67399W        W39015  12.054  43.405   1.694
67400W        W39016  33.848  20.154  11.566
67401W        W39017  30.428  38.023  10.477
67402W        W39018   8.238  21.676   0.296
67403W        W39019  41.446  32.030  13.449
67404W        W39020  17.933  18.831   1.485
67405W        W39021  37.924  24.257   3.206
67406W        W39022  16.160  34.407  14.926
67407W        W39023  41.482  11.045  10.732
67408W        W39024   8.093   0.053  11.106
67409W        W39025  29.052   0.305   2.711
67410W        W39026   3.869  17.845  12.916
67411W        W39027   4.915   4.826  13.312
67412W        W39028  21.074  37.933  14.537
67413W        W39029  19.143  44.786   4.602
67414W        W39030  33.922  12.641   4.508
67415W        W39031   9.833  16.222  12.377
67416W        W39032  19.661   7.058   2.326
67417W        W39033  15.840  30.743   3.737
67418W        W39034  24.502  16.370   2.469
67419W        W39035  27.499  31.066  11.193
67420W        W39036  22.615  20.719  11.178
67421W        W39037  29.835  21.335   4.190
67422W        W39038  12.138  25.219  12.920
67423W        W39039  18.336  44.282   0.403
67424W        W39040   2.466  17.282  12.440
67425W        W39041   5.292  21.630   1.233
67426W        W39042  17.639  42.426   1.461
67427W        W39043  36.606   9.971   4.187
67428W        W39044  38.491  25.241  10.677
67429W        W39045  26.599   9.133   4.369
67430W        W39046  39.022  34.947   4.673
67431W        W39047  25.553   8.849  10.573
67432W        W39048  25.714   0.577   1.127
67433W        W39049   0.880  42.527  11.981
67434W        W39050  34.150  34.038  14.397
67435W        W39051  28.724  14.730   2.292
67436W        W39052  39.005   3.661  11.449
67437W        W39053  30.989  16.505   3.775
67438W        W39054   2.427  24.348   2.953
67439W        W39055  36.331  37.033   1.189
67440W        W39056  24.523   7.948  12.766
67441W        W39057   3.409  21.129   1.746
67442W        W39058  24.488  38.676   4.039
67443W        W39059  39.011  22.155   2.611
67444W        W39060  38.858  12.112   2.336
67445W        W39061  11.127  25.545  13.468
67446W        W39062  23.239  14.351  13.356
67447W        W39063  17.265  12.953   4.476
67448W        W39064   1.301  33.911   1.418
67449W        W39065  37.201  23.779  10.097
67450W        W39066  35.925  13.867   2.728
67451W        W39067   1.113  42.958   1.361
67452W        W39068   7.631  28.174   3.395
67453W        W39069  27.302   1.858   1.988
67454W        W39070  10.356  21.637  11.663
67455W        W39071  26.229   8.733   3.448
67456W        W39072  14.716  38.507   4.878
67457W        W39073  17.758  44.228  10.624
67458W        W39074   1.353  34.556   3.437
67459W        W39075  37.413  26.796   0.550
67460W        W39076  34.465  13.140  13.751
67461W        W39077  35.609  16.604   1.738
67462W        W39078  22.005  43.998   3.615
67463W        W39079  44.175  16.339   3.662
67464W        W39080  44.274  41.532   4.250
67465W        W39081  26.595  24.834   0.007
67466W        W39082  40.299  38.563   0.359
67467W        W39083  25.943   4.754   0.417
67468W        W39084  18.765  16.228  14.782
67469W        W39085  39.601  38.939  13.499
67470W        W39086  30.547   6.361   1.357
67471W        W39087   8.919  22.308   2.849
67472W        W39088  10.829  17.040   1.595
67473W        W39089  10.910   1.294   0.750
67474W        W39090  22.494  34.030   4.230
67475W        W39091  35.607  11.576  14.380
67476W        W39092  38.918  22.168   4.528
67477W        W39093  40.454   0.804   2.367
67478W        W39094  32.531  28.698   4.918
67479W        W39095  12.865   0.803  11.071
67480W        W39096  30.583  25.457   3.213
67481W        W39097  32.564  21.743  12.109
67482W        W39098  19.769  12.945  13.297
67483W        W39099  17.705   0.262  10.612
67484W        W39100  11.928   1.689  10.274
67485W        W39101   6.834   3.033   4.108
67486W        W39102  34.528  17.727  13.603
67487W        W39103  34.401  22.215   0.920
67488W        W39104  21.613  27.495   4.576
67489W        W39105  28.542  18.342  11.856
67490W        W39106   3.931  27.601  11.332
67491W        W39107   9.765  26.139  13.533
67492W        W39108   7.370   2.846  11.808
67493W        W39109  38.306  38.090  11.191
67494W        W39110  37.682   5.002  13.860
67495W        W39111   4.915  34.157  11.621
67496W        W39112  26.032  16.130  14.734
67497W        W39113  15.183  44.246   3.628
67498W        W39114  38.565   3.397   2.724
67499W        W39115  43.586  22.548  11.533
67500W        W39116   8.507   7.369   4.387
67501W        W39117   0.331  35.526   2.261
67502W        W39118  17.502  33.358   0.073
67503W        W39119  44.824  27.658   0.276
67504W        W39120  32.924  17.579  13.109
67505W        W39121   6.229  28.698  12.521
67506W        W39122  12.203  36.357   0.889
67507W        W39123   6.312  30.021   2.343
67508W        W39124  33.112   6.815  12.744
67509W        W39125  44.712  36.661  12.516
67510W        W39126  39.379   3.734   1.288
67511W        W39127  43.926   9.057   1.894
67512W        W39128   7.568  24.197  13.970
67513W        W39129  13.650  42.296  11.190
67514W        W39130  36.518  32.177  13.443
67515W        W39131  34.606  27.258   1.251
67516W        W39132  27.075  40.895   1.206
67517W        W39133  40.179   1.776   2.615
67518W        W39134   7.513  32.651   4.275
67519W        W39135  24.648   1.724   2.413
67520W        W39136  33.042  31.948   0.433
67521W        W39137  17.380  44.693  13.899
67522W        W39138   2.220  35.927   4.566
67523W        W39139  38.832   2.845  11.067
67524W        W39140  39.464   3.483   0.838
67525W        W39141  12.170  44.281   2.613
67526W        W39142  17.206  36.973   0.494
67527W        W39143  41.819  29.966   0.020
67528W        W39144  12.206  17.293  11.614
67529W        W39145   8.829  37.324   1.976
67530W        W39146  41.453   3.053   0.433
67531W        W39147  41.795  35.117   3.728
67532W        W39148  35.221  12.691  13.470
67533W        W39149  42.080  22.212  12.958
67534W        W39150   5.840  23.424  14.773
67535W        W39151  28.691  30.109   5.523
67536W        W39152  42.089  12.456  14.395
67537W        W39153  36.312  29.026  11.908
67538W        W39154  22.513  41.508   0.694
67539W        W39155  41.028  41.870   3.645
67540W        W39156  35.865  14.308  13.991
67541W        W39157   4.028  22.575  14.735
67542W        W39158  32.936   3.338   1.471
67543W        W39159  15.898  42.633   1.680
67544W        W39160  34.623  29.922  13.370
67545W        W39161  14.323  40.341  12.634
67546W        W39162  18.637   3.406   1.900
67547W        W39163  41.892  29.104   4.161
67548W        W39164   5.673  44.231   1.647
67549W        W39165  13.536  33.898   1.129
67550W        W39166  12.195   9.710   2.257
67551W        W39167  25.655  14.092  13.880
67552W        W39168   8.309  10.936  14.510
67553W        W39169  32.959  30.880   3.269
67554W        W39170  27.164   1.514  12.803
67555W        W39171  44.034  12.284  13.009
67556W        W39172   5.365  30.521   3.678
67557W        W39173   9.338  31.777   5.019
67558W        W39174  14.839  21.068  12.593
67559W        W39175  27.663   4.711  14.692
67560W        W39176   6.232  11.360  14.775
67561W        W39177  22.083  44.510   0.502
67562W        W39178  43.809   5.561   3.910
67563W        W39179  29.516  28.163   4.613
67564W        W39180  11.045  14.777  13.448
67565W        W39181  44.283   2.293   4.975
67566W        W39182  30.983  41.270  10.770
67567W        W39183  38.452  15.323   0.478
67568W        W39184  42.558   1.737   3.348
67569W        W39185   4.525  26.896   0.069
67570W        W39186  15.644   4.504   1.739
67571W        W39187  22.867  23.604  11.959
67572W        W39188   9.599  12.681  10.783
67573W        W39189  39.965  37.942   4.179
67574W        W39190  22.153   2.934  12.925
67575W        W39191  43.491   9.269  13.955
67576W        W39192   6.716  11.772  11.854
67577W        W39193  13.136  33.026   0.880
67578W        W39194  10.892   7.361   1.857
67579W        W39195   9.887  25.699   1.275
67580W        W39196  24.958  41.077   3.254
67581W        W39197  13.813   9.713   2.756
67582W        W39198  16.006  22.740  13.557
67583W        W39199   2.744  43.988  13.416
67584W        W39200  43.005   2.754   2.387
67585W        W39201  22.951  24.768   0.453
67586W        W39202  32.874  21.831   2.775
67587W        W39203   6.814  22.157  10.753
67588W        W39204  42.101   7.841   1.889
67589W        W39205   8.433  32.945   0.532
67590W        W39206  34.290  31.855   0.495
67591W        W39207   5.882   9.653   2.389
67592W        W39208  14.087  13.526  12.023
67593W        W39209  27.013  39.255   4.553
67594W        W39210  29.873  43.255   4.500
67595W        W39211  42.744  32.027  14.108
67596W        W39212  42.321   2.493  13.421
67597W        W39213  44.186  36.929  11.937
67598W        W39214  14.622  41.208   0.217
67599W        W39215  23.551  18.544   4.531
67600W        W39216  27.743  27.666  13.493
67601W        W39217   4.244  28.561  12.080
67602W        W39218  29.017  37.854  10.379
67603W        W39219   9.614  42.428   1.911
67604W        W39220  12.709  10.375  12.435
67605W        W39221  41.211  13.043  11.133
67606W        W39222  28.503  16.630   4.127
67607W        W39223  44.525  39.460  13.773
67608W        W39224   9.154  12.371  14.335
67609W        W39225  20.539  37.547   4.947
67610W        W39226  29.474   1.874   5.023
67611W        W39227  15.702  14.831   4.393
67612W        W39228  28.634  29.148   4.639
67613W        W39229  29.006  10.670   3.775
67614W        W39230  11.275   6.819  11.175
67615W        W39231   8.313  38.375   0.978
67616W        W39232  38.101  28.977   0.421
67617W        W39233  29.534   4.377  11.973
67618W        W39234  26.182   5.400  11.741
67619W        W39235  31.863  39.507   4.099
67620W        W39236   7.858  14.611   4.420
67621W        W39237  24.564  26.109   4.241
67622W        W39238  29.706  32.593   2.326
67623W        W39239  16.572  28.501   2.769
67624W        W39240  11.326  22.552  13.721
67625W        W39241  30.163  19.163   1.209
67626W        W39242  43.819  15.569  12.970
67627W        W39243  14.534  33.026  12.615
67628W        W39244   1.878  22.805   3.562
67629W        W39245  27.509   6.438   1.212
67630W        W39246  25.742   6.388   3.771
67631W        W39247  39.919   2.264  14.760
67632W        W39248  13.156  26.331  11.100
67633W        W39249  42.947   4.957   3.605
67634W        W39250  25.543  30.418  11.717
67635W        W39251  27.774   3.878  11.964
67636W        W39252  29.946  15.032   2.738
67637W        W39253   8.678   1.465   4.120
67638W        W39254  40.001  35.538   1.351
67639W        W39255  31.691   3.777   2.132
67640W        W39256  44.521  10.884   2.872
67641W        W39257  42.279  12.271  13.947
67642W        W39258  39.694  10.701   5.452
67643W        W39259  17.508   1.451  12.934
67644W        W39260   2.882   4.864   4.437
67645W        W39261  37.393  28.091  11.592
67646W        W39262   1.380  22.417  11.474
67647W        W39263  35.539  38.558   4.651
67648W        W39264   2.288   4.503  12.526
67649W        W39265   9.669  23.464   4.681
67650W        W39266  22.243  15.471  10.896
67651W        W39267  39.617  13.601   4.542
67652W        W39268  33.090  32.391   0.126
67653W        W39269  28.929  21.400  10.175
67654W        W39270  28.190  30.110   3.690
67655W        W39271  26.485  41.565  13.240
67656W        W39272  38.527   2.035   1.883
67657W        W39273  38.142  38.982  13.045
67658W        W39274  44.373  16.171   3.178
67659W        W39275  24.612  26.421   0.751
67660W        W39276  38.030  25.652   1.994
67661W        W39277  28.243  32.858   3.692
67662W        W39278  26.547  27.977  14.815
67663W        W39279  21.530  19.551  13.003
67664W        W39280  34.006   7.118  13.103
67665W        W39281  44.239  33.578   4.602
67666W        W39282   1.958  42.459  12.708
67667W        W39283  40.195  43.351   2.995
67668W        W39284  42.355   6.377  10.626
67669W        W39285  11.671  40.616  12.575
67670W        W39286  29.394   9.228   1.608
67671W        W39287  36.542  39.026   4.635
67672W        W39288  27.182   2.566  14.744
67673W        W39289  10.648  29.645   4.536
67674W        W39290   3.039  19.289   2.834
67675W        W39291  13.593  33.526  13.123
67676W        W39292  20.514  14.305  14.564
67677W        W39293  42.417  38.420   5.658
67678W        W39294  12.211  18.715  14.466
67679W        W39295  41.275  43.538  11.934
67680W        W39296  25.612   7.970   1.456
67681W        W39297  24.638  35.613   2.347
67682W        W39298   6.669   7.181  10.506
67683W        W39299   8.987  41.486   4.148
67684W        W39300   3.823  11.199  13.322
67685W        W39301  15.587  21.380  11.307
67686W        W39302  24.094  21.746   4.691
67687W        W39303  27.049   9.641   3.707
67688W        W39304  10.825  33.394  12.546
67689W        W39305  34.370  34.974  11.094
67690W        W39306  26.978  38.471  11.212
67691W        W39307   4.699  38.083   3.127
67692W        W39308  39.743   2.104  13.045
67693W        W39309  43.653  41.876  11.629
67694W        W39310  23.453  33.032  14.235
67695W        W39311   5.806   9.934   3.849
67696W        W39312  33.152  12.289   4.570
67697W        W39313  32.978  27.077   0.659
67698W        W39314   6.476  40.863  13.934
67699W        W39315  24.869  18.764   1.307
67700W        W39316  20.927  43.985   1.339
67701W        W39317  34.899  19.695   4.913
67702W        W39318  43.486  22.318  14.220
67703W        W39319   6.444  38.417  14.557
67704W        W39320  29.074  17.214   2.705
67705W        W39321  24.553  11.812  14.929
67706W        W39322   7.784  19.281   1.904
67707W        W39323  38.701  41.961  11.277
67708W        W39324  27.117  21.436  12.954
67709W        W39325   8.726  12.079  14.289
67710W        W39326  19.168  36.932  13.358
67711W        W39327  29.013  34.194  10.697
67712W        W39328   1.953  30.180   2.855
67713W        W39329  13.788  13.107   0.894
67714W        W39330  28.575  43.806   0.817
67715W        W39331   4.648  44.940  10.764
67716W        W39332  32.937  19.568  10.482
67717W        W39333   6.651   9.627  11.110
67718W        W39334   9.201  12.267   4.130
67719W        W39335   5.583  37.998  13.216
67720W        W39336  36.608  44.210   4.796
67721W        W39337  41.810   8.210   4.113
67722W        W39338  37.570   4.918  11.159
67723W        W39339  30.710  28.719  12.957
67724W        W39340  34.943  35.752   0.831
67725W        W39341  22.262  27.679  11.037
67726W        W39342   1.795  44.282  14.065
67727W        W39343  43.507   1.424   3.216
67728W        W39344  26.977  11.425  11.580
67729W        W39345  36.996  39.621   1.535
67730W        W39346  12.675   7.625   4.975
67731W        W39347  16.140   2.431   1.730
67732W        W39348  22.265  12.312   1.754
67733W        W39349   0.411   7.994  14.583
67734W        W39350  33.600  38.019  13.400
67735W        W39351  23.297  36.994  14.315
67736W        W39352  11.215  32.005  11.558
67737W        W39353  21.090  30.179  14.476
67738W        W39354   5.888   1.798   3.611
67739W        W39355   9.804  25.091  11.086
67740W        W39356  34.460  29.614   1.755
67741W        W39357  34.511  23.195  11.299
67742W        W39358   2.852  34.669   2.553
67743W        W39359  44.191  16.022   1.220
67744W        W39360   2.201  37.023   4.779
67745W        W39361  11.707   4.758   0.880
67746W        W39362  15.622  17.083   2.131
67747W        W39363  27.502  21.920   2.522
67748W        W39364  27.043  15.265  10.745
67749W        W39365  44.086  22.934  14.072
67750W        W39366  26.029  34.826   3.637
67751W        W39367  10.083  11.050  11.607
67752W        W39368  23.827  11.690   2.790
67753W        W39369   1.483  32.074   1.657
67754W        W39370   0.337   5.882   0.759
67755W        W39371  31.257   0.983   3.901
67756W        W39372  17.135  25.574  12.283
67757W        W39373   9.344  21.107  11.144
67758W        W39374  40.989  31.964  14.040
67759W        W39375  36.986  17.816   0.909
67760W        W39376  34.447   7.540   0.352
67761W        W39377  23.041   9.624   2.399
67762W        W39378  33.349  22.808   1.754
67763W        W39379  39.161  26.072  10.048
67764W        W39380  34.822  35.194  13.475
67765W        W39381  12.254  32.804  13.922
67766W        W39382   3.805  36.413  12.711
67767W        W39383  44.917  11.578  13.477
67768W        W39384   8.785  24.420  11.702
67769W        W39385  19.736  44.322   0.702
67770W        W39386   9.451  12.654   1.366
67771W        W39387   4.315  43.673   4.163
67772W        W39388  41.921  10.778  12.089
67773W        W39389  27.627  34.462  11.895
67774W        W39390  19.611   7.258  11.737
67775W        W39391   3.425  38.948   2.300
67776W        W39392  17.689  42.498   1.970
67777W        W39393  28.739  30.657   4.168
67778W        W39394  18.303  16.813   2.597
67779W        W39395  31.534  19.151   1.342
67780W        W39396   1.810  27.183  11.859
67781W        W39397  40.340  26.003  13.571
67782W        W39398  27.073  42.297  10.573
67783W        W39399  31.981  19.292   3.580
67784W        W39400  40.898  14.164   2.299
67785W        W39401  32.959   5.113  10.918
67786W        W39402   9.447  24.510   2.623
67787W        W39403  36.504  32.539   4.397
67788W        W39404  37.335  25.893  14.917
67789W        W39405   5.220  31.329  12.448
67790W        W39406  13.668  30.804   3.247
67791W        W39407  38.474  30.634   4.024
67792W        W39408  40.623   6.844  13.892
67793W        W39409  20.976  33.755   1.726
67794W        W39410  39.852  33.916   1.209
67795W        W39411   2.453  43.727   5.409
67796W        W39412  44.753  26.633   3.344
67797W        W39413  17.642  40.257   4.786
67798W        W39414  12.172  13.697   2.351
67799W        W39415  26.044   5.442  12.631
67800W        W39416   9.734  19.763  14.031
67801W        W39417  43.928  23.461   4.501
67802W        W39418  25.184  25.761   2.230
67803W        W39419  35.800  41.812   0.910
67804W        W39420   8.425  34.011  14.605
67805W        W39421  33.363  36.997   3.276
67806W        W39422  15.638  26.725  13.418
67807W        W39423  18.785  38.601   0.574
67808W        W39424  39.370  31.076  13.441
67809W        W39425  20.817  11.352   4.506
67810W        W39426  23.711  25.354  12.465
67811W        W39427  39.267  44.706   2.414
67812W        W39428   9.941  27.528   4.604
67813W        W39429  15.053  19.441  12.623
67814W        W39430  23.695  19.187   0.942
67815W        W39431  41.532  42.791  12.335
67816W        W39432  10.091  11.338   0.367
67817W        W39433  29.911  44.289   3.411
67818W        W39434   7.657  35.762   2.311
67819W        W39435  17.295  31.588  11.571
67820W        W39436   9.675  27.471  12.362
67821W        W39437  31.575  14.199   2.738
67822W        W39438   4.909  15.954  12.061
67823W        W39439  35.143  27.294  11.951
67824W        W39440   7.247  18.613  13.714
67825W        W39441  44.419   5.448   2.241
67826W        W39442  12.402   4.261   5.434
67827W        W39443  43.712  38.762   1.335
67828W        W39444  17.193  17.867   1.096
67829W        W39445   2.104  10.850   2.291
67830W        W39446  18.206  28.999   4.838
67831W        W39447  27.934   1.738  14.869
67832W        W39448  40.017  32.074  14.917
67833W        W39449  44.850  37.846  11.979
67834W        W39450  44.260  16.812  13.929
67835W        W39451  13.208  21.914  11.500
67836W        W39452  21.409  37.867   1.430
67837W        W39453  31.609  24.691   4.203
67838W        W39454  17.270  29.512   2.417
67839W        W39455  19.620   0.070   2.827
67840W        W39456  28.056  28.991  13.089
67841W        W39457  43.757  38.968  12.790
67842W        W39458  15.540  31.452  12.910
67843W        W39459  21.991   8.762   0.918
67844W        W39460  14.536  42.907  13.416
67845W        W39461  39.494   1.723  12.798
67846W        W39462  31.326  30.023   2.666
67847W        W39463   6.938  12.826  14.301
67848W        W39464  14.766  32.537   3.320
67849W        W39465  12.650   4.255   4.979
67850W        W39466  26.721  13.095  12.488
67851W        W39467  44.061   6.253   2.189
67852W        W39468  22.217  32.680  12.055
67853W        W39469  31.174  35.096  14.847
67854W        W39470   8.137  33.594  14.167
67855W        W39471  12.402  15.300   3.432
67856W        W39472  35.057   1.415  14.851
67857W        W39473  39.332  27.490   2.846
67858W        W39474  36.768  10.867   4.178
67859W        W39475  12.598  15.795  10.669
67860W        W39476  44.422  14.699   1.316
67861W        W39477  44.728   1.057  12.972
67862W        W39478  42.797  23.999   3.698
67863W        W39479  38.348  27.264   1.246
67864W        W39480  35.968  36.066  14.304
67865W        W39481  17.584  29.959  12.327
67866W        W39482   0.448   2.152   1.248
67867W        W39483  18.080  42.533  13.767
67868W        W39484  29.984  36.446   3.755
67869W        W39485  31.776  28.344   5.159
67870W        W39486   1.721  41.783   2.307
67871W        W39487  23.106  43.058   1.413
67872W        W39488  15.404   6.899   3.556
67873W        W39489  34.206  10.690   3.718
67874W        W39490   0.824  26.149   3.577
67875W        W39491  35.561  19.676  14.789
67876W        W39492   6.919  20.637  10.660
67877W        W39493  19.909  11.397   3.541
67878W        W39494   0.038  23.077   2.676
67879W        W39495  15.856  44.894   3.077
67880W        W39496  14.808  14.849  11.137
67881W        W39497  42.506   9.070   2.422
67882W        W39498   6.795  30.892   0.836
67883W        W39499  35.460  33.958   0.929
67884W        W39500  41.920  23.413  12.567
67885W        W39501  36.120  18.018  12.651
67886W        W39502  42.336  35.527   2.612
67887W        W39503  20.740  20.047  13.422
67888W        W39504  38.114  23.504   2.149
67889W        W39505  24.416  16.130   4.297
67890W        W39506  24.571  41.725   3.229
67891W        W39507   8.833  31.857   2.873
67892W        W39508  26.243   2.388  11.058
67893W        W39509  34.612  35.834  14.992
67894W        W39510  15.312  21.593  11.672
67895W        W39511   1.887  37.040  12.722
67896W        W39512  26.267   0.910   4.103
67897W        W39513  41.942  27.642   2.316
67898W        W39514  40.702  36.568   4.253
67899W        W39515  43.763  44.284  13.556
67900W        W39516  34.298   3.736   1.856
67901W        W39517  16.757  28.879  10.598
67902W        W39518  18.773  26.836   1.429
67903W        W39519  39.428   5.594   1.737
67904W        W39520  38.935  38.378   2.724
67905W        W39521  31.184   2.232   1.682
67906W        W39522  36.879  12.887   0.389
67907W        W39523  11.723  16.664   1.342
67908W        W39524  28.303  21.482   2.680
67909W        W39525   1.373  22.161   4.630
67910W        W39526  10.234   5.258  13.003
67911W        W39527  40.818  19.587   1.590
67912W        W39528   3.682  41.486   1.839
67913W        W39529  20.726  43.050   1.895
67914W        W39530  27.447  14.759  11.589
67915W        W39531  27.618  34.450   3.218
67916W        W39532  21.263  13.726   0.756
67917W        W39533  41.833  14.757  11.980
67918W        W39534  21.709  20.492   4.148
67919W        W39535   2.691  40.867   1.971
67920W        W39536   0.697   6.936   3.806
67921W        W39537   7.158   2.352  11.246
67922W        W39538  19.655  42.740  12.091
67923W        W39539  17.720   9.167  12.666
67924W        W39540  10.348   4.723  10.713
67925W        W39541  12.101  28.932   0.450
67926W        W39542  21.807  11.239  12.009
67927W        W39543  27.646  40.323   2.885
67928W        W39544  44.947  20.152  12.147
67929W        W39545   2.205  28.355   9.911
67930W        W39546  21.480  18.737   0.652
67931W        W39547  42.256   9.853  13.010
67932W        W39548   0.743  41.895   3.202
67933W        W39549   7.373  28.773  11.591
67934W        W39550   4.859  24.627   2.348
67935W        W39551  10.412   2.534  14.560
67936W        W39552  11.718  44.729   0.273
67937W        W39553  41.078  39.569  13.889
67938W        W39554  13.569  10.081   4.071
67939W        W39555  11.162  30.322   2.399
67940W        W39556   4.642   3.319  13.776
67941W        W39557  21.685  22.943  11.226
67942W        W39558  23.632  27.775  10.923
67943W        W39559   8.351  36.411   2.831
67944W        W39560  33.380  12.662   4.268
67945W        W39561  38.117   4.462   2.447
67946W        W39562  27.901   4.176   1.824
67947W        W39563   4.312  24.835   3.765
67948W        W39564   0.508   6.480  12.845
67949W        W39565  20.143  16.721  11.658
67950W        W39566   7.584  34.772   3.677
67951W        W39567  33.865  17.188   3.743
67952W        W39568  13.364  42.513   3.268
67953W        W39569  27.118   3.068  14.781
67954W        W39570  29.527   8.695  14.014
67955W        W39571  16.312  13.780  14.355
67956W        W39572  22.557  14.091   2.486
67957W        W39573  32.157  29.898  14.767
67958W        W39574  21.544   4.974   0.934
67959W        W39575  25.868  25.011  14.992
67960W        W39576  42.747  32.410   2.310
67961W        W39577  30.935  11.630   2.408
67962W        W39578   0.568  29.505  13.137
67963W        W39579  23.746  11.783   3.355
67964W        W39580  14.334  27.464  13.042
67965W        W39581   0.994  20.592   3.690
67966W        W39582  23.197  27.060   3.294
67967W        W39583   3.849  36.598   2.879
67968W        W39584  38.906  12.631  10.549
67969W        W39585  25.217  37.217   3.599
67970W        W39586  39.353  41.246   0.394
67971W        W39587   1.294   1.330  13.352
67972W        W39588  30.454   3.974   1.466
67973W        W39589  27.954  23.087   1.373
67974W        W39590  37.612  35.588   0.365
67975W        W39591  16.952  16.673  10.059
67976W        W39592  27.113  43.263   4.769
67977W        W39593  21.534   5.820   3.741
67978W        W39594  30.468  12.291  11.656
67979W        W39595  13.857  22.603  12.584
67980W        W39596   9.780  17.059   0.345
67981W        W39597  24.323  20.649  11.187
67982W        W39598   5.257   0.378   3.785
67983W        W39599  24.144  39.069   3.196
67984W        W39600  10.259  17.559  13.601
67985W        W39601  39.953  43.027   0.368
67986W        W39602  23.243   6.672  13.158
67987W        W39603  19.579   2.431  12.146
67988W        W39604   7.710  13.754   3.764
67989W        W39605  14.832  21.566   0.261
67990W        W39606  24.224  14.340   0.258
67991W        W39607  11.640  40.053   4.135
67992W        W39608   1.347  28.992   3.300
67993W        W39609  23.791  28.647  13.819
67994W        W39610  42.959   9.430  14.835
67995W        W39611   6.436  35.441  11.941
67996W        W39612  10.883  26.055  11.730
67997W        W39613  17.858  43.971   4.566
67998W        W39614   2.477  30.225   2.787
67999W        W39615  16.483  40.394   4.184
68000W        W39616  41.825  27.065  14.869
68001W        W39617  23.696  20.706   0.403
68002W        W39618   5.893  41.985  12.522
68003W        W39619   2.127   6.704   3.256
68004W        W39620  37.032   0.510   4.887
68005W        W39621  24.773  44.337  14.875
68006W        W39622  37.032  24.531  12.335
68007W        W39623  21.082  37.986  12.332
68008W        W39624  23.172  18.123  11.171
68009W        W39625   2.631   2.747  11.988
68010W        W39626   6.431  31.049  14.475
68011W        W39627  43.766  34.081   4.124
68012W        W39628  41.594  30.882  13.052
68013W        W39629  10.288  23.790  13.538
68014W        W39630  20.620  21.596   0.748
68015W        W39631  35.387  16.668  12.499
68016W        W39632  13.124  16.292   4.166
68017W        W39633  18.969  16.050   1.127
68018W        W39634  31.580  22.691  10.556
68019W        W39635  36.645  11.346   3.617
68020W        W39636  33.946  15.956   4.111
68021W        W39637   1.779  23.840  12.075
68022W        W39638   9.629  32.436  11.955
68023W        W39639  10.378  21.926  13.944
68024W        W39640   3.940  19.242   4.173
68025W        W39641  41.730  14.177  10.657
68026W        W39642  15.474   0.806   0.813
68027W        W39643  25.061  18.015  11.148
68028W        W39644  27.698  17.667   2.679
68029W        W39645  22.268   7.322   1.393
68030W        W39646  30.432  18.682   1.736
68031W        W39647  12.270  42.024   4.149
68032W        W39648  17.867   1.941  13.848
68033W        W39649  28.994  16.409   4.209
68034W        W39650   2.779   6.427  11.995
68035W        W39651  41.463  28.017  12.394
68036W        W39652  38.435  24.827   4.438
68037W        W39653  13.738  22.060  13.493
68038W        W39654  43.907  27.466   4.753
68039W        W39655   8.791  19.213  11.178
68040W        W39656  37.803   4.915  14.989
68041W        W39657   9.085  10.398   3.558
68042W        W39658  15.210  38.789  10.230
68043W        W39659  26.732  11.602  11.117
68044W        W39660  44.429  28.528  10.304
68045W        W39661  21.724   3.928   2.280
68046W        W39662  44.545  30.961   2.174
68047W        W39663  15.385  18.793   3.716
68048W        W39664   8.179  41.121   4.000
68049W        W39665   6.380  14.636   0.432
68050W        W39666  12.399  31.989   2.813
68051W        W39667   5.782   7.555  14.287
68052W        W39668  32.212  29.073  12.844
68053W        W39669  22.486  38.095  12.535
68054W        W39670  14.132  13.032  12.874
68055W        W39671  26.512  32.976  12.908
68056W        W39672  37.561  25.086   2.839
68057W        W39673   4.323   4.715  14.993
68058W        W39674  23.748  41.951   2.705
68059W        W39675  17.131  14.629   0.257
68060W        W39676  22.892   2.347  12.266
68061W        W39677  25.564  38.729  12.110
68062W        W39678  14.394  28.919   1.342
68063W        W39679   9.878   3.696  13.553
68064W        W39680   4.177  23.151   0.366
68065W        W39681   2.286   2.984  10.750
68066W        W39682  12.394  39.567  14.877
68067W        W39683  27.452  33.263   0.335
68068W        W39684  24.990  31.983  10.629
68069W        W39685  30.933   0.389  14.853
68070W        W39686  32.399   9.269  11.491
68071W        W39687  37.303  40.091  12.189
68072W        W39688   8.800  43.051   1.666
68073W        W39689   5.206  26.212  12.604
68074W        W39690  26.637  42.348   2.881
68075W        W39691   6.454   0.177   2.403
68076W        W39692  12.908  19.715   1.911
68077W        W39693   7.383  21.456   1.857
68078W        W39694   9.700  27.710   0.349
68079W        W39695  39.953  35.203  14.973
68080W        W39696  11.599   7.228   1.217
68081W        W39697  42.315  20.023  12.981
68082W        W39698  21.070  26.389   0.801
68083W        W39699  26.803  15.106  14.300
68084W        W39700  38.379   8.600  13.747
68085W        W39701  38.915   8.207   4.192
68086W        W39702  27.134  14.142  14.239
68087W        W39703  42.669  17.521  13.828
68088W        W39704  42.807  14.109   1.376
68089W        W39705  12.389   4.656  12.431
68090W        W39706   0.034  25.182  10.632
68091W        W39707  38.574  35.323  11.168
68092W        W39708  41.530  39.859  11.572
68093W        W39709  11.294  42.767  10.790
68094W        W39710  40.515  32.425   4.527
68095W        W39711  27.655  32.064  12.632
68096W        W39712  42.005  38.977   3.474
68097W        W39713   3.826  39.277   3.206
68098W        W39714   6.964   2.265   1.165
68099W        W39715  16.592  39.393   3.170
68100W        W39716   8.319  19.276  14.318
68101W        W39717  13.365   4.924  11.655
68102W        W39718   5.273  21.630  13.760
68103W        W39719  22.320  11.731  13.158
68104W        W39720   4.294  22.727   3.710
68105W        W39721  12.087   7.352   1.230
68106W        W39722  26.967   2.833   0.732
68107W        W39723   1.389  21.990   1.332
68108W        W39724  42.692   8.657  11.199
68109W        W39725  29.187  34.937  12.498
68110W        W39726  34.106  25.073  11.924
68111W        W39727  11.321   2.673   3.293
68112W        W39728  38.310  13.670   4.070
68113W        W39729   1.743  27.158  12.369
68114W        W39730  27.097  13.733   0.201
68115W        W39731  16.378  42.753  14.534
68116W        W39732  41.223  34.854  14.953
68117W        W39733   8.736   2.017   2.448
68118W        W39734  16.204  10.736  14.933
68119W        W39735  14.319  13.613   2.633
68120W        W39736  12.668  41.040  14.000
68121W        W39737  22.562  43.121   3.196
68122W        W39738  13.039  24.061   0.633
68123W        W39739  34.041  27.971   4.397
68124W        W39740   0.204  18.584   0.262
68125W        W39741  21.947   6.130  13.491
68126W        W39742   4.161  38.792  14.789
68127W        W39743  19.112   0.753   4.468
68128W        W39744   0.379  16.171   2.212
68129W        W39745  13.099  44.479   2.858
68130W        W39746  17.754  17.127  14.012
68131W        W39747  27.458   1.198  10.627
68132W        W39748  20.633  22.378  13.857
68133W        W39749  19.062   2.240   4.283
68134W        W39750   3.903  25.396   1.239
68135W        W39751   1.852  20.683   3.336
68136W        W39752  35.937  23.952  13.315
68137W        W39753  37.490   4.316   1.349
68138W        W39754   5.655  44.817   0.168
68139W        W39755  41.460  44.824  14.775
68140W        W39756  13.779  12.379   4.217
68141W        W39757   6.166   0.943   1.848
68142W        W39758  31.903   1.203  14.931
68143W        W39759  34.725  43.902   3.140
68144W        W39760   4.216  33.389  10.550
68145W        W39761  41.556  30.570  13.469
68146W        W39762  37.410  19.328  13.423
68147W        W39763   0.000  35.973  13.437
68148W        W39764  35.932   8.407   4.680
68149W        W39765  27.697  19.742  14.898
68150W        W39766  20.090   2.505  12.900
68151W        W39767  17.768  40.075  14.801
68152W        W39768   6.840  21.004   0.450
68153W        W39769  44.384  30.144   1.822
68154W        W39770  11.776   3.840   2.869
68155W        W39771  35.074  31.243   1.790
68156W        W39772  10.606  11.108  11.501
68157W        W39773   6.369   3.234   2.529
68158W        W39774  38.555  37.063   1.711
68159W        W39775  15.294  39.980   2.281
68160W        W39776  43.226  41.008  11.513
68161W        W39777  38.219   1.888  13.159
68162W        W39778   5.671   1.535  12.487
68163W        W39779   2.236  22.166  14.767
68164W        W39780   1.698   4.806   5.164
68165W        W39781  10.650  41.405   0.039
68166W        W39782  29.889  36.082  14.474
68167W        W39783  13.060  29.410   2.603
68168W        W39784   2.569  15.067  13.425
68169W        W39785   2.988  23.690   3.163
68170W        W39786  10.452   8.087  12.891
68171W        W39787  15.379  12.319  11.131
68172W        W39788  36.475   5.277   2.291
68173W        W39789  29.657  41.505   3.680
68174W        W39790   1.469  20.290  13.807
68175W        W39791   6.721   4.653   0.757
68176W        W39792   8.454   9.359   1.642
68177W        W39793   0.322  23.493   5.125
68178W        W39794   6.741  37.297  13.212
68179W        W39795  29.033   9.714   2.984
68180W        W39796  28.853   0.394  12.422
68181W        W39797   5.747  32.865  12.007
68182W        W39798  20.514  19.213   3.348
68183W        W39799   0.237  37.039  14.001
68184W        W39800  25.638  24.554  14.795
68185W        W39801  26.597  30.398   4.114
68186W        W39802  25.822  16.567   5.479
68187W        W39803   6.290  27.891   2.266
68188W        W39804  33.049   7.085  13.166
68189W        W39805  33.141  14.075  11.103
68190W        W39806  16.727  24.378   4.564
68191W        W39807  35.418  23.118  11.707
68192W        W39808   4.263   5.900   4.498
68193W        W39809   4.819  28.201  10.633
68194W        W39810  32.073   9.789   2.859
68195W        W39811  21.278   6.849   3.147
68196W        W39812   9.604  40.856  10.870
68197W        W39813  11.674   6.343   3.780
68198W        W39814  13.481  29.431   1.375
68199W        W39815  31.998  38.077  13.026
68200W        W39816  26.810  38.828   4.757
68201W        W39817  41.950  24.536   3.976
68202W        W39818  41.025  12.386  12.862
68203W        W39819  28.946  35.985   2.766
68204W        W39820  22.249  44.022   1.330
68205W        W39821  22.070  39.966  12.003
68206W        W39822  21.609  31.308  11.141
68207W        W39823   0.428   5.489  11.507
68208W        W39824  26.919  35.040   2.365
68209W        W39825   7.578   6.337  10.797
68210W        W39826   9.314  44.948  10.433
68211W        W39827   7.090   0.320  12.937
68212W        W39828   5.038  35.509   1.348
68213W        W39829   3.922  13.645  13.485
68214W        W39830  37.456   3.563   3.498
68215W        W39831  26.601   2.169   0.494
68216W        W39832  40.640  25.006  12.069
68217W        W39833  26.110  40.325   2.431
68218W        W39834  30.187  10.914  11.094
68219W        W39835  33.925  30.930  11.428
68220W        W39836  25.685  39.521  11.585
68221W        W39837  21.985   6.144  10.641
68222W        W39838   3.390  43.044   1.729
68223W        W39839   1.673  37.310  13.642
68224W        W39840  14.133  14.050   3.684
68225W        W39841  29.267  31.726  14.334
68226W        W39842  38.969  11.444  11.920
68227W        W39843  14.814  16.337   4.115
68228W        W39844  36.671  23.925  13.838
68229W        W39845  42.205  19.344   1.678
68230W        W39846   3.065  38.458   0.651
68231W        W39847  37.124  35.509   2.832
68232W        W39848  40.185  16.593   0.311
68233W        W39849  31.205  11.982  11.264
68234W        W39850   8.427  26.063   1.467
68235W        W39851   4.802   3.983   2.868
68236W        W39852  11.074  13.480   3.626
68237W        W39853  34.578   0.017   9.732
68238W        W39854  24.409  34.103   0.894
68239W        W39855  15.704   4.957  12.010
68240W        W39856  32.660  19.766  14.332
68241W        W39857  22.764   9.305  10.217
68242W        W39858  20.527   8.699  11.620
68243W        W39859  42.255  19.333   4.831
68244W        W39860  16.018  44.321   4.050
68245W        W39861  28.537  25.687   4.716
68246W        W39862  14.373  34.147   1.569
68247W        W39863  20.325  35.064   1.389
68248W        W39864   7.879  15.553  11.218
68249W        W39865  40.266  36.469   1.000
68250W        W39866  39.163  28.362  11.144
68251W        W39867  13.996  24.627  12.884
68252W        W39868  33.147   9.259   4.172
68253W        W39869  28.007   5.498   2.774
68254W        W39870   0.427  33.726  14.818
68255W        W39871  22.389  19.557   0.812
68256W        W39872  15.410  11.175   0.030
68257W        W39873  32.664  19.738  11.878
68258W        W39874  25.721   1.299   3.466
68259W        W39875  17.467  19.064  10.988
68260W        W39876   5.851  43.316   1.148
68261W        W39877  24.160   2.383   2.269
68262W        W39878   6.383  27.365   2.315
68263W        W39879   9.169   1.032  14.199
68264W        W39880   2.973  43.940  12.951
68265W        W39881   9.679  32.390   2.488
68266W        W39882  36.549   4.226  13.843
68267W        W39883  42.821  10.922   3.682
68268W        W39884  30.823  28.988   2.009
68269W        W39885   7.129  30.031   3.786
68270W        W39886  14.501  19.686  14.498
68271W        W39887  12.613   4.253   9.774
68272W        W39888  25.405   3.274   1.356
68273W        W39889  25.663  14.048   4.690
68274W        W39890  40.880  24.292   3.253
68275W        W39891  26.068  40.601  14.911
68276W        W39892  41.320   5.727  10.667
68277W        W39893  11.733  13.613  10.806
68278W        W39894  27.570  21.149   3.609
68279W        W39895  18.039   3.231  14.311
68280W        W39896  27.871  17.920   4.262
68281W        W39897   6.754  26.512  14.876
68282W        W39898  24.453  18.147  14.364
68283W        W39899  28.048  14.529  14.008
68284W        W39900   5.733  15.208  13.425
68285W        W39901  15.520   0.007  13.410
68286W        W39902  24.314  14.405   1.756
68287W        W39903  37.787  42.945   5.115
68288W        W39904  39.085  13.828   1.228
68289W        W39905  28.531  34.639   1.841
68290W        W39906  19.017  32.086   1.538
68291W        W39907  44.946  28.972   0.442
68292W        W39908  22.516  42.912   3.680
68293W        W39909  13.179   5.024   5.083
68294W        W39910  37.579  22.456  11.543
68295W        W39911   7.890   4.226   2.344
68296W        W39912  21.206  36.348  11.869
68297W        W39913  32.151  12.204  11.001
68298W        W39914  42.123  28.465   3.219
68299W        W39915   0.895  12.085   2.614
68300W        W39916  11.099   5.245  14.392
68301W        W39917  23.179  34.418  11.103
68302W        W39918   1.086  19.999  14.050
68303W        W39919  11.587  31.036   2.978
68304W        W39920  23.637  30.336  11.663
68305W        W39921  33.446   2.178   4.965
68306W        W39922  41.479  15.730   3.665
68307W        W39923  23.690   1.972   2.870
68308W        W39924  24.059   9.644  11.967
68309W        W39925  31.526  16.142   2.995
68310W        W39926  30.603  41.377   1.359
68311W        W39927   8.718  24.810  14.479
68312W        W39928  30.970  18.921  12.816
68313W        W39929   4.321   7.344   3.076
68314W        W39930   1.906  26.412   4.942
68315W        W39931  26.855  29.449   3.907
68316W        W39932  37.518  34.844   2.807
68317W        W39933  23.908   6.766   3.187
68318W        W39934  26.105  43.996   4.443
68319W        W39935  23.418  17.786   4.117
68320W        W39936  17.154  41.461  13.419
68321W        W39937  39.500  31.515   1.391
68322W        W39938   8.922  24.056   3.329
68323W        W39939  12.267  28.193  14.991
68324W        W39940  38.840  12.294   1.835
68325W        W39941  17.682  25.491   4.950
68326W        W39942  13.383   8.228  14.433
68327W        W39943  44.441  36.601  13.591
68328W        W39944  10.383  18.786  12.463
68329W        W39945   5.412   8.919   3.677
68330W        W39946  44.881  21.209   1.210
68331W        W39947  39.985  22.654   4.727
68332W        W39948  44.609  42.359  14.725
68333W        W39949   6.740   2.877  14.577
68334W        W39950   5.899  24.569  11.772
68335W        W39951  42.932  32.947   1.181
68336W        W39952  20.453   8.406   3.354
68337W        W39953   6.221   5.136   4.146
68338W        W39954  44.275  43.074  10.299
68339W        W39955   1.632  40.503  14.268
68340W        W39956  28.005  23.415  13.082
68341W        W39957  10.380  19.986  11.092
68342W        W39958  22.474  18.764  11.143
68343W        W39959  30.172   3.707   2.897
68344W        W39960  34.971  44.838  14.422
68345W        W39961  12.083  31.937   4.878
68346W        W39962   2.474  41.870  12.610
68347W        W39963  11.292  37.659   1.929
68348W        W39964  34.487  43.766   0.459
68349W        W39965  13.881  44.547  11.490
68350W        W39966  44.874  34.941   1.319
68351W        W39967  14.926  26.346   3.417
68352W        W39968  35.648  12.772  14.290
68353W        W39969   7.483  36.019  11.578
68354W        W39970  13.232  12.133  11.499
68355W        W39971  30.346   7.735  14.620
68356W        W39972   2.806  14.670   2.329
68357W        W39973  40.047  39.848  14.561
68358W        W39974   1.122  33.873   0.945
68359W        W39975  11.300   8.304  12.578
68360W        W39976  27.992   4.245  11.616
68361W        W39977   5.765  10.838   3.672
68362W        W39978  42.670  40.543  14.352
68363W        W39979  44.071  15.396   0.179
68364W        W39980   6.880  34.337   4.372
68365W        W39981  23.550  37.577   4.746
68366W        W39982  21.956  23.428  11.951
68367W        W39983  28.029  23.033   4.105
68368W        W39984  41.879   9.674  11.405
68369W        W39985  37.038  35.149  13.865
68370W        W39986  35.538  33.785   4.123
68371W        W39987  43.004  29.491   2.921
68372W        W39988  36.020   1.573   0.743
68373W        W39989  39.258  12.267   4.990
68374W        W39990  12.753   1.658  12.912
68375W        W39991  35.639  43.117  11.232
68376W        W39992  27.175   2.067  13.234
68377W        W39993  15.864  30.552   1.746
68378W        W39994  34.668  18.802  12.389
68379W        W39995  17.582  24.280   1.881
68380W        W39996  40.889  17.558   0.964
68381W        W39997  13.322  30.806  12.277
68382W        W39998  11.913  29.794  11.961
68383W        W39999  26.885  35.114  13.071
68384W        W40000  30.701  36.059  12.554
68385W        W40001   5.427  23.467  12.352
68386W        W40002  40.744  33.945   3.650
68387W        W40003  44.642  28.107   2.819
68388W        W40004   3.015  25.077  14.472
68389W        W40005   0.378  11.859  13.533
68390W        W40006  43.848  38.324  10.689
68391W        W40007   0.801  20.709  14.276
68392W        W40008  20.709  31.498  14.358
68393W        W40009  43.037   5.224  13.246
68394W        W40010  13.324   0.923   3.234
68395W        W40011   6.552  27.018   1.389
68396W        W40012   4.595  17.235   4.234
68397W        W40013  42.477  36.895  14.980
68398W        W40014  23.001  25.897  11.201
68399W        W40015  12.812  17.860   1.036
68400W        W40016  42.948  34.806   1.436
68401W        W40017  32.463  15.184   3.536
68402W        W40018  43.061  13.479   0.252
68403W        W40019  35.555  44.431   3.176
68404W        W40020   6.131  39.042   2.648
68405W        W40021  23.747  11.435  12.554
68406W        W40022   9.379   0.148  11.487
68407W        W40023  16.796   2.847   2.885
68408W        W40024   2.085   3.923   2.711
68409W        W40025  42.796  17.855   3.123
68410W        W40026  20.819  26.606   1.666
68411W        W40027   7.851   8.847   3.219
68412W        W40028  40.363  42.360   3.231
68413W        W40029  15.220  20.334  12.930
68414W        W40030  22.148   6.186   2.057
68415W        W40031  29.841  40.560   2.501
68416W        W40032  33.231  26.045   0.691
68417W        W40033  27.541  24.180  11.612
68418W        W40034   6.864  24.995  12.679
68419W        W40035  29.134  37.852   1.811
68420W        W40036   3.178  29.065  11.840
68421W        W40037  42.004  36.534   0.026
68422W        W40038  31.027  19.425  13.836
68423W        W40039  25.002  10.256   0.690
68424W        W40040   2.747  24.740  11.904
68425W        W40041  23.618  42.735  13.995
68426W        W40042  38.731   9.678   2.633
68427W        W40043  40.099  13.733  12.558
68428W        W40044  31.510  10.548   1.428
68429W        W40045  11.614  27.947  13.173
68430W        W40046  36.526  12.686  12.932
68431W        W40047  25.295  30.362  14.912
68432W        W40048  24.594  33.636   1.123
68433W        W40049  36.466  36.343  12.107
68434W        W40050  43.987  27.687   2.482
68435W        W40051   1.150   7.904   2.363
68436W        W40052  31.954  34.275  11.061
68437W        W40053  15.368  18.622  12.076
68438W        W40054  38.297  14.728   1.568
68439W        W40055  14.134   4.705  13.992
68440W        W40056  40.309  21.067   0.064
68441W        W40057  34.484   2.962  10.468
68442W        W40058   4.458  20.738  14.004
68443W        W40059  12.337  32.954   0.401
68444W        W40060  38.630  17.660  11.554
68445W        W40061  23.458  44.617   4.062
68446W        W40062  41.011   6.467  13.165
68447W        W40063   2.473  44.412   1.405
68448W        W40064  43.975  29.660  11.619
68449W        W40065   6.853  13.035   3.743
68450W        W40066  17.898  19.985  12.569
68451W        W40067  38.490  19.207  14.571
68452W        W40068  16.207   2.444  12.628
68453W        W40069  27.551   1.733   2.928
68454W        W40070  25.975   1.159   5.004
68455W        W40071   1.787   1.793  14.385
68456W        W40072  38.316  25.006   1.902
68457W        W40073  21.775   6.397   1.399
68458W        W40074   1.665  35.672  12.106
68459W        W40075  23.756  11.154   2.721
68460W        W40076  24.529  12.241   1.168
68461W        W40077   9.338  13.440   1.756
68462W        W40078   5.646  23.446  13.873
68463W        W40079  10.088   1.765   0.717
68464W        W40080  20.219  27.546  10.998
68465W        W40081  13.118  31.806  10.704
68466W        W40082   2.048  41.361  14.748
68467W        W40083  19.221  11.691   3.808
68468W        W40084  27.889  18.838  13.359
68469W        W40085  23.431   5.369  11.174
68470W        W40086  22.715  27.949  11.186
68471W        W40087   1.355   4.950  13.043
68472W        W40088   2.383  31.073  13.931
68473W        W40089  28.079  44.029  11.177
68474W        W40090  34.397  23.688  11.142
68475W        W40091   1.229  22.655  14.357
68476W        W40092  23.789  29.444  11.617
68477W        W40093  44.858  43.271   3.327
68478W        W40094  41.123  13.594  11.217
68479W        W40095  38.205   3.131  13.153
68480W        W40096  16.733  21.983   3.564
68481W        W40097  25.191  43.380  11.422
68482W        W40098  22.787  34.151  13.296
68483W        W40099   0.358  27.554   0.487
68484W        W40100   3.936  20.162   3.218
68485W        W40101  21.151  19.008   4.722
68486W        W40102   3.508  15.732   4.641
68487W        W40103  19.282  31.224   3.825
68488W        W40104  29.586   8.694   1.715
68489W        W40105  18.091   3.401  11.945
68490W        W40106  34.451   0.973   1.741
68491W        W40107  38.744   3.127   3.921
68492W        W40108  32.971  26.555  14.844
68493W        W40109  11.736  30.009  11.489
68494W        W40110   1.849  17.922  14.054
68495W        W40111  27.571  42.883  10.738
68496W        W40112   3.119  13.488   0.363
68497W        W40113  35.116  11.741  10.617
68498W        W40114  25.603  29.404  11.870
68499W        W40115  38.314  33.465   1.885
68500W        W40116  17.078  34.207  13.346
68501W        W40117   4.489  31.285  12.621
68502W        W40118  35.337  17.769   0.493
68503W        W40119   8.610  33.276  14.001
68504W        W40120  33.896  40.947   0.266
68505W        W40121  29.898  43.470  14.088
68506W        W40122  11.399  34.397   3.685
68507W        W40123  29.061   0.219   3.741
68508W        W40124   1.444  16.139   2.691
68509W        W40125  27.010  35.844  14.356
68510W        W40126  28.024  44.329   4.441
68511W        W40127  26.308  17.618  12.504
68512W        W40128   8.242   2.832  10.552
68513W        W40129  22.796   3.635   2.402
68514W        W40130  36.799  39.689   2.565
68515W        W40131  31.576   4.133  13.325
68516W        W40132  12.311  28.993   1.944
68517W        W40133  18.237  37.373   3.199
68518W        W40134   2.361  30.433  10.111
68519W        W40135  42.945  32.708   4.073
68520W        W40136  24.587  31.493  12.828
68521W        W40137  41.164  15.695  14.820
68522W        W40138  10.320  26.204   3.867
68523W        W40139  37.622  13.760  11.514
68524W        W40140  42.432   9.363  14.870
68525W        W40141  37.542  43.246  11.226
68526W        W40142  23.799  16.841   2.756
68527W        W40143  21.632   0.309   1.728
68528W        W40144   2.776  25.341  13.335
68529W        W40145   5.397  22.071  13.533
68530W        W40146  36.387   7.835  11.045
68531W        W40147  33.759  42.356  11.574
68532W        W40148  21.228   4.726   3.184
68533W        W40149   9.083  12.197  13.057
68534W        W40150  17.365  18.012   4.526
68535W        W40151  21.860  28.545   4.045
68536W        W40152  36.502  19.562   1.765
68537W        W40153  39.896  12.910  14.541
68538W        W40154  34.784   1.003  12.794
68539W        W40155   8.933  14.331  14.359
68540W        W40156  32.821  41.895   2.207
68541W        W40157  30.128  36.404  10.756
68542W        W40158  22.127   4.144  14.510
68543W        W40159  26.903  44.344  11.598
68544W        W40160  40.087  17.086   1.450
68545W        W40161  42.852  28.734  14.258
68546W        W40162  11.092  10.710  14.336
68547W        W40163  34.477  14.508  12.595
68548W        W40164  37.212   3.152  12.412
68549W        W40165  16.230  16.195   0.120
68550W        W40166   8.123  27.616   2.741
68551W        W40167  14.206   6.218   5.128
68552W        W40168   9.949  28.486  12.067
68553W        W40169  17.172  10.110  12.058
68554W        W40170  19.050  40.805  13.541
68555W        W40171  19.016  21.586   1.732
68556W        W40172   3.939  20.822  13.918
68557W        W40173   9.314  28.411   3.375
68558W        W40174  18.712   7.911   2.436
68559W        W40175  13.834   6.553   5.253
68560W        W40176  24.194   0.934   1.334
68561W        W40177   9.164  17.798   0.769
68562W        W40178  19.322  34.979   3.986
68563W        W40179  32.938  33.677  11.993
68564W        W40180  14.888  18.444   5.019
68565W        W40181   2.488  18.806  10.660
68566W        W40182  28.568  17.400  13.008
68567W        W40183  30.078  41.843  10.675
68568W        W40184  25.403  14.048   1.750
68569W        W40185  13.539  35.050  11.176
68570W        W40186   5.354  26.303   0.281
68571W        W40187  44.906   3.505  13.040
68572W        W40188  29.221  44.559  12.058
68573W        W40189   5.355  36.982   0.048
68574W        W40190  28.598  33.466   2.285
68575W        W40191   2.437  27.062  11.682
68576W        W40192  43.844  25.487   1.237
68577W        W40193  13.531   3.309   3.738
68578W        W40194  31.917   1.089  11.480
68579W        W40195   0.124   2.596   1.330
68580W        W40196  21.013   7.600  11.202
68581W        W40197  44.265  25.940  12.756
68582W        W40198  11.222  28.974   2.106
68583W        W40199  40.840  36.801  13.568
68584W        W40200   1.814  24.590   1.881
68585W        W40201  21.684   2.254  13.414
68586W        W40202  29.091  29.139  10.305
68587W        W40203  42.355  42.744   0.819
68588W        W40204  37.288   1.441  12.415
68589W        W40205  29.893  15.220  14.911
68590W        W40206  31.494  44.259   3.762
68591W        W40207  10.045  24.607   0.386
68592W        W40208   1.215  21.692   0.924
68593W        W40209  19.336   5.925   3.164
68594W        W40210   1.361  23.264  11.121
68595W        W40211  29.270  21.745   2.773
68596W        W40212  33.070  11.907  10.439
68597W        W40213  23.553   7.236   4.455
68598W        W40214  29.442   2.421  14.019
68599W        W40215  10.423  34.662   4.649
68600W        W40216   8.868   9.405  14.889
68601W        W40217  26.230  26.084   2.599
68602W        W40218  43.080  17.114   4.787
68603W        W40219  35.001  13.557  11.890
68604W        W40220  32.084  17.607  12.778
68605W        W40221  31.328  22.198  11.051
68606W        W40222   9.566  20.082  12.318
68607W        W40223  41.927  10.915   2.713
68608W        W40224  22.236   5.376  12.015
68609W        W40225  11.871  37.372   4.701
68610W        W40226  36.857  33.470  12.476
68611W        W40227  33.231   8.127  10.772
68612W        W40228  12.334  14.216   1.041
68613W        W40229  28.201  31.231  12.464
68614W        W40230  28.720   6.065   2.872
68615W        W40231  11.671  22.589  13.331
68616W        W40232   2.930  31.180   0.943
68617W        W40233  12.467  11.709  11.146
68618W        W40234  35.481   6.444   2.911
68619W        W40235  27.453  24.425  12.347
68620W        W40236  18.635  20.475  11.811
68621W        W40237   5.161   2.385  14.099
68622W        W40238   4.973  10.362   3.807
68623W        W40239  22.580   5.203   3.207
68624W        W40240   0.515  12.036   0.037
68625W        W40241  11.826   4.196  12.992
68626W        W40242  18.057   5.897   4.472
68627W        W40243   4.236   1.247  12.380
68628W        W40244  28.419  43.280  14.230
68629W        W40245   9.651   5.834   0.465
68630W        W40246  26.163  41.247   2.194
68631W        W40247   9.775  24.686   1.296
68632W        W40248  11.146  31.559   0.346
68633W        W40249  29.341  26.942  14.824
68634W        W40250  14.296  20.089   2.834
68635W        W40251  19.144  21.958  10.584
68636W        W40252  29.132  44.995   1.385
68637W        W40253  27.179   3.239   4.644
68638W        W40254  40.148  30.659  13.792
68639W        W40255  24.297  37.523  12.054
68640W        W40256  28.705  44.327   0.785
68641W        W40257  34.046   1.487   4.989
68642W        W40258  38.041  13.053  11.068
68643W        W40259   1.692  21.579   4.304
68644W        W40260   7.208  22.478  13.048
68645W        W40261  30.088   9.325   0.214
68646W        W40262   5.444  19.624   0.743
68647W        W40263  29.375  27.674   9.725
68648W        W40264   8.395  41.021   4.454
68649W        W40265  33.206  40.978   3.142
68650W        W40266  42.775  33.521   1.805
68651W        W40267  44.894  26.043   0.049
68652W        W40268  15.370  21.231   0.241
68653W        W40269  21.473   2.458  12.521
68654W        W40270  36.911  36.878   3.451
68655W        W40271   5.764   1.830  14.455
68656W        W40272   2.280   8.169  11.699
68657W        W40273  39.558  15.189   4.399
68658W        W40274   3.837  22.136   3.201
68659W        W40275   0.272  17.034  11.519
68660W        W40276  40.444  20.094  11.453
68661W        W40277  13.624   5.429  14.416
68662W        W40278  21.920  23.553   2.375
68663W        W40279  36.556   6.276   2.791
68664W        W40280   6.975  34.901   0.709
68665W        W40281  20.742  24.445   2.354
68666W        W40282  10.392  10.389   1.766
68667W        W40283  20.166  28.471   2.542
68668W        W40284  42.910  20.650   4.600
68669W        W40285  29.935  19.791  13.416
68670W        W40286  14.228  11.798   4.120
68671W        W40287  21.057  35.505   1.438
68672W        W40288  34.020  29.668  11.917
68673W        W40289   5.403  38.495  13.425
68674W        W40290  13.536   5.331   0.338
68675W        W40291   4.181  30.022   3.691
68676W        W40292  13.331  20.174  12.245
68677W        W40293  38.824  35.833  11.997
68678W        W40294  19.632   4.848   1.283
68679W        W40295  39.068  10.622  11.653
68680W        W40296  36.677  37.718  11.988
68681W        W40297   0.677  22.993   0.436
68682W        W40298  12.200   0.965   0.821
68683W        W40299   6.343  10.038   3.116
68684W        W40300  26.211   1.302  12.510
68685W        W40301  23.432   5.916  10.620
68686W        W40302  21.015  28.129  10.833
68687W        W40303  38.946   6.570  10.510
68688W        W40304  15.889  18.060   1.883
68689W        W40305  42.068  32.165   3.987
68690W        W40306  37.047  38.669   0.518
68691W        W40307  36.939  24.721   2.231
68692W        W40308  37.324  13.788  11.094
68693W        W40309   3.777  40.903  11.181
68694W        W40310  32.604  24.728   3.609
68695W        W40311   0.450   4.904  11.513
68696W        W40312  12.434  28.488  12.819
68697W        W40313  31.326   7.817  14.161
68698W        W40314   0.539  42.469   1.988
68699W        W40315  23.491  29.211   1.089
68700W        W40316   4.189  19.708   4.229
68701W        W40317   5.808   2.003   2.183
68702W        W40318  12.124  10.690  14.380
68703W        W40319  28.166  18.160   3.527
68704W        W40320  44.945   1.802   4.659
68705W        W40321  26.352  33.999  12.904
68706W        W40322  13.933  38.830   2.880
68707W        W40323   2.869  18.757   3.778
68708W        W40324  41.837  15.912   1.685
68709W        W40325  41.537  44.788   0.454
68710W        W40326  36.467  31.518   4.339
68711W        W40327   5.143   4.781   4.328
68712W        W40328   6.427   3.361  10.413
68713W        W40329   2.016  25.606  11.470
68714W        W40330  43.830  30.909   4.678
68715W        W40331  43.510  12.856  11.948
68716W        W40332  22.058  11.237  10.606
68717W        W40333  22.943   5.245  13.501
68718W        W40334  32.845  14.412  13.452
68719W        W40335  22.013  33.955  12.549
68720W        W40336  17.362  44.906   4.997
68721W        W40337  36.478  40.539  13.515
68722W        W40338  13.631  44.529   4.011
68723W        W40339  31.497  43.523   1.812
68724W        W40340   4.090  17.167   4.198
68725W        W40341  29.471  36.896   0.973
68726W        W40342  23.148  15.682   2.446
68727W        W40343  18.360   7.438  12.926
68728W        W40344  25.231  32.259   3.682
68729W        W40345  33.143   1.266  11.679
68730W        W40346  38.401  26.414   3.186
68731W        W40347  20.089  22.713  10.917
68732W        W40348  35.368  22.461   3.855
68733W        W40349  26.380  27.410  11.821
68734W        W40350  10.819  32.503  12.053
68735W        W40351  15.825  41.533   3.306
68736W        W40352  28.840   9.588   3.986
68737W        W40353  37.845  16.186   4.334
68738W        W40354   8.746  21.750  13.396
68739W        W40355  44.629   0.641  12.422
68740W        W40356   0.888  37.871  14.071
68741W        W40357  16.254  44.966   4.253
68742W        W40358   5.480  35.312   1.158
68743W        W40359   6.854  29.645   4.603
68744W        W40360  30.173   5.957  12.479
68745W        W40361  25.137  28.047   4.705
68746W        W40362  35.300  36.140  13.829
68747W        W40363  38.101   7.059  11.959
68748W        W40364   8.185   5.475  12.239
68749W        W40365  17.579  34.460   2.450
68750W        W40366  30.383  38.805   3.799
68751W        W40367   4.578  27.342  14.816
68752W        W40368  27.252  13.199   1.990
68753W        W40369  31.212  37.545  11.658
68754W        W40370   3.316  22.052   0.470
68755W        W40371  31.499  40.121  12.590
68756W        W40372   6.765   6.135   1.023
68757W        W40373   4.218   2.671   3.142
68758W        W40374  26.089  41.763   3.139
68759W        W40375  33.528  15.868  11.169
68760W        W40376  13.305  34.974  11.660
68761W        W40377  20.509  27.537  13.244
68762W        W40378  11.340   9.966  14.132
68763W        W40379  35.439  15.915  13.413
68764W        W40380  35.155  12.738  14.387
68765W        W40381  40.620  14.396  12.514
68766W        W40382  36.126  28.083  10.441
68767W        W40383  40.683  34.411  13.485
68768W        W40384  23.781  19.662  11.214
68769W        W40385  42.255   6.206  12.987
68770W        W40386  32.919  43.257   1.688
68771W        W40387  34.592   4.610  13.397
68772W        W40388  43.846   1.042   1.265
68773W        W40389  28.963   0.948   1.468
68774W        W40390   5.715  37.116  12.624
68775W        W40391  42.863  25.542   0.189
68776W        W40392  12.003  38.573  11.528
68777W        W40393  35.928  33.285  13.334
68778W        W40394  39.828   3.974   0.251
68779W        W40395   8.335  33.584  11.530
68780W        W40396   5.356   5.767   0.479
68781W        W40397  27.561  21.195   3.103
68782W        W40398   5.521  41.787   2.899
68783W        W40399  23.285  40.263   2.388
68784W        W40400  16.345  43.938  14.980
68785W        W40401   5.969  16.459  11.049
68786W        W40402  13.079  28.751   4.810
68787W        W40403   0.302  33.589   3.237
68788W        W40404   6.910  17.339  11.958
68789W        W40405  12.897  16.758   4.142
68790W        W40406  27.940   7.615  13.127
68791W        W40407  35.967  14.332   1.558
68792W        W40408  40.891   7.342  13.693
68793W        W40409  35.333  43.888   0.430
68794W        W40410   3.028   8.150   4.844
68795W        W40411  40.523  31.902  14.991
68796W        W40412  13.869  26.637  10.814
68797W        W40413  32.859   4.852  13.169
68798W        W40414  19.003  18.537   2.365
68799W        W40415  33.529  37.573  13.623
68800W        W40416  28.674   4.241  14.337
68801W        W40417  44.064  43.468  13.999
68802W        W40418  32.605  11.271   0.780
68803W        W40419   1.441  40.267   4.523
68804W        W40420  14.389  24.161   3.049
68805W        W40421   4.402  19.567   3.748
68806W        W40422   7.827  27.163  10.512
68807W        W40423  11.615   8.578   2.660
68808W        W40424  35.855   6.214   4.582
68809W        W40425   8.317  27.989   0.009
68810W        W40426  33.169   4.918   3.241
68811W        W40427  10.128   8.397  13.732
68812W        W40428   6.604  31.015   0.369
68813W        W40429  39.888  16.756   0.925
68814W        W40430  35.328  15.527   0.878
68815W        W40431   1.259  14.045  13.129
68816W        W40432   1.430  35.887   3.248
68817W        W40433  41.443  16.051   3.203
68818W        W40434   0.474  34.593   3.379
68819W        W40435  14.990  30.500  12.813
68820W        W40436  17.091  30.561   2.124
68821W        W40437  19.816  35.097   4.100
68822W        W40438  38.010  21.064  11.500
68823W        W40439  25.526  43.474  14.285
68824W        W40440   8.173  30.632   2.482
68825W        W40441  34.888  16.231   3.617
68826W        W40442  24.045   2.365  12.556
68827W        W40443  28.491  30.113  14.493
68828W        W40444  41.826  36.256  11.067
68829W        W40445  41.476  34.872  14.331
68830W        W40446  35.908  38.788   5.145
68831W        W40447  40.304   7.935   4.095
68832W        W40448   5.113  41.957   1.462
68833W        W40449  30.804  21.243  13.739
68834W        W40450  36.116  15.668  11.033
68835W        W40451  33.001  41.341   4.838
68836W        W40452   3.946   0.182   3.382
68837W        W40453  19.402  12.174   4.483
68838W        W40454  18.210  29.516  12.075
68839W        W40455   1.274  15.770  10.691
68840W        W40456  31.101  30.368   5.535
68841W        W40457  28.043   0.174   3.949
68842W        W40458  12.607   8.362   4.741
68843W        W40459   1.320  42.586  10.600
68844W        W40460  21.279  17.232   4.678
68845W        W40461  35.006  18.134  10.658
68846W        W40462  16.627   0.745   1.711
68847W        W40463   2.712   4.436  13.373
68848W        W40464  44.868  24.009  14.729
68849W        W40465  12.670  34.837  12.814
68850W        W40466  24.068  36.408   4.852
68851W        W40467  32.529   0.664  10.279
68852W        W40468  18.539   1.930   4.130
68853W        W40469  22.797  28.014  14.349
68854W        W40470  31.595  29.702   4.656
68855W        W40471  11.974  20.669  11.260
68856W        W40472  42.926  38.392  13.100
68857W        W40473  27.324  10.845  12.761
68858W        W40474  15.602  27.222  13.380
68859W        W40475  19.221  18.758  12.916
68860W        W40476  28.413   2.447  14.699
68861W        W40477  36.428   5.443  12.082
68862W        W40478  44.270  10.257  11.657
68863W        W40479  12.252   6.191  12.554
68864W        W40480  10.381  12.616   3.342
68865W        W40481  43.876  35.259   9.440
68866W        W40482   9.840  26.515  12.625
68867W        W40483  16.311  35.908  11.688
68868W        W40484  26.026   5.869   2.856
68869W        W40485  39.336  32.527   4.573
68870W        W40486  24.766   4.211   3.089
68871W        W40487  13.661   4.366   4.069
68872W        W40488   8.380   2.000   2.833
68873W        W40489  23.048  32.048  12.183
68874W        W40490  43.485  31.155   2.149
68875W        W40491  43.462  40.637   3.295
68876W        W40492  22.163  20.263  14.573
68877W        W40493  27.150  20.037  13.192
68878W        W40494  36.065  13.218   2.277
68879W        W40495   3.697   5.694  10.696
68880W        W40496   4.578  41.997   1.752
68881W        W40497  30.977  31.399  12.071
68882W        W40498   8.229   8.864  11.923
68883W        W40499  44.486  32.937   4.212
68884W        W40500  44.782  33.803   1.288
68885W        W40501  23.429   4.195  14.930
68886W        W40502  36.442  34.866   0.892
68887W        W40503  40.986  15.631   2.882
68888W        W40504  35.873  37.812   2.920
68889W        W40505  40.781  22.104  12.885
68890W        W40506   0.954   3.901   2.317
68891W        W40507  32.156  29.572   0.404
68892W        W40508   6.994   9.379  13.509
68893W        W40509   6.252  11.000  12.439
68894W        W40510  20.708  15.028  12.413
68895W        W40511   5.959  22.688  12.601
68896W        W40512  38.276   7.284   0.283
68897W        W40513  35.503  20.786   1.312
68898W        W40514  13.741  16.884  13.921
68899W        W40515  21.082  42.736  11.748
68900W        W40516  39.923   8.312   0.357
68901W        W40517  13.276   5.770  13.799
68902W        W40518  35.317   7.489   3.092
68903W        W40519   8.550   5.753   5.118
68904W        W40520  11.845  10.104   0.750
68905W        W40521  38.657  17.087  10.993
68906W        W40522  38.169  28.048   2.419
68907W        W40523  24.890  40.936   2.296
68908W        W40524   7.267  24.177  13.229
68909W        W40525  26.814  29.946  12.917
68910W        W40526   3.654   4.232  14.728
68911W        W40527  17.571  12.067  10.717
68912W        W40528   0.857  13.068  14.347
68913W        W40529  40.318  23.008  12.516
68914W        W40530  42.099  30.917  13.047
68915W        W40531  30.374  25.040   0.363
68916W        W40532   7.027  32.447   4.257
68917W        W40533  37.570   0.897   2.855
68918W        W40534   6.952  19.590  11.393
68919W        W40535  38.385   2.668  13.272
68920W        W40536  29.966  16.247   0.499
68921W        W40537  40.797  21.059  14.070
68922W        W40538  28.964  24.149  11.010
68923W        W40539  32.250  13.021   2.598
68924W        W40540  18.824  35.148  12.485
68925W        W40541   3.299  21.237  14.790
68926W        W40542  31.421   8.641  14.012
68927W        W40543   1.990  23.599  12.473
68928W        W40544  11.615  36.666  12.152
68929W        W40545  13.954  38.297   3.872
68930W        W40546  34.052  17.583  12.108
68931W        W40547  40.828  31.021  14.800
68932W        W40548  21.302  30.452   3.331
68933W        W40549  41.346  15.753   0.378
68934W        W40550  44.782  15.146  11.534
68935W        W40551  16.200  35.093  14.275
68936W        W40552  40.176   2.569  11.070
68937W        W40553   7.412   0.413  14.112
68938W        W40554   2.531  32.351  10.440
68939W        W40555  39.797  20.998   3.668
68940W        W40556   5.729  36.099  12.850
68941W        W40557  24.467  43.431   1.240
68942W        W40558   4.728  10.369  12.942
68943W        W40559  40.453  29.504   1.194
68944W        W40560  10.640  29.112  12.118
68945W        W40561  40.124  36.519  11.975
68946W        W40562  42.975  13.412  14.400
68947W        W40563  23.013   6.226   0.120
68948W        W40564   0.448  11.674   4.500
68949W        W40565  14.103   2.293   4.638
68950W        W40566  39.355  29.477  13.371
68951W        W40567  16.898  17.199  10.729
68952W        W40568  12.813  30.616   3.144
68953W        W40569  17.780  18.131   0.491
68954W        W40570   3.387  12.260   2.124
68955W        W40571  11.760  36.600  10.852
68956W        W40572  30.681  10.808   3.881
68957W        W40573  29.695  11.434  14.329
68958W        W40574  15.166  29.724  11.083
68959W        W40575  27.061  12.740   2.157
68960W        W40576   4.850  24.309   3.283
68961W        W40577  40.586  31.676  13.305
68962W        W40578  39.281  39.421  12.441
68963W        W40579  32.393   3.201  12.968
68964W        W40580  44.118  41.700  11.570
68965W        W40581  35.361  23.453  10.982
68966W        W40582   1.372   1.782  10.629
68967W        W40583  13.908  18.164  13.178
68968W        W40584   1.844  36.355  11.546
68969W        W40585  33.938   8.758  14.256
68970W        W40586   5.438  23.198   1.277
68971W        W40587  37.042  42.099  10.811
68972W        W40588  35.120  29.205   1.488
68973W        W40589  30.389  12.636   1.802
68974W        W40590  26.901  16.790   9.749
68975W        W40591  24.379   4.903  10.195
68976W        W40592  14.793  23.591  12.656
68977W        W40593  24.064   6.347  13.392
68978W        W40594  15.787  15.187   1.834
68979W        W40595   6.457  17.125  13.750
68980W        W40596  38.641  34.768  10.230
68981W        W40597  14.883  11.790   4.884
68982W        W40598   3.436  28.338  14.561
68983W        W40599  38.576  43.960   3.664
68984W        W40600   2.077  37.311   5.169
68985W        W40601  42.966  42.067   1.124
68986W        W40602  31.251   7.733  11.454
68987W        W40603  23.066  26.026   0.000
68988W        W40604   0.238  12.755   0.256
68989W        W40605   5.848  26.535  11.156
68990W        W40606  13.436  42.835  12.406
68991W        W40607   3.691  12.624  12.125
68992W        W40608   6.587  20.216   2.889
68993W        W40609  40.480  43.404  13.560
68994W        W40610  33.931  38.652   0.843
68995W        W40611  36.079  11.613  10.244
68996W        W40612  16.580  31.988   1.639
68997W        W40613   1.260  30.852  11.889
68998W        W40614  10.903   1.769  12.647
68999W        W40615  13.784  44.919  10.636
69000W        W40616  22.233  25.546   2.255
69001W        W40617  21.469   3.850  12.484
69002W        W40618   5.691  35.839  12.409
69003W        W40619   8.153   5.843  11.899
69004W        W40620  28.936  44.725   3.214
69005W        W40621  30.486   3.869   0.489
69006W        W40622   4.862   9.572  13.067
69007W        W40623  39.375  41.007   1.699
69008W        W40624   9.865   8.143   0.507
69009W        W40625  11.321  36.532   1.332
69010W        W40626  21.992  24.509   3.754
69011W        W40627   4.993  12.612   3.186
69012W        W40628  34.854   1.263  14.376
69013W        W40629  39.937   8.220  13.930
69014W        W40630  20.035  39.513   1.024
69015W        W40631  17.817   9.127  14.095
69016W        W40632  21.206  35.208  14.074
69017W        W40633  32.100  41.406   0.292
69018W        W40634   0.356   1.952  10.602
69019W        W40635  36.322   7.780  12.534
69020W        W40636  19.310   8.895   4.082
69021W        W40637   5.289  33.411   0.729
69022W        W40638  35.833  25.963   4.135
69023W        W40639   5.253  24.092   3.570
69024W        W40640  40.758  33.537  13.139
69025W        W40641  24.437  33.584  10.589
69026W        W40642  42.902  26.953  13.409
69027W        W40643   9.449   1.252   3.456
69028W        W40644   9.779  11.946  13.524
69029W        W40645  25.535  42.436  13.899
69030W        W40646  36.635  19.604   4.195
69031W        W40647  25.513  31.802  13.200
69032W        W40648  31.499   8.075  12.858
69033W        W40649  44.320  32.643   4.631
69034W        W40650  12.768   1.490  13.963
69035W        W40651  39.402  18.710   0.874
69036W        W40652  10.658   1.935  14.254
69037W        W40653  19.232  34.924   4.932
69038W        W40654   5.961   4.347  14.393
69039W        W40655   1.878  40.776   3.813
69040W        W40656  28.852  30.771  13.588
69041W        W40657  10.633  35.470   1.367
69042W        W40658  42.519  35.516  10.288
69043W        W40659  40.151  42.878  13.391
69044W        W40660   8.432  22.968  11.456
69045W        W40661  26.825  28.550   1.016
69046W        W40662  41.460   1.754  11.918
69047W        W40663  27.117  33.447  14.015
69048W        W40664   1.650   1.925   0.504
69049W        W40665  44.375   0.980   2.859
69050W        W40666  33.827  44.943  10.758
69051W        W40667  37.944   1.880   5.047
69052W        W40668  16.128  31.209   0.743
69053W        W40669  12.666  26.687   3.839
69054W        W40670   6.627  37.375  10.784
69055W        W40671  12.382  29.086  13.332
69056W        W40672  29.070  21.724  11.123
69057W        W40673  37.947  29.275  10.584
69058W        W40674  33.647  25.419   4.189
69059W        W40675   3.411   6.131   3.172
69060W        W40676  30.373  23.912   2.479
69061W        W40677   8.747  31.609  13.615
69062W        W40678  35.326  24.106   1.407
69063W        W40679  44.689  15.751   1.786
69064W        W40680  27.489  42.743   2.638
69065W        W40681  10.400   2.490  11.559
69066W        W40682  25.737  28.963   4.191
69067W        W40683  19.308  33.958   2.316
69068W        W40684  18.789  32.842   3.321
69069W        W40685  35.984  11.130  10.100
69070W        W40686  34.551  31.892   2.269
69071W        W40687  21.139  22.997   2.876
69072W        W40688  31.231  27.199   2.428
69073W        W40689  28.819  20.811  13.087
69074W        W40690  17.239  17.619   5.451
69075W        W40691  19.655  26.878   0.595
69076W        W40692  26.918   7.132  11.951
69077W        W40693  16.542  32.670  10.693
69078W        W40694   7.847   3.294  10.737
69079W        W40695  39.832  10.403  13.622
69080W        W40696   3.782  24.204   2.724
69081W        W40697  36.583  15.611   2.614
69082W        W40698  22.992  18.534   0.863
69083W        W40699  36.949   1.818   1.511
69084W        W40700  40.334   2.615   4.706
69085W        W40701   6.574  40.407  10.600
69086W        W40702  18.957  22.998   4.026
69087W        W40703  39.479   9.344   1.823
69088W        W40704   3.375  42.041  10.605
69089W        W40705  41.436  35.565  13.585
69090W        W40706  19.305   9.737   2.468
69091W        W40707   4.548  15.355  12.690
69092W        W40708  24.938  34.842   3.248
69093W        W40709  19.308  33.206   4.721
69094W        W40710  21.056   8.122  11.184
69095W        W40711  11.878  43.337   2.222
69096W        W40712  38.037   3.909   4.587
69097W        W40713  16.759  33.130  11.524
69098W        W40714   7.439  42.791  12.892
69099W        W40715   0.140  34.331  12.103
69100W        W40716  27.921  38.513  11.376
69101W        W40717  29.188  11.135  11.967
69102W        W40718  36.318  15.716   1.188
69103W        W40719   8.225   9.587   3.284
69104W        W40720  44.973  11.657   4.744
69105W        W40721  26.951  21.237   1.293
69106W        W40722  36.022  16.755   2.742
69107W        W40723  30.189  19.698  12.544
69108W        W40724   0.744  36.412   0.905
69109W        W40725  28.731  11.366   0.271
69110W        W40726   3.269   0.309  11.579
69111W        W40727  39.164  40.347   5.365
69112W        W40728  23.692   5.073  14.968
69113W        W40729  32.090  35.033  14.189
69114W        W40730  10.447   4.986  13.441
69115W        W40731  20.705  29.403  13.406
69116W        W40732  20.230   9.792  14.112
69117W        W40733  41.442   3.002   1.912
69118W        W40734  29.623  39.319  13.929
69119W        W40735   8.328  28.471  10.674
69120W        W40736  28.426   2.237   4.649
69121W        W40737  29.446  38.074  14.434
69122W        W40738  10.079  31.450  14.414
69123W        W40739  36.392  44.304  14.508
69124W        W40740   8.564  36.335   0.968
69125W        W40741  29.020  15.332   4.080
69126W        W40742  27.765  36.388  10.702
69127W        W40743  30.030  36.143   1.382
69128W        W40744  37.897  18.306  10.682
69129W        W40745  43.352  28.380  13.266
69130W        W40746  25.293  15.078   3.190
69131W        W40747  11.398  39.780  12.524
69132W        W40748  30.388  28.952   1.677
69133W        W40749  16.143  31.676   1.756
69134W        W40750  23.032  13.850   0.380
69135W        W40751  29.047  21.052  10.981
69136W        W40752   6.490   6.370  14.627
69137W        W40753  33.720  39.116   1.969
69138W        W40754  15.790  34.008  12.372
69139W        W40755   1.383  38.512  14.456
69140W        W40756  39.285  36.093   0.139
69141W        W40757  34.085  27.961   3.876
69142W        W40758  40.137   7.993  12.442
69143W        W40759   6.211   2.973  14.547
69144W        W40760   7.685   4.964   0.922
69145W        W40761  11.353  10.397   4.716
69146W        W40762  42.218   8.057  14.629
69147W        W40763  41.382  20.015  11.117
69148W        W40764  41.742  31.936  10.706
69149W        W40765  39.470  22.013   2.775
69150W        W40766  37.929  37.519   2.172
69151W        W40767  41.499  34.004   1.903
69152W        W40768  18.138  37.417   1.660
69153W        W40769  30.125  21.628  12.886
69154W        W40770  33.231  20.609  12.382
69155W        W40771  21.605   7.802   2.212
69156W        W40772   2.466  15.816   3.303
69157W        W40773  22.495  12.260   2.230
69158W        W40774  15.678  10.834   1.415
69159W        W40775  13.498  39.653  10.918
69160W        W40776  34.903   3.161   2.661
69161W        W40777  26.477  43.999   4.805
69162W        W40778   0.181  10.527  10.912
69163W        W40779   2.429  11.551   0.796
69164W        W40780  10.577  12.849  13.509
69165W        W40781   8.641  12.716  12.869
69166W        W40782  11.078  15.105   2.420
69167W        W40783   2.018  20.197   2.251
69168W        W40784  39.941  14.815   1.788
69169W        W40785  37.280  30.697   1.029
69170W        W40786  30.574   2.784  13.545
69171W        W40787   9.341   6.846   1.256
69172W        W40788  19.155  31.984  13.692
69173W        W40789  24.066  29.002   1.858
69174W        W40790   2.296  40.910  14.757
69175W        W40791  15.093  35.838  11.241
69176W        W40792  12.210  20.749   0.460
69177W        W40793   2.546   0.596   3.579
69178W        W40794   4.300  43.608  13.359
69179W        W40795  12.878  23.729  12.483
69180W        W40796  20.519  26.060  12.603
69181W        W40797   7.218  10.794   3.408
69182W        W40798  37.400  37.604  14.814
69183W        W40799  15.053  13.139   4.418
69184W        W40800   9.419   3.388  12.307
69185W        W40801   7.893   7.007   3.020
69186W        W40802  42.429  11.840   1.749
69187W        W40803  37.171  18.725   4.995
69188W        W40804  32.008  28.997  11.917
69189W        W40805  17.205  27.580  13.885
69190W        W40806  22.675  27.429  14.085
69191W        W40807  44.967   3.378   1.321
69192W        W40808  42.547  21.441   2.264
69193W        W40809   6.181  12.700   4.422
69194W        W40810  26.498   4.316  14.953
69195W        W40811   9.904  44.408  13.888
69196W        W40812  22.381  24.573  11.204
69197W        W40813  34.007  11.736   0.029
69198W        W40814  22.055   4.770   0.784
69199W        W40815   4.756  40.915   2.450
69200W        W40816  15.562  15.745   3.659
69201W        W40817   1.718  15.754   2.882
69202W        W40818  30.470   0.304  12.634
69203W        W40819  40.488  21.694   4.603
69204W        W40820   9.930  31.918   9.616
69205W        W40821  17.597  38.426   4.156
69206W        W40822  19.062  28.059   4.000
69207W        W40823   4.012   6.499   1.757
69208W        W40824  23.088  44.871  14.575
69209W        W40825  13.991  35.468  13.844
69210W        W40826   1.515   7.321   0.835
69211W        W40827  24.124   6.070   3.649
69212W        W40828   2.730  26.524  12.854
69213W        W40829   3.772   4.884   0.335
69214W        W40830  40.981  25.668  14.754
69215W        W40831  29.664  34.017  14.002
69216W        W40832  34.572  14.285   4.112
69217W        W40833  25.664  15.139  13.363
69218W        W40834  16.012  26.422  13.280
69219W        W40835  38.926  25.978   4.456
69220W        W40836   5.916  27.566   4.573
69221W        W40837  41.472  11.668   2.348
69222W        W40838  39.831  15.573  11.451
69223W        W40839   3.417  21.140   0.804
69224W        W40840  36.532  25.310  12.388
69225W        W40841  30.371   1.265  12.851
69226W        W40842   0.087  12.211   4.683
69227W        W40843  17.835   4.624  12.494
69228W        W40844  37.829  25.515   2.789
69229W        W40845  33.647  28.204   3.661
69230W        W40846  16.630  20.497  12.122
69231W        W40847  35.832  14.818  14.070
69232W        W40848   2.943  35.641  13.682
69233W        W40849   1.103  10.698   0.524
69234W        W40850  27.432   6.898  11.956
69235W        W40851  39.335  41.492  10.586
69236W        W40852  34.751   8.196  13.360
69237W        W40853  10.892  32.649   1.957
69238W        W40854  24.337  28.678  14.836
69239W        W40855  26.801  30.685  14.700
69240W        W40856  29.574  23.614   0.070
69241W        W40857  34.757  30.617   5.012
69242W        W40858  21.727  26.534  14.066
69243W        W40859  19.100  13.697   4.450
69244W        W40860  29.888   0.042  11.455
69245W        W40861  12.640  35.849   2.787
69246W        W40862  24.967  21.369   1.667
69247W        W40863  39.990  27.591   4.214
69248W        W40864  10.647  11.897   0.885
69249W        W40865  37.278  31.404  14.795
69250W        W40866  29.367   1.922  13.876
69251W        W40867  38.888  13.302   2.641
69252W        W40868  11.075  33.340  14.408
69253W        W40869  29.877  42.893  11.464
69254W        W40870  15.553   3.376  11.976
69255W        W40871   4.975  18.589  14.978
69256W        W40872  39.559  39.292   0.309
69257W        W40873  11.235  26.966   2.809
69258W        W40874  28.916  35.119  14.305
69259W        W40875  19.610  15.980  14.807
69260W        W40876   0.433  11.316   4.105
69261W        W40877   9.685  16.576   0.161
69262W        W40878  16.595   8.158  13.032
69263W        W40879  33.493   7.830   3.316
69264W        W40880   0.726  37.005  13.791
69265W        W40881  20.427  36.535  10.542
69266W        W40882  12.600  22.239   2.399
69267W        W40883  18.303  26.066  14.476
69268W        W40884  40.401  28.998   1.259
69269W        W40885   3.095  40.942   4.877
69270W        W40886   8.832   7.148   1.406
69271W        W40887  29.135   4.138  14.174
69272W        W40888  33.633  41.255   4.230
69273W        W40889  29.385  39.038  12.008
69274W        W40890   1.690  43.708   4.796
69275W        W40891  28.320  37.154   2.747
69276W        W40892  39.985   3.869  12.963
69277W        W40893  33.426  30.503  10.096
69278W        W40894  15.349  17.676   4.151
69279W        W40895  21.027  34.557   1.382
69280W        W40896  25.206  22.100   3.187
69281W        W40897  10.253   9.491   0.091
69282W        W40898  38.446  27.599  11.087
69283W        W40899  29.612  20.592  13.833
69284W        W40900  36.154  12.129  10.334
69285W        W40901   7.403   0.877  14.872
69286W        W40902  16.803   5.863   3.258
69287W        W40903  30.362  17.454  12.067
69288W        W40904  17.114  12.498  13.360
69289W        W40905  28.581  28.717  14.426
69290W        W40906   8.240  15.598  10.491
69291W        W40907   5.252  11.708  13.572
69292W        W40908   8.881  13.642   2.333
69293W        W40909   3.561  30.138  14.038
69294W        W40910  37.575  41.849   3.657
69295W        W40911  20.335  34.547  10.678
69296W        W40912  22.185  24.060   1.695
69297W        W40913  42.459  19.710  12.171
69298W        W40914  26.472  13.091  12.053
69299W        W40915   8.188  38.206  13.575
69300W        W40916  39.248  14.254   4.958
69301W        W40917  44.792  24.032   2.605
69302W        W40918  33.330  37.517   0.053
69303W        W40919  17.414   6.323   4.486
69304W        W40920  32.379  26.103  11.167
69305W        W40921  42.949  12.475   1.792
69306W        W40922  17.795   6.456  14.977
69307W        W40923  28.121   8.205   0.286
69308W        W40924  31.952  12.345  12.419
69309W        W40925   4.503   9.936   2.907
69310W        W40926  12.470  24.111   2.149
69311W        W40927  36.879  42.389   3.979
69312W        W40928  39.424  17.628   0.821
69313W        W40929  19.527  34.554   0.079
69314W        W40930  42.945  17.316   3.875
69315W        W40931  11.629  44.627   3.970
69316W        W40932  17.732   3.485  14.953
69317W        W40933  22.646  16.084   4.804
69318W        W40934  42.105  35.088   2.779
69319W        W40935  40.307  40.495   0.208
69320W        W40936   6.961  11.822   0.281
69321W        W40937  44.148  41.501   2.331
69322W        W40938  13.723   2.034   2.973
69323W        W40939  11.462   0.771  14.527
69324W        W40940  28.688   7.432  12.881
69325W        W40941   3.586   0.581  10.313
69326W        W40942  19.357  31.062  12.097
69327W        W40943  23.704  37.398  14.295
69328W        W40944   4.528  33.085   2.229
69329W        W40945  18.624  19.852   2.078
69330W        W40946  31.471  14.021   2.259
69331W        W40947   5.707  33.644   1.918
69332W        W40948  40.685  43.804   1.916
69333W        W40949  16.968  31.061  10.755
69334W        W40950   5.044  12.029  11.129
69335W        W40951   5.951   5.456  12.962
69336W        W40952  19.524  13.560  11.689
69337W        W40953  32.896  37.810   4.193
69338W        W40954  11.703  39.493   0.464
69339W        W40955  21.083  37.960  10.858
69340W        W40956  18.493  12.180  12.909
69341W        W40957   2.497  18.112  11.071
69342W        W40958  27.461  11.954  10.745
69343W        W40959   3.277  17.213   0.819
69344W        W40960  40.011  33.517   3.516
69345W        W40961  24.524  18.481   3.709
69346W        W40962  37.983  29.209  12.200
69347W        W40963  34.348  41.425  10.833
69348W        W40964  10.601  24.178   2.573
69349W        W40965  35.138  18.243   0.588
69350W        W40966   4.262  22.869  10.536
69351W        W40967  33.046  43.108  11.623
69352W        W40968  29.309  15.037  12.547
69353W        W40969  44.018  39.933  11.872
69354W        W40970  12.809   4.361   3.029
69355W        W40971  30.917  24.553   3.392
69356W        W40972  25.545  13.749  13.426
69357W        W40973  43.713  27.189  13.930
69358W        W40974  24.784  14.687   4.173
69359W        W40975  41.518  29.967   2.288
69360W        W40976  40.875  37.922  12.474
69361W        W40977   8.281  16.751   2.892
69362W        W40978  16.173  19.403  11.483
69363W        W40979  29.461   2.671  11.591
69364W        W40980  35.626  43.928   3.436
69365W        W40981  34.870  37.956  11.622
69366W        W40982   8.306  18.578   2.176
69367W        W40983  26.050   7.783   4.056
69368W        W40984  42.740   6.995   4.808
69369W        W40985   7.383  10.687   0.422
69370W        W40986   5.894  42.443  11.547
69371W        W40987  37.058  10.347   0.419
69372W        W40988  28.956  36.305  12.106
69373W        W40989  17.650  28.522  11.715
69374W        W40990  18.098  11.885  13.867
69375W        W40991  20.605  34.304   1.181
69376W        W40992  15.334   4.687   0.466
69377W        W40993  31.641   7.332   3.284
69378W        W40994  17.277  18.339  10.655
69379W        W40995  10.883  18.835  14.811
69380W        W40996  15.804   6.088  14.464
69381W        W40997  29.521  30.231   4.687
69382W        W40998  18.164  18.784  11.882
69383W        W40999  39.827   6.941  13.393
69384W        W41000  32.616  25.438   1.308
69385W        W41001  23.420  41.190  14.891
69386W        W41002  13.595   7.164   2.295
69387W        W41003   8.766  15.853  11.676
69388W        W41004   5.705   1.282   3.695
69389W        W41005  41.483   0.938  14.739
69390W        W41006  35.333  18.077  13.315
69391W        W41007  31.873   9.803  11.108
69392W        W41008  26.595  16.230   2.881
69393W        W41009  40.473  37.102   0.318
69394W        W41010  27.572   0.081  14.817
69395W        W41011   8.439  24.048   2.342
69396W        W41012  20.702   4.805  11.544
69397W        W41013  18.344  26.689   4.290
69398W        W41014  28.174  23.712   2.172
69399W        W41015   7.956  22.055   2.702
69400W        W41016  38.007   9.179   4.548
69401W        W41017  31.015   7.254  12.514
69402W        W41018  11.969   6.381   4.971
69403W        W41019  32.053  34.602  13.889
69404W        W41020  17.607  15.359   0.390
69405W        W41021   5.795  41.357  13.040
69406W        W41022  10.303   7.619   5.013
69407W        W41023  22.477  34.950  11.775
69408W        W41024   5.812  20.080  11.265
69409W        W41025  42.060  43.525   4.533
69410W        W41026  11.344  26.357  11.170
69411W        W41027   9.586   2.310  14.353
69412W        W41028   3.098  19.839   4.459
69413W        W41029  10.557   1.815   2.310
69414W        W41030  24.302  26.447  14.299
69415W        W41031  12.625   6.451  12.802
69416W        W41032  13.870   9.718  12.941
69417W        W41033   4.935   8.676   1.892
69418W        W41034   9.486   5.537  14.812
69419W        W41035  24.488  10.175   4.812
69420W        W41036  38.600  32.674  13.930
69421W        W41037  31.350  16.292  11.246
69422W        W41038  33.518  38.431  14.711
69423W        W41039  37.833  35.736   1.822
69424W        W41040  34.676  35.417  14.653
69425W        W41041  37.034   0.858  10.678
69426W        W41042  37.893  20.994   4.511
69427W        W41043   7.400  20.475  12.433
69428W        W41044  16.003  29.022   0.696
69429W        W41045  25.389   3.038   4.234
69430W        W41046  41.331  28.415   0.681
69431W        W41047  35.615  27.561   1.204
69432W        W41048   4.151  29.072  12.994
69433W        W41049  20.023  28.189   1.804
69434W        W41050  32.042   2.466   1.290
69435W        W41051  13.627  28.034  13.438
69436W        W41052   3.771  16.811  12.862
69437W        W41053  27.991   9.881  10.024
69438W        W41054  40.114  31.150   4.452
69439W        W41055  12.782   7.669  11.113
69440W        W41056  28.253  12.397   1.289
69441W        W41057  37.307  12.811   4.745
69442W        W41058  35.113  15.936   4.639
69443W        W41059  23.264  34.361  14.420
69444W        W41060   7.502  44.944  14.931
69445W        W41061  43.479  17.973   1.503
69446W        W41062  28.593  31.565  11.355
69447W        W41063   7.320  27.208  12.003
69448W        W41064  40.121  14.309   9.984
69449W        W41065  36.364   2.542  12.617
69450W        W41066  15.709  33.638  14.323
69451W        W41067  37.861   3.813  14.922
69452W        W41068  27.226  12.705   0.878
69453W        W41069   0.313  27.443   2.432
69454W        W41070   6.677  41.260   4.640
69455W        W41071  27.520  28.628  11.552
69456W        W41072  40.940  20.028  14.297
69457W        W41073  14.707  17.708  12.077
69458W        W41074  35.591  38.046   4.626
69459W        W41075   3.296  39.758   4.855
69460W        W41076  13.663   8.875  11.628
69461W        W41077  30.401  13.725  13.787
69462W        W41078  20.981  41.553   0.717
69463W        W41079  15.547  11.017  11.960
69464W        W41080  23.202  25.173   1.380
69465W        W41081   6.369  39.290   0.806
69466W        W41082  35.430  27.026  10.700
69467W        W41083  34.105  23.876  11.564
69468W        W41084  20.802  28.664   2.785
69469W        W41085  42.103   5.303  11.675
69470W        W41086  17.729  40.294   3.339
69471W        W41087   0.057  33.096  14.383
69472W        W41088  15.413  12.819  10.259
69473W        W41089  14.218  25.072  14.845
69474W        W41090   8.875  13.771   3.336
69475W        W41091  33.106  31.457   0.737
69476W        W41092  16.752   4.397   3.259
69477W        W41093   1.279  27.112   3.789
69478W        W41094  26.187  44.534   3.731
69479W        W41095  26.594  30.159   3.634
69480W        W41096   8.536  38.055  10.555
69481W        W41097  37.954  29.656   2.685
69482W        W41098  36.778   1.410  12.396
69483W        W41099   0.931  31.369  11.092
69484W        W41100  36.603   1.394  14.806
69485W        W41101  30.947  26.476  11.254
69486W        W41102  37.332  35.158   0.221
69487W        W41103  34.031  33.947   2.696
69488W        W41104  33.640  36.777   3.811
69489W        W41105  30.708   4.764  11.150
69490W        W41106  12.462  21.525   3.736
69491W        W41107  25.301  25.114  13.320
69492W        W41108   7.429  13.372   1.364
69493W        W41109   6.663  44.305  13.010
69494W        W41110  17.635  29.609   0.723
69495W        W41111  33.167   2.771  10.482
69496W        W41112   1.437  28.399  13.079
69497W        W41113   2.509   8.738  14.496
69498W        W41114  40.874  25.572  11.239
69499W        W41115  34.682   0.508  10.684
69500W        W41116  31.508  19.411   4.983
69501W        W41117   4.811  28.506  14.873
69502W        W41118   8.422  20.096   1.226
69503W        W41119  22.542  21.471   4.094
69504W        W41120   0.420  34.583   4.227
69505W        W41121  39.271  39.819   4.851
69506W        W41122  23.034  27.171   0.303
69507W        W41123  14.167   0.020  13.866
69508W        W41124  42.821  40.507   3.721
69509W        W41125  21.617  10.621  12.564
69510W        W41126  13.961  30.105  11.885
69511W        W41127   2.790   7.806   0.122
69512W        W41128  25.741  21.632  10.637
69513W        W41129  23.202  12.908  12.526
69514W        W41130   2.989  33.180   0.856
69515W        W41131  44.959  33.133   4.099
69516W        W41132   5.099  22.326  12.780
69517W        W41133  25.070   4.222  14.471
69518W        W41134  19.070  15.742   2.828
69519W        W41135   4.163   4.873   2.372
69520W        W41136  42.267  29.385  11.698
69521W        W41137  19.691   0.377   0.912
69522W        W41138  22.020  14.120   4.267
69523W        W41139  13.671   8.307   3.302
69524W        W41140   4.698  18.462  14.227
69525W        W41141  28.683  22.668  14.948
69526W        W41142  24.519  42.816  10.760
69527W        W41143  31.904  43.234   2.789
69528W        W41144  14.158   7.193  11.037
69529W        W41145   2.122  10.119  12.952
69530W        W41146   3.012   8.795  13.668
69531W        W41147  38.871  10.202   2.770
69532W        W41148  31.100  19.806  12.683
69533W        W41149  28.444   3.949  11.566
69534W        W41150  44.421  44.796   0.017
69535W        W41151  33.148   3.661  12.421
69536W        W41152  17.932  31.487   3.980
69537W        W41153  12.762   0.833   1.201
69538W        W41154  44.493  26.259   4.077
69539W        W41155   8.845  13.093   3.553
69540W        W41156  41.634   1.020   0.262
69541W        W41157  16.823   5.926  12.558
69542W        W41158  11.588  19.620   2.081
69543W        W41159   3.731  26.131  11.952
69544W        W41160   2.181  35.701  12.028
69545W        W41161  18.270  25.585   2.326
69546W        W41162  38.315  18.887  11.907
69547W        W41163   5.306   6.333  12.056
69548W        W41164  25.707  33.656   1.860
69549W        W41165  26.911  30.378  10.410
69550W        W41166  42.789   7.440  13.063
69551W        W41167  26.044  21.030   1.236
69552W        W41168  28.193  19.477  14.086
69553W        W41169   0.722  28.711  13.790
69554W        W41170   1.655  26.251  11.996
69555W        W41171  36.496   2.813  13.036
69556W        W41172  22.149   5.590   4.676
69557W        W41173  33.032  28.945  14.748
69558W        W41174  30.239   0.541  12.237
69559W        W41175  21.863  20.079  11.753
69560W        W41176  29.428  33.847   3.220
69561W        W41177  33.055  36.451  12.642
69562W        W41178  19.845  35.990   2.216
69563W        W41179  24.180  18.905   2.640
69564W        W41180  41.165  34.599  12.103
69565W        W41181  27.982  31.051  14.327
69566W        W41182  39.529   4.937  10.675
69567W        W41183  26.771  14.337  14.582
69568W        W41184  43.445  19.179  10.679
69569W        W41185  34.199  23.845   1.170
69570W        W41186  11.163  10.398   2.702
69571W        W41187  18.261  12.824  14.271
69572W        W41188  22.311  39.215  12.596
69573W        W41189  42.843  31.145   0.796
69574W        W41190  13.809  17.076   3.250
69575W        W41191  14.336   9.667   2.910
69576W        W41192  35.909  36.990  12.845
69577W        W41193  20.005  38.794   3.803
69578W        W41194  24.720  20.031  14.754
69579W        W41195  14.549  26.778   3.872
69580W        W41196   7.620  17.738   0.568
69581W        W41197  32.955   2.711  14.027
69582W        W41198  17.938  15.641   4.493
69583W        W41199  32.155  19.653  14.249
69584W        W41200  31.554  24.602   3.143
69585W        W41201  33.132   7.280   1.750
69586W        W41202   4.814  35.879  11.032
69587W        W41203   9.629   8.408   1.858
69588W        W41204   7.348  26.176   2.676
69589W        W41205  23.096  28.789  11.658
69590W        W41206  26.443  31.014  11.436
69591W        W41207  42.879  40.851  11.872
69592W        W41208  13.649  13.632  10.694
69593W        W41209  31.018  26.412   3.712
69594W        W41210  12.329  27.364  14.462
69595W        W41211  44.889  19.989   4.399
69596W        W41212  42.397   1.816   3.819
69597W        W41213  41.520  41.389  11.568
69598W        W41214  22.193  27.426  12.620
69599W        W41215  37.855  15.993  11.607
69600W        W41216  16.545  42.805   2.098
69601W        W41217  29.582  12.759   3.315
69602W        W41218  38.045   7.321  12.897
69603W        W41219  38.579  28.252   0.285
69604W        W41220  32.916  42.340   1.978
69605W        W41221  13.838  36.406  10.773
69606W        W41222  15.659  29.483   2.313
69607W        W41223  34.843  31.015   2.190
69608W        W41224   8.360   3.792   1.928
69609W        W41225  34.455  29.719  14.329
69610W        W41226  21.058  12.283  11.622
69611W        W41227  20.578  18.192  13.866
69612W        W41228  42.303   3.391   2.751
69613W        W41229  39.681   4.161   1.321
69614W        W41230  23.203  37.355  11.546
69615W        W41231   8.639  43.509  11.454
69616W        W41232  17.230   2.735   0.741
69617W        W41233  22.667  34.403  10.978
69618W        W41234  26.060  24.667   4.909
69619W        W41235  33.078  31.850  11.694
69620W        W41236  24.578  28.529   2.381
69621W        W41237  24.189  14.895  11.457
69622W        W41238  13.011   0.106   0.292
69623W        W41239  29.618  31.372  14.713
69624W        W41240   6.761   5.530   4.208
69625W        W41241  36.708  44.240  11.916
69626W        W41242   7.282   3.515  13.031
69627W        W41243  25.866  17.203   0.572
69628W        W41244  16.486  27.018   1.914
69629W        W41245   9.762   8.756  14.818
69630W        W41246  23.209  29.999   5.112
69631W        W41247  27.034  24.065  11.511
69632W        W41248  22.783  41.710  13.974
69633W        W41249  13.482   4.014   3.730
69634W        W41250  41.385  32.974  12.260
69635W        W41251  25.121   9.160   3.594
69636W        W41252   3.305  15.826   5.113
69637W        W41253  38.762  28.520  14.889
69638W        W41254  41.806   6.588  12.445
69639W        W41255   1.958  43.879  13.759
69640W        W41256   5.597   2.861   0.475
69641W        W41257  15.800  29.632   0.971
69642W        W41258   6.287   7.358  13.885
69643W        W41259  14.326  31.104   2.926
69644W        W41260  35.640   1.909   0.429
69645W        W41261  39.512  44.741   3.392
69646W        W41262  24.872  28.990   3.146
69647W        W41263   5.962   9.285  10.675
69648W        W41264  29.207  14.173   4.969
69649W        W41265  15.834   4.856  13.846
69650W        W41266  19.216   9.224   4.960
69651W        W41267  31.223  32.980  13.464
69652W        W41268  25.227  41.313   2.861
69653W        W41269  14.596   3.831   1.800
69654W        W41270   5.493  23.867  13.441
69655W        W41271  25.859  26.098  13.317
69656W        W41272  41.288   4.778   3.260
69657W        W41273   8.426   5.033  12.226
69658W        W41274  44.851  24.033   0.307
69659W        W41275   3.719  44.484   0.673
69660W        W41276  39.735  17.133  10.930
69661W        W41277  34.821  26.516   2.212
69662W        W41278  21.315  24.539  12.459
69663W        W41279  25.526  38.639   2.490
69664W        W41280   1.016  17.650  12.530
69665W        W41281   2.156  39.399   2.291
69666W        W41282  42.952  24.427   1.324
69667W        W41283   2.792  34.007  11.876
69668W        W41284   0.462  13.911  10.563
69669W        W41285  44.001   5.173   2.396
69670W        W41286  30.095  29.371   1.326
69671W        W41287  17.234  40.892  12.011
69672W        W41288  35.801  37.744   0.892
69673W        W41289  36.501  42.169   1.027
69674W        W41290  26.700  44.977  10.351
69675W        W41291  11.311  16.085  13.263
69676W        W41292  18.390  41.734  13.301
69677W        W41293  10.724  10.896   3.350
69678W        W41294   2.222  23.175   3.652
69679W        W41295   9.333  14.887   2.174
69680W        W41296  23.485  15.818   2.809
69681W        W41297  32.329  18.253   4.179
69682W        W41298  12.355   8.179   0.388
69683W        W41299  32.319  19.679  13.457
69684W        W41300  13.489   8.373   2.818
69685W        W41301  25.731   4.654  14.495
69686W        W41302   1.940  39.097   1.559
69687W        W41303  16.034   1.556  14.448
69688W        W41304  16.511   7.424  14.384
69689W        W41305  25.965  17.888   3.902
69690W        W41306  39.227  40.281   3.094
69691W        W41307   4.899  20.313   3.321
69692W        W41308  28.662   4.970   1.976
69693W        W41309  33.097  22.285   3.791
69694W        W41310  13.885   8.644  11.177
69695W        W41311   8.360   7.811  10.690
69696W        W41312  18.998  22.026  11.090
69697W        W41313  34.902  43.852   0.730
69698W        W41314  18.803   5.667  12.106
69699W        W41315  25.576  11.883  11.636
69700W        W41316  35.833   2.288  13.434
69701W        W41317  12.347  20.649  13.841
69702W        W41318   3.718  41.637   3.643
69703W        W41319  29.915  23.011   3.863
69704W        W41320  16.237  37.473   4.387
69705W        W41321   1.213   0.027  11.002
69706W        W41322   7.604  32.956   3.645
69707W        W41323  38.875  26.119  10.524
69708W        W41324  12.639   2.725   0.856
69709W        W41325  32.087  22.772   1.299
69710W        W41326  26.485  39.028  10.604
69711W        W41327  38.476  21.283   2.705
69712W        W41328   6.258  19.299   3.194
69713W        W41329  16.761  20.772   1.839
69714W        W41330  32.581  28.685   1.766
69715W        W41331  44.074  29.060   0.852
69716W        W41332  35.882  19.723  12.299
69717W        W41333   9.178  26.731   2.834
69718W        W41334  17.329  22.740  11.133
69719W        W41335  41.044   7.628  10.718
69720W        W41336  17.697   4.314  13.817
69721W        W41337  37.078  34.113   1.893
69722W        W41338  16.270  20.940  14.763
69723W        W41339  26.688  44.936   2.828
69724W        W41340   1.797  23.989   1.222
69725W        W41341  30.165   6.326  12.075
69726W        W41342  24.433   9.995  13.349
69727W        W41343  31.000  25.256  11.949
69728W        W41344   2.676  12.663   4.153
69729W        W41345  13.162   4.249   1.588
69730W        W41346  32.695  15.317  11.286
69731W        W41347  11.303  13.011   3.194
69732W        W41348  29.090  24.468  10.620
69733W        W41349  22.372  18.563   1.646
69734W        W41350  18.828   7.637  11.697
69735W        W41351  13.834  23.685   2.461
69736W        W41352  17.509  26.995   2.823
69737W        W41353  40.816  17.030   1.745
69738W        W41354  24.062  26.757  10.314
69739W        W41355  43.818  40.640  10.991
69740W        W41356  33.882   3.401  11.995
69741W        W41357   2.194  31.903   1.317
69742W        W41358  35.023  14.910  13.953
69743W        W41359  14.742  12.349  14.472
69744W        W41360   1.985  15.564   0.781
69745W        W41361  27.382  43.303  12.533
69746W        W41362   2.864  26.165  11.511
69747W        W41363  39.858  22.744   2.890
69748W        W41364  32.277  32.914  13.567
69749W        W41365  40.997  31.161  11.932
69750W        W41366  34.882   4.667  11.211
69751W        W41367  22.071  14.830  12.305
69752W        W41368   4.312  30.476  10.945
69753W        W41369  22.488  32.624   0.054
69754W        W41370   0.024  18.530  11.257
69755W        W41371  10.198  39.588  12.502
69756W        W41372  13.164  22.026   0.386
69757W        W41373  36.532  37.557   3.407
69758W        W41374   7.296  13.329   3.747
69759W        W41375  20.625  15.843   2.175
69760W        W41376  35.072   2.085  10.468
69761W        W41377  44.893  31.301   4.572
69762W        W41378  32.728  10.497  11.093
69763W        W41379   0.886  24.492   4.662
69764W        W41380  40.182  19.139   1.870
69765W        W41381  18.998  33.055  14.837
69766W        W41382  25.625  15.814  12.151
69767W        W41383   6.885   3.968   4.472
69768W        W41384  21.373  14.270  12.323
69769W        W41385  44.941   2.262   3.139
69770W        W41386  17.376   7.489  14.445
69771W        W41387  31.391  10.654   2.211
69772W        W41388  29.719  23.989   4.881
69773W        W41389  15.551  40.458  13.507
69774W        W41390  30.034  13.099   2.766
69775W        W41391  27.478  19.803   3.809
69776W        W41392  30.370   2.628   3.677
69777W        W41393   1.257  20.428  14.270
69778W        W41394  37.361   2.330  12.668
69779W        W41395   3.829  12.215  10.374
69780W        W41396  31.056  31.487   1.876
69781W        W41397  14.592  42.227   3.733
69782W        W41398  44.765  16.415  13.284
69783W        W41399   0.325  16.176  10.590
69784W        W41400  10.881  11.370  13.408
69785W        W41401   1.050  18.617  12.597
69786W        W41402  27.223  14.732   3.906
69787W        W41403  31.569  18.125   1.278
69788W        W41404  19.287  19.153  10.655
69789W        W41405  31.722  33.103   4.213
69790W        W41406  22.216  30.649   4.366
69791W        W41407   1.128  29.609  10.311
69792W        W41408  30.736  17.598  14.468
69793W        W41409  26.696  34.325  12.617
69794W        W41410  30.132   7.696  12.136
69795W        W41411  18.079  32.710  11.993
69796W        W41412   1.499  36.391   3.612
69797W        W41413  11.898  36.409   4.601
69798W        W41414  14.744  43.988  11.476
69799W        W41415  20.493   4.864  14.558
69800W        W41416  10.333   7.649  11.671
69801W        W41417  37.366  41.869   1.348
69802W        W41418  44.802  40.323  13.415
69803W        W41419  29.217  44.273  13.374
69804W        W41420   6.030   2.974  12.119
69805W        W41421  29.714  10.216  10.545
69806W        W41422  11.161   6.157   1.723
69807W        W41423  41.385   8.423  13.854
69808W        W41424  13.067   6.862   1.798
69809W        W41425  18.953  19.512   2.345
69810W        W41426   0.236  24.704  11.538
69811W        W41427  34.516  21.171   0.877
69812W        W41428  20.919  42.558  10.853
69813W        W41429  37.695  33.506  12.187
69814W        W41430  37.844  19.743   2.026
69815W        W41431  36.953  33.323   0.264
69816W        W41432  42.910  28.147   0.890
69817W        W41433  33.204  38.900  11.562
69818W        W41434  17.543  34.145   3.935
69819W        W41435  38.991  23.712  10.671
69820W        W41436  22.233   8.808   3.650
69821W        W41437   9.251  37.350   1.683
69822W        W41438  10.649  30.539  14.724
69823W        W41439  23.248  34.196   2.137
69824W        W41440  15.596   1.513   1.904
69825W        W41441  39.044  35.129  14.537
69826W        W41442   9.737  28.856   3.279
69827W        W41443  38.306  29.958  11.176
69828W        W41444   7.035  33.609  11.162
69829W        W41445   6.412  38.559   1.313
69830W        W41446  30.513   0.924   1.791
69831W        W41447  24.594  36.777  11.144
69832W        W41448  35.924  18.161  14.926
69833W        W41449  35.587  16.698   3.161
69834W        W41450  30.308  43.750  13.880
69835W        W41451   4.517  23.284   4.559
69836W        W41452   5.157  25.106   2.214
69837W        W41453   6.277  10.861  14.701
69838W        W41454  20.596  17.805   4.615
69839W        W41455  24.686   8.939   4.118
69840W        W41456   1.788   3.535  13.995
69841W        W41457  42.432   0.012   4.504
69842W        W41458  14.601  34.129   0.731
69843W        W41459  21.436   1.512  11.135
69844W        W41460  38.399  29.489  10.966
69845W        W41461  21.178  22.674  11.011
69846W        W41462   5.372  43.898  14.554
69847W        W41463  25.154  22.200  13.944
69848W        W41464  30.242  35.363  12.889
69849W        W41465   4.428  19.204   3.378
69850W        W41466   9.506   7.737  14.743
69851W        W41467  12.186  42.909   1.496
69852W        W41468  37.556  41.533   2.656
69853W        W41469  10.986  40.166  14.807
69854W        W41470   5.619  25.436  11.557
69855W        W41471  15.308  35.136   2.861
69856W        W41472  38.885  31.570   4.383
69857W        W41473   8.766  36.463  13.409
69858W        W41474  33.121  29.766  13.469
69859W        W41475  26.128  44.758   0.013
69860W        W41476  19.001  19.551  13.310
69861W        W41477  13.733  37.626  11.443
69862W        W41478  38.955  41.522   2.457
69863W        W41479  25.017  20.325   3.656
69864W        W41480  26.136  16.801   2.889
69865W        W41481  35.323  17.056   3.822
69866W        W41482  30.476  30.651   2.130
69867W        W41483   3.150   8.099  13.029
69868W        W41484  30.780  42.359  13.144
69869W        W41485  11.779   8.273   4.601
69870W        W41486   5.723  36.560   3.490
69871W        W41487  42.268   0.485   4.652
69872W        W41488  41.478   8.096   0.336
69873W        W41489  31.190  18.528  13.760
69874W        W41490  35.447   0.363   3.564
69875W        W41491  35.524   6.328  11.636
69876W        W41492  33.404   6.918   1.457
69877W        W41493  17.143   2.908   0.249
69878W        W41494  36.217  14.111   4.154
69879W        W41495   6.681  22.813  14.562
69880W        W41496   8.095   7.174  13.892
69881W        W41497  39.118  11.619   3.189
69882W        W41498  15.319  25.945   0.899
69883W        W41499  16.367   2.720   4.156
69884W        W41500  23.471   9.313  12.537
69885W        W41501  20.339  41.981   2.772
69886W        W41502  17.543  18.326   3.474
69887W        W41503  28.623  40.773   1.358
69888W        W41504  32.128  29.669  11.991
69889W        W41505  26.650  28.885  12.976
69890W        W41506   7.179  13.930  11.857
69891W        W41507  29.183  14.571  13.808
69892W        W41508  43.459  31.379  14.333
69893W        W41509   3.731  26.449   4.383
69894W        W41510  25.620  21.958  13.989
69895W        W41511  18.388  37.587   2.778
69896W        W41512  14.913  13.740  13.060
69897W        W41513  42.312  15.896   4.867
69898W        W41514  12.124  25.514   3.730
69899W        W41515  16.215  26.719  12.877
69900W        W41516   6.112  12.175   2.226
69901W        W41517  40.439  16.003  14.497
69902W        W41518  30.190  34.976  13.821
69903W        W41519  25.096  37.891   4.539
69904W        W41520  16.567  10.857   4.808
69905W        W41521   0.985   6.425  14.502
69906W        W41522  16.373  31.179   1.945
69907W        W41523  31.731  40.480   1.890
69908W        W41524   7.679  41.975   1.439
69909W        W41525  37.508  33.324   0.801
69910W        W41526  23.605  44.789  12.597
69911W        W41527  41.751  33.693  11.544
69912W        W41528  31.457  37.898  12.999
69913W        W41529  29.409  14.084   1.957
69914W        W41530  17.440  28.917   0.753
69915W        W41531  26.418  27.417   2.708
69916W        W41532   9.351  23.771  10.629
69917W        W41533  26.047  11.650   0.015
69918W        W41534  33.036   0.453   5.196
69919W        W41535   5.419  28.908  10.606
69920W        W41536  44.286  29.978  12.983
69921W        W41537   8.279  39.343  10.586
69922W        W41538  32.096  43.732  13.202
69923W        W41539   5.193   5.838  10.611
69924W        W41540  40.723  33.632  10.579
69925W        W41541  30.633  13.306  14.032
69926W        W41542  29.059  43.269   1.809
69927W        W41543  42.392  18.145  13.091
69928W        W41544  28.384  10.297  11.019
69929W        W41545   1.382  20.441   1.425
69930W        W41546  26.247  21.027   3.806
69931W        W41547  26.285  14.983   4.231
69932W        W41548  16.390   9.369  14.719
69933W        W41549  41.074  14.072  12.563
69934W        W41550  37.371  24.626   3.621
69935W        W41551  11.852  40.878   2.301
69936W        W41552  14.345  36.860   1.745
69937W        W41553  20.629  40.291  11.179
69938W        W41554  26.510  11.162  12.370
69939W        W41555  31.414   2.468   2.958
69940W        W41556  44.408   3.301  10.390
69941W        W41557  31.701   6.275   3.304
69942W        W41558   7.371  29.662  14.321
69943W        W41559   4.004  28.590   4.337
69944W        W41560  38.015  44.412   1.958
69945W        W41561  19.605  10.919   1.251
69946W        W41562  43.886  22.471   0.335
69947W        W41563   2.597  28.927   3.599
69948W        W41564  11.189   3.801   2.356
69949W        W41565  13.480  44.421  13.573
69950W        W41566  43.259  11.272  11.245
69951W        W41567  17.409  42.932  11.095
69952W        W41568  34.537  26.664   3.572
69953W        W41569  27.924   0.276   1.533
69954W        W41570   4.477  32.308  13.440
69955W        W41571   7.797  24.792   3.772
69956W        W41572   6.346  33.447  10.834
69957W        W41573   4.712  10.821  13.488
69958W        W41574  36.667  28.103   0.417
69959W        W41575  27.136  34.341  13.483
69960W        W41576  25.668  28.668  13.516
69961W        W41577  32.674  40.821  12.072
69962W        W41578  37.053  10.146  11.363
69963W        W41579  26.077  38.420  11.051
69964W        W41580  12.789  20.852  12.846
69965W        W41581  28.012  11.885   0.417
69966W        W41582  32.518  37.109   4.123
69967W        W41583  44.821   5.953  12.917
69968W        W41584  36.576  16.434   1.678
69969W        W41585   8.908  11.889   0.514
69970W        W41586  33.517   5.718   3.275
69971W        W41587  23.676  40.835  12.431
69972W        W41588   8.936  28.153  10.644
69973W        W41589  24.916   0.228  13.498
69974W        W41590  35.463  34.158   3.722
69975W        W41591  34.151  18.854   0.056
69976W        W41592  11.436   4.647   1.810
69977W        W41593  39.785  12.040   1.395
69978W        W41594  26.113  41.900  12.268
69979W        W41595  23.248   3.317   0.435
69980W        W41596  31.975  26.407  12.417
69981W        W41597   2.386  11.199   3.311
69982W        W41598  32.380  11.680  10.794
69983W        W41599  40.527  24.943   2.769
69984W        W41600  37.119  37.825   4.507
69985W        W41601  23.785  31.631  13.460
69986W        W41602  43.075  40.667  14.026
69987W        W41603  20.103   4.806   2.191
69988W        W41604  44.391   6.842  13.085
69989W        W41605  36.881   1.011  14.625
69990W        W41606  31.946   0.394  12.530
69991W        W41607  27.415  31.721   0.239
69992W        W41608  34.009  39.690   1.150
69993W        W41609  18.189  12.717  10.673
69994W        W41610  15.600  10.833   3.189
69995W        W41611   6.683   6.816  14.464
69996W        W41612  37.868   6.098   4.123
69997W        W41613  33.030   4.070   2.648
69998W        W41614  28.513  13.999   9.823
69999W        W41615   2.885   9.142  10.616
70000W        W41616   5.218  22.927  13.553
70001W        W41617  16.556  43.960   4.165
70002W        W41618  39.020  27.846   0.982
70003W        W41619   4.410  11.341   2.355
70004W        W41620  37.591  20.595   1.291
70005W        W41621  28.291  43.962   4.183
70006W        W41622  44.784  36.559  14.642
70007W        W41623  28.156  17.311   0.777
70008W        W41624  15.997  16.097   0.947
70009W        W41625  41.462  42.977  12.807
70010W        W41626  33.201  39.293   0.300
70011W        W41627  10.867  10.168  11.191
70012W        W41628  20.029   1.896  13.585
70013W        W41629  39.889  40.247   3.621
70014W        W41630  24.179  22.101  13.398
70015W        W41631  21.888  34.852  11.549
70016W        W41632  24.182  30.754  12.858
70017W        W41633   0.911  18.028   2.329
70018W        W41634  30.066  25.436  10.647
70019W        W41635  21.475  36.113  13.959
70020W        W41636   3.518   6.163  12.405
70021W        W41637  30.682  28.845   3.639
70022W        W41638  39.013   2.456   3.206
70023W        W41639  25.992  42.741   2.361
70024W        W41640  14.748  37.033   0.823
70025W        W41641   0.504  28.646  10.449
70026W        W41642  37.619  44.905   4.131
70027W        W41643   0.481  42.653   5.184
70028W        W41644   3.638  42.913   3.626
70029W        W41645   6.474  25.480   3.816
70030W        W41646  23.057  30.460  10.798
70031W        W41647  44.568  16.239   5.018
70032W        W41648   3.282  22.546   3.195
70033W        W41649  12.106  20.061  14.893
70034W        W41650  30.140   9.084  12.041
70035W        W41651   0.990   9.367  12.043
70036W        W41652   0.038   9.318  13.836
70037W        W41653  31.129  23.614  14.913
70038W        W41654  39.861  10.342   0.054
70039W        W41655   1.289   5.376  10.635
70040W        W41656  22.492  19.008   1.897
70041W        W41657  31.406   4.752   2.261
70042W        W41658  18.182   9.223   3.538
70043W        W41659  19.523  13.559  14.496
70044W        W41660  38.368  40.926   4.700
70045W        W41661   7.391  14.757  10.820
70046W        W41662  30.875  41.497   0.902
70047W        W41663  31.004   7.407  10.599
70048W        W41664  28.365  18.008   4.409
70049W        W41665  14.305   5.688  10.750
70050W        W41666  13.688  31.141  13.907
70051W        W41667  42.146  26.469   1.008
70052W        W41668  34.082  12.127  12.494
70053W        W41669  17.266  42.811  13.310
70054W        W41670  42.696  16.580  11.860
70055W        W41671  44.800  12.022  11.337
70056W        W41672  28.069  33.476   2.408
70057W        W41673  31.691  36.524   2.250
70058W        W41674   3.818  28.917  13.565
70059W        W41675  30.322  35.088  13.305
70060W        W41676  37.098   2.791   3.210
70061W        W41677  27.925  26.973   0.836
70062W        W41678  15.978  21.115  10.245
70063W        W41679  36.905  15.037  11.206
70064W        W41680  39.908  34.573  12.892
70065W        W41681  43.329  36.555  11.159
70066W        W41682   3.866  35.319   4.107
70067W        W41683   1.225  23.010  13.660
70068W        W41684  16.976  34.106   2.645
70069W        W41685  12.787  14.923  13.270
70070W        W41686  24.529  35.150   3.247
70071W        W41687  18.284  17.031  14.324
70072W        W41688  44.725  33.916   0.390
70073W        W41689  31.400  42.824  13.477
70074W        W41690  38.271  42.364   0.888
70075W        W41691  41.399  14.469  14.373
70076W        W41692  32.979  31.365   1.903
70077W        W41693  37.054   7.904   1.417
70078W        W41694  30.827  24.515  12.947
70079W        W41695   1.693  35.008   4.809
70080W        W41696  26.645  12.337   1.357
70081W        W41697  19.271  25.017   1.160
70082W        W41698  30.027  15.614  13.113
70083W        W41699  43.852  32.819   0.790
70084W        W41700   7.231  17.760  14.048
70085W        W41701   1.412   1.702   0.930
70086W        W41702  44.314  23.481  12.504
70087W        W41703  10.150  42.002   3.229
70088W        W41704   3.264  25.199  13.196
70089W        W41705  10.788  20.808  11.928
70090W        W41706   0.422   5.951  10.646
70091W        W41707   3.796   7.947   2.806
70092W        W41708  32.822  14.773  12.151
70093W        W41709  32.235  26.421   3.653
70094W        W41710   8.595  14.833   1.171
70095W        W41711  37.175   8.311   0.081
70096W        W41712  32.857   3.668   0.683
70097W        W41713  38.819   3.432   1.868
70098W        W41714   2.262   3.740  13.915
70099W        W41715  11.758   6.701   1.020
70100W        W41716  31.083  10.145  12.518
70101W        W41717  31.656  14.095   3.841
70102W        W41718  41.780  38.326  14.302
70103W        W41719   8.792   5.413  11.125
70104W        W41720  36.925   6.063   1.230
70105W        W41721  32.392  20.551   4.827
70106W        W41722  43.323   4.192   0.101
70107W        W41723  40.412   6.654  13.374
70108W        W41724   3.371   6.266  11.243
70109W        W41725  40.590  43.896   0.368
70110W        W41726  36.941  21.838  13.866
70111W        W41727  27.465  40.748   4.230
70112W        W41728  42.473  17.595   3.883
70113W        W41729  26.207  28.756   4.211
70114W        W41730   3.823  20.347   2.730
70115W        W41731  35.053   1.875  13.241
70116W        W41732  28.729  25.496  12.514
70117W        W41733  36.513  38.461  14.305
70118W        W41734  25.183  23.807  11.723
70119W        W41735  16.767  40.045   1.965
70120W        W41736  16.741   7.192  13.944
70121W        W41737   0.952  24.956  13.218
70122W        W41738  16.213  42.794   5.141
70123W        W41739  42.648   5.805   1.304
70124W        W41740  25.565  14.182   5.201
70125W        W41741  26.239  19.605   1.375
70126W        W41742   0.117  12.244  10.953
70127W        W41743  21.528   6.827   4.603
70128W        W41744  15.360  42.513  13.317
70129W        W41745   4.768   2.003   1.367
70130W        W41746  17.300  36.031  14.273
70131W        W41747  41.133  17.061   3.721
70132W        W41748  27.087  12.814  13.980
70133W        W41749   1.732  20.158  11.649
70134W        W41750  30.460  14.516  13.564
70135W        W41751  26.050   8.219   1.270
70136W        W41752  13.336  16.230   0.838
70137W        W41753  18.539   7.115   3.406
70138W        W41754   7.495  23.702  10.724
70139W        W41755  15.696  24.094  14.711
70140W        W41756   7.771  14.217   4.109
70141W        W41757  13.091  32.200  11.734
70142W        W41758   8.264  24.728  14.060
70143W        W41759  41.572  11.768  11.008
70144W        W41760  33.098  37.819  13.391
70145W        W41761  24.095  15.639   2.204
70146W        W41762  23.129  42.752  13.091
70147W        W41763  39.495  31.786  11.492
70148W        W41764   6.225  28.500  10.705
70149W        W41765  33.353  31.204   4.400
70150W        W41766  39.380  10.325   2.668
70151W        W41767  19.089  37.901   2.235
70152W        W41768   3.621  40.216   1.323
70153W        W41769  29.542   0.004   2.882
70154W        W41770  25.242  39.496  14.254
70155W        W41771  32.195   4.249   2.806
70156W        W41772  32.027  26.093  14.973
70157W        W41773  24.164  26.743  12.983
70158W        W41774  31.387  39.339   4.015
70159W        W41775  44.349   6.945  14.887
70160W        W41776  42.842  42.543   0.271
70161W        W41777  33.861  40.744  10.744
70162W        W41778  39.400  41.643   2.242
70163W        W41779  43.445  36.535  10.647
70164W        W41780   6.507  10.226  13.298
70165W        W41781  28.447  16.108   5.433
70166W        W41782  40.208  38.357   0.835
70167W        W41783  12.728  22.324  13.899
70168W        W41784  26.961  41.233  11.566
70169W        W41785  40.855   7.374   0.064
70170W        W41786   8.436  11.583   4.173
70171W        W41787  43.512  43.799   2.418
70172W        W41788  19.786  11.839  12.060
70173W        W41789   1.723  14.705   1.814
70174W        W41790  10.842   0.239   1.842
70175W        W41791   1.840  13.385  10.738
70176W        W41792  36.269   4.724  10.765
70177W        W41793  10.171   3.505   0.410
70178W        W41794   4.468  28.742   2.233
70179W        W41795  40.553   7.183  13.062
70180W        W41796  18.120  30.216   2.654
70181W        W41797  28.126  14.050  10.204
70182W        W41798  32.430  15.345   0.635
70183W        W41799  16.602  18.218  10.090
70184W        W41800  12.762   1.022  11.529
70185W        W41801  39.365  34.886   1.728
70186W        W41802  10.773  10.004   0.380
70187W        W41803  36.658  30.582  12.965
70188W        W41804  21.655  11.816   2.199
70189W        W41805  33.889  20.822   1.216
70190W        W41806   3.430  25.897   4.588
70191W        W41807  40.543  44.480  12.831
70192W        W41808  16.383  13.341   2.366
70193W        W41809  31.404  40.362  11.258
70194W        W41810   5.808  15.094   3.662
70195W        W41811  33.622  38.884  13.416
70196W        W41812  44.314  32.392  12.066
70197W        W41813   1.327  32.177   2.876
70198W        W41814  14.149  10.793  12.353
70199W        W41815   8.295  19.281   1.665
70200W        W41816  14.181  31.545   1.216
70201W        W41817  35.097  12.074  12.483
70202W        W41818   6.460  25.466   2.591
70203W        W41819  18.936  32.472  13.828
70204W        W41820  17.534  36.336   3.396
70205W        W41821   8.322   6.154  14.749
70206W        W41822  29.925  30.134   4.345
70207W        W41823  38.414  28.429  14.476
70208W        W41824  35.528   5.913  14.967
70209W        W41825   0.353  42.915   1.789
70210W        W41826  43.722  15.074   2.789
70211W        W41827   0.031   3.518  14.383
70212W        W41828  43.923  16.986  11.037
70213W        W41829   1.904  33.236   1.421
70214W        W41830  31.055  32.336   2.472
70215W        W41831  36.033  32.611   1.879
70216W        W41832  18.349  24.636  11.426
70217W        W41833  38.487  23.336   4.275
70218W        W41834  22.839  42.036  11.561
70219W        W41835  15.354   0.312   4.633
70220W        W41836  21.451  33.496  14.971
70221W        W41837  23.838  17.206  13.520
70222W        W41838   7.433   7.167   3.238
70223W        W41839   5.158  26.604  11.001
70224W        W41840  29.107  12.302  11.019
70225W        W41841  31.701  37.405   2.843
70226W        W41842  44.432  25.438   2.454
70227W        W41843  13.589   4.817  12.779
70228W        W41844  14.173  28.030   4.857
70229W        W41845  12.237  26.489  14.413
70230W        W41846   5.661   5.012  12.949
70231W        W41847  21.097  21.948  11.663
70232W        W41848   6.271  37.308  13.808
70233W        W41849  44.286   3.422   0.649
70234W        W41850  24.376  37.548  14.953
70235W        W41851   0.320  44.004   0.843
70236W        W41852   9.334  40.590  11.618
70237W        W41853  13.156  29.311  12.863
70238W        W41854  38.537  12.519   1.397
70239W        W41855  12.648  15.773   3.643
70240W        W41856   3.807  19.694  11.181
70241W        W41857  29.998  37.612   4.204
70242W        W41858  26.375  20.680  12.135
70243W        W41859  36.465  35.361  13.024
70244W        W41860  19.150  33.527   3.211
70245W        W41861  34.583  22.141   3.675
70246W        W41862   7.820  23.119   2.256
70247W        W41863   2.808  16.646   3.576
70248W        W41864   5.972  27.619   4.063
70249W        W41865  35.857  23.704   2.446
70250W        W41866  16.687  22.514   3.701
70251W        W41867  42.403  19.762   1.385
70252W        W41868  27.869   7.429  11.091
70253W        W41869   7.565   6.379  12.955
70254W        W41870  44.267   3.415   2.105
70255W        W41871   6.933  34.627   2.923
70256W        W41872  20.471  28.943  13.328
70257W        W41873   7.285  31.949   2.712
70258W        W41874  17.768  20.072   1.337
70259W        W41875  23.577  18.542  13.513
70260W        W41876  40.041   5.182  14.798
70261W        W41877   3.786  22.118  14.667
70262W        W41878  26.483   5.643   2.891
70263W        W41879   3.085   1.675   2.222
70264W        W41880  14.439   4.501   1.030
70265W        W41881  39.303   5.287   0.770
70266W        W41882  42.067  34.341   3.832
70267W        W41883  26.734  21.232   0.830
70268W        W41884  44.697   5.794  11.983
70269W        W41885  34.851   4.654   3.659
70270W        W41886  44.289  19.250   4.385
70271W        W41887  36.756  43.246   1.856
70272W        W41888  11.864  40.898  13.321
70273W        W41889   3.658   5.885   2.774
70274W        W41890  15.088   8.852  10.771
70275W        W41891  37.383  11.611  10.196
70276W        W41892  29.719  38.379   1.292
70277W        W41893  25.817   1.059   1.341
70278W        W41894  21.667  29.192   2.786
70279W        W41895  16.780   8.566  11.340
70280W        W41896   0.291  33.964  13.451
70281W        W41897  37.414  43.870  12.518
70282W        W41898   8.671  27.092   2.180
70283W        W41899  41.909  30.700  12.601
70284W        W41900  11.877  38.016  12.342
70285W        W41901  33.485  28.851  14.343
70286W        W41902   7.356  23.289  11.535
70287W        W41903  14.114  20.913   3.295
70288W        W41904   3.027  34.699   1.382
70289W        W41905  21.292  26.645  12.926
70290W        W41906  42.036  42.826  12.176
70291W        W41907  13.966  12.400   2.939
70292W        W41908   5.335  36.823  12.438
70293W        W41909  10.960   4.951  14.803
70294W        W41910  30.494  10.158   2.264
70295W        W41911  14.841  20.607  13.797
70296W        W41912   6.712   8.714  12.372
70297W        W41913  21.566  43.912   4.634
70298W        W41914   6.911  31.998  10.965
70299W        W41915  39.955  29.875  14.055
70300W        W41916   2.707  27.973  14.335
70301W        W41917  10.357  23.627  12.200
70302W        W41918  16.129  15.033   4.170
70303W        W41919  13.700  27.397  11.469
70304W        W41920  16.901  19.281  11.590
70305W        W41921  14.150  42.232   1.753
70306W        W41922  16.163  43.917  13.544
70307W        W41923  23.146  27.593   2.578
70308W        W41924  36.613  23.926  10.758
70309W        W41925  36.066   6.723  12.688
70310W        W41926  37.886  19.819  13.429
70311W        W41927  19.951  27.939  14.044
70312W        W41928  44.371  36.529  14.104
70313W        W41929  41.272  32.049  11.483
70314W        W41930  13.538   5.809   0.830
70315W        W41931   9.238  38.906   4.439
70316W        W41932   3.790   4.664   3.987
70317W        W41933  44.402   3.427  12.895
70318W        W41934   1.428  13.186   0.922
70319W        W41935  16.233  22.094  11.560
70320W        W41936  20.379  39.034  14.303
70321W        W41937  11.969  31.502   1.263
70322W        W41938  16.243   3.535  14.945
70323W        W41939   3.219  23.920   1.751
70324W        W41940   8.897  23.180   1.838
70325W        W41941  13.778   9.177   4.357
70326W        W41942  30.478  34.040   4.153
70327W        W41943  32.485  41.485   2.663
70328W        W41944  34.459  11.458  14.910
70329W        W41945  10.543  42.942  11.503
70330W        W41946  30.573  24.938   2.259
70331W        W41947  33.806   2.228  13.332
70332W        W41948  33.817  24.287  11.466
70333W        W41949   5.191  24.018  14.445
70334W        W41950   6.850  35.361  12.882
70335W        W41951  36.510  39.306  12.872
70336W        W41952   8.059  12.088  10.503
70337W        W41953  16.222  14.294  12.625
70338W        W41954  40.255  10.530   4.761
70339W        W41955  13.777  13.153   5.252
70340W        W41956   9.237  42.805   4.431
70341W        W41957  18.385  23.228   2.540
70342W        W41958  30.347  16.258  11.092
70343W        W41959  37.439  26.342  11.558
70344W        W41960  16.262  40.148   3.662
70345W        W41961   3.936   0.463  13.949
70346W        W41962  28.530   1.464  14.945
70347W        W41963  44.425  34.731  14.867
70348W        W41964  41.907   4.314  13.350
70349W        W41965  24.814  23.041  14.032
70350W        W41966  26.964  19.056   1.176
70351W        W41967   9.554   0.980  12.052
70352W        W41968   1.918  32.337   1.736
70353W        W41969  31.030   9.398   4.164
70354W        W41970  22.933   4.361   4.179
70355W        W41971  36.327  25.379   2.806
70356W        W41972  28.486  41.419   3.262
70357W        W41973  43.776  13.631   4.926
70358W        W41974  29.146  21.999   4.015
70359W        W41975  10.589  24.533  12.655
70360W        W41976  10.883  38.559  13.066
70361W        W41977  30.393  15.205  11.476
70362W        W41978  18.240  27.752   4.125
70363W        W41979  11.886   9.135  14.968
70364W        W41980  22.665  18.861  14.383
70365W        W41981  33.492  16.797   4.503
70366W        W41982  13.091  17.734   3.137
70367W        W41983  44.336   9.717  12.430
70368W        W41984   6.657   7.996   2.468
70369W        W41985  33.923   2.244  12.820
70370W        W41986   7.788  36.501  13.003
70371W        W41987  21.300  42.896   0.280
70372W        W41988  27.930  35.554  12.579
70373W        W41989  17.586  24.208   5.010
70374W        W41990  41.245  13.085   2.204
70375W        W41991   6.205  33.624   1.612
70376W        W41992  27.050  20.554   3.106
70377W        W41993  20.773   8.917  11.152
70378W        W41994  25.524  15.306   1.234
70379W        W41995   1.340  15.169  14.790
70380W        W41996  11.579  13.593  11.291
70381W        W41997  14.406  29.002   4.664
70382W        W41998  41.537  38.858   3.269
70383W        W41999   3.660  14.326   1.385
70384W        W42000   4.696  22.608  11.610
70385W        W42001  14.314  21.144   1.400
70386W        W42002   3.993   9.485  11.943
70387W        W42003  19.462   4.246  14.780
70388W        W42004  15.489  16.744  14.354
70389W        W42005   1.679  19.088  10.709
70390W        W42006  32.652  44.334   4.327
70391W        W42007  31.098  25.575  10.694
70392W        W42008  25.562  30.670  11.227
70393W        W42009   8.877   9.244   2.863
70394W        W42010   1.944   2.508   2.195
70395W        W42011  40.343  15.289  11.962
70396W        W42012  12.241   5.289   3.646
70397W        W42013   8.173  25.088   2.358
70398W        W42014  19.089  31.348  11.717
70399W        W42015  24.056   0.384   3.213
70400W        W42016  31.145  13.630   1.281
70401W        W42017  30.027  27.437   1.344
70402W        W42018  11.703  23.977   4.480
70403W        W42019  25.459   1.922  12.312
70404W        W42020   1.104  24.047  10.660
70405W        W42021   0.199  24.433  12.074
70406W        W42022  28.098   3.358   0.415
70407W        W42023  43.271   0.223  12.802
70408W        W42024  28.128  13.619  12.307
70409W        W42025  41.826  39.791  11.142
70410W        W42026  41.670  34.502  13.909
70411W        W42027  31.044  29.853   5.430
70412W        W42028   0.946  18.512   4.138
70413W        W42029  13.515  10.203  10.760
70414W        W42030  37.823  25.186   1.883
70415W        W42031  36.878  38.805  10.473
70416W        W42032  44.424  13.228  10.737
70417W        W42033  24.238  36.111   9.907
70418W        W42034  17.641   7.736   4.022
70419W        W42035  41.011  30.277   1.024
70420W        W42036  39.770  12.387   5.071
70421W        W42037  29.018   4.985   3.690
70422W        W42038  39.034   8.159  13.173
70423W        W42039  29.454  15.067  13.054
70424W        W42040   3.962   1.780   3.586
70425W        W42041  44.097  21.676  13.732
70426W        W42042  31.059   3.138  13.019
70427W        W42043  14.267  38.521  12.400
70428W        W42044  18.688  36.835   4.135
70429W        W42045  14.258  21.507   4.114
70430W        W42046  27.070  33.390   1.363
70431W        W42047  18.642  11.569   2.782
70432W        W42048  10.916   8.866  10.822
70433W        W42049  21.233  24.479   4.548
70434W        W42050  40.948   6.857   0.016
70435W        W42051  28.428  39.931   4.377
70436W        W42052  25.641  18.612   5.056
70437W        W42053  36.451  16.280   3.737
70438W        W42054  25.121   8.208   5.062
70439W        W42055  12.346  20.200   4.169
70440W        W42056  12.194   1.366  11.029
70441W        W42057  33.407  39.393  12.776
70442W        W42058   5.629  10.252   2.481
70443W        W42059  11.301  16.207   4.473
70444W        W42060  15.764   0.631  12.018
70445W        W42061  11.119  33.787   2.177
70446W        W42062  41.647  34.379   1.152
70447W        W42063  10.242  22.139   0.975
70448W        W42064  28.899  14.661  14.249
70449W        W42065  18.512   0.960  12.077
70450W        W42066   0.999  17.451  13.328
70451W        W42067  14.117  17.967   4.292
70452W        W42068  22.719  24.643  11.594
70453W        W42069  39.349  39.730   0.111
70454W        W42070  36.539  43.984   3.813
70455W        W42071  26.795   0.655  12.026
70456W        W42072  36.439  34.892  13.239
70457W        W42073  37.422  10.454   3.298
70458W        W42074  41.851  28.552  14.982
70459W        W42075  34.434  21.165  14.405
70460W        W42076  37.823  22.085  12.407
70461W        W42077   5.434  33.666   2.743
70462W        W42078  36.816   8.387   3.672
70463W        W42079  38.457   3.350  10.697
70464W        W42080  21.878  29.138  13.962
70465W        W42081  29.257  30.483   5.074
70466W        W42082   5.939   4.856  14.891
70467W        W42083  24.423  22.338   3.647
70468W        W42084  18.059  11.852  14.997
70469W        W42085  16.560  16.855  10.986
70470W        W42086  19.140  35.193  13.406
70471W        W42087  35.545  12.111   2.740
70472W        W42088   4.183  15.273   1.233
70473W        W42089  27.801   0.353  13.430
70474W        W42090  36.051  40.842  12.898
70475W        W42091  32.521  11.032  11.897
70476W        W42092   4.730  12.331  10.886
70477W        W42093   5.292  33.089  12.156
70478W        W42094  26.980  32.722   2.761
70479W        W42095   2.459   0.789  11.527
70480W        W42096  31.951  43.342  12.882
70481W        W42097  43.530  42.973   1.207
70482W        W42098   2.424  15.608   0.460
70483W        W42099  41.924  39.888   3.759
70484W        W42100  35.969   9.132   4.063
70485W        W42101  32.855  35.220   2.187
70486W        W42102  44.873  36.976   4.942
70487W        W42103  33.170  10.188  12.127
70488W        W42104  37.780  42.550   2.358
70489W        W42105  30.138   8.797   4.380
70490W        W42106  19.208  32.374   0.200
70491W        W42107  37.028  28.163  14.851
70492W        W42108   8.400  23.557  14.516
70493W        W42109  40.604  31.119  14.356
70494W        W42110  35.817  16.150  10.834
70495W        W42111  44.185  27.909   4.618
70496W        W42112  11.863  32.469   3.278
70497W        W42113  22.132   0.272  13.433
70498W        W42114  14.571  35.016   1.888
70499W        W42115  37.271  30.629   3.676
70500W        W42116   2.233  15.228   4.592
70501W        W42117   5.033  15.136   4.140
70502W        W42118  39.325   7.552   0.885
70503W        W42119  31.227  38.938  13.524
70504W        W42120  34.803   2.860  14.227
70505W        W42121  13.989  28.772   3.764
70506W        W42122  42.279  36.887  13.381
70507W        W42123  10.250  20.898  11.024
70508W        W42124  25.910   0.748   1.758
70509W        W42125  30.702  33.075  12.129
70510W        W42126  18.154  36.791  14.090
70511W        W42127  34.737  32.650  13.073
70512W        W42128   4.748   9.751  10.709
70513W        W42129  11.742  30.402  14.280
70514W        W42130  11.493   9.713   1.644
70515W        W42131   7.757  42.383  11.126
70516W        W42132   2.148  16.731  13.568
70517W        W42133  39.323  20.550  13.091
70518W        W42134  41.288  44.307   0.408
70519W        W42135   6.773  35.655  14.295
70520W        W42136   7.338  34.013   1.232
70521W        W42137  44.951  40.893   2.868
70522W        W42138   2.269   3.239   4.113
70523W        W42139  13.073  25.328  10.295
70524W        W42140  10.384   8.274   1.464
70525W        W42141  15.225  17.103   1.244
70526W        W42142  14.902  28.933  11.600
70527W        W42143  28.038  11.154  10.621
70528W        W42144  43.893  19.570   2.422
70529W        W42145  40.349  13.728   4.629
70530W        W42146  22.347  34.054  12.979
70531W        W42147   0.658  22.792   4.152
70532W        W42148  39.778  30.543  13.001
70533W        W42149  12.156  27.480   2.974
70534W        W42150   8.589  39.849  12.451
70535W        W42151   6.760  10.868   3.174
70536W        W42152  39.890  31.468  11.399
70537W        W42153  33.946  42.348   2.958
70538W        W42154  22.984  31.149  12.550
70539W        W42155  16.152   9.373   1.816
70540W        W42156   2.364   0.695  12.024
70541W        W42157  32.077  22.055  13.978
70542W        W42158  38.347  36.013  14.710
70543W        W42159  23.766  16.196  14.260
70544W        W42160  30.525  17.015  13.864
70545W        W42161  35.565   6.846   1.504
70546W        W42162  34.913  19.183   3.200
70547W        W42163  31.688  18.560  13.876
70548W        W42164  22.790   9.265  10.930
70549W        W42165  44.895  10.908   4.256
70550W        W42166  43.698   3.388   1.779
70551W        W42167   6.155  36.404   3.247
70552W        W42168   7.375  27.748  13.073
70553W        W42169   3.696  14.534   0.900
70554W        W42170  40.925  16.864  14.274
70555W        W42171  14.963  29.825  11.716
70556W        W42172  39.373  21.416  13.455
70557W        W42173  26.856   7.225   9.661
70558W        W42174  16.827  39.325  14.293
70559W        W42175  19.541  28.241   4.170
70560W        W42176  41.467   4.402   2.313
70561W        W42177  34.365  12.068  11.679
70562W        W42178  16.054  18.007   1.310
70563W        W42179  37.432  41.007   0.434
70564W        W42180  13.596  41.726   4.098
70565W        W42181  37.931  38.372  14.912
70566W        W42182  24.543  40.700  14.854
70567W        W42183  27.525  11.897  11.571
70568W        W42184   9.733  14.444  14.927
70569W        W42185  33.188  19.701  11.928
70570W        W42186  21.797  20.104   0.467
70571W        W42187  15.070   8.344  10.707
70572W        W42188  18.987   2.694   3.405
70573W        W42189  16.797  37.527   5.042
70574W        W42190  14.046  10.680   2.334
70575W        W42191  42.909  23.802   0.702
70576W        W42192  33.593  13.641   4.554
70577W        W42193  24.513  41.613  11.236
70578W        W42194  32.086  42.898   4.170
70579W        W42195   4.182  23.015   0.885
70580W        W42196   7.434  28.493   1.155
70581W        W42197  27.991  43.259  10.722
70582W        W42198   4.186  12.103  12.356
70583W        W42199   0.296  29.408   0.426
70584W        W42200  29.514   3.373  11.981
70585W        W42201  14.336   5.010  14.860
70586W        W42202  44.047  28.706  11.574
70587W        W42203  33.453  42.918   0.855
70588W        W42204  30.983  19.477   0.246
70589W        W42205  27.671  16.844  10.357
70590W        W42206  30.301  15.830   0.385
70591W        W42207  10.686  30.958   4.625
70592W        W42208  15.600  30.945   3.326
70593W        W42209   5.971  44.576  14.768
70594W        W42210  44.477  26.962   0.413
70595W        W42211  39.392   9.229   4.633
70596W        W42212  25.650  20.573  11.584
70597W        W42213  13.838  29.490   0.476
70598W        W42214   0.683  40.487  12.115
70599W        W42215  12.580   0.456   1.535
70600W        W42216  16.614   2.923  11.649
70601W        W42217  19.336  17.011  13.863
70602W        W42218   8.219  38.012  14.057
70603W        W42219   6.641  20.100  13.467
70604W        W42220  27.512   3.310   1.329
70605W        W42221  15.254  23.757   0.284
70606W        W42222  10.938  24.247  14.023
70607W        W42223  13.321  17.807  13.417
70608W        W42224  10.368  22.026  14.998
70609W        W42225  22.993  35.149   2.407
70610W        W42226   7.864  44.331  11.568
70611W        W42227  36.813   2.758  13.487
70612W        W42228  40.129  21.061  11.559
70613W        W42229  30.338  44.286  13.932
70614W        W42230  23.782  34.965  14.806
70615W        W42231  39.803  39.044  14.885
70616W        W42232  27.112  24.987   3.547
70617W        W42233  31.546  42.885   4.125
70618W        W42234  12.854  44.531  11.463
70619W        W42235   5.444  43.406  13.928
70620W        W42236  38.687  27.121  13.992
70621W        W42237   0.341   1.392  13.487
70622W        W42238  26.413   2.459   4.237
70623W        W42239  43.101  35.949  11.432
70624W        W42240   3.538  21.702  14.857
70625W        W42241  28.565  19.199  10.510
70626W        W42242   3.552  35.363  10.698
70627W        W42243  16.095  34.586  11.934
70628W        W42244  11.745  36.300   5.083
70629W        W42245   6.403   1.398  11.441
70630W        W42246  38.862  41.424  13.844
70631W        W42247  33.473  19.033  13.870
70632W        W42248  41.120  32.397  13.080
70633W        W42249  12.122  15.751  11.578
70634W        W42250  37.295  43.482   4.321
70635W        W42251  36.611  41.523  13.274
70636W        W42252  38.927  28.671   5.057
70637W        W42253  40.255  22.163   3.642
70638W        W42254  21.893  13.527  12.551
70639W        W42255  12.315  29.426   0.495
70640W        W42256  17.755  41.293   3.839
70641W        W42257  44.966  40.124   2.403
70642W        W42258  16.616  14.744   4.144
70643W        W42259  10.712  39.270  14.110
70644W        W42260  23.236  44.642  11.621
70645W        W42261  10.602  21.271   0.345
70646W        W42262   1.111   0.819  14.988
70647W        W42263  43.317   0.081   3.273
70648W        W42264   6.013   4.753  11.578
70649W        W42265  43.017  12.981   0.391
70650W        W42266   4.710  17.801   0.313
70651W        W42267  24.527  42.300  10.735
70652W        W42268  38.997   7.781   3.278
70653W        W42269  25.021  41.434  14.361
70654W        W42270   2.667  23.481  10.056
70655W        W42271  21.902   7.915   3.668
70656W        W42272   4.312  39.118   0.866
70657W        W42273  25.561  19.057  13.118
70658W        W42274  14.730  42.816  12.951
70659W        W42275   7.251  16.348  12.907
70660W        W42276   4.868  30.090  11.499
70661W        W42277  23.110  43.844   0.930
70662W        W42278  24.221  11.902  11.231
70663W        W42279  14.645  18.591   0.567
70664W        W42280  21.381   6.887  12.511
70665W        W42281  10.165  17.167  14.014
70666W        W42282  34.592  40.079  14.493
70667W        W42283  10.590   0.279  11.578
70668W        W42284   3.365  13.058  11.034
70669W        W42285  25.957  26.512   4.489
70670W        W42286  23.711   0.474   1.063
70671W        W42287  32.662  31.627   0.936
70672W        W42288  14.036  28.191  11.141
70673W        W42289  42.591  17.130   4.619
70674W        W42290   4.329  13.612  10.530
70675W        W42291  26.993  32.539  12.347
70676W        W42292  27.957  36.322   2.784
70677W        W42293  14.406   1.483   2.270
70678W        W42294   3.869  17.193   3.581
70679W        W42295   6.158  18.503  11.175
70680W        W42296  18.061  35.323   1.257
70681W        W42297   4.207   4.170  14.197
70682W        W42298  27.961   6.401   2.876
70683W        W42299  41.288  37.298   1.251
70684W        W42300  30.451   8.628   1.320
70685W        W42301  17.155   0.044   4.502
70686W        W42302  29.497  25.970  12.056
70687W        W42303   7.917  29.599   1.851
70688W        W42304  34.370  36.403  11.037
70689W        W42305  25.656   4.127  12.823
70690W        W42306   7.310  25.726   2.074
70691W        W42307  31.695  44.938   0.132
70692W        W42308  29.471  11.390  11.582
70693W        W42309  19.978  31.407  12.570
70694W        W42310  39.297  34.417   2.369
70695W        W42311  15.137  17.023  13.775
70696W        W42312  28.746  11.764  14.952
70697W        W42313   5.685  42.362   3.986
70698W        W42314  19.159   6.719  10.663
70699W        W42315  40.928  13.267  14.505
70700W        W42316   9.871  42.823  12.870
70701W        W42317  24.952  13.961   4.099
70702W        W42318  29.291  25.070   0.821
70703W        W42319  12.862  38.138   0.390
70704W        W42320  22.074  10.336  13.397
70705W        W42321  35.837  22.856  12.377
70706W        W42322   8.783  24.749  11.300
70707W        W42323  16.752  39.811   3.414
70708W        W42324  18.248  36.585   3.822
70709W        W42325  18.856  35.875  11.156
70710W        W42326  32.476  16.368  14.011
70711W        W42327   7.107  31.960  14.519
70712W        W42328   1.705  27.122  14.440
70713W        W42329   0.012  41.104  13.020
70714W        W42330  22.609  26.219   3.879
70715W        W42331  25.283  16.092  10.290
70716W        W42332  33.608  20.256  11.095
70717W        W42333  16.612   1.235  13.968
70718W        W42334   8.562   1.329   3.639
70719W        W42335  26.296  36.034  10.890
70720W        W42336  41.976  15.070   4.836
70721W        W42337  14.539   8.588   4.007
70722W        W42338  28.023  40.693  10.593
70723W        W42339  14.058  19.170  14.331
70724W        W42340  19.424  35.499   1.426
70725W        W42341   9.715  30.408   3.628
70726W        W42342  27.202  33.699   2.976
70727W        W42343  13.105  40.776  11.633
70728W        W42344  22.862  22.604   0.119
70729W        W42345  21.174  37.765  11.869
70730W        W42346  38.212  34.304   1.253
70731W        W42347  33.621   4.568  11.038
70732W        W42348  36.103  25.939   1.346
70733W        W42349  20.033  32.648  12.981
70734W        W42350   1.924   4.423   1.173
70735W        W42351  36.044  11.570   0.308
70736W        W42352   9.623  34.370  10.072
70737W        W42353  31.199  37.505   4.684
70738W        W42354  31.181  14.184  14.268
70739W        W42355   5.665   6.840   1.222
70740W        W42356  16.960  29.676   2.815
70741W        W42357  19.058  36.385  14.900
70742W        W42358  23.485  41.719  14.900
70743W        W42359  42.784  15.793   2.312
70744W        W42360  24.928  31.129   2.754
70745W        W42361  28.982  35.603   1.894
70746W        W42362  42.932  42.645   4.480
70747W        W42363  43.013  22.447   0.773
70748W        W42364  21.209  12.342   0.474
70749W        W42365   0.873  10.340   2.653
70750W        W42366  27.927  17.517   9.851
70751W        W42367  34.179  17.150   9.981
70752W        W42368  36.226   2.680   2.137
70753W        W42369   4.210  28.804   3.906
70754W        W42370  25.573  28.433  11.491
70755W        W42371   0.325  39.964   3.144
70756W        W42372  42.979  34.943  14.928
70757W        W42373  17.298  30.372  12.530
70758W        W42374   1.340  39.884   1.086
70759W        W42375  25.920  11.832   2.935
70760W        W42376  26.401  22.239   4.566
70761W        W42377  14.050  10.769  11.050
70762W        W42378  26.102  14.754   4.637
70763W        W42379  40.506  27.222   0.594
70764W        W42380  29.255  25.652   4.276
70765W        W42381  23.731   9.750   3.657
70766W        W42382   9.330  42.556  11.083
70767W        W42383   2.034  27.520  14.533
70768W        W42384  34.141  24.157  13.158
70769W        W42385   0.470  22.008   1.438
70770W        W42386  42.860  38.343  10.751
70771W        W42387  11.829   4.813  10.704
70772W        W42388  30.185  32.517   2.497
70773W        W42389  14.137  20.105   4.739
70774W        W42390   2.718  15.915  14.067
70775W        W42391  41.462  23.665  14.764
70776W        W42392  37.711   6.947  11.182
70777W        W42393  14.719  16.674  10.183
70778W        W42394  33.871   4.842  14.273
70779W        W42395   4.704  26.124  12.739
70780W        W42396  31.150  13.054   0.455
70781W        W42397  25.514   0.791   0.227
70782W        W42398  16.049  15.538  14.865
70783W        W42399  35.823  12.759  13.794
70784W        W42400  21.614   9.598   1.858
70785W        W42401  29.175  43.725  14.783
70786W        W42402  16.742  41.608  13.043
70787W        W42403  18.682  38.412   4.225
70788W        W42404  31.444  36.586  10.999
70789W        W42405  27.517  13.421   2.397
70790W        W42406   1.916  20.232   1.334
70791W        W42407  32.326  33.210  14.415
70792W        W42408   9.382  12.677  14.687
70793W        W42409  30.052  39.587   2.214
70794W        W42410  41.178  23.182  11.474
70795W        W42411   0.337  12.990  12.943
70796W        W42412  33.810  27.707   0.702
70797W        W42413   1.855  11.764   4.059
70798W        W42414  30.772  34.207  12.790
70799W        W42415  18.092   7.844  13.762
70800W        W42416  42.385  38.820  14.724
70801W        W42417  40.806  19.554   0.579
70802W        W42418  35.853  25.167   3.682
70803W        W42419  34.429  38.231  11.591
70804W        W42420   9.199   9.600  11.098
70805W        W42421  43.352  18.304  11.927
70806W        W42422  34.054  23.032   3.569
70807W        W42423  40.972  40.335   1.789
70808W        W42424   4.449  37.889   2.339
70809W        W42425  36.470  22.216   3.671
70810W        W42426  20.453  23.207   2.496
70811W        W42427  25.951  40.070  13.907
70812W        W42428  36.150   6.373   2.342
70813W        W42429   8.185   3.043  12.836
70814W        W42430  26.136   9.337   4.590
70815W        W42431   3.234  24.180   3.269
70816W        W42432  42.615  32.411   0.817
70817W        W42433  43.796   0.069  13.892
70818W        W42434   0.880   4.254  10.250
70819W        W42435  23.124   8.364   2.845
70820W        W42436  38.019  29.940   3.828
70821W        W42437  28.833  29.522   0.769
70822W        W42438  30.059  16.206   1.355
70823W        W42439   7.061  26.362  12.495
70824W        W42440  29.063   8.856  10.770
70825W        W42441  40.507   8.700  14.706
70826W        W42442   4.244  17.272   2.324
70827W        W42443  15.635  16.864   4.418
70828W        W42444  29.562  44.519  13.095
70829W        W42445  42.674   2.397   2.256
70830W        W42446  33.026   4.130  10.639
70831W        W42447  33.866  23.089   3.094
70832W        W42448   8.263  20.578   4.727
70833W        W42449   0.887  21.496   2.722
70834W        W42450  22.982   1.850  12.952
70835W        W42451   1.991   3.984   2.186
70836W        W42452  14.781  15.245   0.251
70837W        W42453   0.247  33.391   1.452
70838W        W42454  10.426  43.393   3.392
70839W        W42455  25.635  29.147   0.985
70840W        W42456  13.363  15.693  11.119
70841W        W42457   5.984  15.931  11.063
70842W        W42458   2.460  22.511  12.987
70843W        W42459  15.235  13.038  14.267
70844W        W42460  37.976  21.579   1.460
70845W        W42461  19.376  18.121  13.336
70846W        W42462  34.453  31.160  14.808
70847W        W42463  14.643  30.589  11.005
70848W        W42464   9.204  10.698  13.376
70849W        W42465  13.342  28.130  13.866
70850W        W42466  23.526  15.094   4.156
70851W        W42467  35.095  15.917  14.133
70852W        W42468   8.200   4.331   1.406
70853W        W42469  26.688   3.263  14.461
70854W        W42470  22.294  16.714  12.468
70855W        W42471  38.713  15.640  14.749
70856W        W42472  42.842   8.784   0.442
70857W        W42473  44.245  33.982   4.304
70858W        W42474  10.848  39.327   3.776
70859W        W42475  30.669   8.225  13.099
70860W        W42476  21.627  21.255   1.427
70861W        W42477  34.679  16.230   4.589
70862W        W42478  26.608  18.331   2.938
70863W        W42479   7.402   0.856   3.860
70864W        W42480  21.531  43.465   2.328
70865W        W42481   4.920   2.700  10.261
70866W        W42482   7.428  43.217   0.207
70867W        W42483   4.418  10.942   4.506
70868W        W42484  15.272   3.681  11.667
70869W        W42485  16.266  33.080  11.383
70870W        W42486  15.631  11.960   3.674
70871W        W42487  32.533   7.430  11.176
70872W        W42488  42.964  31.027  11.662
70873W        W42489   1.474  26.293  11.505
70874W        W42490  21.257  22.800   2.181
70875W        W42491  15.809  34.971   0.055
70876W        W42492   9.623  44.628  13.494
70877W        W42493  13.108  34.809   0.920
70878W        W42494   7.340  33.384  14.847
70879W        W42495  40.547  43.725  11.553
70880W        W42496   6.568  14.120   1.133
70881W        W42497  23.260  32.199   2.805
70882W        W42498  20.829  25.927  11.194
70883W        W42499  20.600  15.172  10.685
70884W        W42500  20.289  25.270   5.130
70885W        W42501  39.043  40.457   4.255
70886W        W42502   0.084  40.873  11.624
70887W        W42503   0.506  18.082   3.224
70888W        W42504  18.045  32.974  10.624
70889W        W42505  19.071  40.498  13.954
70890W        W42506  23.977  29.086  14.836
70891W        W42507   4.838  24.902   5.037
70892W        W42508   5.826  21.345  11.971
70893W        W42509  15.172  22.125  12.516
70894W        W42510  17.694   7.629  12.062
70895W        W42511  25.743  12.531   4.692
70896W        W42512  44.162  27.270  13.111
70897W        W42513  33.310   1.661   0.027
70898W        W42514   6.967   3.427  13.933
70899W        W42515   5.868  15.704  12.013
70900W        W42516  25.314  13.214   0.062
70901W        W42517   2.317  18.309   4.329
70902W        W42518  40.258  42.531   0.292
70903W        W42519  21.480  26.466   3.272
70904W        W42520  16.091  13.669  10.968
70905W        W42521  34.199   0.544   1.431
70906W        W42522   8.400  27.525   2.293
70907W        W42523  40.458  36.274   1.518
70908W        W42524  18.595   9.822   2.752
70909W        W42525  14.532  22.178   4.087
70910W        W42526  26.451  29.566   4.852
70911W        W42527  29.497  21.691  14.550
70912W        W42528  31.756  13.890   1.831
70913W        W42529   6.863  13.690   4.318
70914W        W42530  31.411  15.334   3.231
70915W        W42531  40.197   7.314  11.602
70916W        W42532  37.528  12.326  10.420
70917W        W42533  14.050  23.674   3.794
70918W        W42534  29.633  26.241   0.268
70919W        W42535   9.796  16.369  14.280
70920W        W42536  13.044   6.768  13.480
70921W        W42537  23.222  44.372  12.421
70922W        W42538  41.900  24.496   1.275
70923W        W42539   7.264   9.679   2.589
70924W        W42540   7.728  29.137   3.146
70925W        W42541   7.065  24.118  13.957
70926W        W42542  27.732  44.889  13.934
70927W        W42543   2.868  10.493  13.302
70928W        W42544  37.530   8.844   2.484
70929W        W42545  38.356   8.397  11.946
70930W        W42546  30.327   6.923  13.177
70931W        W42547  24.063  34.857   3.323
70932W        W42548  18.753  43.232  13.439
70933W        W42549  40.475  12.412  13.363
70934W        W42550  38.576   7.214   4.263
70935W        W42551  11.302   9.902   2.785
70936W        W42552  24.254  41.614  13.426
70937W        W42553  12.291  27.015   3.148
70938W        W42554  41.420  34.611  11.597
70939W        W42555  23.298  16.690   4.635
70940W        W42556  25.156   9.107  14.006
70941W        W42557   0.957  24.111   1.739
70942W        W42558  40.871  14.315   0.260
70943W        W42559  11.910  30.470   0.678
70944W        W42560  38.969  28.157   1.428
70945W        W42561  27.573  30.198  11.658
70946W        W42562  20.598  18.228  11.986
70947W        W42563  32.645  23.695  13.174
70948W        W42564  12.238  28.129   4.783
70949W        W42565  37.893   0.159   2.808
70950W        W42566   2.122   6.790  11.629
70951W        W42567  30.574  29.941   1.373
70952W        W42568  39.232  12.034   4.073
70953W        W42569  20.699   1.217   3.203
70954W        W42570  42.934  38.059   1.317
70955W        W42571  43.955  31.158  12.784
70956W        W42572   0.500  19.044  14.737
70957W        W42573  20.159  25.174   4.272
70958W        W42574  38.847  22.174  11.630
70959W        W42575  22.251   6.299  13.956
70960W        W42576   2.983  20.727  10.588
70961W        W42577   0.852  21.407  12.520
70962W        W42578   4.132  42.071  12.365
70963W        W42579  16.749  16.226   1.787
70964W        W42580   8.329   2.561  12.855
70965W        W42581  39.035   6.930  13.467
70966W        W42582  12.112  20.737   1.429
70967W        W42583  32.968   3.545  14.453
70968W        W42584  37.036  23.656   3.696
70969W        W42585  31.906  33.621   3.283
70970W        W42586   6.307  44.954  13.887
70971W        W42587  34.479   8.299   3.349
70972W        W42588   0.292   7.179   1.908
70973W        W42589  39.523   4.995  12.504
70974W        W42590  32.939  30.854  10.499
70975W        W42591   6.235  44.225  11.614
70976W        W42592  25.260  11.638  10.347
70977W        W42593   0.962  30.059  10.504
70978W        W42594  17.733  42.066   4.322
70979W        W42595  33.888   5.447  12.557
70980W        W42596   4.929  17.585   1.285
70981W        W42597  41.510   5.232  12.325
70982W        W42598  44.719  15.072  14.442
70983W        W42599  26.865  42.080  14.818
70984W        W42600  12.160  31.890   4.370
70985W        W42601   6.376   1.410   1.845
70986W        W42602  28.928  32.850   0.613
70987W        W42603   8.052  39.851   3.763
70988W        W42604  17.792  38.486  14.130
70989W        W42605  37.030  31.528   2.433
70990W        W42606  16.247   3.030   2.155
70991W        W42607   3.370  38.495  11.740
70992W        W42608  27.376   5.734   2.633
70993W        W42609  20.699   1.392   3.787
70994W        W42610  40.413  13.276   4.369
70995W        W42611   6.640  43.440   0.804
70996W        W42612  27.933   1.267  12.803
70997W        W42613  37.571  14.277   0.724
70998W        W42614  10.447  36.043  13.396
70999W        W42615  44.915  30.831   3.269
71000W        W42616  36.013  42.646   3.538
71001W        W42617   5.095  44.457   3.482
71002W        W42618  21.499  36.529   4.594
71003W        W42619  24.593  33.681   1.736
71004W        W42620  22.954  10.784   1.441
71005W        W42621  17.352   0.400   4.792
71006W        W42622  16.487  24.681  13.360
71007W        W42623   3.710  34.507  11.026
71008W        W42624   4.672   7.449   1.535
71009W        W42625  11.146  26.524  13.441
71010W        W42626  19.692  23.432   0.700
71011W        W42627  38.914  36.864  12.057
71012W        W42628  11.692  19.669  10.360
71013W        W42629  25.113  14.502  14.727
71014W        W42630  21.173  23.978  12.063
71015W        W42631  13.330  16.541  11.068
71016W        W42632  32.350   3.522  14.925
71017W        W42633  33.960  36.149   3.095
71018W        W42634  25.202  17.028  12.856
71019W        W42635  12.020   3.078  11.224
71020W        W42636  42.731  18.361   4.176
71021W        W42637  12.372  28.034   2.380
71022W        W42638   7.863  35.122   0.558
71023W        W42639  32.511   8.288   2.332
71024W        W42640  21.903  15.585   4.653
71025W        W42641  18.924  40.917   0.362
71026W        W42642   7.335  36.289   0.573
71027W        W42643  16.662   0.878   4.818
71028W        W42644  24.779   1.389   3.181
71029W        W42645  23.615  39.747  13.896
71030W        W42646  21.977  28.801   3.580
71031W        W42647  23.575  23.939   4.307
71032W        W42648  39.920  28.945  11.511
71033W        W42649   4.670  38.067  13.950
71034W        W42650  42.330  14.017   4.145
71035W        W42651  44.422  20.420  14.445
71036W        W42652  16.275  34.914  14.865
71037W        W42653   7.376  12.119   1.238
71038W        W42654   0.412   5.404   3.613
71039W        W42655   1.928  43.016   0.334
71040W        W42656  33.878  19.579   4.152
71041W        W42657  12.045   9.629  14.890
71042W        W42658  32.906  17.622   2.669
71043W        W42659  30.743  11.306  13.214
71044W        W42660  26.005  34.015  13.740
71045W        W42661  20.792  38.417  12.178
71046W        W42662  18.008  15.628  14.064
71047W        W42663  25.058   2.347   2.864
71048W        W42664   5.249  40.162  14.911
71049W        W42665   9.646  25.048   3.224
71050W        W42666   4.209  38.221  11.202
71051W        W42667  23.721  32.149  10.987
71052W        W42668   5.955   7.720  11.016
71053W        W42669  43.455  16.673   2.922
71054W        W42670   8.250  41.349   0.774
71055W        W42671  35.071  32.908  14.266
71056W        W42672  41.923  39.297  14.315
71057W        W42673  31.033   4.843  13.894
71058W        W42674  20.363  27.662   2.858
71059W        W42675  27.407  16.346   3.197
71060W        W42676   5.658   0.410  10.276
71061W        W42677  15.742  14.846   3.375
71062W        W42678  12.351  12.206   2.185
71063W        W42679  41.068   2.722  14.724
71064W        W42680  34.071   2.391  11.426
71065W        W42681  28.102  39.951   0.326
71066W        W42682  25.389  15.121  11.041
71067W        W42683   1.858   4.929   3.409
71068W        W42684   4.445  42.485  12.967
71069W        W42685  27.453  32.103  13.100
71070W        W42686   2.270   9.035  11.752
71071W        W42687  12.174   8.176  14.313
71072W        W42688  32.419  27.858   1.521
71073W        W42689  37.072  26.531  14.470
71074W        W42690  37.135  26.228   2.266
71075W        W42691   4.112  40.473   1.361
71076W        W42692   4.682  37.579   0.972
71077W        W42693  43.770  21.668   2.809
71078W        W42694  14.326  42.994  11.074
71079W        W42695  19.776  21.549   3.226
71080W        W42696   4.231  35.904   3.873
71081W        W42697  41.468  18.638  14.021
71082W        W42698  19.549  10.597  14.937
71083W        W42699  40.793   6.028  14.297
71084W        W42700  37.098  12.578  12.090
71085W        W42701  12.253  16.498  11.130
71086W        W42702  27.817   8.140   4.094
71087W        W42703  35.844  14.879   0.343
71088W        W42704  27.790  40.070  13.057
71089W        W42705  39.294  26.800   4.195
71090W        W42706  18.154  42.562   2.201
71091W        W42707  18.172   5.392   4.563
71092W        W42708  33.236   6.578  13.214
71093W        W42709  12.445   4.352  14.148
71094W        W42710  12.403  14.213   0.373
71095W        W42711  11.290  22.621  11.873
71096W        W42712  22.689  17.778   2.188
71097W        W42713  42.538   1.531  11.162
71098W        W42714  35.832  24.507   2.593
71099W        W42715   0.819   5.117  12.876
71100W        W42716  37.955  11.702   4.538
71101W        W42717  24.777  44.728   1.451
71102W        W42718  19.481  35.109  11.866
71103W        W42719  26.049  38.289  14.412
71104W        W42720   9.235  29.644   3.864
71105W        W42721   4.443  14.541  14.376
71106W        W42722   9.399  38.858  10.258
71107W        W42723  11.684  42.932  10.485
71108W        W42724  21.487  29.723  13.160
71109W        W42725  12.894   8.771   4.914
71110W        W42726   3.775  33.055  11.577
71111W        W42727  37.306  10.279   5.604
71112W        W42728  28.458  25.553   2.889
71113W        W42729  34.036  17.989  12.401
71114W        W42730  33.848  17.013  14.385
71115W        W42731  13.924  13.043   2.328
71116W        W42732  32.027   4.917   4.602
71117W        W42733  30.100   0.858   3.186
71118W        W42734   0.869  44.407  14.222
71119W        W42735  26.150  28.710  13.953
71120W        W42736  28.564   7.161  12.413
71121W        W42737  12.809   1.995   2.921
71122W        W42738  25.030  31.442   3.716
71123W        W42739  31.556  14.587   4.853
71124W        W42740  38.261  31.157  12.600
71125W        W42741  22.495  34.387   9.946
71126W        W42742  35.113  10.221   0.375
71127W        W42743  39.930  28.682   1.297
71128W        W42744  34.354  44.015  13.823
71129W        W42745  23.477  19.096   2.389
71130W        W42746  37.240   9.266  13.151
71131W        W42747  23.684  26.676   3.635
71132W        W42748  40.416  22.778  14.380
71133W        W42749  21.552  42.249   3.749
71134W        W42750  37.078  28.532  13.492
71135W        W42751  36.345   8.658   2.833
71136W        W42752   5.199  16.350  11.412
71137W        W42753  12.239  44.839   0.896
71138W        W42754  14.050  41.462   2.923
71139W        W42755  28.193  36.457  12.826
71140W        W42756   2.690  27.199   2.898
71141W        W42757  10.263  37.090   0.070
71142W        W42758  34.360  35.437   4.383
71143W        W42759  30.438  36.830  13.902
71144W        W42760   0.480   3.469   3.758
71145W        W42761  19.839   3.613   4.099
71146W        W42762  29.996  25.060   1.688
71147W        W42763   5.446  21.214   1.750
71148W        W42764   8.702  29.452   4.068
71149W        W42765  19.598  24.599   2.668
71150W        W42766  24.841  33.368  13.450
71151W        W42767  41.613  14.664  12.438
71152W        W42768  18.848  14.990   3.723
71153W        W42769  33.064   9.899   1.848
71154W        W42770  11.528  12.884  10.321
71155W        W42771  30.914  28.984   1.514
71156W        W42772   2.877  22.050   4.218
71157W        W42773  35.111  15.111   2.857
71158W        W42774  22.116   2.400   1.357
71159W        W42775  12.135  35.172   1.675
71160W        W42776  41.731  40.568  14.651
71161W        W42777   1.808   1.216  10.227
71162W        W42778  42.857  27.153   2.627
71163W        W42779  44.461  31.936  14.316
71164W        W42780  11.696   3.286   2.890
71165W        W42781  21.263  36.158  11.022
71166W        W42782  13.327  33.457  14.932
71167W        W42783  28.466  28.187   4.899
71168W        W42784   3.320  22.636  11.680
71169W        W42785  37.967  29.458   0.268
71170W        W42786  23.636  26.628  14.306
71171W        W42787  36.546   9.911   3.260
71172W        W42788  12.777  30.854   0.882
71173W        W42789  13.171  30.425   1.327
71174W        W42790  23.656  33.364   4.633
71175W        W42791  25.541  20.451  13.011
71176W        W42792  15.014   5.211  10.286
71177W        W42793   1.786   9.345  11.364
71178W        W42794   6.890   7.568  10.794
71179W        W42795  29.999  21.701   4.551
71180W        W42796  35.005  25.896   3.729
71181W        W42797  12.824  34.434   1.728
71182W        W42798  37.346  28.673  14.415
71183W        W42799   8.397  25.314   2.786
71184W        W42800   6.745  10.445  10.760
71185W        W42801  11.621  35.089  10.066
71186W        W42802  24.811  43.396  12.498
71187W        W42803  39.954  18.333  13.414
71188W        W42804  34.472   9.791   2.617
71189W        W42805  16.224  19.576   4.115
71190W        W42806   2.971   5.717  14.339
71191W        W42807   5.216  38.349  11.121
71192W        W42808  24.712   8.914   1.580
71193W        W42809   0.498  40.493  14.885
71194W        W42810   1.137  43.969   4.564
71195W        W42811   4.774  43.584   0.665
71196W        W42812  24.661  42.179   1.654
71197W        W42813  30.889  20.297  13.429
71198W        W42814  35.061  24.464   1.155
71199W        W42815  17.802  13.582   3.230
71200W        W42816  44.719  35.451  10.825
71201W        W42817  23.367  30.946  14.364
71202W        W42818  38.979   1.844  11.234
71203W        W42819  27.108  40.596   1.657
71204W        W42820  34.774  20.621  11.870
71205W        W42821  29.956  38.120   3.304
71206W        W42822  40.407  15.241   1.819
71207W        W42823  15.262  20.056   2.002
71208W        W42824  32.007   3.945  11.590
71209W        W42825  19.605   9.344   2.306
71210W        W42826  40.490   0.768  13.247
71211W        W42827  24.904   9.452  12.014
71212W        W42828  16.528  39.664   0.727
71213W        W42829   2.035  32.413  12.917
71214W        W42830   7.262  10.697  13.472
71215W        W42831  34.055  25.078   4.220
71216W        W42832   5.671  11.186   3.182
71217W        W42833  18.815  19.421   1.854
71218W        W42834  21.083  40.411   1.232
71219W        W42835  34.821  31.420   3.501
71220W        W42836  26.577  11.308   0.667
71221W        W42837  24.996  33.431   0.403
71222W        W42838  38.783  23.455  14.536
71223W        W42839  30.612  34.481  12.388
71224W        W42840   1.308  36.890  12.068
71225W        W42841  27.760  14.287   0.411
71226W        W42842  14.748  23.992  10.891
71227W        W42843  39.339   8.384   3.791
71228W        W42844   4.174  10.377  12.018
71229W        W42845  42.764  42.459   4.925
71230W        W42846  25.254  14.359  14.247
71231W        W42847   1.932  10.860   1.790
71232W        W42848  26.694  30.361  14.330
71233W        W42849  12.981  21.645  11.106
71234W        W42850  17.662   7.636  11.208
71235W        W42851  37.030  18.911   1.761
71236W        W42852  29.408  30.042  13.580
71237W        W42853  31.683  19.706   9.840
71238W        W42854  35.129  15.781   3.701
71239W        W42855  19.456  11.215   3.726
71240W        W42856  20.811  27.697   2.633
71241W        W42857  11.567   2.999   3.689
71242W        W42858  30.932  17.667   2.830
71243W        W42859  42.261  29.853  14.138
71244W        W42860  44.953  22.064   1.410
71245W        W42861  29.866  17.374  14.360
71246W        W42862  44.483  43.858   2.099
71247W        W42863   4.212  36.338   0.881
71248W        W42864  16.311  17.915   3.460
71249W        W42865  33.164  43.933   1.605
71250W        W42866  44.217  42.980   2.436
71251W        W42867  41.024  22.850  11.076
71252W        W42868   0.611  22.742  10.176
71253W        W42869   8.916  21.069  10.837
71254W        W42870  33.685  43.922   5.590
71255W        W42871  31.875  34.558   4.217
71256W        W42872  43.826  30.510  11.097
71257W        W42873  14.686  17.787  14.518
71258W        W42874  22.127   8.706  11.159
71259W        W42875  14.748  13.832   3.110
71260W        W42876  34.554  15.214   4.779
71261W        W42877  32.934   2.438   5.519
71262W        W42878   4.645   2.762   0.377
71263W        W42879   0.912  42.287  10.680
71264W        W42880  34.835  12.512  11.098
71265W        W42881   6.314  24.447   0.688
71266W        W42882   3.752  43.797   2.824
71267W        W42883   9.134  19.316  14.372
71268W        W42884  43.550   4.779  12.451
71269W        W42885  42.341  29.350  13.961
71270W        W42886  32.588   6.205   3.310
71271W        W42887  38.757  29.395   2.681
71272W        W42888  33.485  10.656  13.402
71273W        W42889   0.012  21.536   0.238
71274W        W42890   2.871   3.675  13.222
71275W        W42891  19.154  36.328   4.127
71276W        W42892  25.980  11.882  13.440
71277W        W42893  22.194  31.197  13.347
71278W        W42894  11.147  44.495  13.577
71279W        W42895  16.683  25.530  12.026
71280W        W42896  28.389  16.473   2.829
71281W        W42897  17.186  42.971   2.442
71282W        W42898  28.008  27.879  14.405
71283W        W42899   2.491  41.393  10.075
71284W        W42900   4.818   2.937  13.467
71285W        W42901   1.906  39.432   2.734
71286W        W42902   1.250  43.717  11.244
71287W        W42903  40.566   1.572  12.162
71288W        W42904  12.260  39.699   2.175
71289W        W42905   1.784  27.005   1.991
71290W        W42906  14.476  36.334  13.846
71291W        W42907   9.708  32.529   3.945
71292W        W42908  38.445  18.382  12.116
71293W        W42909  20.245  30.689   3.315
71294W        W42910  39.268   8.838   1.865
71295W        W42911   1.317   9.252   2.762
71296W        W42912   6.471  24.938   2.618
71297W        W42913  41.924  43.716  13.756
71298W        W42914   6.647  15.858   2.263
71299W        W42915  17.408  36.634   2.987
71300W        W42916   1.333  12.114   2.329
71301W        W42917  18.814  20.606   0.451
71302W        W42918   3.044  28.609   1.785
71303W        W42919  39.733  11.665   2.249
71304W        W42920   0.937  30.488   1.138
71305W        W42921  14.904   8.351  12.424
71306W        W42922  23.630  38.128  11.612
71307W        W42923  42.543  18.202  10.792
71308W        W42924  25.196   6.696  12.473
71309W        W42925  19.510  38.885  13.549
71310W        W42926  36.872  15.592   1.038
71311W        W42927  26.610  44.530   2.080
71312W        W42928  10.334   4.786   1.723
71313W        W42929  28.104  17.090   3.333
71314W        W42930  19.761  22.598  12.020
71315W        W42931   3.714  43.858  10.171
71316W        W42932  40.855   6.910  13.406
71317W        W42933  27.639   8.955   3.686
71318W        W42934  41.111  19.811  12.536
71319W        W42935   7.951  42.497  14.066
71320W        W42936  11.153  31.623   0.846
71321W        W42937  11.654  15.103   0.458
71322W        W42938  13.296  13.039   0.751
71323W        W42939  18.813  12.883  12.819
71324W        W42940  39.149  13.906  12.475
71325W        W42941  33.082   3.034  14.501
71326W        W42942  18.841  30.847  11.274
71327W        W42943  34.418  40.813   1.142
71328W        W42944  44.203  36.071  12.964
71329W        W42945   5.704   3.676  12.630
71330W        W42946  14.022   5.768   2.730
71331W        W42947  36.852  28.601   4.175
71332W        W42948  18.533   4.179  12.754
71333W        W42949  35.890  29.657   0.470
71334W        W42950  42.086  23.534   1.044
71335W        W42951  19.811  10.646   4.648
71336W        W42952  34.644   2.475   2.806
71337W        W42953  27.216  27.666  11.614
71338W        W42954  18.732  29.875   3.984
71339W        W42955  29.547  12.106   1.505
71340W        W42956  41.343  39.564  12.872
71341W        W42957  33.121  38.433   0.441
71342W        W42958  30.044  22.214   2.296
71343W        W42959  23.673  30.530   2.270
71344W        W42960   0.065  12.861   2.673
71345W        W42961  36.111  44.969  13.944
71346W        W42962  24.553   0.098   3.178
71347W        W42963  18.218   7.226  12.442
71348W        W42964  28.179  27.387   0.686
71349W        W42965   4.466  19.684  13.525
71350W        W42966  13.894  37.600   0.794
71351W        W42967  40.033  29.855  11.509
71352W        W42968   1.389  41.326  13.164
71353W        W42969  18.076  39.398   0.874
71354W        W42970   1.204  37.832   1.292
71355W        W42971  29.919   8.900  14.928
71356W        W42972  29.642  15.450  13.473
71357W        W42973  41.408   3.379  14.542
71358W        W42974   2.302  14.749   3.233
71359W        W42975  27.036  32.840   1.799
71360W        W42976  12.960   7.762  13.339
71361W        W42977  32.552  39.507   3.721
71362W        W42978  34.997  28.629  13.609
71363W        W42979  36.834   9.957  12.860
71364W        W42980   1.316  25.656   0.552
71365W        W42981   0.381   5.988  12.892
71366W        W42982   0.439  27.707   2.859
71367W        W42983   8.936   0.485  11.514
71368W        W42984  23.995  15.335   4.131
71369W        W42985   2.453  24.597  12.836
71370W        W42986  22.568  29.148   1.828
71371W        W42987  25.852  36.052   2.231
71372W        W42988   5.961   3.249   0.532
71373W        W42989  29.195   7.973   0.686
71374W        W42990   5.320  40.152   0.782
71375W        W42991  38.554  41.523   2.122
71376W        W42992  23.741  14.592   1.464
71377W        W42993  33.606  31.023  13.251
71378W        W42994  42.578   4.282  12.934
71379W        W42995  41.094  25.583   3.580
71380W        W42996  44.985  35.559  11.573
71381W        W42997  37.647  19.470  10.597
71382W        W42998   2.799  35.811  11.600
71383W        W42999   1.997  25.433   5.183
71384W        W43000  36.982  15.066  12.956
71385W        W43001  21.268  18.781   3.849
71386W        W43002  10.190   0.404   3.650
71387W        W43003  39.839  39.559  14.958
71388W        W43004  16.108   4.236   0.445
71389W        W43005  26.534  23.349  12.049
71390W        W43006  25.989   8.707   0.441
71391W        W43007   7.796  40.171  11.413
71392W        W43008   1.724  27.385   3.658
71393W        W43009   0.047  15.081   3.147
71394W        W43010  32.021  29.964   3.200
71395W        W43011  31.522  15.517  12.569
71396W        W43012  15.572  17.645   3.327
71397W        W43013  25.874  35.347  12.518
71398W        W43014  30.619   6.519   3.706
71399W        W43015   0.776  43.447  11.225
71400W        W43016   5.458   9.358  10.712
71401W        W43017  34.979  12.868   3.111
71402W        W43018  35.666  36.492  12.870
71403W        W43019  34.469  28.386  11.965
71404W        W43020  20.606  19.763  14.938
71405W        W43021   3.427   8.752   1.490
71406W        W43022   5.839  29.153  10.809
71407W        W43023  12.771  10.105  11.165
71408W        W43024  13.272  17.249  12.551
71409W        W43025  22.197  43.530   1.414
71410W        W43026  40.510  18.579   3.170
71411W        W43027  13.534  38.569  11.690
71412W        W43028  16.054   4.345  13.009
71413W        W43029  25.475  10.105  11.107
71414W        W43030   9.163  20.586   1.200
71415W        W43031  41.923  26.945  13.487
71416W        W43032  14.028  12.380  14.725
71417W        W43033  18.852   4.193   1.329
71418W        W43034  35.065  27.648   2.591
71419W        W43035  16.050  20.279   2.417
71420W        W43036   0.460  32.025  13.397
71421W        W43037  30.757  20.592  12.526
71422W        W43038  41.834  24.985   4.214
71423W        W43039  23.067   8.530  13.923
71424W        W43040  35.610  29.623  13.502
71425W        W43041  25.204  35.635   2.895
71426W        W43042  24.503  37.791  10.326
71427W        W43043  14.936  12.630  11.635
71428W        W43044  24.695   1.234   2.282
71429W        W43045   9.564  28.598  13.321
71430W        W43046  43.451   3.741   0.328
71431W        W43047  40.509  34.298  10.268
71432W        W43048  32.616  33.355   0.002
71433W        W43049   6.650  23.724   2.276
71434W        W43050  26.557  32.034  10.096
71435W        W43051  19.188  10.270  14.063
71436W        W43052  26.482   0.353   4.665
71437W        W43053  15.870  25.512  13.305
71438W        W43054  30.817  18.198   1.839
71439W        W43055  20.562  18.434  14.360
71440W        W43056  33.933  24.226   5.032
71441W        W43057   7.229  34.929   2.267
71442W        W43058  34.200  21.725   0.534
71443W        W43059  23.997  13.427  11.529
71444W        W43060  33.086  14.564  12.554
71445W        W43061  11.724  33.402   3.778
71446W        W43062  13.996  38.196   0.840
71447W        W43063   7.208   4.933  12.935
71448W        W43064  11.000  14.757  11.643
71449W        W43065  24.084  42.527  13.867
71450W        W43066  14.692  37.207   1.545
71451W        W43067   3.854  33.613   0.443
71452W        W43068   9.387  34.404  13.327
71453W        W43069  42.884  34.469  14.739
71454W        W43070  32.224   2.283   4.750
71455W        W43071  12.394   0.484  11.102
71456W        W43072  10.470  41.927   0.839
71457W        W43073  14.798   2.192  12.846
71458W        W43074  26.481  32.582  14.961
71459W        W43075  17.196  16.741  13.377
71460W        W43076   3.908  24.587  10.408
71461W        W43077  26.474  11.879  10.768
71462W        W43078  13.336  26.233   5.231
71463W        W43079  19.430  20.001  11.584
71464W        W43080  15.005   1.914  13.250
71465W        W43081  26.971  21.670   0.998
71466W        W43082  10.545  40.453   2.224
71467W        W43083  13.671   7.432   2.944
71468W        W43084  34.985  22.550   1.276
71469W        W43085   8.029  20.012   4.532
71470W        W43086  41.239  13.082   0.780
71471W        W43087  29.487  31.709   3.649
71472W        W43088  12.142  30.586  12.136
71473W        W43089  29.500  41.809  14.847
71474W        W43090   1.144  40.431  11.151
71475W        W43091   1.690  23.566  12.907
71476W        W43092   4.013   5.324  10.900
71477W        W43093  38.793  30.996   2.678
71478W        W43094   7.142  19.262   0.558
71479W        W43095  37.947  23.512  10.675
71480W        W43096  19.222   5.866   4.065
71481W        W43097  40.884   6.809  11.957
71482W        W43098  20.617  42.599  14.865
71483W        W43099   3.252  24.683   3.438
71484W        W43100   4.279  27.375  12.106
71485W        W43101  10.834  44.259  14.880
71486W        W43102  24.577  43.879  12.438
71487W        W43103  40.726  33.723  14.929
71488W        W43104  43.522   4.458  13.592
71489W        W43105  39.484  12.903   4.246
71490W        W43106   7.087  36.973  12.978
71491W        W43107  30.350  42.235   4.215
71492W        W43108  22.051  40.944   2.359
71493W        W43109  38.063  41.543   2.283
71494W        W43110  22.959   8.642   3.267
71495W        W43111   6.461  17.052  11.888
71496W        W43112   3.942  33.481  11.827
71497W        W43113   7.753  37.351  10.313
71498W        W43114   1.255  25.917  11.764
71499W        W43115  36.889  26.905   0.399
71500W        W43116  11.176  13.420   1.824
71501W        W43117  33.112  20.188   2.340
71502W        W43118  22.397  27.331  14.906
71503W        W43119  19.141  13.598   2.901
71504W        W43120  31.139  42.553   3.751
71505W        W43121  24.032  32.156  14.815
71506W        W43122  41.864   7.807   0.579
71507W        W43123  24.161  10.942  11.046
71508W        W43124  33.487  31.721   4.514
71509W        W43125   1.488   1.696   1.840
71510W        W43126  24.059  16.797   0.285
71511W        W43127   0.465  19.731   1.802
71512W        W43128  43.310   1.358   2.701
71513W        W43129  19.800  38.903  10.662
71514W        W43130   7.508   2.754   4.053
71515W        W43131  25.691   7.379   4.945
71516W        W43132  27.563   4.220   3.861
71517W        W43133   3.710  31.701  13.143
71518W        W43134  23.824  10.058  10.190
71519W        W43135  13.866  41.531  12.460
71520W        W43136  22.287  21.029  13.916
71521W        W43137  11.725  11.717  14.814
71522W        W43138  29.461   6.617  12.462
71523W        W43139   1.368  22.114  11.069
71524W        W43140   8.846  28.605  13.791
71525W        W43141  27.985  40.057   4.140
71526W        W43142  12.532   0.324  14.516
71527W        W43143  29.613  26.183  14.374
71528W        W43144   5.399   8.178   3.286
71529W        W43145   6.403  31.200   1.960
71530W        W43146  39.460  12.884   0.879
71531W        W43147  23.642  22.815   3.156
71532W        W43148  18.300  13.670   3.317
71533W        W43149   3.725   0.735  13.547
71534W        W43150  39.381  25.599  14.430
71535W        W43151   3.823   7.373   1.326
71536W        W43152  23.938  11.638  11.597
71537W        W43153   3.736  29.462  10.299
71538W        W43154  28.713  31.465  12.325
71539W        W43155  16.740  39.920   4.354
71540W        W43156  44.471  33.364  13.858
71541W        W43157  28.204  12.414  11.163
71542W        W43158  11.721  14.666   2.277
71543W        W43159  17.320  18.779   0.681
71544W        W43160  42.198   4.320  11.457
71545W        W43161   7.464   0.328   3.066
71546W        W43162  43.316  10.138  11.236
71547W        W43163  25.252  20.640  14.364
71548W        W43164  23.601  41.725  12.361
71549W        W43165  33.484  17.059   0.896
71550W        W43166  19.500  37.262  11.133
71551W        W43167  17.966  44.238   2.785
71552W        W43168  13.616  12.811  12.546
71553W        W43169  33.159  36.039  13.902
71554W        W43170  24.238  19.466   3.301
71555W        W43171  44.981  31.343   3.191
71556W        W43172  35.493  11.595   2.933
71557W        W43173   8.769   0.795  13.945
71558W        W43174   9.412  13.168   4.184
71559W        W43175   6.473  21.856  12.655
71560W        W43176  43.797  30.384  12.529
71561W        W43177  20.855   6.939   3.461
71562W        W43178  20.231  25.063   2.235
71563W        W43179  24.063   9.331  11.444
71564W        W43180  11.777  44.526  14.810
71565W        W43181  29.756  27.960   5.449
71566W        W43182  18.550  20.101  11.430
71567W        W43183  30.108  23.201  12.491
71568W        W43184   8.300   3.197   3.339
71569W        W43185  21.742  24.967  14.987
71570W        W43186  16.196  43.259   4.911
71571W        W43187  23.929  31.925   4.483
71572W        W43188  29.393  28.113   1.359
71573W        W43189  34.547   1.724  11.659
71574W        W43190  10.037  31.887   5.046
71575W        W43191  37.095  13.351   0.759
71576W        W43192  14.351  15.912  10.555
71577W        W43193  40.125   3.639   1.912
71578W        W43194  42.743  29.680   0.424
71579W        W43195  32.419   7.999   1.897
71580W        W43196  21.932  22.226  14.613
71581W        W43197  20.662  19.534  14.456
71582W        W43198  14.370  19.703   3.755
71583W        W43199  38.459  37.311   1.267
71584W        W43200  42.967  29.107  13.436
71585W        W43201  37.903  38.844  14.001
71586W        W43202  27.643   7.191  14.310
71587W        W43203  13.775  16.828  11.179
71588W        W43204  33.152  30.697   4.251
71589W        W43205  16.134   4.393   1.123
71590W        W43206  29.220  44.984   4.170
71591W        W43207   0.500  11.296   3.590
71592W        W43208   2.210  20.607  11.046
71593W        W43209   1.293  17.278   4.098
71594W        W43210  30.372  40.612  11.189
71595W        W43211  39.948  42.766   3.604
71596W        W43212   2.405  38.994  13.267
71597W        W43213  34.677  16.201  13.050
71598W        W43214   9.111  16.324  14.836
71599W        W43215  29.581  38.921   3.311
71600W        W43216  20.731  37.505   0.702
71601W        W43217  42.356  13.878   4.648
71602W        W43218  16.093  11.223  10.439
71603W        W43219  16.061  42.184   4.489
71604W        W43220  23.264  13.168  12.080
71605W        W43221  19.308  13.704  14.934
71606W        W43222   5.680  14.537  11.391
71607W        W43223  41.531  40.715   1.057
71608W        W43224   8.229   0.826   2.082
71609W        W43225  40.487   8.105  13.301
71610W        W43226   7.891  42.114   3.774
71611W        W43227  24.731  20.576   1.309
71612W        W43228  15.874  28.573  12.331
71613W        W43229  22.540  16.639   0.372
71614W        W43230  11.067   9.388  14.675
71615W        W43231   6.250   9.770  10.028
71616W        W43232  13.155  35.874   3.341
71617W        W43233  35.133  19.653   0.917
71618W        W43234  28.216  33.988  10.265
71619W        W43235  44.533  39.058  10.581
71620W        W43236  19.431  32.918   2.417
71621W        W43237  16.568  29.447   1.663
71622W        W43238  35.586  42.601  13.123
71623W        W43239  19.505  15.804  11.117
71624W        W43240  35.661  36.775   4.643
71625W        W43241  44.740  18.206  11.554
71626W        W43242  17.298  30.955  12.017
71627W        W43243   6.442  25.590   2.070
71628W        W43244  43.038  23.032   2.692
71629W        W43245  26.571  15.113  13.820
71630W        W43246  18.220  11.254   4.454
71631W        W43247  11.295  20.624   0.884
71632W        W43248  37.019  15.737   4.695
71633W        W43249   7.600  25.956  14.976
71634W        W43250  26.001   5.956   3.756
71635W        W43251  35.575   9.704   1.291
71636W        W43252  19.157   8.194  12.897
71637W        W43253  11.586  29.013  10.759
71638W        W43254  20.246  38.790  13.013
71639W        W43255  17.880  33.465   4.545
71640W        W43256  30.873   7.985  14.911
71641W        W43257  28.763   1.736  10.709
71642W        W43258  39.112  27.699  14.371
71643W        W43259  36.415  40.517   3.750
71644W        W43260  42.072  12.687  11.142
71645W        W43261  19.693  37.857   3.746
71646W        W43262  31.651  10.311   0.128
71647W        W43263  36.500  21.252  14.367
71648W        W43264  22.756  42.482  14.965
71649W        W43265  10.219  29.657   1.404
71650W        W43266  13.006  39.463   2.297
71651W        W43267  35.404  31.956   0.763
71652W        W43268   0.947  29.182   2.344
71653W        W43269   5.634  41.764   1.338
71654W        W43270  41.994  18.844   1.896
71655W        W43271   3.487  42.599   2.635
71656W        W43272  42.940  10.142   2.265
71657W        W43273   3.560  24.668   9.937
71658W        W43274   3.996   5.321   0.534
71659W        W43275  35.936  36.492  14.590
71660W        W43276   3.850  26.767  10.718
71661W        W43277   8.922  34.851  14.803
71662W        W43278  13.314   6.692   2.273
71663W        W43279  11.265  10.211   3.235
71664W        W43280   3.749  12.006   4.302
71665W        W43281  12.605  28.949   4.115
71666W        W43282  23.190  36.693  12.162
71667W        W43283  27.406  31.179  13.056
71668W        W43284   9.224   7.649  11.993
71669W        W43285   1.758  21.498  11.853
71670W        W43286   9.854   8.189   1.425
71671W        W43287  36.927  41.391  12.012
71672W        W43288  39.044  36.899   5.076
71673W        W43289  14.403  41.145  13.329
71674W        W43290  25.454  22.608  13.405
71675W        W43291  24.574  36.125   2.324
71676W        W43292  41.247  16.223  14.877
71677W        W43293  31.601  25.632   3.763
71678W        W43294   7.075  24.042   0.880
71679W        W43295   2.265  26.691   5.202
71680W        W43296  44.061  42.857   1.267
71681W        W43297  25.704  41.095  10.214
71682W        W43298  33.542   7.473  12.360
71683W        W43299  44.459   2.147   1.506
71684W        W43300  39.515  33.711  11.518
71685W        W43301   3.071  26.301   1.331
71686W        W43302  31.588   9.930  13.065
71687W        W43303  12.529   2.856  13.448
71688W        W43304   8.853   5.931   3.917
71689W        W43305  35.426  25.449   1.788
71690W        W43306  41.827  31.201  12.722
71691W        W43307  20.170  13.155   1.254
71692W        W43308  17.991  25.386  11.119
71693W        W43309  18.652  11.102  10.823
71694W        W43310  22.711  26.283  12.047
71695W        W43311  15.147   1.229   1.856
71696W        W43312  36.947  13.580  12.082
71697W        W43313  40.816  26.513   3.187
71698W        W43314  44.478  41.118  10.760
71699W        W43315  28.413  37.133  10.649
71700W        W43316  13.698  15.583  12.469
71701W        W43317  10.107   5.037  14.419
71702W        W43318  43.821  22.959  11.710
71703W        W43319  17.200  32.066  10.598
71704W        W43320  19.738  43.596  13.584
71705W        W43321  37.163  38.114   4.049
71706W        W43322  29.493  29.338   2.706
71707W        W43323  15.603  32.144  12.278
71708W        W43324  40.249  38.774  14.877
71709W        W43325  14.706  33.104  13.102
71710W        W43326   8.265  37.760   0.954
71711W        W43327   7.610   9.669  12.086
71712W        W43328  30.128  11.072   0.958
71713W        W43329  29.573  19.238  14.491
71714W        W43330  42.005  34.308   2.294
71715W        W43331  35.272  34.432  11.702
71716W        W43332  19.171  27.311  13.081
71717W        W43333  30.410  30.155   2.345
71718W        W43334  24.725  34.852  11.086
71719W        W43335  43.866  34.593   4.199
71720W        W43336  24.970  27.185  13.936
71721W        W43337  38.939   2.110  14.914
71722W        W43338  37.442  32.564  12.017
71723W        W43339  40.258  32.701   2.218
71724W        W43340   1.665   7.588   4.102
71725W        W43341  29.149  40.024   0.280
71726W        W43342  42.408  13.635  13.773
71727W        W43343  18.582  12.999   4.998
71728W        W43344  39.964   4.098   4.574
71729W        W43345   5.794  42.765  11.019
71730W        W43346   0.861  16.758   2.840
71731W        W43347  17.263  31.167   2.519
71732W        W43348  19.454  40.645  11.532
71733W        W43349  39.841  23.023  13.526
71734W        W43350  14.467  33.273  11.931
71735W        W43351  12.900  24.006  13.341
71736W        W43352   5.893   8.347  12.109
71737W        W43353  22.601   5.239   4.679
71738W        W43354  20.113  41.993   1.198
71739W        W43355  21.686   7.579  11.505
71740W        W43356  34.982  36.829  14.932
71741W        W43357   6.584  29.036  11.971
71742W        W43358  27.302   8.202   4.053
71743W        W43359  34.035  29.970  14.508
71744W        W43360   2.710  42.777   2.313
71745W        W43361   1.847   1.733   4.642
71746W        W43362   8.734  24.038   1.907
71747W        W43363  12.898  41.980  11.046
71748W        W43364   5.664  11.868   4.360
71749W        W43365  41.780  27.603  12.842
71750W        W43366  16.020  41.446   0.271
71751W        W43367  17.261  39.831   0.694
71752W        W43368   0.062  23.668   1.682
71753W        W43369   3.753  19.220  11.693
71754W        W43370  35.130   4.215  14.120
71755W        W43371  10.601   3.842   4.324
71756W        W43372  37.313   8.803   5.089
71757W        W43373  27.157  36.973   4.668
71758W        W43374  11.359   6.288   3.263
71759W        W43375   6.268  25.872   4.858
71760W        W43376  11.670  33.871   4.715
71761W        W43377  24.657  19.754  13.812
71762W        W43378   0.969  32.903  13.493
71763W        W43379  11.719  43.621   3.737
71764W        W43380  29.308  39.125  13.086
71765W        W43381  23.613  20.085   4.418
71766W        W43382  28.635  32.124   2.885
71767W        W43383  20.321  20.252   4.323
71768W        W43384  32.323   4.332  11.961
71769W        W43385  23.907   9.154  14.876
71770W        W43386   3.200  14.271  10.639
71771W        W43387  41.952  42.844  13.953
71772W        W43388  13.431  35.920   1.750
71773W        W43389  29.976  39.823   0.771
71774W        W43390   9.383  21.647  10.399
71775W        W43391  30.241  39.499  10.921
71776W        W43392  37.872  32.051  13.254
71777W        W43393  33.182  42.908   0.405
71778W        W43394   8.723  43.510   4.105
71779W        W43395  12.344  27.618   0.608
71780W        W43396  38.149  33.945  13.433
71781W        W43397  29.005   3.272   3.505
71782W        W43398  34.363  14.612   2.197
71783W        W43399   5.254  34.305   1.471
71784W        W43400   7.829  28.609   1.698
71785W        W43401  15.705  10.419   3.621
71786W        W43402  15.615  29.137   1.900
71787W        W43403  26.555  16.705  13.111
71788W        W43404  30.096  25.191   2.194
71789W        W43405  27.751   5.230  12.499
71790W        W43406  27.988  37.573   3.138
71791W        W43407  33.128  34.279   4.173
71792W        W43408   5.605  12.182   3.638
71793W        W43409  15.269   2.737   1.757
71794W        W43410  35.323   4.295  11.195
71795W        W43411  15.819  32.585   3.955
71796W        W43412  25.674  40.154   4.445
71797W        W43413  29.103  27.567   5.133
71798W        W43414  24.773   5.281  11.855
71799W        W43415  33.918  33.564  14.440
71800W        W43416  31.857  11.618   0.254
71801W        W43417  21.558   6.402  12.392
71802W        W43418  25.664   0.929  11.404
71803W        W43419  27.387  42.629  13.606
71804W        W43420   4.810  17.638  10.887
71805W        W43421  19.331  39.060   3.326
71806W        W43422  37.219  33.318   1.628
71807W        W43423  35.754  24.572   4.115
71808W        W43424  23.561  32.012   4.107
71809W        W43425   3.934  10.105  10.755
71810W        W43426  40.440  44.561   1.734
71811W        W43427  33.585  35.489  10.981
71812W        W43428  19.976   0.775   0.670
71813W        W43429  30.343  40.434  13.310
71814W        W43430  43.892  39.478   4.145
71815W        W43431   3.810  38.697   3.898
71816W        W43432  24.754   2.978  13.380
71817W        W43433   6.188   8.191  11.147
71818W        W43434  13.856  16.086  11.610
71819W        W43435  23.230   4.320  13.819
71820W        W43436   1.349   8.177  14.866
71821W        W43437  25.591   4.174  14.331
71822W        W43438  36.004   6.102   1.392
71823W        W43439   6.592  33.969   0.755
71824W        W43440   7.063  33.666   1.968
71825W        W43441  40.029  43.833  11.562
71826W        W43442  26.911  21.683  12.550
71827W        W43443  24.053  35.973   5.085
71828W        W43444  18.784  27.284  11.117
71829W        W43445  44.624   1.264  11.660
71830W        W43446  25.195  15.311  13.252
71831W        W43447   9.218  24.643  12.976
71832W        W43448  43.612  12.216  12.734
71833W        W43449  15.272   8.236   4.602
71834W        W43450  38.658   2.324  12.407
71835W        W43451  32.766   4.902   4.083
71836W        W43452  44.849  16.795  11.716
71837W        W43453  38.024   5.302   4.545
71838W        W43454   5.329  31.617  10.633
71839W        W43455  21.241  19.740  13.414
71840W        W43456  25.075  16.911   1.983
71841W        W43457  23.079  28.163   4.576
71842W        W43458  11.079   6.371  10.974
71843W        W43459  18.543  36.736   3.119
71844W        W43460   9.298  10.180  11.922
71845W        W43461  35.852  14.533   3.320
71846W        W43462  28.471  12.176   0.826
71847W        W43463  13.755   0.840  11.173
71848W        W43464  10.115  27.712  12.506
71849W        W43465   6.485  29.958  12.285
71850W        W43466  34.990  15.528   1.963
71851W        W43467  29.605  37.810  14.870
71852W        W43468  14.301   5.240  11.947
71853W        W43469  17.527   0.760  14.425
71854W        W43470  22.171   3.190  14.710
71855W        W43471  18.323  25.578  13.474
71856W        W43472  30.194  26.685   1.850
71857W        W43473   9.053  18.756  11.281
71858W        W43474   9.803  33.776   3.044
71859W        W43475  40.572   9.349   1.834
71860W        W43476  29.063  40.585   1.102
71861W        W43477  13.864   9.979  11.071
71862W        W43478  17.526  35.604  10.792
71863W        W43479  41.495  20.051   1.192
71864W        W43480  32.329  30.970  13.031
71865W        W43481  19.819  31.986  14.472
71866W        W43482  11.208  37.288   2.283
71867W        W43483  11.112  36.670   4.191
71868W        W43484  40.801   5.551   3.315
71869W        W43485  33.321   8.126   1.866
71870W        W43486  19.321  36.967  14.271
71871W        W43487  41.625  34.030   0.769
71872W        W43488  38.463  35.233   4.022
71873W        W43489   9.755  26.266   2.290
71874W        W43490  11.873  44.307   0.765
71875W        W43491  22.248   3.442  12.941
71876W        W43492  44.407  43.794  11.666
71877W        W43493  43.403  17.367   4.108
71878W        W43494  39.538  18.020  13.349
71879W        W43495  17.699  43.858  11.837
71880W        W43496   4.761   7.584  10.254
71881W        W43497  10.714  43.162   4.545
71882W        W43498   7.007  11.281  14.554
71883W        W43499  33.554  36.468  14.050
71884W        W43500   0.381   2.366   1.723
71885W        W43501  17.367  38.224  12.935
71886W        W43502  39.185  20.027   4.593
71887W        W43503  43.481  36.434  12.051
71888W        W43504  25.209  32.907   4.130
71889W        W43505  14.255  39.799   1.279
71890W        W43506  10.459  21.080  14.883
71891W        W43507  24.900  14.673   3.158
71892W        W43508   0.693  16.026   3.285
71893W        W43509  44.320   8.713  12.470
71894W        W43510   6.312  20.676   4.608
71895W        W43511   5.417  43.020   5.052
71896W        W43512   5.381  23.846   4.740
71897W        W43513  34.865   1.636  10.986
71898W        W43514   6.875  24.181   1.336
71899W        W43515  13.000   8.250   2.743
71900W        W43516  32.396  26.049   4.020
71901W        W43517  38.918  17.615  11.974
71902W        W43518  32.572  11.066   2.894
71903W        W43519  35.038   1.791  10.021
71904W        W43520   7.796  43.333  10.932
71905W        W43521  25.737  25.160  11.971
71906W        W43522   7.892   3.285  11.235
71907W        W43523   0.351   3.999   3.676
71908W        W43524  13.881  26.502   1.734
71909W        W43525  15.057  23.783   3.986
71910W        W43526   7.173  25.620  11.554
71911W        W43527  35.055  27.259   1.684
71912W        W43528  20.037  29.046   1.764
71913W        W43529   5.437  42.557  11.306
71914W        W43530  20.539   9.911   0.007
71915W        W43531  39.709  38.117  14.870
71916W        W43532  26.256  15.812   0.252
71917W        W43533   5.195  18.701   3.753
71918W        W43534  42.344  14.821  11.061
71919W        W43535  21.658  34.857   3.485
71920W        W43536  43.897  37.353  14.788
71921W        W43537  35.438   5.882  14.433
71922W        W43538   3.835  36.833  12.003
71923W        W43539  19.086  42.022   1.320
71924W        W43540  22.954  33.986  10.842
71925W        W43541  19.216   7.338   2.331
71926W        W43542  20.009   2.937   4.662
71927W        W43543   2.164  25.602   2.842
71928W        W43544   1.190  36.203   1.660
71929W        W43545   5.510  29.079  14.291
71930W        W43546  28.727  12.605   4.862
71931W        W43547  43.846  39.470   3.255
71932W        W43548  39.528  22.444   4.115
71933W        W43549   0.333  25.684   1.133
71934W        W43550  19.731  27.562  11.672
71935W        W43551   4.378  44.629  13.296
71936W        W43552   4.551   1.355  10.899
71937W        W43553  31.922  10.885  12.071
71938W        W43554  40.633  23.685  12.099
71939W        W43555  25.061   6.170   2.837
71940W        W43556  31.443  41.949   3.163
71941W        W43557  44.389  18.704   3.681
71942W        W43558  39.527   4.233   4.840
71943W        W43559  14.301  41.340  12.850
71944W        W43560   5.366  19.705  13.592
71945W        W43561   9.402   1.804   4.550
71946W        W43562  20.310  11.947  12.000
71947W        W43563   0.042   2.872  10.946
71948W        W43564  30.162  28.262  12.153
71949W        W43565  24.381  35.166   2.434
71950W        W43566  36.099  35.605   3.183
71951W        W43567  24.522  44.280   1.365
71952W        W43568   2.326   8.245   1.825
71953W        W43569  33.472  41.431   3.267
71954W        W43570  21.106   9.433   3.017
71955W        W43571   7.462  23.020   3.611
71956W        W43572  22.744   5.445  13.037
71957W        W43573  26.532   2.850   2.666
71958W        W43574  26.139  42.354   4.620
71959W        W43575   9.891  15.200  14.935
71960W        W43576  13.807  20.648   3.628
71961W        W43577  35.892   0.121   3.594
71962W        W43578   8.848  39.824   1.893
71963W        W43579  25.150  18.398   4.436
71964W        W43580  35.999  18.823   0.720
71965W        W43581  12.092  37.896   0.869
71966W        W43582  44.509  22.192  14.417
71967W        W43583  43.377  43.751  14.814
71968W        W43584  17.096  42.305   0.398
71969W        W43585  28.991  36.369   3.760
71970W        W43586  28.051  37.491   0.494
71971W        W43587  25.689  40.092   3.908
71972W        W43588  17.227   1.097   2.339
71973W        W43589  26.656  40.781   1.809
71974W        W43590  15.635  18.161  14.568
71975W        W43591  28.369   7.165  11.910
71976W        W43592  41.512   5.203   0.228
71977W        W43593  18.349  28.992  12.005
71978W        W43594  14.657  27.451   2.397
71979W        W43595   5.283   6.992   2.185
71980W        W43596   2.565  32.423   0.909
71981W        W43597   2.327  26.442   4.294
71982W        W43598   2.838  33.098   4.059
71983W        W43599   9.295   5.348   3.649
71984W        W43600  43.045  22.147  14.492
71985W        W43601  17.140  37.472   0.442
71986W        W43602  26.199  16.328   3.762
71987W        W43603  35.664  21.710   2.246
71988W        W43604   7.818   0.412  10.151
71989W        W43605  34.655  40.913  11.956
71990W        W43606  35.767  20.358  14.516
71991W        W43607  15.599   3.826  14.566
71992W        W43608  44.355  29.747   2.859
71993W        W43609   2.751  33.779   1.446
71994W        W43610  10.645   7.787  13.916
71995W        W43611  19.660   9.201   0.743
71996W        W43612   1.317  32.584   0.532
71997W        W43613   8.783   3.009   2.236
71998W        W43614   6.792  14.079  14.368
71999W        W43615   3.131  23.646  13.456
72000W        W43616  24.189  21.998   0.936
72001W        W43617  14.555  32.109  10.628
72002W        W43618   2.429   0.440   1.407
72003W        W43619  43.732  27.451   0.301
72004W        W43620  25.973  13.298   4.296
72005W        W43621  27.877  21.754   1.204
72006W        W43622   6.671  36.142  12.423
72007W        W43623  43.717  24.656   3.207
72008W        W43624   4.841  15.743   3.225
72009W        W43625  21.109  34.137   4.625
72010W        W43626   7.280  19.482   1.661
72011W        W43627   3.788  28.606  12.337
72012W        W43628  36.613   0.370  12.449
72013W        W43629  15.331  39.307   4.535
72014W        W43630  32.459   5.218  13.083
72015W        W43631  13.806  33.218   3.668
72016W        W43632  36.614  33.443   2.342
72017W        W43633  34.181   7.006   4.151
72018W        W43634  15.323   1.146  14.482
72019W        W43635  34.913  22.129   0.078
72020W        W43636  21.735  19.512   3.954
72021W        W43637  42.497   4.243  13.874
72022W        W43638   2.377  37.132   2.914
72023W        W43639   8.958  26.917  11.191
72024W        W43640  12.150  37.920   0.013
72025W        W43641  22.157  25.988   3.103
72026W        W43642   0.973   5.690  11.502
72027W        W43643  11.649  10.145  11.764
72028W        W43644  33.737  15.049   4.912
72029W        W43645  19.765   5.792  12.032
72030W        W43646  29.594   8.105   2.183
72031W        W43647  38.457  23.111   2.206
72032W        W43648  28.942  43.994   1.149
72033W        W43649  23.085  14.408   0.398
72034W        W43650   4.884  22.949   4.758
72035W        W43651   0.464  10.224  10.561
72036W        W43652  27.398  41.254  13.264
72037W        W43653   2.485   5.378   0.411
72038W        W43654   2.417  19.854   2.417
72039W        W43655   2.365  31.986   0.008
72040W        W43656  39.398   5.721   0.016
72041W        W43657   4.066  42.366  11.444
72042W        W43658  30.085  40.406  11.799
72043W        W43659  20.215  26.191  14.339
72044W        W43660   9.768   1.045   2.293
72045W        W43661  42.930  34.927  11.500
72046W        W43662  40.284  18.753  11.062
72047W        W43663  23.199  18.193   4.344
72048W        W43664  41.816  22.563  14.319
72049W        W43665  37.468   3.352  13.982
72050W        W43666  18.659  17.379   0.599
72051W        W43667   9.327  24.614   4.512
72052W        W43668  10.371   1.310   1.270
72053W        W43669  13.406  28.594  14.376
72054W        W43670  18.255  16.229  14.863
72055W        W43671  20.415  38.831  11.808
72056W        W43672  29.342  35.911  13.272
72057W        W43673  41.906  41.790  13.077
72058W        W43674  34.368   5.300  10.574
72059W        W43675  42.987  42.972  12.852
72060W        W43676  21.815   2.724   0.883
72061W        W43677  35.598  39.578  11.092
72062W        W43678  37.965   8.117   4.521
72063W        W43679  17.731  38.423  12.136
72064W        W43680   7.806  43.037  14.885
72065W        W43681  34.881  43.392   3.014
72066W        W43682  18.855  15.061  11.733
72067W        W43683  25.497  13.797  11.938
72068W        W43684   2.788  26.554   4.545
72069W        W43685  34.304  17.265  14.354
72070W        W43686  42.057  21.469  13.882
72071W        W43687  25.468  39.217   5.050
72072W        W43688  10.399   6.729   3.976
72073W        W43689  36.574   4.914   3.667
72074W        W43690  33.587  24.537   3.853
72075W        W43691   9.205  42.761  14.759
72076W        W43692  16.708  25.639  12.546
72077W        W43693  28.161  16.483  13.869
72078W        W43694  43.123   7.120   3.163
72079W        W43695  20.151  22.370   1.418
72080W        W43696   2.288  42.794   9.877
72081W        W43697  22.456  13.101  14.559
72082W        W43698  14.666  35.840  13.835
72083W        W43699  27.501  40.883   3.740
72084W        W43700   2.282  10.093  14.664
72085W        W43701  38.425  12.391   2.284
72086W        W43702  31.339  30.257  13.451
72087W        W43703  31.843  33.364  14.273
72088W        W43704  21.082  33.875  14.840
72089W        W43705  36.428  37.232  11.983
72090W        W43706  13.944  29.700   1.438
72091W        W43707  28.031  18.236   0.308
72092W        W43708   7.476  16.323   0.384
72093W        W43709  21.779  31.224  14.939
72094W        W43710   8.871  38.604   2.479
72095W        W43711  21.079  11.709  14.826
72096W        W43712  21.720  34.110   1.891
72097W        W43713  31.830  20.587  11.734
72098W        W43714   4.904   2.228   3.555
72099W        W43715  24.831  20.542  11.182
72100W        W43716  37.462  16.063   1.672
72101W        W43717  27.105   7.417  11.516
72102W        W43718  10.372   8.256  11.094
72103W        W43719  29.607  18.826  14.843
72104W        W43720  14.871  42.468  11.550
72105W        W43721  26.597  41.952  12.446
72106W        W43722  33.474   5.980  13.958
72107W        W43723   7.126  10.195   3.553
72108W        W43724  39.519  10.202   4.539
72109W        W43725   4.225  42.751   0.207
72110W        W43726   7.366  38.027  11.836
72111W        W43727   2.352   9.071   3.127
72112W        W43728  26.717  13.184  13.912
72113W        W43729   9.657  12.133   3.347
72114W        W43730  14.207  14.133   9.977
72115W        W43731  37.811  35.093   0.390
72116W        W43732  11.400   2.718  11.938
72117W        W43733  27.066  14.489   2.950
72118W        W43734   4.042  44.841  11.885
72119W        W43735   1.363   6.398  12.950
72120W        W43736  39.366   2.244   3.597
72121W        W43737   3.917  15.782   1.187
72122W        W43738  34.624   7.268   4.193
72123W        W43739  21.965   8.963  10.759
72124W        W43740   4.534   4.775   2.028
72125W        W43741   3.913  42.509   3.425
72126W        W43742   9.610   7.876   1.802
72127W        W43743  35.475  29.897   0.840
72128W        W43744  10.616  11.252  13.837
72129W        W43745  14.129  18.185   1.272
72130W        W43746  13.334  13.307  10.943
72131W        W43747   3.909   9.589   4.147
72132W        W43748  29.565  37.950   1.010
72133W        W43749   7.372   0.470  13.599
72134W        W43750  18.799  16.320   1.792
72135W        W43751   8.769  22.396   1.465
72136W        W43752  40.368  10.005   1.209
72137W        W43753  11.634   1.744   3.338
72138W        W43754   3.469  12.785  12.589
72139W        W43755  31.963  28.040  14.320
72140W        W43756   4.197  41.460   3.813
72141W        W43757  18.246   1.269   4.732
72142W        W43758  42.515  42.014   3.428
72143W        W43759  25.964  21.574  14.067
72144W        W43760  19.922  26.922  12.586
72145W        W43761  36.091   5.469  11.064
72146W        W43762  24.058  35.938   2.217
72147W        W43763  38.868  24.448   0.553
72148W        W43764  25.741  24.892   0.796
72149W        W43765  12.118  38.477   2.814
72150W        W43766   9.293  29.893  13.540
72151W        W43767  16.136  41.774   4.116
72152W        W43768  28.027  19.616  13.282
72153W        W43769  38.482  14.582  13.511
72154W        W43770  43.361   2.431   2.217
72155W        W43771  43.831  16.760   4.812
72156W        W43772  14.354   3.670   5.114
72157W        W43773   3.962  38.703  11.085
72158W        W43774  12.117  15.273   3.890
72159W        W43775   6.784  40.945   0.946
72160W        W43776  16.342  42.970   3.965
72161W        W43777  13.200  30.921   3.504
72162W        W43778  43.163  41.190  13.878
72163W        W43779  30.697   4.666   3.268
72164W        W43780  14.662  14.287  11.601
72165W        W43781  15.981  44.319   5.086
72166W        W43782  35.940   7.298   3.676
72167W        W43783  40.339  21.280  14.240
72168W        W43784  22.565  28.111   3.735
72169W        W43785  37.090  32.214  12.602
72170W        W43786  26.621  29.878  14.489
72171W        W43787  24.154  27.320  11.225
72172W        W43788   9.400  11.669  11.106
72173W        W43789  40.613  19.157  10.929
72174W        W43790  27.425   5.887  12.100
72175W        W43791  21.856  26.988   1.121
72176W        W43792  30.142   0.475  11.232
72177W        W43793  24.019  38.798  12.969
72178W        W43794  12.068   3.785  10.630
72179W        W43795  16.528  14.682   0.720
72180W        W43796  17.108  44.880   1.887
72181W        W43797  36.070  44.461  13.783
72182W        W43798  35.068  38.289   3.328
72183W        W43799  37.384  43.760  14.336
72184W        W43800  28.555  32.633   4.093
72185W        W43801   8.744  16.088  11.196
72186W        W43802  43.140  32.600   0.458
72187W        W43803  28.022   6.754   3.254
72188W        W43804  22.506  36.083   1.764
72189W        W43805   6.569   6.732   2.156
72190W        W43806  32.656  13.204   1.694
72191W        W43807  13.720  28.883   3.303
72192W        W43808  36.996  42.420   4.994
72193W        W43809  19.469  35.004   4.477
72194W        W43810  33.103  21.597  14.375
72195W        W43811  20.731  17.733  12.021
72196W        W43812  22.407   2.407   0.886
72197W        W43813  40.384  20.723  13.071
72198W        W43814  36.617  39.215  12.031
72199W        W43815  29.414   9.745  14.832
72200W        W43816   9.362  26.975  14.832
72201W        W43817  39.696  23.747  12.967
72202W        W43818  33.961  22.591  10.786
72203W        W43819  21.039  36.141  13.676
72204W        W43820  32.108  29.616   1.380
72205W        W43821  11.092  29.508   2.832
72206W        W43822   3.894  11.276   0.010
72207W        W43823  24.095  32.430  10.774
72208W        W43824   5.720  42.425   0.771
72209W        W43825   7.410  11.167  11.954
72210W        W43826   2.455  22.742   2.764
72211W        W43827  20.636  27.012  13.430
72212W        W43828  26.134  37.057   2.856
72213W        W43829  32.990   9.324   0.159
72214W        W43830  10.530  43.867   3.194
72215W        W43831   6.677  14.843   3.663
72216W        W43832   4.353  35.525   4.194
72217W        W43833  31.545   1.032   1.672
72218W        W43834  13.778   2.462   1.457
72219W        W43835  39.464  26.654  10.368
72220W        W43836  13.118  39.767  14.525
72221W        W43837  18.403  18.148  10.594
72222W        W43838  26.159  25.988   2.061
72223W        W43839   4.376  29.444   0.303
72224W        W43840  39.810  34.438  11.000
72225W        W43841  24.766   7.337  13.820
72226W        W43842  11.846  38.932   2.767
72227W        W43843  44.532  21.081  12.188
72228W        W43844  40.953  44.679  14.813
72229W        W43845  41.958  17.210  14.457
72230W        W43846  10.100  35.737   3.234
72231W        W43847   3.985  21.286  13.000
72232W        W43848  33.202   7.604  10.771
72233W        W43849  32.601   3.002   4.274
72234W        W43850  18.793  16.980  14.107
72235W        W43851  33.509  31.953   0.666
72236W        W43852  15.147  33.404   2.538
72237W        W43853  16.744  13.624   3.243
72238W        W43854   2.486  30.030  10.422
72239W        W43855  41.634  38.500  14.813
72240W        W43856  42.823  30.787  11.208
72241W        W43857  29.681  34.550  13.304
72242W        W43858   1.840  17.255   3.798
72243W        W43859   8.405  38.636   4.739
72244W        W43860   3.724   6.235  12.880
72245W        W43861  30.023  11.096  13.822
72246W        W43862  13.539  30.518  14.974
72247W        W43863  33.606  41.560   2.210
72248W        W43864  19.409  35.146  14.317
72249W        W43865  28.782  13.494  10.700
72250W        W43866  32.688  21.668   4.528
72251W        W43867  38.345  23.452  11.012
72252W        W43868  33.870   6.687   1.749
72253W        W43869   1.913  10.860  14.661
72254W        W43870  11.819   1.340   0.715
72255W        W43871  17.240  42.835  11.576
72256W        W43872  44.910  44.293  13.279
72257W        W43873  28.068  38.799   3.596
72258W        W43874  24.324  33.644   5.094
72259W        W43875  14.071  42.564   0.421
72260W        W43876  26.887   6.604  11.107
72261W        W43877  15.112  12.244   4.865
72262W        W43878  36.795  40.004   0.287
72263W        W43879  31.187  15.683  13.892
72264W        W43880  19.235  25.514   2.715
72265W        W43881   1.732  27.923   2.026
72266W        W43882  12.371  23.967  11.166
72267W        W43883  11.284  24.622   4.355
72268W        W43884  25.169  43.308  13.924
72269W        W43885   5.084  44.999   9.848
72270W        W43886  31.828  43.285   3.306
72271W        W43887  38.760  22.718   3.695
72272W        W43888  38.694  38.847   2.828
72273W        W43889  28.105  38.509   4.210
72274W        W43890  28.214   2.545   1.017
72275W        W43891   3.182  26.695  11.283
72276W        W43892  11.198  29.583   4.674
72277W        W43893   5.938   2.354  14.372
72278W        W43894   2.246  31.437   3.748
72279W        W43895  31.339  43.340   3.437
72280W        W43896  38.540  18.573  13.442
72281W        W43897  38.839  44.542   1.457
72282W        W43898  20.739  32.552  11.493
72283W        W43899  25.687   2.912   4.674
72284W        W43900  29.817   6.992  13.028
72285W        W43901  13.143  12.768   2.540
72286W        W43902  13.126  13.337  11.870
72287W        W43903  38.871  28.108   4.583
72288W        W43904  42.242  31.241   2.914
72289W        W43905  25.801  23.035  14.094
72290W        W43906  42.737  11.443  12.532
72291W        W43907  27.463  27.925   2.128
72292W        W43908  30.684  31.409   1.291
72293W        W43909   3.232   9.929   3.636
72294W        W43910  23.711   7.889  13.079
72295W        W43911  31.244  15.237   1.596
72296W        W43912  14.341   5.651   4.142
72297W        W43913   9.375   8.942   2.214
72298W        W43914  43.230   8.451  13.445
72299W        W43915  18.597  22.023   4.759
72300W        W43916  18.344  27.945  12.947
72301W        W43917   8.697   2.714  12.087
72302W        W43918   9.927  24.968   2.770
72303W        W43919  20.045  26.484   1.355
72304W        W43920  18.206  13.673   0.866
72305W        W43921  39.233  29.527  11.522
72306W        W43922  17.639  18.756   4.963
72307W        W43923  24.657   5.140  12.839
72308W        W43924   1.403  30.018   4.761
72309W        W43925  21.507   2.955   1.398
72310W        W43926   6.801   0.085   1.377
72311W        W43927  30.812  21.989  12.262
72312W        W43928   5.637  20.884  11.561
72313W        W43929  26.561  39.490  10.288
72314W        W43930  30.580  12.328   3.699
72315W        W43931  35.095   1.348   4.280
72316W        W43932   6.221  14.658  14.875
72317W        W43933  43.840  35.721   5.475
72318W        W43934  38.018  39.602   4.730
72319W        W43935  37.918  14.753   1.922
72320W        W43936  19.671  30.056  10.696
72321W        W43937  21.575  35.058   0.859
72322W        W43938   8.430  35.393   2.854
72323W        W43939  23.754  36.346  11.091
72324W        W43940  12.063  16.721   3.814
72325W        W43941  20.993   7.085  11.278
72326W        W43942   6.733  40.935  12.667
72327W        W43943   6.969  14.343  12.065
72328W        W43944  28.124   9.937   4.914
72329W        W43945   9.243   1.519  14.039
72330W        W43946  42.072   5.049  13.976
72331W        W43947  36.417  21.241   1.499
72332W        W43948  41.988  15.987  13.768
72333W        W43949  26.123  10.874   4.319
72334W        W43950  33.093   6.750  11.721
72335W        W43951  25.591  28.397   0.402
72336W        W43952  25.758  23.574   1.652
72337W        W43953   1.184   1.269  13.855
72338W        W43954  35.001   3.148   4.604
72339W        W43955   1.245  16.654   0.416
72340W        W43956  13.605  11.708   2.851
72341W        W43957  10.681   6.956   1.585
72342W        W43958  16.326  32.181   0.704
72343W        W43959  28.217  27.292   1.205
72344W        W43960   2.864   3.185  13.344
72345W        W43961  41.231  34.436   1.943
72346W        W43962  32.533  12.086   4.135
72347W        W43963   5.856  26.143   4.701
72348W        W43964  32.982  35.356   0.745
72349W        W43965  29.752  31.697  13.343
72350W        W43966  44.419  10.775   1.983
72351W        W43967   9.846  38.347  11.109
72352W        W43968  28.651  35.404   0.037
72353W        W43969  19.777   5.745   0.031
72354W        W43970  10.369  22.960  13.909
72355W        W43971  12.300  20.157  13.982
72356W        W43972  12.128  35.156   4.188
72357W        W43973  13.713   8.357   0.243
72358W        W43974  14.318  42.488  14.969
72359W        W43975  40.522  26.939  11.931
72360W        W43976  19.250  43.311  14.934
72361W        W43977  31.944   2.157  14.779
72362W        W43978  44.731   8.881   5.090
72363W        W43979   8.162  40.873  13.526
72364W        W43980   4.922   3.022  14.943
72365W        W43981  19.022  39.148   4.153
72366W        W43982  43.772  25.664  14.914
72367W        W43983  26.565  41.832   2.862
72368W        W43984  41.737  22.914   1.858
72369W        W43985  24.242   0.664  14.465
72370W        W43986  32.293   9.731  14.523
72371W        W43987  24.656  20.098  12.049
72372W        W43988  26.966   2.779   3.760
72373W        W43989  39.463  20.912  12.722
72374W        W43990  40.387  26.385   5.009
72375W        W43991  22.110  25.063   2.051
72376W        W43992  24.301  27.661   1.719
72377W        W43993  44.696  37.895   4.689
72378W        W43994   1.031   9.080  13.855
72379W        W43995  43.568  17.704   2.743
72380W        W43996  44.311  36.081  10.346
72381W        W43997  34.018   5.178  11.526
72382W        W43998  17.217  41.993   5.029
72383W        W43999  28.509  11.263   0.936
72384W        W44000  37.028  31.517   1.876
72385W        W44001  38.528   9.771  11.399
72386W        W44002  12.617  32.462   2.765
72387W        W44003  34.927  30.061  13.970
72388W        W44004  12.142  36.606  14.365
72389W        W44005  18.498   2.446  14.794
72390W        W44006   4.484   4.400  10.726
72391W        W44007  29.863   0.283  14.049
72392W        W44008  43.990  34.946   4.582
72393W        W44009  29.588  39.843  12.510
72394W        W44010  23.766  13.188  10.483
72395W        W44011  20.044   7.688   4.645
72396W        W44012  28.657  14.842  13.346
72397W        W44013  22.028  32.414   1.480
72398W        W44014  30.835  42.833  11.509
72399W        W44015  44.440  23.093  13.746
72400W        W44016  19.031  15.545   1.375
72401W        W44017  19.348   9.683   4.714
72402W        W44018  17.681  30.412   4.313
72403W        W44019   9.675  29.014  10.699
72404W        W44020  12.721   9.209   4.039
72405W        W44021  25.640  44.568   1.320
72406W        W44022  18.820  18.830  11.239
72407W        W44023  22.891  37.800  12.415
72408W        W44024  32.562  32.377  14.882
72409W        W44025   8.690   4.679   1.686
72410W        W44026  21.117   7.389  13.440
72411W        W44027   4.206  11.824   4.500
72412W        W44028  15.785  22.757   0.870
72413W        W44029   0.371  29.063   1.440
72414W        W44030  36.322  37.946   3.141
72415W        W44031  15.466  22.602  14.483
72416W        W44032  11.147   1.176  11.012
72417W        W44033  27.677  25.205   3.263
72418W        W44034  15.124   3.906  11.249
72419W        W44035  10.940  10.234   5.009
72420W        W44036  16.237  34.471  13.416
72421W        W44037  20.116   9.309  14.281
72422W        W44038  26.270   8.882   4.843
72423W        W44039   7.468  26.273  12.817
72424W        W44040  27.978  39.802   3.602
72425W        W44041  14.297  40.460   0.911
72426W        W44042  24.097  39.920  13.735
72427W        W44043  43.999  25.486   0.324
72428W        W44044   9.159  41.998   2.795
72429W        W44045  29.515  34.263   2.868
72430W        W44046  26.000   9.297   3.632
72431W        W44047  39.038  21.193   9.996
72432W        W44048  13.092  43.935  12.077
72433W        W44049  32.635   7.575  12.561
72434W        W44050  23.355  19.677   3.388
72435W        W44051  18.753  24.533  10.563
72436W        W44052  31.402   4.259   1.421
72437W        W44053   6.287   7.239   4.115
72438W        W44054  29.055  13.296   0.791
72439W        W44055  23.770  17.690  12.414
72440W        W44056  43.839  20.679   0.456
72441W        W44057  27.959   7.436  14.703
72442W        W44058  29.876  39.450  10.570
72443W        W44059  34.089   8.963  11.925
72444W        W44060  29.000  19.593   0.979
72445W        W44061  27.499   9.421   2.573
72446W        W44062  34.095  30.371   3.701
72447W        W44063  12.358  39.416   4.373
72448W        W44064  24.160   9.371   0.313
72449W        W44065  43.795  33.840   4.568
72450W        W44066  26.459  20.304   2.673
72451W        W44067  22.235   4.233  13.991
72452W        W44068   3.677  41.933   1.582
72453W        W44069  41.584  18.063  10.724
72454W        W44070  32.178  30.128  13.824
72455W        W44071  36.631  24.571   3.188
72456W        W44072  41.451  44.996   1.840
72457W        W44073  21.108  34.986   2.318
72458W        W44074  28.876   3.175  14.504
72459W        W44075   1.389  39.900   0.537
72460W        W44076  29.578  12.144  11.226
72461W        W44077  21.119   5.975  11.965
72462W        W44078  28.079  22.421  10.447
72463W        W44079  21.035   3.743   1.324
72464W        W44080  23.726  42.560  12.463
72465W        W44081  23.715  40.050  10.549
72466W        W44082  36.055  16.509   3.191
72467W        W44083   1.986  27.063  10.893
72468W        W44084  44.027  10.406  14.517
72469W        W44085  21.988   5.215   1.869
72470W        W44086  34.743  17.155  10.463
72471W        W44087   9.820  42.426  12.108
72472W        W44088  26.053  31.142   4.587
72473W        W44089  22.198  43.204  14.086
72474W        W44090  36.116  18.510  11.541
72475W        W44091   7.071  16.071  13.359
72476W        W44092  28.229  10.057   2.283
72477W        W44093  19.674  35.890  12.409
72478W        W44094  33.057  20.770  13.970
72479W        W44095  17.228  40.237   1.095
72480W        W44096  19.674  37.665   2.836
72481W        W44097  17.436   3.922  14.101
72482W        W44098  17.513  25.265   0.218
72483W        W44099   7.246  15.567  10.684
72484W        W44100  28.626  30.580  13.111
72485W        W44101   3.453  39.735  12.999
72486W        W44102  24.667  39.703  11.655
72487W        W44103   4.843  38.079   2.608
72488W        W44104  25.654  16.145   0.892
72489W        W44105  16.710   4.851   4.968
72490W        W44106   7.244   4.719   1.855
72491W        W44107  42.695  41.786   0.802
72492W        W44108   1.983  38.842   0.495
72493W        W44109   0.409   7.874   2.683
72494W        W44110  43.939  36.997   2.884
72495W        W44111   5.996  22.595  10.705
72496W        W44112  41.418  19.552   4.242
72497W        W44113  12.229  31.055  11.944
72498W        W44114  26.198  24.733   3.461
72499W        W44115  14.586   4.667   2.294
72500W        W44116   6.465  34.038   4.195
72501W        W44117  17.708   7.192  12.376
72502W        W44118  26.173  16.544  14.369
72503W        W44119   7.346  20.972   4.791
72504W        W44120  41.573   8.124  13.464
72505W        W44121  13.066   5.802   1.056
72506W        W44122  18.161  30.492  12.111
72507W        W44123  31.341   7.361   2.405
72508W        W44124  17.655  22.960  11.975
72509W        W44125   8.373   5.935  12.388
72510W        W44126  44.227   6.462  10.289
72511W        W44127  36.355  13.815  11.045
72512W        W44128  10.752  27.972  12.576
72513W        W44129  13.305  17.679   0.376
72514W        W44130  40.652  18.110  13.650
72515W        W44131  43.015  15.028  11.586
72516W        W44132  13.329   7.210  11.638
72517W        W44133  43.215  27.534   2.772
72518W        W44134  35.922  13.797   4.484
72519W        W44135  12.133   9.966   3.003
72520W        W44136   9.750  38.953  12.296
72521W        W44137  33.458   8.228  13.349
72522W        W44138  30.490  35.933   1.274
72523W        W44139   3.253  28.072   5.052
72524W        W44140  39.074  38.556  12.401
72525W        W44141  13.698  19.808   0.806
72526W        W44142  20.301  32.405  12.550
72527W        W44143  10.205  38.831   4.969
72528W        W44144  31.356   1.975   3.158
72529W        W44145  10.378   6.542   1.388
72530W        W44146   1.918  35.527  12.528
72531W        W44147  28.919  35.656  13.421
72532W        W44148  17.266  15.374  10.645
72533W        W44149  22.081   0.514   3.756
72534W        W44150  29.508  18.159   3.212
72535W        W44151   5.463   6.603  11.644
72536W        W44152  28.547  20.899   2.638
72537W        W44153  13.565  44.852  13.305
72538W        W44154  15.859  17.274   3.602
72539W        W44155  18.143   5.428  12.050
72540W        W44156  16.567  23.166   4.559
72541W        W44157  25.249  20.039  14.829
72542W        W44158  24.440   3.941  14.775
72543W        W44159  39.509   5.242   2.111
72544W        W44160  39.757  31.670   0.976
72545W        W44161  20.972  16.626   9.978
72546W        W44162  23.250  38.148   1.317
72547W        W44163  29.404   5.429  14.487
72548W        W44164  28.479   0.513   4.693
72549W        W44165  29.409  11.921  11.654
72550W        W44166  28.951  10.928  11.567
72551W        W44167  29.595  43.414  13.313
72552W        W44168  22.361  32.612  12.546
72553W        W44169  12.648  25.499   1.798
72554W        W44170  10.327   6.297  11.548
72555W        W44171  25.191  33.078   4.610
72556W        W44172  16.871  41.568  13.847
72557W        W44173  14.107  18.294   4.674
72558W        W44174  31.965  37.488  10.966
72559W        W44175  15.964  28.945   1.228
72560W        W44176  32.372  23.057  11.536
72561W        W44177   8.750   9.197  14.089
72562W        W44178  19.657  21.984   1.982
72563W        W44179   3.103  37.372   0.385
72564W        W44180  32.341  18.140   4.692
72565W        W44181   8.926  41.118  14.092
72566W        W44182   4.708  16.814   5.037
72567W        W44183   4.490  10.768   1.597
72568W        W44184  38.788   9.150   2.277
72569W        W44185  19.276  33.307  13.696
72570W        W44186  16.827  12.137  13.587
72571W        W44187  24.227  19.258  13.796
72572W        W44188  25.293   4.742  12.395
72573W        W44189  22.842  25.324   4.200
72574W        W44190  29.072  10.825  13.619
72575W        W44191  36.818  11.572   4.691
72576W        W44192   9.453  19.749  13.489
72577W        W44193  14.256  10.907  11.849
72578W        W44194  13.660   4.958  10.839
72579W        W44195  26.914  40.271  12.950
72580W        W44196  39.728  36.492   2.784
72581W        W44197   0.445  17.458  12.728
72582W        W44198  32.333  18.295   1.830
72583W        W44199  19.267  13.717   4.941
72584W        W44200  36.409  10.339  11.571
72585W        W44201  18.748   9.107   1.078
72586W        W44202   8.081  40.817   3.600
72587W        W44203   5.999  17.050  10.286
72588W        W44204  15.195  17.998   5.011
72589W        W44205  39.158  21.748  13.938
72590W        W44206  22.678  32.957   1.675
72591W        W44207  18.784  43.910  12.850
72592W        W44208  39.429  14.575   1.766
72593W        W44209  30.656  24.657  12.085
72594W        W44210  36.898   9.334  11.535
72595W        W44211  33.927  37.499  13.281
72596W        W44212  27.079  29.980  14.768
72597W        W44213  32.100  20.517  13.942
72598W        W44214  40.699  13.548  13.368
72599W        W44215  34.984  35.608  11.081
72600W        W44216  20.180  25.199  10.029
72601W        W44217  37.004  23.739  11.093
72602W        W44218  20.174  16.057   2.356
72603W        W44219  28.964  26.567   4.268
72604W        W44220  41.550  21.737   0.604
72605W        W44221   4.949  28.935   0.133
72606W        W44222   4.976  17.586  12.913
72607W        W44223  40.301  37.208   1.317
72608W        W44224   1.616  26.691   2.374
72609W        W44225   2.796  13.626   4.145
72610W        W44226  38.262  10.374  10.207
72611W        W44227   8.960   3.357   5.025
72612W        W44228  40.389   9.136  12.819
72613W        W44229  39.850   0.168  13.405
72614W        W44230  18.713  19.962  13.176
72615W        W44231   2.252  14.716  12.566
72616W        W44232   9.803  29.180  14.973
72617W        W44233   2.914  44.797  14.817
72618W        W44234  13.424  39.301   1.185
72619W        W44235  36.477  24.084   0.205
72620W        W44236   9.002   1.434  14.508
72621W        W44237  38.539   5.648  14.025
72622W        W44238   0.298   4.933  10.617
72623W        W44239  44.561  44.336   2.878
72624W        W44240   0.221  10.929   3.827
72625W        W44241  42.350  18.596  11.084
72626W        W44242   5.249   4.731   0.371
72627W        W44243  14.504  39.921   4.748
72628W        W44244  14.081  35.026  11.209
72629W        W44245   4.670   6.494   4.921
72630W        W44246  22.973   9.866  13.269
72631W        W44247  32.392  31.472   0.512
72632W        W44248  20.309  22.905  11.329
72633W        W44249  26.081  24.520  10.445
72634W        W44250   2.594  44.804   5.116
72635W        W44251  10.704  10.934   0.842
72636W        W44252   9.791  19.146  11.068
72637W        W44253  38.337  13.078  13.915
72638W        W44254  20.227  30.818  10.452
72639W        W44255  38.089  15.016  11.540
72640W        W44256  14.437  18.931   4.098
72641W        W44257  12.755  32.675   1.785
72642W        W44258  40.653  38.843   4.935
72643W        W44259  14.125  33.360  11.557
72644W        W44260  27.734  16.999   0.713
72645W        W44261  25.620  41.904  11.455
72646W        W44262  37.970  16.303   0.864
72647W        W44263  11.553  34.794  14.255
72648W        W44264  12.351   4.238  12.828
72649W        W44265  12.858  18.609  13.933
72650W        W44266  28.614  32.034   3.886
72651W        W44267  26.441  25.206  12.377
72652W        W44268  29.944  26.435   3.876
72653W        W44269  29.874   6.023  12.917
72654W        W44270  34.547  14.807  12.184
72655W        W44271   2.273  17.731   4.335
72656W        W44272  39.502   6.003   1.403
72657W        W44273  13.764  36.243   4.588
72658W        W44274   1.542  29.856  14.861
72659W        W44275  28.149  20.211   0.719
72660W        W44276  30.705  44.303  13.048
72661W        W44277  35.868  40.359  11.547
72662W        W44278  29.356  40.032   4.280
72663W        W44279   0.666  26.639   4.492
72664W        W44280   3.858  37.285  14.263
72665W        W44281   4.937   3.721  13.925
72666W        W44282  24.770  44.367  13.298
72667W        W44283  12.193  41.959   1.999
72668W        W44284  17.151  17.276   1.146
72669W        W44285  33.639  16.346  12.071
72670W        W44286  25.559  27.929   4.032
72671W        W44287  14.226  21.509  11.157
72672W        W44288  30.273   0.983   4.958
72673W        W44289   0.227  26.030  12.879
72674W        W44290  21.776  20.576   2.241
72675W        W44291  42.939  43.086   3.162
72676W        W44292  39.520  22.772  10.970
72677W        W44293  30.428  32.579   4.111
72678W        W44294  34.113  32.843   1.303
72679W        W44295  28.534  33.855  10.671
72680W        W44296   7.169  18.172   1.211
72681W        W44297   2.889  16.995  12.452
72682W        W44298  12.098  36.473   3.697
72683W        W44299  38.239  12.142   1.035
72684W        W44300   0.687   1.902   4.334
72685W        W44301  12.363  34.938  12.124
72686W        W44302  27.325  29.372  14.037
72687W        W44303  40.917  26.026  10.438
72688W        W44304  14.604  36.793   0.346
72689W        W44305  43.313  11.846   3.872
72690W        W44306  13.297  29.153  11.190
72691W        W44307  24.971   3.019   1.144
72692W        W44308  25.652  27.922   2.701
72693W        W44309  33.053  33.483  14.087
72694W        W44310  38.796   6.052   5.016
72695W        W44311   0.781  26.557  14.614
72696W        W44312  36.730  27.205  13.024
72697W        W44313  17.609  26.599   3.633
72698W        W44314  39.756  11.780  10.249
72699W        W44315  35.468  33.642  13.525
72700W        W44316  34.579  12.106   4.156
72701W        W44317   4.909  26.711  14.111
72702W        W44318  28.614  16.824   4.958
72703W        W44319  40.366  38.572   2.132
72704W        W44320  15.230  39.961   2.790
72705W        W44321   7.772  12.638  12.997
72706W        W44322  14.332   9.025  11.189
72707W        W44323  33.388  42.389  12.654
72708W        W44324  27.970   8.522  11.162
72709W        W44325  33.735  26.489  14.255
72710W        W44326   5.006   2.474   2.239
72711W        W44327  15.532  35.431   2.494
72712W        W44328   5.236   9.212  12.886
72713W        W44329   0.475   9.971   1.816
72714W        W44330  33.544  23.043  12.878
72715W        W44331  25.055  13.784  10.591
72716W        W44332  37.564  32.035   4.698
72717W        W44333  32.122  29.707   2.400
72718W        W44334   6.365  21.612   1.990
72719W        W44335   7.343   4.534   3.317
72720W        W44336   1.361  33.681   4.388
72721W        W44337  23.061  34.165   2.632
72722W        W44338  18.311  42.059  11.481
72723W        W44339  33.631   8.203   2.779
72724W        W44340  40.065  28.064   2.551
72725W        W44341  10.153  29.834   4.116
72726W        W44342  22.035  43.968  11.540
72727W        W44343  20.336  35.166   3.423
72728W        W44344  24.456  24.323  14.098
72729W        W44345  42.920  37.834  13.885
72730W        W44346   2.372  44.420  10.567
72731W        W44347  12.836  42.383  11.681
72732W        W44348  43.053   5.212  14.442
72733W        W44349   3.658  12.266   1.695
72734W        W44350  15.573   4.735   2.726
72735W        W44351  35.176  22.260  12.128
72736W        W44352  34.848  21.722  12.932
72737W        W44353  11.505  13.776   2.680
72738W        W44354  27.754  28.585  14.134
72739W        W44355  16.685  42.954   3.119
72740W        W44356  36.898   1.462  11.890
72741W        W44357  24.032  16.932   9.780
72742W        W44358   5.834  36.483  14.926
72743W        W44359  26.935  37.962   1.402
72744W        W44360  39.055  11.712   3.688
72745W        W44361  12.706   6.873  12.513
72746W        W44362   3.367  11.348  14.238
72747W        W44363   2.462  22.163  11.607
72748W        W44364   2.012  18.165  11.941
72749W        W44365  15.022  24.279   4.251
72750W        W44366  27.895  26.279   1.324
72751W        W44367  28.102  20.847  11.573
72752W        W44368  24.790  31.606   3.273
72753W        W44369  15.153   6.663  13.545
72754W        W44370   6.466   6.836   0.316
72755W        W44371  35.501   0.109  10.636
72756W        W44372  12.309  10.922  12.031
72757W        W44373   0.987  15.983   2.427
72758W        W44374   7.617  25.469   0.796
72759W        W44375  12.425  13.790  13.990
72760W        W44376  40.778  15.824  12.384
72761W        W44377  10.511  29.441   4.085
72762W        W44378   4.970  27.158   0.768
72763W        W44379  40.029  33.784  12.441
72764W        W44380  26.110  22.455   4.180
72765W        W44381   2.720  38.115  14.988
72766W        W44382  21.745   3.029  12.170
72767W        W44383  19.733  33.110  12.949
72768W        W44384  31.834  44.534   4.576
72769W        W44385  15.733  42.866   2.622
72770W        W44386  28.944  17.127   3.623
72771W        W44387  25.449  40.001   0.003
72772W        W44388  38.951  25.345   1.573
72773W        W44389  31.202  36.754  14.289
72774W        W44390  31.609  35.886  14.884
72775W        W44391  25.685  37.425  10.771
72776W        W44392  40.828   6.473  10.755
72777W        W44393  35.860  41.855  14.080
72778W        W44394  29.156  42.579   1.194
72779W        W44395  39.560   5.719  12.993
72780W        W44396  25.785  26.511   4.998
72781W        W44397   1.369  11.849  11.947
72782W        W44398  14.246  44.954  14.917
72783W        W44399  21.014  35.904  10.666
72784W        W44400  44.879  20.590  14.796
72785W        W44401  10.797  21.746  11.437
72786W        W44402  11.085  41.329  13.446
72787W        W44403  11.169  35.811   3.759
72788W        W44404  14.516  33.193   1.027
72789W        W44405  42.859  11.267   2.431
72790W        W44406  32.450  32.599  12.685
72791W        W44407  17.957   2.887   2.269
72792W        W44408  26.746  33.562   2.778
72793W        W44409  32.892  40.239   1.405
72794W        W44410   5.728  20.040  13.469
72795W        W44411  43.908  26.190   4.796
72796W        W44412  42.375  27.029   0.547
72797W        W44413   2.027  36.837   2.699
72798W        W44414  18.124  17.210   4.454
72799W        W44415  35.093  27.614  12.457
72800W        W44416  30.593  34.366  13.321
72801W        W44417   9.041  33.016  13.873
72802W        W44418  39.653  34.645   5.156
72803W        W44419  29.946  44.694   2.766
72804W        W44420  11.390  21.225  13.291
72805W        W44421  15.263   9.864   3.039
72806W        W44422  13.310  23.071   0.048
72807W        W44423  44.400  33.976   2.486
72808W        W44424  25.746  11.350   2.253
72809W        W44425   5.770  42.249  10.989
72810W        W44426  30.935   5.458   2.176
72811W        W44427  37.467  29.428  10.369
72812W        W44428  28.478   1.737   2.944
72813W        W44429  14.137  31.445  13.946
72814W        W44430  30.823  19.252  10.528
72815W        W44431   9.885  19.193   4.406
72816W        W44432  36.274  24.381   2.815
72817W        W44433  42.301  40.097  12.860
72818W        W44434  13.319  36.979   2.627
72819W        W44435  18.023  31.458  12.070
72820W        W44436   9.859  14.275  12.371
72821W        W44437  34.283  25.667  11.985
72822W        W44438  31.496   4.311   0.250
72823W        W44439   4.175  20.014   3.696
72824W        W44440   7.720  14.376  14.244
72825W        W44441  24.147  25.847   0.228
72826W        W44442  13.013  40.451   4.413
72827W        W44443  14.453  42.569  13.793
72828W        W44444   2.707  20.060  13.445
72829W        W44445  24.479  13.253   3.811
72830W        W44446  24.996  29.499   1.918
72831W        W44447   6.927  23.626  12.403
72832W        W44448  21.044  33.589   3.729
72833W        W44449  20.694   7.317   4.555
72834W        W44450  28.731  21.538  12.497
72835W        W44451  38.344  35.996   0.310
72836W        W44452  43.578  23.152  14.406
72837W        W44453  37.841   5.356  11.072
72838W        W44454  21.253  41.025   2.728
72839W        W44455  24.754  14.545  13.942
72840W        W44456   1.013  29.634   1.711
72841W        W44457  32.638   9.203   2.926
72842W        W44458  42.908  22.977  12.203
72843W        W44459  36.679  18.733   4.782
72844W        W44460  39.741   1.798   2.899
72845W        W44461   7.871  30.608   3.775
72846W        W44462  29.426  27.200   4.931
72847W        W44463  10.644  30.807   0.175
72848W        W44464  13.519  16.086  13.417
72849W        W44465   9.248  28.332  12.362
72850W        W44466  31.179  34.014  10.703
72851W        W44467   0.240  15.440   2.809
72852W        W44468   7.763  20.666   4.811
72853W        W44469  16.763   9.186   0.032
72854W        W44470  10.241  28.710  13.463
72855W        W44471  28.907  43.834   2.696
72856W        W44472  18.888  39.745   3.727
72857W        W44473  32.517  28.020  13.413
72858W        W44474   2.019  38.917  12.884
72859W        W44475  11.660  21.125   3.746
72860W        W44476  13.965  36.024  11.872
72861W        W44477   3.797   0.924  13.040
72862W        W44478  25.752   0.065  14.793
72863W        W44479  43.292  24.164  12.957
72864W        W44480  34.172  44.680  11.125
72865W        W44481   4.351  24.471  11.074
72866W        W44482  40.492   6.765   2.766
72867W        W44483  30.249  39.079  13.706
72868W        W44484  44.702  16.049   1.351
72869W        W44485  26.653   5.494  13.325
72870W        W44486   3.430  14.858   3.927
72871W        W44487  38.532  32.088  12.338
72872W        W44488  37.307  19.610   0.233
72873W        W44489  20.089  14.139   3.327
72874W        W44490  10.322  31.224   4.331
72875W        W44491   5.827  28.866   4.842
72876W        W44492   6.384  37.614  13.399
72877W        W44493  11.682   4.008   3.348
72878W        W44494  23.243  33.550   1.395
72879W        W44495  22.116  13.732   1.875
72880W        W44496  17.125  21.288   4.623
72881W        W44497   3.757  30.894   4.834
72882W        W44498  27.229  29.521  14.516
72883W        W44499  15.325  32.334   3.632
72884W        W44500   4.988  37.615   3.768
72885W        W44501  26.600  27.269  13.325
72886W        W44502  14.840  10.317   4.636
72887W        W44503  17.418  13.246  14.785
72888W        W44504  11.276  12.919   2.155
72889W        W44505  34.364  42.073   4.067
72890W        W44506  24.253  10.108   0.079
72891W        W44507  37.118  15.807   3.805
72892W        W44508  41.575  36.362  11.948
72893W        W44509  20.699  21.281  14.885
72894W        W44510   6.603  22.639  13.889
72895W        W44511  28.720  44.496  11.960
72896W        W44512  37.905  25.011  14.306
72897W        W44513  32.148  28.765   2.022
72898W        W44514  19.021  12.795   1.006
72899W        W44515  20.325  17.832  10.371
72900W        W44516  13.512  38.413   4.611
72901W        W44517   7.791   7.468  14.637
72902W        W44518  41.483  37.376   2.280
72903W        W44519  32.000   8.168  13.782
72904W        W44520  26.503   7.952  12.029
72905W        W44521  10.803   2.789  12.564
72906W        W44522  26.245  24.022  10.621
72907W        W44523  16.803   6.922   0.189
72908W        W44524  20.005   6.406   1.804
72909W        W44525  44.779  18.641   3.343
72910W        W44526   0.306  28.424   4.668
72911W        W44527  17.290  24.024   3.365
72912W        W44528  27.241  14.175   0.411
72913W        W44529  36.637  26.976  12.550
72914W        W44530  21.824  10.298  10.772
72915W        W44531   6.170  28.879  11.133
72916W        W44532   1.866   3.934  12.985
72917W        W44533   5.643  12.740   1.912
72918W        W44534   8.352  10.673  13.961
72919W        W44535  34.893  15.519   4.088
72920W        W44536  10.769  14.271  11.536
72921W        W44537  44.675  41.037   5.093
72922W        W44538  21.734  33.480   4.112
72923W        W44539  18.321  38.268   4.575
72924W        W44540  35.590  32.482  11.527
72925W        W44541  29.435  31.483   2.790
72926W        W44542   0.248  15.757   0.045
72927W        W44543  19.741  32.573   2.134
72928W        W44544  12.348  16.207  11.524
72929W        W44545  32.966  44.854   1.198
72930W        W44546  39.546  37.906  12.589
72931W        W44547  39.813  30.384  14.101
72932W        W44548  36.394  12.374  11.930
72933W        W44549  16.326  32.660   4.108
72934W        W44550  19.581  30.057   0.502
72935W        W44551  32.938  19.070  10.727
72936W        W44552  30.624  32.669   1.786
72937W        W44553  18.864   2.522   3.893
72938W        W44554  12.194  44.680  14.012
72939W        W44555  28.823  44.797   1.768
72940W        W44556  27.373  12.808  13.001
72941W        W44557  15.232   7.428   4.260
72942W        W44558  25.221  14.064  11.476
72943W        W44559  17.672  12.716   3.706
72944W        W44560   9.190   4.469   3.256
72945W        W44561  34.604  40.733   3.642
72946W        W44562  34.862   1.233   4.726
72947W        W44563  28.830  35.979   0.902
72948W        W44564   2.806   6.670   2.353
72949W        W44565  22.473  37.655  13.316
72950W        W44566   9.313  12.253  12.612
72951W        W44567   6.883  20.106  13.020
72952W        W44568  36.442   9.997  11.952
72953W        W44569  11.275  40.265  12.625
72954W        W44570  15.556  16.292   3.819
72955W        W44571  23.965  44.225  12.854
72956W        W44572  11.510  28.841  12.079
72957W        W44573  29.225  23.096   0.685
72958W        W44574   3.976  43.722   3.289
72959W        W44575  12.576  13.699  11.149
72960W        W44576  43.508  23.839   2.207
72961W        W44577   1.421   3.619   0.803
72962W        W44578  42.951   1.861  11.160
72963W        W44579  35.556   6.097  13.655
72964W        W44580  16.539  37.050   4.152
72965W        W44581  34.582   5.493  11.523
72966W        W44582   1.160  30.014   4.294
72967W        W44583  30.508  25.162  12.031
72968W        W44584  33.570  23.561  12.885
72969W        W44585   0.284  14.033   0.730
72970W        W44586  23.997  19.469  10.424
72971W        W44587  30.191  20.693  14.766
72972W        W44588  13.159  10.251   1.031
72973W        W44589  40.832  18.001  11.104
72974W        W44590   1.912  17.024  13.911
72975W        W44591  19.083  33.733   2.739
72976W        W44592   0.534   1.944  14.949
72977W        W44593  44.395  17.724  12.108
72978W        W44594  16.280  42.659  10.683
72979W        W44595  14.078  28.696  13.728
72980W        W44596  35.257  37.567  11.632
72981W        W44597   8.531  17.286   1.136
72982W        W44598  13.125  24.153   2.861
72983W        W44599   5.885  15.843   4.980
72984W        W44600  40.170  32.290   4.165
72985W        W44601  15.666  32.424   1.952
72986W        W44602  26.608  22.225   0.892
72987W        W44603  17.564   5.190   3.420
72988W        W44604  32.509  40.292  14.987
72989W        W44605  28.489  27.736   0.454
72990W        W44606  22.061  30.220  10.889
72991W        W44607  37.367  21.646  14.351
72992W        W44608   3.649  32.988  14.348
72993W        W44609  18.578  43.013   4.101
72994W        W44610  38.971  42.776  10.525
72995W        W44611  27.927   0.561   1.066
72996W        W44612  10.255  18.287  14.898
72997W        W44613  22.085  25.110  12.140
72998W        W44614   9.131  32.464  11.182
72999W        W44615  29.952  26.549   2.335
73000W        W44616  25.403  23.202   1.500
73001W        W44617  11.701  40.819   1.304
73002W        W44618  32.591   1.960   5.502
73003W        W44619   0.805  36.517  13.507
73004W        W44620  40.572  16.282  10.665
73005W        W44621  22.015  14.878  14.806
73006W        W44622  33.695  35.615  13.445
73007W        W44623  29.018  18.301   0.372
73008W        W44624  27.559  14.567  12.471
73009W        W44625  23.754  41.482  13.481
73010W        W44626  19.095  12.191   4.049
73011W        W44627  18.245  32.730   4.177
73012W        W44628   6.234  23.159   0.193
73013W        W44629  18.590  30.558   0.840
73014W        W44630  10.654  21.952  12.631
73015W        W44631  19.997  36.692  14.819
73016W        W44632  16.339   1.716   3.552
73017W        W44633   1.682   2.399  12.904
73018W        W44634  40.233  42.070  11.224
73019W        W44635  25.625  13.149  11.203
73020W        W44636  22.667  35.029   4.157
73021W        W44637  20.780  15.300  12.861
73022W        W44638  30.480  16.331   4.023
73023W        W44639  33.513  10.631   2.890
73024W        W44640  34.588  40.250   0.017
73025W        W44641   3.197  36.102   4.288
73026W        W44642  40.300  35.870  12.983
73027W        W44643  17.528  37.076  10.463
73028W        W44644  16.889  42.104  10.190
73029W        W44645   4.890  11.429   3.599
73030W        W44646   5.098  37.838   0.731
73031W        W44647   8.150  19.026   1.203
73032W        W44648  29.429  44.261   3.715
73033W        W44649  38.510   8.223   4.543
73034W        W44650   6.140  15.547  13.433
73035W        W44651  26.255   9.825   0.447
73036W        W44652  39.106  30.671  12.002
73037W        W44653  20.020  11.627   4.388
73038W        W44654  39.799  41.760  11.244
73039W        W44655  41.889  43.019   0.748
73040W        W44656  23.676  24.048   1.785
73041W        W44657  15.307  37.964  12.153
73042W        W44658  39.492  29.492  11.092
73043W        W44659   7.056  20.827  11.124
73044W        W44660  22.121  14.756  13.808
73045W        W44661  17.553   3.661  10.553
73046W        W44662  27.209  27.572   0.337
73047W        W44663  21.286  28.574  13.920
73048W        W44664  24.616  39.712  10.762
73049W        W44665  29.480  14.307  12.424
73050W        W44666  39.320  23.145  13.489
73051W        W44667  29.105  43.393   0.857
73052W        W44668   5.776  21.766  14.330
73053W        W44669  36.449  31.489   3.022
73054W        W44670  41.842   2.732   0.722
73055W        W44671  44.336  24.946   0.693
73056W        W44672   5.093  44.450   5.128
73057W        W44673  13.208  23.570   1.734
73058W        W44674   1.726  42.715   2.728
73059W        W44675  16.780  13.748  11.114
73060W        W44676  36.486  38.770   4.181
73061W        W44677   1.975  20.178   4.979
73062W        W44678  18.154  34.225   3.167
73063W        W44679  24.778  21.641  12.097
73064W        W44680  14.832  24.188   1.033
73065W        W44681  42.866  32.975   0.675
73066W        W44682  11.754  28.745  13.866
73067W        W44683  14.214  25.554   2.598
73068W        W44684  18.133   2.536  12.613
73069W        W44685  28.669  42.437   0.989
73070W        W44686   6.181  41.502  13.362
73071W        W44687  44.105  28.109   2.786
73072W        W44688  10.804  12.423  10.898
73073W        W44689  20.229  23.419  14.942
73074W        W44690  27.582  18.345  12.927
73075W        W44691  21.015  43.426   0.885
73076W        W44692  17.795  43.259   3.136
73077W        W44693  33.014   2.033   5.213
73078W        W44694  43.829  10.178   4.584
73079W        W44695  44.080  32.998  12.626
73080W        W44696  29.933  23.281  14.888
73081W        W44697  42.426  40.339   4.563
73082W        W44698  42.015   2.528  11.689
73083W        W44699   7.593   6.937   2.424
73084W        W44700  21.693  16.202   1.139
73085W        W44701   7.886  10.070   0.318
73086W        W44702   1.218  11.593   1.733
73087W        W44703  37.628   7.392   4.187
73088W        W44704   7.756  25.727  12.469
73089W        W44705   0.288  12.283   3.329
73090W        W44706  24.989   3.534   1.133
73091W        W44707   6.878  42.634   1.869
73092W        W44708  13.732   7.779  12.292
73093W        W44709  43.082  42.064   0.430
73094W        W44710  18.125  12.734   4.711
73095W        W44711  37.895   9.131   1.239
73096W        W44712  33.576  43.433   0.922
73097W        W44713   5.802  39.767   0.330
73098W        W44714   9.192  20.076   3.624
73099W        W44715  41.994   7.527   2.279
73100W        W44716  19.692  26.114   4.171
73101W        W44717  36.694  17.475   1.827
73102W        W44718  44.888  17.371  13.462
73103W        W44719  30.092  31.723   1.935
73104W        W44720  27.999   3.045  10.303
73105W        W44721  18.595  14.612  13.145
73106W        W44722  43.335  29.907   2.872
73107W        W44723  35.987   0.847   0.432
73108W        W44724  17.077  31.187  14.420
73109W        W44725  27.709  11.266  13.441
73110W        W44726   5.368  27.216   0.429
73111W        W44727  23.119   6.144   4.220
73112W        W44728  19.110   5.173  11.616
73113W        W44729   3.299   3.410   1.429
73114W        W44730  10.153  31.008   3.264
73115W        W44731  41.788  21.014  13.841
73116W        W44732   9.143  43.041   0.783
73117W        W44733   9.552  27.899   2.144
73118W        W44734   5.787  39.487  11.118
73119W        W44735   9.715  37.767  13.321
73120W        W44736  13.854   5.794   4.134
73121W        W44737  43.356  26.019  14.046
73122W        W44738  21.732  20.590  11.789
73123W        W44739  44.839  43.909   4.376
73124W        W44740  16.599  27.494  10.696
73125W        W44741  22.714  34.004   1.853
73126W        W44742  22.024  25.387  11.528
73127W        W44743  26.746  25.664   4.124
73128W        W44744  36.947  28.666   3.065
73129W        W44745  24.252  40.874   3.802
73130W        W44746  34.411   8.160  13.758
73131W        W44747  24.775  34.651   4.103
73132W        W44748  23.524  39.153   1.736
73133W        W44749  11.177  40.024   4.382
73134W        W44750  28.049  25.382   1.225
73135W        W44751  27.000  13.816  10.817
73136W        W44752  15.715   0.376  14.235
73137W        W44753   8.969  12.241  13.860
73138W        W44754  41.724  39.313   2.790
73139W        W44755  17.749  18.863  14.276
73140W        W44756  29.644  11.100  10.459
73141W        W44757   7.843  39.314   4.663
73142W        W44758  25.202   0.103   0.753
73143W        W44759   0.841  34.965  12.521
73144W        W44760  13.725  34.971  14.456
73145W        W44761  32.832  22.907   1.723
73146W        W44762  14.347  10.924   1.817
73147W        W44763   8.415  27.282   0.729
73148W        W44764   6.965   7.899  13.268
73149W        W44765   8.612  25.037   4.045
73150W        W44766  17.062   8.343   1.449
73151W        W44767  17.327   4.139  10.693
73152W        W44768  40.071  42.078   2.857
73153W        W44769  27.482  28.084  13.283
73154W        W44770  28.995  24.976  12.435
73155W        W44771  38.037   3.968  14.314
73156W        W44772  39.308  33.834  13.148
73157W        W44773  12.548  22.101   1.104
73158W        W44774   0.397  23.146   2.274
73159W        W44775  38.586  27.987   0.744
73160W        W44776   3.334  32.526   2.212
73161W        W44777   7.455  28.498  14.804
73162W        W44778  10.435  27.254   3.368
73163W        W44779  30.024  24.664   0.240
73164W        W44780   1.380   8.910   2.382
73165W        W44781  29.774  29.964  14.533
73166W        W44782  16.075  35.011   4.355
73167W        W44783   3.510  20.009  11.993
73168W        W44784  23.277  42.561   3.907
73169W        W44785   1.187  22.179  12.565
73170W        W44786  18.541  32.471   0.882
73171W        W44787  41.828  33.780  12.411
73172W        W44788  44.084  30.442  14.722
73173W        W44789  37.883  14.376   1.134
73174W        W44790  34.172  40.049   4.166
73175W        W44791  19.085  36.417   2.129
73176W        W44792  23.126  39.751   3.219
73177W        W44793  12.352  10.401  12.955
73178W        W44794   2.851   0.285   2.400
73179W        W44795  19.220  40.395   4.376
73180W        W44796  21.413  17.138   1.872
73181W        W44797  22.241  18.827  12.939
73182W        W44798  19.225   2.629   1.737
73183W        W44799  40.521   8.138  11.344
73184W        W44800  43.887   7.583  10.622
73185W        W44801  36.102  34.828  14.375
73186W        W44802   1.469   4.953  14.362
73187W        W44803  25.886  33.643  12.826
73188W        W44804  22.092  20.002   1.113
73189W        W44805  14.238  43.471   3.282
73190W        W44806   1.440  41.924  12.441
73191W        W44807  11.068  23.873  14.971
73192W        W44808  37.325  42.829   3.208
73193W        W44809   3.218  15.785  10.704
73194W        W44810  44.723  26.721   4.350
73195W        W44811   0.393  23.388   4.120
73196W        W44812  13.334   0.419   3.221
73197W        W44813  42.402  32.182  12.108
73198W        W44814  44.918   9.207   2.829
73199W        W44815  39.909   3.747   0.797
73200W        W44816   8.193  44.896  13.256
73201W        W44817  44.960   7.118  14.326
73202W        W44818  20.670  43.833  10.747
73203W        W44819  17.157   4.295  13.847
73204W        W44820   9.971  21.654  14.394
73205W        W44821  28.165  29.653  14.569
73206W        W44822   0.037  20.648  12.439
73207W        W44823  10.118  35.790   1.764
73208W        W44824  38.328  37.575  14.920
73209W        W44825  28.391  10.887   2.698
73210W        W44826  23.970   3.307  12.083
73211W        W44827  42.992  14.630   2.714
73212W        W44828   5.583  11.369   0.948
73213W        W44829  31.409  35.527   1.305
73214W        W44830  38.052  13.114   0.790
73215W        W44831  12.649   7.723   3.501
73216W        W44832  41.258  20.342   4.605
73217W        W44833  23.745   1.286  13.018
73218W        W44834  24.482  40.563  11.170
73219W        W44835  21.663  35.261   4.262
73220W        W44836  24.396  24.137   2.736
73221W        W44837   3.296  41.553  11.605
73222W        W44838  32.686  26.671  11.110
73223W        W44839  34.742  10.024  10.313
73224W        W44840  14.677  24.142  11.879
73225W        W44841  30.056   6.863  10.394
73226W        W44842  38.147  17.402   0.602
73227W        W44843  41.778  21.329   4.648
73228W        W44844  22.775  37.658  10.709
73229W        W44845  42.918  30.266  11.171
73230W        W44846   7.695  36.305  14.974
73231W        W44847  19.481  19.738  12.019
73232W        W44848  14.025  27.063  14.546
73233W        W44849  34.877  18.301  12.464
73234W        W44850   0.360   3.533  13.834
73235W        W44851  36.036  10.917   3.716
73236W        W44852  31.542  33.542   0.908
73237W        W44853  16.112   2.923  11.750
73238W        W44854  27.010  28.544   0.540
73239W        W44855  14.145  26.023   0.219
73240W        W44856  12.299  14.252  13.791
73241W        W44857  11.065  43.158  11.105
73242W        W44858   4.420  19.546   1.915
73243W        W44859   4.789   8.320   0.845
73244W        W44860  23.050   9.175   1.529
73245W        W44861  29.677  39.186   0.382
73246W        W44862  32.046  12.271   3.068
73247W        W44863   7.261   8.703  12.261
73248W        W44864  12.640  19.138   3.602
73249W        W44865  30.067  42.885  13.890
73250W        W44866  20.609  33.766   2.771
73251W        W44867   0.266  40.913  13.459
73252W        W44868  19.744  24.436   0.836
73253W        W44869  17.855  44.678   1.842
73254W        W44870  29.728  28.419  12.926
73255W        W44871   0.495  44.350   3.910
73256W        W44872  19.820  34.119  13.964
73257W        W44873  29.123  25.141   4.166
73258W        W44874  19.306  11.868  11.151
73259W        W44875  43.025   8.483   1.901
73260W        W44876  23.201  22.282  13.597
73261W        W44877  16.025  21.658   4.746
73262W        W44878  37.247  10.147  10.102
73263W        W44879  31.503   1.970  13.328
73264W        W44880  41.393  22.737  12.397
73265W        W44881   6.333  12.190  13.459
73266W        W44882  22.677  14.160  14.427
73267W        W44883  43.902  32.718  12.021
73268W        W44884  30.415  37.349  12.048
73269W        W44885   8.297  20.180  12.132
73270W        W44886  28.032  36.402   0.480
73271W        W44887   9.409  21.471   3.832
73272W        W44888   1.736  18.824  14.651
73273W        W44889  14.166  40.549  12.192
73274W        W44890  32.873  27.485   1.832
73275W        W44891   8.155  23.389   2.763
73276W        W44892  25.023  21.056   3.289
73277W        W44893  43.991  30.108  14.332
73278W        W44894   6.786  20.288  11.858
73279W        W44895   9.127  40.515   3.586
73280W        W44896   5.825  36.370  12.428
73281W        W44897   2.577  37.020  13.386
73282W        W44898  44.190  39.515  12.083
73283W        W44899   8.845  29.309  12.056
73284W        W44900  40.971  18.850  10.689
73285W        W44901  21.129   6.267  12.656
73286W        W44902  25.507  36.781   2.617
73287W        W44903  29.918  22.186  12.404
73288W        W44904   9.849   9.831  14.930
73289W        W44905  11.778   4.459   3.592
73290W        W44906   7.087  36.474  12.439
73291W        W44907   7.453   2.077   0.467
73292W        W44908  25.631  31.985   1.267
73293W        W44909   3.856  27.594  11.867
73294W        W44910  42.494  12.145  13.491
73295W        W44911  26.700  13.121  14.746
73296W        W44912  10.371  28.068   1.734
73297W        W44913   6.277  41.778   4.849
73298W        W44914  17.100  24.556   2.245
73299W        W44915   1.441  17.541   2.758
73300W        W44916  21.523   5.896  14.230
73301W        W44917  12.756  12.828   5.228
73302W        W44918   1.777  16.269   3.840
73303W        W44919  38.767  36.048  10.292
73304W        W44920  37.096  20.684  10.669
73305W        W44921  13.245  41.277  11.565
73306W        W44922  28.554   5.715   4.861
73307W        W44923  28.649  15.981   2.784
73308W        W44924  33.002  26.207   4.811
73309W        W44925  14.285  22.584   1.811
73310W        W44926  43.238  17.041  12.511
73311W        W44927  36.345  23.670  13.497
73312W        W44928  25.462  20.107   3.779
73313W        W44929  36.898  12.190   5.333
73314W        W44930  13.627   9.945  13.730
73315W        W44931  25.196   3.029  10.740
73316W        W44932  25.632  10.987   0.496
73317W        W44933   0.008  38.306   0.900
73318W        W44934  27.395  22.491   1.349
73319W        W44935   3.468  31.340   1.690
73320W        W44936  30.499  28.500   4.032
73321W        W44937   4.452  38.657  12.942
73322W        W44938  37.028  39.955  14.170
73323W        W44939   5.202   4.945  10.426
73324W        W44940  28.201  30.845  13.868
73325W        W44941  33.358  18.679   3.861
73326W        W44942  13.932  39.911  14.897
73327W        W44943  36.183  22.218   1.101
73328W        W44944  19.999  26.462   2.256
73329W        W44945  14.224   4.125  13.818
73330W        W44946  13.762   7.603   1.454
73331W        W44947  10.604  34.377   4.235
73332W        W44948  14.550  22.708   3.591
73333W        W44949   3.710  42.884  13.312
73334W        W44950   4.967  15.244  12.967
73335W        W44951  32.619  12.332   3.186
73336W        W44952  17.133   4.927   1.265
73337W        W44953  24.753  44.377  12.429
73338W        W44954  19.531  17.260   4.577
73339W        W44955  22.277  34.156  10.728
73340W        W44956   3.847  17.753  13.877
73341W        W44957  22.846   0.308  14.402
73342W        W44958  39.403  12.085   2.250
73343W        W44959  24.701   1.501   3.754
73344W        W44960  33.306   0.559  11.725
73345W        W44961  15.684  43.917  10.714
73346W        W44962   6.744  28.648  14.827
73347W        W44963  42.459  31.032  11.527
73348W        W44964  20.495  14.608   2.693
73349W        W44965  10.408  12.076   2.133
73350W        W44966  39.364  23.543  11.580
73351W        W44967  23.566  10.956   3.175
73352W        W44968  18.328  21.966   0.203
73353W        W44969   9.621  38.446   0.258
73354W        W44970   2.914  16.521   4.584
73355W        W44971  21.226  16.268   2.341
73356W        W44972  13.141  25.800  11.970
73357W        W44973   3.255  13.134  13.951
73358W        W44974  44.861  36.105  12.922
73359W        W44975  31.104  16.713   0.866
73360W        W44976   5.125  18.258  11.200
73361W        W44977   0.834  37.551   5.315
73362W        W44978  44.453  18.281  14.795
73363W        W44979  14.770  26.674  10.888
73364W        W44980  31.383  21.787  13.593
73365W        W44981  27.633  11.139   1.405
73366W        W44982  42.597  23.319   1.234
73367W        W44983   4.867  39.365  14.319
73368W        W44984  36.904  12.376  14.357
73369W        W44985  33.372  44.321   5.779
73370W        W44986  25.143  18.998   2.803
73371W        W44987  18.631   2.252  10.648
73372W        W44988  12.748  17.352  11.173
73373W        W44989  26.951  30.469  10.909
73374W        W44990  38.119  11.894  14.688
73375W        W44991   0.781  17.274   0.221
73376W        W44992  15.156  34.838   4.690
73377W        W44993  16.780  18.537  14.887
73378W        W44994  18.363  12.212   4.648
73379W        W44995   2.191  36.456  14.478
73380W        W44996  17.230   1.843   2.836
73381W        W44997  16.191  33.620   0.339
73382W        W44998  28.879  33.247  13.331
73383W        W44999  36.513  27.986   1.896
73384W        W45000   7.372  39.909  11.534
73385W        W45001   9.747   3.206  11.196
73386W        W45002   9.793  13.863   2.963
73387W        W45003  18.787  41.345   5.079
73388W        W45004   7.273  34.170  14.361
73389W        W45005   4.622  18.259  13.421
73390W        W45006  25.517  16.633   1.705
73391W        W45007  36.336  20.273   1.113
73392W        W45008  26.707  19.048  11.575
73393W        W45009  26.474  21.492  13.980
73394W        W45010  27.730  29.674   3.574
73395W        W45011   6.302  15.899   5.287
73396W        W45012   4.402  42.639  13.491
73397W        W45013  24.488   3.225   2.372
73398W        W45014  18.836  23.144  14.832
73399W        W45015  20.702  22.734  11.601
73400W        W45016  11.555  15.481  10.649
73401W        W45017  22.426  29.652   1.806
73402W        W45018  18.443   9.913   3.658
73403W        W45019  16.689  27.438  13.828
73404W        W45020  42.942  15.346  14.985
73405W        W45021  18.332  38.410   1.917
73406W        W45022   5.255   1.005  14.711
73407W        W45023  19.170  31.400   2.814
73408W        W45024  23.694  15.870   3.689
73409W        W45025  14.743   6.830   4.605
73410W        W45026  15.988   9.135   3.241
73411W        W45027  13.726  38.941  14.880
73412W        W45028   6.222  24.797   3.071
73413W        W45029  38.367  27.538  13.976
73414W        W45030  21.120  44.444  12.847
73415W        W45031  10.744  29.058   3.557
73416W        W45032  39.184  40.782   3.233
73417W        W45033  26.680  14.324  10.007
73418W        W45034   8.203  23.076  14.028
73419W        W45035  10.194  10.836   3.537
73420W        W45036  14.102   3.245   9.690
73421W        W45037   4.251  35.396   3.665
73422W        W45038  28.598  28.642  12.951
73423W        W45039   4.906  35.144  12.489
73424W        W45040   7.772  24.098   2.238
73425W        W45041  28.187  14.688   3.075
73426W        W45042  29.581  10.322  13.992
73427W        W45043   5.442   8.236  13.292
73428W        W45044  26.920   8.911  12.403
73429W        W45045  10.544   7.393   3.416
73430W        W45046  16.845  27.110   3.859
73431W        W45047  41.873  21.090  10.223
73432W        W45048  29.527  12.281  14.922
73433W        W45049  19.066  16.615   3.113
73434W        W45050  12.851  29.504   0.272
73435W        W45051  17.009  20.502  12.650
73436W        W45052   1.869   8.157   0.801
73437W        W45053  26.345  31.969  11.399
73438W        W45054  34.984  32.910   2.585
73439W        W45055  29.812  18.741  13.441
73440W        W45056  10.099  37.538   4.650
73441W        W45057  12.525   5.306   1.782
73442W        W45058   7.981  13.139  14.080
73443W        W45059  30.445  13.951  11.041
73444W        W45060  15.795   5.761   2.382
73445W        W45061  33.111  11.130   0.263
73446W        W45062  10.840  40.550  14.493
73447W        W45063  21.577  18.804  12.223
73448W        W45064  31.020   3.162  10.071
73449W        W45065  23.826  16.893   1.035
73450W        W45066  13.371  38.571   2.295
73451W        W45067  23.142  23.728  10.491
73452W        W45068   9.335  32.407   0.476
73453W        W45069  44.870  27.461  10.587
73454W        W45070  31.524   5.865   2.352
73455W        W45071  22.159  43.722   0.898
73456W        W45072  12.175   7.754   1.670
73457W        W45073   6.244  13.314   0.273
73458W        W45074   6.961   4.486   4.542
73459W        W45075  18.286  30.377   0.433
73460W        W45076  20.597   3.973  12.531
73461W        W45077  13.736  27.698   0.746
73462W        W45078  32.972  39.981   4.785
73463W        W45079  30.588  22.697  13.366
73464W        W45080  41.020  15.694  11.956
73465W        W45081  35.642   4.799   1.932
73466W        W45082  17.559  38.964  11.313
73467W        W45083  14.189   3.198  13.883
73468W        W45084  32.180  24.564   3.866
73469W        W45085  17.876  32.529  11.146
73470W        W45086   0.060  13.045   3.598
73471W        W45087  38.302  36.310  14.013
73472W        W45088  35.832  15.250   3.787
73473W        W45089  30.502  35.714   3.010
73474W        W45090  19.506  40.639   2.251
73475W        W45091   4.879  18.313   3.631
73476W        W45092   3.198  42.968   2.868
73477W        W45093  24.969   7.160  12.448
73478W        W45094  16.855   9.309   4.798
73479W        W45095   6.799  42.902   0.766
73480W        W45096  29.166  35.139   1.751
73481W        W45097  28.632  38.923  10.767
73482W        W45098  12.304   1.272  13.357
73483W        W45099  22.213  36.043   4.564
73484W        W45100  43.245  31.084   4.933
73485W        W45101  25.757   4.261  11.069
73486W        W45102  33.207  17.596  11.054
73487W        W45103   4.733  18.074   1.386
73488W        W45104   1.608  44.114   4.371
73489W        W45105  14.735  27.994   0.821
73490W        W45106  28.127  37.481  14.477
73491W        W45107  13.835  40.415  13.422
73492W        W45108  28.690  32.585   2.124
73493W        W45109  31.095   5.727   3.780
73494W        W45110   4.974  28.889   2.310
73495W        W45111  43.336  34.888  13.943
73496W        W45112   9.795   1.273  12.404
73497W        W45113  28.475  24.441   3.128
73498W        W45114  35.542  19.130   0.737
73499W        W45115   2.636  42.373  13.455
73500W        W45116  11.771  13.222  11.560
73501W        W45117  41.757  12.253  10.959
73502W        W45118  38.069  38.042  13.037
73503W        W45119  26.705  44.280  11.105
73504W        W45120  38.281  42.525  10.654
73505W        W45121  29.490  10.548   4.546
73506W        W45122  13.869  36.849   1.478
73507W        W45123  12.566  27.318  14.906
73508W        W45124  34.082   9.056   1.292
73509W        W45125   1.835  19.124  12.131
73510W        W45126  29.876  21.301  10.234
73511W        W45127  10.928  16.645   1.913
73512W        W45128  23.905   3.775   1.285
73513W        W45129  33.641  26.576  13.023
73514W        W45130  36.663  16.834  12.043
73515W        W45131  43.936  20.150  13.834
73516W        W45132  29.891   2.367  11.574
73517W        W45133  26.541  12.074   3.727
73518W        W45134  23.394  13.648  12.887
73519W        W45135  16.752  21.437   4.259
73520W        W45136  37.051  36.056  10.491
73521W        W45137   8.159  41.953   2.166
73522W        W45138  12.788  13.342   4.230
73523W        W45139  18.924  22.269   3.659
73524W        W45140   4.440   5.211   4.569
73525W        W45141  40.362  29.492  11.495
73526W        W45142   3.884  10.369   0.786
73527W        W45143  38.736  27.658   2.238
73528W        W45144  42.571  22.313  12.893
73529W        W45145   9.212  36.186   2.117
73530W        W45146  36.985  12.239  13.472
73531W        W45147  17.259   9.547  14.363
73532W        W45148  19.221  26.469  10.698
73533W        W45149  36.982  16.132   1.835
73534W        W45150  42.372  44.649  10.496
73535W        W45151  17.701  11.992  12.627
73536W        W45152  37.859  27.222  10.630
73537W        W45153  22.589  21.815  13.538
73538W        W45154  27.684  10.671   1.149
73539W        W45155  23.993  37.579  11.116
73540W        W45156  12.962  14.336  10.785
73541W        W45157  13.814  43.451   0.725
73542W        W45158  24.539  20.548  12.951
73543W        W45159  13.682  35.098  12.660
73544W        W45160  43.828  31.109  11.401
73545W        W45161   7.364  44.959   4.212
73546W        W45162  15.713  43.611  11.696
73547W        W45163  28.790  25.283  12.034
73548W        W45164   0.523  37.153   5.391
73549W        W45165   0.770   3.126  11.130
73550W        W45166   5.041  18.496  10.752
73551W        W45167  40.385  13.088  14.488
73552W        W45168  13.074   4.831  12.774
73553W        W45169  14.235  13.206   3.418
73554W        W45170  29.117  38.512  12.065
73555W        W45171  42.396  33.191  14.985
73556W        W45172  24.062   7.921   2.310
73557W        W45173  18.208  23.258   3.028
73558W        W45174  21.283  10.758   4.102
73559W        W45175   9.126  43.895   1.808
73560W        W45176  13.099   9.182  12.037
73561W        W45177   8.801  14.163  12.873
73562W        W45178   5.348  22.196   3.653
73563W        W45179  16.400  25.194   1.513
73564W        W45180  16.779  13.260   0.598
73565W        W45181  27.894  23.695   4.126
73566W        W45182  18.907  38.487   1.068
73567W        W45183  18.308  25.026   1.453
73568W        W45184  36.024  37.350  13.547
73569W        W45185  13.866  33.975  10.574
73570W        W45186  43.660   8.799  11.948
73571W        W45187   8.663  29.495   0.519
73572W        W45188  44.441   6.930   0.974
73573W        W45189  28.207  10.614  14.848
73574W        W45190  13.589  43.043  13.382
73575W        W45191   8.613  37.806   3.595
73576W        W45192  21.094  35.510   2.330
73577W        W45193  38.561   6.137   0.930
73578W        W45194  39.033  39.860   2.782
73579W        W45195  43.867   5.741  14.842
73580W        W45196  38.819  27.276  10.582
73581W        W45197  23.125  44.797  10.945
73582W        W45198   4.768   4.462   2.705
73583W        W45199  41.496  20.267  13.352
73584W        W45200  38.919  28.867   0.778
73585W        W45201  27.276  33.155  12.573
73586W        W45202  20.157   3.946  14.069
73587W        W45203  19.848  25.265  14.991
73588W        W45204  17.192  17.544  12.474
73589W        W45205  43.126  24.684  13.679
73590W        W45206  18.547   7.396  10.335
73591W        W45207  10.395  15.060   1.777
73592W        W45208  20.957  23.501  13.047
73593W        W45209  22.546  35.126   2.128
73594W        W45210  11.894  15.829   5.037
73595W        W45211  12.908  21.874  12.974
73596W        W45212  27.518  11.253  11.499
73597W        W45213  29.387  42.594   4.158
73598W        W45214   2.311   1.069  12.394
73599W        W45215  27.984  16.217  11.946
73600W        W45216  38.298  20.381  12.962
73601W        W45217  21.687  16.076  13.856
73602W        W45218  39.152  30.250   2.310
73603W        W45219  22.172   8.300   1.231
73604W        W45220  22.276  41.440  10.063
73605W        W45221   2.412  42.374  13.942
73606W        W45222  17.748   4.295   3.502
73607W        W45223  19.988  40.715   4.300
73608W        W45224  41.976  29.901   4.579
73609W        W45225   2.398  11.114   4.037
73610W        W45226  27.940   2.081   4.110
73611W        W45227  19.565  39.907   4.393
73612W        W45228  14.025  27.073  13.327
73613W        W45229  29.099  28.921   4.674
73614W        W45230   7.982  24.957   5.134
73615W        W45231  22.141  26.849   2.754
73616W        W45232  11.305   9.148   2.300
73617W        W45233  38.649   8.751   3.254
73618W        W45234  24.517   4.878   0.208
73619W        W45235   0.386  44.825  10.665
73620W        W45236  23.733  34.176  14.292
73621W        W45237  41.772  33.847   2.293
73622W        W45238  44.301   0.001  11.987
73623W        W45239  33.510  21.101   0.984
73624W        W45240  24.842  31.932   3.670
73625W        W45241  31.192  33.885   4.551
73626W        W45242  23.489  44.925   0.130
73627W        W45243  30.779  20.544  11.610
73628W        W45244  39.982  24.224  11.965
73629W        W45245  16.152   9.879   4.690
73630W        W45246  32.604  21.684   0.457
73631W        W45247  37.241  17.750   2.275
73632W        W45248  37.731  32.462  12.954
73633W        W45249  38.468  14.169   2.261
73634W        W45250   5.672  41.077   3.718
73635W        W45251  11.046  11.613   2.217
73636W        W45252  27.562  43.541   3.580
73637W        W45253  19.244  39.103  12.056
73638W        W45254  19.305  23.774   0.500
73639W        W45255  27.464   2.743   0.505
73640W        W45256  10.600   0.721  12.928
73641W        W45257  26.227  29.099  12.389
73642W        W45258  11.782  10.500  14.780
73643W        W45259   0.794  34.116   2.662
73644W        W45260   3.374  28.712  12.663
73645W        W45261  17.157  37.126  11.250
73646W        W45262  44.947  19.606   1.769
73647W        W45263  33.793  20.980   4.264
73648W        W45264  41.515   8.602   0.235
73649W        W45265  22.694  11.339   0.425
73650W        W45266   9.256  15.044  11.518
73651W        W45267   5.877   8.183   0.985
73652W        W45268   1.213   4.181   3.705
73653W        W45269  21.620  16.843   4.090
73654W        W45270  16.705  32.184  10.687
73655W        W45271   8.549  34.051   2.231
73656W        W45272  25.063   4.836  10.943
73657W        W45273  41.570  30.655   4.120
73658W        W45274  23.327  15.131  14.862
73659W        W45275   6.375  26.642   1.711
73660W        W45276  20.512  33.999   1.827
73661W        W45277  32.468   1.790  13.886
73662W        W45278  30.387  39.994  12.004
73663W        W45279  26.699   3.292   0.014
73664W        W45280  19.515  18.566   2.797
73665W        W45281  38.635   1.413  13.879
73666W        W45282   8.298   7.124   1.318
73667W        W45283  28.638  34.906  14.877
73668W        W45284  41.306   0.763   2.614
73669W        W45285  20.106  39.957   2.294
73670W        W45286   5.681  24.175  14.432
73671W        W45287   2.840  23.584   4.039
73672W        W45288   0.361  42.509  14.399
73673W        W45289  37.378  31.747  12.118
73674W        W45290  28.620  25.678   1.034
73675W        W45291  25.860  20.726  12.050
73676W        W45292  42.141  24.562   0.239
73677W        W45293  29.120  44.078  14.432
73678W        W45294  39.536  15.246   2.288
73679W        W45295  43.071   3.493  13.919
73680W        W45296   1.326  36.373   1.182
73681W        W45297  18.996  39.036  13.507
73682W        W45298   5.226  33.576  14.327
73683W        W45299  33.616  28.407  12.350
73684W        W45300  36.859   3.757   1.809
73685W        W45301  14.813   5.795  10.646
73686W        W45302  25.997  37.036   2.345
73687W        W45303  33.961   5.322  12.059
73688W        W45304  12.180  23.077  12.773
73689W        W45305  17.272  35.709   2.683
73690W        W45306  12.910  26.744  13.828
73691W        W45307   4.788   5.403   1.444
73692W        W45308  41.313  27.282  11.159
73693W        W45309  37.501  28.708   3.363
73694W        W45310  37.368  20.191  10.641
73695W        W45311  38.405  39.355  10.847
73696W        W45312  40.563  27.615  12.528
73697W        W45313   2.907  40.079   2.616
73698W        W45314   9.786  15.856  14.347
73699W        W45315   4.641  12.934   5.134
73700W        W45316  37.991  38.847   0.893
73701W        W45317  16.890  44.446  11.421
73702W        W45318   3.702   4.673   3.190
73703W        W45319  17.116  34.510  14.913
73704W        W45320  37.345  18.221  10.607
73705W        W45321   2.795   2.926  11.533
73706W        W45322  20.341  21.406   1.504
73707W        W45323  18.393   4.990  11.150
73708W        W45324   2.715  26.547   0.660
73709W        W45325  33.670  38.218  11.973
73710W        W45326  17.811  30.054  11.087
73711W        W45327   2.459  26.517  13.485
73712W        W45328   9.216  24.027  12.446
73713W        W45329  14.652  36.092  12.537
73714W        W45330  29.174   2.424   2.907
73715W        W45331  43.946  36.596  13.827
73716W        W45332  23.064  28.514   3.146
73717W        W45333  26.679  14.735  12.807
73718W        W45334   9.449   4.338   2.813
73719W        W45335  10.593  14.224  10.491
73720W        W45336  28.940   6.441   1.708
73721W        W45337   4.762  44.860  13.026
73722W        W45338  35.886  14.870  12.840
73723W        W45339  25.027   8.678   3.754
73724W        W45340  29.477  20.752   3.588
73725W        W45341  29.607  30.699  14.117
73726W        W45342  28.526   7.828   2.293
73727W        W45343   6.164  25.321   0.319
73728W        W45344  40.833  41.591   4.637
73729W        W45345  22.096  16.620   3.991
73730W        W45346   5.837  26.000  12.428
73731W        W45347  43.874  36.295   0.815
73732W        W45348  21.224   2.739  11.548
73733W        W45349  34.537  36.172  13.519
73734W        W45350   6.351  19.174  14.426
73735W        W45351   1.450  30.135   3.873
73736W        W45352  15.832  24.556   0.742
73737W        W45353  11.254  28.708  10.470
73738W        W45354  16.185   0.696   4.960
73739W        W45355   7.963  15.948  12.469
73740W        W45356  21.148  41.230  14.237
73741W        W45357  32.466  27.467   3.668
73742W        W45358  10.873  21.463  12.698
73743W        W45359  30.675  35.373  14.481
73744W        W45360  27.154  15.947  14.261
73745W        W45361  33.513  44.209   4.258
73746W        W45362   3.428   2.733   0.169
73747W        W45363  38.295   9.237  12.591
73748W        W45364  19.066  12.850   4.957
73749W        W45365  28.962  41.734   2.380
73750W        W45366  27.240  38.381   1.199
73751W        W45367   8.903  34.490  13.529
73752W        W45368  27.577  41.966  10.640
73753W        W45369  43.551  42.068   4.807
73754W        W45370  24.618   8.130   4.967
73755W        W45371  21.116  14.214   1.988
73756W        W45372   5.956  39.830  10.767
73757W        W45373  43.012  23.199  10.911
73758W        W45374  24.438  13.550   4.998
73759W        W45375  31.659   2.405  11.115
73760W        W45376  20.724   3.282   1.608
73761W        W45377  17.849   2.884   4.262
73762W        W45378  22.412  28.257   1.822
73763W        W45379  13.479  21.750  11.063
73764W        W45380   6.098   9.255   4.710
73765W        W45381  23.601  24.779   3.352
73766W        W45382  33.520   3.440  10.163
73767W        W45383  19.667  14.588  10.729
73768W        W45384  40.815  32.627   2.249
73769W        W45385  39.938  37.304   0.924
73770W        W45386  31.077  30.202   3.101
73771W        W45387  27.466  25.526  13.023
73772W        W45388   6.819  27.915  11.551
73773W        W45389   5.861  40.778  13.878
73774W        W45390  30.724   5.189   0.755
73775W        W45391  43.298  40.974   1.672
73776W        W45392  31.002   2.633  13.050
73777W        W45393   8.742  42.620   4.194
73778W        W45394  20.206  13.131  14.381
73779W        W45395  25.522  21.500  12.647
73780W        W45396   4.784  23.212  13.449
73781W        W45397  12.912  31.543   2.285
73782W        W45398  18.262  35.125   0.732
73783W        W45399   3.927  25.719  11.672
73784W        W45400  31.920  14.112  13.586
73785W        W45401  23.075  36.225  11.984
73786W        W45402  17.008   6.365  11.090
73787W        W45403   5.915  39.781  13.016
73788W        W45404   4.718  14.060  13.575
73789W        W45405  30.994  19.844   1.257
73790W        W45406  11.264  30.434  14.010
73791W        W45407  17.697  25.671  11.579
73792W        W45408  22.977  34.438   1.202
73793W        W45409  19.686  19.470  10.820
73794W        W45410  23.091  20.651  11.961
73795W        W45411  34.526  33.719  12.962
73796W        W45412  31.083   7.989  10.639
73797W        W45413   4.086  27.557   2.716
73798W        W45414   8.803  20.677  13.485
73799W        W45415  33.888  44.766   2.672
73800W        W45416   1.374  31.431   4.691
73801W        W45417  35.135  34.995   2.298
73802W        W45418  17.834  34.848   0.381
73803W        W45419  26.129  43.855   3.381
73804W        W45420  42.018   3.877  11.582
73805W        W45421  23.525  15.258  14.393
73806W        W45422   0.349  16.839   1.641
73807W        W45423  13.601  15.348   3.853
73808W        W45424  34.013  21.062   5.044
73809W        W45425  25.307   1.959  14.296
73810W        W45426   2.982  23.669  10.684
73811W        W45427  16.309  32.111  11.018
73812W        W45428  44.748  26.710   1.303
73813W        W45429   9.362  25.715  13.853
73814W        W45430  42.353   3.327  14.364
73815W        W45431  38.907  40.859   1.827
73816W        W45432  32.433  28.502   0.820
73817W        W45433  14.717  42.274  14.129
73818W        W45434  35.958   6.449   4.141
73819W        W45435  40.825   4.752   0.585
73820W        W45436  11.225  25.452  10.633
73821W        W45437  23.353   8.651   2.157
73822W        W45438  34.909   3.640   4.502
73823W        W45439  36.907   5.752   0.296
73824W        W45440  35.149   3.668   0.844
73825W        W45441  14.058  15.596   3.676
73826W        W45442   7.301  18.666   1.298
73827W        W45443  34.630  40.637  12.447
73828W        W45444  33.591  21.738  14.540
73829W        W45445  10.859  11.026  12.366
73830W        W45446  34.008  28.020   3.360
73831W        W45447  33.909  33.650  14.951
73832W        W45448  29.590   7.301  10.694
73833W        W45449  40.985  26.560  14.834
73834W        W45450   4.461  29.116  10.696
73835W        W45451  17.334   0.359   1.889
73836W        W45452  41.421   0.165  10.761
73837W        W45453  38.715   3.241  11.527
73838W        W45454   2.724   5.877   0.206
73839W        W45455  42.420   6.573   3.658
73840W        W45456  32.438  31.587  12.332
73841W        W45457  10.735  25.561  10.439
73842W        W45458  29.715  19.977  11.893
73843W        W45459   2.957  10.274  11.502
73844W        W45460  20.982  15.818   0.189
73845W        W45461  36.924  24.052  14.942
73846W        W45462  16.815  13.294  10.832
73847W        W45463  37.973   1.990   2.234
73848W        W45464  34.133  15.665   4.515
73849W        W45465  36.347  37.981   3.693
73850W        W45466   1.505  25.276   2.429
73851W        W45467  17.632  27.700   0.365
73852W        W45468  33.953  21.467  11.766
73853W        W45469  19.602   5.516   1.919
73854W        W45470   2.767  37.419  10.617
73855W        W45471  36.652  14.080   2.361
73856W        W45472   3.763  11.115   4.153
73857W        W45473  20.629  41.453  14.020
73858W        W45474  17.322  32.380   3.295
73859W        W45475  22.654  20.413   4.125
73860W        W45476  32.479   0.746   3.814
73861W        W45477   0.286   1.656  12.019
73862W        W45478  11.716  22.165  11.728
73863W        W45479   3.212  40.437   4.129
73864W        W45480  31.906   4.298  10.686
73865W        W45481  40.951  12.043   4.661
73866W        W45482  14.764  10.735   0.391
73867W        W45483  31.939  40.369   3.117
73868W        W45484   4.821  30.429  14.696
73869W        W45485  30.044  40.954  13.086
73870W        W45486   7.701  27.855  11.706
73871W        W45487  44.564  33.097   3.184
73872W        W45488  16.503  21.969  11.150
73873W        W45489   5.877   3.111   4.686
73874W        W45490  14.443  42.053  13.720
73875W        W45491   1.421  14.395   2.281
73876W        W45492  28.922  26.227   3.123
73877W        W45493  14.713   0.222   3.215
73878W        W45494  23.735   4.181   4.580
73879W        W45495  37.071  29.135   0.417
73880W        W45496  18.837  22.964  12.543
73881W        W45497   0.882  42.050  13.282
73882W        W45498   0.203   0.491   0.845
73883W        W45499  36.432  11.430   3.168
73884W        W45500  30.082  36.151  11.223
73885W        W45501  16.745   7.888   4.552
73886W        W45502  41.235  39.327  13.404
73887W        W45503  26.262  15.637   1.329
73888W        W45504  10.537  28.737  12.962
73889W        W45505  28.421  29.842   0.918
73890W        W45506  38.685  20.000   0.960
73891W        W45507  42.887  38.904   4.480
73892W        W45508  37.462  16.033   4.734
73893W        W45509  13.165  36.410   3.317
73894W        W45510  11.802  32.870  12.760
73895W        W45511  26.583  40.732  11.970
73896W        W45512  20.553  10.260  11.515
73897W        W45513   1.556  35.884  13.403
73898W        W45514   1.265  37.428  11.418
73899W        W45515  20.314  11.732  11.151
73900W        W45516  23.222  43.807   1.868
73901W        W45517  22.323  38.255   1.616
73902W        W45518  33.344   7.101   3.951
73903W        W45519  38.424  36.781   1.282
73904W        W45520  16.355  34.814   2.873
73905W        W45521  12.248   5.382   4.786
73906W        W45522   3.949  26.030   4.613
73907W        W45523  36.993  14.544  13.016
73908W        W45524  32.715  42.358   0.868
73909W        W45525   1.806  29.886   1.827
73910W        W45526  34.071  16.767   1.998
73911W        W45527  14.093  37.889   1.767
73912W        W45528  31.765  28.658  13.501
73913W        W45529   5.770  35.550   0.801
73914W        W45530   4.662  31.724   0.451
73915W        W45531  44.349  15.401  12.891
73916W        W45532  26.416  10.113   4.245
73917W        W45533  24.233  16.122  12.533
73918W        W45534  34.689  32.479   2.542
73919W        W45535  29.429  14.311   2.450
73920W        W45536   6.377  44.430   0.969
73921W        W45537   1.278  37.562   2.955
73922W        W45538  25.047  41.776   3.723
73923W        W45539   0.321   1.719  14.514
73924W        W45540   3.867   9.221  14.810
73925W        W45541  29.431  31.949  10.309
73926W        W45542   1.235  30.486   3.573
73927W        W45543  32.313   0.895  14.820
73928W        W45544  14.712   3.516   4.538
73929W        W45545  32.791   0.693  14.914
73930W        W45546   6.913  31.243  13.114
73931W        W45547  15.305  40.975   1.205
73932W        W45548  23.875  44.932   4.381
73933W        W45549  26.644  36.072   0.274
73934W        W45550   4.754  10.159  14.850
73935W        W45551  33.694   9.759  12.507
73936W        W45552  20.715  24.959   0.784
73937W        W45553  17.255  27.951   2.327
73938W        W45554  38.255  18.589   2.735
73939W        W45555  23.208  44.766  10.444
73940W        W45556  25.730  15.867   0.407
73941W        W45557   0.280   2.403   2.645
73942W        W45558   4.777  30.188  10.603
73943W        W45559  38.023  29.909   4.836
73944W        W45560  40.706  25.245   3.474
73945W        W45561  37.497  31.416  14.330
73946W        W45562  22.677  28.690   0.949
73947W        W45563   6.404  10.643   2.425
73948W        W45564   1.906  10.847   0.172
73949W        W45565   2.017   5.458   0.684
73950W        W45566  40.570  23.535   4.567
73951W        W45567  31.819  15.275  11.457
73952W        W45568  11.600  37.533  10.533
73953W        W45569  10.480  35.900   2.937
73954W        W45570  16.727  33.977  12.610
73955W        W45571  11.496  42.341   4.602
73956W        W45572  16.333  24.633  11.487
73957W        W45573   6.875  26.966   0.557
73958W        W45574  32.969  24.758  13.054
73959W        W45575   7.412   5.761   2.850
73960W        W45576  22.032  37.269  12.546
73961W        W45577   5.232  38.640  11.917
73962W        W45578  17.206  41.013   2.294
73963W        W45579   7.326  21.262  12.034
73964W        W45580  34.970  34.682  12.064
73965W        W45581  24.770  25.598   4.236
73966W        W45582  21.344  14.315   0.832
73967W        W45583  30.567  22.122   1.407
73968W        W45584  23.011  22.706  13.372
73969W        W45585  18.276  35.467   2.679
73970W        W45586   5.828  19.501  12.578
73971W        W45587   8.765  31.298   4.456
73972W        W45588  13.835  41.274  12.019
73973W        W45589  12.370   8.706   1.061
73974W        W45590  21.623   4.525  10.800
73975W        W45591  16.369   0.160   0.469
73976W        W45592   5.351   3.398   1.342
73977W        W45593  19.260   2.283   3.216
73978W        W45594  23.671  43.396   2.230
73979W        W45595  28.055  44.765   4.725
73980W        W45596  40.587  17.194  14.027
73981W        W45597  10.216  34.406  12.860
73982W        W45598  41.295  32.052  14.451
73983W        W45599  14.737  25.031  14.975
73984W        W45600   2.919  21.809  10.215
73985W        W45601  25.110  36.343   1.582
73986W        W45602  25.520  41.165   4.481
73987W        W45603  13.978  26.451  12.901
73988W        W45604   7.888   0.324  14.316
73989W        W45605  21.054   8.889  11.570
73990W        W45606   5.627  43.272   3.986
73991W        W45607  39.728  21.986  13.885
73992W        W45608  21.178  43.091  10.329
73993W        W45609  14.239  31.877   2.935
73994W        W45610  43.507  38.095   5.374
73995W        W45611  33.508  43.729  12.942
73996W        W45612   4.877  29.507   2.696
73997W        W45613  36.934  39.579   3.920
73998W        W45614  27.491  15.743   2.832
73999W        W45615  23.527  19.973  13.830
74000W        W45616  10.950  43.349   3.235
74001W        W45617  16.791  31.110  13.886
74002W        W45618  22.194  41.267  12.502
74003W        W45619  31.526  23.105  14.388
74004W        W45620  29.102  17.813   4.434
74005W        W45621  43.144  18.760  10.538
74006W        W45622  36.906   3.914  14.894
74007W        W45623  38.907   5.731   0.218
74008W        W45624  33.753  17.152  12.038
74009W        W45625   8.358   0.688   0.272
74010W        W45626  36.252  22.185  14.804
74011W        W45627   4.344  40.535  12.514
74012W        W45628   7.409  19.246  14.323
74013W        W45629  18.947  41.130  14.516
74014W        W45630  15.367   5.357   1.609
74015W        W45631   3.357   2.250   4.085
74016W        W45632  37.555  18.859  12.487
74017W        W45633  12.736  17.615   1.513
74018W        W45634  42.220   8.787   3.173
74019W        W45635   7.461  31.558  13.820
74020W        W45636  14.207   0.757   2.723
74021W        W45637  15.667  36.663   3.757
74022W        W45638   4.707   3.852  12.482
74023W        W45639  24.995  39.792  13.875
74024W        W45640  29.142  12.357   1.272
74025W        W45641   1.058  30.444   0.657
74026W        W45642  16.758  36.471   2.657
74027W        W45643   9.825  31.589  11.669
74028W        W45644  11.835  31.973  13.390
74029W        W45645  23.513  40.894   1.234
74030W        W45646  14.366  44.263  13.528
74031W        W45647   7.122  19.476   4.784
74032W        W45648  40.083  41.433   4.123
74033W        W45649   1.973  37.471  11.219
74034W        W45650  41.756  39.603   1.260
74035W        W45651  39.099   7.750  12.442
74036W        W45652  20.516  39.756   0.957
74037W        W45653  37.646   0.290  11.252
74038W        W45654  27.886  30.034   4.088
74039W        W45655  33.841  10.185   0.765
74040W        W45656  18.603  17.574   2.139
74041W        W45657  19.771  39.240   3.786
74042W        W45658  31.390  12.884  13.308
74043W        W45659  13.601  37.931   1.028
74044W        W45660  42.249  22.138   4.590
74045W        W45661  31.062   2.377  12.547
74046W        W45662  25.287  36.396  14.087
74047W        W45663  26.540  30.503   2.346
74048W        W45664   0.997  18.759  14.326
74049W        W45665  15.356   0.240   2.695
74050W        W45666   1.779  35.816   2.850
74051W        W45667  28.131  19.926  10.567
74052W        W45668  44.895  38.372   5.117
74053W        W45669  14.147   5.909   4.580
74054W        W45670  40.477  21.409   0.681
74055W        W45671  17.350   8.865   9.847
74056W        W45672  14.287  24.225   3.552
74057W        W45673  23.326  42.967   3.578
74058W        W45674  13.700  11.248   2.613
74059W        W45675  40.890   0.806  14.719
74060W        W45676  36.069  13.367  13.319
74061W        W45677  21.974  11.779   0.934
74062W        W45678  14.373  15.527   4.080
74063W        W45679  12.318  40.615  13.347
74064W        W45680  24.593  31.163   1.891
74065W        W45681  23.541  41.519   2.873
74066W        W45682  33.990  32.477  10.466
74067W        W45683  11.837  16.552  13.889
74068W        W45684   9.769  11.388   0.841
74069W        W45685   7.230  31.154   1.364
74070W        W45686  14.698  27.315   2.902
74071W        W45687   5.242  33.750  10.535
74072W        W45688   9.213  26.467  11.089
74073W        W45689  33.598  33.050  14.903
74074W        W45690  12.815   2.260  12.138
74075W        W45691  17.613  28.554  12.959
74076W        W45692  16.593  44.270   0.791
74077W        W45693  29.552   2.176   1.139
74078W        W45694  24.247   3.486   3.662
74079W        W45695  42.225  25.165   2.410
74080W        W45696   9.206  10.060   3.094
74081W        W45697  24.624  17.277  11.054
74082W        W45698  22.082  16.274  14.625
74083W        W45699   3.834  27.626  14.948
74084W        W45700  28.422   3.317   2.179
74085W        W45701   8.801  26.664  13.823
74086W        W45702  32.596  42.929  10.672
74087W        W45703   6.374  16.451   0.965
74088W        W45704  22.528  42.545  12.402
74089W        W45705  36.899  42.012   4.697
74090W        W45706  37.575  41.338  13.155
74091W        W45707  17.599  37.439  14.781
74092W        W45708  30.169  32.470  11.607
74093W        W45709  30.357  16.640  12.135
74094W        W45710  21.550  20.714  14.871
74095W        W45711  27.506   7.897   1.159
74096W        W45712  32.580  33.651  11.337
74097W        W45713  13.710  33.635   2.832
74098W        W45714  37.441  21.277   4.553
74099W        W45715   2.934  21.748   3.284
74100W        W45716   6.902  43.845  11.924
74101W        W45717  14.822  37.465  14.902
74102W        W45718  15.003  21.784   3.674
74103W        W45719  38.749   3.412   0.490
74104W        W45720  43.427  16.305  11.392
74105W        W45721  28.186  26.746   4.767
74106W        W45722  13.852  28.098  12.028
74107W        W45723  25.286  27.378   4.148
74108W        W45724  14.383   0.888  10.253
74109W        W45725  10.112  30.103   3.655
74110W        W45726   6.503  32.466   4.259
74111W        W45727  42.138  41.881   5.067
74112W        W45728  27.656  15.591  12.115
74113W        W45729  42.411   8.269  12.842
74114W        W45730   5.943  40.092  14.907
74115W        W45731  22.109  27.071   3.232
74116W        W45732  20.657  29.877  14.302
74117W        W45733  19.581   0.744  13.432
74118W        W45734   1.930  35.407   3.328
74119W        W45735  43.453  16.576  12.535
74120W        W45736  30.426   1.784   1.182
74121W        W45737   6.688  32.425  10.773
74122W        W45738  28.909  25.125   4.632
74123W        W45739  17.298   5.681   4.341
74124W        W45740  18.273  42.954  11.431
74125W        W45741  17.696  16.923  10.507
74126W        W45742  11.089  11.865  12.449
74127W        W45743  13.671  29.054   0.736
74128W        W45744  27.583   2.315  10.460
74129W        W45745   1.224  16.314   4.585
74130W        W45746  31.759  10.100   1.499
74131W        W45747  10.677  24.022  12.378
74132W        W45748  28.652   8.984  13.678
74133W        W45749  16.345  13.038  12.975
74134W        W45750   1.721  15.568   4.179
74135W        W45751  30.672  20.273  12.974
74136W        W45752   1.720  18.619  12.028
74137W        W45753  11.378   1.285  14.506
74138W        W45754  21.555  37.367  11.957
74139W        W45755  12.363   0.424  11.639
74140W        W45756  43.159  34.459  13.645
74141W        W45757   9.822  44.265   2.141
74142W        W45758  44.381  18.862   0.451
74143W        W45759   9.920  19.575   1.816
74144W        W45760   3.417  44.515   4.670
74145W        W45761  38.789  26.623  13.816
74146W        W45762  12.659   8.650   1.663
74147W        W45763  16.887  38.551  14.966
74148W        W45764   7.998  41.558  10.930
74149W        W45765  41.312  25.580   3.121
74150W        W45766  35.077  40.781   1.107
74151W        W45767  39.315  27.030   3.738
74152W        W45768  43.946   0.700   3.072
74153W        W45769  14.139   0.445   1.474
74154W        W45770  20.679  12.884  13.747
74155W        W45771  19.283  42.900  11.542
74156W        W45772  17.335  40.429  12.708
74157W        W45773  36.893   1.347  13.379
74158W        W45774  41.836  11.879   2.670
74159W        W45775  23.743  12.200   2.728
74160W        W45776  28.648  36.903   2.381
74161W        W45777   8.066   7.240  12.930
74162W        W45778   3.355   6.823   4.875
74163W        W45779  17.232  20.087   1.655
74164W        W45780  28.387  39.041   4.911
74165W        W45781  17.666  24.883  13.324
74166W        W45782  10.784  20.221   4.890
74167W        W45783  14.725  22.759  12.208
74168W        W45784   5.648  35.573  12.884
74169W        W45785  21.331  36.666  10.986
74170W        W45786  31.963   5.461  11.462
74171W        W45787  28.746  39.478   2.161
74172W        W45788  20.791  10.123   0.402
74173W        W45789  39.129   4.384  13.395
74174W        W45790   6.994  10.671  11.158
74175W        W45791   2.336  10.667   0.406
74176W        W45792  12.230  31.827   3.261
74177W        W45793   3.773  41.905   0.042
74178W        W45794  33.618   5.105   1.166
74179W        W45795  43.865  20.758   1.314
74180W        W45796  14.570  25.615   1.687
74181W        W45797  19.037  41.719  10.578
74182W        W45798  39.547  21.718   4.292
74183W        W45799  44.897  18.776  11.697
74184W        W45800   3.506  39.028  12.377
74185W        W45801   5.327  15.348  12.408
74186W        W45802  29.166  18.309   3.589
74187W        W45803  38.080  35.525  12.815
74188W        W45804  39.003  28.345   0.936
74189W        W45805   9.425  27.050   1.799
74190W        W45806  19.684   8.321  12.369
74191W        W45807   4.577  26.966   1.050
74192W        W45808  30.789  25.571   4.134
74193W        W45809   5.718  32.089  12.546
74194W        W45810  43.372   0.046   1.931
74195W        W45811  32.448   1.722   3.595
74196W        W45812  27.946  25.699   3.829
74197W        W45813  16.587  27.428   4.713
74198W        W45814  40.142  41.176  11.713
74199W        W45815   9.344  35.106   3.834
74200W        W45816   7.690  14.680  13.326
74201W        W45817   7.763  26.906   4.820
74202W        W45818  10.786  26.941  11.706
74203W        W45819  16.993  39.861   0.252
74204W        W45820   7.208  23.016  12.332
74205W        W45821   0.817   4.108  10.738
74206W        W45822  13.262  29.574   3.648
74207W        W45823  30.966   0.874  12.991
74208W        W45824  31.722  15.023  14.539
74209W        W45825  11.386  27.635   4.617
74210W        W45826  21.199  25.297  11.885
74211W        W45827  21.288   0.407   3.126
74212W        W45828  43.256  25.964   0.188
74213W        W45829  32.052  21.450  12.258
74214W        W45830  24.214   4.424  12.491
74215W        W45831  26.596  28.116  11.229
74216W        W45832   9.692  29.664  12.542
74217W        W45833  44.356  34.348  12.442
74218W        W45834  40.274  22.389   0.290
74219W        W45835  41.853  18.075  13.978
74220W        W45836   9.671  25.576  11.184
74221W        W45837  32.466  35.732   3.466
74222W        W45838  12.239  28.616  13.804
74223W        W45839  26.854  17.898   0.375
74224W        W45840  16.186   4.955   3.700
74225W        W45841   9.112  40.127  11.489
74226W        W45842  27.095  37.298   2.825
74227W        W45843  41.426   5.717  11.496
74228W        W45844  17.947   1.677   1.749
74229W        W45845  29.332  14.908   5.405
74230W        W45846   3.395  25.944   3.249
74231W        W45847   1.955  40.011  12.024
74232W        W45848   1.357  44.308  13.363
74233W        W45849   2.913  24.535   0.313
74234W        W45850   3.367  30.588  12.605
74235W        W45851  28.258  25.202  11.993
74236W        W45852   5.970  41.471  12.555
74237W        W45853  15.100  31.913  12.874
74238W        W45854  26.972  34.010   0.722
74239W        W45855  18.809   4.758   3.388
74240W        W45856  36.851  13.770   5.003
74241W        W45857  10.850   0.209  13.890
74242W        W45858  32.831  11.241  14.818
74243W        W45859  42.366  21.283  11.967
74244W        W45860  16.472  42.426  10.259
74245W        W45861  11.408   2.787   1.314
74246W        W45862  23.210  24.720   0.005
74247W        W45863  27.169  22.239  10.762
74248W        W45864  35.386  32.569  14.445
74249W        W45865  29.410  41.377  13.554
74250W        W45866  10.142   7.743   3.625
74251W        W45867  25.561   8.423   1.195
74252W        W45868   6.158  40.988  12.972
74253W        W45869  26.024   9.687   1.456
74254W        W45870  35.759  17.256  11.875
74255W        W45871  37.822  40.892   0.110
74256W        W45872  15.015   2.761  14.479
74257W        W45873   8.882  17.160  12.174
74258W        W45874  41.213  10.708  14.928
74259W        W45875  43.385  31.372   1.690
74260W        W45876   0.934  13.344  14.981
74261W        W45877  43.355  22.016   2.869
74262W        W45878  12.830  25.482   1.295
74263W        W45879  22.464  37.724   2.422
74264W        W45880  15.305   5.998   9.765
74265W        W45881  33.035  33.036  13.838
74266W        W45882  19.239   3.305  11.913
74267W        W45883  15.250   4.980   1.250
74268W        W45884  20.224  38.466   4.125
74269W        W45885   2.279  26.778   0.003
74270W        W45886   6.548   7.324  12.893
74271W        W45887   6.788  10.332   3.156
74272W        W45888  34.054  29.628  11.027
74273W        W45889  11.258  34.299   2.730
74274W        W45890  22.599   2.758  11.682
74275W        W45891  25.542  17.373   0.203
74276W        W45892  23.903  18.218  12.316
74277W        W45893  21.639  35.306   3.012
74278W        W45894  27.985  23.989  11.028
74279W        W45895   7.210   1.756  12.500
74280W        W45896  30.229  16.085  12.939
74281W        W45897  13.911  13.569   3.604
74282W        W45898  16.707  25.578  13.067
74283W        W45899   7.872  20.121   3.103
74284W        W45900  18.356  23.001  11.016
74285W        W45901  35.908  30.357  11.911
74286W        W45902  34.801  27.326   4.051
74287W        W45903  33.675   3.261   3.607
74288W        W45904  39.519   7.314  13.103
74289W        W45905  16.346   7.708   2.244
74290W        W45906   1.269  35.714   1.751
74291W        W45907  34.355  14.409   0.534
74292W        W45908  21.323  42.727   2.444
74293W        W45909   3.083  26.587  11.853
74294W        W45910  15.781  15.125   2.406
74295W        W45911  27.418  12.435   2.362
74296W        W45912  44.974   7.976   1.761
74297W        W45913  33.943   9.068  12.925
74298W        W45914  27.626   3.196  12.823
74299W        W45915  13.622  28.573  10.461
74300W        W45916  41.813  37.526  14.879
74301W        W45917   9.122  32.607  12.653
74302W        W45918   7.164   9.511   1.723
74303W        W45919   7.959   4.706   4.571
74304W        W45920   2.459  15.111   0.214
74305W        W45921  39.143  15.752   3.790
74306W        W45922  38.322  27.636   3.556
74307W        W45923  36.192   0.800   0.933
74308W        W45924  18.903   5.660   0.353
74309W        W45925  16.209  21.558   1.734
74310W        W45926  31.483  28.555  11.122
74311W        W45927  17.840  18.053  14.469
74312W        W45928   9.014   0.097  10.028
74313W        W45929  39.329   6.087  13.284
74314W        W45930   0.817  18.853  10.749
74315W        W45931  36.087   6.680   3.698
74316W        W45932   8.396  42.444  13.612
74317W        W45933  19.219   0.247   4.315
74318W        W45934  33.909  33.544  10.592
74319W        W45935  11.406   8.874   4.430
74320W        W45936  21.490  31.019   2.601
74321W        W45937   3.334   3.410  13.445
74322W        W45938  36.851  13.608  11.122
74323W        W45939   4.858  24.129   2.560
74324W        W45940  28.736   5.293   0.699
74325W        W45941  26.692  19.754   2.215
74326W        W45942  18.306   8.957   1.316
74327W        W45943  33.077   0.143   4.278
74328W        W45944  13.828  40.514  10.523
74329W        W45945  29.032  30.173  11.173
74330W        W45946  13.062  38.624   1.896
74331W        W45947   6.082  27.128   3.414
74332W        W45948   4.771  27.710  14.500
74333W        W45949   7.900  43.395   0.386
74334W        W45950  23.125  41.249  11.217
74335W        W45951  42.423  11.086  14.461
74336W        W45952  23.154  21.276   1.878
74337W        W45953  39.272   1.026   1.293
74338W        W45954   2.316  32.211   0.476
74339W        W45955  12.198  40.974   4.169
74340W        W45956   3.474  16.487  11.191
74341W        W45957  24.769  35.829  10.901
74342W        W45958   2.724  25.290  14.881
74343W        W45959   4.527   8.968   0.325
74344W        W45960  12.726   8.386   3.187
74345W        W45961  27.205  25.077  12.842
74346W        W45962  35.420   2.926   1.007
74347W        W45963  36.904  43.289  13.706
74348W        W45964  21.940  24.982  13.639
74349W        W45965  30.699  33.964   4.598
74350W        W45966   0.885  31.032   2.947
74351W        W45967  14.612  12.803  11.201
74352W        W45968  27.735   6.846   0.935
74353W        W45969   1.674  36.072   1.559
74354W        W45970  16.624   5.226   3.649
74355W        W45971  29.616  23.576  14.566
74356W        W45972  43.382   7.788  13.873
74357W        W45973   6.902  25.700  11.124
74358W        W45974   4.765  30.609  13.110
74359W        W45975  27.162  11.875   4.114
74360W        W45976  24.011  14.705  13.441
74361W        W45977   4.182  42.124  11.006
74362W        W45978  13.135  11.190  10.650
74363W        W45979   9.812  29.121   4.549
74364W        W45980  12.202  33.374   1.342
74365W        W45981  12.294  39.508   3.331
74366W        W45982   6.340  13.351  11.968
74367W        W45983   0.211  16.234  13.511
74368W        W45984  17.026  24.883   3.474
74369W        W45985  18.551  39.940   0.328
74370W        W45986  39.459  25.663   0.406
74371W        W45987  19.947  29.255   4.477
74372W        W45988  11.054   9.009  14.276
74373W        W45989  23.070  10.215   3.053
74374W        W45990  26.867  20.857  12.057
74375W        W45991   4.654   7.218  12.522
74376W        W45992  15.981  37.620   2.262
74377W        W45993   6.382  18.082   4.670
74378W        W45994  14.014  34.346  11.541
74379W        W45995  44.323  16.550  13.493
74380W        W45996  15.229   6.773  12.479
74381W        W45997  26.426  31.681  10.689
74382W        W45998   8.802  28.160   0.028
74383W        W45999  28.706  23.639   1.967
74384W        W46000   0.759  36.321   3.240
74385W        W46001  20.550  29.126   2.874
74386W        W46002  44.492  24.281   0.001
74387W        W46003  19.738  35.548   4.603
74388W        W46004  34.439  18.209   3.248
74389W        W46005  34.093  26.714   1.851
74390W        W46006   3.519  33.554   3.775
74391W        W46007  15.296   9.856  14.398
74392W        W46008  26.925  21.211  14.472
74393W        W46009   5.059  30.747   4.251
74394W        W46010  11.326  40.530  10.757
74395W        W46011  31.499  14.581  10.824
74396W        W46012  18.526   1.478  11.090
74397W        W46013  13.631   5.328   4.929
74398W        W46014  33.452   0.238   1.795
74399W        W46015   4.117  24.600   2.884
74400W        W46016  15.174   2.544  11.009
74401W        W46017  19.554   8.282   1.491
74402W        W46018  28.522  16.361  12.053
74403W        W46019  41.237  16.654   0.218
74404W        W46020   6.665  33.058   0.646
74405W        W46021  23.164  44.281  10.715
74406W        W46022  12.165  18.260   2.719
74407W        W46023  27.133  29.000  12.240
74408W        W46024  31.184  39.057   3.643
74409W        W46025  33.855  42.498   2.435
74410W        W46026  25.907  22.681  12.975
74411W        W46027  22.148  18.667   0.299
74412W        W46028  12.313  35.348  11.811
74413W        W46029  36.649  40.397  11.117
74414W        W46030  29.514  25.844   4.679
74415W        W46031  39.986  19.299  12.293
74416W        W46032  28.614   2.472   1.683
74417W        W46033   5.401  19.589  13.062
74418W        W46034  18.680  16.973  11.631
74419W        W46035  14.173  14.435  11.651
74420W        W46036  26.986  24.075  14.828
74421W        W46037  25.584  27.976  11.994
74422W        W46038  18.719  19.234   4.694
74423W        W46039  39.652   9.751  14.326
74424W        W46040  43.889  25.719   4.548
74425W        W46041   9.822  23.536  10.623
74426W        W46042  12.903   2.254   1.729
74427W        W46043  44.301  31.024   0.813
74428W        W46044  22.807   7.187   3.221
74429W        W46045  39.060   0.090  13.851
74430W        W46046  43.254   4.889   0.756
74431W        W46047   6.118  37.440  12.030
74432W        W46048  11.445  34.267   2.236
74433W        W46049  35.280  23.059   2.644
74434W        W46050   2.223  10.132  13.893
74435W        W46051   9.873  16.118  13.450
74436W        W46052   1.663  44.812  11.919
74437W        W46053  21.337  22.580  12.785
74438W        W46054  44.366  25.244  14.285
74439W        W46055   0.007   2.359  11.616
74440W        W46056   1.243  14.873  13.861
74441W        W46057  27.759  12.695   3.795
74442W        W46058  33.445  30.074   0.915
74443W        W46059  13.242  36.279   4.724
74444W        W46060  13.539  17.667   2.228
74445W        W46061   2.194  44.191   2.537
74446W        W46062  25.056  41.570   3.254
74447W        W46063  39.066  25.630  14.900
74448W        W46064   4.478  31.427   1.823
74449W        W46065  10.935   0.198   4.611
74450W        W46066  17.038  27.399   3.328
74451W        W46067  22.231  42.511   2.673
74452W        W46068  33.643   8.798  11.697
74453W        W46069   9.807   9.239   2.181
74454W        W46070  10.095  42.440  10.438
74455W        W46071  44.232  34.817   0.359
74456W        W46072   8.235   4.628  11.976
74457W        W46073   3.792  20.135  11.531
74458W        W46074  41.860  14.161  13.046
74459W        W46075  17.093  26.534   3.659
74460W        W46076   5.234  19.034   0.845
74461W        W46077  24.106   5.432   4.313
74462W        W46078  42.572  42.451   1.213
74463W        W46079  41.016  44.111   0.902
74464W        W46080   2.789  29.949  14.485
74465W        W46081  27.954  37.407   1.828
74466W        W46082  28.462   4.660  10.411
74467W        W46083  40.805   9.127   1.252
74468W        W46084  44.326  37.964  14.407
74469W        W46085  26.642  41.996  13.486
74470W        W46086   0.495  22.097  14.489
74471W        W46087  19.679  12.615  11.600
74472W        W46088   5.901  31.069  10.661
74473W        W46089   0.891   9.249   3.302
74474W        W46090  44.405  43.225   4.171
74475W        W46091  24.711  38.379  11.157
74476W        W46092   2.582  37.420   0.425
74477W        W46093  22.743  17.807  11.139
74478W        W46094  23.037  25.966   3.727
74479W        W46095  26.512  39.342  12.859
74480W        W46096  34.664  12.398  12.075
74481W        W46097  30.410  18.664   0.371
74482W        W46098  35.287   0.890  13.406
74483W        W46099  24.034  11.312   0.378
74484W        W46100  32.996  12.210  14.780
74485W        W46101  35.137  36.247  11.596
74486W        W46102  13.581  14.581   3.128
74487W        W46103  37.143  44.875   3.268
74488W        W46104  16.247  29.934   0.988
74489W        W46105  44.449  41.920  10.668
74490W        W46106  21.609  20.881  12.748
74491W        W46107  33.483  20.740  11.103
74492W        W46108  10.679  23.521   2.281
74493W        W46109  24.449   0.026   1.710
74494W        W46110   1.427  37.407   4.484
74495W        W46111  42.890  25.074  14.425
74496W        W46112  10.746  38.600   0.875
74497W        W46113  36.321  21.089   3.971
74498W        W46114  18.818  22.697  12.086
74499W        W46115  17.478  25.758  12.974
74500W        W46116   2.204  42.876   2.458
74501W        W46117  25.447  43.933  14.521
74502W        W46118  28.953  15.676  13.382
74503W        W46119  23.237  36.449   0.623
74504W        W46120   5.457   1.262  11.515
74505W        W46121  43.991  16.663  11.444
74506W        W46122  39.503  20.554   1.841
74507W        W46123  20.937  17.101   0.800
74508W        W46124   2.502  44.908   4.078
74509W        W46125   8.924  25.073   1.858
74510W        W46126  18.384   6.101   4.135
74511W        W46127  41.037  16.274   2.284
74512W        W46128  16.810  29.882   1.705
74513W        W46129  39.524   9.138  13.144
74514W        W46130  30.202  40.494  14.877
74515W        W46131  12.283   9.754   1.737
74516W        W46132  28.446  43.087   1.700
74517W        W46133  33.149  10.618  10.846
74518W        W46134  16.126  40.913   0.083
74519W        W46135   1.257  18.974   1.402
74520W        W46136  13.718  25.543   4.875
74521W        W46137  33.026  29.620  12.531
74522W        W46138  16.262  16.905  14.302
74523W        W46139   4.857  14.366   4.744
74524W        W46140   9.155   8.817   4.210
74525W        W46141  32.544  11.175   4.488
74526W        W46142  17.556  30.463  12.969
74527W        W46143   4.415  20.137  13.800
74528W        W46144  29.833   9.731   4.167
74529W        W46145  13.077   7.614   3.214
74530W        W46146  13.408  16.729   4.117
74531W        W46147  14.428   4.847  12.424
74532W        W46148  42.291  37.326  12.474
74533W        W46149  26.184  22.175   1.727
74534W        W46150   8.525  25.607  13.646
74535W        W46151  22.648  42.540  10.676
74536W        W46152  19.775  27.685   0.538
74537W        W46153  20.452  21.353  11.196
74538W        W46154  43.617  32.686   0.294
74539W        W46155   1.920   6.178   0.420
74540W        W46156  28.230  11.168   4.460
74541W        W46157  18.280   0.679   4.355
74542W        W46158  23.556  28.808   2.731
74543W        W46159  24.485  34.145  13.775
74544W        W46160  34.117   0.988  10.017
74545W        W46161  10.679  39.382  10.478
74546W        W46162   8.226  32.403   4.770
74547W        W46163  21.546  17.688   3.090
74548W        W46164   2.337  15.751  13.723
74549W        W46165  36.437  42.370   4.261
74550W        W46166  41.455  29.388  11.954
74551W        W46167   4.243  42.574  12.466
74552W        W46168  29.896   9.641  10.636
74553W        W46169  28.945  36.501   2.883
74554W        W46170  43.764   4.478  14.367
74555W        W46171  34.880  24.963  11.137
74556W        W46172  21.890  23.606  10.952
74557W        W46173  34.600   5.164   4.076
74558W        W46174  20.002   3.845   0.762
74559W        W46175  32.056  27.882  10.718
74560W        W46176  36.801  43.586  13.298
74561W        W46177  10.803  38.736   3.162
74562W        W46178  23.503   2.612  11.613
74563W        W46179  24.120  18.213   4.493
74564W        W46180  21.929   2.208   0.884
74565W        W46181   4.416   7.774  13.592
74566W        W46182  13.700  21.100   3.886
74567W        W46183   4.238  37.686  12.045
74568W        W46184  27.997   2.506  11.561
74569W        W46185  37.771  13.842   0.970
74570W        W46186  24.689  16.318  14.518
74571W        W46187  13.787  22.601   0.891
74572W        W46188  32.759  40.533   5.000
74573W        W46189  20.737  29.123   4.426
74574W        W46190   8.194   6.085   2.206
74575W        W46191   9.578   0.276  10.738
74576W        W46192   4.806  41.802  13.504
74577W        W46193  29.531  19.100   3.256
74578W        W46194   5.284  40.684   0.766
74579W        W46195  12.352  31.446  10.562
74580W        W46196  25.506   0.431   1.618
74581W        W46197  25.943  40.073   2.842
74582W        W46198  15.464  23.952  11.608
74583W        W46199   4.743  36.656   3.010
74584W        W46200  42.925  16.042   1.867
74585W        W46201  28.867  44.279   1.877
74586W        W46202  40.789  20.298  14.767
74587W        W46203  44.486  14.435  12.797
74588W        W46204   6.576  10.164  11.524
74589W        W46205  17.536  41.853  14.730
74590W        W46206  16.698  10.365  13.433
74591W        W46207  41.896  14.041  11.150
74592W        W46208  44.903  39.676   4.890
74593W        W46209  16.333   3.172  12.197
74594W        W46210  36.584  26.072   0.438
74595W        W46211  20.961   5.616   3.739
74596W        W46212  36.549  40.485   0.364
74597W        W46213   7.160  40.990  12.377
74598W        W46214  37.047   3.647  10.485
74599W        W46215  18.001  17.492  14.949
74600W        W46216   5.097  11.248   3.157
74601W        W46217   8.609  44.907   2.325
74602W        W46218   5.099  18.340  14.532
74603W        W46219  20.630  37.063   0.413
74604W        W46220  16.889  10.561  12.986
74605W        W46221   5.638  22.688  11.968
74606W        W46222   1.491  12.298   0.392
74607W        W46223  30.150  43.233  10.644
74608W        W46224   7.882   6.437   4.258
74609W        W46225  33.175  17.461   0.831
74610W        W46226  22.646  21.410   0.108
74611W        W46227  44.404  30.095  13.511
74612W        W46228  39.039   0.616  11.663
74613W        W46229  10.767  31.477   4.507
74614W        W46230  22.663   7.641  10.589
74615W        W46231  40.964  33.211  12.433
74616W        W46232  40.125  36.487  11.126
74617W        W46233   7.017  35.527   1.238
74618W        W46234   6.155  17.835   0.897
74619W        W46235   4.587  22.143   4.252
74620W        W46236  21.507   2.602  11.971
74621W        W46237  10.312   7.776   1.345
74622W        W46238  15.043  26.626   3.808
74623W        W46239   8.196  15.767   2.938
74624W        W46240  31.414  34.203   1.659
74625W        W46241  31.819  41.935   2.216
74626W        W46242   6.934  21.468  13.367
74627W        W46243   4.420  10.669  11.131
74628W        W46244  27.588  21.521   2.183
74629W        W46245   4.369  42.964   1.786
74630W        W46246  13.025  31.437   1.253
74631W        W46247  18.349  24.705  13.437
74632W        W46248  27.025   7.898   3.100
74633W        W46249  36.083   8.469   5.192
74634W        W46250  40.993  17.293   3.253
74635W        W46251  33.497   2.654  13.262
74636W        W46252  43.784  40.945   1.848
74637W        W46253   6.922  27.520   0.882
74638W        W46254   4.840   2.743   3.511
74639W        W46255  26.492   2.033   1.381
74640W        W46256  30.710   0.339  13.100
74641W        W46257  20.583  41.522   2.816
74642W        W46258  33.701  21.022  10.662
74643W        W46259  44.937  14.269  14.838
74644W        W46260  19.225  17.849   3.363
74645W        W46261  40.292  13.081   1.090
74646W        W46262  34.302  37.142  13.993
74647W        W46263  32.357  28.039  11.978
74648W        W46264  11.903   7.746   3.400
74649W        W46265  33.659  10.821   4.588
74650W        W46266  22.567  37.599  14.782
74651W        W46267  11.081  12.880  13.494
74652W        W46268  13.175  13.919   0.730
74653W        W46269  30.120   9.924  10.999
74654W        W46270   3.355  35.519   3.219
74655W        W46271   0.383  37.074   4.897
74656W        W46272  22.266  41.739   4.272
74657W        W46273  40.543  22.044   0.015
74658W        W46274  39.392  40.235   0.243
74659W        W46275  21.107  30.110  11.631
74660W        W46276   0.377  16.615  14.431
74661W        W46277  30.547   7.044  11.661
74662W        W46278  14.269  15.353   1.868
74663W        W46279  32.097  35.434   0.048
74664W        W46280  17.525  15.746  12.632
74665W        W46281  21.998  37.428  13.127
74666W        W46282  40.802  25.271   0.861
74667W        W46283   7.999  26.451  12.094
74668W        W46284   3.671   2.941   4.799
74669W        W46285  10.227  37.860   3.664
74670W        W46286  18.935  36.052   4.828
74671W        W46287   9.663  43.029   0.860
74672W        W46288  29.706   0.443  12.107
74673W        W46289  23.166  41.069  10.336
74674W        W46290  39.896  18.214   4.478
74675W        W46291  16.272   7.226   2.422
74676W        W46292  20.242  39.125   1.979
74677W        W46293  11.680   2.323   1.653
74678W        W46294  21.713  12.354   4.110
74679W        W46295   6.267  28.592   4.533
74680W        W46296   1.842  21.748   1.389
74681W        W46297  41.638  43.555   2.963
74682W        W46298  39.109  26.007   2.137
74683W        W46299   1.361  21.575  13.501
74684W        W46300   0.705   4.370   3.582
74685W        W46301  16.298  20.404  10.712
74686W        W46302  36.454  25.657   3.265
74687W        W46303  16.073  13.640  10.444
74688W        W46304  20.170  18.507  13.022
74689W        W46305   5.604  31.382   2.736
74690W        W46306  26.998   3.944  12.831
74691W        W46307   6.959   2.649  12.077
74692W        W46308   4.430  11.399   4.252
74693W        W46309   3.880   8.652  13.952
74694W        W46310  31.064   0.391   0.360
74695W        W46311  28.592   7.641  13.890
74696W        W46312  19.561  23.758   3.181
74697W        W46313  20.453   1.061   2.206
74698W        W46314  44.519   7.535  11.205
74699W        W46315  40.006  21.920   0.214
74700W        W46316  32.403  41.691  14.957
74701W        W46317  41.989   7.959   0.094
74702W        W46318   2.705  11.667  14.838
74703W        W46319   6.897   5.222   2.270
74704W        W46320  15.183  11.728   4.139
74705W        W46321  42.495  36.424   0.214
74706W        W46322  10.130  40.484   4.557
74707W        W46323  19.722  22.487  10.581
74708W        W46324  26.732   4.400   0.422
74709W        W46325  17.321  23.165   1.378
74710W        W46326  29.281   1.773  12.465
74711W        W46327  33.480  28.965   4.112
74712W        W46328  41.975  44.927  14.715
74713W        W46329   0.346  40.510   1.320
74714W        W46330   3.238  12.976   0.324
74715W        W46331  22.651  35.967   3.770
74716W        W46332  40.954   1.750  11.720
74717W        W46333   9.357  35.064  14.973
74718W        W46334  14.280  21.136  12.558
74719W        W46335  24.907   9.579  13.008
74720W        W46336  24.106  42.276  14.302
74721W        W46337  21.916   9.014  13.003
74722W        W46338  27.943  38.023  10.715
74723W        W46339  32.515  11.783   0.809
74724W        W46340  39.310  41.339   1.289
74725W        W46341  43.513  32.106   0.315
74726W        W46342  14.717  43.613   1.120
74727W        W46343   3.960   0.712  10.648
74728W        W46344  39.443  12.147   4.529
74729W        W46345   2.695  22.656   1.868
74730W        W46346   3.263  18.125  14.492
74731W        W46347  37.788  31.979  12.758
74732W        W46348  35.973   8.732   0.743
74733W        W46349  17.128   9.706   3.182
74734W        W46350  43.536  30.436   4.623
74735W        W46351  26.191  38.037  14.886
74736W        W46352  15.453  26.216   2.169
74737W        W46353  43.250  21.329   0.229
74738W        W46354  43.706  44.301   2.374
74739W        W46355  27.675   5.372  13.539
74740W        W46356  29.988  10.621   3.661
74741W        W46357  39.030  35.365  11.934
74742W        W46358  30.597   1.400   4.132
74743W        W46359  16.583   2.368  13.075
74744W        W46360  10.661   8.940   3.263
74745W        W46361  12.601  10.439   2.228
74746W        W46362  14.320   5.777  12.038
74747W        W46363   9.242  21.609   2.552
74748W        W46364   7.835  23.361   4.555
74749W        W46365  11.915  11.309  12.098
74750W        W46366  44.563   1.446   4.857
74751W        W46367  29.192  26.882  10.643
74752W        W46368   2.493   7.858   4.428
74753W        W46369  38.035   3.542  11.367
74754W        W46370  29.752  13.283   3.174
74755W        W46371   4.659  29.881   2.391
74756W        W46372  34.636  36.168  14.027
74757W        W46373  43.693   2.729   2.465
74758W        W46374  41.774  20.633   1.847
74759W        W46375  25.684  15.820  11.616
74760W        W46376  31.497  24.180   0.230
74761W        W46377  30.212   0.897  11.517
74762W        W46378   2.824  35.912   1.893
74763W        W46379   3.465  43.800   3.316
74764W        W46380   0.773  36.293   3.938
74765W        W46381  19.299  36.799  11.188
74766W        W46382  32.071  37.548   1.626
74767W        W46383  29.687   6.894  11.615
74768W        W46384  32.385  35.995  10.407
74769W        W46385  42.059  18.254   1.255
74770W        W46386  38.441   4.314  14.451
74771W        W46387  30.208  10.920   4.063
74772W        W46388  18.251   0.415  10.451
74773W        W46389  37.457  16.154   3.571
74774W        W46390   2.916  19.663   0.835
74775W        W46391  42.260   6.381  11.959
74776W        W46392  33.803  19.134   0.331
74777W        W46393  37.366  28.084   1.349
74778W        W46394  27.209  22.108   0.826
74779W        W46395  42.904  21.373  14.840
74780W        W46396  40.975  15.704   3.891
74781W        W46397   9.207  34.966  14.376
74782W        W46398  34.415  20.404  10.756
74783W        W46399   8.207  43.914   4.658
74784W        W46400  31.554  25.925   0.855
74785W        W46401   4.941   2.930  10.746
74786W        W46402  14.880  17.250   4.602
74787W        W46403  32.914   6.135  11.109
74788W        W46404  35.361  41.034   1.505
74789W        W46405   1.452   5.766  14.860
74790W        W46406   9.644   0.427  14.032
74791W        W46407  13.979  14.750   2.308
74792W        W46408  10.139   1.385  12.765
74793W        W46409   2.877  35.832   3.435
74794W        W46410   8.876   7.760  11.574
74795W        W46411   7.897   5.141   4.831
74796W        W46412   5.733  22.718  10.254
74797W        W46413  26.677  26.522  14.306
74798W        W46414   2.000  15.888  10.247
74799W        W46415  23.570   4.170  14.396
74800W        W46416  43.643  13.180   1.055
74801W        W46417  40.888  10.019   4.708
74802W        W46418   8.310  40.834  14.855
74803W        W46419  40.279  29.549   2.832
74804W        W46420   9.904  36.839   0.401
74805W        W46421  44.250  38.332   2.838
74806W        W46422  37.568   8.381  13.948
74807W        W46423  39.949   0.504  12.988
74808W        W46424  15.551  32.543  11.571
74809W        W46425  37.148  11.440   3.537
74810W        W46426   0.043  41.050   3.742
74811W        W46427  29.916  15.545   2.865
74812W        W46428  18.159  31.079   3.329
74813W        W46429   1.794  28.715  10.728
74814W        W46430  29.909  41.250   0.327
74815W        W46431  41.519  38.817  12.583
74816W        W46432  39.637  39.098   2.907
74817W        W46433  28.125  32.991  14.294
74818W        W46434  31.354  40.555   1.312
74819W        W46435  35.566  41.569  14.984
74820W        W46436  31.349  30.486  10.135
74821W        W46437  37.811  13.564  11.024
74822W        W46438  12.087  31.422   4.133
74823W        W46439  26.074  40.547  12.008
74824W        W46440  14.416   8.370  14.296
74825W        W46441  33.994   2.749   1.770
74826W        W46442  13.709  28.472   2.967
74827W        W46443  25.402  10.284  12.400
74828W        W46444  36.998  26.718   4.601
74829W        W46445  25.578  20.776   2.775
74830W        W46446  21.303  17.617  12.707
74831W        W46447   4.665  15.302   1.438
74832W        W46448  16.832  20.661  11.678
74833W        W46449   3.327  33.593   4.665
74834W        W46450   0.744  35.763  10.312
74835W        W46451  37.909  42.784   1.668
74836W        W46452  39.808  31.340   2.777
74837W        W46453  14.282  11.481  12.079
74838W        W46454  24.081   6.099  12.914
74839W        W46455  16.982  10.200   2.352
74840W        W46456  43.502   8.426  11.622
74841W        W46457   2.991  16.609   0.927
74842W        W46458  36.957  29.182  14.826
74843W        W46459  40.881  23.531  14.877
74844W        W46460   1.222  17.537   3.250
74845W        W46461   4.432   8.721  13.893
74846W        W46462  23.963   8.917   2.235
74847W        W46463   1.239  11.599   4.867
74848W        W46464  10.335   6.353   2.594
74849W        W46465  28.663   6.158  14.418
74850W        W46466  27.726  19.646  10.700
74851W        W46467   8.429   2.392   0.283
74852W        W46468  41.559  42.777  13.603
74853W        W46469  33.006  23.550   0.032
74854W        W46470  18.196  28.074   4.573
74855W        W46471  39.200  15.663   0.456
74856W        W46472  29.031  30.203   3.161
74857W        W46473  41.951   9.135   2.109
74858W        W46474  38.827   6.962   2.350
74859W        W46475  33.179  20.712   4.663
74860W        W46476  31.909   7.410  10.705
74861W        W46477  10.675  24.698   0.754
74862W        W46478  38.120  27.932   0.986
74863W        W46479  22.938  30.705   2.738
74864W        W46480  31.486  36.917   2.699
74865W        W46481  25.455  41.713   0.146
74866W        W46482  31.015   2.710  11.332
74867W        W46483  44.016  44.806   1.290
74868W        W46484  32.981  15.750   2.694
74869W        W46485  29.491   8.167  13.956
74870W        W46486  20.533  34.682   3.507
74871W        W46487  25.514  28.100  14.818
74872W        W46488  20.094   7.283  13.498
74873W        W46489  11.802  20.432   4.304
74874W        W46490  30.965  22.517   3.370
74875W        W46491  33.809  39.115  12.988
74876W        W46492  10.637   7.053  14.296
74877W        W46493  12.112   6.178   1.848
74878W        W46494  21.515   2.729  13.628
74879W        W46495  24.822  11.196   4.983
74880W        W46496  12.785  41.063   2.793
74881W        W46497  22.237  39.994   4.634
74882W        W46498  35.885  34.026   3.179
74883W        W46499  35.427  42.823   4.572
74884W        W46500   9.182  21.310  12.635
74885W        W46501   8.871  36.845   0.159
74886W        W46502   1.966  18.170  11.034
74887W        W46503   7.288   5.727   1.933
74888W        W46504  40.340  14.109  14.816
74889W        W46505  39.242  39.549   3.177
74890W        W46506   2.732  34.510  13.801
74891W        W46507  42.576  19.067   0.226
74892W        W46508   6.812   4.473   1.636
74893W        W46509  42.011  25.250   4.642
74894W        W46510  40.265  21.145   3.804
74895W        W46511  42.336   7.452  10.711
74896W        W46512  37.465  34.895  10.707
74897W        W46513  36.543  10.255  13.845
74898W        W46514   3.802  33.556   0.984
74899W        W46515   5.780  17.294   3.683
74900W        W46516  41.535  36.081  14.493
74901W        W46517  28.540  41.449   0.036
74902W        W46518   5.415  19.300   4.948
74903W        W46519  37.791   4.896  10.224
74904W        W46520  21.741   7.327  13.893
74905W        W46521  19.806  40.466  12.348
74906W        W46522  32.535  34.103  13.314
74907W        W46523  24.976  37.172  11.445
74908W        W46524  30.637  19.311  11.017
74909W        W46525   5.985   6.646  14.907
74910W        W46526  42.929  42.662  13.262
74911W        W46527   3.293  10.379   5.105
74912W        W46528  14.060  27.533   3.961
74913W        W46529   1.713  30.117  11.557
74914W        W46530   1.901   2.211   3.169
74915W        W46531  11.811  44.681   2.604
74916W        W46532   3.179  25.122   2.179
74917W        W46533  18.605  23.314  10.639
74918W        W46534  14.162  28.755  13.153
74919W        W46535  34.000  23.293  12.995
74920W        W46536  44.469   4.213  11.485
74921W        W46537   8.482  36.001   4.699
74922W        W46538  32.482  27.034   0.831
74923W        W46539  29.254  23.949  10.629
74924W        W46540  40.447  29.146  13.993
74925W        W46541   1.469   3.897  13.307
74926W        W46542  40.125  38.953  10.483
74927W        W46543  16.718  19.862   0.288
74928W        W46544  26.041  22.937  11.163
74929W        W46545   8.865  11.245  14.849
74930W        W46546  43.015  22.133   3.242
74931W        W46547  25.303  35.861   1.563
74932W        W46548  13.664  24.986  12.490
74933W        W46549   1.715  16.430  11.613
74934W        W46550  37.296  18.539   1.229
74935W        W46551  43.394  29.562  10.722
74936W        W46552  38.572   5.326  14.466
74937W        W46553   2.276  23.059   1.376
74938W        W46554  22.081  14.305  14.114
74939W        W46555  19.659  42.304  11.137
74940W        W46556  42.473  16.078  11.983
74941W        W46557  22.210  17.772  11.075
74942W        W46558  35.482  10.799  10.827
74943W        W46559   8.246  18.768   1.697
74944W        W46560   9.467  28.424  12.831
74945W        W46561  17.732  29.503   4.196
74946W        W46562   8.825   4.333   4.545
74947W        W46563  19.728   7.383   4.205
74948W        W46564   4.444  18.941   4.839
74949W        W46565   4.056  33.450   1.412
74950W        W46566  35.968  20.513   1.417
74951W        W46567  18.722  30.081   4.814
74952W        W46568  22.075  33.425  10.883
74953W        W46569  30.675  25.658  11.889
74954W        W46570   0.248  17.638   4.136
74955W        W46571   2.027  13.854   3.346
74956W        W46572  15.308   5.673   4.086
74957W        W46573  29.210  29.987   0.934
74958W        W46574   2.662   8.338   0.406
74959W        W46575  28.022  25.634   3.219
74960W        W46576  29.424  18.639   1.892
74961W        W46577  38.255  30.614   2.279
74962W        W46578  42.563  21.576   0.364
74963W        W46579   2.263   9.147  11.264
74964W        W46580   6.462  25.319  10.284
74965W        W46581  17.095  24.031  10.541
74966W        W46582   6.822  27.175  12.131
74967W        W46583   0.988  22.692  12.973
74968W        W46584  18.234  38.638  13.844
74969W        W46585  41.586  13.033   3.319
74970W        W46586  34.405   7.327  13.375
74971W        W46587  33.944  17.709   3.861
74972W        W46588  40.985  21.638   4.769
74973W        W46589  14.713  32.536  10.359
74974W        W46590   1.889   8.996   4.625
74975W        W46591  40.534  15.037  14.552
74976W        W46592   3.791  16.335  13.057
74977W        W46593  36.496  29.094   2.817
74978W        W46594   7.151  11.260  11.206
74979W        W46595  21.938  44.790   2.852
74980W        W46596  22.862   1.923  13.993
74981W        W46597  40.330   0.810   1.445
74982W        W46598  17.612  16.735   1.439
74983W        W46599  35.599  15.226   1.261
74984W        W46600  12.824  16.129  12.705
74985W        W46601   4.404  37.120   2.691
74986W        W46602   5.402   1.977  13.050
74987W        W46603  41.518   8.227   4.557
74988W        W46604   9.321  14.666  14.254
74989W        W46605  37.901  31.615   4.715
74990W        W46606  40.988  23.229   0.322
74991W        W46607  22.907  10.938  12.532
74992W        W46608   3.182   6.975  12.391
74993W        W46609  30.899  25.509   3.628
74994W        W46610  11.663  20.014   2.429
74995W        W46611  19.978  38.387   4.571
74996W        W46612   6.073   7.423  11.748
74997W        W46613  11.324  31.577   4.612
74998W        W46614  15.249   1.185  12.030
74999W        W46615   5.754  36.002  14.147
75000W        W46616  16.661   9.587   1.893
75001W        W46617  40.503  29.425   4.258
75002W        W46618  33.439  39.517   3.185
75003W        W46619   8.907  37.766  11.488
75004W        W46620  18.529  28.572  14.228
75005W        W46621  27.691  17.291  11.407
75006W        W46622  33.860  18.579   2.843
75007W        W46623  31.007  37.912   0.393
75008W        W46624  29.217  35.968   4.087
75009W        W46625  42.787  37.351  14.841
75010W        W46626  36.119   3.453   3.071
75011W        W46627  39.938   3.220   0.856
75012W        W46628  42.679  26.658  12.608
75013W        W46629  34.168  35.850   1.272
75014W        W46630  24.440  37.268   0.374
75015W        W46631   4.170   2.390  13.996
75016W        W46632  20.763  35.916   1.617
75017W        W46633   2.224   9.306  13.458
75018W        W46634  41.411  14.347   4.094
75019W        W46635  18.312  17.195  13.282
75020W        W46636  37.377   8.457  13.013
75021W        W46637  20.947   3.858  12.146
75022W        W46638   2.812  28.207  12.976
75023W        W46639  43.070  11.699   1.154
75024W        W46640  42.793   5.229   4.293
75025W        W46641  27.872   1.127   3.719
75026W        W46642  15.992  37.780  11.025
75027W        W46643   0.478  35.327   0.847
75028W        W46644  12.849  21.158  12.377
75029W        W46645  31.132  21.582  14.880
75030W        W46646  38.746  32.575  11.159
75031W        W46647  14.292  16.057   4.110
75032W        W46648  38.803  35.666  12.465
75033W        W46649  30.197  42.026   3.762
75034W        W46650  24.872   9.286   3.170
75035W        W46651  22.516   8.645   4.071
75036W        W46652  40.922  20.294   3.323
75037W        W46653  26.023  14.135  10.750
75038W        W46654  42.355   1.773   4.328
75039W        W46655  17.722  22.625   0.372
75040W        W46656  11.646  15.861  11.466
75041W        W46657  32.631   9.683   3.623
75042W        W46658  13.157  20.010   3.840
75043W        W46659  23.339  39.853  11.563
75044W        W46660  16.313  23.061   3.850
75045W        W46661  12.812  34.389  12.643
75046W        W46662   1.734  43.492   1.805
75047W        W46663  38.466  27.528  12.048
75048W        W46664  30.602  30.594   1.642
75049W        W46665  17.412  16.724  11.923
75050W        W46666  14.090   9.779   4.689
75051W        W46667  28.237  22.040  12.116
75052W        W46668  25.560  29.519   1.932
75053W        W46669  14.927  11.978   2.812
75054W        W46670   7.511  20.370   4.076
75055W        W46671  24.513  36.449   0.762
75056W        W46672  21.591   9.629  13.553
75057W        W46673  33.850  19.635   0.378
75058W        W46674  14.815  16.499   1.422
75059W        W46675  23.159  27.625  14.056
75060W        W46676  25.958  38.142  12.353
75061W        W46677  16.525  41.096   3.589
75062W        W46678  24.039  19.343  10.912
75063W        W46679  43.892   5.656   4.840
75064W        W46680   2.325  28.398  12.842
75065W        W46681  19.637  33.298  11.572
75066W        W46682   3.231  17.599  10.662
75067W        W46683  26.707  18.283   2.393
75068W        W46684  27.569  34.113   3.608
75069W        W46685  35.448  28.984  11.785
75070W        W46686  14.250  22.296  12.426
75071W        W46687  18.545  42.838  13.880
75072W        W46688  12.130   7.251  11.104
75073W        W46689  42.120  38.818   5.003
75074W        W46690   9.802   7.649   1.354
75075W        W46691  25.446  20.093  11.709
75076W        W46692  40.270  34.050  11.992
75077W        W46693   4.108  31.520   2.369
75078W        W46694  34.975  23.527   3.778
75079W        W46695   9.285   1.278   4.282
75080W        W46696  26.015  27.702  13.972
75081W        W46697  17.807  22.269  14.580
75082W        W46698  31.962  28.499  12.825
75083W        W46699  37.460  17.854  12.537
75084W        W46700   6.929  33.752   3.252
75085W        W46701  19.258  17.925  12.663
75086W        W46702  38.435  16.895   4.125
75087W        W46703  25.244   6.779   3.384
75088W        W46704  15.242  34.630  14.417
75089W        W46705   6.919  41.478   1.041
75090W        W46706  42.781   5.033  12.829
75091W        W46707  25.686  43.284  11.452
75092W        W46708  35.315  16.340   4.920
75093W        W46709   7.924  37.925   4.148
75094W        W46710  11.330   4.209  13.404
75095W        W46711  19.288  30.384  14.367
75096W        W46712   6.267  29.208  11.544
75097W        W46713  40.250  10.868  14.811
75098W        W46714  33.486  37.130   1.730
75099W        W46715  25.248  16.789  13.522
75100W        W46716  16.468   7.943  14.472
75101W        W46717   9.577  13.407  12.041
75102W        W46718  20.183  42.959  12.719
75103W        W46719  14.352  38.438   4.184
75104W        W46720  26.912  16.825   5.082
75105W        W46721  37.589  22.094   1.745
75106W        W46722   0.465   0.239  12.836
75107W        W46723  14.807  13.340  14.281
75108W        W46724  43.760  15.868   0.953
75109W        W46725  32.140  10.248   0.345
75110W        W46726  44.478  14.193  13.402
75111W        W46727   7.649  44.488  12.043
75112W        W46728  11.031  43.946   3.254
75113W        W46729  29.873  28.261  14.097
75114W        W46730  10.849  43.005  12.429
75115W        W46731   2.184  16.678  14.484
75116W        W46732   9.871  38.404   3.410
75117W        W46733  17.525   3.760   4.774
75118W        W46734  15.406  12.250   2.862
75119W        W46735   7.177   7.124  10.650
75120W        W46736  16.547   9.722   0.075
75121W        W46737  12.383   0.377  13.557
75122W        W46738   1.938  42.605  11.074
75123W        W46739   0.417  13.285   1.342
75124W        W46740  22.524  10.085  13.501
75125W        W46741  24.224  19.299   4.744
75126W        W46742  33.216  18.704   1.667
75127W        W46743   2.594  25.288   2.772
75128W        W46744  30.866   1.432  12.922
75129W        W46745  26.907  29.571  12.476
75130W        W46746  39.431  37.102   1.000
75131W        W46747   8.232  32.098  13.061
75132W        W46748  38.513   7.237  14.779
75133W        W46749   9.996  18.044  10.310
75134W        W46750  28.548  39.646  13.432
75135W        W46751  44.135  12.240   4.490
75136W        W46752  24.662  31.889   4.942
75137W        W46753  41.505  31.251  13.922
75138W        W46754   2.394  42.508   3.390
75139W        W46755  11.197   5.902   4.925
75140W        W46756  20.674  30.105  10.647
75141W        W46757   4.647  32.721  14.348
75142W        W46758  22.204  30.166   2.276
75143W        W46759  17.141   3.962  14.609
75144W        W46760  19.574  43.831   4.224
75145W        W46761   8.833   3.830   2.582
75146W        W46762  18.154  33.087  11.596
75147W        W46763  19.454  13.728   0.414
75148W        W46764   8.650  19.179   1.298
75149W        W46765   7.230  40.509   3.165
75150W        W46766  24.902   9.682   4.288
75151W        W46767  19.031  11.835  11.569
75152W        W46768  13.587  44.118  12.180
75153W        W46769  29.637  17.040   2.698
75154W        W46770   2.363  42.537   4.261
75155W        W46771   1.770  12.805   4.394
75156W        W46772  20.940  27.856  14.287
75157W        W46773   5.229  13.855   0.277
75158W        W46774  34.570  11.631   1.820
75159W        W46775  14.978   2.102   4.809
75160W        W46776  16.312   6.782   2.114
75161W        W46777  31.148   3.270  11.382
75162W        W46778  40.460  42.599  14.551
75163W        W46779  32.484  13.225   0.351
75164W        W46780   3.038  14.797   4.826
75165W        W46781  17.041   7.458   0.240
75166W        W46782  13.784  35.691   3.421
75167W        W46783  21.063  32.432  12.882
75168W        W46784  21.991  10.160  14.395
75169W        W46785  27.149  26.355  13.009
75170W        W46786  22.474   0.830   1.724
75171W        W46787  19.795   5.124   4.434
75172W        W46788  34.855  29.678  12.957
75173W        W46789  20.116  42.660  10.981
75174W        W46790  32.933   5.139   3.630
75175W        W46791   6.093  20.489   4.151
75176W        W46792   4.481   2.270   0.941
75177W        W46793   0.504  35.734   5.405
75178W        W46794   6.508  12.635   3.673
75179W        W46795   3.191  31.165   0.160
75180W        W46796  12.668   9.858  11.601
75181W        W46797   3.898  20.521  13.435
75182W        W46798   3.774  20.218  10.645
75183W        W46799  24.538  10.376   0.449
75184W        W46800  15.074   9.830   4.477
75185W        W46801  32.522  16.913  12.505
75186W        W46802   2.191  11.296  14.539
75187W        W46803  10.046  19.183  14.745
75188W        W46804  40.856  22.221  12.384
75189W        W46805  28.978   9.186  11.162
75190W        W46806  37.639   7.744   2.263
75191W        W46807  13.593  24.892   0.461
75192W        W46808  16.042   3.468  12.515
75193W        W46809   0.387  19.521  14.556
75194W        W46810   6.656  43.761   2.263
75195W        W46811  21.946  18.613  14.797
75196W        W46812  30.383   0.427   1.831
75197W        W46813   9.160  37.172  13.693
75198W        W46814  44.115  27.121  14.684
75199W        W46815  37.985   4.722   1.876
75200W        W46816  43.763  39.271   1.328
75201W        W46817  12.403  37.431   0.847
75202W        W46818  28.394  18.666   0.399
75203W        W46819   5.490  28.725  11.717
75204W        W46820  43.307  39.345   3.285
75205W        W46821  40.198  16.702  13.023
75206W        W46822  31.139  36.462   1.676
75207W        W46823  34.701  15.164  10.467
75208W        W46824  11.883   8.885  12.088
75209W        W46825  29.938   5.486   1.297
75210W        W46826  18.672  21.790   3.854
75211W        W46827  21.538  11.306   2.293
75212W        W46828  27.690  20.070  12.030
75213W        W46829  11.883  28.999  12.440
75214W        W46830  17.669  18.194   5.497
75215W        W46831  17.546   7.410  10.739
75216W        W46832  30.075  21.148  14.985
75217W        W46833  12.309   4.565  11.424
75218W        W46834   1.267   4.390  10.592
75219W        W46835  26.126  34.962  13.747
75220W        W46836  31.647   3.293   2.393
75221W        W46837  32.834   7.344   2.192
75222W        W46838  20.844  23.366  13.920
75223W        W46839  30.778   3.669  12.193
75224W        W46840   6.235  14.210   0.710
75225W        W46841   0.817  10.352  14.744
75226W        W46842  39.468  12.198   3.132
75227W        W46843   2.027   4.175   0.690
75228W        W46844  33.321   9.853  10.280
75229W        W46845   2.863  27.677  13.026
75230W        W46846   2.402  24.680   5.392
75231W        W46847  11.380  29.853   3.280
75232W        W46848  17.087  26.694   2.767
75233W        W46849  19.697  10.091  14.177
75234W        W46850  13.341   5.209   2.372
75235W        W46851  22.349   5.673   0.852
75236W        W46852  11.836  34.735   1.741
75237W        W46853  37.568  15.777   1.242
75238W        W46854  17.541  14.237  13.579
75239W        W46855  14.159   8.364  12.992
75240W        W46856  11.209  14.706   2.118
75241W        W46857   3.276  10.219   0.207
75242W        W46858  25.714  41.622   4.621
75243W        W46859  22.980  26.078   4.676
75244W        W46860   2.007  23.216   1.851
75245W        W46861  26.420  19.633   4.264
75246W        W46862  25.512  40.647   4.526
75247W        W46863  16.859  15.320   1.592
75248W        W46864  37.391  37.140   3.375
75249W        W46865   9.167  23.045  13.582
75250W        W46866   6.863  16.926   0.128
75251W        W46867  17.079  12.736   2.320
75252W        W46868   1.677  12.672  11.554
75253W        W46869   2.766   6.051  14.694
75254W        W46870  41.996   5.829   2.696
75255W        W46871  11.122  21.977   0.533
75256W        W46872   7.424   3.860   1.131
75257W        W46873   7.433   8.321   4.011
75258W        W46874   3.756  17.440  14.279
75259W        W46875  31.239  15.083  14.374
75260W        W46876   5.350  23.268  14.849
75261W        W46877  31.217  39.405   2.713
75262W        W46878  26.193  18.067  14.778
75263W        W46879  39.478  20.499  12.164
75264W        W46880  20.117  23.315   0.438
75265W        W46881  30.373  36.430  14.493
75266W        W46882   8.916  35.418   1.985
75267W        W46883  44.791  13.700  10.685
75268W        W46884  22.638   5.811  14.534
75269W        W46885  44.095  42.544  11.156
75270W        W46886  25.685  24.782  11.218
75271W        W46887  12.876  14.008   0.313
75272W        W46888  15.793  10.603   0.455
75273W        W46889  38.527   6.443   0.473
75274W        W46890  16.900  23.976   0.352
75275W        W46891   1.406  43.519   5.206
75276W        W46892   0.294   9.729  10.631
75277W        W46893  32.395  44.096  13.442
75278W        W46894  31.648  13.757   1.298
75279W        W46895  26.168  12.824  11.148
75280W        W46896  41.054   5.846  12.824
75281W        W46897  39.416  11.413   0.504
75282W        W46898   9.451  19.121   0.814
75283W        W46899  35.499  28.177   1.815
75284W        W46900  30.593   0.696   3.205
75285W        W46901  26.311  34.498   5.051
75286W        W46902   1.453  42.426  12.539
75287W        W46903  12.281  34.984   3.727
75288W        W46904  32.916  27.997   1.400
75289W        W46905  40.040  43.270   1.278
75290W        W46906   9.381  16.292  13.469
75291W        W46907  32.034   9.611  13.101
75292W        W46908  17.610  15.496  13.122
75293W        W46909  21.403  23.576   1.722
75294W        W46910   3.924  15.087  11.979
75295W        W46911   1.901  32.905  13.516
75296W        W46912  28.549  21.309   0.458
75297W        W46913   2.872  44.327   4.995
75298W        W46914  23.146  21.481  12.913
75299W        W46915  38.097   3.988   2.146
75300W        W46916  40.317  39.445  14.360
75301W        W46917  11.313  33.429  10.408
75302W        W46918   2.953   9.219  12.909
75303W        W46919  23.905  29.942  11.921
75304W        W46920  28.967  22.023   3.538
75305W        W46921  21.602  44.000  11.178
75306W        W46922  31.574  34.088  12.682
75307W        W46923  39.899  31.936  12.149
75308W        W46924  35.344   3.909  13.451
75309W        W46925  27.649  31.711   4.654
75310W        W46926  25.338  40.347   1.261
75311W        W46927   6.877  37.865  10.778
75312W        W46928  36.319   9.227  12.751
75313W        W46929   1.995  19.748  11.492
75314W        W46930  19.812  13.964  11.529
75315W        W46931  20.370  12.937   4.962
75316W        W46932  18.591  31.390  12.541
75317W        W46933  23.443  23.066   3.596
75318W        W46934  31.434  10.739   0.495
75319W        W46935  30.056  19.532   4.134
75320W        W46936  11.656  25.238   3.156
75321W        W46937  12.709  23.628   1.380
75322W        W46938   5.836  10.682   3.167
75323W        W46939  40.179  41.389   1.298
75324W        W46940  28.567  14.036   5.026
75325W        W46941  40.876   0.508  14.276
75326W        W46942   3.390   1.680  13.985
75327W        W46943   2.547  17.695  13.127
75328W        W46944   5.781  25.725   0.029
75329W        W46945  43.774  16.653  13.872
75330W        W46946  30.667  42.984   3.676
75331W        W46947  32.716  25.054  11.281
75332W        W46948  21.746  20.306  13.566
75333W        W46949  19.242  28.107   1.299
75334W        W46950  44.108  21.198   0.421
75335W        W46951  31.924   9.495  12.550
75336W        W46952  44.849   9.084  14.322
75337W        W46953   2.365  42.330  12.415
75338W        W46954  17.366  38.870  10.841
75339W        W46955   9.160   7.634   1.665
75340W        W46956  41.507  17.129   3.181
75341W        W46957   0.417  32.586  12.940
75342W        W46958  11.883   3.223  13.509
75343W        W46959   2.318  26.505  14.548
75344W        W46960   4.885   8.934  12.628
75345W        W46961   6.834  34.244   3.857
75346W        W46962  42.542  17.713   2.711
75347W        W46963  31.577  34.689   1.549
75348W        W46964  19.193  28.634   4.711
75349W        W46965  23.785  40.076  11.403
75350W        W46966  24.966  27.560   3.780
75351W        W46967  32.581  44.916  12.962
75352W        W46968  22.733   0.400  11.614
75353W        W46969   2.836  32.465   3.084
75354W        W46970  17.591  34.180  13.420
75355W        W46971  35.422   0.209   4.705
75356W        W46972  24.041  14.349  11.951
75357W        W46973  10.144  20.084  14.276
75358W        W46974  38.504  18.839  13.882
75359W        W46975  29.491  30.104  12.895
75360W        W46976  24.749  28.509  13.865
75361W        W46977  24.696  30.560   2.793
75362W        W46978  43.284  44.571   3.261
75363W        W46979  15.480  38.773   1.895
75364W        W46980  42.485  11.230  13.138
75365W        W46981   7.928  23.672   4.121
75366W        W46982  35.960  39.668   1.460
75367W        W46983  31.068  12.330  14.057
75368W        W46984  36.418   4.000  13.330
75369W        W46985  28.561  20.487   1.702
75370W        W46986  35.604  15.239   1.842
75371W        W46987  11.718  20.003  14.558
75372W        W46988  25.505  31.453  12.830
75373W        W46989  24.058  24.818  14.929
75374W        W46990  21.926  18.834   4.558
75375W        W46991  44.986  44.305   3.181
75376W        W46992  20.138  32.754  10.449
75377W        W46993  10.869  23.742  14.012
75378W        W46994   9.096  26.545  14.991
75379W        W46995  39.971  23.741   2.822
75380W        W46996   4.968  38.302  11.573
75381W        W46997  14.603   7.090  12.002
75382W        W46998   5.266  27.467   3.317
75383W        W46999   9.430   6.217  12.625
75384W        W47000  37.502   9.880   4.211
75385W        W47001  18.670  33.582   3.351
75386W        W47002  42.312  42.730   1.893
75387W        W47003  38.704  43.204   3.358
75388W        W47004  32.543  14.299   0.388
75389W        W47005  31.141   8.717  10.240
75390W        W47006  33.439  25.085  12.148
75391W        W47007  18.662  44.898  11.082
75392W        W47008  25.488  43.556  11.043
75393W        W47009   1.254  21.637   3.200
75394W        W47010   5.379  34.164  10.831
75395W        W47011  12.258   5.815  13.719
75396W        W47012  22.789  18.261   1.502
75397W        W47013  35.083  36.572   0.484
75398W        W47014  34.520  13.658   4.368
75399W        W47015  32.397  23.992   0.339
75400W        W47016  44.272  42.802   4.435
75401W        W47017  38.515  38.521  13.929
75402W        W47018  34.090   3.908   3.232
75403W        W47019  19.702  21.950  10.521
75404W        W47020  25.186  10.889  13.518
75405W        W47021  10.451  36.635  11.157
75406W        W47022  44.991   2.241  13.885
75407W        W47023  23.266  15.246  11.946
75408W        W47024  35.141  31.170   3.168
75409W        W47025  11.433   7.918  12.891
75410W        W47026  14.654   1.739  14.495
75411W        W47027   1.966  25.743  10.971
75412W        W47028  16.695  25.743   4.637
75413W        W47029  12.575   6.779   1.661
75414W        W47030  25.941  23.469  13.298
75415W        W47031  11.599  44.677   2.106
75416W        W47032  40.247  19.226   4.671
75417W        W47033  20.628  42.487  11.618
75418W        W47034  32.330  34.073  10.761
75419W        W47035   8.836  15.286  11.690
75420W        W47036  21.035  13.111   4.345
75421W        W47037  29.189  38.981   0.424
75422W        W47038   5.875  19.159  10.759
75423W        W47039  37.332  44.479   3.847
75424W        W47040   7.137  42.466   0.702
75425W        W47041  28.651  11.053   3.581
75426W        W47042  31.974  11.786   2.899
75427W        W47043  37.593  31.451   0.242
75428W        W47044  42.930  14.673   4.542
75429W        W47045  37.832  11.294   3.134
75430W        W47046  10.463  39.343  14.828
75431W        W47047  41.203  33.548   0.036
75432W        W47048  19.585  36.330  11.381
75433W        W47049  16.623  28.912   4.573
75434W        W47050   6.920  40.878   2.957
75435W        W47051  22.059  36.744  12.460
75436W        W47052  42.362  29.346   0.341
75437W        W47053   0.043  25.723  14.679
75438W        W47054   8.879  15.112  12.179
75439W        W47055  32.136   4.634   4.187
75440W        W47056  39.391  20.887   2.274
75441W        W47057  35.188  41.533  10.322
75442W        W47058  12.411  25.093   3.723
75443W        W47059   2.698  11.211  14.581
75444W        W47060  15.486  37.700   1.765
75445W        W47061  33.582  11.652  13.583
75446W        W47062  36.859   0.039  14.322
75447W        W47063   6.450  31.123  12.863
75448W        W47064  36.730  34.723   5.054
75449W        W47065  20.650  24.730   3.387
75450W        W47066  40.839  25.089  11.077
75451W        W47067   2.488  26.278   0.013
75452W        W47068  30.530  37.117  12.518
75453W        W47069  31.954  28.003   4.078
75454W        W47070  17.769  31.266   0.355
75455W        W47071  38.268  14.543  11.485
75456W        W47072  12.774  37.575  11.100
75457W        W47073  17.277   6.135  14.962
75458W        W47074  15.030  13.583  10.608
75459W        W47075  38.992  18.749   3.654
75460W        W47076  22.839  19.680  12.979
75461W        W47077  29.451  41.958   2.281
75462W        W47078  19.767  36.814  12.845
75463W        W47079  37.410  13.647   3.115
75464W        W47080  34.192  41.410  14.538
75465W        W47081  10.673  40.866   3.898
75466W        W47082  18.093  37.063  11.589
75467W        W47083  12.395   4.198  10.616
75468W        W47084   1.648  30.224   4.350
75469W        W47085  39.335  33.888   4.695
75470W        W47086  37.480  34.377  10.684
75471W        W47087  43.541  39.959  11.716
75472W        W47088  31.061   5.829   0.255
75473W        W47089   3.256  13.424   5.228
75474W        W47090  27.052  13.223   4.275
75475W        W47091  26.482   0.422   2.704
75476W        W47092  42.767  23.085  14.468
75477W        W47093  11.092  31.849  14.894
75478W        W47094  15.547  10.898   2.445
75479W        W47095  12.072  35.112  14.102
75480W        W47096  18.975  14.108   4.149
75481W        W47097  21.540  12.814  14.025
75482W        W47098  10.932  35.900   0.125
75483W        W47099  29.939   8.166  12.009
75484W        W47100   0.438   6.958   4.588
75485W        W47101  27.687   9.885  11.339
75486W        W47102  21.557  29.416  14.466
75487W        W47103  13.477  10.232   4.917
75488W        W47104   4.473  13.778  14.798
75489W        W47105  44.980  22.018  11.515
75490W        W47106   9.000   3.916  14.085
75491W        W47107  33.977  39.520   4.312
75492W        W47108  28.017  26.677   2.302
75493W        W47109  33.025  17.497   3.197
75494W        W47110  37.605   5.895  12.387
75495W        W47111  31.075  25.429   0.334
75496W        W47112  20.656  21.320   4.926
75497W        W47113  44.337  25.060   2.783
75498W        W47114   0.095  21.916   5.479
75499W        W47115   1.278  24.965   4.895
75500W        W47116  19.583   1.959  14.522
75501W        W47117   2.308  19.726   1.001
75502W        W47118  34.948  12.286  14.213
75503W        W47119   1.350  30.183   0.313
75504W        W47120  30.162  39.523   3.290
75505W        W47121  16.562   5.961   4.170
75506W        W47122  30.733  32.989   3.173
75507W        W47123  41.357  15.940   4.125
75508W        W47124   7.168  30.659  14.894
75509W        W47125   0.498   9.106   2.243
75510W        W47126  36.888  33.863   0.306
75511W        W47127   2.856  41.806  11.473
75512W        W47128  10.695   6.812   4.714
75513W        W47129  35.079   0.274   0.978
75514W        W47130  10.100  41.919   2.640
75515W        W47131  28.967   5.630  12.024
75516W        W47132  41.676  13.084  12.977
75517W        W47133  34.456  13.739   3.386
75518W        W47134   0.719  29.284  14.473
75519W        W47135  34.101   9.346   0.432
75520W        W47136  40.219  25.166  14.293
75521W        W47137   8.486  30.441  12.704
75522W        W47138  42.489  15.735  13.945
75523W        W47139   2.315  42.102   1.845
75524W        W47140  35.433  29.979  13.851
75525W        W47141  30.078  41.792   1.989
75526W        W47142  29.000  44.278   3.443
75527W        W47143   6.344  25.216  13.936
75528W        W47144  22.587  33.512  10.217
75529W        W47145  25.045  27.219   0.778
75530W        W47146  33.560  17.687   4.229
75531W        W47147  28.521   2.902   2.900
75532W        W47148   1.952  37.626  12.114
75533W        W47149   1.659  16.678   4.666
75534W        W47150  36.110  10.123   4.241
75535W        W47151  42.306  31.034  12.504
75536W        W47152  22.057   1.866   0.333
75537W        W47153  26.649  16.726  12.079
75538W        W47154  23.536  37.888  11.147
75539W        W47155  29.410   9.825  10.733
75540W        W47156  12.083  23.311   3.172
75541W        W47157   6.392  40.044   1.358
75542W        W47158  41.887  37.920   1.008
75543W        W47159  27.680  23.100   1.826
75544W        W47160  44.029  16.317   2.721
75545W        W47161  15.658  28.121   4.094
75546W        W47162  26.616  20.078   3.655
75547W        W47163  11.889   9.579   0.789
75548W        W47164  23.218   2.970  14.861
75549W        W47165  15.040   0.210  11.999
75550W        W47166   4.210  22.006   1.935
75551W        W47167  28.147  32.580  11.711
75552W        W47168  24.134  15.259  13.885
75553W        W47169  42.056  20.056  12.501
75554W        W47170  19.135   5.839   1.720
75555W        W47171   7.463  28.249  13.086
75556W        W47172  26.907  34.953   1.094
75557W        W47173  38.137  35.992  12.403
75558W        W47174   8.286  31.350   3.187
75559W        W47175   0.367  13.784   4.581
75560W        W47176  28.953  19.743   2.746
75561W        W47177  23.761  18.578   0.380
75562W        W47178  12.130   0.024   0.406
75563W        W47179   9.265  41.325  14.785
75564W        W47180  14.777   1.908  12.075
75565W        W47181  33.621  10.423   1.186
75566W        W47182  11.409   7.653  13.360
75567W        W47183  41.610  41.391   4.237
75568W        W47184  18.743   5.758   4.000
75569W        W47185  26.063  31.527   0.000
75570W        W47186  38.523   7.957  10.714
75571W        W47187  41.356   7.648  14.401
75572W        W47188   4.298  38.542   0.780
75573W        W47189  22.807  23.585  14.272
75574W        W47190  23.944  21.611  14.865
75575W        W47191  33.056  25.785  13.300
75576W        W47192  17.244  41.959  12.180
75577W        W47193  40.608  39.881  11.675
75578W        W47194  26.483   4.583  11.581
75579W        W47195  26.022  27.934   4.303
75580W        W47196  32.459  42.263   2.234
75581W        W47197  12.194  29.385  12.913
75582W        W47198  12.089  12.153  13.727
75583W        W47199  17.706  17.673   5.730
75584W        W47200  35.992  38.436  14.285
75585W        W47201  39.391  28.608   2.234
75586W        W47202   5.765  34.104  13.839
75587W        W47203  29.033   4.337  13.193
75588W        W47204   1.901  15.478  13.826
75589W        W47205  34.226  33.220   2.152
75590W        W47206  40.777  11.718  10.451
75591W        W47207  20.870  43.042   3.649
75592W        W47208  22.515  40.264  13.891
75593W        W47209   3.096  38.500   3.254
75594W        W47210  12.926  38.370  13.016
75595W        W47211  35.139   9.640  12.190
75596W        W47212   2.983   5.675   4.795
75597W        W47213  25.747  42.873  13.017
75598W        W47214  43.731   1.534  11.560
75599W        W47215   1.170  29.889  11.647
75600W        W47216  20.662  41.824  11.218
75601W        W47217  40.344  16.265  14.059
75602W        W47218  35.607  20.555  14.977
75603W        W47219  31.303  23.291   0.316
75604W        W47220  37.766   5.756   4.539
75605W        W47221  23.498  16.043  14.833
75606W        W47222  21.019  29.059   3.075
75607W        W47223  31.121  16.663   0.081
75608W        W47224  13.768   3.358   2.277
75609W        W47225  37.823  18.743  12.065
75610W        W47226  32.530  35.605   2.950
75611W        W47227  36.458  39.265  13.968
75612W        W47228  11.096  32.905  11.672
75613W        W47229  38.526  42.971  10.681
75614W        W47230  14.199  40.017  13.467
75615W        W47231   0.227   8.772  10.725
75616W        W47232   3.761  20.136   4.249
75617W        W47233  36.922  26.081  11.747
75618W        W47234  27.850   6.038  11.857
75619W        W47235  11.366  16.325  13.759
75620W        W47236  13.604  13.285  14.895
75621W        W47237  38.166  26.489  11.963
75622W        W47238  44.150  20.990  11.187
75623W        W47239  17.140  15.819  10.020
75624W        W47240  14.659  16.989   1.467
75625W        W47241  38.332  17.668   4.902
75626W        W47242  23.745  10.631   1.922
75627W        W47243   7.878  18.750  12.589
75628W        W47244  35.904   8.291  14.517
75629W        W47245   8.639  38.717   1.944
75630W        W47246  27.842  36.920   1.933
75631W        W47247  11.771  15.728   1.263
75632W        W47248  25.516  14.595   1.833
75633W        W47249   9.229   0.676   4.245
75634W        W47250   1.329  24.990   0.745
75635W        W47251   4.434  22.172  14.060
75636W        W47252  24.874  35.077  11.929
75637W        W47253   3.706  31.152   0.328
75638W        W47254  31.997  17.323  11.971
75639W        W47255  40.716  24.130  10.764
75640W        W47256  44.505  34.030   1.648
75641W        W47257   9.379  37.434  14.202
75642W        W47258   7.289  34.903   1.194
75643W        W47259  44.916  40.961  14.960
75644W        W47260  39.160  23.931  11.884
75645W        W47261  42.582  26.765   0.988
75646W        W47262  30.659  13.285   4.261
75647W        W47263  31.743  14.861  11.184
75648W        W47264  11.260  10.745   0.311
75649W        W47265  34.955  15.638  12.025
75650W        W47266  20.085   7.206  11.424
75651W        W47267  24.012   4.456  14.285
75652W        W47268  37.100   9.144   2.313
75653W        W47269   9.289  17.786   4.549
75654W        W47270  21.477  33.937  11.619
75655W        W47271  11.068  27.721  11.390
75656W        W47272  20.908  37.141  13.488
75657W        W47273  34.395  36.922   0.938
75658W        W47274   7.214  36.594   3.404
75659W        W47275   6.391  26.234   1.070
75660W        W47276  33.286   2.224  13.478
75661W        W47277   3.498  38.013   2.180
75662W        W47278  34.902   3.325  11.921
75663W        W47279  22.757   2.677  11.209
75664W        W47280  18.150   8.440   1.311
75665W        W47281   3.701   2.283  10.984
75666W        W47282  33.825  20.622   1.704
75667W        W47283  44.709  13.122  13.558
75668W        W47284   6.823  24.572  10.717
75669W        W47285  25.462  28.971  14.394
75670W        W47286  35.765  17.694  11.567
75671W        W47287  11.304  17.091  12.756
75672W        W47288  38.377  31.913   1.809
75673W        W47289  30.132  16.738  12.632
75674W        W47290  13.202  33.673  14.470
75675W        W47291  17.813  28.193   0.267
75676W        W47292  30.947  25.966  11.021
75677W        W47293  18.542  37.999   2.348
75678W        W47294  36.325  15.826   1.717
75679W        W47295  15.674  19.170  10.648
75680W        W47296   8.442  28.007  10.499
75681W        W47297   0.053  11.769  12.652
75682W        W47298   4.610  26.936  10.014
75683W        W47299  18.347  18.067  14.462
75684W        W47300  44.987   6.168  12.211
75685W        W47301  13.249  25.104   4.167
75686W        W47302  36.514  23.227   4.322
75687W        W47303  14.719  37.101  10.720
75688W        W47304  26.053  13.137   2.687
75689W        W47305  42.946  24.980   4.889
75690W        W47306  41.998  14.125   0.719
75691W        W47307   8.878  15.053   3.909
75692W        W47308  26.348   0.780  14.770
75693W        W47309   6.448  35.045   0.902
75694W        W47310  38.092  32.929  11.527
75695W        W47311  42.829  28.525   1.237
75696W        W47312  22.183  15.310  13.519
75697W        W47313  32.344  17.176   0.466
75698W        W47314   6.595  28.337   0.235
75699W        W47315  44.777  26.597   2.834
75700W        W47316  41.541   1.458   4.712
75701W        W47317  10.290  20.213  12.400
75702W        W47318  13.587   7.663   2.427
75703W        W47319  13.041  33.914  14.911
75704W        W47320  32.064  35.848  11.101
75705W        W47321  15.806   2.638  12.081
75706W        W47322  42.868  36.945   3.601
75707W        W47323   4.829  20.709   1.369
75708W        W47324  19.157  16.267  10.813
75709W        W47325  22.563  15.683   0.557
75710W        W47326  31.030  26.056   1.876
75711W        W47327  32.448  13.390   1.252
75712W        W47328  40.978  26.932   1.884
75713W        W47329  30.110  31.170  12.699
75714W        W47330  10.912  24.083   1.609
75715W        W47331  28.098  25.157   2.077
75716W        W47332  18.039   0.623   1.744
75717W        W47333  21.619   7.417   0.329
75718W        W47334   4.412  31.920   3.812
75719W        W47335  17.943  36.326  11.971
75720W        W47336  32.605  31.852  14.932
75721W        W47337  44.323   9.875   1.401
75722W        W47338  19.874  31.167  12.092
75723W        W47339  10.187  20.118   0.758
75724W        W47340  39.005   2.813  11.543
75725W        W47341  15.423  19.721   1.657
75726W        W47342  38.761  11.573   5.076
75727W        W47343  13.158  20.640   0.035
75728W        W47344  37.382  17.523  12.911
75729W        W47345   2.148  42.036   4.291
75730W        W47346  28.003  30.155  13.328
75731W        W47347   5.387  24.415  11.022
75732W        W47348  27.625  24.626   2.621
75733W        W47349   8.215  28.949   3.142
75734W        W47350  34.964  20.552  13.412
75735W        W47351   0.909  23.232  12.857
75736W        W47352  21.996  21.143  14.331
75737W        W47353  21.997   8.860   3.153
75738W        W47354  35.154   5.531  10.803
75739W        W47355  10.874   4.276   1.361
75740W        W47356   5.598   4.057  12.301
75741W        W47357  30.651  43.981   2.685
75742W        W47358  16.074  32.834  10.406
75743W        W47359   5.619  30.950  11.092
75744W        W47360  10.636  10.636  12.670
75745W        W47361  38.507  33.574  13.917
75746W        W47362  22.694  15.544  10.601
75747W        W47363  32.651  19.313  12.612
75748W        W47364   8.230  32.402  11.654
75749W        W47365  14.272  29.698   2.694
75750W        W47366  21.131  15.704  13.797
75751W        W47367   0.228  40.405  11.876
75752W        W47368   7.227  22.503  11.577
75753W        W47369  19.776   5.710   2.400
75754W        W47370  31.789  12.188   1.458
75755W        W47371  37.089  29.121  12.528
75756W        W47372  10.869   2.263   0.333
75757W        W47373  30.467  16.066   1.771
75758W        W47374  33.458  15.720   5.092
75759W        W47375  15.573  30.397  14.795
75760W        W47376   4.103  35.079  13.839
75761W        W47377  29.198  41.277   3.794
75762W        W47378  19.857  37.871   1.321
75763W        W47379  40.976  27.130  11.852
75764W        W47380   5.966  10.739  11.997
75765W        W47381  20.435  16.696  14.450
75766W        W47382   0.045  27.864  11.293
75767W        W47383  15.212  38.722  11.205
75768W        W47384  15.438   3.996   9.938
75769W        W47385  37.852  43.491   4.226
75770W        W47386   7.718   3.423   2.761
75771W        W47387  38.489  36.978  12.366
75772W        W47388  22.597  31.895   4.700
75773W        W47389   9.766  28.761  14.692
75774W        W47390  38.600   3.775  13.774
75775W        W47391   4.737  38.291   0.758
75776W        W47392   8.608  24.298   2.766
75777W        W47393   7.463  20.719  10.830
75778W        W47394  11.830  29.973   4.296
75779W        W47395   9.302   4.921  13.911
75780W        W47396  24.140  34.637   3.791
75781W        W47397  28.634   0.377  14.621
75782W        W47398  27.937   6.248  11.216
75783W        W47399  13.803  20.259  14.551
75784W        W47400  30.955  10.903   1.279
75785W        W47401  15.882  23.534  14.648
75786W        W47402  21.545  21.115   3.227
75787W        W47403  19.989  39.898   3.251
75788W        W47404  20.491  15.344  10.090
75789W        W47405  26.849  38.056  13.461
75790W        W47406  13.106  44.817   2.239
75791W        W47407  14.820  37.996   1.060
75792W        W47408  20.776  33.019   3.219
75793W        W47409  14.617   7.919   3.201
75794W        W47410  31.890   8.227  11.159
75795W        W47411  37.538  11.631  12.030
75796W        W47412  22.972  27.538  14.539
75797W        W47413   4.882  32.112   2.329
75798W        W47414  20.257  26.238  12.040
75799W        W47415   4.163  34.552  13.895
75800W        W47416  39.547  31.229   2.303
75801W        W47417  39.042   4.452   2.200
75802W        W47418  23.457  29.026  14.294
75803W        W47419  13.775   1.521  14.470
75804W        W47420  19.554  37.757  12.919
75805W        W47421  23.075  10.750   3.885
75806W        W47422   6.955  39.841  12.934
75807W        W47423   2.709   2.029   2.166
75808W        W47424  25.110  30.491   1.974
75809W        W47425   6.942  25.038  14.084
75810W        W47426  44.413  39.797   4.684
75811W        W47427  35.454  10.788  12.264
75812W        W47428  27.489  27.214  13.575
75813W        W47429  36.743  11.713   5.197
75814W        W47430   6.261  12.656   0.469
75815W        W47431  30.627  24.670   2.720
75816W        W47432  44.997  10.106  13.519
75817W        W47433  42.428  26.700  14.443
75818W        W47434  34.891   7.297  14.440
75819W        W47435  13.810  44.328  13.973
75820W        W47436   1.962   6.412  11.216
75821W        W47437  38.679  12.380   2.775
75822W        W47438  40.818   8.959  13.561
75823W        W47439   2.672   8.220   1.421
75824W        W47440  39.590  44.513   4.262
75825W        W47441  33.441   0.968   1.198
75826W        W47442   4.788  27.420  13.490
75827W        W47443  38.085  34.622  13.383
75828W        W47444   4.731  26.259   0.741
75829W        W47445  38.002  15.529  14.573
75830W        W47446  23.045  26.233   1.481
75831W        W47447  28.783  23.541  12.005
75832W        W47448  44.708  42.489  12.891
75833W        W47449  23.094   2.471  14.047
75834W        W47450   0.954  38.907   3.352
75835W        W47451   8.255  25.887   5.002
75836W        W47452   1.448  43.880   1.599
75837W        W47453  27.897  10.328   3.564
75838W        W47454  28.578  19.915   0.846
75839W        W47455  17.185  31.940  14.029
75840W        W47456  38.873  39.814   4.489
75841W        W47457  15.018  41.441   4.252
75842W        W47458  19.309  33.626  14.100
75843W        W47459  16.724  20.367   0.978
75844W        W47460   5.346  30.858  11.528
75845W        W47461  35.632   8.230  11.489
75846W        W47462  13.783  19.300   0.805
75847W        W47463   3.998  21.756   0.492
75848W        W47464   3.976   5.887   0.304
75849W        W47465   0.854  42.032   2.718
75850W        W47466  38.638  20.302  12.478
75851W        W47467   4.544  33.990  11.109
75852W        W47468   4.802  40.992   3.404
75853W        W47469  42.367  38.458  14.338
75854W        W47470  22.515   3.812   0.113
75855W        W47471   0.257  17.326  14.450
75856W        W47472   2.316  33.119  12.336
75857W        W47473   9.264   4.982   0.914
75858W        W47474  42.760   6.651   4.414
75859W        W47475   8.249   7.806   0.254
75860W        W47476  25.503  39.558   3.810
75861W        W47477  23.281  31.050   0.736
75862W        W47478  18.674  14.843  13.612
75863W        W47479  25.298   9.819  14.404
75864W        W47480  39.828  41.377   2.424
75865W        W47481   5.539  39.954   2.851
75866W        W47482  41.968  38.106   5.547
75867W        W47483  14.744  26.768  14.249
75868W        W47484  41.857  26.885   0.416
75869W        W47485   5.671  10.227   1.506
75870W        W47486  14.777  43.897   3.724
75871W        W47487  12.561  27.959  11.071
75872W        W47488  27.681  24.054  12.613
75873W        W47489  21.339  44.827  12.540
75874W        W47490   8.720   1.879  11.644
75875W        W47491  26.487  18.562   4.697
75876W        W47492  43.428  13.335  12.081
75877W        W47493  22.078   7.695  12.624
75878W        W47494   5.687   2.910  14.542
75879W        W47495  37.317  40.856  14.943
75880W        W47496   2.817  17.726   0.859
75881W        W47497  27.472   9.350  14.088
75882W        W47498  42.737  23.183   1.832
75883W        W47499  39.421  27.248  13.585
75884W        W47500  39.560  43.417   2.275
75885W        W47501  37.347  34.432  14.915
75886W        W47502   4.186   1.145   3.357
75887W        W47503  14.168  16.361  10.721
75888W        W47504  18.837   7.389  14.772
75889W        W47505  22.281   6.967  13.077
75890W        W47506  35.065  35.918   4.155
75891W        W47507  21.663   8.726  12.419
75892W        W47508  17.040  23.229   2.786
75893W        W47509  22.744  26.710   3.724
75894W        W47510  23.525  17.629  13.477
75895W        W47511   1.758  43.981  13.288
75896W        W47512   9.111  34.112  10.784
75897W        W47513   1.930  40.536  14.702
75898W        W47514  31.512  20.604  12.997
75899W        W47515  21.824  11.649  11.078
75900W        W47516  26.810  38.819  14.918
75901W        W47517  16.688  18.615   5.068
75902W        W47518   1.953  40.040  14.829
75903W        W47519  44.887  14.699  13.752
75904W        W47520   5.965   7.356   0.054
75905W        W47521   4.412  41.993  12.794
75906W        W47522  44.696  19.995  13.504
75907W        W47523   0.815  33.788  11.153
75908W        W47524  38.426  31.855  11.044
75909W        W47525  44.273  11.825  13.092
75910W        W47526   9.964  22.473  12.510
75911W        W47527  13.981  26.560   4.578
75912W        W47528  34.140  19.225   3.709
75913W        W47529   8.307  12.334   3.499
75914W        W47530   8.312  24.442  12.458
75915W        W47531  26.017  24.680   1.263
75916W        W47532   2.238  38.298  13.990
75917W        W47533   7.796  31.704   1.913
75918W        W47534  34.168  21.062  12.535
75919W        W47535  34.034  43.707   3.668
75920W        W47536   6.366   4.995   1.503
75921W        W47537  23.023   0.116   4.692
75922W        W47538  25.739  43.123   0.906
75923W        W47539   9.294   3.304  10.390
75924W        W47540  33.064  29.160  14.288
75925W        W47541  24.796  32.922  14.386
75926W        W47542  23.445   9.417   3.357
75927W        W47543  30.412   5.431  13.327
75928W        W47544  27.876  43.787   1.829
75929W        W47545  15.119  15.053  13.965
75930W        W47546  44.762   8.837   2.342
75931W        W47547  29.121  39.427   3.345
75932W        W47548  30.672  42.701   1.422
75933W        W47549  37.461  28.104   4.162
75934W        W47550  28.677  17.618  12.556
75935W        W47551   8.464  34.499  11.960
75936W        W47552  20.985  18.450  14.056
75937W        W47553   3.347   6.571  12.094
75938W        W47554  19.163  41.063   0.803
75939W        W47555   8.449  25.934  12.568
75940W        W47556  22.118  42.661  13.347
75941W        W47557  21.999  42.676   1.773
75942W        W47558   8.620  22.483   3.218
75943W        W47559  25.090  34.006  13.563
75944W        W47560  44.950   1.759   3.247
75945W        W47561  42.063   8.209  13.275
75946W        W47562  43.225  18.465  12.405
75947W        W47563   8.777  44.081   4.637
75948W        W47564  33.471  42.768  13.045
75949W        W47565  38.339  30.460  11.462
75950W        W47566  42.609  39.864   0.880
75951W        W47567   2.791  17.187   2.732
75952W        W47568   0.000  43.072  14.255
75953W        W47569  12.323  20.983  11.070
75954W        W47570  33.013  39.542  14.018
75955W        W47571  13.393  24.413   3.238
75956W        W47572  15.284   4.912   3.678
75957W        W47573  40.521  18.076   4.049
75958W        W47574  13.784  27.932  11.520
75959W        W47575  16.545   8.320   4.283
75960W        W47576  21.658  14.087  14.880
75961W        W47577  39.964   9.730   3.146
75962W        W47578  38.527  17.132   1.724
75963W        W47579  15.514  39.338  12.865
75964W        W47580  18.035   7.588   4.721
75965W        W47581  25.083  21.733  12.520
75966W        W47582  37.317  39.082   0.335
75967W        W47583  40.063  44.247  14.261
75968W        W47584  41.450   6.856   1.773
75969W        W47585   7.264  12.910   4.075
75970W        W47586   0.072  26.876  14.911
75971W        W47587  37.374  30.799  13.492
75972W        W47588  16.054   6.341  11.161
75973W        W47589  11.656  10.897  13.457
75974W        W47590  16.203  39.834  11.531
75975W        W47591  40.242  18.745   1.366
75976W        W47592   3.418  25.660   4.131
75977W        W47593  23.005  22.231   2.589
75978W        W47594  13.760  17.266   9.816
75979W        W47595   5.922  25.693   3.425
75980W        W47596  41.963  15.268  14.714
75981W        W47597  19.612   4.912  13.449
75982W        W47598  44.156  13.406   0.932
75983W        W47599  31.011  30.152  11.742
75984W        W47600  41.045  36.094  12.977
75985W        W47601  30.496   5.334   4.568
75986W        W47602  36.829  42.870   4.811
75987W        W47603  37.401  24.550   0.470
75988W        W47604  43.895   9.587   1.320
75989W        W47605  15.286  44.892   0.008
75990W        W47606  23.799  13.415   0.434
75991W        W47607   0.212  44.024   3.586
75992W        W47608   0.902  31.886  11.252
75993W        W47609  41.742   2.137  11.245
75994W        W47610   5.431  34.638   2.928
75995W        W47611   4.528   3.361  14.868
75996W        W47612  43.810   8.818  12.463
75997W        W47613  36.802   7.252   4.649
75998W        W47614  22.686   8.937  14.236
75999W        W47615  21.152  16.190  11.448
76000W        W47616   8.925   5.450   1.318
76001W        W47617  41.757   4.688  11.218
76002W        W47618  22.719  15.364   0.923
76003W        W47619  32.361  39.125   1.340
76004W        W47620  10.367  18.983   2.044
76005W        W47621  27.360  17.637   0.321
76006W        W47622   8.205   1.538  13.990
76007W        W47623   2.758  29.220  13.027
76008W        W47624  15.047   2.059  11.100
76009W        W47625  24.761  41.166   1.840
76010W        W47626  12.871  13.267  14.313
76011W        W47627   1.223   5.461  12.939
76012W        W47628  13.663  17.755  12.930
76013W        W47629  39.334  38.350  12.776
76014W        W47630  22.825  16.615   2.700
76015W        W47631  26.419  37.414  13.027
76016W        W47632  42.859  41.607   3.674
76017W        W47633  26.966  39.909   2.408
76018W        W47634   5.312  28.185  13.544
76019W        W47635  31.610  29.969  13.096
76020W        W47636   1.731  11.148  12.055
76021W        W47637  14.806  18.572  12.132
76022W        W47638  32.877  16.702  11.985
76023W        W47639  32.485  19.284   4.276
76024W        W47640  44.591  43.461   3.744
76025W        W47641   4.854  23.398   2.181
76026W        W47642  25.234  30.528  13.361
76027W        W47643  43.267  30.844   0.720
76028W        W47644   6.625  31.114  11.164
76029W        W47645   4.222  26.654   0.410
76030W        W47646  10.070  29.446   0.344
76031W        W47647  32.859   0.184  12.597
76032W        W47648  12.921   6.192  11.864
76033W        W47649  32.703  16.232   2.054
76034W        W47650  21.552  21.046   2.302
76035W        W47651   5.830  15.033  11.547
76036W        W47652  19.386  16.736   2.726
76037W        W47653  16.793  12.175  14.882
76038W        W47654  33.457  34.508  11.790
76039W        W47655  41.221  40.406   1.317
76040W        W47656   0.709  21.109   9.548
76041W        W47657  29.357  13.393  11.568
76042W        W47658  25.171  39.457   1.374
76043W        W47659  10.075  25.612   3.707
76044W        W47660   6.158  34.088   4.917
76045W        W47661  20.162   9.849   3.693
76046W        W47662   7.883  36.539   4.028
76047W        W47663   2.774  24.012  13.393
76048W        W47664   3.262  23.066  14.319
76049W        W47665  14.344  17.562  13.404
76050W        W47666  39.929   0.947  12.147
76051W        W47667   5.392  23.311   0.736
76052W        W47668  24.757  16.313  12.506
76053W        W47669  12.986  14.545   0.367
76054W        W47670  29.533  15.135  11.203
76055W        W47671  31.625  23.540   4.687
76056W        W47672  18.361  44.465   4.110
76057W        W47673  15.460   4.776  12.482
76058W        W47674  13.286   7.299  14.277
76059W        W47675  10.143   1.732  14.919
76060W        W47676  43.312  30.592   2.178
76061W        W47677   2.419   2.986  13.521
76062W        W47678   0.892   0.587   1.883
76063W        W47679  31.984   0.995   2.351
76064W        W47680  37.543  23.826  10.479
76065W        W47681  34.469  35.022   4.091
76066W        W47682  18.622  26.417  12.439
76067W        W47683   1.411  44.022   3.097
76068W        W47684   7.207  39.962   0.849
76069W        W47685   9.372  31.022  14.477
76070W        W47686  14.575   8.388  11.599
76071W        W47687   2.967  14.806   0.461
76072W        W47688   6.659   8.317   0.348
76073W        W47689  31.467  41.924  10.663
76074W        W47690   4.406  41.438   0.448
76075W        W47691  44.244  39.377  10.280
76076W        W47692   1.890  43.704   4.296
76077W        W47693  33.422  26.195  12.635
76078W        W47694  17.667  29.932   4.525
76079W        W47695  23.606   4.747   2.700
76080W        W47696   4.420  36.355   3.288
76081W        W47697  11.603  12.866  13.476
76082W        W47698  37.338  34.180  11.130
76083W        W47699  23.666  17.480  14.448
76084W        W47700  16.633  33.907  11.199
76085W        W47701  43.277   3.297   3.018
76086W        W47702  41.293  31.023  10.694
76087W        W47703  10.064  42.925  12.404
76088W        W47704  21.513  27.230   4.133
76089W        W47705  23.483  44.954  11.288
76090W        W47706  37.824  23.419   1.419
76091W        W47707  20.625   0.760   1.820
76092W        W47708  25.010   1.494  10.486
76093W        W47709  38.974   4.319   1.706
76094W        W47710   1.046   3.980   0.918
76095W        W47711  22.449  43.314   1.936
76096W        W47712   0.096  23.188  14.386
76097W        W47713  22.487   3.428   0.804
76098W        W47714  32.539  29.331   1.269
76099W        W47715  40.456   9.287  10.754
76100W        W47716  12.234  23.623   2.313
76101W        W47717   3.488  20.060   2.996
76102W        W47718  22.718  39.472   4.106
76103W        W47719  29.665  35.591   2.367
76104W        W47720   1.836   4.836  12.860
76105W        W47721   8.057  35.097  12.576
76106W        W47722  22.713  18.299  10.953
76107W        W47723  22.651  41.547   2.344
76108W        W47724   5.471  23.610  12.996
76109W        W47725   6.297  21.817  13.986
76110W        W47726   3.017  44.873  11.576
76111W        W47727  21.045  10.419   5.061
76112W        W47728  22.566  34.497  10.466
76113W        W47729   5.544   1.888  10.765
76114W        W47730  11.558   5.878   3.559
76115W        W47731  38.205  31.778  13.930
76116W        W47732   2.367  25.251   1.832
76117W        W47733  25.986  37.286   4.754
76118W        W47734  23.682  38.538   3.648
76119W        W47735  37.125  39.905   3.558
76120W        W47736   0.199  16.282  11.081
76121W        W47737   8.472  12.377  13.940
76122W        W47738  31.046  22.034   2.605
76123W        W47739  27.684  37.228  12.526
76124W        W47740  27.161  35.058  12.383
76125W        W47741   8.182  43.965  13.561
76126W        W47742  25.622  19.363   2.878
76127W        W47743  17.518  24.141  12.469
76128W        W47744   9.480  27.499   3.214
76129W        W47745   6.030  26.793  10.449
76130W        W47746  22.040  40.471   0.815
76131W        W47747   2.860  40.354  13.380
76132W        W47748  26.654  19.141  13.561
76133W        W47749   4.755   0.865  11.106
76134W        W47750   2.954  27.722  12.110
76135W        W47751  21.056  22.431   0.365
76136W        W47752  25.997  34.657  11.491
76137W        W47753  39.507  23.831   0.451
76138W        W47754  26.591   9.336   4.835
76139W        W47755  27.702  36.342   3.249
76140W        W47756  38.030   2.173  11.066
76141W        W47757  36.886   4.501  14.759
76142W        W47758  43.055  32.117   0.613
76143W        W47759  14.805   9.287  13.888
76144W        W47760  34.402  31.429   3.196
76145W        W47761  10.626   3.243   0.522
76146W        W47762  25.735  40.851  10.672
76147W        W47763  11.840  29.142   3.098
76148W        W47764  32.443  27.989  10.055
76149W        W47765  22.957  14.318   4.198
76150W        W47766  32.525  34.988   1.420
76151W        W47767  37.532  29.171  13.935
76152W        W47768  17.528  24.646  12.142
76153W        W47769  32.069  11.859  12.239
76154W        W47770  23.751  42.838  12.019
76155W        W47771  14.619   4.780   4.170
76156W        W47772  25.314   8.200  13.101
76157W        W47773   3.922  37.789   3.605
76158W        W47774  20.954  20.173   2.322
76159W        W47775  36.892  42.571  14.791
76160W        W47776  41.456  27.146  10.691
76161W        W47777  19.987  41.951  13.386
76162W        W47778  10.354  10.957   1.294
76163W        W47779  15.807  21.157  13.455
76164W        W47780  22.163  41.955  10.821
76165W        W47781  31.540  19.647  12.974
76166W        W47782  25.329  41.209   2.376
76167W        W47783  31.680  34.419  11.534
76168W        W47784   7.499  27.272  13.940
76169W        W47785  27.642  39.346  12.611
76170W        W47786  36.780  20.524  12.981
76171W        W47787  35.944  17.008  12.588
76172W        W47788  23.485  43.050  12.409
76173W        W47789  41.706  30.868  10.358
76174W        W47790  19.070  22.007   4.091
76175W        W47791   7.279  13.163  13.057
76176W        W47792  19.273  23.050   0.087
76177W        W47793  44.574   7.702  14.327
76178W        W47794  21.792   3.693   0.926
76179W        W47795  37.930  20.197   0.723
76180W        W47796  42.262  44.294   3.268
76181W        W47797  43.279  13.576  14.796
76182W        W47798  38.284  30.879  11.174
76183W        W47799   0.667  14.819   0.863
76184W        W47800   0.618  40.247  13.952
76185W        W47801  19.236  42.696   3.688
76186W        W47802  19.196  23.920   1.445
76187W        W47803  40.079  14.710   0.408
76188W        W47804  10.146  13.568   3.179
76189W        W47805   6.062  39.446  11.752
76190W        W47806   6.333   7.813   3.347
76191W        W47807  30.105   9.633  12.825
76192W        W47808  14.210   1.034  13.953
76193W        W47809  42.222   2.524   1.419
76194W        W47810  35.294  33.659   3.669
76195W        W47811   9.043  31.404  14.566
76196W        W47812  21.970   8.269  14.507
76197W        W47813  42.471   0.267  14.563
76198W        W47814  33.967   0.451  12.438
76199W        W47815  12.065  13.252  11.977
76200W        W47816   0.998   0.436  11.238
76201W        W47817  38.762  16.243  11.485
76202W        W47818   9.997  41.849  12.529
76203W        W47819  16.650  10.691  10.919
76204W        W47820  44.687  27.226   4.176
76205W        W47821   3.468  34.031   3.231
76206W        W47822  29.057  11.386  10.908
76207W        W47823  15.600  12.415  13.082
76208W        W47824  19.006  33.010   3.786
76209W        W47825  41.442  11.245   2.028
76210W        W47826  11.359  42.838  12.498
76211W        W47827  29.717   4.641   1.897
76212W        W47828  10.426  12.593  13.084
76213W        W47829  31.375  38.423  13.566
76214W        W47830  14.787  40.745   3.832
76215W        W47831  19.119  32.124  14.194
76216W        W47832  27.959  13.551  14.381
76217W        W47833  33.148  23.333  13.066
76218W        W47834   4.185  39.425   3.549
76219W        W47835  39.640  20.699   0.530
76220W        W47836  44.100  43.291   3.737
76221W        W47837  11.548  25.710  14.383
76222W        W47838  15.344   6.311  14.469
76223W        W47839   1.178  42.232  14.349
76224W        W47840  10.313  33.148   2.780
76225W        W47841  25.211   0.433   1.187
76226W        W47842  23.157  39.856  10.630
76227W        W47843  37.454  42.055  13.336
76228W        W47844  14.244  18.835  12.454
76229W        W47845  41.269  43.363   0.227
76230W        W47846   6.335  13.811  10.553
76231W        W47847   9.397  39.677  13.808
76232W        W47848  24.944  31.671   4.551
76233W        W47849   3.915   5.881  14.773
76234W        W47850   5.107  34.859  14.992
76235W        W47851   4.874  20.863   0.895
76236W        W47852  16.754   2.018   4.014
76237W        W47853  44.270  35.631  10.596
76238W        W47854   1.130   2.682   1.033
76239W        W47855  39.016  35.172   0.444
76240W        W47856   9.388  40.020   2.863
76241W        W47857  37.471  10.881  10.648
76242W        W47858  22.310  41.032  14.150
76243W        W47859  33.378  14.232   9.742
76244W        W47860  41.073  35.461  12.007
76245W        W47861  16.775  15.966  11.029
76246W        W47862   7.769  25.167   0.409
76247W        W47863  12.870  16.265  14.115
76248W        W47864  27.235  17.127  11.603
76249W        W47865  43.360  24.387  14.554
76250W        W47866  15.181  43.832   0.852
76251W        W47867  27.619  24.550   4.100
76252W        W47868  30.322   3.997   3.680
76253W        W47869   9.797  12.410   4.866
76254W        W47870   0.798   4.438  14.839
76255W        W47871  10.351  21.572  12.169
76256W        W47872   2.881  40.250  12.429
76257W        W47873  20.708   3.866   2.289
76258W        W47874  37.126  13.495   5.351
76259W        W47875  19.761   1.453  13.501
76260W        W47876  13.171  29.116  13.774
76261W        W47877  44.900  19.187   4.807
76262W        W47878  16.180  39.727  14.271
76263W        W47879   0.741  15.546  11.638
76264W        W47880   7.426   0.371  11.497
76265W        W47881  25.178  22.542   2.687
76266W        W47882  14.277  13.713   1.753
76267W        W47883   0.909  24.535  13.987
76268W        W47884   4.691  33.580  10.716
76269W        W47885  16.950  22.062   1.697
76270W        W47886   1.938  18.118  13.590
76271W        W47887  15.331  41.675  12.753
76272W        W47888  32.581  29.175  10.664
76273W        W47889  36.777   3.676  12.976
76274W        W47890  22.959  12.149   3.065
76275W        W47891  35.890  21.289   0.970
76276W        W47892  20.531  41.376   0.957
76277W        W47893   1.986  32.544  10.692
76278W        W47894   7.838  18.925  13.590
76279W        W47895  30.872  44.865   0.430
76280W        W47896  22.249   2.200   1.836
76281W        W47897  35.039  20.172   4.808
76282W        W47898   0.365   7.346   3.612
76283W        W47899  32.187  40.883  13.406
76284W        W47900   7.865   5.463   1.777
76285W        W47901  12.384   7.248   1.836
76286W        W47902  43.945  39.365  14.482
76287W        W47903  43.186  15.721  12.513
76288W        W47904  43.827  19.211   3.810
76289W        W47905  37.500   4.761   4.613
76290W        W47906  11.071  29.807  11.058
76291W        W47907  24.666  12.628   1.905
76292W        W47908  23.451   4.661   0.158
76293W        W47909  10.795  34.175  11.933
76294W        W47910  41.456   6.495   2.872
76295W        W47911   6.464  14.820  13.005
76296W        W47912  36.825  31.901   0.247
76297W        W47913  26.870  43.505  14.563
76298W        W47914  18.792  27.095   2.308
76299W        W47915  38.975  40.021   4.017
76300W        W47916   0.717   1.750  12.288
76301W        W47917  10.762  43.415   2.310
76302W        W47918  28.988  26.282  13.195
76303W        W47919  15.280   8.039  11.084
76304W        W47920   6.440  19.167  14.971
76305W        W47921  19.011  16.219  14.344
76306W        W47922  42.944   0.026  13.900
76307W        W47923  44.539  33.079   0.285
76308W        W47924  23.615  20.119  11.055
76309W        W47925  35.850  32.548  11.105
76310W        W47926   9.881  16.724  10.718
76311W        W47927   9.224  22.246   3.265
76312W        W47928  42.732  36.183  11.159
76313W        W47929  11.393  22.436   1.771
76314W        W47930  14.333  25.621   3.089
76315W        W47931  37.721  18.939  14.525
76316W        W47932   6.106  42.241   5.153
76317W        W47933  26.706  30.020  13.953
76318W        W47934   3.862  23.422  14.561
76319W        W47935  40.462   7.624  11.238
76320W        W47936  17.600   0.902   4.162
76321W        W47937  39.880  18.769  12.164
76322W        W47938  24.125   4.548  10.796
76323W        W47939  14.663   0.722  11.068
76324W        W47940  38.410  40.015   0.392
76325W        W47941   9.012  29.428   4.841
76326W        W47942  24.222  19.252   0.857
76327W        W47943  29.901  11.098  11.483
76328W        W47944  11.190  33.612  12.865
76329W        W47945   8.821  17.450   1.794
76330W        W47946  37.016  41.803   0.316
76331W        W47947   5.695   9.915  13.591
76332W        W47948  17.278  29.599   4.530
76333W        W47949  28.126   8.260   2.743
76334W        W47950  35.163  17.073  14.496
76335W        W47951  34.673   5.339  11.020
76336W        W47952  26.070  33.154  11.561
76337W        W47953  21.157  29.708   0.388
76338W        W47954   0.495  33.536   2.395
76339W        W47955  35.646  13.204   2.598
76340W        W47956  26.799   2.448   2.878
76341W        W47957  21.054  38.349  12.702
76342W        W47958  24.640  33.130  10.675
76343W        W47959  27.244   7.143   1.795
76344W        W47960   4.194  38.997  11.482
76345W        W47961  42.823   0.814   4.154
76346W        W47962  23.507  22.928  12.020
76347W        W47963  36.073  28.024  12.811
76348W        W47964  43.546  20.579  14.763
76349W        W47965   3.421  29.556   4.200
76350W        W47966  16.851  41.098  11.156
76351W        W47967  17.136  19.686  14.713
76352W        W47968  23.005  25.171   0.158
76353W        W47969  15.071  35.408  12.069
76354W        W47970  25.666  10.847  11.568
76355W        W47971  10.700   1.456  13.412
76356W        W47972  15.414  27.028  14.962
76357W        W47973   0.650   1.688   1.414
76358W        W47974  26.138   3.901  10.784
76359W        W47975   3.883   3.918  10.761
76360W        W47976  22.570  33.113  13.313
76361W        W47977  14.360  31.504   3.264
76362W        W47978  41.769   9.818  11.925
76363W        W47979  19.205  18.100  12.084
76364W        W47980   1.340   1.810   2.345
76365W        W47981   3.707   7.133   3.213
76366W        W47982  16.138   6.726   4.184
76367W        W47983  19.056  31.560   1.419
76368W        W47984  41.237   9.638   4.799
76369W        W47985  35.437  34.063   1.420
76370W        W47986  13.730  24.547   1.000
76371W        W47987  39.472  18.996  13.283
76372W        W47988  31.135  37.360  12.606
76373W        W47989  22.554  44.936  14.661
76374W        W47990  38.067  24.441  10.612
76375W        W47991  11.111  12.098   3.130
76376W        W47992  27.059  30.268   3.847
76377W        W47993   3.738  11.794   4.766
76378W        W47994  36.626  30.289  11.642
76379W        W47995  32.769  32.658  13.638
76380W        W47996  32.514   6.027   1.904
76381W        W47997  41.042  29.506   1.735
76382W        W47998  35.610  19.120   2.568
76383W        W47999  43.463   3.506  12.097
76384W        W48000  15.865  24.837  11.554
76385W        W48001  24.723  11.746  11.221
76386W        W48002  44.752  41.752  14.349
76387W        W48003  15.531  44.424  10.542
76388W        W48004  38.597  37.279  13.382
76389W        W48005  39.788  31.773   0.281
76390W        W48006  20.266  34.449  14.750
76391W        W48007  39.901  30.255   1.322
76392W        W48008  11.738  32.666   1.764
76393W        W48009  12.220  17.769   2.854
76394W        W48010  34.451  10.816   2.380
76395W        W48011   5.240   9.662   3.322
76396W        W48012  34.349  42.883   4.042
76397W        W48013   2.315  13.069   2.680
76398W        W48014   1.368  23.160   3.796
76399W        W48015  42.048   1.027   3.505
76400W        W48016  29.725  36.941  14.370
76401W        W48017  10.606  14.875   0.362
76402W        W48018  42.870  12.482  13.354
76403W        W48019  44.460  18.029   1.037
76404W        W48020  44.463  18.494  13.441
76405W        W48021  33.203  13.128   2.906
76406W        W48022  37.423  38.800   1.195
76407W        W48023   1.444  35.322  13.914
76408W        W48024  19.462  20.080   0.710
76409W        W48025   0.958  25.281   2.444
76410W        W48026   2.872  35.589  11.109
76411W        W48027  37.135   3.023  11.927
76412W        W48028  27.492  21.566  13.730
76413W        W48029  43.393   8.767   0.987
76414W        W48030  10.354  12.921   0.760
76415W        W48031  42.477  43.940  11.683
76416W        W48032  34.221  44.889  14.928
76417W        W48033  32.994  19.468   0.902
76418W        W48034  39.814  10.398  13.054
76419W        W48035  24.932  11.763  12.479
76420W        W48036   6.878   3.261  11.209
76421W        W48037  12.333   7.937  11.186
76422W        W48038  41.634  29.605  11.104
76423W        W48039  25.297  22.282  11.012
76424W        W48040  17.633  26.919  11.127
76425W        W48041  36.398   6.978   4.502
76426W        W48042  34.422  15.173  10.907
76427W        W48043  35.314  27.953   1.355
76428W        W48044  36.948  35.102  11.173
76429W        W48045  44.615  39.524   2.782
76430W        W48046  17.103   9.883  10.730
76431W        W48047  12.571  24.861  14.642
76432W        W48048  23.525   6.236  11.121
76433W        W48049  14.810  17.587  12.557
76434W        W48050  20.196  19.026  12.118
76435W        W48051  14.378  30.320   1.942
76436W        W48052  14.064  39.935  10.748
76437W        W48053  15.288  25.424  12.472
76438W        W48054  30.195  11.804   1.422
76439W        W48055  29.447  17.119  11.657
76440W        W48056  28.337  15.075  10.336
76441W        W48057  21.706  36.498  11.935
76442W        W48058  15.799   6.856   3.224
76443W        W48059  40.350  33.176  11.897
76444W        W48060   4.329   0.149  13.111
76445W        W48061  20.687   4.238  12.966
76446W        W48062   2.235  17.629   3.287
76447W        W48063  27.603  32.125   1.782
76448W        W48064  38.877   5.953   2.248
76449W        W48065  41.342   0.275   1.398
76450W        W48066  44.798  10.775  12.208
76451W        W48067  11.316   4.383  12.900
76452W        W48068  43.223  40.662   1.222
76453W        W48069  43.515  23.544  14.862
76454W        W48070  42.110   9.898  10.601
76455W        W48071   5.156  32.622   0.237
76456W        W48072  18.468  12.317   0.502
76457W        W48073   8.305   8.292  12.609
76458W        W48074  37.399   3.764   1.273
76459W        W48075  37.929   0.703  11.154
76460W        W48076  18.651   5.726  14.419
76461W        W48077  38.567  10.636  11.598
76462W        W48078   2.658  41.362   0.635
76463W        W48079  25.974   0.405   3.906
76464W        W48080  17.004  28.706   1.587
76465W        W48081   5.850  29.683  11.669
76466W        W48082  36.839  11.214  11.628
76467W        W48083  43.424  19.734  10.627
76468W        W48084  11.030   8.399   4.150
76469W        W48085   1.248  27.237   0.298
76470W        W48086  33.525  37.975  14.932
76471W        W48087  44.485  36.270   3.774
76472W        W48088  22.251  32.191  14.287
76473W        W48089  19.358  37.993   1.403
76474W        W48090  42.332  40.993  13.107
76475W        W48091   7.324  42.280  12.919
76476W        W48092   1.383  19.788  13.686
76477W        W48093   8.564   5.451   0.923
76478W        W48094  14.891  28.626   3.934
76479W        W48095   5.527  39.722  14.876
76480W        W48096  33.048  33.635  11.105
76481W        W48097   5.624  34.587   3.400
76482W        W48098  13.340  40.653  12.476
76483W        W48099  37.152  28.533   0.801
76484W        W48100  17.228  42.967   2.947
76485W        W48101  18.602  20.853   0.927
76486W        W48102  14.332  23.847   2.402
76487W        W48103   3.748  27.921  14.537
76488W        W48104  19.575   6.291   2.361
76489W        W48105  44.468   7.371   0.632
76490W        W48106  20.238   9.498   0.116
76491W        W48107  10.346   6.996  13.806
76492W        W48108  14.547  38.464  11.990
76493W        W48109  32.147  29.499   5.579
76494W        W48110  19.586   5.703  11.102
76495W        W48111  21.135  33.531   5.144
76496W        W48112  23.664  23.336   3.191
76497W        W48113  18.588  31.976  12.582
76498W        W48114  29.538  11.598   2.258
76499W        W48115  39.897  22.678  14.414
76500W        W48116   3.465  30.771  13.482
76501W        W48117   6.320   2.296   1.667
76502W        W48118   9.229  41.543   3.699
76503W        W48119  42.773  24.553   4.546
76504W        W48120  29.241  44.069   4.163
76505W        W48121  12.656  31.612  13.848
76506W        W48122  27.212  21.304   2.467
76507W        W48123  23.655  32.654  11.069
76508W        W48124   2.692  19.618  12.457
76509W        W48125   7.684   5.278  13.549
76510W        W48126   8.311  16.634   3.920
76511W        W48127  32.887  39.771  10.636
76512W        W48128  34.465  40.858  13.791
76513W        W48129  39.758   3.748  10.820
76514W        W48130  29.093  17.431   3.997
76515W        W48131  18.692  33.022  13.061
76516W        W48132   6.776  21.290   4.779
76517W        W48133  24.830   3.912  13.529
76518W        W48134  12.360  21.036  12.465
76519W        W48135  24.410  38.798   0.125
76520W        W48136  16.986   0.347   3.827
76521W        W48137  24.109  24.514  12.875
76522W        W48138   7.169   7.884  11.094
76523W        W48139  39.243  28.486   2.732
76524W        W48140  16.772  25.199   1.864
76525W        W48141   9.239  28.620   2.422
76526W        W48142  34.140  18.526  14.145
76527W        W48143  28.709  17.128   1.643
76528W        W48144  31.112   4.270   1.009
76529W        W48145  25.743  16.232   1.929
76530W        W48146  24.642  23.262  14.464
76531W        W48147  35.100   3.824  11.882
76532W        W48148  33.004  16.036   0.147
76533W        W48149  43.381  27.005   3.939
76534W        W48150  16.665  19.278   3.427
76535W        W48151  28.681  29.740  12.918
76536W        W48152  19.011   6.323  11.616
76537W        W48153  32.015  36.187  10.711
76538W        W48154   6.000  10.406   3.899
76539W        W48155  42.749  37.814  11.970
76540W        W48156  37.686  30.553  13.836
76541W        W48157   5.335   1.303  13.414
76542W        W48158  16.750  33.393   3.069
76543W        W48159  36.212  30.497   0.301
76544W        W48160  42.894  35.638   1.879
76545W        W48161   7.531   7.395   0.908
76546W        W48162  23.655  38.068  13.436
76547W        W48163   7.833  36.882  12.475
76548W        W48164  27.476  38.879  13.324
76549W        W48165  30.422   4.267  10.475
76550W        W48166  18.090  30.033  10.652
76551W        W48167  39.915   1.256   4.730
76552W        W48168  22.461  15.153  14.342
76553W        W48169  30.957  41.523  11.755
76554W        W48170  23.148  42.317   2.220
76555W        W48171  21.135  18.801   2.926
76556W        W48172  41.358  36.972   4.915
76557W        W48173  38.188  35.653  11.052
76558W        W48174  16.154  19.245  14.723
76559W        W48175   5.358  38.013   2.453
76560W        W48176  38.270   0.236   0.770
76561W        W48177  26.814  23.106  14.070
76562W        W48178   9.920   7.447   1.850
76563W        W48179   4.255  12.514   0.850
76564W        W48180  15.757   5.977   3.272
76565W        W48181  19.296  36.375   0.773
76566W        W48182  20.152  15.338  14.560
76567W        W48183   8.192  19.648  12.092
76568W        W48184  19.736  43.615   3.731
76569W        W48185  16.789  11.098   2.641
76570W        W48186  31.997  40.180  10.930
76571W        W48187  42.435  32.362  13.084
76572W        W48188   9.268  33.162   4.601
76573W        W48189  28.879  21.725  13.848
76574W        W48190  27.480  12.556   4.944
76575W        W48191  13.995  20.941  11.949
76576W        W48192  22.550  29.002   4.513
76577W        W48193  31.982  14.614   4.547
76578W        W48194  41.288  16.130   0.806
76579W        W48195  34.868  14.268  14.901
76580W        W48196  30.711  27.085  10.149
76581W        W48197   1.372  30.996   3.721
76582W        W48198  19.863   3.965  11.083
76583W        W48199  26.382  44.217   1.718
76584W        W48200  16.056  31.385   0.244
76585W        W48201  38.321  31.477   0.934
76586W        W48202  28.668  11.120  11.993
76587W        W48203   0.322  21.766  10.496
76588W        W48204  37.502  44.098   0.699
76589W        W48205  32.511  39.560   4.784
76590W        W48206  15.327  16.610   1.306
76591W        W48207  26.140  17.048  14.564
76592W        W48208  38.959  24.785   2.796
76593W        W48209  15.381   3.876   5.044
76594W        W48210   6.983  17.752   3.249
76595W        W48211   8.841   5.174   1.750
76596W        W48212  40.712  41.545  12.439
76597W        W48213  42.443  13.812   0.825
76598W        W48214  20.136  24.807  10.805
76599W        W48215  24.133  26.552   4.094
76600W        W48216  36.852  22.256  11.579
76601W        W48217  19.511  36.439  10.883
76602W        W48218  29.297   2.414  14.537
76603W        W48219  20.713  25.255   3.544
76604W        W48220  21.821  18.537  13.019
76605W        W48221   7.966  22.678  12.636
76606W        W48222  25.026   5.408   3.083
76607W        W48223   6.273  30.177  10.512
76608W        W48224   9.254   8.855   0.409
76609W        W48225   3.178  19.642  13.979
76610W        W48226   7.951  43.329   4.561
76611W        W48227   0.459  35.391  11.440
76612W        W48228  43.414   5.808  11.560
76613W        W48229  10.992   1.489   2.278
76614W        W48230  34.313   6.308  11.183
76615W        W48231   5.934  29.612   2.519
76616W        W48232  13.956  11.836   3.204
76617W        W48233  41.374   9.911  12.837
76618W        W48234  12.798  31.242   4.203
76619W        W48235  10.829  41.010  14.752
76620W        W48236  24.718   7.378   0.704
76621W        W48237  29.519  28.591   2.159
76622W        W48238  33.919  44.300   3.982
76623W        W48239  40.809   1.798  14.884
76624W        W48240  21.089  43.962   3.601
76625W        W48241   2.567  29.219   0.195
76626W        W48242  28.758   0.514  11.133
76627W        W48243  15.028   5.987  11.571
76628W        W48244   2.927   9.900   1.726
76629W        W48245  18.304  35.106  12.516
76630W        W48246  43.040   2.866   4.175
76631W        W48247  21.985  14.884  13.309
76632W        W48248   7.143   4.869  10.734
76633W        W48249  31.448  16.532   0.451
76634W        W48250  27.535  43.448   4.506
76635W        W48251   7.754  20.600   2.865
76636W        W48252  15.455  29.774  11.525
76637W        W48253   6.170  26.740   1.179
76638W        W48254  43.550  12.606  11.105
76639W        W48255  24.602  24.452   1.824
76640W        W48256  11.313  36.412   3.181
76641W        W48257  10.119  21.581  10.162
76642W        W48258  41.232  23.280  14.453
76643W        W48259  38.315  21.473   1.847
76644W        W48260  29.715  42.057  11.449
76645W        W48261  33.005  20.297  11.600
76646W        W48262   9.759  17.733   2.243
76647W        W48263  40.479  11.296  10.441
76648W        W48264  37.106  18.803  14.661
76649W        W48265  41.772  24.200  11.926
76650W        W48266   6.339  20.152   2.445
76651W        W48267  43.003   2.342   4.077
76652W        W48268  18.402  33.922   1.030
76653W        W48269   7.834  20.974   3.212
76654W        W48270  10.370   8.794   3.672
76655W        W48271   1.768  44.959  12.391
76656W        W48272  41.273  33.286  14.089
76657W        W48273   1.359  32.437   3.303
76658W        W48274  40.537  40.269   2.902
76659W        W48275  35.161  13.255   2.834
76660W        W48276  42.231  32.531  13.559
76661W        W48277   2.739  26.705  14.785
76662W        W48278  28.609   9.235  12.008
76663W        W48279  28.213  25.088  12.870
76664W        W48280  36.563  14.790  10.861
76665W        W48281   8.611   9.259  11.440
76666W        W48282  35.107  19.081   2.716
76667W        W48283  13.340  20.160   2.966
76668W        W48284   0.942  38.925  13.019
76669W        W48285   6.350  23.820   1.384
76670W        W48286  35.754  43.379   4.199
76671W        W48287   7.334  33.472  11.610
76672W        W48288   8.675  27.947  14.172
76673W        W48289   5.681  18.318   3.202
76674W        W48290  20.975  22.934  12.889
76675W        W48291  30.759   0.184   3.149
76676W        W48292   0.713  21.738   4.102
76677W        W48293  21.538  11.444  13.839
76678W        W48294  17.614  41.398  12.965
76679W        W48295  40.311  32.746  14.339
76680W        W48296   1.557  15.100  12.055
76681W        W48297  21.535  27.589  13.427
76682W        W48298   1.900  42.364  12.185
76683W        W48299  42.336  19.504  13.106
76684W        W48300  16.625  11.906   3.925
76685W        W48301  12.398  14.485   2.281
76686W        W48302  37.342   1.046  14.841
76687W        W48303  40.111  33.623   1.538
76688W        W48304  35.033  40.508  12.091
76689W        W48305  33.790  34.019  14.028
76690W        W48306  18.292  36.505   2.735
76691W        W48307  38.825  33.993   4.693
76692W        W48308  22.642  42.284   2.871
76693W        W48309  22.189  33.658  12.132
76694W        W48310   6.280  30.949   0.952
76695W        W48311  19.897   7.860   0.328
76696W        W48312   9.266  33.633  10.692
76697W        W48313   2.273  14.317   4.678
76698W        W48314  14.433  12.820  14.956
76699W        W48315  12.765  38.746   3.591
76700W        W48316  38.464   9.382  10.723
76701W        W48317  27.008   2.558  12.470
76702W        W48318  25.037  39.549  12.009
76703W        W48319  22.343  37.129  12.091
76704W        W48320  15.243  44.060  11.121
76705W        W48321  11.654  21.259   4.606
76706W        W48322   4.148   2.436   3.678
76707W        W48323  17.234  29.355   4.074
76708W        W48324  13.609  38.026  14.960
76709W        W48325  11.161  31.082   4.473
76710W        W48326  21.560   7.067   5.064
76711W        W48327   9.200  34.607   5.117
76712W        W48328  20.471  26.700  14.825
76713W        W48329  20.033  42.856  10.482
76714W        W48330  31.493   4.898   2.758
76715W        W48331   0.332  36.199  10.238
76716W        W48332  18.030   9.257   3.062
76717W        W48333  13.864   1.704   4.383
76718W        W48334  38.882  19.257   1.967
76719W        W48335  27.523  20.699   3.279
76720W        W48336  39.780  13.255  13.720
76721W        W48337  13.619  42.850  11.634
76722W        W48338  30.550  16.205   4.522
76723W        W48339  29.470  43.001   0.190
76724W        W48340   6.289   1.682   5.006
76725W        W48341  10.150  23.476   1.168
76726W        W48342  21.697   3.165  11.205
76727W        W48343  23.523  17.798   1.751
76728W        W48344  16.317  22.795   4.299
76729W        W48345  32.068  21.329   1.290
76730W        W48346  38.535  22.967  11.766
76731W        W48347  42.836  12.611   1.306
76732W        W48348   4.993  34.338   1.949
76733W        W48349  24.655  37.435  10.667
76734W        W48350  12.906   6.255   3.167
76735W        W48351  15.532  13.349  12.025
76736W        W48352  29.476  17.740  14.422
76737W        W48353  28.945  37.596  12.874
76738W        W48354  28.622   4.187   3.728
76739W        W48355  34.366  11.664   1.351
76740W        W48356  29.097  17.902   0.776
76741W        W48357   6.053  33.850   0.346
76742W        W48358  24.023  18.148   2.212
76743W        W48359  19.883   8.127  14.660
76744W        W48360  32.928  14.779   1.478
76745W        W48361  11.287  32.560  13.798
76746W        W48362  11.843  11.872  12.847
76747W        W48363  34.440  15.628  11.195
76748W        W48364  18.672  25.474  11.491
76749W        W48365  18.857   7.362   3.096
76750W        W48366   9.237  43.374  11.083
76751W        W48367  34.927   4.699  14.080
76752W        W48368  21.717  34.509  14.249
76753W        W48369   5.947  13.007  11.924
76754W        W48370   4.802  37.556   0.422
76755W        W48371  26.561  36.110  13.518
76756W        W48372   5.613  37.351  12.158
76757W        W48373  42.694  30.041  13.753
76758W        W48374   9.335  36.379   0.769
76759W        W48375  25.659  18.779   1.761
76760W        W48376  21.534   1.277  13.751
76761W        W48377  24.638  21.507   3.888
76762W        W48378  13.962  19.725  14.470
76763W        W48379   7.715  36.291   4.445
76764W        W48380  37.144  43.301   4.858
76765W        W48381  12.317   0.962   4.274
76766W        W48382  13.104  42.548   2.802
76767W        W48383  21.146   2.391  13.470
76768W        W48384   8.379   0.349   2.223
76769W        W48385  17.067  28.960  12.517
76770W        W48386  35.319  14.705   1.437
76771W        W48387  41.559  36.628   4.589
76772W        W48388  30.249  24.377   3.662
76773W        W48389  40.977  22.334  11.105
76774W        W48390  26.468  30.205   0.370
76775W        W48391  14.173  42.026   0.431
76776W        W48392   0.000   9.291   2.230
76777W        W48393  11.633  32.937   4.038
76778W        W48394  25.432  44.390  13.948
76779W        W48395  36.275  28.549  12.149
76780W        W48396   3.388  24.202  14.589
76781W        W48397   2.018  30.435  12.899
76782W        W48398   0.930  38.591  14.719
76783W        W48399   1.210  16.068   3.340
76784W        W48400  14.586  41.318   4.644
76785W        W48401  29.473  26.742   0.286
76786W        W48402  16.782  20.739   0.250
76787W        W48403  36.995  43.013  14.562
76788W        W48404  18.351  20.336   4.491
76789W        W48405  34.824  31.796   5.002
76790W        W48406  20.756  29.968  14.854
76791W        W48407   1.291   0.199  12.508
76792W        W48408  36.858  25.769   4.137
76793W        W48409  41.254  37.088  13.468
76794W        W48410  37.057  13.846  10.628
76795W        W48411  16.840  36.651  13.810
76796W        W48412  39.577  31.028   3.734
76797W        W48413  43.846  17.152   0.127
76798W        W48414  29.179  10.867   0.492
76799W        W48415   4.431  19.245  12.481
76800W        W48416   7.649  38.621  11.007
76801W        W48417  29.472  13.255   1.136
76802W        W48418  39.941  26.459  11.234
76803W        W48419  21.108  40.522   3.746
76804W        W48420  13.771  33.530   1.932
76805W        W48421  13.571   3.677  14.764
76806W        W48422  23.956  28.536   5.001
76807W        W48423  19.173  30.457   4.253
76808W        W48424  18.855  17.789   4.572
76809W        W48425  23.525  38.111   1.780
76810W        W48426  12.498  12.641   4.132
76811W        W48427   1.847  29.128  11.021
76812W        W48428   4.990  40.872   0.339
76813W        W48429  36.066  35.041   1.729
76814W        W48430  38.122   3.749  11.844
76815W        W48431  25.711  43.940  14.966
76816W        W48432   8.821   2.538   0.881
76817W        W48433  29.182   0.778   0.448
76818W        W48434   6.658   7.469   3.813
76819W        W48435  42.041  39.264  12.017
76820W        W48436  27.156   9.135  13.480
76821W        W48437  18.961  21.282   4.621
76822W        W48438  20.894  40.755   2.487
76823W        W48439  19.279   8.431  10.654
76824W        W48440   4.357  35.609  11.095
76825W        W48441  15.552  37.347   0.350
76826W        W48442  32.620  24.543  10.576
76827W        W48443  32.456  34.571  13.539
76828W        W48444  17.058   0.101   2.368
76829W        W48445  19.034   4.516  14.940
76830W        W48446  11.212   2.010  10.576
76831W        W48447  44.236   9.714  11.031
76832W        W48448  22.448  17.734  12.039
76833W        W48449  33.842  28.438  14.330
76834W        W48450   7.716  43.877   4.797
76835W        W48451   5.812   0.436  11.697
76836W        W48452  10.051  10.332   3.369
76837W        W48453  33.449  15.040   4.483
76838W        W48454  10.861   3.265  12.767
76839W        W48455  25.651  17.065   3.791
76840W        W48456  23.510  39.054  10.686
76841W        W48457  14.302  44.342   0.794
76842W        W48458   0.742  31.943   4.210
76843W        W48459  16.076  21.095   1.939
76844W        W48460  44.200  39.853  13.761
76845W        W48461   2.075  27.969  12.443
76846W        W48462  18.691  10.530   2.692
76847W        W48463  24.064  26.927  14.271
76848W        W48464  20.693  23.657   4.551
76849W        W48465  24.941   6.407  12.110
76850W        W48466  22.475  24.774  12.007
76851W        W48467  35.104  11.339  14.359
76852W        W48468   7.781  29.997   4.886
76853W        W48469  10.813  44.962   0.322
76854W        W48470  27.277  35.084   4.560
76855W        W48471  21.584  35.480   0.180
76856W        W48472  39.589  14.095   1.799
76857W        W48473   7.337  40.388  14.914
76858W        W48474  42.910  19.271   3.214
76859W        W48475  33.083  34.092   3.700
76860W        W48476  43.874   9.355  12.490
76861W        W48477  34.206  37.637  12.853
76862W        W48478   6.915  14.778   3.203
76863W        W48479  24.283  44.420  11.549
76864W        W48480  23.674  31.468  11.512
76865W        W48481   1.050  29.091   4.574
76866W        W48482  13.637  17.101   1.451
76867W        W48483  15.597  43.383   1.275
76868W        W48484  37.510  40.487   0.269
76869W        W48485  21.780  42.513   3.341
76870W        W48486  39.058   1.530   3.228
76871W        W48487  35.552  24.427   1.764
76872W        W48488   3.172  34.568  11.018
76873W        W48489  43.484   4.183  11.673
76874W        W48490  43.482  10.353  12.505
76875W        W48491  39.262  43.833   2.272
76876W        W48492  26.066  43.351  12.332
76877W        W48493   1.235   1.298   1.222
76878W        W48494  14.675   9.110   4.080
76879W        W48495  20.187  33.387   4.576
76880W        W48496   8.867  32.040  10.507
76881W        W48497  11.718  36.927  14.835
76882W        W48498   3.567  19.738  10.720
76883W        W48499  27.536  31.626  12.868
76884W        W48500  27.663  30.935   0.709
76885W        W48501   3.528   5.753  13.046
76886W        W48502  37.093  34.334   0.355
76887W        W48503  41.289  33.745  11.863
76888W        W48504  31.102  17.765   1.941
76889W        W48505  38.034   6.034  12.644
76890W        W48506  21.761  16.797  12.490
76891W        W48507   0.030   3.205   3.127
76892W        W48508  23.555   2.801   1.493
76893W        W48509   1.364  26.455  12.539
76894W        W48510  24.119  19.391  11.510
76895W        W48511  41.016   7.826   2.837
76896W        W48512  17.533  24.058   4.184
76897W        W48513  18.820   9.930  13.587
76898W        W48514  34.400   1.918   0.358
76899W        W48515  24.081  39.524  12.958
76900W        W48516   7.302   5.895  12.873
76901W        W48517  37.466  26.629  12.618
76902W        W48518  38.353  31.920  13.413
76903W        W48519  34.158  12.575  14.485
76904W        W48520   5.073   8.476  11.362
76905W        W48521  15.676   6.199   2.096
76906W        W48522   3.522  15.326  10.647
76907W        W48523  19.203  24.335  13.374
76908W        W48524   4.194  13.652  14.375
76909W        W48525   7.414  26.754   1.219
76910W        W48526  24.851  12.282  13.820
76911W        W48527  16.659  43.965   5.528
76912W        W48528   6.551  33.670   1.214
76913W        W48529  13.589   3.564   4.681
76914W        W48530  26.461  20.685  13.102
76915W        W48531  34.890   4.636   0.014
76916W        W48532  35.658   6.676  12.988
76917W        W48533  22.969  14.801  13.434
76918W        W48534  23.927   6.169  12.133
76919W        W48535  26.967  10.924   4.160
76920W        W48536  42.515  29.419   1.833
76921W        W48537   9.255  15.100   3.101
76922W        W48538  23.754  40.563   1.555
76923W        W48539  24.744  14.340  14.413
76924W        W48540   3.718  21.647   2.261
76925W        W48541  36.815  11.230  10.671
76926W        W48542  25.415  22.535  12.879
76927W        W48543  15.337  23.068   4.675
76928W        W48544  29.547  43.924   0.793
76929W        W48545  13.408  32.938  13.486
76930W        W48546  28.572  40.038  12.550
76931W        W48547   3.715  44.993   1.671
76932W        W48548  38.943  40.354  14.005
76933W        W48549  22.846  19.082   1.512
76934W        W48550   5.150  38.755  14.792
76935W        W48551  44.820  37.600  14.686
76936W        W48552  19.299  39.032  10.666
76937W        W48553  18.710  24.182  14.706
76938W        W48554  12.891  15.600   4.222
76939W        W48555   4.737  35.681  11.494
76940W        W48556  38.038  26.425   4.139
76941W        W48557  40.060  25.517  10.541
76942W        W48558  19.063  37.898  11.885
76943W        W48559  39.808  15.726  12.449
76944W        W48560  15.403   6.564   9.727
76945W        W48561   8.113   0.972   0.625
76946W        W48562  17.436  17.793  12.021
76947W        W48563  17.705   1.766   1.279
76948W        W48564  22.125  13.392  13.000
76949W        W48565  30.939  14.422  13.335
76950W        W48566  11.359  21.060   3.297
76951W        W48567   0.153   9.223   4.170
76952W        W48568  29.959  21.677   1.656
76953W        W48569  20.086  19.783   0.254
76954W        W48570  24.012  13.889   0.363
76955W        W48571  12.372  33.621  11.897
76956W        W48572  16.385  13.905   3.565
76957W        W48573  40.034  26.610   2.768
76958W        W48574  43.514   6.401   2.202
76959W        W48575  32.100  22.203  10.564
76960W        W48576  14.697  36.955  12.369
76961W        W48577  21.084   2.400  12.209
76962W        W48578   9.653  22.039   4.129
76963W        W48579  10.404   9.306   2.851
76964W        W48580   6.224  17.696   1.819
76965W        W48581   8.788   9.173  11.935
76966W        W48582  28.707  24.184  12.858
76967W        W48583   6.471  16.301  12.632
76968W        W48584   0.425  44.505   1.802
76969W        W48585  29.080  15.582   2.241
76970W        W48586  15.850  21.073  12.134
76971W        W48587  32.498  10.400  13.114
76972W        W48588  22.007  22.325  14.074
76973W        W48589  25.661  40.943   4.928
76974W        W48590   3.435  38.560   1.908
76975W        W48591  36.913   9.851   0.175
76976W        W48592  37.073  36.628   1.817
76977W        W48593  29.744  14.745  12.499
76978W        W48594  35.076   8.102  12.950
76979W        W48595   2.430  10.598   3.899
76980W        W48596  33.899  43.053  13.426
76981W        W48597   9.365  11.329   1.723
76982W        W48598   7.918   5.640  10.979
76983W        W48599  18.775  13.256   0.098
76984W        W48600  20.850  44.719  10.639
76985W        W48601   1.199  36.578   0.719
76986W        W48602  10.764   2.103   1.872
76987W        W48603  21.812  32.083   1.142
76988W        W48604   7.027  31.763   0.672
76989W        W48605  14.210   1.436   0.755
76990W        W48606  13.750  40.352  12.434
76991W        W48607   1.947   2.486  13.846
76992W        W48608  14.679  20.147  13.513
76993W        W48609  16.295   2.294  10.692
76994W        W48610  43.342  21.964  13.769
76995W        W48611  25.977  11.616  10.783
76996W        W48612   1.180  31.897   2.477
76997W        W48613  11.592  14.721   1.782
76998W        W48614   7.894  42.217   0.998
76999W        W48615  41.468  39.339  10.506
77000W        W48616  15.742   6.609  11.477
77001W        W48617  34.913  29.112   0.022
77002W        W48618  14.794  24.082   2.345
77003W        W48619   3.363  34.465   2.326
77004W        W48620  38.944  15.827   2.883
77005W        W48621  23.481  34.994   2.220
77006W        W48622   6.930  39.627  13.870
77007W        W48623  32.935  35.588   3.275
77008W        W48624  44.225  28.218   4.202
77009W        W48625   1.732  20.192   3.265
77010W        W48626  39.982  32.662   3.360
77011W        W48627  34.339  37.371  14.911
77012W        W48628  30.984   3.897   0.329
77013W        W48629  40.895  44.877  13.424
77014W        W48630  32.379  19.717   3.536
77015W        W48631  10.755  14.021  12.151
77016W        W48632  38.676  40.850   3.318
77017W        W48633  30.290   6.222  14.325
77018W        W48634   7.921   6.830   0.666
77019W        W48635  27.254  22.757   0.303
77020W        W48636  35.077   9.891   1.369
77021W        W48637  21.173   1.199  11.485
77022W        W48638  19.724  29.978   0.012
77023W        W48639  32.534  28.785   5.436
77024W        W48640  21.103  25.775  10.577
77025W        W48641  38.345   6.241   3.785
77026W        W48642  22.132  26.052   1.202
77027W        W48643  16.752  28.008  11.561
77028W        W48644  25.559  18.143   4.642
77029W        W48645  22.171  43.373   3.696
77030W        W48646   8.719  29.556   1.427
77031W        W48647  14.538  42.099  12.436
77032W        W48648  26.561  16.739  14.645
77033W        W48649  43.050   2.021   3.184
77034W        W48650   2.018   6.427   3.740
77035W        W48651  27.550  18.062  13.364
77036W        W48652  29.903   1.887   1.916
77037W        W48653  27.813  41.035  11.519
77038W        W48654  27.100  44.360   1.200
77039W        W48655  17.283  27.657  12.985
77040W        W48656  30.018  35.205  12.475
77041W        W48657  43.052  25.100  14.920
77042W        W48658  26.035  35.898   2.740
77043W        W48659  42.307  10.879   3.735
77044W        W48660  18.453  16.598   2.145
77045W        W48661  25.923   9.123  11.778
77046W        W48662   0.327  25.075  14.378
77047W        W48663  40.302  20.299  14.009
77048W        W48664  43.323  24.560  11.605
77049W        W48665  28.152   0.101   2.675
77050W        W48666  30.747  19.273   3.957
77051W        W48667  25.703   4.896   0.853
77052W        W48668  31.542  18.494  13.378
77053W        W48669  19.165  43.423  12.387
77054W        W48670  14.758  11.664  11.971
77055W        W48671  12.324  16.098   0.948
77056W        W48672  41.381  14.507   2.222
77057W        W48673  37.990  14.301   1.649
77058W        W48674  34.123   4.935  13.832
77059W        W48675  22.540  35.757  12.521
77060W        W48676  40.834  23.046  12.764
77061W        W48677   4.476  10.802  12.062
77062W        W48678   6.771  33.984  13.790
77063W        W48679   0.927   9.696  11.634
77064W        W48680   1.865   6.472  13.037
77065W        W48681  19.828  42.862   4.559
77066W        W48682   2.795  19.119   2.390
77067W        W48683   9.245  38.577  13.464
77068W        W48684   0.679   6.869  11.230
77069W        W48685  17.778  15.038   1.345
77070W        W48686  11.448  13.840   3.611
77071W        W48687  24.882  27.228  14.747
77072W        W48688  11.751  41.470  13.996
77073W        W48689  40.555  43.402  14.556
77074W        W48690  41.264  25.378   2.308
77075W        W48691  20.715   7.720   0.801
77076W        W48692  30.121  43.771  13.342
77077W        W48693  41.549  39.994   2.209
77078W        W48694   5.379  31.913  13.866
77079W        W48695  12.144  42.779   0.977
77080W        W48696  34.013  43.369   3.046
77081W        W48697  38.530  16.402   3.250
77082W        W48698  37.086  19.431   2.671
77083W        W48699   3.199  31.188  12.038
77084W        W48700   7.914  28.181   5.013
77085W        W48701  36.415   3.130   1.975
77086W        W48702  24.140  24.535   4.652
77087W        W48703  28.307  23.226   2.743
77088W        W48704  16.725  35.967  11.403
77089W        W48705  10.820   9.419   4.187
77090W        W48706  44.277  30.709   3.037
77091W        W48707  18.249  18.308  11.075
77092W        W48708  16.881   8.263  14.438
77093W        W48709  13.765  30.824  14.305
77094W        W48710   2.953  10.836   1.694
77095W        W48711  20.198  34.951  11.930
77096W        W48712  42.275  36.329   3.401
77097W        W48713  21.284  21.156   1.839
77098W        W48714  16.561  43.979   1.996
77099W        W48715  38.823  38.256   0.882
77100W        W48716  38.389  23.737  11.427
77101W        W48717   4.306  11.454  11.179
77102W        W48718   8.677  28.365  13.325
77103W        W48719  20.062  14.893   1.787
77104W        W48720  16.251  41.567   3.659
77105W        W48721  18.082  26.612  12.506
77106W        W48722   0.393  16.832   2.639
77107W        W48723   5.336  43.402   2.648
77108W        W48724  13.282  12.274   1.709
77109W        W48725   9.859  37.541   3.783
77110W        W48726  13.053  35.545  12.406
77111W        W48727   7.642   6.747   3.413
77112W        W48728  18.535  28.408  12.798
77113W        W48729  35.395  31.836   5.033
77114W        W48730  35.013   5.860   1.203
77115W        W48731  31.862  13.247  11.094
77116W        W48732  31.404  42.391   5.012
77117W        W48733  29.614  23.699   4.145
77118W        W48734  16.555  22.997   1.154
77119W        W48735   0.197  17.638   3.240
77120W        W48736  38.599   8.838  12.632
77121W        W48737  40.097  11.190  12.405
77122W        W48738  31.688   8.472  12.524
77123W        W48739   5.346   6.791   2.666
77124W        W48740  39.926  24.104  14.446
77125W        W48741  31.037  14.783   1.500
77126W        W48742   1.279  24.470   5.039
77127W        W48743   3.948  22.282   3.695
77128W        W48744   8.375  39.829  10.707
77129W        W48745  12.050  38.985  13.729
77130W        W48746  41.782   3.467   5.056
77131W        W48747  34.453  30.341  12.989
77132W        W48748  41.912   6.863  13.411
77133W        W48749   8.156   9.419  12.756
77134W        W48750  28.919  31.824  12.968
77135W        W48751  44.587   7.188   3.274
77136W        W48752   3.028  23.646   1.327
77137W        W48753  27.728   2.368   4.581
77138W        W48754  44.909  16.889   2.824
77139W        W48755   9.175  27.601   2.771
77140W        W48756   8.840  44.610   4.700
77141W        W48757  32.824  25.755  12.015
77142W        W48758   9.820  40.170  13.917
77143W        W48759  20.484  40.071   3.092
77144W        W48760  18.762  10.091  11.144
77145W        W48761  27.105  16.800   3.307
77146W        W48762  17.537  31.513   1.922
77147W        W48763  44.499  21.449   3.748
77148W        W48764   1.239  16.778   2.243
77149W        W48765  24.530  32.639   0.681
77150W        W48766  42.354  32.612  14.909
77151W        W48767   8.211  11.147  10.689
77152W        W48768  33.686  43.398  10.982
77153W        W48769   5.886  19.160   4.102
77154W        W48770   2.940  44.325  11.672
77155W        W48771  18.546  29.002   0.355
77156W        W48772  34.334  13.841   0.528
77157W        W48773  10.507  31.506  14.769
77158W        W48774   6.320  39.574  14.518
77159W        W48775  20.037  31.411   1.279
77160W        W48776  30.919   3.986   2.329
77161W        W48777   8.211  31.913  10.742
77162W        W48778  41.324   8.683   4.629
77163W        W48779   3.254   3.876   3.662
77164W        W48780  17.340  15.293   1.450
77165W        W48781  36.514  16.603   2.893
77166W        W48782  15.360   4.422   3.769
77167W        W48783  24.790   3.813  14.287
77168W        W48784   7.110  10.685   4.625
77169W        W48785  29.955  40.892   1.428
77170W        W48786   6.639  26.221   3.333
77171W        W48787   8.599  14.153   3.639
77172W        W48788  18.391   0.235   4.077
77173W        W48789  34.659  42.272  13.388
77174W        W48790  13.664  14.751  13.539
77175W        W48791   1.937  39.225  13.309
77176W        W48792   1.381  20.267   2.857
77177W        W48793  33.730  15.990   4.692
77178W        W48794   8.161  25.688  10.543
77179W        W48795  19.197  33.578  11.521
77180W        W48796   0.862  43.270   2.217
77181W        W48797  12.774  21.525   4.146
77182W        W48798  26.834  24.672  13.574
77183W        W48799  39.406   0.544   1.462
77184W        W48800  11.330  40.821   4.702
77185W        W48801   9.960   3.621  14.051
77186W        W48802  42.808   2.584  14.792
77187W        W48803  40.415  20.377   4.341
77188W        W48804   2.296  38.523   3.611
77189W        W48805  34.330  36.357   4.105
77190W        W48806  12.031  22.672  14.378
77191W        W48807   9.741   9.774   1.280
77192W        W48808  26.127  40.822  12.630
77193W        W48809   1.875  43.613   5.416
77194W        W48810   1.833  34.318   0.437
77195W        W48811  14.297  30.494  14.387
77196W        W48812  15.160  19.758   2.400
77197W        W48813  36.375  39.421   3.727
77198W        W48814  43.785  39.007   0.240
77199W        W48815  32.057  10.860   4.680
77200W        W48816   1.634   4.348  14.699
77201W        W48817  11.646  21.344  10.673
77202W        W48818  24.156  38.600   3.398
77203W        W48819   6.095  17.274   4.180
77204W        W48820   3.664  18.629   4.190
77205W        W48821   6.728  42.281  11.230
77206W        W48822  33.108  44.864   2.594
77207W        W48823  23.703  22.624   5.113
77208W        W48824  30.713  30.889   2.526
77209W        W48825  42.515  16.188   4.175
77210W        W48826  27.120  14.483  12.899
77211W        W48827  16.508  44.966   5.443
77212W        W48828  28.381   0.491  11.551
77213W        W48829  25.452  32.530   3.299
77214W        W48830  37.940  25.331   5.205
77215W        W48831  36.430  44.547  10.561
77216W        W48832  15.598  23.666  10.786
77217W        W48833  13.825  16.725   9.919
77218W        W48834  41.310  31.085   3.844
77219W        W48835  10.650  27.599   3.892
77220W        W48836  31.506  33.370   1.396
77221W        W48837  30.096  31.839   0.906
77222W        W48838  26.673  19.550  13.940
77223W        W48839   6.673  44.567   1.502
77224W        W48840  15.087  37.556   0.357
77225W        W48841  36.610   0.049  13.849
77226W        W48842   4.800   7.358   1.056
77227W        W48843  19.498  21.741   2.787
77228W        W48844  44.786   2.848   4.805
77229W        W48845  28.738  14.329  13.410
77230W        W48846  19.932  34.511  12.977
77231W        W48847   3.939  42.624   3.948
77232W        W48848  19.694  21.584   4.200
77233W        W48849  14.343  37.841   2.997
77234W        W48850   5.181  34.515   9.910
77235W        W48851  39.043  32.247  12.998
77236W        W48852  32.473  12.713   1.768
77237W        W48853   4.849  31.651  14.531
77238W        W48854  40.219  22.494  12.881
77239W        W48855  20.014  20.803  14.329
77240W        W48856  28.764  21.455   0.913
77241W        W48857  32.953  27.128  13.041
77242W        W48858  24.209  37.819   0.921
77243W        W48859  30.920  25.193  12.453
77244W        W48860  21.520  44.901   4.541
77245W        W48861  24.762  14.698   1.305
77246W        W48862  30.369  41.002  14.936
77247W        W48863  27.946  20.064   4.418
77248W        W48864   3.920  16.336   3.017
77249W        W48865  22.091   3.440   2.508
77250W        W48866  11.168  37.130  12.996
77251W        W48867  44.084  23.161  14.524
77252W        W48868   5.677  27.638   0.409
77253W        W48869  28.079  12.586  10.362
77254W        W48870  11.945   3.857   3.757
77255W        W48871  35.227  29.451  14.726
77256W        W48872  41.347  28.927   3.136
77257W        W48873  17.555  31.124  11.566
77258W        W48874  39.850  41.228  11.270
77259W        W48875  43.969  27.659   4.245
77260W        W48876   3.937  18.601   0.219
77261W        W48877  35.540  36.395  14.247
77262W        W48878   1.488   8.898  12.961
77263W        W48879  33.507  18.927   1.308
77264W        W48880  36.909  30.137   0.292
77265W        W48881  21.194  38.825   0.494
77266W        W48882  18.776  32.148   0.464
77267W        W48883  12.183  35.950  13.014
77268W        W48884  12.356  14.011  11.503
77269W        W48885   4.893  24.924   0.399
77270W        W48886  33.045  13.828  14.300
77271W        W48887  24.172  12.140  12.962
77272W        W48888  14.269  35.735  10.717
77273W        W48889   0.821  35.352   2.271
77274W        W48890   0.760  19.599  14.904
77275W        W48891  21.220   7.717   0.482
77276W        W48892   6.445  18.549   4.468
77277W        W48893  44.314  37.063  11.090
77278W        W48894   8.373  41.378   1.292
77279W        W48895  26.342   7.948  11.152
77280W        W48896   7.811  42.492   1.463
77281W        W48897  12.556  12.365  14.388
77282W        W48898   9.796   2.212   0.748
77283W        W48899  32.121  34.177   3.438
77284W        W48900   0.500  41.736  11.596
77285W        W48901  41.980  10.626  14.417
77286W        W48902   3.303  42.424  10.946
77287W        W48903  14.316  44.014  11.152
77288W        W48904   2.507  24.654  11.409
77289W        W48905  35.736  28.821   4.326
77290W        W48906  29.704  38.929  10.727
77291W        W48907  42.942   4.370   0.719
77292W        W48908  40.701  39.260  14.073
77293W        W48909  35.796  27.995   3.302
77294W        W48910  12.164  26.692  10.291
77295W        W48911  22.122   0.228  14.907
77296W        W48912  19.931  34.515  12.041
77297W        W48913  29.928  38.989  12.054
77298W        W48914  32.490  30.937  10.754
77299W        W48915   7.459  36.835  13.787
77300W        W48916   5.381  18.776   0.256
77301W        W48917  23.653  10.361  12.973
77302W        W48918   7.786  22.535  14.471
77303W        W48919   2.192  39.969  13.538
77304W        W48920   4.303  44.310  11.947
77305W        W48921  15.333  15.078  12.923
77306W        W48922  27.860  43.274   0.332
77307W        W48923  17.787  24.261   0.463
77308W        W48924   9.592  22.435   1.937
77309W        W48925   0.810   5.382  13.581
77310W        W48926  32.079  15.822   0.551
77311W        W48927  38.061   6.265   0.314
77312W        W48928  33.617  13.616  13.390
77313W        W48929  12.414  43.853   2.821
77314W        W48930  20.746   5.445   2.371
77315W        W48931  28.994  20.672   0.042
77316W        W48932  39.377  42.920  12.925
77317W        W48933   5.288  29.968   4.611
77318W        W48934   3.809  17.045   2.201
77319W        W48935   4.815  32.652   2.289
77320W        W48936  33.419   2.750  14.835
77321W        W48937  20.480  42.397  14.401
77322W        W48938  34.324  39.516  14.530
77323W        W48939  26.461   9.686  12.830
77324W        W48940  31.922  28.840   5.079
77325W        W48941  12.135  30.014   2.228
77326W        W48942   1.661  41.713  12.927
77327W        W48943  23.200   0.769   4.038
77328W        W48944  40.594   1.029  11.031
77329W        W48945  44.843  42.977   1.782
77330W        W48946  23.573  33.577   3.650
77331W        W48947  11.667   4.447  12.517
77332W        W48948   9.460  35.847  10.829
77333W        W48949   9.837  12.188  12.571
77334W        W48950  20.521  11.178   0.865
77335W        W48951  36.585  32.185   3.652
77336W        W48952  13.850  26.050  13.220
77337W        W48953  17.272  41.926  11.648
77338W        W48954  25.040  21.709   2.077
77339W        W48955   8.915   6.864   3.199
77340W        W48956   3.696   4.101   0.497
77341W        W48957   7.439   6.725   0.549
77342W        W48958  13.355  36.911   0.771
77343W        W48959   2.869  18.811   2.816
77344W        W48960  34.314   6.393   4.646
77345W        W48961  28.496   1.185  12.991
77346W        W48962   9.744   4.214  11.097
77347W        W48963  34.146   3.990  10.574
77348W        W48964  32.444  34.525   2.832
77349W        W48965  24.960  22.270   1.839
77350W        W48966  33.611  28.138   0.966
77351W        W48967  13.691  38.841  12.968
77352W        W48968  44.396  29.392   4.687
77353W        W48969   1.729  12.106   1.506
77354W        W48970   2.933  34.997   0.010
77355W        W48971  12.193   6.708   3.275
77356W        W48972   7.258  34.039   2.251
77357W        W48973  42.456  35.483   1.133
77358W        W48974  30.193  28.573   0.900
77359W        W48975  37.826   5.198   1.717
77360W        W48976  22.966  37.782   2.388
77361W        W48977  32.572   5.802   4.592
77362W        W48978   5.866  13.855  11.455
77363W        W48979   0.033  31.423  10.899
77364W        W48980   3.475  15.124   3.379
77365W        W48981   3.795  28.467  11.848
77366W        W48982  35.100  34.570   3.605
77367W        W48983  22.949  17.662   2.625
77368W        W48984  38.331  26.252  11.535
77369W        W48985  34.243  43.054  12.126
77370W        W48986   0.803   3.915   2.818
77371W        W48987  38.278  43.990  14.341
77372W        W48988  36.711  30.374  13.990
77373W        W48989   9.248  21.358   2.071
77374W        W48990  38.705  29.792   1.606
77375W        W48991  22.384  40.559   2.451
77376W        W48992  25.707  36.035   0.298
77377W        W48993  14.533  30.570  13.050
77378W        W48994  39.189  25.380   4.289
77379W        W48995  36.013   8.023   1.720
77380W        W48996  43.348  13.338   0.657
77381W        W48997  18.452   8.842  12.995
77382W        W48998  18.811  11.144  14.102
77383W        W48999  19.878  13.990  13.412
77384W        W49000  10.249  36.018   0.821
77385W        W49001  26.448  31.500  11.578
77386W        W49002  19.825  31.181  13.005
77387W        W49003   0.479  10.141   1.314
77388W        W49004  19.520  14.744  13.886
77389W        W49005  12.108  21.623  13.949
77390W        W49006   9.947  34.348  14.853
77391W        W49007   2.031  41.111  11.037
77392W        W49008  22.474  38.947   1.275
77393W        W49009  16.040  18.507   4.611
77394W        W49010  44.151  20.569   0.852
77395W        W49011   2.016   8.639   4.285
77396W        W49012  21.454  36.344  10.589
77397W        W49013  20.617  42.283   3.694
77398W        W49014   8.563  42.792   1.265
77399W        W49015   6.942  37.392  11.626
77400W        W49016  31.043  24.233   4.875
77401W        W49017   3.925  25.524  14.437
77402W        W49018  34.416  34.155   3.895
77403W        W49019   7.268  15.195  14.243
77404W        W49020  16.178  20.279  11.991
77405W        W49021  10.097  44.033  12.927
77406W        W49022   7.576   8.651  11.014
77407W        W49023  13.153  10.166  10.405
77408W        W49024   9.245  23.962   1.155
77409W        W49025  18.045  23.979  12.974
77410W        W49026  21.248  19.282   1.188
77411W        W49027  43.972  18.788   1.725
77412W        W49028   3.343  39.250  10.904
77413W        W49029  37.338  20.520  11.088
77414W        W49030   4.061  18.996  13.371
77415W        W49031  32.731  36.416  14.355
77416W        W49032   7.586  17.206  11.626
77417W        W49033  30.162  42.775   1.373
77418W        W49034   1.183  44.551   0.932
77419W        W49035  27.601  23.597   0.286
77420W        W49036  37.561  24.019  11.212
77421W        W49037  43.304  38.764   4.213
77422W        W49038  39.892  24.776   2.525
77423W        W49039  44.681  32.469   3.741
77424W        W49040  12.325   0.529   1.062
77425W        W49041  37.684   7.228  10.748
77426W        W49042  15.628  41.336  10.367
77427W        W49043   6.205  17.056   1.280
77428W        W49044  11.785  22.983   4.259
77429W        W49045  31.909   2.566  12.914
77430W        W49046  41.799  32.017  12.472
77431W        W49047  36.851  28.147   1.268
77432W        W49048  28.163  32.125  11.937
77433W        W49049  31.067  30.194   9.786
77434W        W49050  31.510   5.343   0.322
77435W        W49051  38.866   4.197  13.792
77436W        W49052  12.973  25.179  14.705
77437W        W49053  44.364  22.684   2.262
77438W        W49054  29.544  30.908  10.499
77439W        W49055  26.894  22.410   4.509
77440W        W49056   8.453  39.358  14.010
77441W        W49057  19.118  13.832  10.739
77442W        W49058  42.539  25.730  14.286
77443W        W49059  25.918  32.682   1.185
77444W        W49060  42.077  39.895   0.933
77445W        W49061  27.136  21.436   3.332
77446W        W49062  43.612  15.294   4.716
77447W        W49063  39.033  43.217   0.659
77448W        W49064  41.989  11.370   3.691
77449W        W49065   2.226  20.221   0.827
77450W        W49066  42.794   0.073  11.068
77451W        W49067  33.902  44.695   3.638
77452W        W49068  10.868   8.428   2.402
77453W        W49069  42.443  44.710  11.008
77454W        W49070  11.786   7.354  14.485
77455W        W49071  42.009  40.067  11.579
77456W        W49072   2.988  30.075  14.952
77457W        W49073  39.905   4.917  14.321
77458W        W49074  20.712  12.474   0.391
77459W        W49075  10.423  10.405   4.857
77460W        W49076  12.356  42.846  11.090
77461W        W49077   2.423   3.968  14.352
77462W        W49078  24.333   4.124   4.504
77463W        W49079  22.802  23.672  10.877
77464W        W49080  25.476  30.475  12.890
77465W        W49081   7.332  18.527   4.603
77466W        W49082   2.736  12.307  13.141
77467W        W49083  31.501   2.033   9.700
77468W        W49084  39.812  12.794   5.434
77469W        W49085  11.718   3.518   0.416
77470W        W49086   8.691  11.627   4.611
77471W        W49087  26.875   9.320   3.344
77472W        W49088   7.651  27.063   2.337
77473W        W49089  32.474   1.205  12.123
77474W        W49090  38.378  32.641   0.645
77475W        W49091   5.034  30.272   3.321
77476W        W49092  31.601  27.037   1.264
77477W        W49093  34.664   2.484  10.710
77478W        W49094  43.153  37.446  10.715
77479W        W49095  16.571   4.405  12.105
77480W        W49096  14.788   6.277   1.921
77481W        W49097  21.107  36.558   0.987
77482W        W49098  27.110  35.970   3.767
77483W        W49099  11.034  38.503   0.436
77484W        W49100   2.813   0.749   2.651
77485W        W49101  40.838  11.277   4.392
77486W        W49102  12.067  19.217   2.916
77487W        W49103  24.597  40.717  13.824
77488W        W49104  10.306   5.793   4.409
77489W        W49105   6.250  31.563  14.778
77490W        W49106   5.179  36.047  11.354
77491W        W49107   7.363  25.620   2.590
77492W        W49108  43.418   5.885   4.690
77493W        W49109  38.353  34.277   4.084
77494W        W49110   2.987  12.624   2.240
77495W        W49111  19.684  11.858   3.608
77496W        W49112  26.443  23.885  14.528
77497W        W49113  24.187  15.211   0.943
77498W        W49114  38.614  32.122  13.989
77499W        W49115   8.196  31.980   4.200
77500W        W49116  27.737  35.863  10.873
77501W        W49117   1.557   8.301  12.166
77502W        W49118  19.137  21.814   3.612
77503W        W49119  37.624  34.576  14.502
77504W        W49120  18.605   4.852   5.212
77505W        W49121   3.943  10.469  11.102
77506W        W49122  19.914   1.815  12.028
77507W        W49123  39.435  11.910  10.638
77508W        W49124   7.356  12.056  14.369
77509W        W49125   6.327  15.677  13.899
77510W        W49126  29.898  17.855   2.797
77511W        W49127  36.546  25.228   5.207
77512W        W49128   8.738  38.111  14.307
77513W        W49129  23.414   2.468   1.108
77514W        W49130   3.310  42.129  12.419
77515W        W49131  44.271  19.111   1.428
77516W        W49132  21.573  30.438  14.396
77517W        W49133  27.583  39.747   4.294
77518W        W49134  11.674   4.256   4.663
77519W        W49135  37.117  11.918  14.440
77520W        W49136  34.847  16.116   2.752
77521W        W49137  43.366  27.607  14.746
77522W        W49138  19.107  42.992   5.268
77523W        W49139  29.211  31.754  13.426
77524W        W49140  23.957   1.341  12.541
77525W        W49141  18.535  28.121  13.973
77526W        W49142  12.647  42.964  10.681
77527W        W49143  38.801  38.281  12.050
77528W        W49144  18.558  12.851   3.075
77529W        W49145  40.190   9.187  11.608
77530W        W49146   3.720  32.375   2.675
77531W        W49147   4.085  19.753  10.741
77532W        W49148  29.191   3.923  12.829
77533W        W49149  37.791  37.162   1.817
77534W        W49150  17.477  11.152   3.982
77535W        W49151  31.039  43.753   4.566
77536W        W49152  21.519  32.423   1.417
77537W        W49153  19.758  41.950   4.545
77538W        W49154  43.752  37.789   1.043
77539W        W49155  18.743  10.293   1.718
77540W        W49156  44.020  34.502  11.449
77541W        W49157   8.258  16.622  10.647
77542W        W49158   9.149  35.379   0.631
77543W        W49159  14.140  32.722  14.199
77544W        W49160  18.229  12.736   3.658
77545W        W49161  23.184  35.710  11.956
77546W        W49162  34.942  10.771   2.197
77547W        W49163   7.402  37.948  13.361
77548W        W49164  33.457  31.256   1.700
77549W        W49165  41.800  30.575  13.935
77550W        W49166  35.553  39.063  14.875
77551W        W49167  17.081  25.228  14.915
77552W        W49168  44.086   9.081  10.668
77553W        W49169  39.560  39.445  13.461
77554W        W49170  19.586  24.249  14.685
77555W        W49171   2.302  39.988  11.647
77556W        W49172  40.844  27.383  10.628
77557W        W49173  35.026  30.430   3.689
77558W        W49174  40.805   0.862   2.776
77559W        W49175  39.297  19.541   3.697
77560W        W49176  19.072  38.644  10.405
77561W        W49177  14.932  17.556  14.959
77562W        W49178  28.670  33.520  12.450
77563W        W49179  39.408  14.802   4.079
77564W        W49180   6.629  19.232   0.463
77565W        W49181  19.240   5.368  13.027
77566W        W49182  22.481  15.699   3.016
77567W        W49183  20.209  28.118   1.313
77568W        W49184  27.490  32.911  13.523
77569W        W49185  16.310  14.227  13.123
77570W        W49186  31.156  11.551  13.428
77571W        W49187  11.203  11.227  14.376
77572W        W49188  28.943  19.608   3.634
77573W        W49189  43.383  36.067  10.960
77574W        W49190  39.919  38.801  13.108
77575W        W49191  19.389  18.238   0.680
77576W        W49192  16.834   5.695   4.557
77577W        W49193  20.155  27.032  11.162
77578W        W49194  36.298  20.269  12.784
77579W        W49195   9.922  22.899   1.845
77580W        W49196   5.172   7.244   4.624
77581W        W49197  43.398  12.900  10.702
77582W        W49198  30.445   3.860   4.533
77583W        W49199  23.253   6.631   0.489
77584W        W49200  18.311   4.788   3.326
77585W        W49201  12.930  35.564   4.340
77586W        W49202   8.329  33.126   3.226
77587W        W49203   8.869  19.810   2.495
77588W        W49204   1.240  43.798  13.261
77589W        W49205  23.828  12.669  11.616
77590W        W49206  26.001  10.663   1.430
77591W        W49207   9.657  31.905   4.645
77592W        W49208   9.620   2.215   3.263
77593W        W49209  39.118   7.545  10.583
77594W        W49210   7.966  19.723  11.596
77595W        W49211   0.476   2.052   2.323
77596W        W49212   5.499  31.490   0.990
77597W        W49213  16.506   4.060   1.345
77598W        W49214  36.526  14.289  10.931
77599W        W49215  35.517  23.498   2.777
77600W        W49216  29.598   5.162  12.368
77601W        W49217  24.931  17.241  14.189
77602W        W49218  22.182  42.351   2.173
77603W        W49219   7.675  13.396  13.338
77604W        W49220  39.984  22.534  13.864
77605W        W49221   2.448   9.654   0.511
77606W        W49222  36.560   2.422  12.178
77607W        W49223   4.929  27.069  13.118
77608W        W49224   7.157  14.219  10.686
77609W        W49225   3.677  42.112  11.118
77610W        W49226  18.329  11.709   0.416
77611W        W49227   4.303  35.710  14.560
77612W        W49228  23.058  25.742  13.441
77613W        W49229   9.662  41.304   1.705
77614W        W49230   1.974  22.113  14.320
77615W        W49231  21.687  14.136  13.327
77616W        W49232  30.098  24.561   2.794
77617W        W49233   1.450  44.953  11.472
77618W        W49234  25.469  14.801  14.463
77619W        W49235  28.956  31.752   2.710
77620W        W49236   2.759   0.918  11.102
77621W        W49237  28.378   6.633   1.283
77622W        W49238  16.157  19.291   3.578
77623W        W49239  18.424  19.217  11.216
77624W        W49240  41.928   1.772   0.189
77625W        W49241  23.508  22.087  13.004
77626W        W49242  31.854   2.222  10.655
77627W        W49243  39.656  39.109  11.690
77628W        W49244   8.756  12.354   0.908
77629W        W49245  14.738  29.758  10.768
77630W        W49246   2.827  10.192   0.801
77631W        W49247   4.274   1.356   0.496
77632W        W49248  30.569  44.179  11.622
77633W        W49249   8.431   5.317   1.402
77634W        W49250  33.691   2.230  13.839
77635W        W49251  15.051  29.379  11.423
77636W        W49252   8.813   9.600   0.351
77637W        W49253  35.406   9.813   2.215
77638W        W49254  42.832  20.206  14.016
77639W        W49255  31.565   1.578  14.677
77640W        W49256  34.942  10.804   4.557
77641W        W49257  11.575  33.555   1.929
77642W        W49258   8.211  27.559  11.118
77643W        W49259  34.468   4.252   2.197
77644W        W49260  33.115  44.394   5.033
77645W        W49261   9.387  12.740   0.220
77646W        W49262  31.159  21.773  11.933
77647W        W49263   9.253  39.677  13.296
77648W        W49264   7.869   0.430   2.167
77649W        W49265  29.117  40.352   3.906
77650W        W49266  25.622  20.583  12.503
77651W        W49267  13.240  37.619   4.274
77652W        W49268  29.570  22.647   5.125
77653W        W49269  25.704  10.103   3.244
77654W        W49270  44.344  20.750   0.306
77655W        W49271   4.852  40.158   4.713
77656W        W49272  39.570  37.241  12.449
77657W        W49273   2.333  29.676  11.230
77658W        W49274   1.774   3.034  10.911
77659W        W49275  12.211  10.692   2.457
77660W        W49276  32.991  22.768  13.111
77661W        W49277  36.873   4.656  11.466
77662W        W49278  17.213   2.513   4.102
77663W        W49279  32.946  28.983   4.300
77664W        W49280  42.448   9.281   4.376
77665W        W49281  25.688  25.382   1.654
77666W        W49282  19.876  38.675  12.662
77667W        W49283  17.635  40.537   2.867
77668W        W49284  44.345  30.922  10.412
77669W        W49285  20.564  17.967  12.465
77670W        W49286  31.645  40.355  13.907
77671W        W49287  16.769   8.885   0.450
77672W        W49288  28.014  22.429   3.029
77673W        W49289  11.733  37.365   2.956
77674W        W49290   2.820  14.813  14.964
77675W        W49291  40.319  24.021   4.336
77676W        W49292  14.544  18.913  14.191
77677W        W49293   6.992  17.634   1.349
77678W        W49294  41.506   2.550   0.321
77679W        W49295  27.181  27.035   1.368
77680W        W49296  11.838  41.857  13.285
77681W        W49297  32.482  35.117  10.958
77682W        W49298  44.517  21.258   2.151
77683W        W49299  27.019  12.222   3.282
77684W        W49300  11.130  15.473  14.313
77685W        W49301  40.987  38.061  11.521
77686W        W49302  32.775  32.953   2.104
77687W        W49303  37.100  24.058   2.627
77688W        W49304  28.110  21.798  14.896
77689W        W49305  13.259  34.278   4.633
77690W        W49306  43.423  35.427   9.703
77691W        W49307   7.276  23.303   1.354
77692W        W49308  40.262  39.290  14.846
77693W        W49309  40.939   0.268   2.676
77694W        W49310  17.217  19.313  12.002
77695W        W49311  26.499   4.747  12.964
77696W        W49312   9.949  43.890  13.915
77697W        W49313   8.114  30.343  13.941
77698W        W49314  21.611  18.635   0.179
77699W        W49315  40.502  37.451   3.615
77700W        W49316  13.161  42.073  12.009
77701W        W49317  41.755  26.461  13.408
77702W        W49318  37.130   0.917   1.957
77703W        W49319  28.422  34.601   3.592
77704W        W49320   4.893  16.134   0.859
77705W        W49321  26.309  24.784  13.533
77706W        W49322  30.359  29.125  14.306
77707W        W49323  16.860   2.826  13.016
77708W        W49324  19.144  35.377   0.818
77709W        W49325  42.473  44.791  14.773
77710W        W49326  28.602  28.973  10.362
77711W        W49327   5.690   8.145  14.398
77712W        W49328  24.831  36.460  14.333
77713W        W49329  36.672  32.288   2.301
77714W        W49330  16.185  17.420  14.503
77715W        W49331   8.381  39.879   2.798
77716W        W49332  12.320   3.812   1.530
77717W        W49333   8.463  29.362  13.386
77718W        W49334  31.587  22.096   2.635
77719W        W49335  41.427   1.462  13.478
77720W        W49336  18.056  21.797   3.667
77721W        W49337   1.198   1.749  11.136
77722W        W49338  11.331   6.782   0.322
77723W        W49339   9.324   9.833   4.103
77724W        W49340  17.497  15.847   3.812
77725W        W49341  27.645  36.108   4.400
77726W        W49342  16.166   0.520  13.034
77727W        W49343  36.599  39.963  14.458
77728W        W49344  29.583  43.449   1.047
77729W        W49345   8.685  23.143   0.398
77730W        W49346  19.189  27.396   4.008
77731W        W49347  18.193  34.211  13.522
77732W        W49348  25.091   4.701  11.453
77733W        W49349   9.254  42.355   0.957
77734W        W49350  32.883  19.739  12.371
77735W        W49351  35.157  22.134   0.566
77736W        W49352  12.160  23.598  10.825
77737W        W49353  41.416  19.059   3.118
77738W        W49354  22.656   0.522  12.435
77739W        W49355  18.676  19.218   2.742
77740W        W49356   2.778  42.333   1.728
77741W        W49357  17.644  24.749   0.325
77742W        W49358  15.993  42.069  12.617
77743W        W49359  27.549  25.711   3.443
77744W        W49360  27.353   5.926  13.977
77745W        W49361  43.928   8.537   1.895
77746W        W49362  15.120   9.342   0.816
77747W        W49363  34.424  14.073  14.586
77748W        W49364  29.352  30.077  11.943
77749W        W49365  41.200  30.454   2.816
77750W        W49366  44.903  36.500  13.332
77751W        W49367   0.940  37.883   3.297
77752W        W49368  10.258   7.862   2.658
77753W        W49369  39.117  31.918  14.000
77754W        W49370  32.411   4.295  14.757
77755W        W49371  32.631   1.602   0.311
77756W        W49372  25.107  16.801   1.481
77757W        W49373  12.418  33.919  11.108
77758W        W49374  30.511   4.299   2.347
77759W        W49375  33.133  21.297  13.933
77760W        W49376  31.415  21.133   3.039
77761W        W49377  24.031   6.959   2.736
77762W        W49378  14.631   3.576  10.062
77763W        W49379  43.962  29.862  12.565
77764W        W49380  41.124  15.229   4.628
77765W        W49381   0.868  40.525   4.302
77766W        W49382  17.963  12.774  11.139
77767W        W49383  33.425  16.776  13.510
77768W        W49384  43.268  34.350  14.377
77769W        W49385   5.981  18.725  12.995
77770W        W49386   1.005  14.168   4.125
77771W        W49387  22.123   7.593   0.237
77772W        W49388  37.582  28.453  13.270
77773W        W49389   0.509  32.828  12.444
77774W        W49390  34.102   9.036  13.829
77775W        W49391  24.720  16.796  11.201
77776W        W49392   7.794  40.993  10.814
77777W        W49393  16.334  43.539   1.754
77778W        W49394   5.535   7.810   1.741
77779W        W49395  31.594  21.278  14.840
77780W        W49396  22.467  27.670  14.532
77781W        W49397  34.629  22.281  11.010
77782W        W49398  20.572  21.770  11.523
77783W        W49399  35.427  25.763   4.385
77784W        W49400  35.078  44.659   3.173
77785W        W49401  37.009  20.270   0.860
77786W        W49402   8.959  35.883  14.835
77787W        W49403  28.630   8.892  10.456
77788W        W49404  17.178  15.187   2.361
77789W        W49405   4.287  26.029  13.923
77790W        W49406  33.135  18.656   5.139
77791W        W49407  15.571   2.895   0.998
77792W        W49408  24.128  27.461   4.155
77793W        W49409  22.629  40.352   4.098
77794W        W49410  33.853  36.005   1.680
77795W        W49411  14.720  14.229   0.628
77796W        W49412  28.207  30.549   3.299
77797W        W49413  28.617  32.979  12.360
77798W        W49414   4.680  26.431   0.192
77799W        W49415  18.787  12.781   0.358
77800W        W49416  24.879   2.237  13.068
77801W        W49417  35.192  20.538   4.491
77802W        W49418   2.898  11.665  11.909
77803W        W49419  33.111  44.367  10.546
77804W        W49420  35.583   5.809  12.848
77805W        W49421   4.547  19.224   0.389
77806W        W49422   9.115   1.520   4.893
77807W        W49423  27.146  39.834   0.329
77808W        W49424   3.490  10.881   2.470
77809W        W49425  30.563  29.101  10.906
77810W        W49426  30.098  12.578   2.649
77811W        W49427  11.895  37.476   3.847
77812W        W49428  41.989  37.072   0.143
77813W        W49429   7.019  43.800   0.910
77814W        W49430  25.162   5.864   0.850
77815W        W49431  25.606  19.650  11.982
77816W        W49432  20.464   9.202  14.736
77817W        W49433  26.503  29.595  13.726
77818W        W49434  29.384   5.343   2.808
77819W        W49435  42.841  28.018  12.468
77820W        W49436  43.857   8.969   0.891
77821W        W49437  21.491   5.157  11.428
77822W        W49438  37.116  13.973  10.025
77823W        W49439  13.763   1.022   2.840
77824W        W49440  39.291  31.349   1.834
77825W        W49441  32.857  31.086  13.915
77826W        W49442  28.162  30.057  12.460
77827W        W49443  17.751  14.015  14.977
77828W        W49444   4.533   3.643   0.859
77829W        W49445  30.891  33.715  12.988
77830W        W49446  28.137  16.093   0.944
77831W        W49447  34.640  30.964   3.231
77832W        W49448  19.960  11.561  13.356
77833W        W49449   5.388  17.665   4.873
77834W        W49450   9.813   6.848  11.016
77835W        W49451  35.568  10.798   3.925
77836W        W49452  11.607  15.052   1.394
77837W        W49453  21.406   4.663   1.715
77838W        W49454  25.339  32.195  12.107
77839W        W49455   9.786  13.600   1.441
77840W        W49456  36.561  11.496  12.051
77841W        W49457  11.267  28.501  10.979
77842W        W49458  31.562  34.113  14.738
77843W        W49459  11.787   4.693  13.446
77844W        W49460  13.158   8.290  12.117
77845W        W49461  23.763   6.586   0.523
77846W        W49462  18.571  44.927   2.352
77847W        W49463   4.739  32.613  10.969
77848W        W49464   6.923  35.257   3.661
77849W        W49465  37.044   4.504  12.989
77850W        W49466  29.878  35.191   0.922
77851W        W49467   0.935  14.692   1.347
77852W        W49468   8.863  31.902   0.815
77853W        W49469  24.532  41.825   3.724
77854W        W49470  23.999  25.272   1.959
77855W        W49471   8.269  36.966   2.759
77856W        W49472   0.762  18.585   3.203
77857W        W49473  36.268  18.864   2.374
77858W        W49474  19.406  43.750   5.024
77859W        W49475   1.317  41.546   3.809
77860W        W49476  32.606  40.317  13.954
77861W        W49477  16.834  19.915   3.357
77862W        W49478  34.108  28.965   2.453
77863W        W49479   4.408  31.634  12.250
77864W        W49480  39.636   8.119   0.799
77865W        W49481  24.815  44.400   3.758
77866W        W49482   3.741  20.448  14.476
77867W        W49483  23.093  33.131  11.796
77868W        W49484  39.770  40.742   3.306
77869W        W49485   7.715  13.864   3.248
77870W        W49486   9.654  29.606  14.414
77871W        W49487  20.175  17.417  13.703
77872W        W49488  34.377  26.647  14.129
77873W        W49489  29.197  29.452   2.275
77874W        W49490   9.601  10.929  11.674
77875W        W49491  25.634  24.042   3.411
77876W        W49492  39.526  17.347   0.378
77877W        W49493   6.429  12.965   4.068
77878W        W49494  25.453  17.179  11.989
77879W        W49495  31.061   1.932  14.672
77880W        W49496   7.650   4.908  10.742
77881W        W49497   5.215  16.094   3.411
77882W        W49498  15.746  18.375  12.439
77883W        W49499  38.519  38.349   3.137
77884W        W49500  10.676   0.846  10.765
77885W        W49501  35.681  11.736   0.805
77886W        W49502  37.123  28.858   2.599
77887W        W49503  28.992  37.377   1.713
77888W        W49504  35.300   3.931   2.755
77889W        W49505   8.340   7.637  12.070
77890W        W49506  32.507  37.267  13.089
77891W        W49507   7.955  41.462   4.289
77892W        W49508  40.924  26.224  14.051
77893W        W49509  22.980   9.381   2.843
77894W        W49510   4.851  16.154  14.163
77895W        W49511  20.309   2.279   1.670
77896W        W49512  19.085  12.142   3.530
77897W        W49513  24.261  16.611  13.409
77898W        W49514  22.217  13.678  11.563
77899W        W49515   1.244   5.949  11.967
77900W        W49516  21.173  40.610  14.748
77901W        W49517  13.736  33.401  11.939
77902W        W49518  11.791  24.511   4.151
77903W        W49519  34.823  22.141   3.211
77904W        W49520  38.351   9.654  12.920
77905W        W49521  16.134  32.218  12.033
77906W        W49522   3.274   1.413  12.339
77907W        W49523  22.755   5.196   2.239
77908W        W49524  27.650  23.712   3.038
77909W        W49525  33.446  14.332   0.499
77910W        W49526  38.853  14.020   3.269
77911W        W49527  43.977  39.444  12.551
77912W        W49528   4.950  39.458   1.905
77913W        W49529  29.022   6.895  12.405
77914W        W49530  27.001  41.918   0.320
77915W        W49531  40.285   7.660   4.911
77916W        W49532   9.095  20.682   0.152
77917W        W49533   6.903  16.269  11.232
77918W        W49534  16.516  37.841   4.724
77919W        W49535  27.139   0.947  10.989
77920W        W49536  28.039  28.593   2.219
77921W        W49537  21.826  21.539   2.245
77922W        W49538  15.533  36.108  11.202
77923W        W49539  33.585   1.974  11.511
77924W        W49540  12.457  22.475  11.158
77925W        W49541   4.782   5.830  13.614
77926W        W49542  42.971  37.864  13.203
77927W        W49543  19.606  35.755  11.503
77928W        W49544   2.070  41.534   3.254
77929W        W49545   2.698  22.538  13.866
77930W        W49546   9.669  39.954  12.144
77931W        W49547  22.999  23.166  14.505
77932W        W49548  10.913  18.373  11.218
77933W        W49549   9.244  29.420  13.384
77934W        W49550   3.908  24.894   1.246
77935W        W49551  35.996  39.466  12.638
77936W        W49552  25.392  30.098   1.187
77937W        W49553  23.635  41.547   1.869
77938W        W49554   3.803  10.912  10.710
77939W        W49555  41.857  19.918   4.228
77940W        W49556  17.855  26.420  11.046
77941W        W49557  31.039  29.084   1.019
77942W        W49558  19.730  42.289   0.956
77943W        W49559  24.064  36.789  11.689
77944W        W49560   0.368  10.883  10.603
77945W        W49561  11.215  26.355  11.998
77946W        W49562  42.515   3.386   4.544
77947W        W49563  13.833  22.488   2.821
77948W        W49564  38.065   6.792   1.703
77949W        W49565  17.208  29.610  12.164
77950W        W49566   8.221  44.597  10.755
77951W        W49567  28.234  17.803   3.908
77952W        W49568  34.460  44.693  10.132
77953W        W49569   9.236   9.840   1.149
77954W        W49570  41.370   2.830  11.189
77955W        W49571  25.066   3.306  11.154
77956W        W49572  42.469   7.819  12.595
77957W        W49573  17.836  42.500   0.993
77958W        W49574  32.052  39.587   3.616
77959W        W49575   1.948   7.849   0.277
77960W        W49576  32.267  43.214   2.359
77961W        W49577   1.192  31.868  13.790
77962W        W49578  24.263   7.640  11.626
77963W        W49579  32.481   9.321   4.968
77964W        W49580   6.212  14.002  13.206
77965W        W49581  20.642  15.681   3.731
77966W        W49582   7.573  17.841  11.769
77967W        W49583  39.140   4.567   4.617
77968W        W49584  17.812  38.073  13.337
77969W        W49585   7.897  41.352  10.461
77970W        W49586  36.448  12.589   5.178
77971W        W49587   9.996  39.877   2.457
77972W        W49588  15.730  12.097   2.445
77973W        W49589  21.741  18.185   0.390
77974W        W49590  16.497  32.960  12.610
77975W        W49591  13.340  17.526   3.829
77976W        W49592   8.480   8.228  14.551
77977W        W49593  15.704  29.907  14.870
77978W        W49594  10.624  14.287   0.885
77979W        W49595   3.073  35.411   3.666
77980W        W49596   5.666  13.598   0.480
77981W        W49597  41.267  30.472  13.922
77982W        W49598  40.365   1.519   4.628
77983W        W49599  16.798   1.350   2.351
77984W        W49600  15.806   1.953  14.998
77985W        W49601  16.295  21.214  12.473
77986W        W49602  31.498  35.365  12.643
77987W        W49603  30.100  30.569   2.467
77988W        W49604   5.472   9.569   4.917
77989W        W49605  13.208   2.743   4.222
77990W        W49606   4.410   8.658   4.907
77991W        W49607  39.953  21.715   1.363
77992W        W49608  31.758  31.581   3.282
77993W        W49609   1.510  19.674   1.991
77994W        W49610  12.448  26.980  12.241
77995W        W49611  33.162  24.601  13.531
77996W        W49612  28.660  33.952  14.976
77997W        W49613  44.807  36.348   0.133
77998W        W49614  15.679  19.493  14.702
77999W        W49615  38.558   0.258   3.399
78000W        W49616  21.572  11.810   4.112
78001W        W49617  28.948   2.773  11.550
78002W        W49618  10.807  11.742   4.842
78003W        W49619  16.138  42.510   2.668
78004W        W49620  10.266  27.727  13.495
78005W        W49621  22.591  28.722  11.562
78006W        W49622  39.408  25.066   4.659
78007W        W49623  35.417   2.949   3.467
78008W        W49624  35.959   5.207   1.357
78009W        W49625  27.913   1.906   3.610
78010W        W49626  44.116  35.847  13.456
78011W        W49627  26.522  18.668  14.505
78012W        W49628   0.247  38.431   2.803
78013W        W49629   8.312  16.647   1.858
78014W        W49630  41.767   2.500   3.751
78015W        W49631  11.825  41.968  10.872
78016W        W49632  11.164  21.093  11.415
78017W        W49633  31.981  24.589   2.304
78018W        W49634   8.403  18.788   4.255
78019W        W49635  14.617  40.862  11.665
78020W        W49636  40.962  26.389   1.884
78021W        W49637  19.083   9.329   3.874
78022W        W49638  18.096   7.326  13.718
78023W        W49639  18.731  21.673   4.389
78024W        W49640  24.644  27.879   3.564
78025W        W49641  37.889  20.678  11.212
78026W        W49642  32.597  38.834   1.881
78027W        W49643  37.895  23.159  11.050
78028W        W49644  11.843  32.114   4.042
78029W        W49645   0.477  10.710  14.933
78030W        W49646   7.221  39.806  12.030
78031W        W49647  23.734  31.007   0.327
78032W        W49648  14.554  28.997  11.967
78033W        W49649  15.336   2.404   1.212
78034W        W49650  15.619  32.788  14.447
78035W        W49651  29.049  35.452   2.699
78036W        W49652  16.094  33.131   4.123
78037W        W49653   7.633  14.564   1.361
78038W        W49654   4.268  28.940   0.424
78039W        W49655  25.034  24.365   1.380
78040W        W49656  28.667  29.561  13.808
78041W        W49657  13.569  34.894   2.793
78042W        W49658   4.507   2.230   3.109
78043W        W49659  42.542   7.809  12.084
78044W        W49660  40.324  21.609  11.288
78045W        W49661  25.790   8.184  11.071
78046W        W49662  19.219  35.539   1.905
78047W        W49663  30.515   6.461  13.374
78048W        W49664  30.136  37.611  10.685
78049W        W49665  29.402  26.539   2.273
78050W        W49666  21.970   8.555   1.756
78051W        W49667   9.010  32.494   1.290
78052W        W49668  26.225  19.139   3.544
78053W        W49669  14.553   4.407   0.532
78054W        W49670  44.008   7.200   0.414
78055W        W49671  13.033  35.012   3.653
78056W        W49672  20.296  42.226  13.084
78057W        W49673  30.360  32.428  13.803
78058W        W49674  25.543  37.602   1.331
78059W        W49675  39.093  20.581  12.529
78060W        W49676  17.354   2.204  13.492
78061W        W49677   8.137   9.274   0.594
78062W        W49678   2.006  18.571   0.587
78063W        W49679  34.623  25.714  13.766
78064W        W49680  14.239  15.271  12.409
78065W        W49681  18.495  13.749  14.389
78066W        W49682  42.783  19.723   4.418
78067W        W49683   2.730  10.785  14.891
78068W        W49684   5.848   3.390  13.033
78069W        W49685  15.741  31.484   2.033
78070W        W49686  38.966  18.116   0.309
78071W        W49687   2.054   0.929   0.420
78072W        W49688  32.271   4.481   3.253
78073W        W49689  17.960   4.435   0.305
78074W        W49690  23.033  43.803   0.361
78075W        W49691   9.930  36.538  12.810
78076W        W49692  30.890  30.998   1.539
78077W        W49693  39.443  10.255   1.186
78078W        W49694   8.761  28.560  12.345
78079W        W49695  33.470  22.249  12.480
78080W        W49696  31.601  42.093   2.688
78081W        W49697  40.692  40.107   0.411
78082W        W49698  20.564   2.676   3.227
78083W        W49699  34.588  20.879  10.667
78084W        W49700  22.578  29.492  14.547
78085W        W49701  41.157   3.034   4.193
78086W        W49702   7.632  34.951   1.960
78087W        W49703  39.597  15.203   3.244
78088W        W49704  17.984  32.505   2.677
78089W        W49705   6.011   4.656   2.367
78090W        W49706   2.757   2.943   4.308
78091W        W49707  38.971   9.864  13.963
78092W        W49708  12.329  41.411  13.819
78093W        W49709  15.206   6.806  13.020
78094W        W49710  39.415  14.790  13.809
78095W        W49711  28.513   7.460  14.737
78096W        W49712  37.393  10.626  12.195
78097W        W49713  31.240  19.812   3.165
78098W        W49714  36.443  21.662   4.588
78099W        W49715  37.906  38.932  11.293
78100W        W49716  11.099  18.211   3.923
78101W        W49717   5.430  33.717   4.140
78102W        W49718  12.660  35.754   3.284
78103W        W49719  18.152  23.058  10.531
78104W        W49720  43.875   3.339  12.859
78105W        W49721  26.413  38.018   3.901
78106W        W49722  17.650  31.090   3.213
78107W        W49723   6.983   1.119   3.567
78108W        W49724  36.784   0.237   2.858
78109W        W49725   1.476  14.617  11.900
78110W        W49726  38.814  17.660   1.638
78111W        W49727  18.203   2.214  13.037
78112W        W49728  15.847  35.509   2.876
78113W        W49729   9.883  16.580  11.639
78114W        W49730  28.396  35.568  10.749
78115W        W49731   2.340  39.136   4.664
78116W        W49732  11.353  28.222   4.293
78117W        W49733  40.760   0.028  10.652
78118W        W49734  19.099  26.224  12.414
78119W        W49735  31.657  44.443   0.830
78120W        W49736  17.739  24.759  13.825
78121W        W49737  26.711  18.115  14.828
78122W        W49738  21.417  31.424   1.752
78123W        W49739  18.158   9.995   9.904
78124W        W49740  24.639   2.754   0.841
78125W        W49741  18.975  37.864  13.970
78126W        W49742  30.481  32.093   2.347
78127W        W49743  21.796  21.454  10.900
78128W        W49744  36.031  35.764   1.896
78129W        W49745  42.325  23.140   4.642
78130W        W49746  42.407  33.391  13.971
78131W        W49747  17.288  20.510  10.694
78132W        W49748   2.690  27.247  13.298
78133W        W49749  14.635  27.553  14.029
78134W        W49750  32.572  15.819  10.367
78135W        W49751  33.531  42.973  10.238
78136W        W49752  16.514  28.600   1.909
78137W        W49753  39.009   1.015   3.183
78138W        W49754   7.262  17.588  13.557
78139W        W49755  10.551  38.696  14.823
78140W        W49756   6.015  44.576   4.488
78141W        W49757   4.522  28.056   4.886
78142W        W49758  30.383  12.774   3.554
78143W        W49759  32.866  13.626  13.857
78144W        W49760  19.143  29.827   1.894
78145W        W49761  13.725  41.968   0.749
78146W        W49762  38.844  15.951   3.386
78147W        W49763  42.804   2.686  12.620
78148W        W49764  32.944  39.026  14.033
78149W        W49765  44.679  31.059  10.781
78150W        W49766  20.145  25.503   1.357
78151W        W49767  35.534   4.849  13.335
78152W        W49768  14.460  26.836   0.307
78153W        W49769  36.632  33.412  14.376
78154W        W49770  39.835  25.359   3.292
78155W        W49771  27.737  34.393  14.892
78156W        W49772  36.544  38.513   2.855
78157W        W49773   1.351  10.051   1.832
78158W        W49774  44.037  42.547  12.074
78159W        W49775   2.453  35.998  10.300
78160W        W49776  12.555  15.178   4.908
78161W        W49777  21.591  17.860  11.852
78162W        W49778   7.674  24.361   2.684
78163W        W49779  33.992  24.003  11.087
78164W        W49780  19.095   0.918  13.279
78165W        W49781  40.266   8.890   2.621
78166W        W49782   3.980   4.134  12.355
78167W        W49783  10.229  33.928   1.752
78168W        W49784   4.305  41.015  11.657
78169W        W49785  15.346   2.902  12.119
78170W        W49786  39.849   7.841  12.912
78171W        W49787  28.688  13.747  10.232
78172W        W49788  36.856  40.234   3.830
78173W        W49789  39.360  20.487   3.233
78174W        W49790  13.209  23.536   2.247
78175W        W49791  23.501  39.326   1.218
78176W        W49792  39.675  10.967  13.964
78177W        W49793  13.739  26.260  14.965
78178W        W49794  41.101  26.031   4.350
78179W        W49795   2.709  10.392   1.850
78180W        W49796   8.154  35.979  11.611
78181W        W49797   9.375   0.693  12.887
78182W        W49798   9.276  14.720   4.411
78183W        W49799  21.863  25.219   1.103
78184W        W49800  34.115   7.873  14.825
78185W        W49801  17.337  14.786   1.271
78186W        W49802  36.332   3.632  11.576
78187W        W49803  20.319  13.840  10.624
78188W        W49804   7.247   2.893  11.314
78189W        W49805  42.510  41.941  14.097
78190W        W49806  33.731  27.512   1.678
78191W        W49807  27.676   0.100   4.638
78192W        W49808  43.058  17.631   2.720
78193W        W49809  30.088  25.178  12.340
78194W        W49810  38.576  40.016  12.574
78195W        W49811  43.526  16.241   2.212
78196W        W49812  32.402   1.042   2.667
78197W        W49813  13.606  35.465  14.578
78198W        W49814   3.577  39.059   1.803
78199W        W49815  34.472   5.710   4.156
78200W        W49816  18.339  37.679   0.739
78201W        W49817  19.020  38.969   0.879
78202W        W49818   9.369  23.641  12.767
78203W        W49819   1.847  22.720   0.505
78204W        W49820  20.811  43.835  14.373
78205W        W49821   8.199  17.263  10.728
78206W        W49822   5.449   8.681   1.813
78207W        W49823  11.527  22.269   3.108
78208W        W49824  24.366  13.880  12.830
78209W        W49825  44.456  15.563  11.664
78210W        W49826   9.717  16.303  10.376
78211W        W49827  36.933  32.690  11.993
78212W        W49828  32.921  25.218  12.113
78213W        W49829  25.707  44.867   2.645
78214W        W49830   9.414   8.412   3.682
78215W        W49831   5.462  29.672   1.266
78216W        W49832  26.520  33.990   0.006
78217W        W49833  23.703  37.842   1.353
78218W        W49834   8.886  25.182   2.809
78219W        W49835  20.883   9.135   2.651
78220W        W49836  32.872  22.085   4.796
78221W        W49837  15.755  31.641  13.767
78222W        W49838  18.594  35.419  13.431
78223W        W49839  44.484  12.181  12.771
78224W        W49840  21.224  32.595  14.813
78225W        W49841  18.229  39.188   4.197
78226W        W49842  28.057   1.889   5.110
78227W        W49843  16.860  17.850   4.625
78228W        W49844   9.361  31.817  10.590
78229W        W49845  16.655  16.247  14.788
78230W        W49846   2.539  24.937  14.400
78231W        W49847  29.413  22.275  12.801
78232W        W49848   8.670  40.447  13.391
78233W        W49849  31.913   6.358  11.475
78234W        W49850  18.197  39.294  14.538
78235W        W49851   8.421  40.178  11.082
78236W        W49852  43.448   8.805   1.893
78237W        W49853  27.655   6.180   4.637
78238W        W49854  20.749  37.912   4.616
78239W        W49855  26.146  15.890   2.953
78240W        W49856  25.032  12.651  12.988
78241W        W49857  30.083   0.434  11.749
78242W        W49858  32.863   5.903   0.736
78243W        W49859  44.451   8.838   1.876
78244W        W49860   8.132  27.744   1.875
78245W        W49861  17.157   8.362  14.000
78246W        W49862   1.977  27.528   1.222
78247W        W49863   2.227  19.650   2.872
78248W        W49864  28.921  23.544  10.707
78249W        W49865  31.514  39.806  12.993
78250W        W49866  44.744  18.627  12.160
78251W        W49867  33.464   3.877   2.841
78252W        W49868  20.548  17.661   2.612
78253W        W49869  26.427  23.236  13.184
78254W        W49870  14.152  19.226   4.902
78255W        W49871  20.543  10.034  11.983
78256W        W49872   3.945  25.432  12.627
78257W        W49873  37.902  15.538   0.421
78258W        W49874   8.644  40.566   1.082
78259W        W49875  18.075  14.220   1.735
78260W        W49876  41.393  40.074  11.116
78261W        W49877  27.205  34.550   2.934
78262W        W49878  37.601  15.884  14.483
78263W        W49879  19.485  23.505  11.985
78264W        W49880  19.355   0.119   5.541
78265W        W49881  26.062  10.911  14.264
78266W        W49882  36.912  16.933  11.517
78267W        W49883  42.293   3.465  11.494
78268W        W49884  16.594   0.204  11.648
78269W        W49885  20.074  29.663   4.776
78270W        W49886  35.468  24.204   0.925
78271W        W49887  30.047  37.057  12.845
78272W        W49888  15.773   0.926  14.308
78273W        W49889  21.163  30.476   0.762
78274W        W49890  10.687  39.402  12.528
78275W        W49891  13.704  19.347  12.011
78276W        W49892  14.269  34.451  14.529
78277W        W49893   6.363  44.060  13.492
78278W        W49894  38.331  24.957   0.037
78279W        W49895   0.461  22.800   0.006
78280W        W49896  25.476   3.497   0.872
78281W        W49897  44.920  44.739  10.859
78282W        W49898  12.584  28.100   0.390
78283W        W49899   3.898  22.992  13.049
78284W        W49900  22.523   9.091  12.110
78285W        W49901  32.047  22.586  10.224
78286W        W49902  12.204   6.225  14.058
78287W        W49903  23.441  10.756   0.409
78288W        W49904   9.155  17.638  14.794
78289W        W49905  20.991  30.686   0.292
78290W        W49906  19.284  36.071  13.941
78291W        W49907  39.073  29.863  13.635
78292W        W49908  10.781  14.602   4.288
78293W        W49909  20.929  34.411   5.047
78294W        W49910  20.107  30.570   0.224
78295W        W49911  26.721  37.121   4.439
78296W        W49912   1.908  23.046   0.891
78297W        W49913  20.490   9.836  13.613
78298W        W49914  12.802   1.292  11.965
78299W        W49915  44.312   5.404  13.574
78300W        W49916  13.219   2.358  13.216
78301W        W49917  29.658  24.020  13.107
78302W        W49918  20.889  34.368   3.820
78303W        W49919  41.377  30.256   3.283
78304W        W49920  14.232  19.139  11.428
78305W        W49921  33.461   9.239  13.061
78306W        W49922  11.742  15.374  12.489
78307W        W49923  27.232  32.880   3.211
78308W        W49924  23.124  28.189  11.658
78309W        W49925  26.087  34.112  14.240
78310W        W49926  31.756  18.281   0.297
78311W        W49927  41.034  40.509  12.408
78312W        W49928  38.431  21.520  12.068
78313W        W49929  19.707  32.186   0.906
78314W        W49930  34.666  19.011   4.070
78315W        W49931  19.792   0.786  11.907
78316W        W49932  42.735   9.243  12.911
78317W        W49933  17.499  22.252  11.136
78318W        W49934  43.940  37.650  11.573
78319W        W49935  12.081   7.321  12.973
78320W        W49936   4.920  15.945   4.673
78321W        W49937  33.188  37.055   0.240
78322W        W49938  22.088  28.743   4.486
78323W        W49939  36.884  38.074  14.388
78324W        W49940  33.329  39.918   1.426
78325W        W49941  28.301  33.444   3.846
78326W        W49942  33.924  20.513   0.631
78327W        W49943   4.288  23.927  13.945
78328W        W49944  44.194   7.320  12.974
78329W        W49945  44.323   9.327   0.025
78330W        W49946  29.911  22.485  10.925
78331W        W49947   5.289  10.153  14.338
78332W        W49948  13.098  10.339   4.008
78333W        W49949  24.685  10.903  14.938
78334W        W49950  40.368   1.520  14.791
78335W        W49951  22.896   0.217   0.537
78336W        W49952  29.529  29.506  14.439
78337W        W49953  16.138  32.707  12.928
78338W        W49954  18.537   4.003   2.916
78339W        W49955  11.673  43.993  14.797
78340W        W49956  22.485  10.289  14.466
78341W        W49957  15.558   3.648   1.244
78342W        W49958   4.654   4.733   4.537
78343W        W49959  18.943  37.042   1.155
78344W        W49960  25.580  16.045   3.697
78345W        W49961  26.039   9.090  10.599
78346W        W49962  41.953  42.069   2.619
78347W        W49963  18.516  16.137   0.843
78348W        W49964  36.453  41.014  11.589
78349W        W49965  37.620  22.766  11.968
78350W        W49966  32.145  29.481  14.464
78351W        W49967   9.186  30.877  11.608
78352W        W49968  42.405  37.490   5.428
78353W        W49969  29.507  43.980   3.275
78354W        W49970  22.705   7.283  14.313
78355W        W49971  11.095  32.207  13.445
78356W        W49972  26.940  32.618  14.003
78357W        W49973   8.590  33.941   0.854
78358W        W49974   5.608  18.107  12.519
78359W        W49975  20.774  42.063  10.765
78360W        W49976  19.288  18.335   3.217
78361W        W49977   5.758   6.455   4.527
78362W        W49978   5.849  10.361  10.773
78363W        W49979  31.379  16.044   2.099
78364W        W49980  18.220  11.158  12.535
78365W        W49981  30.079  38.955  12.668
78366W        W49982  44.089  38.515   0.990
78367W        W49983  42.167   0.011   4.052
78368W        W49984  11.644   3.510   5.379
78369W        W49985   7.440  11.139   0.717
78370W        W49986  28.934  14.260  11.061
78371W        W49987   7.881  23.543  12.290
78372W        W49988   9.815  37.647   0.716
78373W        W49989  42.528  26.013  10.734
78374W        W49990  19.053   1.255  14.963
78375W        W49991  10.696  25.073  14.434
78376W        W49992   9.110  40.794  11.069
78377W        W49993  13.675  13.102   3.691
78378W        W49994  27.572  36.637   0.460
78379W        W49995  22.953  39.958  12.146
78380W        W49996  12.855   4.829   2.801
78381W        W49997  20.924  19.842  10.070
78382W        W49998  41.269  21.042  13.847
78383W        W49999   6.450  21.156   1.787
78384W        W50000  17.297  26.171  14.564
78385W        W50001  37.158  35.771  12.083
78386W        W50002  29.930  10.175  11.409
78387W        W50003   6.425  44.200   2.377
78388W        W50004  18.603  35.158  11.991
78389W        W50005  24.686  20.712   3.118
78390W        W50006  37.024  38.401  12.072
78391W        W50007  34.555  41.054  14.320
78392W        W50008  42.595  13.755   3.742
78393W        W50009  24.455  22.803  11.214
78394W        W50010  19.034  13.770  11.607
78395W        W50011  31.771  25.173   1.379
78396W        W50012  11.611  12.206   1.878
78397W        W50013  31.408   6.554   0.042
78398W        W50014  32.971  27.946  10.752
78399W        W50015  27.476  12.655   2.884
78400W        W50016  24.894  38.116  12.358
78401W        W50017  20.668  11.892   2.318
78402W        W50018  30.931  32.301  11.131
78403W        W50019  20.180  44.033  11.995
78404W        W50020  21.056  17.672  11.564
78405W        W50021  36.727  34.553  12.018
78406W        W50022  24.949  44.411  11.062
78407W        W50023  20.946   9.698  13.100
78408W        W50024  21.651  24.480  10.757
78409W        W50025  32.044  28.823   2.958
78410W        W50026  37.894  11.252  11.858
78411W        W50027  30.111  10.184  14.773
78412W        W50028  13.770   9.136   1.891
78413W        W50029  34.726  28.971  10.993
78414W        W50030  34.381  17.331   3.414
78415W        W50031  18.268   0.715  11.228
78416W        W50032  23.166  44.088   1.409
78417W        W50033  15.542  43.721   2.333
78418W        W50034  41.309  10.402   1.264
78419W        W50035  11.362  35.631  14.381
78420W        W50036   4.872  20.843  13.184
78421W        W50037  29.113  19.595  10.696
78422W        W50038  24.664  34.599  14.315
78423W        W50039  32.655  43.467   2.075
78424W        W50040  16.736  38.059  11.001
78425W        W50041  13.240  21.391   5.095
78426W        W50042  26.076  39.433   0.923
78427W        W50043  11.311  27.136  10.676
78428W        W50044  21.381  11.584   1.793
78429W        W50045   0.837  36.968   0.766
78430W        W50046   4.874   5.544  11.206
78431W        W50047   0.812   8.283   0.954
78432W        W50048   5.703   6.314  11.316
78433W        W50049  26.625  11.981   5.008
78434W        W50050  23.128  44.742   0.468
78435W        W50051  18.968  43.872   2.108
78436W        W50052  37.654  41.410   0.019
78437W        W50053  25.127  37.648  11.545
78438W        W50054  23.002   6.329   1.918
78439W        W50055  17.534  10.630   4.572
78440W        W50056  35.149  13.663  13.467
78441W        W50057  40.082  40.991   4.628
78442W        W50058   6.824  16.838   4.445
78443W        W50059  25.287  20.584  13.813
78444W        W50060  28.164  28.475   4.365
78445W        W50061  16.584  43.014  14.966
78446W        W50062   9.561   4.321   1.899
78447W        W50063  11.129  31.164   3.163
78448W        W50064  31.874  32.303  12.071
78449W        W50065  23.468   6.144   2.864
78450W        W50066   9.699  15.218  12.397
78451W        W50067   1.702  13.759  11.065
78452W        W50068  39.322   5.228  13.728
78453W        W50069   5.019  15.444  14.735
78454W        W50070  25.369  25.638   0.383
78455W        W50071  34.832   4.701   2.756
78456W        W50072  30.474  21.072   2.002
78457W        W50073  39.403   6.642  13.210
78458W        W50074  43.599  14.863  12.479
78459W        W50075  26.776  23.171  10.561
78460W        W50076   4.432  42.068  10.565
78461W        W50077  28.864  12.161  14.181
78462W        W50078  19.225   5.437   0.953
78463W        W50079  31.501  10.700  10.682
78464W        W50080  29.504  42.517   1.889
78465W        W50081  29.456  29.517  11.142
78466W        W50082   0.808   0.056   2.694
78467W        W50083  20.734  31.487   3.416
78468W        W50084  32.911  36.934  14.808
78469W        W50085   0.255  22.544  10.845
78470W        W50086  35.435   0.427  12.340
78471W        W50087  31.143   3.372  14.931
78472W        W50088  28.618  12.872  13.616
78473W        W50089  35.534   2.339  14.784
78474W        W50090  24.078   1.020   4.553
78475W        W50091  36.635  14.226   0.385
78476W        W50092   4.527  18.732  12.482
78477W        W50093  33.024   7.909  13.395
78478W        W50094  37.975  36.272   0.021
78479W        W50095  29.532  25.768  12.571
78480W        W50096  39.180  19.096   4.468
78481W        W50097  42.902  35.794  14.036
78482W        W50098  41.492  38.378   1.123
78483W        W50099  38.834   4.901   4.277
78484W        W50100  31.972   4.943  11.536
78485W        W50101  34.344  38.860  14.653
78486W        W50102  34.994  13.855  12.994
78487W        W50103  36.521   6.875  12.570
78488W        W50104  44.297  40.473   0.653
78489W        W50105  28.171   1.765   1.647
78490W        W50106  13.333  43.544   3.301
78491W        W50107  37.488  29.861  13.361
78492W        W50108  18.106  44.002   4.127
78493W        W50109  34.270  21.672   3.724
78494W        W50110   1.432  20.637  10.621
78495W        W50111  35.895   8.434  10.489
78496W        W50112  32.065  21.026   4.596
78497W        W50113  21.656   6.855   3.734
78498W        W50114  34.929   2.192   2.371
78499W        W50115  26.250  22.310  12.843
78500W        W50116  11.686  42.699  13.335
78501W        W50117  30.548  15.235  13.892
78502W        W50118  42.930  17.208  12.893
78503W        W50119  13.350  17.154   0.565
78504W        W50120  23.522  25.958  13.497
78505W        W50121   0.570  16.724   0.787
78506W        W50122  34.177  21.309   3.349
78507W        W50123   3.380  29.134  14.321
78508W        W50124  15.855   3.749  14.129
78509W        W50125   3.235  10.363  14.682
78510W        W50126  34.886  27.376  14.281
78511W        W50127  38.801  42.303   0.796
78512W        W50128  24.950  27.611  11.453
78513W        W50129   8.840  35.912   3.945
78514W        W50130  38.285  17.107   2.752
78515W        W50131  34.973   2.888   3.175
78516W        W50132  30.880   1.881  12.624
78517W        W50133  44.483  18.657  10.694
78518W        W50134  16.692  37.595   2.272
78519W        W50135   8.518  23.558   1.850
78520W        W50136  44.765  34.828   0.413
78521W        W50137  27.911  40.458   0.238
78522W        W50138  13.198  30.190   2.320
78523W        W50139  28.796  29.373   9.639
78524W        W50140  41.764   9.982  11.004
78525W        W50141  34.117  35.882  13.496
78526W        W50142   6.084  35.506   3.181
78527W        W50143  21.328  26.263  12.005
78528W        W50144   7.501  32.098  12.408
78529W        W50145  10.104  16.579  13.396
78530W        W50146  29.620   9.120  12.009
78531W        W50147  22.995  10.377  14.473
78532W        W50148   1.061  30.974  10.497
78533W        W50149  31.203   6.397   3.174
78534W        W50150  43.978   2.714  14.253
78535W        W50151  33.720  13.253   0.784
78536W        W50152  24.698   0.109   0.786
78537W        W50153  32.434   2.063   3.198
78538W        W50154  25.547   6.350  12.950
78539W        W50155  39.994  21.566   1.853
78540W        W50156  41.381   5.324   1.639
78541W        W50157  42.064  21.981   1.743
78542W        W50158  28.229   8.726   4.629
78543W        W50159   6.821  38.071  12.542
78544W        W50160  43.605  30.350  14.887
78545W        W50161  38.432   8.202  14.736
78546W        W50162   3.905  18.289  12.001
78547W        W50163   5.145   7.714   0.394
78548W        W50164  31.572  41.089   4.638
78549W        W50165  33.390  19.952   1.175
78550W        W50166  42.975   2.294   2.688
78551W        W50167  42.594  44.342   3.828
78552W        W50168   6.744  30.622  13.981
78553W        W50169  24.954  40.979  12.191
78554W        W50170   0.965  39.255  11.536
78555W        W50171  18.294  16.158   3.254
78556W        W50172   8.954  11.405  11.138
78557W        W50173  15.693   2.822   4.906
78558W        W50174  41.238  38.029   2.810
78559W        W50175  35.486  33.030   4.548
78560W        W50176  42.977   0.343   3.827
78561W        W50177  33.394   6.374   3.867
78562W        W50178  29.333  21.517   4.124
78563W        W50179  13.839  31.923   1.235
78564W        W50180  21.907  36.654  10.657
78565W        W50181   0.346   3.336  10.933
78566W        W50182  17.110  11.855   1.377
78567W        W50183  21.590  37.929   0.346
78568W        W50184  17.168  40.499   4.771
78569W        W50185  42.880  33.937  14.016
78570W        W50186  14.784  10.404  11.210
78571W        W50187  30.990  39.050   5.224
78572W        W50188  41.558  30.077   2.801
78573W        W50189  41.825  44.014  14.228
78574W        W50190  13.334  21.803   3.262
78575W        W50191   6.345  35.382  14.415
78576W        W50192  32.091  29.091   0.218
78577W        W50193   6.692  17.670   4.570
78578W        W50194  43.306  40.356   4.804
78579W        W50195  23.113  13.600   0.828
78580W        W50196   2.241  27.490  11.012
78581W        W50197  37.790  42.520  10.479
78582W        W50198  44.528   5.749   3.165
78583W        W50199  32.592  27.700   3.206
78584W        W50200  12.303   7.859  14.792
78585W        W50201   2.026   5.252  11.178
78586W        W50202  41.261  31.313   2.907
78587W        W50203  44.942  10.686  14.912
78588W        W50204  36.981  36.437  11.295
78589W        W50205   2.344   5.591  11.003
78590W        W50206   5.723  22.722   3.215
78591W        W50207   1.995   7.740  13.783
78592W        W50208  16.519  39.852  12.460
78593W        W50209   9.583  20.640   1.496
78594W        W50210  38.282   2.061   4.208
78595W        W50211  42.887   1.622   4.858
78596W        W50212   4.332  18.555  12.057
78597W        W50213  33.403  18.486  11.746
78598W        W50214  23.988  41.834   3.686
78599W        W50215   7.505   4.304   3.759
78600W        W50216  25.526  21.487   4.404
78601W        W50217  33.891  15.272   0.889
78602W        W50218  19.089  15.505   0.318
78603W        W50219  10.285  12.378   3.823
78604W        W50220  16.878  31.704  14.465
78605W        W50221  36.131  15.333   2.846
78606W        W50222  41.436  18.673  11.430
78607W        W50223  40.015  44.136  12.002
78608W        W50224  43.266  12.363  13.650
78609W        W50225  18.565  42.536  11.546
78610W        W50226   5.379  43.599   3.417
78611W        W50227  13.549  30.900   1.736
78612W        W50228  25.035  14.389   3.850
78613W        W50229  44.962  32.032   2.781
78614W        W50230  25.550  11.189   1.707
78615W        W50231  13.471  21.528   3.680
78616W        W50232  41.861  11.875  12.641
78617W        W50233  34.091   5.029   4.116
78618W        W50234   2.860  17.300   3.670
78619W        W50235  12.333   4.499   2.284
78620W        W50236  21.189  10.807   2.711
78621W        W50237  35.522  31.516  10.652
78622W        W50238  27.372  11.200   3.273
78623W        W50239  41.513  10.114  12.400
78624W        W50240   2.826  31.279  14.149
78625W        W50241  42.016  37.781  13.508
78626W        W50242  31.005  27.723   5.503
78627W        W50243  40.142   0.923   3.886
78628W        W50244  25.225  19.209   1.744
78629W        W50245  14.405  17.494  11.423
78630W        W50246  38.295  39.246  14.384
78631W        W50247  30.129  38.358   3.756
78632W        W50248   6.000   4.966   3.263
78633W        W50249  38.372  27.935  12.355
78634W        W50250  32.594  38.323  11.392
78635W        W50251  28.651  41.680   3.673
78636W        W50252  21.368   2.456   3.723
78637W        W50253  14.133  26.202  12.452
78638W        W50254  33.065  31.979   2.307
78639W        W50255   4.989   3.389   5.155
78640W        W50256  17.877   7.441  12.803
78641W        W50257  22.577  15.567  12.954
78642W        W50258  30.590  43.418   0.880
78643W        W50259  13.163  10.648  13.281
78644W        W50260  17.255  44.493   9.809
78645W        W50261  20.645   7.446  14.261
78646W        W50262  15.331  27.898  13.841
78647W        W50263  21.055  19.480  10.460
78648W        W50264  31.393  34.155  11.148
78649W        W50265  18.258  26.474  13.852
78650W        W50266   4.513  13.241   1.308
78651W        W50267  12.405  25.408   4.148
78652W        W50268  16.225  43.065  11.037
78653W        W50269  37.920   8.168   1.896
78654W        W50270  42.822  39.477  12.222
78655W        W50271  35.545  17.164   3.365
78656W        W50272  36.864  43.600  12.454
78657W        W50273   2.784  14.067   3.824
78658W        W50274   7.286  13.045   0.898
78659W        W50275  34.831   3.242  14.945
78660W        W50276  12.581  43.365   2.842
78661W        W50277  31.053  31.101   2.871
78662W        W50278  34.518   9.129  11.685
78663W        W50279   8.018  23.740  10.829
78664W        W50280  22.292  39.036   4.608
78665W        W50281  10.195  18.584   1.764
78666W        W50282  41.673  16.622  13.048
78667W        W50283  36.335   2.059  11.312
78668W        W50284  43.948   1.897   4.783
78669W        W50285   5.903   0.206  12.990
78670W        W50286  15.423  18.290  12.839
78671W        W50287  44.997  19.512   0.398
78672W        W50288  40.309  20.036  14.972
78673W        W50289  42.919  14.276  14.074
78674W        W50290  23.456  20.582   4.496
78675W        W50291   5.939   1.931  13.964
78676W        W50292  10.385  10.214  13.371
78677W        W50293   7.708  33.598  12.977
78678W        W50294  35.096  12.175   2.268
78679W        W50295  39.982  11.781   2.823
78680W        W50296  28.536  33.826  14.448
78681W        W50297  11.317  18.600   2.290
78682W        W50298   2.237  43.309   9.871
78683W        W50299   8.375  39.545  11.795
78684W        W50300  25.923   5.321   0.663
78685W        W50301   8.637   8.672   4.034
78686W        W50302  21.047  25.705  13.034
78687W        W50303  12.486  34.893   2.764
78688W        W50304  11.323  30.655   2.759
78689W        W50305  39.923  12.641   0.007
78690W        W50306  38.172  11.712  13.878
78691W        W50307  11.393  28.483  13.016
78692W        W50308   2.804  22.740  11.580
78693W        W50309   2.025  42.771   0.761
78694W        W50310  30.343  26.178  11.196
78695W        W50311  14.280   9.395   4.397
78696W        W50312  33.014  43.924  11.862
78697W        W50313   0.922   7.297  14.962
78698W        W50314  38.432   8.197  13.404
78699W        W50315  25.134  29.138   0.795
78700W        W50316  32.474  17.817  10.678
78701W        W50317  30.333  33.470  10.476
78702W        W50318   4.399  32.028  11.931
78703W        W50319   8.821   2.741   4.607
78704W        W50320  37.834  27.537   2.390
78705W        W50321  19.138  38.780  14.402
78706W        W50322   7.420  21.269  11.151
78707W        W50323  14.772  26.872   3.352
78708W        W50324  27.513   8.137   3.166
78709W        W50325  17.024  20.284   0.152
78710W        W50326  42.830   3.787  13.432
78711W        W50327   7.650  29.171   2.616
78712W        W50328  16.445  34.979  11.928
78713W        W50329   3.722  42.026   3.267
78714W        W50330  34.625   6.652   1.328
78715W        W50331   5.927  12.046  13.151
78716W        W50332   5.169  14.452   4.336
78717W        W50333   1.338  14.875  13.347
78718W        W50334   2.292   2.684   4.103
78719W        W50335  24.987  41.814   1.231
78720W        W50336  31.687  37.068  11.064
78721W        W50337  40.586   5.807   2.233
78722W        W50338  20.599  40.800  12.070
78723W        W50339  32.531  11.216   1.656
78724W        W50340   6.263  18.711  10.714
78725W        W50341   6.579   5.845  11.524
78726W        W50342   6.351  27.472  11.139
78727W        W50343  42.547  44.060   1.354
78728W        W50344   5.979  27.025   0.775
78729W        W50345  12.832  23.003  11.968
78730W        W50346   7.637   7.099  13.685
78731W        W50347  38.629   9.656  14.321
78732W        W50348  40.836  16.631   4.426
78733W        W50349  31.518   1.468  13.379
78734W        W50350  40.059  33.176  13.443
78735W        W50351  42.861  29.377   3.863
78736W        W50352  42.360   0.750  14.815
78737W        W50353  11.135   5.303   2.698
78738W        W50354  43.699  26.260  11.899
78739W        W50355  19.703  44.496   2.229
78740W        W50356  31.506  26.018   4.563
78741W        W50357  23.180  39.357  10.386
78742W        W50358  17.064  33.345   4.210
78743W        W50359  10.935  16.083  13.624
78744W        W50360  12.913  28.605  12.672
78745W        W50361  32.962  14.947   4.145
78746W        W50362   1.747  44.464  13.043
78747W        W50363  42.891  17.603   4.884
78748W        W50364   5.280   1.859   0.779
78749W        W50365  29.465   8.895   0.297
78750W        W50366   2.864  21.215   3.794
78751W        W50367  17.135  24.056  13.323
78752W        W50368  26.056  41.267   4.800
78753W        W50369  14.494  31.213   3.701
78754W        W50370  18.757  44.942  12.975
78755W        W50371  37.261  41.311   1.272
78756W        W50372   5.917  37.560  11.533
78757W        W50373  20.848  29.173  11.630
78758W        W50374  35.417  25.580  10.669
78759W        W50375  22.936  20.103  12.705
78760W        W50376  11.024  27.043  13.452
78761W        W50377  17.894  23.061  13.828
78762W        W50378  16.464  16.390  14.317
78763W        W50379  32.625   9.726   4.657
78764W        W50380   2.297  10.093   0.739
78765W        W50381  31.531  43.750   4.398
78766W        W50382  27.137  41.641  14.830
78767W        W50383  13.094  33.295   4.576
78768W        W50384  18.668  16.123   4.498
78769W        W50385   6.966  26.834  10.496
78770W        W50386  25.097  30.501   1.456
78771W        W50387  44.288  33.837  13.322
78772W        W50388   6.131   1.185   3.147
78773W        W50389  39.401   9.731  11.955
78774W        W50390  39.361   7.658   4.529
78775W        W50391  25.162   7.328   0.950
78776W        W50392  26.623  13.283   9.836
78777W        W50393   7.444  18.489   1.782
78778W        W50394   8.214  43.943  12.518
78779W        W50395   0.989  25.061  10.587
78780W        W50396   0.334  29.977  10.686
78781W        W50397  14.994  40.907  14.874
78782W        W50398  44.152   4.584  11.697
78783W        W50399  16.759  22.168   4.661
78784W        W50400  35.997   1.028  10.630
78785W        W50401  29.526  44.917  13.926
78786W        W50402  31.183  40.585  14.032
78787W        W50403  24.496  35.001   4.991
78788W        W50404  11.779  12.699  11.734
78789W        W50405  34.830  43.960   4.250
78790W        W50406   9.697  24.489  14.367
78791W        W50407  33.042  37.510  13.801
78792W        W50408  29.633   5.048  10.355
78793W        W50409  32.814  22.511   0.873
78794W        W50410  33.532   7.278  13.272
78795W        W50411  41.845   5.972   4.859
78796W        W50412  10.252  36.361   1.668
78797W        W50413   5.471  38.274  11.589
78798W        W50414   9.816  30.414  13.084
78799W        W50415   2.243  23.651  11.936
78800W        W50416  44.933  18.607  14.325
78801W        W50417  25.624  14.544   4.609
78802W        W50418   9.096  12.659  13.456
78803W        W50419  35.351  15.603  12.499
78804W        W50420  14.693  39.584  10.493
78805W        W50421  43.314   1.438   2.163
78806W        W50422   5.518  27.413   4.251
78807W        W50423  18.608  12.372   3.264
78808W        W50424  32.739  43.542  11.606
78809W        W50425  12.190   6.745  13.906
78810W        W50426  21.237  39.332  14.349
78811W        W50427  11.325  25.513  12.579
78812W        W50428  17.692  19.543   1.197
78813W        W50429  25.872  39.925  11.066
78814W        W50430   8.704  41.221  11.345
78815W        W50431  10.247  33.603   2.216
78816W        W50432  39.485  40.297   4.506
78817W        W50433   7.861  25.802   3.696
78818W        W50434  12.125  33.362  10.402
78819W        W50435   4.545  15.232   2.716
78820W        W50436  41.285  43.524   3.996
78821W        W50437  28.021  20.271  12.360
78822W        W50438  35.752   2.443   1.799
78823W        W50439  34.487  37.498  12.339
78824W        W50440  18.159  33.575  11.398
78825W        W50441  32.044  36.448  13.616
78826W        W50442  23.975   5.950   2.132
78827W        W50443  42.284  25.085  10.142
78828W        W50444   5.396  40.354   4.154
78829W        W50445  18.325  27.525   1.299
78830W        W50446   0.286   1.552   2.389
78831W        W50447  24.475  31.529  10.804
78832W        W50448  37.136  28.212  11.173
78833W        W50449  19.706  30.079  14.427
78834W        W50450  14.311  13.095  14.130
78835W        W50451   7.015  23.723   3.054
78836W        W50452  15.225   0.795   4.957
78837W        W50453   8.410  35.116  10.746
78838W        W50454  16.179  30.163   3.304
78839W        W50455  37.001  33.218  11.135
78840W        W50456  24.534  38.902   1.864
78841W        W50457  40.251  10.604  12.075
78842W        W50458  34.138   1.582   3.980
78843W        W50459  14.852   9.679   2.784
78844W        W50460  44.200   0.948   1.983
78845W        W50461   6.930  10.129  11.120
78846W        W50462  34.377  28.122   0.258
78847W        W50463  23.681  29.530   4.407
78848W        W50464  18.783  14.380   0.876
78849W        W50465   5.955  38.323   1.179
78850W        W50466   8.289  39.446   3.073
78851W        W50467  23.481   6.312  14.282
78852W        W50468   6.997  30.704   1.271
78853W        W50469   7.028  38.322  12.109
78854W        W50470  29.587   9.602   4.608
78855W        W50471  44.971  23.526   4.397
78856W        W50472   6.334  30.006   4.177
78857W        W50473   6.252  26.075   1.890
78858W        W50474  29.965  36.431  12.895
78859W        W50475  21.938  13.781   1.376
78860W        W50476  16.183  27.507  10.395
78861W        W50477  31.046  44.779   5.550
78862W        W50478  19.184  43.100  11.085
78863W        W50479   9.386  31.043   3.887
78864W        W50480   2.697  22.529  12.518
78865W        W50481  36.993  31.056  13.737
78866W        W50482  27.832  24.508  14.369
78867W        W50483  39.542  20.432   4.667
78868W        W50484  36.088  39.346   0.500
78869W        W50485  26.195  19.314  13.859
78870W        W50486  10.929  33.897   2.656
78871W        W50487  25.138  17.572  12.053
78872W        W50488   8.924  28.412   3.719
78873W        W50489  42.100   8.808  13.065
78874W        W50490  35.645  19.839  11.857
78875W        W50491  23.244  30.205  11.331
78876W        W50492   5.221  13.708  13.914
78877W        W50493  31.909   7.339   4.231
78878W        W50494  25.055  22.921  12.958
78879W        W50495  18.645  29.620  13.047
78880W        W50496  23.774  12.330   1.871
78881W        W50497  27.514   9.672   1.225
78882W        W50498   2.234  27.022  14.475
78883W        W50499  21.697   6.293  14.500
78884W        W50500  33.256  16.678  13.006
78885W        W50501  35.398  20.069  10.486
78886W        W50502   7.623  21.421   4.151
78887W        W50503   0.413  34.237  14.765
78888W        W50504  26.210  20.236  10.433
78889W        W50505   1.179  15.690   0.101
78890W        W50506  41.443   3.046  13.485
78891W        W50507   5.475  23.455  14.382
78892W        W50508  44.440  13.495   4.571
78893W        W50509  16.179  20.990   4.920
78894W        W50510   1.991  14.644  13.044
78895W        W50511  21.544  19.213  11.925
78896W        W50512  16.407  33.326   3.737
78897W        W50513  28.516  40.693   3.782
78898W        W50514  13.083  23.107   1.942
78899W        W50515   5.817  18.636  14.437
78900W        W50516   6.345  38.427   3.656
78901W        W50517  39.644  29.076  12.464
78902W        W50518  24.543  21.966   1.672
78903W        W50519  39.470  29.894  14.287
78904W        W50520  35.944  42.684  14.494
78905W        W50521  13.813   1.268  10.391
78906W        W50522  21.486  25.555   4.660
78907W        W50523  35.602  25.439   2.910
78908W        W50524   5.409  28.931   0.746
78909W        W50525  41.912  41.548   4.627
78910W        W50526  36.386  37.299   0.744
78911W        W50527  32.917  36.979  12.951
78912W        W50528  32.887   3.236   0.966
78913W        W50529  43.890  20.956   0.015
78914W        W50530  40.264  27.336  12.121
78915W        W50531  37.992  36.597  11.276
78916W        W50532  14.423  10.356  13.379
78917W        W50533  29.733  30.791   2.148
78918W        W50534  16.755   8.813   2.273
78919W        W50535   5.779  31.372  13.100
78920W        W50536  22.684  14.642  12.961
78921W        W50537  18.835  20.644   2.946
78922W        W50538  18.626  39.303   2.064
78923W        W50539  27.006  31.404   0.355
78924W        W50540   1.202  39.959   2.634
78925W        W50541  22.150  10.695   4.932
78926W        W50542  42.908  22.511   2.259
78927W        W50543  14.279   2.280   1.365
78928W        W50544  28.414  17.737  11.162
78929W        W50545   6.074  21.456   2.894
78930W        W50546  17.453  30.816   0.334
78931W        W50547  16.892  24.735  11.059
78932W        W50548  20.688  43.329   2.805
78933W        W50549  29.014  29.184   2.841
78934W        W50550   8.699  14.109   2.266
78935W        W50551  34.973   8.948  10.484
78936W        W50552  18.283  19.728  13.875
78937W        W50553   8.723  32.041  10.998
78938W        W50554  28.966   2.917   4.753
78939W        W50555  15.779  16.064  10.271
78940W        W50556  23.349  26.536  10.714
78941W        W50557  41.461  12.064  10.584
78942W        W50558  42.482  40.293  12.402
78943W        W50559  20.114  33.523  14.697
78944W        W50560   3.880  28.083   3.253
78945W        W50561  26.566   6.412  13.803
78946W        W50562   1.559  26.062  13.370
78947W        W50563   9.197  14.150  13.957
78948W        W50564  13.710  37.575  13.798
78949W        W50565  22.279  40.419   3.111
78950W        W50566  42.975   6.520   4.880
78951W        W50567  40.125  16.303   1.780
78952W        W50568  22.952  37.291  12.484
78953W        W50569  32.333  28.412  11.571
78954W        W50570  30.167  40.066  13.911
78955W        W50571  31.212   4.609  11.126
78956W        W50572   9.729  10.930  13.372
78957W        W50573  16.568   5.331  10.653
78958W        W50574  41.139  22.021   3.884
78959W        W50575   2.349  24.582   4.395
78960W        W50576  22.780  11.463   2.610
78961W        W50577  42.558  41.132   4.144
78962W        W50578  40.438  44.326   4.575
78963W        W50579  35.270  24.001   1.904
78964W        W50580  12.676  10.630  11.157
78965W        W50581  21.797  43.070   0.259
78966W        W50582  15.697  40.805   4.876
78967W        W50583  11.825  33.422  11.687
78968W        W50584  44.382  38.839   3.720
78969W        W50585   7.858  37.765  11.228
78970W        W50586  38.552  25.036  11.158
78971W        W50587   3.487   1.579  11.875
78972W        W50588  33.325  26.251   1.715
78973W        W50589  42.594   5.289   3.814
78974W        W50590  32.640  10.185  12.143
78975W        W50591  21.526   5.168   3.188
78976W        W50592  27.994  21.759   3.774
78977W        W50593  15.023   5.839   4.937
78978W        W50594  29.419  23.071   4.848
78979W        W50595  31.841  30.407  13.498
78980W        W50596  40.546  33.499  11.048
78981W        W50597  38.832  27.615   2.751
78982W        W50598  39.478  43.005  12.430
78983W        W50599  12.247  34.191  14.225
78984W        W50600  34.943  35.282  12.969
78985W        W50601  42.851  10.435   2.712
78986W        W50602   5.243  15.361  13.401
78987W        W50603  10.887  28.992   1.721
78988W        W50604  23.031  24.060  11.715
78989W        W50605   0.002  28.172   0.134
78990W        W50606  33.881  26.075  11.150
78991W        W50607   5.344  28.670  13.436
78992W        W50608  29.720  23.172  13.769
78993W        W50609  15.972  24.268  11.566
78994W        W50610  31.646   2.014   5.168
78995W        W50611  34.939   0.355   4.855
78996W        W50612  38.738  19.023  11.526
78997W        W50613   7.167   4.911   0.886
78998W        W50614   4.917  40.231   2.295
78999W        W50615   2.812  33.536   4.350
79000W        W50616  14.103  31.042   3.402
79001W        W50617  13.884  17.326   5.738
79002W        W50618  34.908  26.205   4.177
79003W        W50619  25.621  14.680   9.784
79004W        W50620  20.691  24.034  10.822
79005W        W50621  23.129  34.841   4.081
79006W        W50622  17.242  19.753   0.234
79007W        W50623  25.607   6.415  13.923
79008W        W50624  31.455   9.256   2.711
79009W        W50625   9.450  26.449  11.940
79010W        W50626  21.615  11.130   2.789
79011W        W50627   6.748  33.260   3.139
79012W        W50628  24.291  39.306  11.582
79013W        W50629   7.488  42.247   4.534
79014W        W50630   3.897  38.465  11.577
79015W        W50631  19.865   2.891  11.952
79016W        W50632  22.631  43.871   0.688
79017W        W50633   7.605  15.352  13.878
79018W        W50634  35.884  18.356  12.956
79019W        W50635  28.358  37.598  12.055
79020W        W50636  18.331   5.620   2.026
79021W        W50637  12.312   5.062  11.544
79022W        W50638  40.574  29.493  11.984
79023W        W50639  36.951   2.867  12.767
79024W        W50640   4.527  39.934  12.978
79025W        W50641   8.244  39.153   4.381
79026W        W50642  38.430  20.559  11.174
79027W        W50643  23.995   0.903   4.031
79028W        W50644  38.767  25.985   0.868
79029W        W50645  36.949  41.820   1.686
79030W        W50646  11.230   9.090   3.572
79031W        W50647  16.762  23.048  14.321
79032W        W50648   0.029  38.978  10.436
79033W        W50649  12.760  21.655  11.579
79034W        W50650  27.806  23.174   4.870
79035W        W50651  39.726  14.069  14.131
79036W        W50652   3.098  29.919  14.055
79037W        W50653   3.799  30.717  12.840
79038W        W50654  17.031  39.950  12.619
79039W        W50655  16.740  43.797  10.282
79040W        W50656  35.489  22.024   1.840
79041W        W50657   0.881  18.265  12.931
79042W        W50658  43.926  10.881   4.033
79043W        W50659  23.898  21.230   3.072
79044W        W50660  15.978   4.941   2.466
79045W        W50661  27.121   4.751  10.755
79046W        W50662  33.982  35.501  12.587
79047W        W50663  15.776   1.473   3.356
79048W        W50664  26.093  28.421   1.437
79049W        W50665   6.235  36.470   0.892
79050W        W50666  25.102  36.380   5.167
79051W        W50667   2.408   2.163  13.871
79052W        W50668  15.721  33.109   4.775
79053W        W50669   6.891   0.864  14.809
79054W        W50670   9.845  25.544   4.192
79055W        W50671   6.273   8.263   2.679
79056W        W50672   7.720  43.262  13.439
79057W        W50673  36.263  20.781  14.320
79058W        W50674  44.953  31.431   0.457
79059W        W50675  43.023  11.707   5.051
79060W        W50676  23.500   0.919   0.761
79061W        W50677   5.458  16.941   3.372
79062W        W50678  43.940  36.805   0.848
79063W        W50679  39.041  37.124  11.616
79064W        W50680  37.867   8.618   2.127
79065W        W50681  20.619  12.293  14.877
79066W        W50682   6.781  24.128   4.140
79067W        W50683  21.042   7.382  12.543
79068W        W50684  24.996  28.153  14.804
79069W        W50685  37.960  40.020   2.290
79070W        W50686  10.951  44.172  10.196
79071W        W50687  14.161  34.095  14.908
79072W        W50688  37.354  12.321   0.397
79073W        W50689  11.404   2.033  12.884
79074W        W50690  12.624  26.609   0.153
79075W        W50691   7.276  13.777   4.666
79076W        W50692  31.502  28.900   0.879
79077W        W50693  12.141  37.929  12.859
79078W        W50694  20.808  26.657  13.806
79079W        W50695  19.283   1.380   3.148
79080W        W50696  23.210  44.265   4.378
79081W        W50697   8.100  32.465  10.712
79082W        W50698  20.026  20.266  14.351
79083W        W50699  25.484  31.848   3.027
79084W        W50700  43.269  21.782  14.884
79085W        W50701  16.705  26.552  13.831
79086W        W50702  30.298  24.507   4.670
79087W        W50703  14.636  12.888   4.156
79088W        W50704   5.809  30.186  11.727
79089W        W50705  27.891   5.287  11.638
79090W        W50706  17.809  35.827  12.039
79091W        W50707  12.618   9.741   4.043
79092W        W50708  40.044  35.657  14.735
79093W        W50709   2.398  44.567  14.877
79094W        W50710  17.051  24.122  12.813
79095W        W50711  13.335   4.992   2.847
79096W        W50712  29.172  12.578  12.579
79097W        W50713  22.916  26.658   0.360
79098W        W50714   4.413   0.125   4.995
79099W        W50715  43.294  29.185  12.052
79100W        W50716  26.705  25.668   0.858
79101W        W50717  43.594  26.417  12.853
79102W        W50718   4.609  22.941   2.710
79103W        W50719  31.371   5.360   4.151
79104W        W50720  28.508  43.957  14.294
79105W        W50721  27.210  25.999   0.169
79106W        W50722  33.967  22.208   1.799
79107W        W50723  44.934  19.369  11.647
79108W        W50724   7.181  21.136   3.936
79109W        W50725   3.447   6.333  13.848
79110W        W50726  26.721  37.969  14.933
79111W        W50727   5.174   5.409   1.872
79112W        W50728   8.018  36.596   3.185
79113W        W50729  22.731   1.139   0.244
79114W        W50730   7.551  22.854  12.919
79115W        W50731  22.969  13.135  10.765
79116W        W50732  29.091   7.327   4.265
79117W        W50733  24.979  43.746   4.762
79118W        W50734  32.648   5.053   0.946
79119W        W50735  16.098  32.201   1.731
79120W        W50736   4.762   9.899   3.569
79121W        W50737  30.620  34.443  11.479
79122W        W50738   2.973  26.617  12.411
79123W        W50739   5.054  22.052   2.321
79124W        W50740  37.804  40.966  12.858
79125W        W50741  12.574   5.822   4.611
79126W        W50742  34.603   3.512  14.098
79127W        W50743  25.438  16.216   5.521
79128W        W50744  40.640   1.741  10.277
79129W        W50745  32.944  26.490  13.904
79130W        W50746  30.683  23.758  13.366
79131W        W50747  44.285   7.483   2.198
79132W        W50748   0.470   8.821  12.075
79133W        W50749  32.481  28.204   3.247
79134W        W50750  23.549   6.942   3.501
79135W        W50751   1.705  37.519  12.589
79136W        W50752  12.342  37.640  13.780
79137W        W50753  25.439   9.687  13.044
79138W        W50754   9.351   9.862   1.683
79139W        W50755  43.456  23.058   1.750
79140W        W50756  23.124  14.353  11.530
79141W        W50757  10.371  44.959  12.481
79142W        W50758   1.042  43.736   2.363
79143W        W50759  23.891  29.010  12.044
79144W        W50760  36.992  21.577   4.575
79145W        W50761   0.257  37.883   2.164
79146W        W50762  40.448  40.212  10.723
79147W        W50763  24.511   5.450  13.943
79148W        W50764  43.012   7.835  10.725
79149W        W50765   9.256  40.119  13.604
79150W        W50766   5.187  30.529  10.618
79151W        W50767  41.956  40.115   4.705
79152W        W50768  11.397  34.108  12.933
79153W        W50769  34.901  23.947  14.550
79154W        W50770   7.772   2.731  12.897
79155W        W50771  19.771  43.936  14.516
79156W        W50772  44.461  34.777  11.578
79157W        W50773   4.423  19.047   2.880
79158W        W50774  34.393  32.508  13.439
79159W        W50775   5.735   2.511  11.176
79160W        W50776  31.500  20.801  12.056
79161W        W50777  41.037  19.572  13.002
79162W        W50778  29.224  25.416  12.372
79163W        W50779   6.365   1.146  14.397
79164W        W50780  24.732  27.719  14.613
79165W        W50781  35.503  43.214   1.827
79166W        W50782  44.198  12.547   1.369
79167W        W50783  27.147  10.727  14.840
79168W        W50784  19.602   6.414   5.130
79169W        W50785  44.427  32.026  11.146
79170W        W50786  34.199  27.361   1.848
79171W        W50787  23.481  10.638   4.189
79172W        W50788   7.658  12.712  14.964
79173W        W50789  31.397  10.291  11.736
79174W        W50790  35.020  40.480   0.182
79175W        W50791  15.067   8.827  14.990
79176W        W50792  23.185  24.238   3.148
79177W        W50793   0.670   2.875   0.808
79178W        W50794  38.538  35.544   2.106
79179W        W50795  19.676  25.590   3.673
79180W        W50796  29.933  39.514   1.267
79181W        W50797  22.802  15.352   3.554
79182W        W50798  18.291  30.702  11.658
79183W        W50799  25.582  11.358  11.595
79184W        W50800   7.494   1.272  13.527
79185W        W50801   7.044  33.619   1.391
79186W        W50802  42.445   1.244   0.039
79187W        W50803  27.196  27.636  12.415
79188W        W50804  25.819  18.670  11.888
79189W        W50805  33.499  31.580  11.576
79190W        W50806  35.852  10.914   1.516
79191W        W50807  10.758  28.481  11.668
79192W        W50808  32.938  38.683   3.303
79193W        W50809  22.474  30.723  11.682
79194W        W50810  27.153   9.635  10.939
79195W        W50811   9.703   5.236  11.049
79196W        W50812  13.792  28.108  10.665
79197W        W50813  13.817  14.356  14.287
79198W        W50814  15.547  27.794  12.581
79199W        W50815  31.608   0.724  12.318
79200W        W50816  18.713   6.181  11.216
79201W        W50817  12.578   1.535  14.886
79202W        W50818  28.339  31.655   0.638
79203W        W50819  35.171  24.616  14.348
79204W        W50820   8.779   4.394   2.432
79205W        W50821   1.758   5.976  12.230
79206W        W50822  30.909  12.177   3.124
79207W        W50823  21.766   6.489  13.982
79208W        W50824  36.581  18.750  11.566
79209W        W50825  14.889  32.564   3.823
79210W        W50826   4.158  21.180  10.561
79211W        W50827  10.826  30.896  11.871
79212W        W50828  41.342  40.714   1.896
79213W        W50829   8.708  37.112  11.199
79214W        W50830  38.929  24.995  10.797
79215W        W50831   0.823  38.846   0.640
79216W        W50832  38.443   4.470   1.783
79217W        W50833  26.159  39.911   4.566
79218W        W50834  19.448  20.161  14.316
79219W        W50835  34.854  40.304  11.649
79220W        W50836  36.308  25.087   0.112
79221W        W50837  30.936  16.390   0.514
79222W        W50838  25.708  43.081   4.096
79223W        W50839  41.988  26.506   3.021
79224W        W50840  26.138  18.159   1.805
79225W        W50841   4.296  12.272   3.702
79226W        W50842  28.273  20.612   3.083
79227W        W50843  24.047  33.436  13.051
79228W        W50844  37.000  22.809   3.258
79229W        W50845  40.222  29.686   4.599
79230W        W50846  17.984  24.668   3.636
79231W        W50847  27.608  25.972   4.527
79232W        W50848   9.370   2.233   4.244
79233W        W50849  22.617  15.841  10.994
79234W        W50850   8.477   7.831   2.265
79235W        W50851  41.589  29.262   1.653
79236W        W50852  15.019   0.889  12.503
79237W        W50853  11.192  13.273   4.086
79238W        W50854  37.078   2.432   2.355
79239W        W50855  34.887   1.733   0.300
79240W        W50856  38.439  30.456  10.946
79241W        W50857   5.349  16.618   1.860
79242W        W50858  13.864  40.256  12.923
79243W        W50859   6.671  44.945   0.376
79244W        W50860   2.270  18.962   3.221
79245W        W50861  31.884   4.431   1.458
79246W        W50862  41.248  40.380  14.794
79247W        W50863  31.829   4.451   2.342
79248W        W50864  21.271   0.250   4.134
79249W        W50865   4.061  27.803   4.161
79250W        W50866  33.604  20.708   3.866
79251W        W50867  36.140  29.520  10.711
79252W        W50868  38.774  25.172  14.836
79253W        W50869  19.941  23.993  12.706
79254W        W50870  11.318  19.727  14.750
79255W        W50871  22.277  17.017  12.050
79256W        W50872  42.297  21.782   1.331
79257W        W50873  20.803   6.319   0.766
79258W        W50874  44.115   6.196   4.129
79259W        W50875  33.554  10.221  14.311
79260W        W50876  30.624  16.057  13.322
79261W        W50877  37.339   9.183  14.618
79262W        W50878  28.954  24.675  13.805
79263W        W50879  24.608  20.717  10.742
79264W        W50880  21.794  27.551  10.760
79265W        W50881   6.126  17.102   0.362
79266W        W50882  32.900  39.246   2.329
79267W        W50883  13.897  41.746  11.142
79268W        W50884  32.557   2.438   5.147
79269W        W50885  20.635  14.086   2.671
79270W        W50886  10.111  25.817   3.148
79271W        W50887  20.773  41.462  14.508
79272W        W50888   9.801   7.251   2.314
79273W        W50889  17.312  10.259  12.969
79274W        W50890  15.548  18.750   4.566
79275W        W50891  17.067  43.337  10.317
79276W        W50892  44.943  13.081   1.347
79277W        W50893  15.700  12.314   3.315
79278W        W50894  41.397   9.324  10.676
79279W        W50895  15.511  28.785   2.723
79280W        W50896  22.002   3.316   4.091
79281W        W50897  18.601  31.064   3.605
79282W        W50898  15.123  30.893   0.519
79283W        W50899  30.614  28.474   2.712
79284W        W50900  24.744  16.745   2.760
79285W        W50901   7.160  23.755   2.302
79286W        W50902  40.967  43.250  13.725
79287W        W50903  25.633  14.515  14.885
79288W        W50904  33.582  34.400   2.140
79289W        W50905  41.249  32.536  11.323
79290W        W50906  26.183  13.389   2.231
79291W        W50907  22.216  32.663   3.125
79292W        W50908  39.312  41.668   3.217
79293W        W50909   2.772  17.560   2.365
79294W        W50910  30.520  20.268   4.891
79295W        W50911  40.883  21.314   3.205
79296W        W50912   3.267  28.827   2.391
79297W        W50913  10.974  42.325   4.724
79298W        W50914   2.774  31.403   1.999
79299W        W50915  24.597   3.108  11.128
79300W        W50916   1.539  41.003  11.538
79301W        W50917  44.791  19.276  12.960
79302W        W50918  13.885   6.377  11.471
79303W        W50919   4.965   8.920  14.434
79304W        W50920  26.021  18.637  14.696
79305W        W50921  25.929   3.929   2.835
79306W        W50922  26.241  42.021   1.663
79307W        W50923  44.403  40.617   4.251
79308W        W50924   9.613  22.744  13.392
79309W        W50925  20.281  20.009   4.936
79310W        W50926  22.237   5.374   3.591
79311W        W50927  12.279   1.688  14.078
79312W        W50928   4.567  28.967   1.766
79313W        W50929  39.015  26.019  11.008
79314W        W50930  29.571  14.213  14.753
79315W        W50931  21.265  37.922   4.611
79316W        W50932  31.493  12.218   3.334
79317W        W50933  40.227  41.040   2.430
79318W        W50934  10.239  40.444   1.781
79319W        W50935  30.667  37.491  11.610
79320W        W50936  26.960  12.341  12.004
79321W        W50937  22.360   0.644   3.345
79322W        W50938  18.561  42.449   2.720
79323W        W50939  24.627  20.752  11.597
79324W        W50940  40.113  33.224  11.111
79325W        W50941  36.570  18.305  12.650
79326W        W50942  21.511   4.790   4.502
79327W        W50943   9.882  17.619   0.349
79328W        W50944  17.580  39.507   0.917
79329W        W50945   3.910   6.404  14.077
79330W        W50946   2.892  27.623   3.228
79331W        W50947  41.825  10.444   1.862
79332W        W50948  30.513   2.004   0.319
79333W        W50949  22.684  16.276   0.825
79334W        W50950  19.710   3.319  13.597
79335W        W50951  29.162  39.617  11.815
79336W        W50952   8.439   2.974   1.358
79337W        W50953   6.874   3.387   0.352
79338W        W50954   6.125  36.952   0.719
79339W        W50955  43.359   2.237  12.999
79340W        W50956  41.019  33.149  11.149
79341W        W50957  34.799  36.035  12.491
79342W        W50958  24.542  16.803   2.188
79343W        W50959  19.567   0.169  12.244
79344W        W50960  30.407  31.642  11.909
79345W        W50961   3.737  14.877  13.043
79346W        W50962  38.179  38.822   2.768
79347W        W50963  20.323  14.756   4.526
79348W        W50964  25.686  27.583   4.400
79349W        W50965  38.895  31.096  14.374
79350W        W50966  40.154  14.202   4.943
79351W        W50967  16.098   2.469   0.718
79352W        W50968   4.646  25.592  11.869
79353W        W50969  44.952  34.063  11.582
79354W        W50970   3.360  41.081   1.779
79355W        W50971  44.844  26.509  11.669
79356W        W50972  34.858  27.007  13.785
79357W        W50973  34.525  43.259   0.462
79358W        W50974  24.750  23.612  11.547
79359W        W50975  13.657   2.842   3.969
79360W        W50976   9.411   6.574  12.995
79361W        W50977  35.424   8.922   0.679
79362W        W50978  10.612  31.922   2.404
79363W        W50979  19.098   3.416  11.055
79364W        W50980  14.764  13.857   2.582
79365W        W50981   3.383  42.756  14.439
79366W        W50982   9.818  11.409  14.421
79367W        W50983  44.854  14.156   2.787
79368W        W50984   8.988  36.412  11.546
79369W        W50985  32.376  38.008   2.396
79370W        W50986  41.917   0.524   4.260
79371W        W50987  31.160  36.578   2.195
79372W        W50988   0.147  29.725   0.011
79373W        W50989  15.348  31.821   3.535
79374W        W50990  21.807  19.602   4.495
79375W        W50991  40.468   2.940  11.675
79376W        W50992  32.987  20.079   0.007
79377W        W50993   3.957   4.336   4.633
79378W        W50994  38.884  38.501   5.041
79379W        W50995  14.354  37.322  13.028
79380W        W50996  29.081  25.270  11.486
79381W        W50997  12.115   8.811  12.981
79382W        W50998  41.024  40.771  12.868
79383W        W50999  16.821  24.365  14.141
79384W        W51000  42.047  24.498  14.304
79385W        W51001  13.119  20.643   1.428
79386W        W51002  35.560  37.463   3.368
79387W        W51003  33.951  16.792  10.699
79388W        W51004  25.725  20.267   3.366
79389W        W51005  11.323   1.094  13.693
79390W        W51006  12.261  40.834  14.434
79391W        W51007  21.149   9.346   1.134
79392W        W51008  31.992  31.018   3.149
79393W        W51009   7.525   7.807   2.421
79394W        W51010  37.014  13.175   1.290
79395W        W51011   9.787  42.842  10.589
79396W        W51012  44.565   2.872   2.597
79397W        W51013   6.169  11.243  11.132
79398W        W51014   8.326   8.259   4.091
79399W        W51015   9.825  24.523   1.856
79400W        W51016  35.587  16.654  13.771
79401W        W51017  38.531   6.837  12.113
79402W        W51018  37.915   8.545   3.393
79403W        W51019  21.152  13.148   2.447
79404W        W51020  35.489  28.385   3.120
79405W        W51021  19.310   8.305  13.902
79406W        W51022  25.234  31.049   4.734
79407W        W51023  19.460  29.556   3.597
79408W        W51024   5.230  11.584  11.931
79409W        W51025  12.724  13.879  13.036
79410W        W51026  19.607   3.889  10.645
79411W        W51027   6.820  26.489   1.931
79412W        W51028  25.434   0.886  12.362
79413W        W51029   9.587  41.959   2.505
79414W        W51030  38.187  31.307   0.356
79415W        W51031   1.414  22.856   9.774
79416W        W51032  25.996  26.287  11.025
79417W        W51033   7.760  22.991   0.489
79418W        W51034  22.265   4.701   4.169
79419W        W51035  34.025   7.786  11.042
79420W        W51036  12.292   3.898  11.990
79421W        W51037  14.100   3.901   5.530
79422W        W51038  36.322   8.099  12.113
79423W        W51039  24.537  20.156  13.479
79424W        W51040  14.639  40.854  10.742
79425W        W51041  32.623  37.960   0.444
79426W        W51042  13.373  41.674  13.770
79427W        W51043  33.667  13.088   4.556
79428W        W51044  41.763  32.420  13.369
79429W        W51045  22.786  13.132   3.232
79430W        W51046  27.406  41.802   2.347
79431W        W51047  36.131   8.879   1.724
79432W        W51048   0.796  12.932   4.594
79433W        W51049  10.842  32.883  10.860
79434W        W51050  42.077   6.311   1.687
79435W        W51051   7.683  22.334   1.880
79436W        W51052  40.777  18.553  13.174
79437W        W51053  17.802   7.304   0.735
79438W        W51054   0.064   0.818   4.449
79439W        W51055  44.721  18.118  12.428
79440W        W51056   5.197  24.217  13.973
79441W        W51057  21.979  33.891  11.096
79442W        W51058   3.053  10.773  10.981
79443W        W51059  39.997   9.352  13.076
79444W        W51060  24.708   6.886   1.451
79445W        W51061   3.988  10.265  10.262
79446W        W51062  26.677  18.057  13.792
79447W        W51063  41.006   9.413   2.113
79448W        W51064  43.346  20.761   1.454
79449W        W51065  28.397  39.408   3.630
79450W        W51066  29.752  44.980   4.234
79451W        W51067   0.329   6.423   1.378
79452W        W51068   0.838  13.564   2.568
79453W        W51069  39.399   6.082   1.930
79454W        W51070  44.931   0.520  14.262
79455W        W51071   7.437  25.707   1.228
79456W        W51072  42.330  21.679  13.427
79457W        W51073  18.381  25.050  11.112
79458W        W51074  24.022  19.278   2.305
79459W        W51075  43.986  23.200   1.932
79460W        W51076  26.628   2.869   0.310
79461W        W51077  43.320  18.430  11.031
79462W        W51078  25.185  28.497  14.434
79463W        W51079   9.878  18.671  14.764
79464W        W51080  39.085  43.507   3.161
79465W        W51081  22.934  34.821  11.979
79466W        W51082  40.410  16.238  12.843
79467W        W51083   1.575  16.800   0.861
79468W        W51084  21.520  27.927  12.061
79469W        W51085  10.354   6.402  12.567
79470W        W51086  15.458  14.631   4.964
79471W        W51087  18.977  40.708  11.360
79472W        W51088   5.253   7.717  14.004
79473W        W51089  40.061  14.320   1.852
79474W        W51090   8.404  16.574  14.363
79475W        W51091  43.313  36.446  12.559
79476W        W51092  30.111  28.703  13.471
79477W        W51093  30.585  27.724   2.288
79478W        W51094   5.864   9.318  14.137
79479W        W51095  10.873  41.881   1.906
79480W        W51096   6.781   3.086  10.729
79481W        W51097  12.619  37.051  14.801
79482W        W51098  24.504  16.836   4.838
79483W        W51099  39.137  29.467   1.656
79484W        W51100  26.364  21.834  14.961
79485W        W51101  16.695  35.410   3.323
79486W        W51102  42.407   5.976  10.970
79487W        W51103  24.533  28.491  11.498
79488W        W51104  22.689  13.924   0.800
79489W        W51105  23.298  27.608  12.412
79490W        W51106  27.611  20.436  11.114
79491W        W51107  10.474  39.080   4.132
79492W        W51108   3.319  29.465  10.604
79493W        W51109   7.388  44.080   0.662
79494W        W51110  42.487  41.273   1.823
79495W        W51111   8.652  32.397  14.900
79496W        W51112  22.084  17.780   0.396
79497W        W51113   3.086  18.998   5.137
79498W        W51114  13.001   9.926   0.015
79499W        W51115  34.452  12.283  13.436
79500W        W51116  17.393  17.632   4.089
79501W        W51117  35.690  19.379  13.702
79502W        W51118   4.454   8.817  10.895
79503W        W51119  18.110  41.047   0.029
79504W        W51120  43.909   4.765  13.778
79505W        W51121  10.418   8.672  12.673
79506W        W51122   5.421  15.284   0.032
79507W        W51123  12.127  26.390   0.785
79508W        W51124  17.672   5.119   4.964
79509W        W51125  13.934  40.179   2.807
79510W        W51126  11.153  21.783   4.213
79511W        W51127  38.407  40.865   1.062
79512W        W51128  12.246  29.701  11.544
79513W        W51129  36.848   7.015   1.484
79514W        W51130  19.504  21.580  13.870
79515W        W51131  24.091  12.080  14.947
79516W        W51132  13.651  22.187   1.355
79517W        W51133  37.774  23.727   1.846
79518W        W51134  43.912   4.692   2.212
79519W        W51135  28.243  28.213  10.305
79520W        W51136  34.589   9.293   0.283
79521W        W51137  10.844   2.642   2.799
79522W        W51138  31.893  19.769   1.272
79523W        W51139  31.345  41.306  11.548
79524W        W51140  22.753  16.131  10.569
79525W        W51141  34.105  14.122   2.211
79526W        W51142  15.058  15.600  12.926
79527W        W51143  23.823   0.244   5.038
79528W        W51144  29.697  31.547   1.605
79529W        W51145  30.678  28.518   1.759
79530W        W51146   7.267  10.668  10.718
79531W        W51147  43.480  16.988   4.457
79532W        W51148  29.344  13.823  14.487
79533W        W51149  15.275  28.946  12.594
79534W        W51150  26.106  40.489   0.790
79535W        W51151  23.996  29.854  10.239
79536W        W51152   3.831  28.146   2.220
79537W        W51153   9.451  32.904  12.946
79538W        W51154  30.435  42.958   1.788
79539W        W51155  23.638  29.564  14.015
79540W        W51156  23.633   6.016  13.431
79541W        W51157   5.365  40.877   4.134
79542W        W51158   7.972  31.191   0.867
79543W        W51159  24.303  15.620  14.227
79544W        W51160  16.933  32.092  11.556
79545W        W51161  14.952  26.232  11.084
79546W        W51162   3.863  42.614  11.032
79547W        W51163  34.912  10.350  10.697
79548W        W51164  44.921  42.451  12.360
79549W        W51165  28.656  34.101  13.800
79550W        W51166  39.626  10.594   9.687
79551W        W51167  17.607  13.153   0.573
79552W        W51168  34.656  21.984   0.534
79553W        W51169   9.238  16.026  11.481
79554W        W51170   7.793   1.314   1.923
79555W        W51171  18.612  44.836   2.854
79556W        W51172   9.359  18.232  11.132
79557W        W51173  38.952   1.270   1.666
79558W        W51174   6.627   1.936  11.600
79559W        W51175   9.512  25.086  12.885
79560W        W51176  32.146  29.399   4.343
79561W        W51177  15.661  12.617   2.244
79562W        W51178  44.385  21.911  13.378
79563W        W51179  14.560  28.288  11.152
79564W        W51180  21.032  43.772  14.891
79565W        W51181  15.198  41.937  14.875
79566W        W51182  27.212  31.316   2.439
79567W        W51183  16.328   8.661  11.130
79568W        W51184  17.579   0.323   1.430
79569W        W51185  29.997  27.015   3.242
79570W        W51186  25.726  22.130  10.779
79571W        W51187  34.445   0.802   4.670
79572W        W51188  10.122  35.576   4.505
79573W        W51189  15.768   9.145   2.779
79574W        W51190   1.848  16.328  13.591
79575W        W51191   3.483   8.388   4.734
79576W        W51192  22.672  41.040  11.528
79577W        W51193   6.396  30.648   3.708
79578W        W51194   1.889  31.500  11.860
79579W        W51195  13.112  38.636   0.467
79580W        W51196  32.593  27.177   3.250
79581W        W51197  12.077   6.955   2.781
79582W        W51198   7.412  30.161   4.484
79583W        W51199  31.702  33.859   1.392
79584W        W51200  39.432  23.331   1.198
79585W        W51201  26.454  44.993  12.447
79586W        W51202  39.664  30.825  14.366
79587W        W51203   4.287  43.687   2.304
79588W        W51204  33.310  18.585  14.835
79589W        W51205   0.995  16.680  11.976
79590W        W51206  16.951  43.247  11.598
79591W        W51207  31.971  29.694   0.881
79592W        W51208   3.864  23.538   1.924
79593W        W51209  13.287  19.599   0.447
79594W        W51210  29.511  24.283   0.296
79595W        W51211  16.292  21.818   3.355
79596W        W51212  17.659  33.837  11.951
79597W        W51213   6.728  19.654   0.185
79598W        W51214  39.326  33.888   1.162
79599W        W51215  13.572   1.983   0.554
79600W        W51216   5.550  40.152  12.888
79601W        W51217  23.060  36.124   2.330
79602W        W51218  44.394   7.832  13.821
79603W        W51219   9.149  10.262  10.657
79604W        W51220  10.382  42.341   2.612
79605W        W51221  15.585  38.138  10.071
79606W        W51222  13.819   5.313   2.975
79607W        W51223  24.162  21.459  14.431
79608W        W51224   2.978   6.962   2.749
79609W        W51225   7.764  42.725   4.605
79610W        W51226   7.461  38.513   2.191
79611W        W51227  16.146   2.968   2.655
79612W        W51228  19.638  14.687   3.687
79613W        W51229  31.417  39.191   1.468
79614W        W51230  35.809   7.649  14.940
79615W        W51231   0.978  17.315   4.578
79616W        W51232  20.682  26.269  14.587
79617W        W51233   7.868  40.491  13.773
79618W        W51234  23.806  39.516  11.642
79619W        W51235   6.914   5.671   3.723
79620W        W51236  27.590   7.967  14.010
79621W        W51237  12.261  22.124  13.876
79622W        W51238  43.539  32.595  14.779
79623W        W51239  41.802  11.550  13.051
79624W        W51240  27.566  28.953   1.352
79625W        W51241   2.712  39.551  12.065
79626W        W51242  28.898  33.440   1.828
79627W        W51243  18.768  41.426   4.063
79628W        W51244  21.267  29.397   0.883
79629W        W51245  40.551  20.963   2.973
79630W        W51246   6.170  35.503   4.079
79631W        W51247  25.434  18.399   0.231
79632W        W51248   1.192  39.623  13.735
79633W        W51249  14.798  21.748   0.925
79634W        W51250  26.922   4.919   5.027
79635W        W51251  34.177   7.657  13.784
79636W        W51252  30.159  10.162  12.831
79637W        W51253  30.298  43.350  14.872
79638W        W51254  23.234  15.160   2.736
79639W        W51255   9.598   5.875  11.670
79640W        W51256  15.578   9.677  14.781
79641W        W51257  32.049  25.070   0.057
79642W        W51258  41.914   7.725  13.320
79643W        W51259  14.793   5.604  11.963
79644W        W51260  10.189  36.955   0.928
79645W        W51261   7.425  29.873  11.099
79646W        W51262   5.304  29.057  14.772
79647W        W51263  31.154  11.256  10.457
79648W        W51264   4.838  31.684   3.277
79649W        W51265  29.889   4.722  12.105
79650W        W51266  30.979  36.931   2.856
79651W        W51267   8.284  17.931   3.727
79652W        W51268  22.121  39.853  12.494
79653W        W51269  18.951  41.962  14.669
79654W        W51270  22.481  37.802  12.086
79655W        W51271   4.928   5.764  11.660
79656W        W51272  26.704  32.512  14.463
79657W        W51273  23.252  15.098   4.603
79658W        W51274  21.456  23.331   0.370
79659W        W51275  29.375  34.718  11.481
79660W        W51276  27.947   7.949  11.039
79661W        W51277  28.653   8.746  14.623
79662W        W51278  29.503   4.652   0.899
79663W        W51279  18.293   7.406   1.173
79664W        W51280  14.792  29.163   2.377
79665W        W51281  21.648   1.358  12.903
79666W        W51282  31.115  14.477   1.893
79667W        W51283  34.452  30.924  11.238
79668W        W51284   2.063   8.636  14.264
79669W        W51285   9.191  11.766   4.636
79670W        W51286  15.327  35.655  11.672
79671W        W51287  32.325  44.534   4.649
79672W        W51288  17.583  15.224   3.189
79673W        W51289  33.536  11.238  10.317
79674W        W51290  27.284  31.858  11.867
79675W        W51291  19.217  18.429  12.504
79676W        W51292  43.867  39.468   0.011
79677W        W51293  36.805  12.785   2.586
79678W        W51294  14.730  23.112   1.169
79679W        W51295  33.876  43.535  10.526
79680W        W51296   8.905  18.091  12.899
79681W        W51297  35.807  36.101  13.823
79682W        W51298  14.940  26.689  14.951
79683W        W51299   6.705  11.764  12.810
79684W        W51300  34.091  37.834   1.898
79685W        W51301  30.565  31.000  13.648
79686W        W51302  19.336  32.667  14.761
79687W        W51303  42.439  28.432  14.580
79688W        W51304  19.301  37.490  11.563
79689W        W51305  37.778   0.859  13.934
79690W        W51306  24.569  29.747   0.934
79691W        W51307  16.277   1.184   0.367
79692W        W51308  44.419  37.265   2.829
79693W        W51309  12.827  34.344  12.053
79694W        W51310  41.481  41.003  14.053
79695W        W51311  37.481  18.796   3.382
79696W        W51312   7.639  34.533  14.389
79697W        W51313  28.881  27.006   1.011
79698W        W51314  33.708   9.916   1.345
79699W        W51315  14.792  23.061  12.609
79700W        W51316   0.985  33.999  12.584
79701W        W51317   8.365  37.259   1.746
79702W        W51318  42.642  20.426  12.939
79703W        W51319  12.931   6.483   4.945
79704W        W51320   5.778  29.685  12.165
79705W        W51321  33.023  20.117  14.497
79706W        W51322  23.696  16.399   0.997
79707W        W51323  11.221  33.616  11.460
79708W        W51324  24.243  22.731  12.454
79709W        W51325  31.614   3.041   1.614
79710W        W51326   8.318  24.004  14.257
79711W        W51327  17.294  40.098   2.106
79712W        W51328  19.605   4.176   0.754
79713W        W51329  30.559  16.826   3.765
79714W        W51330  35.370   2.478   2.354
79715W        W51331  37.015  15.177  13.861
79716W        W51332  25.081  42.323   1.933
79717W        W51333  43.810  15.020   1.849
79718W        W51334   8.409  43.382   0.524
79719W        W51335   5.288  17.695  12.210
79720W        W51336  11.604  14.876  12.476
79721W        W51337  35.884   6.725  10.540
79722W        W51338  42.272  37.338  14.800
79723W        W51339  39.836  37.450   0.430
79724W        W51340  18.282  28.942   1.804
79725W        W51341  15.999  14.269  13.591
79726W        W51342  20.760  32.817   0.037
79727W        W51343  32.052  37.089  14.349
79728W        W51344  33.681  39.406   0.169
79729W        W51345  29.986  12.262  13.944
79730W        W51346   7.993  14.299  12.010
79731W        W51347  20.380   6.943  12.255
79732W        W51348  42.266  15.747  10.754
79733W        W51349   6.677  18.096  14.166
79734W        W51350  25.700  19.081  11.626
79735W        W51351  44.260  12.620  14.334
79736W        W51352   9.074  37.861  12.311
79737W        W51353  43.307  38.319   0.492
79738W        W51354  42.384  42.501  12.432
79739W        W51355  31.421   7.307  11.676
79740W        W51356   6.003  23.528  12.923
79741W        W51357  28.158  41.028   1.341
79742W        W51358   6.808  20.349   2.431
79743W        W51359  42.287  24.137   3.714
79744W        W51360  18.724   3.800  11.437
79745W        W51361   1.840  37.936   2.468
79746W        W51362  44.404  24.733  10.389
79747W        W51363  33.012  41.076   0.497
79748W        W51364   5.822  36.852  12.206
79749W        W51365  24.732  28.602   0.790
79750W        W51366  32.480  30.186  14.484
79751W        W51367  13.096   9.462   3.695
79752W        W51368  31.485  26.620  10.568
79753W        W51369   2.209  11.726  11.567
79754W        W51370  10.817  37.787  12.875
79755W        W51371   8.901  29.849   0.919
79756W        W51372  16.235  38.526   3.862
79757W        W51373  10.439  20.515   0.513
79758W        W51374  14.243   6.168   4.140
79759W        W51375  18.750   1.941   0.668
79760W        W51376  10.799  10.405   3.091
79761W        W51377  37.803  13.592   3.802
79762W        W51378   6.376  21.531  10.777
79763W        W51379  13.775   7.616   0.083
79764W        W51380  24.060  29.755   0.405
79765W        W51381  11.152  28.272   0.230
79766W        W51382  22.141  42.795  14.940
79767W        W51383  20.476  38.335   4.559
79768W        W51384  27.232   8.250   0.826
79769W        W51385  25.279  36.392   0.375
79770W        W51386   1.754   6.211  14.913
79771W        W51387   7.150   1.789  10.751
79772W        W51388  36.859   9.141   4.171
79773W        W51389  22.820   1.258   2.923
79774W        W51390   4.122  24.338  11.538
79775W        W51391  35.542  27.754   2.207
79776W        W51392  44.464  20.732   2.128
79777W        W51393  35.264   6.181   0.884
79778W        W51394   7.567  12.059   0.338
79779W        W51395   7.003  31.627  11.748
79780W        W51396  14.811  43.803   2.807
79781W        W51397  16.740  15.390  11.024
79782W        W51398  22.752   3.876  13.378
79783W        W51399   7.102  44.931   4.694
79784W        W51400  33.158  19.010   4.230
79785W        W51401  17.092   5.687   1.982
79786W        W51402  33.647   5.339   0.286
79787W        W51403  26.625  43.790   3.809
79788W        W51404  44.697   4.254  13.997
79789W        W51405  27.960  28.119   2.441
79790W        W51406  37.588   8.164  14.814
79791W        W51407  30.022  34.365   4.299
79792W        W51408  38.342   0.411   0.307
79793W        W51409  25.639  11.068  12.027
79794W        W51410  12.222  33.378   4.667
79795W        W51411  36.335   4.547   4.006
79796W        W51412  17.480  19.794   0.774
79797W        W51413  26.599  15.066  12.422
79798W        W51414  36.864  20.939   1.595
79799W        W51415  26.384  39.285  13.804
79800W        W51416  31.370  31.032   0.852
79801W        W51417   0.044  11.816   3.167
79802W        W51418  15.827  28.601   4.086
79803W        W51419   0.231  43.459   3.011
79804W        W51420  23.108  26.755   5.005
79805W        W51421  19.769   9.254   1.809
79806W        W51422  30.352  22.194  10.890
79807W        W51423  26.643  18.528  10.680
79808W        W51424  39.512  24.633  14.487
79809W        W51425   0.918   1.847   4.826
79810W        W51426   1.798  34.091   1.406
79811W        W51427  38.346  42.013   2.163
79812W        W51428  26.273  20.166  14.811
79813W        W51429  16.101  43.954   4.407
79814W        W51430  37.607   8.062   0.350
79815W        W51431  11.662   4.183   1.786
79816W        W51432  26.999  19.084   2.643
79817W        W51433  42.263  12.782   3.493
79818W        W51434  23.004  12.187   4.093
79819W        W51435  11.816  26.915   4.316
79820W        W51436  27.988  31.148   2.942
79821W        W51437  24.011  42.792  14.324
79822W        W51438   8.182  14.877  13.185
79823W        W51439   0.799   9.325   2.794
79824W        W51440  32.894  37.945  11.556
79825W        W51441   3.916  20.564   4.012
79826W        W51442  16.230  24.899   2.321
79827W        W51443  25.264   4.485  14.053
79828W        W51444  17.154  35.706  11.244
79829W        W51445  17.692  23.551   4.260
79830W        W51446   1.964  39.394   3.842
79831W        W51447  10.564  31.527  14.271
79832W        W51448   6.805  31.581  11.269
79833W        W51449  44.964  35.611   5.387
79834W        W51450  17.507  44.145   3.042
79835W        W51451  19.754  23.751   4.477
79836W        W51452  29.591  17.925   4.619
79837W        W51453   3.310   5.734  12.565
79838W        W51454  32.120  21.685   0.289
79839W        W51455   6.304  10.412   0.782
79840W        W51456   8.195  22.280  14.723
79841W        W51457  19.836  23.097  11.183
79842W        W51458  32.481  15.065  14.193
79843W        W51459  34.115   5.128   0.177
79844W        W51460   2.248  44.221  13.312
79845W        W51461  33.944  38.448  13.397
79846W        W51462  40.529  38.293   1.226
79847W        W51463  31.994  22.706  11.308
79848W        W51464  34.542   4.757   2.312
79849W        W51465  29.479  39.843   1.167
79850W        W51466  42.980  16.485  10.125
79851W        W51467  33.967  26.191   4.155
79852W        W51468  44.864   1.910  10.741
79853W        W51469  33.158  35.902  10.716
79854W        W51470   5.507  28.820   1.897
79855W        W51471  33.252  17.226  10.688
79856W        W51472  16.339   2.416  11.579
79857W        W51473  33.912  31.930  10.477
79858W        W51474   0.730   1.435  14.735
79859W        W51475  17.237  39.628  11.600
79860W        W51476  10.578   3.115   1.954
79861W        W51477  43.024   9.962  10.839
79862W        W51478   3.712  28.999   2.172
79863W        W51479  29.908  24.709   4.378
79864W        W51480  44.962  16.203   1.769
79865W        W51481   1.358   7.783  12.906
79866W        W51482  33.387  19.861   0.315
79867W        W51483  40.967   7.721   4.355
79868W        W51484   5.331  33.408   1.233
79869W        W51485  36.664  24.028   2.356
79870W        W51486  42.392  17.472  14.556
79871W        W51487  37.902  37.587  14.447
79872W        W51488  25.438  42.473  12.842
79873W        W51489  31.056   0.200  12.194
79874W        W51490  22.650   8.288   0.500
79875W        W51491   2.323  23.705   1.862
79876W        W51492  37.056  26.009   1.313
79877W        W51493  36.801  31.540   4.748
79878W        W51494   8.432  30.912   4.428
79879W        W51495   3.695  43.288  14.836
79880W        W51496  21.641  39.470  13.033
79881W        W51497   2.470   0.892   1.711
79882W        W51498  27.904   0.817  14.311
79883W        W51499  34.964  12.857  13.041
79884W        W51500   4.341  40.532   0.880
79885W        W51501   6.677  18.683  14.954
79886W        W51502  41.018  36.854  10.880
79887W        W51503  17.648  16.570  11.428
79888W        W51504  32.917  40.299  10.657
79889W        W51505  44.749  17.180   1.968
79890W        W51506  14.151  36.047  12.434
79891W        W51507  30.898  43.563  11.005
79892W        W51508   2.887  25.612  11.513
79893W        W51509  42.664  36.081   1.717
79894W        W51510   2.460   4.720  14.717
79895W        W51511  38.432   9.907   0.336
79896W        W51512  26.103  25.648   2.878
79897W        W51513   0.945  15.476   2.467
79898W        W51514   0.406  10.445   2.384
79899W        W51515  20.151  12.922   2.528
79900W        W51516  30.681  39.953  13.985
79901W        W51517  43.479  30.912   2.607
79902W        W51518  44.890  26.534   1.785
79903W        W51519  17.169  17.610  10.208
79904W        W51520  28.396  26.050  11.443
79905W        W51521  36.824  27.435  12.386
79906W        W51522  35.978   0.075   2.237
79907W        W51523  11.823   8.293   0.478
79908W        W51524  12.121  28.599   1.640
79909W        W51525  19.090  32.613  11.488
79910W        W51526  43.375  42.324  11.620
79911W        W51527  36.636  39.518  13.335
79912W        W51528  32.988   7.340  14.498
79913W        W51529  11.701  40.976   2.788
79914W        W51530  34.116  36.133  13.994
79915W        W51531  27.021   1.134   2.744
79916W        W51532  15.858  25.995  12.124
79917W        W51533   3.691   4.681   4.965
79918W        W51534  16.355   9.954   1.034
79919W        W51535  26.870  38.086  10.791
79920W        W51536  16.198  38.592   2.258
79921W        W51537  20.010   2.263  11.119
79922W        W51538  36.016  42.394  13.418
79923W        W51539  13.507   5.864  11.818
79924W        W51540  14.572  12.789   0.840
79925W        W51541  31.455   2.408  13.067
79926W        W51542   3.342  30.498   3.715
79927W        W51543  37.903  18.144  14.869
79928W        W51544  12.666  39.583  11.894
79929W        W51545  20.184  12.119   2.204
79930W        W51546  18.152  16.683  10.626
79931W        W51547  29.408   4.890  11.986
79932W        W51548  34.112  31.931   1.353
79933W        W51549   4.132   0.623   3.192
79934W        W51550  39.481  38.276  14.177
79935W        W51551  34.927  42.799   0.835
79936W        W51552  10.371  15.666  11.991
79937W        W51553  12.746  21.217   2.897
79938W        W51554  33.941  25.075   2.650
79939W        W51555  17.192  35.318   3.196
79940W        W51556  24.407   3.744  10.698
79941W        W51557  39.553  34.827   1.246
79942W        W51558  40.369  21.995  11.645
79943W        W51559  26.108  32.471   0.403
79944W        W51560  44.356   0.066   0.963
79945W        W51561   4.003  14.150   4.137
79946W        W51562  44.070  31.119   0.352
79947W        W51563  28.275   6.784  13.009
79948W        W51564  38.134  12.724  14.942
79949W        W51565  38.172  31.242  10.556
79950W        W51566  14.114  16.283   4.544
79951W        W51567  31.075  37.571  13.081
79952W        W51568  21.504  35.808  10.581
79953W        W51569   0.167  13.729   4.114
79954W        W51570  42.268   5.872  10.489
79955W        W51571  22.098  38.789   0.175
79956W        W51572  34.978  10.416   1.370
79957W        W51573  10.105  40.876  10.596
79958W        W51574  16.129  36.533   0.345
79959W        W51575   9.943   6.336  13.365
79960W        W51576  15.880  36.969   0.185
79961W        W51577  41.043  36.587   4.654
79962W        W51578   4.215   5.957  11.519
79963W        W51579  31.012  38.414   4.343
79964W        W51580   9.404  32.898  11.061
79965W        W51581  27.679  13.051  12.589
79966W        W51582  34.707  22.151  10.519
79967W        W51583  19.573  20.119   4.209
79968W        W51584   9.776  14.659  12.696
79969W        W51585  10.168  25.565   2.661
79970W        W51586  18.088   8.804  12.600
79971W        W51587  37.942  16.813  10.544
79972W        W51588  18.350  22.577   4.129
79973W        W51589  41.525  37.606  11.053
79974W        W51590  24.688  26.083   0.013
79975W        W51591  37.924  12.294   3.903
79976W        W51592  32.376  23.262   3.681
79977W        W51593  18.134  38.097  11.510
79978W        W51594  11.128  12.923   1.672
79979W        W51595  41.712  10.853  14.921
79980W        W51596  14.752  29.919   2.831
79981W        W51597  42.998  18.211   0.059
79982W        W51598  28.380  15.979  13.879
79983W        W51599  38.231  44.891   3.743
79984W        W51600  29.224  21.228  14.866
79985W        W51601  42.415   2.323   4.613
79986W        W51602   9.655  13.614  12.527
79987W        W51603  28.002  18.552   3.196
79988W        W51604  31.631   9.743  10.640
79989W        W51605  40.860  42.220   3.277
79990W        W51606  35.100   6.346  11.373
79991W        W51607  15.268  26.116  12.879
79992W        W51608  42.606  11.555  14.440
79993W        W51609   6.938  21.491  14.925
79994W        W51610  22.011  27.147   0.646
79995W        W51611   7.800   5.914  13.045
79996W        W51612  33.499  39.375   1.193
79997W        W51613  35.225  44.492  14.099
79998W        W51614  13.814   1.270  10.908
79999W        W51615  35.460  26.659  11.634
80000W        W51616  34.821   5.239  12.084
80001W        W51617   5.762  34.536   1.525
80002W        W51618  35.702   9.890  13.832
80003W        W51619  16.228   7.183  11.858
80004W        W51620   8.402  36.024  12.606
80005W        W51621  38.043  25.091  10.916
80006W        W51622  32.879  30.510   2.355
80007W        W51623  14.588  39.313   4.204
80008W        W51624  40.726  12.396  11.561
80009W        W51625  23.001  36.712   3.220
80010W        W51626   4.439  29.565   1.237
80011W        W51627  15.672   4.333  14.800
80012W        W51628  42.936   7.236   0.749
80013W        W51629  21.471  23.324   2.204
80014W        W51630  31.625   7.786   2.319
80015W        W51631  40.629  19.636   0.104
80016W        W51632  10.705  22.784   0.389
80017W        W51633   8.778  10.764   1.304
80018W        W51634  15.600  24.049   4.961
80019W        W51635  24.325  37.595   2.128
80020W        W51636  24.477   8.674   3.715
80021W        W51637  17.487  18.232   4.076
80022W        W51638   4.772  12.160   1.896
80023W        W51639  13.811   0.908   2.332
80024W        W51640  43.479  42.571  12.142
80025W        W51641  26.597  20.673  12.599
80026W        W51642  39.877  28.635  13.305
80027W        W51643   6.241  11.705  12.026
80028W        W51644  25.676  21.643  13.116
80029W        W51645  17.225   1.385   0.624
80030W        W51646   3.907   7.182  13.103
80031W        W51647  32.879  21.240   0.361
80032W        W51648  11.833  22.586  11.981
80033W        W51649  19.828  32.574   1.640
80034W        W51650  19.454  41.120  12.933
80035W        W51651   3.446  42.284   2.205
80036W        W51652  16.181  19.758   4.599
80037W        W51653  24.486  36.948  10.697
80038W        W51654  12.344  28.039   1.850
80039W        W51655  15.742  38.703   0.113
80040W        W51656  41.250  12.638  14.707
80041W        W51657  15.379   7.143  13.397
80042W        W51658  24.641   0.228   1.276
80043W        W51659  25.568  30.443   0.784
80044W        W51660  17.615   4.938  14.673
80045W        W51661  21.383  27.143   1.274
80046W        W51662  24.741  29.855   4.146
80047W        W51663  23.831  10.360   1.473
80048W        W51664  11.341   9.648   2.296
80049W        W51665  23.148   7.872  14.453
80050W        W51666  13.537  36.125  11.124
80051W        W51667  39.414  34.623  14.944
80052W        W51668  41.398   5.234  12.833
80053W        W51669  19.851  11.511   1.814
80054W        W51670  20.712  20.702   0.792
80055W        W51671   6.331  18.804   0.333
80056W        W51672  29.528   4.166  11.522
80057W        W51673  13.212   1.885  14.575
80058W        W51674  39.448  43.489   4.224
80059W        W51675  34.923  43.528   4.551
80060W        W51676  43.523  28.515  11.647
80061W        W51677   7.364  37.820  11.045
80062W        W51678  43.435  11.019   0.197
80063W        W51679   5.172  34.299  12.924
80064W        W51680  29.656  12.967  11.592
80065W        W51681   9.203   4.639  12.051
80066W        W51682  19.110  26.750  11.670
80067W        W51683   6.340  35.581  10.667
80068W        W51684  41.748   3.553  13.767
80069W        W51685   2.084  14.748   2.761
80070W        W51686  25.957  39.384   4.603
80071W        W51687  14.516  38.965  12.530
80072W        W51688   0.944  38.267  11.073
80073W        W51689   3.698  35.911  12.920
80074W        W51690  16.718   3.235   1.634
80075W        W51691   6.296  15.607   3.365
80076W        W51692  10.325  37.559  11.059
80077W        W51693  28.104  23.575   4.969
80078W        W51694   3.081  32.885  13.409
80079W        W51695  27.173   5.448   4.415
80080W        W51696  27.988  30.057   0.698
80081W        W51697  12.235   3.529  11.279
80082W        W51698  25.132  31.333   4.225
80083W        W51699  37.683  42.764   1.188
80084W        W51700  27.995  24.368  13.501
80085W        W51701  15.785  41.754   4.473
80086W        W51702  12.264  10.321   4.377
80087W        W51703   1.916  21.101  13.159
80088W        W51704  23.044  15.887   0.610
80089W        W51705  19.121   6.193  10.619
80090W        W51706  39.252  23.313  14.353
80091W        W51707  34.366  10.775   2.912
80092W        W51708  43.801   4.376  12.047
80093W        W51709  38.003  33.336  11.821
80094W        W51710  41.998   6.216  10.197
80095W        W51711  24.990   1.197  13.212
80096W        W51712  18.544  11.916  14.873
80097W        W51713  22.436   7.013   1.785
80098W        W51714  19.028  23.588  10.457
80099W        W51715  28.668  37.897   2.062
80100W        W51716  33.722  20.003  13.336
80101W        W51717  39.243  33.069   3.662
80102W        W51718   8.869  16.382  11.581
80103W        W51719  30.063  16.314  11.502
80104W        W51720  22.499  21.984  12.398
80105W        W51721  21.025  32.910  11.697
80106W        W51722  17.178  43.777   0.398
80107W        W51723   8.496  15.402  14.844
80108W        W51724   2.242   0.903   3.833
80109W        W51725  16.431  13.375  11.168
80110W        W51726  41.749  27.444   2.743
80111W        W51727   4.715  24.591  12.989
80112W        W51728  20.149   1.513  11.640
80113W        W51729  29.668  11.298   0.900
80114W        W51730  31.016   0.862  10.423
80115W        W51731  36.948  27.623   4.631
80116W        W51732  36.950   0.553  14.370
80117W        W51733  10.385  25.645   2.187
80118W        W51734   3.404  14.982  11.910
80119W        W51735  40.437  11.941   4.695
80120W        W51736  14.683   0.974   4.887
80121W        W51737  17.279   4.779   3.226
80122W        W51738  11.381  42.454  12.899
80123W        W51739   3.204  14.865   3.043
80124W        W51740   7.100   9.862  13.872
80125W        W51741  31.962  33.920   0.933
80126W        W51742   7.292  33.939  11.921
80127W        W51743  14.787  42.029   2.261
80128W        W51744   8.657  18.932   1.947
80129W        W51745  30.418  37.715   2.114
80130W        W51746  33.053   2.441   1.251
80131W        W51747  35.853  10.839   4.729
80132W        W51748  24.577  28.631   0.285
80133W        W51749  15.965  38.843   4.560
80134W        W51750  42.868   6.723   0.857
80135W        W51751  28.049  30.143   4.571
80136W        W51752  19.876  26.072   3.680
80137W        W51753  16.393  27.481   1.298
80138W        W51754  24.099  35.374   3.377
80139W        W51755  25.492  34.084   3.759
80140W        W51756  19.135  17.156   2.429
80141W        W51757  19.982  25.579  11.153
80142W        W51758  17.991  14.053  13.403
80143W        W51759  25.026   3.420  13.485
80144W        W51760  27.706  43.586   0.836
80145W        W51761  22.446  44.609   3.760
80146W        W51762   0.264  36.110  13.855
80147W        W51763  39.962  30.312   3.546
80148W        W51764  17.080   7.872   1.686
80149W        W51765  22.505  15.128   2.288
80150W        W51766  34.492  44.904  11.493
80151W        W51767  44.605   3.131  10.840
80152W        W51768   2.459  36.527   2.673
80153W        W51769  25.684  39.055   2.820
80154W        W51770   4.799   9.517   3.089
80155W        W51771  34.614  18.190   1.855
80156W        W51772  11.864  33.919   2.214
80157W        W51773  13.757  16.652   2.386
80158W        W51774  39.427  41.321  11.587
80159W        W51775  32.968   1.573   5.454
80160W        W51776  30.902  37.354   4.088
80161W        W51777  19.466  13.709  14.008
80162W        W51778   5.715   9.591  11.086
80163W        W51779  24.712  16.362  11.493
80164W        W51780  14.339  23.745   3.374
80165W        W51781   2.249  31.846   4.099
80166W        W51782  15.217  12.604  13.375
80167W        W51783  36.538  35.729  13.429
80168W        W51784   4.326  37.060  14.270
80169W        W51785   8.928  31.557  11.138
80170W        W51786  15.814  16.221  12.607
80171W        W51787   0.026  20.843   0.829
80172W        W51788  36.548  31.191  14.459
80173W        W51789  19.297  11.005   2.788
80174W        W51790  14.066  25.548  13.110
80175W        W51791  28.203  21.472  10.748
80176W        W51792   1.995  39.065  14.628
80177W        W51793  30.577  40.156  12.464
80178W        W51794  28.430  23.651  12.357
80179W        W51795  26.301   8.095  13.923
80180W        W51796  33.069  16.624  11.029
80181W        W51797  34.464  15.195  11.485
80182W        W51798  41.803   2.787   1.255
80183W        W51799   1.780  33.571  14.966
80184W        W51800  13.814  33.651  12.423
80185W        W51801  17.672  18.228  13.994
80186W        W51802  31.061  39.255   4.730
80187W        W51803  17.732  40.473   0.405
80188W        W51804  42.789   4.923   3.094
80189W        W51805  10.608  22.618  11.387
80190W        W51806   6.977   4.214  14.330
80191W        W51807   2.952  40.296   3.320
80192W        W51808  43.531  43.952  11.092
80193W        W51809   2.855  40.994  12.979
80194W        W51810  16.622  44.364  14.895
80195W        W51811  36.178  37.042  11.559
80196W        W51812  43.101  26.134   1.410
80197W        W51813  20.498  26.698   1.244
80198W        W51814  19.295  10.282  12.510
80199W        W51815  43.815  23.705  13.770
80200W        W51816  27.120   9.478   0.357
80201W        W51817   3.766  40.507   1.758
80202W        W51818  34.080  21.191   3.896
80203W        W51819  32.903  39.971  11.928
80204W        W51820   6.867  29.945  11.929
80205W        W51821  38.390   0.927   0.329
80206W        W51822  36.925  22.520   0.974
80207W        W51823  35.613  43.788  12.512
80208W        W51824   4.016  23.654  12.433
80209W        W51825  26.184  18.669   1.696
80210W        W51826  22.063  40.966  13.185
80211W        W51827  14.269   8.722   3.182
80212W        W51828  42.098  23.581   4.424
80213W        W51829   1.495  44.000  11.627
80214W        W51830  44.466  18.417  10.230
80215W        W51831  24.718  18.554  11.807
80216W        W51832  28.415  42.990   2.669
80217W        W51833  17.105   4.659  11.185
80218W        W51834  13.151  17.671  12.930
80219W        W51835  40.850  28.070  13.910
80220W        W51836  32.569   1.813   0.864
80221W        W51837  21.069  39.956  12.541
80222W        W51838  25.109  34.360  14.385
80223W        W51839  19.015  10.524   4.247
80224W        W51840  30.639  32.612   2.297
80225W        W51841  26.477  38.108   0.401
80226W        W51842  15.793  23.171  12.274
80227W        W51843  39.412   5.806  10.847
80228W        W51844  34.389  38.398   0.859
80229W        W51845  19.709  24.117  11.216
80230W        W51846  12.160  27.884  10.741
80231W        W51847  31.349   2.304   0.359
80232W        W51848  35.655  19.753  12.776
80233W        W51849  42.924   0.336   4.346
80234W        W51850   4.942  33.596   4.206
80235W        W51851   8.838  20.243   2.169
80236W        W51852  24.450  43.908   0.523
80237W        W51853  17.224  26.732  12.965
80238W        W51854  40.953  35.834   3.158
80239W        W51855  30.046  25.393  14.486
80240W        W51856  17.567   4.215   5.050
80241W        W51857   4.751  25.133   3.743
80242W        W51858  15.654  18.169   2.806
80243W        W51859   9.878  33.521  13.970
80244W        W51860  34.560  21.016  14.907
80245W        W51861   4.786  29.267  13.677
80246W        W51862  30.562  14.720  13.096
80247W        W51863  11.422  34.030  11.107
80248W        W51864  15.823  41.741  10.082
80249W        W51865   9.193  42.296   4.371
80250W        W51866  30.225  32.117   4.878
80251W        W51867  18.755   1.261  12.390
80252W        W51868  10.342  27.873   4.554
80253W        W51869  44.882   7.477   1.811
80254W        W51870  44.392  11.093   0.671
80255W        W51871  20.102  11.503   0.899
80256W        W51872  28.174  19.127  13.051
80257W        W51873  40.138  19.778  12.411
80258W        W51874  33.098   3.967  14.803
80259W        W51875  23.552  39.469   4.748
80260W        W51876  42.985   5.459  11.528
80261W        W51877  44.939  25.336  12.446
80262W        W51878  34.125  25.263  14.809
80263W        W51879  22.056  11.082  14.518
80264W        W51880  43.291   3.693   2.648
80265W        W51881  29.200   1.405   3.360
80266W        W51882  18.770  40.504  13.091
80267W        W51883   3.427  29.055   0.753
80268W        W51884  21.716   6.323   3.746
80269W        W51885  23.105  31.821   0.235
80270W        W51886  26.507  30.997   4.853
80271W        W51887  15.846  13.774  12.029
80272W        W51888   2.772  41.370  13.363
80273W        W51889   6.775  25.976   2.002
80274W        W51890  17.562  42.624  14.028
80275W        W51891  34.839   0.427   9.948
80276W        W51892  16.790  35.304  12.140
80277W        W51893  26.738  25.173   4.324
80278W        W51894  26.233  24.205   1.190
80279W        W51895   9.207  43.960   4.924
80280W        W51896  31.001  31.137   3.387
80281W        W51897  38.942  39.406   4.843
80282W        W51898  30.599  28.148  11.908
80283W        W51899  41.860  20.291   1.476
80284W        W51900  16.310  15.348   0.350
80285W        W51901   1.967   2.751  13.288
80286W        W51902  12.577  30.029  14.297
80287W        W51903  32.657  32.945   3.953
80288W        W51904   3.388  24.043  14.081
80289W        W51905  37.109  35.875   1.966
80290W        W51906   4.728  25.437   2.741
80291W        W51907   9.115  14.057   0.952
80292W        W51908  44.884  18.213  13.023
80293W        W51909  27.000  41.810   3.159
80294W        W51910  35.852  12.220   0.823
80295W        W51911  16.077  23.507  10.938
80296W        W51912  36.040   9.438  13.950
80297W        W51913  37.148  11.273   1.398
80298W        W51914  25.881  11.615  13.019
80299W        W51915  43.192  43.497  11.932
80300W        W51916  43.424  38.131  13.110
80301W        W51917   7.134  39.468  13.319
80302W        W51918  20.568  29.514  14.699
80303W        W51919  40.480  17.768  14.728
80304W        W51920  39.768  36.041   0.325
80305W        W51921  18.097  42.971   0.820
80306W        W51922  38.809   5.261  13.780
80307W        W51923   1.936   2.920   0.383
80308W        W51924   2.798  21.993   5.521
80309W        W51925   0.713  19.195   2.787
80310W        W51926  39.334   3.830   0.401
80311W        W51927  41.124  24.520   1.758
80312W        W51928   8.402  35.044  12.972
80313W        W51929  44.318  12.041   3.105
80314W        W51930  21.029   1.564   1.812
80315W        W51931  31.528   0.813   2.184
80316W        W51932  42.797  23.721   2.018
80317W        W51933   3.482   9.859   1.887
80318W        W51934  16.556  28.001   2.000
80319W        W51935  14.852  12.734   3.617
80320W        W51936  13.604   7.881  11.395
80321W        W51937  36.052   6.687   0.935
80322W        W51938  20.315  19.780  11.588
80323W        W51939   2.962  40.271  11.560
80324W        W51940  31.339  33.653  11.220
80325W        W51941  30.191  33.517   2.105
80326W        W51942  38.409   4.507  12.159
80327W        W51943   3.829   4.379   2.192
80328W        W51944  20.596  29.070   0.504
80329W        W51945  28.648   7.961  12.023
80330W        W51946  27.605  19.147   4.763
80331W        W51947  22.019  30.372   2.970
80332W        W51948  29.599  29.154  14.935
80333W        W51949  12.343   2.689   4.362
80334W        W51950  13.140   2.696   3.192
80335W        W51951  24.102  14.576   3.828
80336W        W51952  33.958  24.892   3.749
80337W        W51953  10.178  24.985   1.398
80338W        W51954  13.879  41.722   3.351
80339W        W51955  16.583  41.554  11.203
80340W        W51956  39.381   5.850   3.315
80341W        W51957   5.013  42.434  11.673
80342W        W51958  19.832  26.073  11.054
80343W        W51959  27.216  30.093   0.825
80344W        W51960  29.440  27.991  12.913
80345W        W51961   4.363  17.018   4.665
80346W        W51962  39.014   7.500  14.756
80347W        W51963  17.325  16.635  11.023
80348W        W51964  22.016  39.920   2.856
80349W        W51965  34.615  43.242   2.288
80350W        W51966  20.689   6.887  13.391
80351W        W51967  29.456  20.137  12.562
80352W        W51968   9.367   6.911  14.736
80353W        W51969   8.502  32.626   1.062
80354W        W51970  39.253  29.970   1.867
80355W        W51971  25.056  21.558   4.654
80356W        W51972   5.838  14.225  14.304
80357W        W51973  26.182  41.280   2.773
80358W        W51974   5.157  18.044   0.944
80359W        W51975  19.063  44.903  13.544
80360W        W51976  14.858  28.518   1.842
80361W        W51977  32.859   4.886  14.748
80362W        W51978  10.867  26.383  14.324
80363W        W51979  31.218  34.858   4.600
80364W        W51980  33.938  21.965  12.578
80365W        W51981   4.842  16.655  13.950
80366W        W51982  41.580   4.416  12.979
80367W        W51983  12.129  16.117  11.968
80368W        W51984  26.643  13.849  14.505
80369W        W51985  10.121  16.229   0.971
80370W        W51986   9.735  29.600  13.488
80371W        W51987  17.015  18.534  13.538
80372W        W51988  33.580   0.962  11.604
80373W        W51989  18.653  17.834   0.317
80374W        W51990  43.672  19.223  11.164
80375W        W51991   0.870  29.986   0.824
80376W        W51992  43.436  37.458  11.509
80377W        W51993  11.847  41.139   3.286
80378W        W51994  13.572   8.318   1.903
80379W        W51995  12.386  32.133  14.995
80380W        W51996  25.879  11.825   0.567
80381W        W51997  39.746  17.657  12.901
80382W        W51998   5.396  39.125   3.172
80383W        W51999   3.794   6.894  11.194
80384W        W52000   3.299  41.196   1.239
80385W        W52001  32.639  10.253   0.428
80386W        W52002  34.353  19.730   0.322
80387W        W52003  14.025  21.535  10.682
80388W        W52004  37.022  13.894   0.205
80389W        W52005  12.396  31.520   2.211
80390W        W52006  15.879  42.369  13.272
80391W        W52007   4.798  39.405  10.755
80392W        W52008   1.470  17.480   1.315
80393W        W52009  44.832   9.186   3.767
80394W        W52010   5.669  38.583  14.830
80395W        W52011   8.533   8.720  10.205
80396W        W52012  40.821  34.891   3.215
80397W        W52013  18.605  22.795  10.601
80398W        W52014  15.826  44.210   1.282
80399W        W52015  24.127  15.110  12.490
80400W        W52016  35.557   5.009   0.350
80401W        W52017  21.230  41.966   0.841
80402W        W52018  21.807  20.301   1.404
80403W        W52019  37.510  37.418   4.534
80404W        W52020  19.177  23.080  12.081
80405W        W52021   9.652  16.860  13.379
80406W        W52022  25.134   3.622   1.662
80407W        W52023  26.532  12.279  14.073
80408W        W52024   3.437  38.993  14.546
80409W        W52025   5.983  32.515   4.233
80410W        W52026  24.646   7.017   4.294
80411W        W52027  43.855  16.008   3.103
80412W        W52028  15.307   9.801   2.515
80413W        W52029   9.276  26.427   1.007
80414W        W52030  30.242  30.070   4.733
80415W        W52031  39.355  15.722   9.988
80416W        W52032  12.857  15.634   0.292
80417W        W52033  18.336  10.144   3.184
80418W        W52034   5.376  14.417  13.490
80419W        W52035  36.280   9.334  14.468
80420W        W52036  23.090  27.282  13.312
80421W        W52037  13.195  26.723   1.934
80422W        W52038  12.773  41.444  14.958
80423W        W52039  19.744  17.229  12.885
80424W        W52040  41.319   4.985  11.187
80425W        W52041   3.818  22.528  11.577
80426W        W52042  18.630  39.466  11.598
80427W        W52043   2.751  40.418   1.707
80428W        W52044  16.660  27.690   0.869
80429W        W52045  19.544  17.529  12.473
80430W        W52046   7.970  32.666   0.964
80431W        W52047  17.877  41.823   0.747
80432W        W52048  21.734  40.390  12.632
80433W        W52049   2.325   3.169   2.280
80434W        W52050  12.387  14.523  11.520
80435W        W52051  29.123  30.938   0.468
80436W        W52052   8.070  37.570  12.047
80437W        W52053   7.755   6.955  14.710
80438W        W52054  32.602  27.534  11.829
80439W        W52055  16.066  42.001  14.839
80440W        W52056  33.833  16.079   2.663
80441W        W52057   2.896  21.265   1.701
80442W        W52058  15.405  36.106   2.225
80443W        W52059  13.273  35.196   2.270
80444W        W52060  25.011   9.864  11.125
80445W        W52061  22.087   7.069   4.321
80446W        W52062  21.696  43.927  13.926
80447W        W52063  24.273   9.740   1.138
80448W        W52064  19.018  16.824  14.986
80449W        W52065  44.889  25.910   4.059
80450W        W52066  11.821   4.176  13.532
80451W        W52067  31.273  18.037  11.383
80452W        W52068  38.629  15.172  14.988
80453W        W52069  44.851  20.849  10.822
80454W        W52070   5.583  30.671   4.125
80455W        W52071  19.310   5.869   2.200
80456W        W52072  40.099  10.027  14.384
80457W        W52073  44.323  22.285   4.183
80458W        W52074  23.527  21.290  14.371
80459W        W52075   1.989  22.444   2.696
80460W        W52076  35.799  25.816  12.058
80461W        W52077  44.483  17.236  12.936
80462W        W52078   3.823  19.441  14.888
80463W        W52079  11.328  39.942  11.625
80464W        W52080  34.295  37.908   2.520
80465W        W52081  11.017  22.565   3.810
80466W        W52082  37.925  23.661  11.204
80467W        W52083  39.203  10.479  10.067
80468W        W52084  39.575  20.935  13.318
80469W        W52085  43.949  10.633   0.520
80470W        W52086  38.865  19.578   4.623
80471W        W52087  39.100  17.760   4.998
80472W        W52088   5.585  39.569  11.576
80473W        W52089  41.308  27.385  13.957
80474W        W52090  20.602  22.625   0.238
80475W        W52091   1.262  26.631   0.896
80476W        W52092  43.597  34.432  13.991
80477W        W52093   8.844   3.250  11.052
80478W        W52094  43.355  37.007   3.788
80479W        W52095  38.838  27.921  12.089
80480W        W52096  23.458  25.990   2.965
80481W        W52097   5.491  19.106   1.290
80482W        W52098  44.276  18.175   4.329
80483W        W52099  10.058   0.337   4.151
80484W        W52100  21.936   5.302   0.990
80485W        W52101   7.918  34.022   4.223
80486W        W52102  17.721  38.813   1.803
80487W        W52103  22.067  38.266  14.500
80488W        W52104  32.478  33.214  11.580
80489W        W52105  18.306  18.743  11.371
80490W        W52106   0.165  21.627  11.842
80491W        W52107  22.019  10.389   1.431
80492W        W52108  38.900   0.179  10.357
80493W        W52109   6.843   8.612   1.720
80494W        W52110  23.851  22.031   0.496
80495W        W52111  42.563   4.837   4.576
80496W        W52112  15.503  34.271   4.047
80497W        W52113   2.439   2.744   3.610
80498W        W52114  31.393  37.844   1.817
80499W        W52115   3.248  32.818  12.885
80500W        W52116   4.162   3.436  11.696
80501W        W52117  19.686  12.228  11.183
80502W        W52118  43.373  12.228   1.962
80503W        W52119  17.451  11.379  14.996
80504W        W52120  14.893  23.958   4.855
80505W        W52121  38.600  40.153   2.753
80506W        W52122  29.123  18.157  14.531
80507W        W52123   6.614  39.934   1.830
80508W        W52124  39.497  13.110   3.773
80509W        W52125  24.952  40.316  13.954
80510W        W52126  13.114   1.733  12.025
80511W        W52127  27.709  15.168   0.748
80512W        W52128  36.072  15.866  10.486
80513W        W52129  31.459  34.564   2.068
80514W        W52130  15.396  19.685   3.702
80515W        W52131  26.304   5.962   5.181
80516W        W52132  25.295  19.515   3.297
80517W        W52133  11.842  35.847   4.736
80518W        W52134  24.007  22.715   1.863
80519W        W52135  14.928  10.216   3.283
80520W        W52136   7.341   6.279  11.246
80521W        W52137  43.314  35.838   0.332
80522W        W52138  41.970  43.442  10.608
80523W        W52139  23.846  37.475   2.295
80524W        W52140  32.863   2.280  13.154
80525W        W52141  11.116  16.720  13.515
80526W        W52142  30.893  40.539  11.233
80527W        W52143  11.521  23.529  12.124
80528W        W52144  39.098   4.504   4.068
80529W        W52145  28.942  17.108   1.165
80530W        W52146  30.097  19.283   1.709
80531W        W52147  16.141  13.734   0.925
80532W        W52148  41.221   4.785   0.951
80533W        W52149  33.583  21.549  14.057
80534W        W52150  41.899  29.158  14.270
80535W        W52151  41.814  35.466  14.858
80536W        W52152  29.665   0.129  14.986
80537W        W52153  27.592   3.256   0.335
80538W        W52154   6.944  35.310  11.919
80539W        W52155  26.204   4.394  14.512
80540W        W52156  22.099  14.533   3.281
80541W        W52157  30.609  23.306  14.351
80542W        W52158  15.648  36.706  11.979
80543W        W52159   1.126  12.298  11.115
80544W        W52160  36.196  16.583  12.103
80545W        W52161  20.732   5.660  12.139
80546W        W52162  41.314   6.996   3.124
80547W        W52163   2.115   6.631   4.185
80548W        W52164  43.613  18.696  10.719
80549W        W52165  10.295  12.540  11.426
80550W        W52166  25.223   6.114  11.502
80551W        W52167   2.423  36.059   3.569
80552W        W52168  35.836   2.949  11.410
80553W        W52169   2.826  13.273  13.052
80554W        W52170  22.321  23.511   4.248
80555W        W52171  15.949  39.300   2.826
80556W        W52172  16.306  26.096   3.773
80557W        W52173  39.623  23.058   3.789
80558W        W52174  31.142   1.421   4.212
80559W        W52175  19.044  18.245   3.680
80560W        W52176   4.473   5.690   2.770
80561W        W52177   2.996  29.249   3.614
80562W        W52178  17.098  44.512   3.769
80563W        W52179   2.870  12.294   0.569
80564W        W52180   6.918   7.122  14.809
80565W        W52181  16.063   2.442   2.687
80566W        W52182  34.843  22.105  14.544
80567W        W52183   9.707   9.112  13.901
80568W        W52184  11.064  17.595   2.242
80569W        W52185  16.162  13.836  13.855
80570W        W52186  24.262  13.834  11.381
80571W        W52187   2.457  21.987  11.135
80572W        W52188  21.479  32.705  10.855
80573W        W52189  25.202  37.884  11.980
80574W        W52190  24.698  34.157   4.236
80575W        W52191  10.231  37.651   4.142
80576W        W52192  40.341  17.395  12.054
80577W        W52193  26.810   6.457  13.350
80578W        W52194  25.013  32.177   5.186
80579W        W52195  42.504  33.391   3.713
80580W        W52196  39.890   5.026   0.263
80581W        W52197   6.622  26.653   0.884
80582W        W52198  19.151  11.848   4.845
80583W        W52199   4.281  16.097   3.647
80584W        W52200  15.499   3.762   0.420
80585W        W52201  20.291  23.336  11.077
80586W        W52202  29.049   4.437  10.885
80587W        W52203  22.809   0.838   2.140
80588W        W52204  11.641  15.129  14.019
80589W        W52205  28.491  35.428  13.592
80590W        W52206   5.358  35.987  13.185
80591W        W52207  12.084  40.947  10.713
80592W        W52208  18.175  12.383  13.806
80593W        W52209  20.668  14.146   4.128
80594W        W52210  29.875   7.757   2.657
80595W        W52211   7.152  40.955   4.026
80596W        W52212  26.113  10.840   3.283
80597W        W52213  23.401  18.704   1.794
80598W        W52214   3.828   3.071   3.108
80599W        W52215  21.077   3.338   4.618
80600W        W52216  28.513  41.014   0.337
80601W        W52217  27.541   8.103   4.529
80602W        W52218  23.299   1.084   0.262
80603W        W52219  27.822  43.782  12.964
80604W        W52220  17.509   1.374  14.756
80605W        W52221  19.280  11.326  13.961
80606W        W52222   0.423   5.152   4.606
80607W        W52223  43.277   4.690  14.374
80608W        W52224  26.594  27.454  14.788
80609W        W52225  38.432  12.510   4.119
80610W        W52226  11.252  18.092   0.801
80611W        W52227   9.859   3.511   0.874
80612W        W52228   3.978  41.701  11.217
80613W        W52229  22.116  29.280   4.445
80614W        W52230  10.492  16.990  14.833
80615W        W52231  22.907  31.411  13.352
80616W        W52232  32.164  12.393  12.954
80617W        W52233   6.256   6.927  11.041
80618W        W52234  28.942   3.781   2.445
80619W        W52235  30.116  38.458  11.928
80620W        W52236  25.474  16.741  11.217
80621W        W52237   6.702  40.337   4.682
80622W        W52238  35.330  25.864   0.032
80623W        W52239  21.018   9.899  12.638
80624W        W52240  10.769  39.596  14.507
80625W        W52241  28.804  19.929   4.646
80626W        W52242   7.916  21.099   0.023
80627W        W52243  23.221  32.660  11.435
80628W        W52244   9.387   9.139   2.972
80629W        W52245  42.592  41.396  14.966
80630W        W52246  20.627  27.152   0.534
80631W        W52247  21.468  12.311  14.127
80632W        W52248  26.953  14.221   5.609
80633W        W52249  13.699  14.628  11.681
80634W        W52250  42.176   8.797  13.649
80635W        W52251  35.600  21.957  12.092
80636W        W52252  11.006  20.694  11.105
80637W        W52253  11.740  24.174   0.288
80638W        W52254  16.659  43.808  13.420
80639W        W52255   6.959  20.959  13.381
80640W        W52256  24.648   0.942   3.393
80641W        W52257   1.351  24.757   0.291
80642W        W52258  28.766   8.268  14.423
80643W        W52259  20.435   6.299  10.983
80644W        W52260  43.520  14.695   3.645
80645W        W52261  25.486  37.579   0.272
80646W        W52262  35.279  23.065  10.647
80647W        W52263  30.217   5.432  12.372
80648W        W52264  11.039   7.270   3.257
80649W        W52265  26.152   4.320   4.762
80650W        W52266   1.541  17.626  12.475
80651W        W52267  16.189   4.834  10.663
80652W        W52268  34.886  42.218   0.856
80653W        W52269  29.772   4.670  14.750
80654W        W52270  21.676  21.934  11.068
80655W        W52271  10.691  39.639  10.915
80656W        W52272   7.784  43.765  13.284
80657W        W52273  29.289  28.407   3.842
80658W        W52274  25.680  18.663   4.503
80659W        W52275  28.757  35.900  12.389
80660W        W52276  21.049  27.387  11.463
80661W        W52277  37.010  34.612  10.716
80662W        W52278  12.004  34.593  14.995
80663W        W52279  39.256  18.039   1.660
80664W        W52280   2.885  40.108  13.903
80665W        W52281  22.826  19.810  14.313
80666W        W52282  30.548  32.116   3.257
80667W        W52283  31.828  14.589  13.368
80668W        W52284  34.722   4.136  14.818
80669W        W52285  16.141  38.496  12.984
80670W        W52286   6.235  27.145  13.822
80671W        W52287   7.725   8.760  13.593
80672W        W52288  19.267  18.675  14.500
80673W        W52289   7.207   7.726   0.309
80674W        W52290  26.008  18.919   2.132
80675W        W52291  15.818   0.487  11.292
80676W        W52292  23.578  16.742  12.004
80677W        W52293  36.480  43.545  14.057
80678W        W52294   3.316  11.590   0.927
80679W        W52295  12.228  30.591  14.100
80680W        W52296  27.960  30.013   3.246
80681W        W52297  21.996   6.438  11.074
80682W        W52298  31.631   1.834   2.343
80683W        W52299  33.529  33.941   3.448
80684W        W52300  25.479  32.500  11.642
80685W        W52301  11.920  21.109  12.083
80686W        W52302  35.119  33.022  11.483
80687W        W52303  20.836  18.113  13.389
80688W        W52304   3.502  25.231  14.486
80689W        W52305  28.456  41.619  12.458
80690W        W52306   8.728  36.341   0.212
80691W        W52307   1.260   4.196  11.076
80692W        W52308  14.712  34.178   3.107
80693W        W52309  44.387   5.671   1.768
80694W        W52310  17.073  19.140  10.070
80695W        W52311  26.506  27.042   4.645
80696W        W52312  20.525  14.198  11.807
80697W        W52313  24.647  30.568   1.204
80698W        W52314   2.512  37.018   2.436
80699W        W52315  29.933  31.979  12.926
80700W        W52316  23.641  16.677  14.073
80701W        W52317  18.684   6.292   3.750
80702W        W52318  15.753  31.484   3.434
80703W        W52319  39.268  18.694   2.702
80704W        W52320  37.316  32.014  10.276
80705W        W52321  33.862  18.251  11.944
80706W        W52322   9.308   8.434   2.266
80707W        W52323   0.894   2.936  14.828
80708W        W52324   1.801  37.597   4.108
80709W        W52325  33.912  29.520   1.109
80710W        W52326  15.014  42.477   0.466
80711W        W52327   4.344   6.938  10.541
80712W        W52328  15.681  16.057  14.412
80713W        W52329  14.337   5.354   3.696
80714W        W52330   5.280   2.330   4.775
80715W        W52331  32.968   2.752  12.387
80716W        W52332  10.213   9.829  12.930
80717W        W52333  28.160  22.166   0.809
80718W        W52334  31.247  44.949   4.520
80719W        W52335  42.864  41.590   0.354
80720W        W52336   1.748   3.417   1.334
80721W        W52337  43.245  38.966  14.313
80722W        W52338  42.196   3.696   0.814
80723W        W52339  36.764   3.325  12.609
80724W        W52340  10.883  15.531  12.020
80725W        W52341  37.539  18.624   1.695
80726W        W52342  40.321  32.151   1.688
80727W        W52343   8.833  33.105  14.430
80728W        W52344  22.510  10.664  11.420
80729W        W52345  38.602  40.895  14.854
80730W        W52346  24.693  11.777   3.803
80731W        W52347   7.825  44.837  14.096
80732W        W52348   5.140  31.369   2.425
80733W        W52349   3.036  11.809   4.142
80734W        W52350   1.230  29.218   1.204
80735W        W52351  18.685   6.655  11.412
80736W        W52352   7.801  44.238  10.796
80737W        W52353  17.201  44.076  12.682
80738W        W52354   7.630  11.784   3.880
80739W        W52355  15.226   4.201   2.946
80740W        W52356  33.927  15.302  12.500
80741W        W52357  32.064  33.550  10.602
80742W        W52358  14.397  28.213   2.324
80743W        W52359  44.855  44.739  14.749
80744W        W52360   9.279  12.313  10.988
80745W        W52361  28.417  31.940  12.940
80746W        W52362  10.299   0.017   0.276
80747W        W52363  44.430  12.946   4.584
80748W        W52364   6.392  14.173  14.705
80749W        W52365  28.548  19.249  12.369
80750W        W52366  14.636  42.710   2.904
80751W        W52367  19.231  29.871   4.873
80752W        W52368   7.368   5.851   0.356
80753W        W52369  40.499  32.402   1.269
80754W        W52370  35.469  11.164  14.707
80755W        W52371  41.434  18.900  14.874
80756W        W52372   4.753  23.195  12.933
80757W        W52373  10.293  11.671  13.780
80758W        W52374  19.212   9.416  10.615
80759W        W52375  43.769   5.036   0.665
80760W        W52376  15.898  41.695   2.828
80761W        W52377  14.415  18.236  13.108
80762W        W52378  12.636  35.648  12.087
80763W        W52379   4.768   3.918   3.787
80764W        W52380   8.555  39.726   3.871
80765W        W52381   5.258  44.033  13.290
80766W        W52382   0.647  26.625   2.290
80767W        W52383   8.761  35.009   4.565
80768W        W52384  36.241  31.512   3.499
80769W        W52385  12.712  15.198  14.973
80770W        W52386   5.490  26.198   4.347
80771W        W52387  14.343   6.968   2.253
80772W        W52388  35.612   0.458   2.267
80773W        W52389  36.970   8.344  13.333
80774W        W52390  11.261  27.228  11.597
80775W        W52391  11.841  14.239  13.546
80776W        W52392  28.506   8.280  14.890
80777W        W52393  22.997  43.350   3.333
80778W        W52394   8.351   1.774   3.798
80779W        W52395   5.669  16.516  12.916
80780W        W52396  34.463  22.936   4.668
80781W        W52397  44.848  32.089  14.874
80782W        W52398  36.851   1.944   2.380
80783W        W52399  37.163  35.571  11.201
80784W        W52400  32.864  32.089  10.435
80785W        W52401   1.878  41.065   3.389
80786W        W52402  30.941  11.388   1.452
80787W        W52403  28.260  33.046   4.185
80788W        W52404   1.660  12.261  14.574
80789W        W52405  24.511  25.498   3.797
80790W        W52406  32.426  36.889  12.017
80791W        W52407  11.022  28.011  10.116
80792W        W52408  40.505  38.080   0.319
80793W        W52409  20.726  13.127  13.285
80794W        W52410  12.102  17.639   3.367
80795W        W52411  41.986  27.190  10.637
80796W        W52412  15.927  20.379   3.378
80797W        W52413  13.728  39.967  13.673
80798W        W52414  31.080  29.933  12.200
80799W        W52415   2.208   1.800  11.051
80800W        W52416  25.416  41.791  14.651
80801W        W52417   4.473  24.520  10.563
80802W        W52418   5.436  22.221  11.531
80803W        W52419   7.618  39.020   0.911
80804W        W52420  12.941  18.323  10.266
80805W        W52421  37.367   9.664   3.775
80806W        W52422  35.582  41.751   0.452
80807W        W52423  43.520  11.911  13.508
80808W        W52424  13.615   1.953  14.257
80809W        W52425   3.633  34.005   2.404
80810W        W52426  19.586   3.542  11.139
80811W        W52427  39.013  28.938   2.652
80812W        W52428  25.687  18.598  12.849
80813W        W52429  35.505   8.098  10.614
80814W        W52430  15.701   5.284  11.033
80815W        W52431  35.632  44.304   2.646
80816W        W52432  30.074  15.323  14.428
80817W        W52433  27.964   5.432  14.350
80818W        W52434   7.362  31.213  12.456
80819W        W52435  10.582  43.412   2.892
80820W        W52436  41.842  21.929  13.931
80821W        W52437   9.764  32.057   0.426
80822W        W52438  30.703  20.137   1.886
80823W        W52439   6.762  43.102  14.782
80824W        W52440  18.428  31.490   4.143
80825W        W52441   8.694   4.842   2.175
80826W        W52442  15.662  22.453  14.945
80827W        W52443   7.927  38.115  13.145
80828W        W52444  10.089  36.146   2.117
80829W        W52445  12.148  33.207  12.975
80830W        W52446   8.825  11.104  12.079
80831W        W52447  10.788   9.685   2.845
80832W        W52448  31.963  19.031   3.138
80833W        W52449  37.556  31.030   3.367
80834W        W52450  22.078  39.055   3.734
80835W        W52451  42.751  42.502   1.690
80836W        W52452  19.254  18.878  11.585
80837W        W52453  10.392   1.544  14.490
80838W        W52454  29.572   0.468  10.606
80839W        W52455  18.032  41.774  13.660
80840W        W52456   4.031  34.859  11.202
80841W        W52457  17.839   5.386  13.774
80842W        W52458   0.864  30.004  13.825
80843W        W52459   5.859  36.014   0.230
80844W        W52460   9.729   0.697   4.411
80845W        W52461  43.745  36.053  14.446
80846W        W52462  36.286   7.215   4.955
80847W        W52463  10.207  23.480   2.520
80848W        W52464  44.717  39.044   4.076
80849W        W52465  15.105   7.160   1.273
80850W        W52466  23.569  21.519   1.636
80851W        W52467  36.470  21.998   3.177
80852W        W52468  35.956  24.052   1.822
80853W        W52469  22.450  23.107   0.927
80854W        W52470   8.304   4.001  14.580
80855W        W52471   3.329   9.336   2.740
80856W        W52472  32.994  41.407  13.455
80857W        W52473  23.048  17.235   0.795
80858W        W52474  32.179   3.859   4.267
80859W        W52475  23.888  34.605   1.102
80860W        W52476  13.756  37.260  11.800
80861W        W52477  37.688  19.808  12.572
80862W        W52478  22.231  33.505  14.453
80863W        W52479  41.965  28.159  13.479
80864W        W52480  31.804  32.387   4.586
80865W        W52481  10.779  25.547   3.163
80866W        W52482  24.419  18.132  12.378
80867W        W52483  28.725  28.444  13.978
80868W        W52484  25.466  28.740   3.820
80869W        W52485  15.172  40.537  11.479
80870W        W52486  35.060   0.283   4.353
80871W        W52487  35.673  41.145  11.119
80872W        W52488   2.213  27.158   3.727
80873W        W52489  26.282  19.784   1.863
80874W        W52490  13.766  43.416   1.262
80875W        W52491   2.090   3.418   0.451
80876W        W52492   4.762  13.833   3.785
80877W        W52493  23.370  36.054   0.339
80878W        W52494  44.404   0.192  12.922
80879W        W52495  41.952  20.490  10.709
80880W        W52496  36.367  23.538  14.004
80881W        W52497   3.766   1.471  12.498
80882W        W52498  14.739  39.540  13.842
80883W        W52499  41.047  33.205   1.343
80884W        W52500   7.437   5.011  12.059
80885W        W52501  14.667   5.823   4.544
80886W        W52502  24.148  36.588  12.603
80887W        W52503  22.812  10.577  10.454
80888W        W52504  12.674  21.789  13.896
80889W        W52505  22.770  12.349   1.789
80890W        W52506  31.374  22.948   2.042
80891W        W52507  36.037  42.098   2.705
80892W        W52508  24.227  34.220  10.999
80893W        W52509  40.194  37.476   5.027
80894W        W52510  43.079  18.238  10.608
80895W        W52511  20.190  33.332  12.442
80896W        W52512  17.839  32.410   3.259
80897W        W52513   1.408  39.529  12.453
80898W        W52514  14.100  18.786  10.140
80899W        W52515  20.084  29.464   1.387
80900W        W52516  37.095  12.288  10.691
80901W        W52517  21.454  15.499  14.496
80902W        W52518  21.462   6.133   3.322
80903W        W52519  31.033  28.322  11.139
80904W        W52520  33.925  30.101  10.844
80905W        W52521   6.235  13.896   1.474
80906W        W52522  22.597  20.143   4.601
80907W        W52523  26.302  33.849  10.837
80908W        W52524   2.737  33.275   1.287
80909W        W52525  25.369  19.857   5.005
80910W        W52526  38.910  30.479   2.759
80911W        W52527  36.107   0.900   1.859
80912W        W52528   8.847  15.350  10.783
80913W        W52529  20.831  30.158  13.748
80914W        W52530  10.718  37.875  14.206
80915W        W52531   4.247  43.930   2.861
80916W        W52532  38.060  22.618  13.882
80917W        W52533  18.774  10.736  13.000
80918W        W52534  37.093  14.140   3.801
80919W        W52535  17.643   8.601   3.762
80920W        W52536  26.616  12.881  11.619
80921W        W52537  15.859  22.110   4.527
80922W        W52538  14.262  32.333  14.526
80923W        W52539   1.890   1.215   4.806
80924W        W52540  28.589  39.430   3.161
80925W        W52541  18.620   6.131   3.214
80926W        W52542  33.688  44.764  11.254
80927W        W52543  17.682  16.080  12.168
80928W        W52544   9.334   4.485   4.296
80929W        W52545  32.137  39.320   0.880
80930W        W52546  11.741  12.182   4.079
80931W        W52547   0.483  10.296  13.489
80932W        W52548  27.071  31.179   4.112
80933W        W52549  11.643  27.671   3.615
80934W        W52550   2.773  12.681   0.219
80935W        W52551  37.264  28.256   3.249
80936W        W52552   3.619   2.963   1.794
80937W        W52553   0.848  13.099  12.969
80938W        W52554  39.067  23.882  14.447
80939W        W52555   2.407  35.023  13.185
80940W        W52556  20.530  13.538   0.150
80941W        W52557  32.637   4.019   0.974
80942W        W52558  40.077  40.335  13.697
80943W        W52559  38.751  35.973  13.246
80944W        W52560  28.423   6.324   2.003
80945W        W52561   8.569  17.492   4.152
80946W        W52562  32.085  14.355  12.087
80947W        W52563  31.543  22.648  11.072
80948W        W52564   1.466  13.265   4.324
80949W        W52565  36.317  36.759   0.745
80950W        W52566  36.413   7.101  13.020
80951W        W52567  27.703  15.324  14.329
80952W        W52568  15.005  28.932   0.158
80953W        W52569  16.807  21.173   3.789
80954W        W52570  26.573   9.823  13.831
80955W        W52571  25.008  39.431   2.339
80956W        W52572  38.338  19.435   4.612
80957W        W52573  20.144  24.451   1.168
80958W        W52574  16.347  13.352  12.427
80959W        W52575   6.393  21.082   2.743
80960W        W52576  12.869  32.052   0.100
80961W        W52577   8.200  32.664  14.787
80962W        W52578   2.271  23.888  13.401
80963W        W52579  16.991  32.915  12.811
80964W        W52580  18.603  40.208   2.253
80965W        W52581  31.345  15.052  10.713
80966W        W52582  27.517   9.329  10.731
80967W        W52583  28.687  27.446   1.442
80968W        W52584  43.158  10.649  12.152
80969W        W52585  33.449   4.411   2.853
80970W        W52586  19.304  11.729   3.277
80971W        W52587   8.621  15.802  10.771
80972W        W52588  26.644  19.423   1.746
80973W        W52589  34.621  42.218   0.399
80974W        W52590  27.605  18.512   1.032
80975W        W52591  37.581  36.972  12.984
80976W        W52592  22.609   2.263   1.441
80977W        W52593  32.967   2.003   3.183
80978W        W52594   9.712  24.254  11.719
80979W        W52595  26.959  25.051  14.680
80980W        W52596   0.066  15.381  11.142
80981W        W52597   3.438   8.315   2.639
80982W        W52598  30.935  11.829  14.823
80983W        W52599   9.855  16.041   3.194
80984W        W52600  10.795   7.081  11.137
80985W        W52601  27.257   2.964   3.354
80986W        W52602   8.849  29.867   1.835
80987W        W52603  28.479  12.810   0.380
80988W        W52604  22.066   3.679  14.290
80989W        W52605   2.971   2.901   0.325
80990W        W52606  16.716  16.196   9.862
80991W        W52607  15.662   6.346  14.029
80992W        W52608  16.247  41.534  11.612
80993W        W52609  43.554  43.027   5.029
80994W        W52610   8.319  11.912  13.000
80995W        W52611  13.429   4.873  12.282
80996W        W52612  12.769  16.279   3.352
80997W        W52613  41.975  31.671   4.179
80998W        W52614   3.599   3.744   1.716
80999W        W52615  41.947   6.715   2.772
81000W        W52616  14.523  21.615   1.542
81001W        W52617  11.648  15.396   0.879
81002W        W52618  43.945  16.823   2.884
81003W        W52619  38.816  31.358  14.827
81004W        W52620   2.741   7.422   3.268
81005W        W52621  23.823  36.512  13.351
81006W        W52622  14.896  20.911  10.216
81007W        W52623  10.638  34.473   0.267
81008W        W52624  10.681  35.878   1.731
81009W        W52625  35.694  26.755  11.159
81010W        W52626  34.849  19.189  13.928
81011W        W52627  44.963  19.371  10.829
81012W        W52628   3.433   5.420   1.431
81013W        W52629  18.937  43.434  10.196
81014W        W52630   1.865  32.065  14.803
81015W        W52631   7.383  34.032   3.256
81016W        W52632   0.343  27.133   0.854
81017W        W52633  20.929  17.590  13.561
81018W        W52634  20.138  18.239  12.598
81019W        W52635  27.260  19.740  12.040
81020W        W52636  28.877  30.018  13.635
81021W        W52637  38.883  15.573  11.196
81022W        W52638   1.041  37.113   5.599
81023W        W52639  32.360  36.566   2.810
81024W        W52640  18.502  25.692  11.074
81025W        W52641  31.182  28.926   2.382
81026W        W52642  26.473  10.378   1.577
81027W        W52643  22.624  21.168  11.434
81028W        W52644   0.251  13.683  13.502
81029W        W52645  37.479  20.203   3.160
81030W        W52646   5.118  19.616  14.753
81031W        W52647  36.670  11.086  13.579
81032W        W52648  42.026  11.791  13.953
81033W        W52649  31.920  16.238  14.753
81034W        W52650  16.423  44.446   1.667
81035W        W52651  12.130  29.175  13.785
81036W        W52652  33.593   1.719  10.286
81037W        W52653   9.390  34.856  12.893
81038W        W52654   5.972  34.844  10.981
81039W        W52655  23.164   0.891  12.999
81040W        W52656  17.558   2.380   0.975
81041W        W52657  11.437  37.102   1.789
81042W        W52658  30.777  23.966   1.040
81043W        W52659  16.100   8.236   3.153
81044W        W52660  11.632  21.294   1.918
81045W        W52661  25.962  23.763   2.523
81046W        W52662  14.166  35.724   4.099
81047W        W52663   4.738   2.239  11.118
81048W        W52664  41.997  33.498   1.411
81049W        W52665  34.708  26.787   4.071
81050W        W52666  11.317   8.139   2.326
81051W        W52667  11.391  30.110  14.566
81052W        W52668  20.175  19.549  13.896
81053W        W52669  34.697  33.192  14.447
81054W        W52670  25.633   5.319   2.430
81055W        W52671   1.300  36.526  11.173
81056W        W52672  41.507  38.030  11.344
81057W        W52673  12.263   1.268   3.871
81058W        W52674  29.579   8.136   4.306
81059W        W52675   7.101  25.532   4.566
81060W        W52676  17.554   5.637   2.765
81061W        W52677  25.544  19.605  14.809
81062W        W52678   7.409  43.536   0.668
81063W        W52679  15.777  40.908   0.994
81064W        W52680  39.052  12.221  14.985
81065W        W52681  32.569  11.954  11.565
81066W        W52682   6.903  41.411  12.580
81067W        W52683  31.008  19.944   3.601
81068W        W52684  25.839  12.988  12.492
81069W        W52685  11.157   0.986  14.158
81070W        W52686  15.721   4.505   4.566
81071W        W52687   6.008  41.436   0.791
81072W        W52688  36.989  10.629   2.430
81073W        W52689   2.190  12.664  12.438
81074W        W52690  22.721  33.383   2.334
81075W        W52691  38.226  29.902  13.989
81076W        W52692  21.142   7.812  10.749
81077W        W52693  40.570  37.971   0.827
81078W        W52694  19.187  31.847   0.634
81079W        W52695  42.162  20.647  14.612
81080W        W52696  32.275  37.941   4.862
81081W        W52697  13.609  34.326  13.794
81082W        W52698  15.593  25.243   1.752
81083W        W52699  30.452  31.218   0.865
81084W        W52700  33.658  39.951   4.230
81085W        W52701  26.527  39.111   0.241
81086W        W52702  25.894   3.190   4.296
81087W        W52703   5.746  17.816   3.554
81088W        W52704  12.930   0.419  14.864
81089W        W52705  42.858  28.968  10.683
81090W        W52706  18.687  16.087  13.036
81091W        W52707  21.768   8.421   0.428
81092W        W52708  40.426  18.373   0.194
81093W        W52709  43.702  36.086  13.036
81094W        W52710  20.242  20.945  11.587
81095W        W52711  43.156  23.580  11.186
81096W        W52712  22.120  34.715  13.825
81097W        W52713   3.221   5.745  10.456
81098W        W52714  26.318  19.370   2.174
81099W        W52715   8.164  14.005   3.856
81100W        W52716  44.066  34.328  14.845
81101W        W52717  29.391  29.055   0.398
81102W        W52718  31.426  41.497  12.021
81103W        W52719  28.079  28.509  12.865
81104W        W52720  39.308  38.836   0.283
81105W        W52721   8.374  38.941   3.238
81106W        W52722  12.372  32.324   3.240
81107W        W52723  44.787  11.882  13.093
81108W        W52724  35.244  43.194   4.251
81109W        W52725   9.682  29.898   1.382
81110W        W52726  37.814  19.895   4.957
81111W        W52727   2.776   8.242  11.523
81112W        W52728   7.974  20.154  12.991
81113W        W52729  40.133  35.936  12.477
81114W        W52730   3.879   8.201   3.262
81115W        W52731  23.020  35.955  13.408
81116W        W52732  43.488  12.349  11.879
81117W        W52733  16.786  22.929   4.108
81118W        W52734  42.933  27.756  13.463
81119W        W52735  18.117   6.071   1.891
81120W        W52736  37.065  10.202   4.295
81121W        W52737   2.396   8.218   3.626
81122W        W52738  15.108  19.694  14.420
81123W        W52739  21.625   0.652  11.919
81124W        W52740  37.950  12.694  13.905
81125W        W52741   0.188  28.059   4.313
81126W        W52742  22.323  30.090   3.297
81127W        W52743  20.604  30.935   1.871
81128W        W52744   0.228   7.444   0.463
81129W        W52745   1.238  43.455   1.417
81130W        W52746  18.224  14.111  13.845
81131W        W52747  12.542  36.489   3.989
81132W        W52748   9.224   3.177  11.401
81133W        W52749  27.599  41.585  14.521
81134W        W52750  20.703  19.792  11.975
81135W        W52751  24.227  39.897   1.750
81136W        W52752  35.017  10.871  11.615
81137W        W52753   7.675  36.754   3.584
81138W        W52754  18.284  37.308  13.414
81139W        W52755  17.630   7.888   4.526
81140W        W52756  12.945  41.922  12.460
81141W        W52757  16.645  22.236  14.708
81142W        W52758  20.064  22.458   4.880
81143W        W52759  19.445  39.283   0.959
81144W        W52760  29.111  32.386  13.451
81145W        W52761  33.805  28.720  11.269
81146W        W52762  41.268   2.333   3.725
81147W        W52763  41.753  25.714   1.591
81148W        W52764  16.862  13.933  11.890
81149W        W52765   4.315   0.650   1.391
81150W        W52766   1.497  19.058  12.518
81151W        W52767   9.780  10.439  14.483
81152W        W52768   1.300  34.722   1.976
81153W        W52769  11.292   2.248   0.688
81154W        W52770  44.945  12.383  13.095
81155W        W52771  19.622  15.695   2.793
81156W        W52772  18.072  25.135  13.551
81157W        W52773   8.922   6.355  12.616
81158W        W52774   0.981  28.208   0.559
81159W        W52775  32.730   2.568   2.567
81160W        W52776  40.113   9.261  12.147
81161W        W52777  26.628  34.156  12.030
81162W        W52778   7.275  18.519  10.677
81163W        W52779  23.720   0.583  11.432
81164W        W52780  29.469  43.449   2.084
81165W        W52781  19.270  26.999  13.484
81166W        W52782   2.362  20.022  14.799
81167W        W52783  36.569  32.539  14.390
81168W        W52784   9.851   2.033   4.213
81169W        W52785   9.728   9.110   4.203
81170W        W52786  21.817  19.073   0.383
81171W        W52787   0.742  21.554   3.219
81172W        W52788  13.876  26.397   0.442
81173W        W52789  20.607   1.837  14.412
81174W        W52790   4.254   4.700   3.753
81175W        W52791  38.130   8.130   0.967
81176W        W52792  19.671  28.880  12.219
81177W        W52793  43.818   1.704  14.254
81178W        W52794  13.667  38.971   3.327
81179W        W52795   9.616  38.519  14.712
81180W        W52796   8.802  44.478   0.735
81181W        W52797   8.918  15.108  13.625
81182W        W52798   9.217  33.165   2.255
81183W        W52799  35.461   8.198   1.384
81184W        W52800  27.178  17.086  14.076
81185W        W52801  10.651  37.113   4.708
81186W        W52802  20.679  42.201  13.432
81187W        W52803   6.166  17.999   1.385
81188W        W52804   0.930   1.278   0.219
81189W        W52805  42.435  31.981   2.189
81190W        W52806  10.069  26.555  13.432
81191W        W52807  10.159   8.702  11.147
81192W        W52808  38.987   6.855   4.293
81193W        W52809  33.635  16.064   0.737
81194W        W52810  33.622   7.140   1.876
81195W        W52811  25.770  15.254   3.285
81196W        W52812  20.795  20.335  12.068
81197W        W52813  35.629  22.178  14.262
81198W        W52814  10.129   4.835   1.248
81199W        W52815   0.850  32.567  10.700
81200W        W52816  17.462  18.539  11.117
81201W        W52817  42.554  24.228  11.648
81202W        W52818  24.704  37.050  13.445
81203W        W52819  24.469  30.134   1.742
81204W        W52820  32.136  34.383   4.670
81205W        W52821  44.733  40.871   2.362
81206W        W52822   7.183  43.267   4.132
81207W        W52823  23.517  40.967   4.787
81208W        W52824  38.789  37.742   0.950
81209W        W52825   0.261  25.254  12.026
81210W        W52826  21.344  19.002   5.215
81211W        W52827  40.831  33.882   1.380
81212W        W52828  29.977  22.548  11.432
81213W        W52829  30.028  18.980   4.223
81214W        W52830  10.075  18.882  12.858
81215W        W52831   8.005  19.712   9.775
81216W        W52832  44.775   1.253   3.078
81217W        W52833  33.654   9.797  11.646
81218W        W52834  29.980  39.912  14.408
81219W        W52835  13.974  42.605   1.295
81220W        W52836  35.512  16.415  13.330
81221W        W52837  22.290  11.217   1.768
81222W        W52838   8.685  27.634  14.887
81223W        W52839  40.819  19.078  12.235
81224W        W52840  40.881  17.236  13.381
81225W        W52841   5.921  13.785  12.829
81226W        W52842  12.626  24.071   1.642
81227W        W52843  29.968  29.896   1.388
81228W        W52844  44.311  20.714  13.001
81229W        W52845  44.835  15.520   3.337
81230W        W52846   5.942  37.957  12.194
81231W        W52847  42.634  34.365  13.721
81232W        W52848  42.317   7.700   0.933
81233W        W52849  10.556  24.703   0.224
81234W        W52850  13.498  41.908  12.416
81235W        W52851  31.890   5.486   4.108
81236W        W52852  16.673  21.074   4.770
81237W        W52853  25.639   0.384   2.665
81238W        W52854   8.534  25.932   4.545
81239W        W52855  24.769  31.089  10.779
81240W        W52856  30.113  27.959  10.176
81241W        W52857   7.250  13.015   4.593
81242W        W52858  34.921  14.603   4.279
81243W        W52859  38.353  42.719  11.124
81244W        W52860  44.702  21.931  12.922
81245W        W52861   3.910  32.905  14.794
81246W        W52862   1.746   0.675   0.046
81247W        W52863  33.531  20.986   2.036
81248W        W52864  30.516  40.659  12.536
81249W        W52865  28.127  30.653  13.348
81250W        W52866  14.222  14.527  13.901
81251W        W52867  33.402  19.618  10.248
81252W        W52868  15.693  37.465  11.285
81253W        W52869  20.377  39.553   3.212
81254W        W52870  28.040  41.952   0.427
81255W        W52871  38.387  18.142   4.741
81256W        W52872  32.957  15.097   0.321
81257W        W52873   9.498  44.201  11.639
81258W        W52874  10.805  27.942  10.790
81259W        W52875  19.120   8.767  10.277
81260W        W52876  35.921  16.166  13.554
81261W        W52877  17.621  28.932  13.861
81262W        W52878  20.151  30.515   0.728
81263W        W52879  12.289  22.057   2.804
81264W        W52880  32.050  42.559  14.718
81265W        W52881  15.323   7.765   3.096
81266W        W52882   9.227  40.147  10.259
81267W        W52883   4.741  37.735  13.563
81268W        W52884   3.803  23.609   2.844
81269W        W52885  13.558  17.301  11.071
81270W        W52886   4.799  36.625  10.557
81271W        W52887  29.014  35.363  13.825
81272W        W52888  24.486  35.621  14.347
81273W        W52889  10.348  30.640   2.841
81274W        W52890  19.776  17.507   2.743
81275W        W52891  18.174  33.981  11.080
81276W        W52892  25.646  30.942   0.846
81277W        W52893  17.578  38.434  10.661
81278W        W52894   1.432  28.635  14.464
81279W        W52895   8.128  32.590  12.965
81280W        W52896  37.939  19.736   0.470
81281W        W52897  20.961  36.307   3.773
81282W        W52898  28.478   6.746   2.956
81283W        W52899  20.006  21.630  13.827
81284W        W52900  14.202  14.717  14.416
81285W        W52901  37.353  40.619  13.626
81286W        W52902  33.909   9.273  12.440
81287W        W52903  18.244  31.475   0.429
81288W        W52904   2.759  26.062  12.604
81289W        W52905  22.518  15.061  10.733
81290W        W52906  34.399   5.916  13.534
81291W        W52907  33.566  32.790   3.446
81292W        W52908  42.524  24.520  12.879
81293W        W52909  20.657   9.741  11.567
81294W        W52910  34.339  33.029  11.047
81295W        W52911  39.090  15.565   2.329
81296W        W52912   0.314  22.566   2.266
81297W        W52913  13.237  11.687   0.513
81298W        W52914  29.060  20.605   1.034
81299W        W52915   5.238   8.468   4.570
81300W        W52916  32.784  11.752  14.953
81301W        W52917  19.087  23.309  13.585
81302W        W52918   2.879   1.889  13.924
81303W        W52919  26.117   7.409   1.979
81304W        W52920   0.005  36.633   2.741
81305W        W52921  14.362  25.092  10.431
81306W        W52922  17.352  30.838   2.895
81307W        W52923  10.202  42.973   0.787
81308W        W52924   1.796   8.994  13.422
81309W        W52925  33.011   3.443   4.553
81310W        W52926   6.478  22.188  14.914
81311W        W52927  28.609  39.485   4.615
81312W        W52928  28.624  19.215  11.864
81313W        W52929  38.829  36.120  11.579
81314W        W52930  11.912  34.524   0.867
81315W        W52931  42.137  35.786   9.908
81316W        W52932  26.197  15.670  11.398
81317W        W52933   6.421  18.535   3.628
81318W        W52934  10.355   7.630   2.192
81319W        W52935  32.967   5.903   2.222
81320W        W52936  24.473  28.984   4.090
81321W        W52937  32.081  17.297   2.696
81322W        W52938  22.999  21.510  11.472
81323W        W52939  18.623  29.708   1.817
81324W        W52940  17.562   4.852  10.890
81325W        W52941  16.382   3.839  12.385
81326W        W52942  32.119   8.272  13.280
81327W        W52943  11.775  19.294  11.995
81328W        W52944  31.933  44.458   5.505
81329W        W52945  13.757  34.308   0.213
81330W        W52946  10.943  36.459  11.641
81331W        W52947  22.674  42.902   0.756
81332W        W52948  33.437  44.446   2.703
81333W        W52949  21.975  40.380  10.649
81334W        W52950  35.371  16.807  11.114
81335W        W52951  19.373   2.498   3.721
81336W        W52952  31.630  37.912  12.134
81337W        W52953  23.286  23.056  13.112
81338W        W52954  35.114  27.483   2.124
81339W        W52955   3.643  34.042   4.898
81340W        W52956  40.961   4.941   1.533
81341W        W52957  41.054  15.213   3.203
81342W        W52958  28.958   8.674  11.259
81343W        W52959   7.676   2.957   1.985
81344W        W52960  26.509   6.277   0.746
81345W        W52961  16.614   7.679  13.839
81346W        W52962  34.585  30.537   4.526
81347W        W52963  14.053   6.764  12.242
81348W        W52964  40.812  27.701   1.449
81349W        W52965  42.604  33.183  12.264
81350W        W52966   2.671  40.983   2.490
81351W        W52967  11.793   1.514   1.190
81352W        W52968   4.888  31.712  10.956
81353W        W52969  12.611  12.600   1.005
81354W        W52970   3.836   0.073  14.267
81355W        W52971   2.724  29.899   0.378
81356W        W52972  43.558  24.014   0.359
81357W        W52973  41.733  36.341   4.195
81358W        W52974  39.386  30.183  13.879
81359W        W52975   0.860  34.051  14.948
81360W        W52976  12.437  35.845   2.317
81361W        W52977  29.423  24.478  13.032
81362W        W52978   3.930   0.944   0.548
81363W        W52979  14.972  39.516   2.907
81364W        W52980  15.255  43.780   3.863
81365W        W52981  42.030   7.910   2.660
81366W        W52982  25.394  31.773   3.587
81367W        W52983  28.016  22.132  12.579
81368W        W52984  22.553  33.449   0.977
81369W        W52985  37.955  37.613   4.355
81370W        W52986  15.233  41.288  13.105
81371W        W52987  19.626  36.114   2.669
81372W        W52988  39.149  27.101   0.295
81373W        W52989  37.425  11.139   1.813
81374W        W52990  23.045  12.200  14.441
81375W        W52991  17.756   0.129   9.691
81376W        W52992  24.014   8.711  13.135
81377W        W52993  38.908  18.415  14.362
81378W        W52994  29.406  20.616  10.386
81379W        W52995  30.061  13.054  11.312
81380W        W52996  39.907   2.197   2.378
81381W        W52997   3.356   5.864   5.112
81382W        W52998  17.775   9.635   0.892
81383W        W52999  10.727  10.381   3.990
81384W        W53000   8.418   3.993  13.108
81385W        W53001  21.933  11.378  11.498
81386W        W53002  37.393  12.168  14.872
81387W        W53003  20.218  19.266  14.342
81388W        W53004   6.356   3.408   0.223
81389W        W53005  36.084  35.593   4.470
81390W        W53006   1.666  31.364   1.629
81391W        W53007  20.833   9.848  14.016
81392W        W53008  13.297   0.523  11.176
81393W        W53009  34.434  44.891   3.570
81394W        W53010  36.943  30.292   3.092
81395W        W53011  30.500  20.543   3.638
81396W        W53012  19.431   1.992   4.599
81397W        W53013   1.908  36.722  13.126
81398W        W53014  32.352  38.630   1.444
81399W        W53015  38.836  29.660   3.156
81400W        W53016  13.866  24.837  14.518
81401W        W53017  25.122  10.697  12.653
81402W        W53018  16.522  15.684   3.466
81403W        W53019  30.538   9.458  14.342
81404W        W53020   5.952  16.975   2.201
81405W        W53021  17.688  20.002  14.985
81406W        W53022  28.759  24.142  14.771
81407W        W53023  43.196   6.902   4.573
81408W        W53024  31.655  44.914  10.505
81409W        W53025  22.628  42.052  12.459
81410W        W53026   3.495  10.761  13.158
81411W        W53027  43.553   5.903   2.922
81412W        W53028  28.226   6.502   3.669
81413W        W53029   9.739   6.344  10.861
81414W        W53030  18.349  27.133   0.568
81415W        W53031  18.554  12.734   0.822
81416W        W53032   7.367  40.536  12.533
81417W        W53033  32.780  22.584   3.436
81418W        W53034   8.904  38.290  11.473
81419W        W53035   7.181  28.922  14.902
81420W        W53036  14.804   0.035   4.535
81421W        W53037  28.878  10.696   2.802
81422W        W53038   5.284  34.660   3.910
81423W        W53039  34.015   0.032   0.389
81424W        W53040  26.445  30.357  10.656
81425W        W53041  34.973   8.777  14.889
81426W        W53042  19.173  41.562  14.357
81427W        W53043  28.931  21.868  12.159
81428W        W53044  21.788  23.485   0.779
81429W        W53045   1.553  25.634   0.081
81430W        W53046  31.557  41.475   3.338
81431W        W53047  40.242   6.119   0.013
81432W        W53048  16.087   1.956   0.810
81433W        W53049  17.758  40.386  10.541
81434W        W53050  38.826  24.782   0.165
81435W        W53051  20.824  42.779  14.359
81436W        W53052   1.126   2.963   3.390
81437W        W53053  23.205  37.997   3.570
81438W        W53054  36.948  31.321   4.284
81439W        W53055  33.138  39.952   4.298
81440W        W53056  16.889  17.995  12.379
81441W        W53057  35.666  27.276  11.087
81442W        W53058  31.106  15.740   2.442
81443W        W53059   4.344  12.058  11.545
81444W        W53060  11.701  17.940  12.133
81445W        W53061  32.090  41.106  14.770
81446W        W53062  38.498  38.802   2.315
81447W        W53063  41.908  32.577   4.357
81448W        W53064  17.694  31.931   4.139
81449W        W53065  33.936  40.581  13.162
81450W        W53066  35.940  11.921   1.243
81451W        W53067  43.809  23.421   2.887
81452W        W53068   1.878   1.386   2.043
81453W        W53069  19.506  22.994   4.009
81454W        W53070  15.636  35.117  10.988
81455W        W53071  13.707  16.605   5.417
81456W        W53072  34.982  34.327  13.879
81457W        W53073  11.625  15.885  13.622
81458W        W53074   0.022  37.291   3.296
81459W        W53075  20.126  44.263  12.911
81460W        W53076  22.302  36.858   2.741
81461W        W53077  31.598  40.411  10.730
81462W        W53078  41.897  23.119   2.309
81463W        W53079  12.145   6.850   1.351
81464W        W53080  24.076  39.490   3.608
81465W        W53081  31.239  28.158   0.453
81466W        W53082  27.760   1.081   0.945
81467W        W53083  16.083  31.395  14.719
81468W        W53084  26.643  43.113   3.124
81469W        W53085   7.200  40.475   4.677
81470W        W53086   0.886  28.516  11.619
81471W        W53087  20.729  39.304   1.806
81472W        W53088   7.495  29.979  12.534
81473W        W53089  14.253  44.910   4.505
81474W        W53090   9.128   4.150  12.983
81475W        W53091  19.780  15.350   4.858
81476W        W53092   6.732  26.707   3.883
81477W        W53093   9.012  35.922  10.546
81478W        W53094  31.498  31.074   4.502
81479W        W53095  27.877   7.267   3.273
81480W        W53096   3.456  24.538  12.446
81481W        W53097  20.208  11.740  10.058
81482W        W53098   2.335  38.048  12.131
81483W        W53099  24.249  17.900  13.927
81484W        W53100  22.717  44.439  13.451
81485W        W53101   5.408  32.912  13.029
81486W        W53102  44.444  33.354  13.347
81487W        W53103  33.368  21.226  11.177
81488W        W53104  14.785   8.637  11.992
81489W        W53105   1.797   5.003   0.929
81490W        W53106  44.225  21.056  12.592
81491W        W53107  29.552  10.286  11.019
81492W        W53108  10.129  29.151  10.946
81493W        W53109  27.958  40.117  14.841
81494W        W53110  33.105  12.792   2.059
81495W        W53111   9.291  34.029  13.685
81496W        W53112  33.517  29.013  12.986
81497W        W53113  37.846  25.125  13.274
81498W        W53114  12.845  15.213   2.917
81499W        W53115  25.745  23.079   1.874
81500W        W53116  20.785  20.548  11.117
81501W        W53117  37.496  30.705  11.499
81502W        W53118  31.553  11.780   3.613
81503W        W53119  41.024   2.651  12.895
81504W        W53120  10.075  12.865  13.437
81505W        W53121   9.783   9.746  10.906
81506W        W53122  21.066  36.789  11.622
81507W        W53123   3.936   8.821   0.981
81508W        W53124  39.076   6.770  12.060
81509W        W53125  17.758   9.182   1.779
81510W        W53126  35.588  20.343  14.024
81511W        W53127  29.241  14.900  12.041
81512W        W53128  21.286  30.805   4.075
81513W        W53129  33.943  18.983  14.058
81514W        W53130  13.716  18.182  14.871
81515W        W53131   0.287  30.494   3.904
81516W        W53132  32.598  39.775  13.818
81517W        W53133   6.333  10.355  14.742
81518W        W53134  22.059  42.272  13.739
81519W        W53135  10.833  42.292   0.932
81520W        W53136   3.746  32.127   3.128
81521W        W53137  18.777  43.025  11.542
81522W        W53138  11.350   5.275   3.650
81523W        W53139  28.108   9.315   4.623
81524W        W53140   1.375  19.300  13.531
81525W        W53141   6.206  14.790  12.047
81526W        W53142  30.460  24.724   1.405
81527W        W53143  26.627   8.448  12.040
81528W        W53144  34.921  28.566   3.435
81529W        W53145  44.346  42.525   3.231
81530W        W53146  39.908  19.498   0.851
81531W        W53147   1.707   4.752  13.374
81532W        W53148  33.018  27.889   4.718
81533W        W53149   0.285  44.295  14.403
81534W        W53150  43.258  30.210  11.940
81535W        W53151  31.106  31.754  11.149
81536W        W53152  32.854  39.539  13.140
81537W        W53153  25.898  36.020  12.841
81538W        W53154   7.679  40.280  13.311
81539W        W53155  25.972  25.494  10.664
81540W        W53156   6.532  35.431  13.891
81541W        W53157  21.966  44.586  12.006
81542W        W53158  23.022  30.101  11.804
81543W        W53159  26.100   1.550  11.155
81544W        W53160  17.996  39.462   1.811
81545W        W53161  35.076  30.892   0.435
81546W        W53162  10.367  10.153   2.973
81547W        W53163   2.262  36.699   3.161
81548W        W53164  22.053  35.428   3.977
81549W        W53165  32.706   9.153  13.611
81550W        W53166   0.524  42.432  13.323
81551W        W53167   1.978  14.745   4.540
81552W        W53168   4.672   4.945   2.519
81553W        W53169  35.492  20.085   4.560
81554W        W53170  13.328  44.379   2.385
81555W        W53171  31.078  44.703  14.425
81556W        W53172  20.112  26.419  11.547
81557W        W53173  17.679  12.205  13.967
81558W        W53174  43.174  28.925  14.636
81559W        W53175   7.706  18.394  13.527
81560W        W53176  42.333   9.433   3.888
81561W        W53177   3.212  19.522  14.477
81562W        W53178   0.938  35.948  11.672
81563W        W53179  11.889  10.129  10.321
81564W        W53180   9.552   6.782   2.416
81565W        W53181   9.621  15.549   1.363
81566W        W53182   3.044  17.070  14.822
81567W        W53183  26.564  10.816  11.509
81568W        W53184  40.851  11.061   0.647
81569W        W53185   7.599  25.527  13.556
81570W        W53186  18.112   2.354   1.293
81571W        W53187  14.477  12.770   3.190
81572W        W53188  10.208  18.191  10.767
81573W        W53189  31.539   9.369   3.624
81574W        W53190  27.651  26.939  12.043
81575W        W53191  20.124  21.987  11.658
81576W        W53192  13.271  41.766   4.833
81577W        W53193   0.890  44.490  10.217
81578W        W53194  44.890  40.072   0.070
81579W        W53195  15.169  35.145  14.461
81580W        W53196   3.343  34.532  14.311
81581W        W53197  40.652  35.657   2.266
81582W        W53198  34.612   2.000  12.986
81583W        W53199  13.213  28.529   2.728
81584W        W53200  30.975  11.719   1.856
81585W        W53201  31.098  38.498  11.670
81586W        W53202  28.612  17.919  12.143
81587W        W53203  41.509  33.537   3.612
81588W        W53204   0.449  32.045   3.783
81589W        W53205   0.893  43.405   4.596
81590W        W53206   5.732  14.571  14.709
81591W        W53207  40.078  39.905   3.235
81592W        W53208  40.145  22.972   5.097
81593W        W53209  19.186  17.124   1.914
81594W        W53210  31.237   0.677  14.525
81595W        W53211  16.621  42.948  13.030
81596W        W53212  41.448  37.610  14.486
81597W        W53213  19.650  16.057   2.371
81598W        W53214  31.959  38.321  11.185
81599W        W53215  15.782  17.550  10.200
81600W        W53216  37.882  10.824  12.128
81601W        W53217  28.656  18.400  12.861
81602W        W53218  36.058  20.354  10.732
81603W        W53219  36.458  30.106   2.949
81604W        W53220  12.842  11.469   1.333
81605W        W53221  39.826   9.516  11.757
81606W        W53222  20.825  36.937  12.060
81607W        W53223  11.808  21.027  13.031
81608W        W53224  27.919  35.174   2.315
81609W        W53225  39.679  37.605  14.956
81610W        W53226  20.945  24.091  13.865
81611W        W53227  34.546   7.145   1.459
81612W        W53228   1.200  24.009   2.392
81613W        W53229  10.405   3.637  12.131
81614W        W53230  17.509  19.204  13.564
81615W        W53231  43.287  25.542  13.832
81616W        W53232   5.268  33.331  13.323
81617W        W53233  20.038  36.417   2.557
81618W        W53234  44.532  36.205   1.341
81619W        W53235  18.309   8.852  10.711
81620W        W53236   9.762   5.152  14.032
81621W        W53237   2.386   3.683   2.346
81622W        W53238  24.915  33.625   2.834
81623W        W53239  21.760  39.422  14.408
81624W        W53240  37.797  36.175  13.850
81625W        W53241  38.861  33.393  14.894
81626W        W53242  33.688   8.358  10.925
81627W        W53243  20.045  25.910  11.523
81628W        W53244  41.814  11.113  11.686
81629W        W53245  25.474  34.887   3.304
81630W        W53246   4.316  24.144   2.697
81631W        W53247   1.860   7.806  12.860
81632W        W53248  17.320  34.637   0.376
81633W        W53249  35.324  21.668   2.805
81634W        W53250  38.034  43.719   4.666
81635W        W53251  29.509  14.943  10.716
81636W        W53252  14.986  14.986  10.681
81637W        W53253   3.812  36.524  14.950
81638W        W53254  32.255  13.483   2.807
81639W        W53255   7.396  19.814  12.194
81640W        W53256  21.639   9.431   1.373
81641W        W53257  38.104  19.708   3.414
81642W        W53258  20.622  15.847  11.969
81643W        W53259  26.409  12.976  12.889
81644W        W53260   8.945  20.751  14.140
81645W        W53261  10.933  19.653  12.031
81646W        W53262  42.977  31.682   4.181
81647W        W53263   4.717   3.913   0.462
81648W        W53264  28.997  33.932   1.725
81649W        W53265  39.369   9.335   0.829
81650W        W53266  14.067  28.853   1.772
81651W        W53267  28.600  24.166   4.461
81652W        W53268  19.141   6.724  12.565
81653W        W53269  38.945  18.714   3.130
81654W        W53270  19.532  32.019   3.282
81655W        W53271  10.698   8.392   4.583
81656W        W53272  28.635  22.312   1.273
81657W        W53273  39.491  23.177   1.679
81658W        W53274  30.944  16.047  11.503
81659W        W53275  40.653  24.339   2.273
81660W        W53276  20.584   6.991   2.463
81661W        W53277   8.971  16.584   4.526
81662W        W53278  12.009  16.135   0.491
81663W        W53279   8.701  19.552  14.574
81664W        W53280   4.307  30.582  12.837
81665W        W53281   1.052  26.703  13.881
81666W        W53282  35.443  37.434  11.188
81667W        W53283   7.696  25.534  13.046
81668W        W53284  11.302   3.097  10.694
81669W        W53285  13.418  29.265  13.300
81670W        W53286   6.036   2.311   0.828
81671W        W53287  30.837  44.788   1.760
81672W        W53288   7.721  12.237   4.298
81673W        W53289   4.851  21.729  14.303
81674W        W53290  16.019  27.040   0.918
81675W        W53291  28.962  15.986   5.471
81676W        W53292  18.436  21.095  11.206
81677W        W53293  17.230  22.626  13.456
81678W        W53294   2.509  27.345  12.831
81679W        W53295  23.688  22.097   4.916
81680W        W53296  36.409  15.574  13.422
81681W        W53297  13.771   2.724   4.951
81682W        W53298   8.652  34.227  12.386
81683W        W53299   1.357  21.190   0.945
81684W        W53300   2.713  19.113   0.711
81685W        W53301  25.229  38.219   4.148
81686W        W53302  44.449  39.159   2.451
81687W        W53303   4.838  40.257  14.577
81688W        W53304  35.065  40.866   4.034
81689W        W53305  41.560   4.741  13.442
81690W        W53306  36.684   3.340   4.670
81691W        W53307  20.115  22.205  10.357
81692W        W53308  43.853  22.704   0.838
81693W        W53309  28.248  33.416  10.710
81694W        W53310   6.929  25.161  14.959
81695W        W53311  43.454   2.574   4.042
81696W        W53312  27.227  36.883  11.935
81697W        W53313  42.252  17.356  13.227
81698W        W53314  41.539  17.736   3.875
81699W        W53315  22.714   4.805  13.335
81700W        W53316   6.805  35.416   0.775
81701W        W53317  39.222   3.996  10.663
81702W        W53318  33.365   7.124  11.977
81703W        W53319  32.960  23.529  13.521
81704W        W53320   3.172  21.212   0.321
81705W        W53321  27.859  22.622   1.620
81706W        W53322  24.381  29.228   1.445
81707W        W53323  14.873  40.893   5.326
81708W        W53324  37.058  44.606  12.050
81709W        W53325   6.284  29.379  11.007
81710W        W53326  42.327  25.859  14.744
81711W        W53327   7.649  22.657   0.920
81712W        W53328  37.103  11.110   2.677
81713W        W53329  22.622  41.361   2.832
81714W        W53330  25.237  28.044   0.282
81715W        W53331  11.403  22.248   4.332
81716W        W53332  14.777   4.768   1.782
81717W        W53333  27.667  35.236   3.585
81718W        W53334  31.057  30.705  13.832
81719W        W53335  16.955  25.480   2.764
81720W        W53336  19.330  12.706   0.490
81721W        W53337  32.861  28.000  12.803
81722W        W53338  29.351  19.517  13.369
81723W        W53339  24.997  43.297  13.004
81724W        W53340  26.313  17.057  11.755
81725W        W53341  35.956  34.513   1.765
81726W        W53342  32.075  38.422  12.669
81727W        W53343  14.708  42.793   4.566
81728W        W53344  15.343  41.028   2.240
81729W        W53345  20.072   0.336  14.906
81730W        W53346  15.122  13.672  11.100
81731W        W53347  17.598  23.175  14.244
81732W        W53348  23.828   6.489   3.642
81733W        W53349   6.847   8.835   4.173
81734W        W53350  41.378  43.486   2.136
81735W        W53351  25.754  11.373   0.802
81736W        W53352  42.437   6.740  13.423
81737W        W53353   0.990  33.992  14.006
81738W        W53354  43.941  17.790   4.612
81739W        W53355  42.912  28.272  13.495
81740W        W53356  43.055  31.103   0.316
81741W        W53357  15.882  23.231  13.426
81742W        W53358  35.995  41.276  10.499
81743W        W53359   4.084  41.643  12.980
81744W        W53360   9.625   1.600   0.407
81745W        W53361   0.038  42.484   1.843
81746W        W53362  38.572  22.356   1.121
81747W        W53363   7.488  10.356   3.204
81748W        W53364   9.676  20.683   2.404
81749W        W53365  24.597   2.246  13.848
81750W        W53366  31.923  16.104  12.558
81751W        W53367  30.976  19.697  11.112
81752W        W53368  35.372  30.667  13.430
81753W        W53369   1.986  22.256  12.976
81754W        W53370   6.639   0.901  13.477
81755W        W53371  20.741  21.239   1.868
81756W        W53372  18.570  26.015  13.327
81757W        W53373  44.332  24.192  13.005
81758W        W53374  34.585  44.778   3.087
81759W        W53375  41.474  36.681  10.549
81760W        W53376  10.759  19.097  11.917
81761W        W53377   7.540  38.184  11.373
81762W        W53378   2.390  34.451   2.752
81763W        W53379  34.443  17.799   0.475
81764W        W53380  23.608  32.597   0.796
81765W        W53381   1.850  19.257   4.533
81766W        W53382  23.930  21.143  11.206
81767W        W53383   7.986  34.741   2.268
81768W        W53384  44.842   5.918   1.912
81769W        W53385  43.313   0.837  13.377
81770W        W53386  36.079  25.613  14.347
81771W        W53387  36.026  41.805  11.576
81772W        W53388   1.543  41.297  14.757
81773W        W53389  26.149  19.229  13.353
81774W        W53390  28.551  37.416   2.326
81775W        W53391  41.769  19.019  11.642
81776W        W53392   6.627  34.896  12.649
81777W        W53393  15.640  43.485   3.670
81778W        W53394  26.188  36.310   0.439
81779W        W53395  32.983  30.363  10.334
81780W        W53396  36.933   7.507   0.675
81781W        W53397   9.797  32.031  10.370
81782W        W53398  27.467  42.885  12.243
81783W        W53399  30.332  29.914   2.811
81784W        W53400   7.838  28.276  13.462
81785W        W53401   4.571   7.116  13.983
81786W        W53402  32.086  15.754  10.550
81787W        W53403  28.136  32.389   0.946
81788W        W53404  17.588   6.323  11.802
81789W        W53405  36.842  19.630   2.226
81790W        W53406  15.313  28.497   4.233
81791W        W53407  20.449  30.753   2.342
81792W        W53408  21.679  33.595   2.209
81793W        W53409  12.114  18.232  14.938
81794W        W53410  25.241  10.252  13.013
81795W        W53411  26.392  35.359  12.525
81796W        W53412  43.382   8.930   4.151
81797W        W53413  28.921   4.732   4.186
81798W        W53414  16.498  27.508   3.740
81799W        W53415   1.425  35.460  14.795
81800W        W53416  25.533   8.454   3.653
81801W        W53417   3.654  15.554  14.797
81802W        W53418   1.479  16.158  12.441
81803W        W53419   7.822  44.568   3.259
81804W        W53420   2.843   4.232   1.538
81805W        W53421  20.650  35.400   2.871
81806W        W53422  33.667  40.954   3.399
81807W        W53423   2.231  29.601   1.910
81808W        W53424  31.387  33.612   3.264
81809W        W53425  10.901  37.144   2.739
81810W        W53426  26.894  12.781   1.266
81811W        W53427   8.689   1.932   3.260
81812W        W53428  38.479  18.024   0.023
81813W        W53429  19.469  18.031   0.173
81814W        W53430  44.920  40.377   1.629
81815W        W53431  27.180  27.565   4.780
81816W        W53432  37.812   5.048   3.258
81817W        W53433  16.155  44.978  11.498
81818W        W53434  42.545  11.693   1.248
81819W        W53435   5.277  14.798  14.703
81820W        W53436  36.445  42.349  12.068
81821W        W53437  35.402  30.204  14.305
81822W        W53438  27.088   0.056   0.021
81823W        W53439  34.324  19.866   4.092
81824W        W53440  38.661   2.837   3.104
81825W        W53441  38.371  32.510  11.548
81826W        W53442  12.198  29.117   0.918
81827W        W53443  37.399  10.330  10.569
81828W        W53444  33.986  22.847  13.848
81829W        W53445  35.422   1.985  14.076
81830W        W53446   7.077   7.090   1.818
81831W        W53447  35.858  14.855  11.500
81832W        W53448  23.948  36.458  13.878
81833W        W53449  39.991  38.934  10.982
81834W        W53450  13.758  31.032  12.879
81835W        W53451  23.649  44.474   4.543
81836W        W53452  21.995  32.068  13.069
81837W        W53453  26.585  42.454   4.308
81838W        W53454  24.224  16.996   0.743
81839W        W53455  27.476  31.688   3.730
81840W        W53456  38.429  36.689  11.044
81841W        W53457  13.063  34.427   3.258
81842W        W53458  33.122  43.586  13.467
81843W        W53459  33.536  38.883   1.048
81844W        W53460  19.783  44.670   1.719
81845W        W53461  14.835  38.460  13.368
81846W        W53462  26.177  19.082   3.037
81847W        W53463  21.176  15.444  11.338
81848W        W53464   1.410   2.156   3.829
81849W        W53465  33.245  11.878   2.771
81850W        W53466  36.683  16.647  12.948
81851W        W53467   3.221   4.827  11.644
81852W        W53468  35.847  31.936  14.018
81853W        W53469  32.338   2.311  13.001
81854W        W53470  40.201   8.689   0.593
81855W        W53471  12.751  29.855  13.833
81856W        W53472   4.457  38.340   1.252
81857W        W53473  19.547  22.256   4.681
81858W        W53474   4.902  12.421  14.236
81859W        W53475  37.607  13.282  14.854
81860W        W53476  38.882  23.509  12.709
81861W        W53477  27.872  12.176   0.014
81862W        W53478   7.453  24.996  14.125
81863W        W53479   6.749   7.156  13.748
81864W        W53480   2.482  24.964   9.799
81865W        W53481  25.003   2.458  14.092
81866W        W53482   6.134  25.482  11.548
81867W        W53483   0.187  23.915  12.365
81868W        W53484  37.368  30.434   2.815
81869W        W53485  21.726   4.008  12.890
81870W        W53486  38.281  12.340   4.587
81871W        W53487  41.358  24.403   1.271
81872W        W53488  38.369   2.190  10.682
81873W        W53489  25.826  32.366  11.997
81874W        W53490   9.919   7.334  11.176
81875W        W53491  32.455   2.755   4.719
81876W        W53492   4.136  35.890   3.376
81877W        W53493  35.596  33.013  13.034
81878W        W53494  42.347  18.850  11.937
81879W        W53495  43.616  10.444  13.444
81880W        W53496  23.351   5.403  11.672
81881W        W53497   1.289  19.529  14.151
81882W        W53498  18.546  12.742  13.795
81883W        W53499  13.552  18.984  14.588
81884W        W53500  23.206   8.124   3.770
81885W        W53501  22.679  27.121  14.526
81886W        W53502  29.077  39.379   1.751
81887W        W53503  15.536   8.367   4.187
81888W        W53504  15.581   2.196  11.141
81889W        W53505  35.458  19.181   3.064
81890W        W53506  31.618  25.603  10.562
81891W        W53507  19.178  25.556   4.562
81892W        W53508   8.346  39.913   2.276
81893W        W53509   9.487   3.202   4.140
81894W        W53510  16.127  16.643   1.603
81895W        W53511   0.435  12.322   3.849
81896W        W53512  12.651  17.587  12.020
81897W        W53513   0.505  43.870  10.738
81898W        W53514  13.506  21.310   1.861
81899W        W53515  20.595  16.135   1.550
81900W        W53516  17.757   0.448   3.249
81901W        W53517  19.092   5.467  13.516
81902W        W53518  35.380   9.181  13.606
81903W        W53519   0.789  24.990   2.855
81904W        W53520   8.246  44.014   0.894
81905W        W53521  10.309  34.864  12.150
81906W        W53522  44.272  23.505   3.659
81907W        W53523  13.248   5.749   0.401
81908W        W53524  33.920  14.132   1.730
81909W        W53525  33.472  33.383   3.310
81910W        W53526   5.111  40.372   0.361
81911W        W53527  10.219  35.116  14.575
81912W        W53528  28.940  26.430   3.781
81913W        W53529   3.921   1.846  10.208
81914W        W53530  24.771  17.103  13.120
81915W        W53531  37.907  13.679  12.322
81916W        W53532   8.917  40.323   1.727
81917W        W53533  13.803  38.497  13.610
81918W        W53534   7.339  34.313   3.689
81919W        W53535  17.109  35.414   2.251
81920W        W53536  18.819  24.457  13.034
81921W        W53537   9.035  20.757  14.653
81922W        W53538  29.957  34.114  13.517
81923W        W53539  20.171  29.924  10.751
81924W        W53540  37.811  21.950   4.115
81925W        W53541  32.475   8.293   1.455
81926W        W53542  41.811  35.018  10.672
81927W        W53543  26.536  15.387  10.675
81928W        W53544  25.767  19.990  13.076
81929W        W53545  32.856  15.148   0.825
81930W        W53546  39.026  14.622   3.167
81931W        W53547  44.303  10.081  12.885
81932W        W53548  23.612  39.649   1.642
81933W        W53549  11.617  21.300  11.720
81934W        W53550  39.194  25.466  12.131
81935W        W53551  40.052  34.965   3.838
81936W        W53552  30.951   0.006   2.696
81937W        W53553  16.535  39.415   4.108
81938W        W53554  35.387  13.457  13.046
81939W        W53555   1.165  44.778   4.967
81940W        W53556  35.788   9.165  14.388
81941W        W53557   4.829  31.710  10.453
81942W        W53558   9.837  31.494  12.666
81943W        W53559  43.926   1.298   1.713
81944W        W53560  27.786  43.626  10.406
81945W        W53561  13.879   1.030  14.383
81946W        W53562  31.163  12.582   2.234
81947W        W53563  33.353   2.540  12.123
81948W        W53564  29.479  13.655   5.053
81949W        W53565   4.720  19.921   4.094
81950W        W53566  32.470   9.291   4.401
81951W        W53567  34.727  42.766   1.302
81952W        W53568  36.177  36.754  11.120
81953W        W53569  38.413  35.775   1.313
81954W        W53570  18.304  44.717  12.907
81955W        W53571   6.777  21.452   1.288
81956W        W53572   1.182  27.520   3.120
81957W        W53573   1.289  15.222  14.258
81958W        W53574   0.913  19.781   0.773
81959W        W53575  17.734  23.498  11.673
81960W        W53576  35.999   6.952   1.839
81961W        W53577  39.541  38.622   3.204
81962W        W53578  12.823  34.578   4.632
81963W        W53579   7.752  27.464  13.294
81964W        W53580  29.165  16.717  14.005
81965W        W53581  10.618   8.437   3.322
81966W        W53582  24.364  36.032  10.540
81967W        W53583   1.049  40.910  13.013
81968W        W53584   8.278  37.566   3.212
81969W        W53585  16.526  16.629  13.443
81970W        W53586   1.294  43.412  14.539
81971W        W53587  38.305  44.392   4.536
81972W        W53588   1.242  38.222   3.594
81973W        W53589  30.367  33.987  11.704
81974W        W53590  26.683  25.614  12.639
81975W        W53591  36.730   3.290  11.680
81976W        W53592  43.893  37.157  13.825
81977W        W53593  38.888  17.072   3.889
81978W        W53594   3.934   6.671   2.465
81979W        W53595  34.190  42.898  13.823
81980W        W53596  33.621  10.102   2.747
81981W        W53597  31.635   7.761   4.124
81982W        W53598  20.304  26.905   3.770
81983W        W53599   5.826   3.508   3.225
81984W        W53600  15.661  13.819   0.368
81985W        W53601  35.833   3.904   1.969
81986W        W53602  27.596  38.976  10.733
81987W        W53603   8.177   3.564  14.300
81988W        W53604  25.660  30.008  14.825
81989W        W53605  29.630  31.774  11.297
81990W        W53606  33.921  38.966  12.060
81991W        W53607  25.875  38.315  11.507
81992W        W53608   1.196  18.114   3.952
81993W        W53609   8.686  17.820  14.977
81994W        W53610  44.313  23.128   4.621
81995W        W53611  44.844   9.983  12.316
81996W        W53612   8.803  41.300  11.857
81997W        W53613  32.537  26.439   2.282
81998W        W53614   1.259  20.927  14.420
81999W        W53615  29.017  32.816  11.839
82000W        W53616  16.041  30.557  14.997
82001W        W53617   0.597  31.999  11.657
82002W        W53618  44.506   1.740  11.194
82003W        W53619  21.814  43.323   2.757
82004W        W53620  13.299  32.424   3.189
82005W        W53621  29.630   0.830   0.771
82006W        W53622  31.231   5.489   3.329
82007W        W53623  32.132  24.654  14.300
82008W        W53624  26.668  18.158   0.887
82009W        W53625  40.571  15.576   4.999
82010W        W53626  12.313  24.369   0.890
82011W        W53627  19.528   3.200   4.135
82012W        W53628  32.523  21.007  12.839
82013W        W53629  13.789   0.818  10.649
82014W        W53630  15.066  40.336  13.265
82015W        W53631  31.015  26.488  10.755
82016W        W53632  40.282  16.711  11.327
82017W        W53633  35.427  20.036   0.745
82018W        W53634  17.656  23.461   0.938
82019W        W53635  25.654   2.481   0.821
82020W        W53636   5.736  21.979  14.821
82021W        W53637  36.069   9.360   4.532
82022W        W53638  22.500  38.790  12.189
82023W        W53639  42.537  15.906   0.274
82024W        W53640   7.688  16.793  13.405
82025W        W53641  26.206   4.418  12.116
82026W        W53642  15.767  18.316  10.655
82027W        W53643  37.336  29.587   2.097
82028W        W53644  35.072  36.651  14.383
82029W        W53645  38.838   4.844   1.365
82030W        W53646  12.107  24.172   1.652
82031W        W53647  43.304  22.318  11.887
82032W        W53648  36.583   4.417   3.563
82033W        W53649  11.202   3.230  14.584
82034W        W53650   4.815  11.583  11.176
82035W        W53651  35.430  22.647  11.563
82036W        W53652  39.153  34.052   0.698
82037W        W53653  13.014  43.892  14.718
82038W        W53654  29.074  31.042   0.974
82039W        W53655  40.038   8.122   4.698
82040W        W53656  24.193  16.117   1.940
82041W        W53657   2.496  44.563  11.062
82042W        W53658  36.849   5.660   2.318
82043W        W53659   6.249   8.518   1.182
82044W        W53660  44.743  25.763  13.869
82045W        W53661  44.178  39.010   3.273
82046W        W53662  20.767  35.453   3.367
82047W        W53663  12.802   2.411   4.348
82048W        W53664  22.137  29.705  10.914
82049W        W53665  20.805  26.747   0.243
82050W        W53666  24.209  23.509   0.833
82051W        W53667   1.178  24.064   0.383
82052W        W53668  30.033  39.102   3.543
82053W        W53669  36.831  42.682  14.198
82054W        W53670  13.761   2.172   1.009
82055W        W53671   1.442  22.528   5.429
82056W        W53672   7.868  15.341  10.228
82057W        W53673  30.587  21.546  14.598
82058W        W53674  11.850  39.396  13.960
82059W        W53675  21.109  11.918  12.409
82060W        W53676  26.682  38.871   3.784
82061W        W53677  35.989  27.590  12.415
82062W        W53678  20.252  12.242  14.367
82063W        W53679  44.330   0.143  14.015
82064W        W53680  21.716  26.044   3.389
82065W        W53681  12.712  14.745   4.650
82066W        W53682   0.254   5.359   0.730
82067W        W53683  29.918   8.943  11.123
82068W        W53684  38.488   2.490   4.036
82069W        W53685  28.561  18.332   2.196
82070W        W53686  24.964  16.791  13.949
82071W        W53687  36.965  29.750   4.675
82072W        W53688  15.744  15.889   4.156
82073W        W53689   0.253  38.161  12.896
82074W        W53690  43.809  23.233   0.893
82075W        W53691  36.335  10.960   1.650
82076W        W53692  19.586   4.389  11.215
82077W        W53693   3.845  25.065   3.687
82078W        W53694  10.167  15.164   3.495
82079W        W53695  35.527  31.974   1.630
82080W        W53696   7.241  34.880  11.290
82081W        W53697  42.840  16.745   0.362
82082W        W53698   1.865  27.990   0.442
82083W        W53699   6.646   2.215  12.048
82084W        W53700   3.680  25.291  11.852
82085W        W53701  19.255  34.063  12.465
82086W        W53702  33.600  34.817  10.658
82087W        W53703  37.605   7.309  12.033
82088W        W53704   6.932  37.420   2.648
82089W        W53705  34.511   3.230   4.311
82090W        W53706  26.914  30.531  11.417
82091W        W53707  37.552  31.251   4.311
82092W        W53708  17.737  34.457  12.557
82093W        W53709  37.218  34.554   2.149
82094W        W53710  36.416   2.794   4.052
82095W        W53711  43.756  39.009   4.402
82096W        W53712  16.328  28.018   1.336
82097W        W53713  34.492   0.761  14.446
82098W        W53714  31.488  29.188  11.889
82099W        W53715  34.284  44.594   0.791
82100W        W53716  14.310  14.015  13.928
82101W        W53717  21.514  37.900   2.228
82102W        W53718  21.988   4.360   2.116
82103W        W53719  39.586  40.178  13.733
82104W        W53720   3.534  30.908  11.696
82105W        W53721  14.332  43.535   4.212
82106W        W53722  32.509  41.913   3.996
82107W        W53723  26.510  11.449   1.757
82108W        W53724  43.888  16.672   0.448
82109W        W53725   0.290  19.083  11.893
82110W        W53726  18.041  27.170  12.528
82111W        W53727  39.789  30.079   4.084
82112W        W53728  18.565   5.845  12.545
82113W        W53729  36.554  29.069   0.349
82114W        W53730  28.544  14.779  12.524
82115W        W53731  28.613  19.070   4.195
82116W        W53732  40.521  11.666  11.384
82117W        W53733   5.602  44.937  10.023
82118W        W53734  15.611   8.733  14.870
82119W        W53735   4.451   3.828   3.257
82120W        W53736  17.690  42.915  12.870
82121W        W53737  34.010  20.255   2.657
82122W        W53738  39.373  43.558   0.925
82123W        W53739  43.202   3.256   1.683
82124W        W53740  15.661   0.666   2.219
82125W        W53741  34.345  29.814  12.924
82126W        W53742  40.322  19.538  11.636
82127W        W53743  19.011  30.081   3.442
82128W        W53744  32.485  40.136   4.741
82129W        W53745  18.125   7.710   3.802
82130W        W53746  27.304   0.490  13.517
82131W        W53747  16.800  35.098  10.551
82132W        W53748  41.272  38.412   4.949
82133W        W53749   5.498  39.521   4.898
82134W        W53750  12.124  23.150   2.156
82135W        W53751  26.921  27.996   0.953
82136W        W53752  31.634  27.429  11.964
82137W        W53753   0.013  38.200  13.849
82138W        W53754  37.923  16.971  14.049
82139W        W53755   0.765  43.021  12.094
82140W        W53756   3.900  38.897  11.911
82141W        W53757  41.858  14.526   4.841
82142W        W53758  15.240   9.091  11.213
82143W        W53759  21.098  34.049   1.253
82144W        W53760   3.036  19.318   1.911
82145W        W53761  14.502  36.036   0.835
82146W        W53762  16.203  23.638   0.500
82147W        W53763  42.850  34.405  13.208
82148W        W53764  22.743  23.964   0.989
82149W        W53765  15.077  35.439   0.545
82150W        W53766  29.869  19.753  14.331
82151W        W53767  40.405  30.182  11.505
82152W        W53768   8.715  39.098   4.606
82153W        W53769  43.105  12.462   0.519
82154W        W53770  14.930  21.756   2.421
82155W        W53771  31.773  35.160   1.444
82156W        W53772  38.163  15.443   3.155
82157W        W53773  17.974   4.978   3.671
82158W        W53774   3.736   4.523   1.263
82159W        W53775  20.610  44.308  12.059
82160W        W53776  13.839  17.694  13.424
82161W        W53777  23.227  11.137  11.247
82162W        W53778  33.039  40.125   1.888
82163W        W53779  28.632  30.957  12.428
82164W        W53780   4.955   1.800   0.394
82165W        W53781  15.356  20.552  13.958
82166W        W53782  27.657  42.762  13.190
82167W        W53783  41.912  18.476  10.762
82168W        W53784  10.843  39.403  13.073
82169W        W53785  17.347   1.859  14.815
82170W        W53786  24.203  23.167  12.686
82171W        W53787  30.132  22.902  10.726
82172W        W53788  37.936  28.915  10.952
82173W        W53789  23.946  36.038   1.723
82174W        W53790  30.329   9.129  14.682
82175W        W53791   5.281   6.235   2.954
82176W        W53792   8.177  27.053  12.057
82177W        W53793   6.970   6.381  14.394
82178W        W53794  22.759  16.314   2.284
82179W        W53795   8.167  25.631  11.456
82180W        W53796  43.222  18.946  11.123
82181W        W53797  19.039  16.808  13.502
82182W        W53798   4.396   0.920   0.237
82183W        W53799  29.414  28.077   2.249
82184W        W53800  29.907  18.808   1.797
82185W        W53801  17.147  12.861   1.785
82186W        W53802  10.386  11.597  12.856
82187W        W53803  31.056  35.545  12.863
82188W        W53804  27.372  36.635  11.512
82189W        W53805  30.091  24.508   1.749
82190W        W53806  10.876   2.429  14.294
82191W        W53807  37.634  27.023   2.729
82192W        W53808  39.478  21.015  12.208
82193W        W53809  30.679  19.869   0.371
82194W        W53810  32.049  38.429   4.500
82195W        W53811   8.837  35.360   1.475
82196W        W53812  34.043  16.394  12.387
82197W        W53813  20.325   7.918   2.441
82198W        W53814  30.584  34.542   0.829
82199W        W53815   3.735  40.584   3.708
82200W        W53816  40.570   4.541   5.132
82201W        W53817  15.024  27.876  13.364
82202W        W53818  15.823  22.615  13.087
82203W        W53819   1.509   9.142  14.702
82204W        W53820  14.458  15.238  11.363
82205W        W53821  16.092   0.018  12.931
82206W        W53822  16.300  17.793   2.120
82207W        W53823  16.812   1.556  11.690
82208W        W53824  27.250  22.966   3.617
82209W        W53825  23.216  21.392  11.007
82210W        W53826  21.239  27.733   0.216
82211W        W53827   8.760  16.416   1.682
82212W        W53828  42.746  33.633  12.064
82213W        W53829   2.824  27.601   0.086
82214W        W53830   2.929  29.056  14.085
82215W        W53831  13.766  34.446   2.301
82216W        W53832  24.998  26.734   3.187
82217W        W53833   5.351  31.569  14.897
82218W        W53834   3.651  35.662   2.796
82219W        W53835  42.402  33.140   0.509
82220W        W53836  31.476   8.857   9.815
82221W        W53837  33.366  40.037  12.197
82222W        W53838  27.771  37.307   2.752
82223W        W53839   7.321   7.756   1.248
82224W        W53840  42.969   9.928   4.647
82225W        W53841  12.786  11.775   2.803
82226W        W53842  24.104  17.191   4.660
82227W        W53843  10.669  29.617  14.458
82228W        W53844  21.402  41.397   4.354
82229W        W53845  32.264  42.547  10.641
82230W        W53846  27.029  42.028   2.694
82231W        W53847  18.192  20.834   2.833
82232W        W53848  22.997  18.589   2.773
82233W        W53849  11.279   3.582   2.888
82234W        W53850   4.151  16.520   1.811
82235W        W53851  35.418   5.868  11.422
82236W        W53852  16.219  14.096  10.688
82237W        W53853  44.510  29.041   9.977
82238W        W53854  37.618   2.445   0.926
82239W        W53855  34.449  15.794   4.111
82240W        W53856  18.453  27.542   3.325
82241W        W53857   2.717  42.664  11.500
82242W        W53858  13.235  13.182   3.990
82243W        W53859   9.210  36.091   2.621
82244W        W53860  35.055  17.833  12.549
82245W        W53861  16.277  32.501  12.459
82246W        W53862  15.644  27.138   3.318
82247W        W53863  26.992   4.869   3.280
82248W        W53864  26.904  26.993   0.936
82249W        W53865  39.934   9.352  10.778
82250W        W53866   1.701  31.922  13.859
82251W        W53867  33.640  41.990  12.404
82252W        W53868  44.412  19.547  14.266
82253W        W53869  35.391  30.183  12.411
82254W        W53870  40.381  32.177  13.337
82255W        W53871   0.937  44.946  11.467
82256W        W53872   7.960  43.970  14.769
82257W        W53873   3.268  18.116   0.502
82258W        W53874  21.521  40.362   4.936
82259W        W53875  40.784  14.868  13.086
82260W        W53876   6.946  20.083   0.005
82261W        W53877  34.593  12.068  12.444
82262W        W53878  37.045  24.061  10.502
82263W        W53879  12.592   5.401   1.280
82264W        W53880  29.218  28.332  14.925
82265W        W53881  40.878  18.094   4.935
82266W        W53882  27.744  20.689  14.284
82267W        W53883  17.071  19.832   4.589
82268W        W53884   6.689  15.858  12.404
82269W        W53885  26.246  35.615   4.636
82270W        W53886   8.064   9.170  14.689
82271W        W53887   3.023  23.009  11.958
82272W        W53888   1.215   9.330  14.318
82273W        W53889  20.050   8.103  11.107
82274W        W53890  30.970  27.861  10.205
82275W        W53891  22.677  18.043  12.850
82276W        W53892  36.561  23.157  13.435
82277W        W53893   3.394  40.696   4.545
82278W        W53894  13.246  20.630  12.940
82279W        W53895  28.999   3.965   4.890
82280W        W53896   7.886  30.001  13.604
82281W        W53897  38.451  39.085  12.169
82282W        W53898   8.512  13.116   4.770
82283W        W53899  19.265   3.869  14.423
82284W        W53900  27.298  33.570  12.259
82285W        W53901  38.084  18.325  13.431
82286W        W53902   4.756  19.321   0.862
82287W        W53903  33.467  39.920  12.685
82288W        W53904  43.774  39.830  14.615
82289W        W53905   8.555  39.230   3.987
82290W        W53906  10.803   6.858   2.593
82291W        W53907  19.244   7.538   2.807
82292W        W53908  35.028  38.853   4.030
82293W        W53909  10.780  11.450  10.596
82294W        W53910  27.915   1.438  10.515
82295W        W53911  29.566  41.555   1.951
82296W        W53912  34.072  35.570   1.839
82297W        W53913  24.946  21.104   4.149
82298W        W53914  16.535  14.578  10.569
82299W        W53915  35.415  35.597  10.785
82300W        W53916  29.420  34.911  14.341
82301W        W53917  13.750  22.015   3.016
82302W        W53918  24.112   5.706   1.670
82303W        W53919  15.703  34.543  14.755
82304W        W53920   4.515  26.249   3.765
82305W        W53921  32.236   0.328  12.982
82306W        W53922  28.175   0.817  12.861
82307W        W53923  36.960  44.034   2.215
82308W        W53924  41.449  35.803  14.959
82309W        W53925  19.034  41.962   0.230
82310W        W53926   7.196  43.487  11.603
82311W        W53927  36.023  23.694  11.452
82312W        W53928  27.386  33.067   3.674
82313W        W53929  44.941  16.683   1.959
82314W        W53930  41.945  15.751  14.471
82315W        W53931  22.756   2.385   3.882
82316W        W53932  25.609   7.809   2.424
82317W        W53933  44.738  17.407   2.882
82318W        W53934  29.385   4.508   4.274
82319W        W53935  18.614  44.730   0.527
82320W        W53936  35.589  15.267  12.855
82321W        W53937  12.612  24.499  11.124
82322W        W53938  29.510   7.141   2.128
82323W        W53939   7.741   1.472   2.435
82324W        W53940  13.688  10.155  12.175
82325W        W53941  36.494  21.623   1.866
82326W        W53942  34.305  22.323   4.082
82327W        W53943  41.327  26.375  10.940
82328W        W53944  28.407  13.568   2.713
82329W        W53945  24.435   7.617  12.387
82330W        W53946  29.346  22.723  13.191
82331W        W53947   5.354  23.234   4.985
82332W        W53948  16.630  20.949   4.246
82333W        W53949  26.556  23.867   0.033
82334W        W53950  32.034  21.790  13.080
82335W        W53951  21.357  44.316   2.051
82336W        W53952   7.248  17.397  13.059
82337W        W53953  15.805  15.776  11.149
82338W        W53954  26.975  16.299   4.965
82339W        W53955  29.851  33.365  10.637
82340W        W53956  21.848   7.147  12.405
82341W        W53957  43.932  30.864  13.592
82342W        W53958  28.384  19.547  14.561
82343W        W53959   3.370  12.546   1.365
82344W        W53960   2.893  31.531   4.453
82345W        W53961  35.854   8.537   1.454
82346W        W53962  14.836  40.285  12.446
82347W        W53963   1.967  24.681   3.330
82348W        W53964   5.281  39.865   0.342
82349W        W53965  20.934  14.290  12.081
82350W        W53966  16.690  35.479  11.220
82351W        W53967  30.007  37.859   0.476
82352W        W53968  33.954  10.323   4.625
82353W        W53969  31.989  39.838   3.165
82354W        W53970  11.916  37.112   0.471
82355W        W53971  41.048  42.354   1.334
82356W        W53972   0.241  38.081  10.684
82357W        W53973  40.042  25.959  10.985
82358W        W53974  33.804  30.291   1.950
82359W        W53975  15.198   7.906   0.271
82360W        W53976  19.551  31.497  11.012
82361W        W53977  26.256  30.521  13.352
82362W        W53978   0.781  17.200  12.328
82363W        W53979   4.696  42.103  11.066
82364W        W53980   3.739  21.108  12.613
82365W        W53981  18.176  26.876  11.164
82366W        W53982  10.940  33.500   4.258
82367W        W53983  43.260  31.473   3.797
82368W        W53984  18.027  22.914   2.696
82369W        W53985  22.387   9.775  11.911
82370W        W53986  11.529  38.902  11.909
82371W        W53987  28.407  20.628  13.536
82372W        W53988   5.106   5.684   4.589
82373W        W53989   2.977  17.785  12.867
82374W        W53990  15.553  24.744  13.879
82375W        W53991  32.640  17.169   2.550
82376W        W53992  27.663  17.821   2.185
82377W        W53993  21.125  21.700   0.802
82378W        W53994  12.234  35.678  14.263
82379W        W53995   4.779   1.192   0.958
82380W        W53996  33.942   6.020   3.281
82381W        W53997  18.070  12.776   2.151
82382W        W53998  16.747  23.543  14.466
82383W        W53999  39.663  18.262   2.230
82384W        W54000  20.984  26.483   3.327
82385W        W54001  17.531  20.927   3.159
82386W        W54002   3.985  41.774   4.139
82387W        W54003   8.823  13.214   1.816
82388W        W54004  20.813  35.446   4.519
82389W        W54005  27.084  17.880  14.476
82390W        W54006   0.478  18.066  14.007
82391W        W54007  38.245  22.884   3.689
82392W        W54008  35.045  31.963  11.176
82393W        W54009  30.106   6.366  13.833
82394W        W54010   4.061   8.707   4.026
82395W        W54011   2.773   4.804  10.521
82396W        W54012  43.015  30.084   4.723
82397W        W54013   7.887  15.621   0.445
82398W        W54014  11.742   6.803   3.545
82399W        W54015  20.758  25.866  14.904
82400W        W54016   8.271  17.186  12.938
82401W        W54017  40.301  28.046   5.070
82402W        W54018  36.943   2.513  14.842
82403W        W54019  26.171  28.485  10.697
82404W        W54020  20.163  27.034   0.356
82405W        W54021  24.157  23.080   3.194
82406W        W54022  30.973  27.831  12.025
82407W        W54023  36.075  27.275   2.726
82408W        W54024  17.933  19.339  11.047
82409W        W54025  14.797  43.226  11.074
82410W        W54026  10.737   0.001  14.372
82411W        W54027   5.074   9.786   4.457
82412W        W54028   9.791   1.344  14.912
82413W        W54029  40.033  31.960   3.303
82414W        W54030  28.215  30.179   2.824
82415W        W54031  37.045  43.933   4.093
82416W        W54032  37.902  31.155  11.000
82417W        W54033  41.844  39.033  11.588
82418W        W54034  28.080  39.551   3.158
82419W        W54035   9.124  29.307  11.135
82420W        W54036  36.059  37.984  11.520
82421W        W54037  15.388  10.387  12.007
82422W        W54038  44.467   0.743  14.038
82423W        W54039   7.869   8.678   4.730
82424W        W54040  24.783   4.570  10.173
82425W        W54041  16.038   1.493  13.915
82426W        W54042  41.802  18.061   0.839
82427W        W54043  43.072  38.856  13.313
82428W        W54044  24.200  29.693   1.363
82429W        W54045  37.005   7.266   4.176
82430W        W54046  31.701   3.269  13.595
82431W        W54047  31.003  41.919  12.796
82432W        W54048  29.720  26.595   4.697
82433W        W54049  33.117  10.232   0.277
82434W        W54050  13.464   0.027  14.346
82435W        W54051  42.061  31.105   0.970
82436W        W54052   7.882   6.422   1.712
82437W        W54053  20.243  14.828  12.473
82438W        W54054  21.573  42.940   1.653
82439W        W54055   6.210   6.251  14.053
82440W        W54056  14.839  40.358  10.574
82441W        W54057  24.249  26.177   1.886
82442W        W54058   0.312   6.932   0.497
82443W        W54059  31.934   0.092   3.724
82444W        W54060  28.081  17.168  11.701
82445W        W54061  14.027  43.737  10.853
82446W        W54062   5.907  18.279   0.876
82447W        W54063  24.925  28.532  12.518
82448W        W54064   0.788  38.743  11.197
82449W        W54065   8.268  20.007  11.198
82450W        W54066   1.446   8.584   2.004
82451W        W54067  33.797  35.152   1.816
82452W        W54068  29.693  35.700   4.236
82453W        W54069  43.947   1.956  12.472
82454W        W54070   4.000   7.998  13.324
82455W        W54071  31.208  20.081   1.721
82456W        W54072  11.899   4.361  10.483
82457W        W54073  43.914  17.200  11.498
82458W        W54074  34.811  25.421  12.861
82459W        W54075  19.126  34.469   1.745
82460W        W54076  38.477  35.950   3.326
82461W        W54077  15.202  23.531  11.402
82462W        W54078  27.631   8.438   2.188
82463W        W54079  26.592  34.813  13.918
82464W        W54080  32.638  22.020  11.667
82465W        W54081   6.344  41.828   3.427
82466W        W54082  12.149  42.273   3.701
82467W        W54083  22.742  34.923  13.215
82468W        W54084  40.540  33.449   1.273
82469W        W54085  36.389   0.262  14.294
82470W        W54086  22.774  17.064   1.806
82471W        W54087  39.483  26.548  14.842
82472W        W54088  16.773  13.659   0.224
82473W        W54089  18.235  30.692   2.793
82474W        W54090   4.764  16.797  12.533
82475W        W54091  12.885  13.512   3.739
82476W        W54092  21.416  42.544  11.129
82477W        W54093   4.533  41.392   2.275
82478W        W54094  21.192   4.758   0.341
82479W        W54095  24.594  31.404  14.931
82480W        W54096  30.982  39.397  12.476
82481W        W54097   2.273  30.984   3.320
82482W        W54098  36.435  44.418   3.515
82483W        W54099  34.475  26.912   3.124
82484W        W54100  32.165   0.508   1.223
82485W        W54101  15.323  25.124   4.743
82486W        W54102  16.775  17.246  14.513
82487W        W54103  38.029   2.358  11.923
82488W        W54104   5.159  12.919   0.372
82489W        W54105  38.379  23.620  11.924
82490W        W54106  23.362  16.411  11.164
82491W        W54107  34.025  43.971   9.791
82492W        W54108  44.459  10.648   0.380
82493W        W54109  27.636  26.535   2.663
82494W        W54110  12.419  13.578   3.976
82495W        W54111  24.248   9.938  14.285
82496W        W54112   1.012  32.376  12.515
82497W        W54113  19.724  27.941   4.602
82498W        W54114  17.272  39.437  14.533
82499W        W54115   0.310  34.374   2.809
82500W        W54116  31.462   0.079   2.710
82501W        W54117  14.088   7.235  14.846
82502W        W54118  16.460  19.403  10.661
82503W        W54119  39.035  42.270   2.801
82504W        W54120  17.819   6.254  10.952
82505W        W54121  19.245  42.516  13.987
82506W        W54122  27.759   1.315  14.372
82507W        W54123  13.913  13.905   2.753
82508W        W54124  10.360  26.645  13.835
82509W        W54125   4.431  39.782  10.832
82510W        W54126  25.125  34.914  14.415
82511W        W54127  15.151  34.784   3.815
82512W        W54128   7.326   8.292  13.052
82513W        W54129  33.080   8.933  13.334
82514W        W54130  34.045  13.163   2.764
82515W        W54131   3.756  44.924  12.699
82516W        W54132  15.782  38.079  12.014
82517W        W54133   4.638   0.765  13.526
82518W        W54134  32.605  41.538   1.713
82519W        W54135  14.052   6.796  11.744
82520W        W54136  18.800  14.136  14.249
82521W        W54137   4.730  33.124  10.960
82522W        W54138  32.311   9.690  11.976
82523W        W54139  32.938  19.128  13.859
82524W        W54140  35.476   5.991   0.471
82525W        W54141  34.656  41.451   2.271
82526W        W54142  24.488  17.258  14.467
82527W        W54143  37.452  42.864   3.753
82528W        W54144  33.538  35.859  14.234
82529W        W54145  24.967  37.574   1.944
82530W        W54146   7.845  14.657  12.819
82531W        W54147  13.070   2.758  13.486
82532W        W54148  33.908   0.539  14.475
82533W        W54149  33.756  24.613   2.839
82534W        W54150  42.576   9.723  10.726
82535W        W54151  17.122   7.336   1.744
82536W        W54152   2.811   0.429  12.084
82537W        W54153   9.363   6.385  14.699
82538W        W54154  23.490  24.250   2.230
82539W        W54155  18.781  14.230  10.559
82540W        W54156  11.615  35.688   0.431
82541W        W54157  27.447  35.560  13.472
82542W        W54158  39.774  23.681  12.407
82543W        W54159  39.984  28.472  13.988
82544W        W54160  25.261   2.327   3.887
82545W        W54161   9.578  15.338  12.895
82546W        W54162   3.407   7.414  12.502
82547W        W54163  22.660  18.283   9.922
82548W        W54164  30.507  26.044  13.517
82549W        W54165  36.612  13.053  10.683
82550W        W54166  19.582  31.526   2.366
82551W        W54167  30.196  23.799  14.050
82552W        W54168   1.460  31.943   4.614
82553W        W54169  30.511  12.253  13.970
82554W        W54170  29.466  16.012   3.378
82555W        W54171  40.987  26.848   4.237
82556W        W54172  40.784   8.875  11.726
82557W        W54173  44.347  27.989  14.868
82558W        W54174  14.278  16.160   0.959
82559W        W54175  36.978   3.919   0.437
82560W        W54176  43.428  43.919  12.104
82561W        W54177  30.020  12.225   1.720
82562W        W54178  32.866  28.102  11.993
82563W        W54179  25.460  21.574   1.727
82564W        W54180  30.519  36.863  12.981
82565W        W54181  35.832  15.349  14.031
82566W        W54182   0.967  11.769  12.954
82567W        W54183  16.617   6.601  13.049
82568W        W54184  38.752  42.379  10.828
82569W        W54185  21.575   9.805   2.328
82570W        W54186  22.316  41.448  11.497
82571W        W54187  24.660  21.048  11.127
82572W        W54188  21.965  33.583  14.901
82573W        W54189  14.728   3.238  13.047
82574W        W54190  16.646  34.909  13.005
82575W        W54191  36.805  14.693   4.408
82576W        W54192  29.788  38.609  10.326
82577W        W54193  28.529   3.192  10.355
82578W        W54194   2.142  23.419  13.562
82579W        W54195  22.781   5.844  12.537
82580W        W54196  14.836  44.272   2.005
82581W        W54197  19.723  19.992  12.779
82582W        W54198  41.278  17.752  14.265
82583W        W54199   0.374  30.594  11.393
82584W        W54200  26.748  19.816  12.074
82585W        W54201  30.938  33.089   1.872
82586W        W54202  17.683   8.689  11.506
82587W        W54203  15.288  42.285   1.803
82588W        W54204  44.398  11.404  13.822
82589W        W54205  15.506  38.203   1.842
82590W        W54206  17.140   6.338  12.609
82591W        W54207  43.919   1.168  11.019
82592W        W54208   3.349  23.660  11.482
82593W        W54209   2.774  16.776  12.942
82594W        W54210  37.722  20.014   3.628
82595W        W54211  18.165  34.727   4.220
82596W        W54212  20.564  41.036  12.541
82597W        W54213  29.612  14.392   3.738
82598W        W54214  14.718   5.231   2.000
82599W        W54215  34.001  33.501   3.306
82600W        W54216  28.399  33.848   4.141
82601W        W54217  20.970  42.990   4.515
82602W        W54218  32.016  31.969   0.318
82603W        W54219  12.919   7.840  11.996
82604W        W54220  36.015  20.853   4.578
82605W        W54221  26.958  21.925  11.677
82606W        W54222  23.649  24.989   1.177
82607W        W54223  40.061   0.639  14.165
82608W        W54224   8.549  42.348  14.098
82609W        W54225   2.905  44.311   3.099
82610W        W54226  43.478  13.216   3.589
82611W        W54227  28.049   5.073   1.969
82612W        W54228   6.164  19.780   3.295
82613W        W54229  40.248  23.309  11.070
82614W        W54230  33.532  15.832  13.353
82615W        W54231  43.451  36.596   0.014
82616W        W54232  16.051  16.126   4.594
82617W        W54233  10.340  27.689   0.914
82618W        W54234  25.385  43.779   1.679
82619W        W54235  27.433  23.687  10.800
82620W        W54236   3.027  20.356  14.741
82621W        W54237  31.741  42.601   0.692
82622W        W54238   1.321  18.775   3.167
82623W        W54239  17.730  33.031   2.681
82624W        W54240   0.908  18.262  14.946
82625W        W54241  16.387  29.133  11.820
82626W        W54242   0.764  28.582  12.439
82627W        W54243  13.291  28.125   1.885
82628W        W54244  44.099  32.855   0.324
82629W        W54245  22.715  31.636  14.783
82630W        W54246  39.952  32.850  13.815
82631W        W54247  37.796  15.740  13.546
82632W        W54248  21.044  18.586  11.706
82633W        W54249  17.365  44.328  14.394
82634W        W54250   8.703  29.111   3.175
82635W        W54251  19.721  23.570  14.285
82636W        W54252  20.044   1.344  13.923
82637W        W54253   1.430  41.039   3.778
82638W        W54254  18.937  35.505   4.117
82639W        W54255  38.050  24.029   4.151
82640W        W54256   4.758  10.686  12.521
82641W        W54257  43.795  31.343   3.745
82642W        W54258  44.752  40.857  13.445
82643W        W54259  28.987  24.474  12.432
82644W        W54260   8.727  15.172  12.677
82645W        W54261  13.220   4.845  11.169
82646W        W54262   5.272  25.245  10.734
82647W        W54263  17.576  39.088   0.257
82648W        W54264  44.984  25.233   1.000
82649W        W54265   5.301  44.751  11.341
82650W        W54266  13.398  29.930   1.835
82651W        W54267   9.599  14.390   3.700
82652W        W54268  38.697  43.436  12.619
82653W        W54269  26.423  34.865  10.690
82654W        W54270  14.566  37.872  11.169
82655W        W54271  10.673  15.533  10.638
82656W        W54272   7.844  22.460   0.474
82657W        W54273   5.908  39.901   1.252
82658W        W54274  42.872  15.322  12.587
82659W        W54275  24.625  41.773  10.753
82660W        W54276   3.343  36.567  12.518
82661W        W54277  32.156  17.861  12.305
82662W        W54278  22.167  10.508  12.908
82663W        W54279  44.922   6.868  12.972
82664W        W54280  15.785  19.918  13.364
82665W        W54281  28.415  26.087   0.815
82666W        W54282  10.868  30.108  14.510
82667W        W54283  25.082  30.403  12.519
82668W        W54284  21.320  29.926   0.813
82669W        W54285  42.619  34.968   2.273
82670W        W54286  22.496  14.043   4.064
82671W        W54287  29.637  25.118   4.168
82672W        W54288  13.185  39.366   0.293
82673W        W54289   2.800  39.577   1.214
82674W        W54290  44.244  19.303  12.046
82675W        W54291  31.022  36.597   1.154
82676W        W54292   9.402   5.203  14.409
82677W        W54293  29.613  13.656  11.134
82678W        W54294  14.859  25.111  11.556
82679W        W54295  21.263  15.148   0.441
82680W        W54296  15.550  29.248   3.659
82681W        W54297   2.892  37.473   0.839
82682W        W54298  34.130   8.094   2.778
82683W        W54299   6.026  25.171   2.746
82684W        W54300  20.199  19.778  14.360
82685W        W54301   8.366   8.806   4.877
82686W        W54302  23.722   5.792   3.892
82687W        W54303  17.699   0.057  14.058
82688W        W54304  41.381  10.687   3.849
82689W        W54305  10.589  15.619   4.007
82690W        W54306  43.888  41.786   3.648
82691W        W54307  25.750   3.222   3.818
82692W        W54308   8.205  28.614  14.502
82693W        W54309  43.806  28.366   3.925
82694W        W54310  25.688  44.326   0.321
82695W        W54311  39.256  44.217   0.299
82696W        W54312  31.492  31.543   0.843
82697W        W54313  41.751  35.895   4.569
82698W        W54314   9.876  29.761  11.473
82699W        W54315  29.254   5.210   0.784
82700W        W54316  13.386   7.396   1.859
82701W        W54317   4.642  17.419  14.469
82702W        W54318  28.596  18.383  12.359
82703W        W54319  28.020   9.388   0.875
82704W        W54320  22.637   8.847  11.217
82705W        W54321  11.875  10.194   4.723
82706W        W54322  38.893  40.604  13.560
82707W        W54323  32.338  29.613  13.042
82708W        W54324  15.099  24.677   3.924
82709W        W54325  24.436  33.590   4.339
82710W        W54326   0.874  15.384  10.774
82711W        W54327  37.607  22.627  11.054
82712W        W54328  11.763  27.702  11.029
82713W        W54329  27.653  29.955   2.051
82714W        W54330  33.644  27.652   1.193
82715W        W54331  20.745  11.808  12.773
82716W        W54332   3.039  14.277   4.237
82717W        W54333  24.681  22.590   1.404
82718W        W54334  30.324  37.566   1.432
82719W        W54335  25.463  23.673   0.306
82720W        W54336   3.179  38.288  13.421
82721W        W54337  20.725  29.448   3.281
82722W        W54338  13.116  44.085  11.265
82723W        W54339  17.513  42.225  14.365
82724W        W54340   3.989  15.321   3.931
82725W        W54341  14.204  10.094  13.810
82726W        W54342  27.067  26.538   1.229
82727W        W54343  40.965   3.004   0.637
82728W        W54344   7.613   9.098  11.237
82729W        W54345  37.765  38.569  11.632
82730W        W54346  23.505  10.448   3.264
82731W        W54347  12.511   2.518  13.881
82732W        W54348  31.731  34.139   2.179
82733W        W54349  18.016  42.379   4.613
82734W        W54350   4.511  38.935   0.425
82735W        W54351  38.073  38.954  10.337
82736W        W54352   7.830  42.061   2.850
82737W        W54353  17.163  34.476   3.761
82738W        W54354  38.761  43.253   1.776
82739W        W54355  15.585  11.184  13.262
82740W        W54356  11.336  38.029   0.343
82741W        W54357   6.190  17.341  14.535
82742W        W54358   2.378   1.947   4.675
82743W        W54359   5.966  11.856   3.910
82744W        W54360  11.326  35.353   2.160
82745W        W54361  26.666   9.837  12.391
82746W        W54362  27.305  33.546   0.910
82747W        W54363  35.491  22.737   1.268
82748W        W54364  26.235  33.522   2.700
82749W        W54365  27.748  41.982   4.610
82750W        W54366  28.889  32.153   5.039
82751W        W54367  10.011  16.623   2.039
82752W        W54368  30.713  35.104  12.963
82753W        W54369  40.209  23.467   4.947
82754W        W54370  26.710   6.902   2.698
82755W        W54371   0.492  27.624  13.829
82756W        W54372  31.106   2.160  13.592
82757W        W54373  36.114   0.363  10.671
82758W        W54374  24.025  38.121  11.094
82759W        W54375   6.277  19.715   1.532
82760W        W54376   3.934  32.346   3.550
82761W        W54377   5.370  11.282  13.269
82762W        W54378  17.605  21.000   4.654
82763W        W54379   5.668  33.907   4.583
82764W        W54380  28.097  35.036  14.692
82765W        W54381  19.194   2.438  11.441
82766W        W54382  33.108  24.776  11.907
82767W        W54383  28.010  11.367  12.893
82768W        W54384  27.954  15.679   2.203
82769W        W54385  38.640  26.795  10.535
82770W        W54386  38.685  37.040   2.652
82771W        W54387  29.450  25.319   4.613
82772W        W54388   1.295  24.366   5.546
82773W        W54389  33.658  30.666  12.864
82774W        W54390  12.900   4.961  14.931
82775W        W54391  11.109   8.651   3.222
82776W        W54392  37.318  27.411  13.502
82777W        W54393  19.655  18.995  11.008
82778W        W54394  16.118  32.537   2.696
82779W        W54395  44.428   8.703  14.246
82780W        W54396  44.395  10.643   4.159
82781W        W54397  20.270  25.258   0.890
82782W        W54398  35.612  32.948   3.702
82783W        W54399   8.258   2.328   1.796
82784W        W54400  15.991  30.903  13.391
82785W        W54401  11.121  19.095   5.118
82786W        W54402  27.617  25.037   1.285
82787W        W54403  13.361  40.729   4.728
82788W        W54404  31.765  41.457  12.702
82789W        W54405  30.532  21.608   1.494
82790W        W54406  42.831  22.923   0.940
82791W        W54407  44.173  12.286  10.758
82792W        W54408   3.843  25.587   2.620
82793W        W54409  37.366   2.894   0.834
82794W        W54410  24.640   4.407   0.403
82795W        W54411  44.393   7.371   3.696
82796W        W54412  30.904  18.262  14.327
82797W        W54413   8.712   1.323  14.081
82798W        W54414  15.010   0.748   1.690
82799W        W54415  21.094  41.943  13.265
82800W        W54416  42.553  31.433  10.499
82801W        W54417  27.135  18.989   3.593
82802W        W54418  20.755  11.106   2.861
82803W        W54419   8.910  26.121  12.471
82804W        W54420  19.735  27.061  11.454
82805W        W54421  14.750  11.065   3.197
82806W        W54422  34.379  21.703   2.526
82807W        W54423  33.976  41.543  11.159
82808W        W54424  29.989  22.787  13.990
82809W        W54425  30.101  10.422  10.990
82810W        W54426  26.929  14.943   0.173
82811W        W54427  21.262   6.386   4.603
82812W        W54428   9.433   8.220  13.437
82813W        W54429   7.801  44.529  10.382
82814W        W54430  33.975  24.272  13.628
82815W        W54431  30.805  17.566  10.706
82816W        W54432   3.887  16.157  11.169
82817W        W54433   1.442  17.264   2.216
82818W        W54434  25.518  42.504   1.122
82819W        W54435  21.041  22.070   4.535
82820W        W54436  24.592   3.380   2.848
82821W        W54437   8.426  13.799  12.604
82822W        W54438  29.990  22.533   1.879
82823W        W54439   8.631   3.350   2.584
82824W        W54440  13.214   1.473   0.791
82825W        W54441  23.333  21.092   2.806
82826W        W54442   2.972  21.573  12.493
82827W        W54443   0.605   9.668   3.446
82828W        W54444  30.870  17.403  14.012
82829W        W54445  43.812  15.792  14.965
82830W        W54446  13.885  18.255   3.119
82831W        W54447  24.412  42.975   4.424
82832W        W54448  30.349  26.620  14.845
82833W        W54449  32.343  44.838  14.581
82834W        W54450  40.822  24.805   3.215
82835W        W54451  17.551  21.950  12.002
82836W        W54452  14.667  32.495   0.350
82837W        W54453  27.407  23.461   0.976
82838W        W54454  12.285  33.363   2.904
82839W        W54455  26.080  14.677  11.869
82840W        W54456  13.025  30.613  14.930
82841W        W54457  11.247  13.934   1.802
82842W        W54458  40.475  14.060  14.320
82843W        W54459   2.368   8.728  12.403
82844W        W54460  13.805  43.738   4.194
82845W        W54461  11.656   8.556  13.564
82846W        W54462   4.520   5.189  11.022
82847W        W54463  32.450  29.009   2.602
82848W        W54464  42.909  24.772   1.978
82849W        W54465   0.252  31.754  14.764
82850W        W54466  41.527  41.533   3.282
82851W        W54467  22.509  21.721   4.589
82852W        W54468  41.892   1.880   4.067
82853W        W54469  24.417  11.601   1.723
82854W        W54470  21.129  24.096   2.390
82855W        W54471   3.417  23.224  12.864
82856W        W54472  41.356  23.207  14.960
82857W        W54473   9.727   4.726  11.990
82858W        W54474  12.563  43.084  14.239
82859W        W54475   6.400  12.548  12.549
82860W        W54476  29.067  34.398   4.730
82861W        W54477  35.781  12.896  12.453
82862W        W54478  26.394   7.745  14.322
82863W        W54479  10.327  42.901   3.604
82864W        W54480   6.175  35.871   3.670
82865W        W54481  44.830  31.487   0.963
82866W        W54482  24.021  29.004   2.814
82867W        W54483  41.250  39.369  14.967
82868W        W54484  27.117  24.160   1.233
82869W        W54485   6.137  19.611   4.202
82870W        W54486  41.334  16.247  11.120
82871W        W54487  44.755  38.250  10.144
82872W        W54488  37.566   7.655   3.640
82873W        W54489  22.514  42.742   1.772
82874W        W54490  23.507  16.353  12.409
82875W        W54491  44.990  41.054  13.867
82876W        W54492  14.401  18.134  10.687
82877W        W54493  36.166  15.829   3.786
82878W        W54494  12.877  30.474   3.623
82879W        W54495  26.241  36.018   1.869
82880W        W54496  25.987   0.737   2.842
82881W        W54497  40.913  10.376   1.784
82882W        W54498  14.340  35.073   4.799
82883W        W54499   6.411  33.448   4.134
82884W        W54500  22.989  33.974   4.056
82885W        W54501  31.715  12.182  12.856
82886W        W54502  14.742  14.069   4.924
82887W        W54503  15.364  36.714  12.573
82888W        W54504   6.821  11.579   3.752
82889W        W54505  34.624  11.691   0.830
82890W        W54506  24.625  10.222   1.916
82891W        W54507  42.684  24.662  13.406
82892W        W54508  11.791   4.493   9.966
82893W        W54509  20.271   2.856   3.784
82894W        W54510  13.060  44.849  13.409
82895W        W54511  23.958  44.256  11.207
82896W        W54512  23.155   4.249   0.410
82897W        W54513  41.754   0.736  13.671
82898W        W54514  14.754  10.740  14.590
82899W        W54515   6.282  10.686  10.693
82900W        W54516  39.725  16.666  13.865
82901W        W54517  16.092  39.602   0.472
82902W        W54518   2.748  39.796  11.515
82903W        W54519  29.163   8.358   3.634
82904W        W54520  36.440  28.626   3.178
82905W        W54521  41.053  24.038   1.966
82906W        W54522  16.402  22.919  13.975
82907W        W54523  41.073  43.071   4.168
82908W        W54524   2.782  26.684  10.557
82909W        W54525   9.952  16.797  12.951
82910W        W54526  25.320  21.104   1.970
82911W        W54527   2.578  34.989  13.671
82912W        W54528  14.835  21.731  11.560
82913W        W54529  31.543  42.488  12.001
82914W        W54530  23.685   8.743  14.118
82915W        W54531  18.697   6.816   0.258
82916W        W54532   3.951   8.266  12.471
82917W        W54533  32.901  26.595   2.952
82918W        W54534  10.843  40.971   0.265
82919W        W54535  23.309  43.501   2.879
82920W        W54536   3.295   0.356   1.660
82921W        W54537  21.549  36.588  12.858
82922W        W54538  32.360  30.490  13.488
82923W        W54539  42.635  34.348   1.515
82924W        W54540  17.760   5.672   1.798
82925W        W54541  32.404   7.777  10.815
82926W        W54542  13.370  44.592  11.360
82927W        W54543  22.785  18.042   3.514
82928W        W54544  18.385   1.250   2.636
82929W        W54545   9.782  12.443  13.391
82930W        W54546  30.850   7.176   1.617
82931W        W54547  14.848   3.797   3.746
82932W        W54548  17.119   8.845   2.684
82933W        W54549   2.141  24.594  11.020
82934W        W54550  27.350  10.828  11.022
82935W        W54551  40.010   7.903   1.959
82936W        W54552  14.494  18.445   3.766
82937W        W54553  25.291  42.269  10.629
82938W        W54554  27.586   0.303   4.183
82939W        W54555  39.365   2.751  11.200
82940W        W54556  22.344  28.296   0.800
82941W        W54557  31.399  30.911  10.738
82942W        W54558  32.460  25.821   0.009
82943W        W54559   3.481   6.487   1.557
82944W        W54560  37.889   0.432  14.534
82945W        W54561  37.010  32.014  11.480
82946W        W54562  30.549  30.444   2.770
82947W        W54563  23.718  34.318  11.074
82948W        W54564  31.915  24.657   1.340
82949W        W54565  30.361  17.658  10.971
82950W        W54566   7.346  42.195   2.711
82951W        W54567  42.375  41.523  13.054
82952W        W54568   3.831  25.800  13.939
82953W        W54569  31.045   5.663   1.217
82954W        W54570  37.904  39.240   1.821
82955W        W54571  21.527  43.948  14.880
82956W        W54572  26.148  27.640   1.792
82957W        W54573  32.966  40.772  11.635
82958W        W54574   9.338  10.749   1.337
82959W        W54575  43.262  40.417  10.377
82960W        W54576  19.144  20.579   3.884
82961W        W54577  40.306  22.040  13.078
82962W        W54578   8.596   7.322   0.947
82963W        W54579  33.663  33.151   2.173
82964W        W54580  17.982  35.129   3.534
82965W        W54581  36.561  41.537   4.575
82966W        W54582  42.018  22.216  12.067
82967W        W54583  44.793  25.192  11.085
82968W        W54584  31.558  12.309   2.838
82969W        W54585  18.026  44.221  12.045
82970W        W54586   0.944  13.252   4.220
82971W        W54587  26.848  29.626  13.346
82972W        W54588  24.584  30.480   5.124
82973W        W54589   2.816  39.412   1.729
82974W        W54590  12.832  32.955   2.782
82975W        W54591  12.753  21.782   2.167
82976W        W54592  20.277  10.267  12.391
82977W        W54593   4.217   6.448  12.869
82978W        W54594   4.268   8.887  14.886
82979W        W54595  35.832  17.570   4.112
82980W        W54596  24.509   6.722  12.027
82981W        W54597  31.421   1.410  10.723
82982W        W54598  18.173  37.940  12.949
82983W        W54599  27.070  40.007  12.503
82984W        W54600  44.945  33.988  13.833
82985W        W54601   0.585  39.569  11.405
82986W        W54602   7.719  16.281   3.479
82987W        W54603  10.141   7.892  13.906
82988W        W54604   8.253   3.909   4.759
82989W        W54605  15.514  18.824  12.598
82990W        W54606   2.600  23.698  13.797
82991W        W54607  30.036  36.885   2.329
82992W        W54608   7.731  10.845  11.568
82993W        W54609   2.998  30.216   2.844
82994W        W54610  39.511   7.662  14.796
82995W        W54611  44.303  34.544   4.704
82996W        W54612  44.370  39.283   1.962
82997W        W54613  29.705  23.433  11.962
82998W        W54614  17.070   0.795   1.965
82999W        W54615  42.155  23.789  11.131
83000W        W54616   1.560  20.819  12.415
83001W        W54617  17.610  20.441  13.364
83002W        W54618   7.644   4.157  11.328
83003W        W54619  11.858  16.318   0.970
83004W        W54620  30.684   0.372   4.812
83005W        W54621  43.215  30.797  12.058
83006W        W54622  22.008   5.695  12.476
83007W        W54623  26.009  36.800  13.363
83008W        W54624   6.897  26.049  11.562
83009W        W54625   1.805  13.290   1.340
83010W        W54626  14.940  26.974   4.173
83011W        W54627   3.755  16.526   2.151
83012W        W54628   7.825  21.944   0.501
83013W        W54629  30.805   5.652  13.039
83014W        W54630   1.720   1.467   1.301
83015W        W54631  15.549  37.356   2.273
83016W        W54632   4.836  19.678   4.556
83017W        W54633  14.309  25.708  12.456
83018W        W54634  13.069  42.635   1.865
83019W        W54635  14.725   0.521  12.253
83020W        W54636  15.037  14.214   1.335
83021W        W54637  19.103  13.269  11.477
83022W        W54638  41.805  39.114   1.453
83023W        W54639  37.384  35.308   0.723
83024W        W54640  33.637  30.526  11.062
83025W        W54641   8.786  18.678   4.589
83026W        W54642  15.135  27.434   4.096
83027W        W54643  41.710  32.094   1.666
83028W        W54644  14.169  32.926   0.746
83029W        W54645  20.706  21.540  14.384
83030W        W54646  31.941  40.097   3.612
83031W        W54647  42.851  21.607  10.809
83032W        W54648  14.459  41.405   9.858
83033W        W54649  14.236  38.147   0.284
83034W        W54650  28.909   5.927  11.236
83035W        W54651  22.893  41.024  14.107
83036W        W54652   9.796  37.967  13.813
83037W        W54653  43.907  40.565  13.275
83038W        W54654   5.469  22.650  10.693
83039W        W54655  28.343   7.219   0.394
83040W        W54656  14.738  34.545  14.269
83041W        W54657   1.867  18.038   4.205
83042W        W54658   9.238  21.517   1.145
83043W        W54659  29.193  34.300   0.801
83044W        W54660   5.797  12.298   4.120
83045W        W54661  32.106  27.694  13.434
83046W        W54662  22.125  19.527   1.267
83047W        W54663   4.707  20.092  12.425
83048W        W54664  14.578  10.130   2.910
83049W        W54665  35.333  15.328   3.782
83050W        W54666  40.330  44.274   3.141
83051W        W54667  25.254  23.979  13.024
83052W        W54668   7.928   4.254   4.345
83053W        W54669  17.762  21.241  10.680
83054W        W54670  33.835  13.227   2.289
83055W        W54671  34.602  24.376   3.683
83056W        W54672  29.734  34.114   2.402
83057W        W54673  31.973  14.361  10.769
83058W        W54674  17.007  34.023  12.161
83059W        W54675  33.970   5.892  10.940
83060W        W54676  27.970   2.079  12.201
83061W        W54677  20.418  24.635   2.003
83062W        W54678  17.657  11.754  14.698
83063W        W54679   1.280   4.125   2.722
83064W        W54680  17.126  19.588   5.022
83065W        W54681  19.189  35.471  14.795
83066W        W54682  11.274  44.943   1.058
83067W        W54683  15.430  21.282  14.216
83068W        W54684  26.047   7.247   3.907
83069W        W54685  29.482  40.863  13.916
83070W        W54686  37.503  38.360  13.393
83071W        W54687  14.292  20.166  14.410
83072W        W54688   7.321  10.673   0.938
83073W        W54689  29.908  16.500   2.203
83074W        W54690  32.452  30.701   3.247
83075W        W54691  15.652  43.957   4.646
83076W        W54692  43.954  18.820  11.667
83077W        W54693   5.939  32.923   0.344
83078W        W54694   4.893   2.517   0.013
83079W        W54695  38.283   8.596   1.828
83080W        W54696  24.918  32.412   1.483
83081W        W54697  14.242  12.204   0.175
83082W        W54698  28.928   1.006  11.132
83083W        W54699   2.243   4.453   0.271
83084W        W54700  30.391  27.412  13.591
83085W        W54701  38.028  42.982  10.475
83086W        W54702  25.987  25.688  14.030
83087W        W54703  34.389  31.091   2.798
83088W        W54704  34.547   8.872  12.158
83089W        W54705  41.785  22.407   2.903
83090W        W54706   3.757  29.351   0.978
83091W        W54707  44.675  38.080  14.776
83092W        W54708  26.673   6.965  14.966
83093W        W54709  30.459   9.837  13.580
83094W        W54710  23.607  34.484  12.482
83095W        W54711  44.399  10.599   2.462
83096W        W54712   7.459  15.146  10.501
83097W        W54713  13.379  23.964   5.012
83098W        W54714   7.975  33.091   2.828
83099W        W54715  22.599   8.406   2.790
83100W        W54716  20.046   6.683   3.257
83101W        W54717  21.592   0.259  10.645
83102W        W54718  20.175  27.936  12.539
83103W        W54719   7.812  10.370  14.030
83104W        W54720  32.831   7.870  11.072
83105W        W54721  26.719  20.968   4.114
83106W        W54722  22.297  33.445  13.613
83107W        W54723  44.500   9.356  12.080
83108W        W54724  22.225  15.805  14.759
83109W        W54725   5.319  28.211  11.666
83110W        W54726  41.329   7.220  10.398
83111W        W54727  42.095  43.856   1.261
83112W        W54728  16.226  41.682  10.760
83113W        W54729  17.979  26.529  13.366
83114W        W54730  32.956  37.767  10.659
83115W        W54731  13.781   8.239   4.883
83116W        W54732  21.577  41.541   2.344
83117W        W54733  42.769  16.644   2.183
83118W        W54734  20.905  44.822   0.254
83119W        W54735   9.200  12.645   0.903
83120W        W54736  41.934  21.695   0.946
83121W        W54737  35.875  26.697  13.023
83122W        W54738  13.642  10.590  12.524
83123W        W54739  10.112  43.959   2.417
83124W        W54740  15.752   3.296   4.336
83125W        W54741   9.601  37.042  13.907
83126W        W54742  22.601  42.928   0.229
83127W        W54743   0.948  25.728  14.435
83128W        W54744  34.368  35.429   2.451
83129W        W54745  12.905  41.752   3.302
83130W        W54746  38.435  21.134  14.708
83131W        W54747  22.612  17.735  13.851
83132W        W54748  13.439  16.294   4.570
83133W        W54749   5.204  39.554  10.473
83134W        W54750  28.996  15.903   4.136
83135W        W54751  21.518  18.816   1.676
83136W        W54752   0.765  10.120  13.885
83137W        W54753  41.592  40.140  14.402
83138W        W54754  31.611   1.186   4.259
83139W        W54755  39.993   1.276   0.058
83140W        W54756  20.332  29.437  10.768
83141W        W54757  42.836  18.762  13.782
83142W        W54758  23.630   5.955   3.415
83143W        W54759  28.562   0.597   3.370
83144W        W54760  39.464  16.072   2.852
83145W        W54761  42.580  22.979  13.755
83146W        W54762  44.976  30.446   1.933
83147W        W54763   3.515   7.326  11.174
83148W        W54764  38.936  28.324   4.088
83149W        W54765   3.772  26.488   2.513
83150W        W54766   8.341  15.147   3.286
83151W        W54767   7.469  41.353   4.227
83152W        W54768   8.450  11.606  13.400
83153W        W54769  40.305   9.803   1.783
83154W        W54770  39.372  42.681  11.155
83155W        W54771  13.377  24.763  14.690
83156W        W54772  29.562   7.131  11.191
83157W        W54773  25.171   9.885  12.652
83158W        W54774  29.020  38.740   0.850
83159W        W54775  12.404   9.242  14.915
83160W        W54776  30.016  43.761   1.600
83161W        W54777   2.495  36.335   1.793
83162W        W54778   9.560  11.264  12.957
83163W        W54779   0.686  24.052   4.971
83164W        W54780  31.325   1.253  14.227
83165W        W54781  35.368  36.502  13.309
83166W        W54782  36.001   3.975  14.229
83167W        W54783  20.723  21.311  12.985
83168W        W54784  36.009  20.771   1.891
83169W        W54785  44.216   3.701   4.239
83170W        W54786   7.007  17.316   4.324
83171W        W54787  42.285  20.604   1.973
83172W        W54788   2.505  36.878   4.398
83173W        W54789  23.509  41.251  12.146
83174W        W54790  37.844  27.172  11.503
83175W        W54791  33.684  32.916  13.289
83176W        W54792  21.757  43.158   4.839
83177W        W54793  15.922  20.640  10.448
83178W        W54794  11.227  20.123   0.680
83179W        W54795  28.103  29.614   5.327
83180W        W54796  38.317  17.852  13.908
83181W        W54797  43.404  26.840  13.133
83182W        W54798   6.501  22.560  10.555
83183W        W54799   2.738  17.689   3.366
83184W        W54800  16.313  43.896  12.103
83185W        W54801  41.204   4.362  13.353
83186W        W54802  38.281   1.715  11.543
83187W        W54803  14.592   0.545   2.365
83188W        W54804  24.060  22.565  12.917
83189W        W54805   9.132  17.330   2.740
83190W        W54806  10.825  40.874   4.865
83191W        W54807  14.512  35.343   4.034
83192W        W54808  12.904  33.859  11.974
83193W        W54809  41.676  29.237   0.874
83194W        W54810  35.507  30.712  14.281
83195W        W54811  19.732  32.085  12.026
83196W        W54812  29.931  26.848  12.159
83197W        W54813  28.394  32.538   3.085
83198W        W54814   1.706  30.175   2.254
83199W        W54815  43.774  40.772   3.695
83200W        W54816  12.843   9.686  13.722
83201W        W54817  16.743  14.770  11.006
83202W        W54818  33.438  19.973  14.820
83203W        W54819  32.123  19.132  11.409
83204W        W54820   0.223  40.868  11.142
83205W        W54821   0.960   2.244   1.340
83206W        W54822   6.387  25.665  11.127
83207W        W54823  31.083  34.635   1.730
83208W        W54824  23.644  33.945  10.705
83209W        W54825  16.740   6.535   1.893
83210W        W54826  27.063   3.974   4.029
83211W        W54827  26.220  26.208  14.270
83212W        W54828  31.028  24.080   3.664
83213W        W54829  43.400  15.650   2.714
83214W        W54830  40.432  13.798   3.686
83215W        W54831  41.889  22.509  10.745
83216W        W54832   8.406  35.388   1.860
83217W        W54833  40.903  26.962   2.820
83218W        W54834  35.886   0.665  13.379
83219W        W54835  18.977   8.916  12.919
83220W        W54836  41.102  35.887  10.616
83221W        W54837  12.116  36.433   2.706
83222W        W54838  40.507  10.889  12.432
83223W        W54839  40.581  33.987   3.166
83224W        W54840   4.767  32.148   1.414
83225W        W54841  11.921  12.257   1.456
83226W        W54842   4.908  31.120  14.450
83227W        W54843  10.152  32.806  11.496
83228W        W54844  11.655  36.858   3.125
83229W        W54845  19.693  42.795  11.242
83230W        W54846   0.851  35.454  11.758
83231W        W54847  34.876  11.095   3.293
83232W        W54848  44.292   5.595   4.118
83233W        W54849  44.023  40.908  13.681
83234W        W54850  20.565  41.406   0.450
83235W        W54851  14.093  23.926   4.523
83236W        W54852  16.525  44.514  12.187
83237W        W54853  41.438  44.847  11.185
83238W        W54854   5.004   1.807   1.796
83239W        W54855   4.669  22.438   2.348
83240W        W54856  37.125  39.380  13.489
83241W        W54857  21.040  10.314   0.943
83242W        W54858   0.912  18.614   1.573
83243W        W54859  28.008  28.696   0.469
83244W        W54860  28.174  29.510   2.675
83245W        W54861  28.097  39.060   2.648
83246W        W54862   6.096  13.783  14.493
83247W        W54863  37.850   3.957   1.329
83248W        W54864  34.351   7.195  14.451
83249W        W54865  25.548   4.903   4.221
83250W        W54866   1.536  23.128  10.640
83251W        W54867  20.588   7.912   3.217
83252W        W54868  38.634  32.628   3.131
83253W        W54869   5.957  25.609   2.465
83254W        W54870  24.151  13.191  14.042
83255W        W54871  11.605  18.175   3.814
83256W        W54872  16.343  27.438   2.204
83257W        W54873  40.346  44.317  13.418
83258W        W54874  19.272  36.382  12.129
83259W        W54875  39.498  36.438  12.022
83260W        W54876  18.037  41.446   1.825
83261W        W54877  12.694  25.658   2.879
83262W        W54878  26.971   2.934   2.943
83263W        W54879  43.960   9.298  11.142
83264W        W54880  23.273  16.780   1.774
83265W        W54881   2.169   7.734   1.280
83266W        W54882   3.841   9.784  12.358
83267W        W54883  44.316  22.450  12.538
83268W        W54884  10.353  23.636   3.038
83269W        W54885  35.490  14.853  11.999
83270W        W54886  22.796  18.525  12.149
83271W        W54887  32.993  34.388   1.956
83272W        W54888  19.494  18.541   4.810
83273W        W54889  12.419  30.873   4.240
83274W        W54890  27.691  31.113   2.458
83275W        W54891  24.788  24.854  11.096
83276W        W54892  10.493  15.473   1.488
83277W        W54893  38.852  39.384  13.786
83278W        W54894  19.998  38.812  14.027
83279W        W54895  12.695  38.996   1.831
83280W        W54896   3.855  43.495   4.356
83281W        W54897  33.983  15.390  11.595
83282W        W54898  29.648  25.108  13.864
83283W        W54899   6.334  33.472  12.620
83284W        W54900  43.649  11.578  13.903
83285W        W54901  31.235  14.829  11.218
83286W        W54902   1.029  27.577  14.899
83287W        W54903   5.105  26.511   2.732
83288W        W54904  31.899  31.079   4.172
83289W        W54905  14.602  12.107  12.894
83290W        W54906  28.790   7.464  12.040
83291W        W54907  39.931  19.087  14.026
83292W        W54908  34.493  33.379   4.216
83293W        W54909  40.012  40.160   2.772
83294W        W54910  27.161   6.814  14.803
83295W        W54911  30.930  15.685   4.131
83296W        W54912  27.093  31.115   0.823
83297W        W54913  43.497  44.555   0.375
83298W        W54914  10.201  43.986   1.902
83299W        W54915  34.898  22.233   4.082
83300W        W54916  29.082  15.175  11.440
83301W        W54917  43.305  21.556  13.440
83302W        W54918  23.612   8.781   2.580
83303W        W54919  14.301   5.541  14.843
83304W        W54920  13.357  24.579   2.356
83305W        W54921  18.193  40.600  13.130
83306W        W54922  25.514  31.443   4.558
83307W        W54923   1.973  25.646   4.324
83308W        W54924   4.648  44.733   3.650
83309W        W54925  39.938  23.322  12.739
83310W        W54926  39.785  30.647   4.401
83311W        W54927  30.201  34.842   4.367
83312W        W54928  17.656  33.720   3.668
83313W        W54929  41.827  23.423   1.904
83314W        W54930  30.736  43.903   0.378
83315W        W54931  44.527   9.697   3.171
83316W        W54932  31.619   9.384   4.597
83317W        W54933  34.060   3.500  14.578
83318W        W54934  18.519   2.650   3.167
83319W        W54935  30.978  28.902  14.392
83320W        W54936  17.608   6.628  14.094
83321W        W54937  20.758  39.716   2.794
83322W        W54938  35.526   6.814   2.014
83323W        W54939  17.096  34.480   1.700
83324W        W54940   6.454  24.520   4.045
83325W        W54941   0.997  39.948   0.157
83326W        W54942  10.940  23.887  12.803
83327W        W54943  28.384  19.631   3.632
83328W        W54944  31.439   3.700  13.557
83329W        W54945  36.427  36.310   2.680
83330W        W54946   1.280   2.399   0.507
83331W        W54947  23.036   0.909   2.625
83332W        W54948  28.148   1.132   4.146
83333W        W54949  42.828  22.169   2.733
83334W        W54950  39.851  26.531   0.196
83335W        W54951  13.357  34.145  11.934
83336W        W54952  28.397   5.789   1.934
83337W        W54953  31.595   7.217  13.935
83338W        W54954  16.477  30.483  11.181
83339W        W54955  16.300  38.393  13.492
83340W        W54956   9.827  28.453  13.736
83341W        W54957  11.751  43.158   1.328
83342W        W54958  38.751  29.924  14.892
83343W        W54959  25.385  12.915  13.824
83344W        W54960  24.522  42.264  13.901
83345W        W54961  41.865  12.183  13.048
83346W        W54962   2.757  33.066   4.577
83347W        W54963  16.650  23.253  10.574
83348W        W54964   1.431  11.600   2.201
83349W        W54965   1.925  21.172   3.562
83350W        W54966   2.274  44.669   2.381
83351W        W54967  43.457  31.896  14.368
83352W        W54968   6.158  15.741   3.846
83353W        W54969  35.311  27.881   3.249
83354W        W54970   4.696  23.930  14.307
83355W        W54971  39.997  40.339   4.847
83356W        W54972   0.568  24.004  10.612
83357W        W54973  42.273  40.090   4.122
83358W        W54974  38.375  21.035   4.674
83359W        W54975   4.018  44.505   2.240
83360W        W54976  28.559  22.042  12.509
83361W        W54977  24.700  42.346   3.637
83362W        W54978  34.016   8.865   0.322
83363W        W54979  42.771  34.403  14.233
83364W        W54980  28.108  24.753   3.393
83365W        W54981   9.479  22.631  12.511
83366W        W54982  40.556   2.510  11.413
83367W        W54983  27.614  38.775  13.817
83368W        W54984   0.525  11.944  12.748
83369W        W54985   5.728  17.765   0.424
83370W        W54986  44.965  30.158   0.292
83371W        W54987  13.249  28.160  10.624
83372W        W54988  20.156  43.043  11.365
83373W        W54989   1.246  37.413  12.845
83374W        W54990   9.688  22.624   0.992
83375W        W54991  18.621  16.110  12.194
83376W        W54992   7.853  33.332  11.584
83377W        W54993  37.800   9.303  13.973
83378W        W54994  39.239  44.719   0.172
83379W        W54995   7.934   2.145   1.415
83380W        W54996   3.818  44.947  14.784
83381W        W54997  33.156  13.088   1.625
83382W        W54998  17.214   3.403   4.481
83383W        W54999  10.833  14.126   0.427
83384W        W55000  12.738   4.472  14.933
83385W        W55001   4.406  32.966  12.894
83386W        W55002   4.284  39.573   4.029
83387W        W55003  21.627   5.895  12.132
83388W        W55004  25.690   4.642  12.732
83389W        W55005  13.727  21.292  11.028
83390W        W55006  21.622  40.348  14.894
83391W        W55007  38.304   6.753  14.121
83392W        W55008  12.050  27.720   3.904
83393W        W55009  12.035  41.581  11.160
83394W        W55010  18.658  40.337  11.519
83395W        W55011   2.457  12.095   0.829
83396W        W55012  40.579  42.014   0.373
83397W        W55013  32.997  33.702  14.920
83398W        W55014  23.043  27.129   4.662
83399W        W55015  39.433  14.524   2.684
83400W        W55016  12.709  40.443  10.426
83401W        W55017  37.559  10.576   1.454
83402W        W55018  34.967  29.279   2.911
83403W        W55019   2.194  34.557  11.236
83404W        W55020  11.632  11.109   0.627
83405W        W55021  39.025  23.617   2.103
83406W        W55022  38.322  42.441  11.576
83407W        W55023  11.415   9.273   1.402
83408W        W55024  16.996  15.287  11.510
83409W        W55025  11.192  40.773   3.804
83410W        W55026  24.819   4.667  14.268
83411W        W55027   1.611  39.014   1.955
83412W        W55028  31.269  31.389   5.202
83413W        W55029   9.148   7.438   3.839
83414W        W55030  40.013  30.908   4.008
83415W        W55031  20.634  31.403  13.327
83416W        W55032   2.484   9.872   4.765
83417W        W55033  20.140  32.811  13.823
83418W        W55034  31.103   3.382   0.962
83419W        W55035  36.886  42.342   0.274
83420W        W55036   2.109   3.136   3.619
83421W        W55037  43.759  16.202   0.274
83422W        W55038  31.435  29.291  14.698
83423W        W55039  11.168  30.077  13.069
83424W        W55040  32.913  28.776  11.109
83425W        W55041  19.371  27.195   2.392
83426W        W55042  27.676  41.433  12.831
83427W        W55043   4.312  41.627  10.826
83428W        W55044  23.889  20.166  14.157
83429W        W55045  20.602  27.277  11.219
83430W        W55046  22.389  41.562  12.922
83431W        W55047  20.577  24.179   0.438
83432W        W55048  31.879  29.207   0.693
83433W        W55049  24.829  22.095  10.866
83434W        W55050  30.057  19.258  14.256
83435W        W55051  22.063  17.797   4.900
83436W        W55052  28.185   5.364  13.866
83437W        W55053   5.478  37.977  10.891
83438W        W55054  26.027  40.250  12.987
83439W        W55055  44.354  35.287   4.744
83440W        W55056  20.650   4.537  11.087
83441W        W55057  24.024  14.841   1.810
83442W        W55058  36.094  22.757  11.924
83443W        W55059   0.390  26.571  12.708
83444W        W55060  20.275  13.753  11.505
83445W        W55061  41.843  36.861   4.187
83446W        W55062  17.099  28.645   1.081
83447W        W55063  43.887  10.257   0.067
83448W        W55064   6.639  14.165  10.828
83449W        W55065  13.131   9.392  14.081
83450W        W55066  41.522  16.225  14.005
83451W        W55067   8.782  15.820  12.188
83452W        W55068   6.072  31.228   2.921
83453W        W55069  37.032  43.138   3.888
83454W        W55070  25.408  16.342   9.671
83455W        W55071  28.374  40.867   0.901
83456W        W55072  24.036  22.294  13.887
83457W        W55073   4.612  30.842  11.157
83458W        W55074  13.295  20.084   0.201
83459W        W55075  17.542  27.920  14.898
83460W        W55076  31.182  44.409   3.386
83461W        W55077  17.735  10.607   1.920
83462W        W55078  21.973  16.881   3.574
83463W        W55079  15.207   5.701  13.656
83464W        W55080  19.784  11.714  11.061
83465W        W55081  15.989  10.203   2.430
83466W        W55082  44.747  42.991   2.634
83467W        W55083  15.655  34.433  13.755
83468W        W55084   6.150  10.222  12.936
83469W        W55085  17.479   4.387   1.875
83470W        W55086  43.749   5.276  11.152
83471W        W55087   5.534  12.696   3.850
83472W        W55088  26.502  10.877   1.870
83473W        W55089  24.399  26.587  13.426
83474W        W55090  43.826  16.272   4.079
83475W        W55091  11.011  36.806   2.273
83476W        W55092  39.005  10.281   1.776
83477W        W55093  31.845  16.314   0.757
83478W        W55094  30.042   3.292  13.946
83479W        W55095  27.400  26.295  13.842
83480W        W55096  41.491  27.490   3.184
83481W        W55097  43.349  10.460   3.375
83482W        W55098  24.910   3.150   5.036
83483W        W55099  25.113  10.927   1.708
83484W        W55100  42.410  34.080  13.311
83485W        W55101   9.791  37.401   2.864
83486W        W55102  13.887  33.895  12.887
83487W        W55103  23.289   0.821  12.010
83488W        W55104  13.594  44.350   2.818
83489W        W55105  15.887  44.461   1.729
83490W        W55106   5.174   8.945   0.001
83491W        W55107  18.796  30.473   1.386
83492W        W55108   7.194   1.868  11.552
83493W        W55109  27.201  38.525  10.746
83494W        W55110   7.185  24.511  11.945
83495W        W55111  18.037  38.141   4.130
83496W        W55112   3.776  42.836   2.100
83497W        W55113  11.844   2.499  12.095
83498W        W55114   2.068   0.254  10.211
83499W        W55115  42.921  19.202   1.073
83500W        W55116  40.594   6.708   3.659
83501W        W55117  26.924   5.200  13.835
83502W        W55118  22.501  17.514   0.238
83503W        W55119  24.508  40.430   0.925
83504W        W55120   1.694  28.971  11.477
83505W        W55121  22.704   1.109   3.627
83506W        W55122  28.125  16.993  13.878
83507W        W55123  27.349  38.414  11.583
83508W        W55124  23.287   3.935  13.447
83509W        W55125  33.792  37.288   0.093
83510W        W55126  31.281  25.658   4.151
83511W        W55127  39.980  29.449   4.181
83512W        W55128  29.915  14.180  10.971
83513W        W55129  22.778  33.908   1.259
83514W        W55130  32.523  21.373  12.463
83515W        W55131  16.638  42.030  14.913
83516W        W55132  32.433   2.420   5.659
83517W        W55133  37.986   6.537  14.846
83518W        W55134  36.489  44.084  14.051
83519W        W55135   2.500  15.160  10.703
83520W        W55136  22.006  22.070   2.410
83521W        W55137  19.760   7.581  13.869
83522W        W55138  35.522  27.309  13.981
83523W        W55139  28.122  26.390  14.462
83524W        W55140  27.883  30.590  11.715
83525W        W55141  26.143  16.535  10.140
83526W        W55142  11.205   3.319  11.148
83527W        W55143   4.293  24.237   4.681
83528W        W55144  16.737  13.552   1.595
83529W        W55145  39.311   9.317  11.663
83530W        W55146  10.422   1.918  10.905
83531W        W55147  12.798  42.851  13.833
83532W        W55148  21.142   3.252   2.187
83533W        W55149   8.973   8.891  14.930
83534W        W55150  12.129  28.889  14.242
83535W        W55151  19.498  30.096  12.797
83536W        W55152  39.468   4.334   0.454
83537W        W55153  38.981  27.223   2.443
83538W        W55154  10.396  19.953   4.580
83539W        W55155   2.358  41.035  10.642
83540W        W55156  34.386   0.134  12.461
83541W        W55157  17.253  25.395  13.321
83542W        W55158  36.621   3.968   2.542
83543W        W55159   0.790  37.114  13.299
83544W        W55160  13.933  23.265  13.770
83545W        W55161   6.467  13.151   2.299
83546W        W55162  35.785  32.776   3.236
83547W        W55163  37.473  23.303  10.517
83548W        W55164   4.809  41.057  14.871
83549W        W55165  27.438  12.403   4.078
83550W        W55166  19.397  41.924  12.565
83551W        W55167  27.543  35.413  11.130
83552W        W55168  19.098  17.086   1.323
83553W        W55169  18.030   5.302  14.260
83554W        W55170  33.079  16.503   2.322
83555W        W55171  19.663  24.497  12.462
83556W        W55172   7.128   3.027   3.187
83557W        W55173  32.498  17.810   1.316
83558W        W55174  15.851  37.560  12.624
83559W        W55175  25.776  17.395  14.399
83560W        W55176  14.966  21.338  12.996
83561W        W55177  34.799  32.643   3.441
83562W        W55178  44.983  17.278   2.430
83563W        W55179  20.527  27.000   3.313
83564W        W55180   4.322  30.455  10.431
83565W        W55181   4.753  30.951   2.551
83566W        W55182   2.157  37.518   2.419
83567W        W55183  29.153  43.004   3.130
83568W        W55184  23.239  24.708   2.274
83569W        W55185  27.972   5.312  12.964
83570W        W55186   2.246  20.600   0.310
83571W        W55187  10.690  43.768   1.839
83572W        W55188  33.489  42.962   3.525
83573W        W55189   9.427  23.914  11.987
83574W        W55190   1.061  40.824  11.577
83575W        W55191  28.645  11.829   3.133
83576W        W55192  40.174  21.003   0.569
83577W        W55193  19.194   9.436   3.353
83578W        W55194  19.324  36.647   0.305
83579W        W55195   4.363  28.135  10.909
83580W        W55196  43.366  43.132   1.831
83581W        W55197  32.511  26.443  12.509
83582W        W55198   7.584   1.833   4.554
83583W        W55199   5.721  36.953   4.482
83584W        W55200  29.752  39.393   2.598
83585W        W55201   5.231  42.580   0.851
83586W        W55202  44.484   6.280   3.162
83587W        W55203   1.466   1.427  14.250
83588W        W55204  23.376  29.890  13.548
83589W        W55205   5.725  15.196   1.389
83590W        W55206   6.210   6.926  10.526
83591W        W55207  22.023  12.293   0.749
83592W        W55208  44.425   8.663   0.313
83593W        W55209   1.131  42.884   0.827
83594W        W55210  15.064   1.705   1.718
83595W        W55211   8.304  32.453   3.509
83596W        W55212  40.069  31.488  12.407
83597W        W55213   2.362   3.721  14.814
83598W        W55214  31.022  11.700   2.907
83599W        W55215  38.930  35.121  10.527
83600W        W55216  32.447  27.540   0.756
83601W        W55217  20.159  18.980  14.770
83602W        W55218  30.046  27.457  10.131
83603W        W55219   8.179  35.333   4.479
83604W        W55220  35.017   2.832  14.701
83605W        W55221  22.935   8.601  12.939
83606W        W55222  41.048  19.775   4.596
83607W        W55223  43.792  12.148  11.080
83608W        W55224  23.639  20.563  14.421
83609W        W55225  29.898  32.938  12.005
83610W        W55226  32.856  22.613   2.162
83611W        W55227  32.901  43.357  10.722
83612W        W55228  32.874  32.888  11.535
83613W        W55229  23.037  34.189  14.906
83614W        W55230  22.992  29.096   1.026
83615W        W55231  44.352  25.906   2.273
83616W        W55232  25.136  23.468  12.099
83617W        W55233  22.607  26.665   2.129
83618W        W55234  22.265  37.309   4.175
83619W        W55235  20.386  42.380   2.295
83620W        W55236  36.026  27.465  14.877
83621W        W55237  28.204   2.331   3.728
83622W        W55238  18.130  28.716  13.954
83623W        W55239  29.633   1.009   0.292
83624W        W55240   7.421  22.034   3.784
83625W        W55241   5.772   6.221  10.472
83626W        W55242  22.452  26.563  11.065
83627W        W55243   6.437  27.764   4.613
83628W        W55244  43.903  35.643  12.856
83629W        W55245   2.557   5.190  11.231
83630W        W55246   4.394  17.556   4.616
83631W        W55247  20.541   2.239  12.980
83632W        W55248   4.180  26.252  11.062
83633W        W55249  16.585  26.575   3.650
83634W        W55250   2.931  38.771  11.879
83635W        W55251  20.657  30.529   0.939
83636W        W55252  36.991  36.409   3.209
83637W        W55253  38.534   1.427  11.926
83638W        W55254  11.586  32.902   2.243
83639W        W55255  13.418   1.939   0.061
83640W        W55256   3.468  15.387   3.833
83641W        W55257   8.217   8.304  13.603
83642W        W55258   8.730  44.267  11.138
83643W        W55259  40.310   9.412  13.898
83644W        W55260   7.317  24.623  12.828
83645W        W55261   5.314  33.609   9.763
83646W        W55262  42.859  11.224  11.628
83647W        W55263  27.516  15.702  14.644
83648W        W55264   6.340  35.190   0.395
83649W        W55265  19.730  30.637   3.179
83650W        W55266  26.804  21.421  10.745
83651W        W55267  32.224  24.114   2.209
83652W        W55268  24.640  36.215   4.191
83653W        W55269   8.952   2.423   0.353
83654W        W55270   6.397  24.986  12.395
83655W        W55271  43.848  22.757   2.354
83656W        W55272  12.039  21.523  11.182
83657W        W55273   5.286  35.059  10.626
83658W        W55274   8.680  22.607   0.984
83659W        W55275   8.916   3.676   3.753
83660W        W55276  20.331   0.857   3.079
83661W        W55277  10.277  30.194  10.672
83662W        W55278  12.141  21.619   1.308
83663W        W55279   8.357  32.163   0.800
83664W        W55280  24.258   2.511   3.600
83665W        W55281  44.836  32.476  10.520
83666W        W55282  43.054  42.901   1.502
83667W        W55283  23.462   6.457   3.283
83668W        W55284  42.315  19.154   2.146
83669W        W55285  13.213  27.664   2.121
83670W        W55286  38.562   1.125  14.883
83671W        W55287  28.146  42.985  11.143
83672W        W55288  28.980  22.954   3.600
83673W        W55289  36.317  38.127  13.350
83674W        W55290  33.324  26.650  11.889
83675W        W55291  29.683   3.261   2.340
83676W        W55292   8.568   7.844  12.503
83677W        W55293  44.920  27.942  13.487
83678W        W55294  36.959  26.569  13.429
83679W        W55295  35.130  31.565   3.892
83680W        W55296  42.569  29.662   4.184
83681W        W55297  19.893  31.276  10.670
83682W        W55298  36.388   8.114   3.685
83683W        W55299  16.177  29.890   3.874
83684W        W55300  10.107   2.972   9.985
83685W        W55301  22.123   9.706   0.102
83686W        W55302  41.010   3.484  14.207
83687W        W55303   8.685  23.365   2.790
83688W        W55304  36.368  14.526   3.354
83689W        W55305  25.277  37.557  12.393
83690W        W55306  41.053  29.556  14.751
83691W        W55307   4.277   0.556   0.567
83692W        W55308  17.045  30.143  10.479
83693W        W55309  19.075  10.399   0.764
83694W        W55310  22.487   8.229  14.528
83695W        W55311  37.040  43.831  12.896
83696W        W55312  16.845  39.453  12.492
83697W        W55313  29.519  15.825   1.323
83698W        W55314  10.597  38.962  12.855
83699W        W55315  19.664  31.764  11.481
83700W        W55316  27.648  35.566   2.099
83701W        W55317  19.700  15.252  12.727
83702W        W55318  25.591  24.738  11.733
83703W        W55319  16.502  33.222  14.492
83704W        W55320  19.540   5.969   3.661
83705W        W55321  18.360  30.444  10.775
83706W        W55322   1.947  22.153  11.140
83707W        W55323  26.027  33.935   3.976
83708W        W55324  22.083  10.916   1.347
83709W        W55325  33.114   6.205  13.603
83710W        W55326  23.821  30.388   0.911
83711W        W55327  35.807  29.024   1.681
83712W        W55328  43.756  12.480  14.386
83713W        W55329  28.019  12.891   1.273
83714W        W55330  11.207  27.131   0.319
83715W        W55331  22.680  27.620   3.643
83716W        W55332  23.442  31.862  11.795
83717W        W55333  25.475  20.988   1.225
83718W        W55334   0.032  26.008   1.822
83719W        W55335  22.584  19.989  14.732
83720W        W55336   4.304   3.617  11.228
83721W        W55337   9.246  39.279  10.602
83722W        W55338  30.409  13.266  13.581
83723W        W55339  25.996  21.643   2.469
83724W        W55340  22.111  24.517   4.320
83725W        W55341  17.534  26.663  12.481
83726W        W55342   0.883  28.747  10.810
83727W        W55343  35.340  13.634   3.219
83728W        W55344  29.931  34.508  13.954
83729W        W55345   6.210  43.835  12.557
83730W        W55346  29.996   3.845   1.677
83731W        W55347  30.645   9.818  12.579
83732W        W55348  43.453  19.667   2.146
83733W        W55349  38.951   4.218  12.943
83734W        W55350  40.306   9.202   1.409
83735W        W55351   1.270  36.105  10.886
83736W        W55352  41.410  40.737   2.701
83737W        W55353  22.552  12.361   0.867
83738W        W55354  22.791  39.144   4.496
83739W        W55355   6.809  11.568  13.720
83740W        W55356  35.550  30.861   3.249
83741W        W55357  33.376  16.795  12.080
83742W        W55358  32.426   2.568  13.463
83743W        W55359  10.674   2.616   1.822
83744W        W55360   7.671  34.903  13.566
83745W        W55361  18.540  40.007   3.393
83746W        W55362   1.490  40.769   0.932
83747W        W55363   2.718  30.106  11.735
83748W        W55364  16.320  21.518   2.755
83749W        W55365   3.263  31.568   4.818
83750W        W55366  35.922   4.729   0.049
83751W        W55367  30.324  26.961  13.863
83752W        W55368  30.409  36.910   2.751
83753W        W55369  37.451  10.133   5.133
83754W        W55370  12.818  42.621   2.335
83755W        W55371   6.846  19.137   3.247
83756W        W55372  20.593   1.173  11.599
83757W        W55373  40.761  16.079   0.797
83758W        W55374   2.176  30.519   4.636
83759W        W55375  18.748  25.529  10.640
83760W        W55376   9.180  32.343   3.336
83761W        W55377  20.881  12.359   2.302
83762W        W55378   3.391  13.778  11.461
83763W        W55379  36.928  29.561  11.170
83764W        W55380  10.197   5.776  12.980
83765W        W55381   7.440  23.924  11.189
83766W        W55382  24.401  35.515  10.775
83767W        W55383  15.225  23.017   0.947
83768W        W55384  16.046   2.399  14.839
83769W        W55385  28.653   6.236   0.321
83770W        W55386  37.594  29.929   2.406
83771W        W55387  11.834  20.317   3.308
83772W        W55388  12.938  15.374  13.493
83773W        W55389   8.942   6.927  13.903
83774W        W55390  29.360  23.608  13.004
83775W        W55391  12.775  31.512  12.455
83776W        W55392  38.061   9.853  12.072
83777W        W55393  28.657  32.509  11.654
83778W        W55394  19.861  19.673   4.334
83779W        W55395  15.616  17.596  11.604
83780W        W55396  21.293  29.231  11.402
83781W        W55397  33.419  27.729   0.369
83782W        W55398   5.070  43.116  13.157
83783W        W55399   9.124  20.335  14.383
83784W        W55400  27.147  21.181   3.899
83785W        W55401  25.112  26.863   4.137
83786W        W55402  18.822  24.056  11.861
83787W        W55403   3.392   7.073  12.881
83788W        W55404  27.180   7.932  11.485
83789W        W55405  10.227  36.914  14.565
83790W        W55406  38.443  18.020   1.492
83791W        W55407  44.627  33.835  12.920
83792W        W55408  17.572  18.300  13.034
83793W        W55409  25.093  44.208   2.558
83794W        W55410   5.732  15.585   3.594
83795W        W55411  16.170  42.322  12.179
83796W        W55412  32.309  27.994   9.553
83797W        W55413  13.622  30.636  11.060
83798W        W55414   0.099  10.837  12.602
83799W        W55415  28.582  30.408  11.014
83800W        W55416  37.344  24.905  12.904
83801W        W55417  24.751  44.191  11.541
83802W        W55418   6.668  21.189  14.002
83803W        W55419   9.710  41.002  13.426
83804W        W55420  31.527  10.038  10.199
83805W        W55421   7.668  43.011  12.490
83806W        W55422   9.711  25.440  12.489
83807W        W55423  21.160  25.012   3.657
83808W        W55424  34.424  26.875   2.222
83809W        W55425  25.894   2.377  10.645
83810W        W55426  19.842   1.026   2.907
83811W        W55427  18.628   7.710  14.406
83812W        W55428  36.314  26.475   1.819
83813W        W55429  27.070  40.008   3.903
83814W        W55430   6.168  39.905   3.564
83815W        W55431  38.428  41.991   1.199
83816W        W55432  19.655  17.563   0.034
83817W        W55433  10.690  11.507  12.442
83818W        W55434  21.646   4.021  10.676
83819W        W55435  14.003  13.318   1.510
83820W        W55436  26.528  33.414   1.391
83821W        W55437  40.960   5.508  11.507
83822W        W55438  39.278  26.005   0.848
83823W        W55439   0.306  13.584  14.655
83824W        W55440  39.500   2.971   0.731
83825W        W55441  23.716  44.393  13.305
83826W        W55442  19.035  44.481   3.674
83827W        W55443  43.797  34.935  11.731
83828W        W55444  15.580   9.072  13.524
83829W        W55445  26.374  44.738   3.245
83830W        W55446  29.060   0.817   1.985
83831W        W55447  41.882  18.752  11.199
83832W        W55448  30.278  18.561  13.498
83833W        W55449   3.697  33.068   4.617
83834W        W55450  19.703   6.761  11.715
83835W        W55451  22.636   2.915   4.637
83836W        W55452  21.028  42.203  11.219
83837W        W55453  34.870  23.506  12.481
83838W        W55454  32.959  15.578   0.482
83839W        W55455  26.420   8.798  12.328
83840W        W55456  38.493  29.695  12.455
83841W        W55457  41.292  19.183  11.497
83842W        W55458  37.516   1.325   3.150
83843W        W55459  13.863  28.196  13.922
83844W        W55460  13.544  30.165  13.340
83845W        W55461   9.324  24.111  14.228
83846W        W55462   6.182  22.571  11.188
83847W        W55463  25.787  14.267   4.212
83848W        W55464  39.073   5.895   4.112
83849W        W55465  30.016  10.839   3.195
83850W        W55466  19.459  19.564   1.416
83851W        W55467  10.445  23.596  13.095
83852W        W55468  40.388  36.091   3.305
83853W        W55469  31.858  44.342   1.752
83854W        W55470  22.599  21.209   4.555
83855W        W55471  28.608  36.059  14.227
83856W        W55472  25.087  19.771   0.986
83857W        W55473   5.195  32.177   4.115
83858W        W55474  32.420  10.727   0.435
83859W        W55475  13.335  40.890   3.136
83860W        W55476  15.090   2.748  11.592
83861W        W55477  12.656   3.345   4.846
83862W        W55478  43.814  38.143   0.242
83863W        W55479  41.927  40.773  12.814
83864W        W55480  31.939  10.282   3.588
83865W        W55481  12.622  27.000   1.235
83866W        W55482  13.086  39.478   3.631
83867W        W55483   9.876   6.531   2.802
83868W        W55484  18.585  39.949  10.520
83869W        W55485  29.607  43.572  12.818
83870W        W55486  39.432  42.901  13.911
83871W        W55487  22.045   3.022   2.138
83872W        W55488  17.314  11.329   0.489
83873W        W55489  44.325   4.506  12.186
83874W        W55490  14.152  35.670  13.404
83875W        W55491  12.352   4.893   4.641
83876W        W55492   6.270   9.730  12.041
83877W        W55493  10.819  29.658   3.216
83878W        W55494   5.547  23.927  11.059
83879W        W55495  31.627   2.514   1.645
83880W        W55496   9.108  20.373  12.353
83881W        W55497  21.624  18.179  14.871
83882W        W55498  18.656  41.754  13.721
83883W        W55499  32.450  27.726   0.264
83884W        W55500  22.037  19.599  12.471
83885W        W55501  36.396  27.417  12.662
83886W        W55502   3.973  38.811  12.418
83887W        W55503  42.996  15.694  10.248
83888W        W55504   5.223  42.936  10.959
83889W        W55505  21.145  42.388   2.794
83890W        W55506   4.479   3.598  13.100
83891W        W55507  38.634  41.800   0.749
83892W        W55508  41.483   2.032   0.295
83893W        W55509  29.472  16.770  10.955
83894W        W55510  14.333  24.099  10.606
83895W        W55511  27.051  27.709  14.843
83896W        W55512  22.204  34.063   2.656
83897W        W55513  34.652  25.129  11.589
83898W        W55514  17.653  23.641  10.757
83899W        W55515  35.407  31.229   3.616
83900W        W55516  20.695  26.945   2.489
83901W        W55517   8.063   1.819  10.284
83902W        W55518   4.369   9.300   4.098
83903W        W55519   4.772  41.477   4.618
83904W        W55520   4.830  11.592  12.537
83905W        W55521  12.423  35.485   0.663
83906W        W55522  15.830  43.876   2.754
83907W        W55523  19.098  27.627  12.371
83908W        W55524  42.976  17.857  13.574
83909W        W55525  33.350   9.668   2.666
83910W        W55526  13.096   4.450  13.484
83911W        W55527  31.665   2.890   4.559
83912W        W55528   6.364  11.751   3.579
83913W        W55529  35.544   3.911  14.028
83914W        W55530  42.948   4.532  13.939
83915W        W55531  37.844  37.308   3.598
83916W        W55532   9.860   9.575   0.814
83917W        W55533  43.501   5.413  13.023
83918W        W55534  38.162  25.071  12.876
83919W        W55535  29.986  33.573   3.649
83920W        W55536  14.061  30.618  11.830
83921W        W55537  20.713  43.208  13.419
83922W        W55538  39.255  25.105  12.494
83923W        W55539   4.449  18.061   1.826
83924W        W55540  21.612  21.724  14.040
83925W        W55541  34.597   7.799  14.089
83926W        W55542  28.075   2.898  12.876
83927W        W55543  26.473  18.877   0.370
83928W        W55544   6.743  24.904  13.638
83929W        W55545   8.277  21.217   3.297
83930W        W55546   2.970   1.819   0.831
83931W        W55547  11.050   1.716  14.551
83932W        W55548   0.464  35.385  10.550
83933W        W55549  34.530  16.356  12.235
83934W        W55550  36.863  10.638   0.823
83935W        W55551  23.518  26.144   4.309
83936W        W55552   2.621  44.969   4.605
83937W        W55553  14.640  33.482  11.453
83938W        W55554  22.798  13.276   1.904
83939W        W55555  15.156  23.058  11.095
83940W        W55556  30.615  19.763  12.951
83941W        W55557  13.601  15.068  14.985
83942W        W55558  27.296  28.382   0.937
83943W        W55559  18.820  17.454  11.382
83944W        W55560   0.090   8.742  13.019
83945W        W55561  15.055  39.066   4.178
83946W        W55562   7.903  33.119  12.933
83947W        W55563  37.422  33.588   0.354
83948W        W55564   8.574   2.313  14.310
83949W        W55565  31.171  23.792   0.410
83950W        W55566   8.825   1.355   1.942
83951W        W55567  17.197  15.112  11.084
83952W        W55568  43.077  31.437   2.354
83953W        W55569  36.536  19.403  14.923
83954W        W55570  15.251  40.250  12.801
83955W        W55571  16.840  24.197   3.186
83956W        W55572  42.063  25.620   2.685
83957W        W55573  10.344  35.056   1.487
83958W        W55574  29.682   8.271  10.533
83959W        W55575  21.313  28.647   1.881
83960W        W55576  16.119   1.454  13.049
83961W        W55577  28.178  36.884  11.740
83962W        W55578   2.864  11.750   1.768
83963W        W55579  36.509  35.700   0.787
83964W        W55580  37.108  15.338   0.254
83965W        W55581  24.558   6.228   0.804
83966W        W55582  18.308   1.218  14.291
83967W        W55583  32.932  12.605   0.867
83968W        W55584  24.183  35.788  13.320
83969W        W55585  41.464  13.352   3.726
83970W        W55586  21.788  38.624   3.676
83971W        W55587  31.595  32.978  13.099
83972W        W55588  43.256  38.806   3.299
83973W        W55589  14.293   8.320  14.796
83974W        W55590  36.966  16.441  11.554
83975W        W55591  33.970  33.060   2.592
83976W        W55592  25.577  40.188  13.249
83977W        W55593  25.297   7.345  13.781
83978W        W55594  40.258   1.947  13.034
83979W        W55595   5.393  23.026  11.034
83980W        W55596  13.580  15.746   2.810
83981W        W55597  13.160  29.041   1.948
83982W        W55598  38.071  34.798  11.944
83983W        W55599  11.241   3.776   0.433
83984W        W55600  17.951  29.607   3.698
83985W        W55601  26.099  37.605   1.241
83986W        W55602  13.688  31.543   4.934
83987W        W55603  25.499  40.361  13.750
83988W        W55604   7.391  42.458  11.573
83989W        W55605  15.312  11.118  11.484
83990W        W55606  34.557   7.668  14.583
83991W        W55607   4.252  11.611  12.487
83992W        W55608  28.940   2.954  12.461
83993W        W55609  35.351  27.414   2.949
83994W        W55610  21.219  14.419  13.336
83995W        W55611  40.136  20.782  14.319
83996W        W55612  36.957  32.147   3.269
83997W        W55613  23.450  33.965  12.637
83998W        W55614  26.502  15.384  12.006
83999W        W55615   5.628  17.160  12.273
84000W        W55616   3.916  20.656  12.466
84001W        W55617  24.348  18.120  11.859
84002W        W55618  30.760   2.728   2.249
84003W        W55619  18.678  29.800   3.175
84004W        W55620  42.458  12.692  14.692
84005W        W55621   6.860   6.055   1.885
84006W        W55622  31.987  24.543   2.861
84007W        W55623  17.289  23.242  12.350
84008W        W55624  44.522  34.595  14.305
84009W        W55625   3.842  11.103  14.531
84010W        W55626   4.687   7.026   3.673
84011W        W55627  24.596  14.650   3.667
84012W        W55628  41.798  14.167   1.343
84013W        W55629  36.691  10.519   1.688
84014W        W55630  32.804   9.166  14.128
84015W        W55631   2.240  25.061   3.092
84016W        W55632  32.650  17.861   1.827
84017W        W55633  40.525  29.432   1.832
84018W        W55634  26.255  20.663  14.013
84019W        W55635  17.238  39.426   0.059
84020W        W55636   8.691  19.718  11.042
84021W        W55637  34.073   4.711   0.514
84022W        W55638   4.369   1.875  13.820
84023W        W55639  43.835   5.505   2.749
84024W        W55640   6.217  24.455   3.601
84025W        W55641  35.622  25.679  14.640
84026W        W55642  12.793  43.823   3.204
84027W        W55643  38.203  16.630   3.711
84028W        W55644  25.255  20.035   3.285
84029W        W55645  34.053   8.069   1.333
84030W        W55646  15.574  34.716  11.919
84031W        W55647  17.783  23.951   1.360
84032W        W55648   3.244  32.162   1.825
84033W        W55649  26.610  43.923  14.666
84034W        W55650  40.555  18.415   2.262
84035W        W55651  39.128  10.563  13.045
84036W        W55652   5.272   2.337   4.246
84037W        W55653  10.349  33.051  10.968
84038W        W55654   1.879   3.256   3.153
84039W        W55655  28.181  35.974  12.385
84040W        W55656  14.835  40.052  13.956
84041W        W55657  40.024  14.838   3.262
84042W        W55658   2.875   6.157   2.296
84043W        W55659  24.455  35.898   1.874
84044W        W55660  42.734  24.822  12.496
84045W        W55661  42.781  27.429  12.063
84046W        W55662  11.750   2.537  14.238
84047W        W55663  43.976  19.737   3.820
84048W        W55664  31.386  38.072   4.721
84049W        W55665  37.470  43.011   1.614
84050W        W55666  11.139  27.069  13.989
84051W        W55667   3.207   2.216   0.314
84052W        W55668  19.049  20.129  13.986
84053W        W55669  32.410  37.428  12.195
84054W        W55670  18.616   6.472  13.848
84055W        W55671  37.287  37.413  12.989
84056W        W55672  36.546  17.263  12.581
84057W        W55673  10.596  18.072  13.986
84058W        W55674  41.278   3.311   5.034
84059W        W55675  26.103   0.557  13.949
84060W        W55676  15.691  26.243   0.464
84061W        W55677  12.311  29.280  14.544
84062W        W55678  30.574  42.779  13.722
84063W        W55679  24.001  34.346   3.315
84064W        W55680  41.555  17.308  14.150
84065W        W55681  28.389  15.772   3.696
84066W        W55682  23.859  37.086   2.833
84067W        W55683   8.992  25.116  12.938
84068W        W55684  35.035  41.478   3.244
84069W        W55685  26.762  19.930   1.719
84070W        W55686   3.903  43.192   3.940
84071W        W55687  26.046  14.585  13.511
84072W        W55688  43.107  21.511  13.922
84073W        W55689   9.161  11.233   2.692
84074W        W55690  43.299  30.068  10.583
84075W        W55691  21.146  14.613   0.387
84076W        W55692  25.024  26.966   1.260
84077W        W55693  30.458  29.488   0.980
84078W        W55694   0.840   1.694   2.330
84079W        W55695  26.125  10.106  13.822
84080W        W55696  42.915  38.333   0.856
84081W        W55697  41.068  25.098   3.823
84082W        W55698  44.009  32.683   4.167
84083W        W55699  41.071  23.818  14.471
84084W        W55700  42.694   8.709  13.749
84085W        W55701  24.626  14.854   2.239
84086W        W55702  32.380  40.235   2.749
84087W        W55703  29.368  22.892  14.018
84088W        W55704  18.659   9.320  14.520
84089W        W55705  28.146  31.961   3.632
84090W        W55706  14.471  21.761   4.527
84091W        W55707   9.372  30.110   3.344
84092W        W55708   3.456   8.683  14.409
84093W        W55709  38.556  39.546   0.059
84094W        W55710  17.629  40.990   0.186
84095W        W55711  13.936  33.965  13.898
84096W        W55712   0.058  13.912  12.135
84097W        W55713  33.615   3.701   2.378
84098W        W55714  10.144  27.133  13.649
84099W        W55715  13.845  40.805   4.431
84100W        W55716  10.821  21.845   4.601
84101W        W55717  18.996   8.277  11.054
84102W        W55718  21.621  35.385  10.881
84103W        W55719  10.698  19.066  10.532
84104W        W55720   4.416  12.317  14.529
84105W        W55721   3.593  43.082   4.650
84106W        W55722   1.364  37.828  11.715
84107W        W55723  35.920   0.415   1.770
84108W        W55724   7.306  35.291   0.847
84109W        W55725   8.498   9.456   2.139
84110W        W55726  32.466   3.173  11.608
84111W        W55727  35.412  28.660  11.398
84112W        W55728  14.841   6.696   0.404
84113W        W55729  29.563  44.361   1.309
84114W        W55730   0.007   9.800  11.417
84115W        W55731   2.488  26.182   2.279
84116W        W55732   7.109  20.670  12.835
84117W        W55733  26.909  16.317   4.145
84118W        W55734  31.843  18.319   3.909
84119W        W55735  14.826   7.028  10.950
84120W        W55736  38.888   8.432  14.869
84121W        W55737  21.228  29.427  14.954
84122W        W55738   9.830   6.929  12.957
84123W        W55739  10.005  12.704   4.125
84124W        W55740  32.455   4.683  11.583
84125W        W55741  36.001  21.960   2.983
84126W        W55742  25.075  34.661   4.525
84127W        W55743   8.395  18.782  11.885
84128W        W55744   2.288  10.377   4.824
84129W        W55745  11.354  26.232   2.075
84130W        W55746   4.430  42.683   4.133
84131W        W55747  15.640  18.063   5.662
84132W        W55748  19.500  21.304  12.085
84133W        W55749  20.963  23.231  14.404
84134W        W55750  43.794   2.869   0.606
84135W        W55751  44.338  38.021   4.163
84136W        W55752  25.064  30.644  14.252
84137W        W55753  19.337   0.958   2.804
84138W        W55754  28.897  14.825   0.202
84139W        W55755  10.689  14.081  12.929
84140W        W55756  39.944  10.297  11.126
84141W        W55757  22.291   6.587   2.347
84142W        W55758   4.315  30.561  13.356
84143W        W55759  16.726  34.525   0.311
84144W        W55760  23.727   5.193  12.004
84145W        W55761  31.501   5.805  13.983
84146W        W55762  38.397  18.110  10.791
84147W        W55763  24.997  32.583  13.447
84148W        W55764  34.934  25.704   4.253
84149W        W55765  41.690  12.329  12.469
84150W        W55766  42.263   5.021  12.905
84151W        W55767   6.676   6.722  10.770
84152W        W55768   9.327  36.848  10.604
84153W        W55769   3.021  24.554   4.762
84154W        W55770  12.967  21.577   3.652
84155W        W55771   3.399  26.909   3.301
84156W        W55772  33.088  19.237  11.694
84157W        W55773  44.493  11.499  11.892
84158W        W55774  10.531  23.919   1.276
84159W        W55775  12.296  36.839   2.311
84160W        W55776   7.853  19.521  14.391
84161W        W55777   1.006  37.398   1.007
84162W        W55778   0.469  38.015  11.151
84163W        W55779  11.913  19.936   2.872
84164W        W55780  17.627  32.174   3.691
84165W        W55781  40.266  32.258   9.918
84166W        W55782  32.311  23.547  10.358
84167W        W55783  42.245   8.794  10.608
84168W        W55784  10.768  43.465  11.386
84169W        W55785  11.965   2.057   1.266
84170W        W55786  18.371  16.162  12.653
84171W        W55787  19.623  20.456   3.675
84172W        W55788  10.389   1.768  11.912
84173W        W55789  28.626   3.202  12.813
84174W        W55790  37.984   7.513  12.408
84175W        W55791  36.106  22.265  11.148
84176W        W55792  25.033  28.568   2.893
84177W        W55793  18.268  16.869  11.934
84178W        W55794   5.584  22.341   0.835
84179W        W55795   6.191   8.339  14.660
84180W        W55796   5.446  38.587   3.182
84181W        W55797  23.644   8.717   0.131
84182W        W55798   5.368  38.403  14.427
84183W        W55799   0.689  16.703  12.935
84184W        W55800   1.976  20.197  11.203
84185W        W55801  15.635  32.627  10.685
84186W        W55802  20.579  21.750   2.751
84187W        W55803  24.782  28.575   1.902
84188W        W55804  15.895  14.385   3.234
84189W        W55805  13.325   9.903   2.758
84190W        W55806   3.329  35.976   1.693
84191W        W55807  22.003  25.271  10.719
84192W        W55808  20.708  33.481  13.404
84193W        W55809  20.125  16.421   3.837
84194W        W55810  33.567  43.367   4.342
84195W        W55811   0.209  43.195  12.972
84196W        W55812  31.574  42.021   1.762
84197W        W55813  27.725  43.218  12.933
84198W        W55814  10.099  20.576   1.460
84199W        W55815  38.971  27.105  12.602
84200W        W55816  29.405  37.589  12.021
84201W        W55817  20.926  29.951   3.146
84202W        W55818  11.385  41.314   0.523
84203W        W55819   8.594   2.859   0.484
84204W        W55820  43.496  40.296  13.994
84205W        W55821  36.205   3.494  14.289
84206W        W55822   3.420  35.021   0.786
84207W        W55823  43.049  29.135   0.999
84208W        W55824  37.249   2.893  13.197
84209W        W55825  42.373  29.054   2.175
84210W        W55826  10.097  24.243   4.981
84211W        W55827   3.298  13.308  10.593
84212W        W55828  37.657  11.395   3.606
84213W        W55829  28.435  25.512  11.171
84214W        W55830  27.661   9.899  12.540
84215W        W55831  33.621   8.827   3.099
84216W        W55832   2.890  24.081   2.829
84217W        W55833   9.753  14.541  14.035
84218W        W55834  40.844  19.614  10.790
84219W        W55835  44.805  26.172  12.123
84220W        W55836  34.436  37.527   2.200
84221W        W55837   6.592   5.896   4.544
84222W        W55838  39.896  18.032  12.445
84223W        W55839  42.554   4.402   4.290
84224W        W55840  31.452  23.181   1.583
84225W        W55841  14.666  40.448  11.070
84226W        W55842  24.704   2.151   4.227
84227W        W55843  38.952  44.688   4.703
84228W        W55844  29.314   0.790  11.402
84229W        W55845   0.527  20.774   0.916
84230W        W55846  39.257   3.322   0.395
84231W        W55847  14.477  21.586  13.260
84232W        W55848  36.768  35.399  12.115
84233W        W55849   4.905  28.978   0.666
84234W        W55850   9.818  14.329  11.852
84235W        W55851  30.987  26.464   5.075
84236W        W55852  27.580   6.386  10.882
84237W        W55853  27.228  24.164  12.869
84238W        W55854  12.721  32.425   3.722
84239W        W55855  44.768  22.745  10.813
84240W        W55856  31.519  32.877   3.765
84241W        W55857   0.069   3.324   4.062
84242W        W55858  34.631  11.651  11.527
84243W        W55859  25.953  37.003  10.701
84244W        W55860  11.814  10.796  10.557
84245W        W55861   0.182  24.626   1.785
84246W        W55862  24.510   6.828   2.547
84247W        W55863  10.289   2.276   1.692
84248W        W55864   3.295  27.906  13.823
84249W        W55865   8.336   0.515  11.094
84250W        W55866  30.957  40.769  10.782
84251W        W55867  44.182   7.387  12.459
84252W        W55868   4.173   7.028   3.440
84253W        W55869  42.419  40.881   1.208
84254W        W55870  14.327  20.626   0.750
84255W        W55871   2.734  29.438   0.868
84256W        W55872  13.253  39.052   2.116
84257W        W55873  30.038  44.156  11.481
84258W        W55874   6.372   0.763   1.022
84259W        W55875  12.555  19.338  11.427
84260W        W55876  36.480  35.001   1.398
84261W        W55877  20.547   5.473  12.595
84262W        W55878   6.409  41.008   0.273
84263W        W55879   1.832   6.373   1.513
84264W        W55880  43.271   0.847   0.909
84265W        W55881  18.254  42.520  11.148
84266W        W55882  29.226  14.288  11.562
84267W        W55883  20.169  12.463  12.135
84268W        W55884   1.209  38.591  12.006
84269W        W55885  11.308  11.512   4.876
84270W        W55886  31.156  13.044  12.878
84271W        W55887  38.591  37.904  13.055
84272W        W55888  36.114   9.297   0.360
84273W        W55889  27.679  22.574  11.693
84274W        W55890  27.075  43.478   2.955
84275W        W55891   9.489  13.265   4.690
84276W        W55892  15.156  13.332  14.703
84277W        W55893  35.315   0.860  14.811
84278W        W55894  32.677  24.676  12.163
84279W        W55895  22.375   0.760   4.982
84280W        W55896   8.734  33.697  10.689
84281W        W55897   9.852  27.165   2.108
84282W        W55898  28.967  36.660  11.132
84283W        W55899  13.706  35.939   4.190
84284W        W55900   9.879  17.099   4.688
84285W        W55901  39.785   6.444  13.495
84286W        W55902  38.461  39.750   2.404
84287W        W55903  19.251   2.330   2.154
84288W        W55904  42.890  12.242  11.597
84289W        W55905  40.304   8.811  11.927
84290W        W55906  11.951  38.466   1.366
84291W        W55907  29.368   5.406   0.306
84292W        W55908  32.471  43.292  11.993
84293W        W55909  30.915  30.403   0.468
84294W        W55910  16.599   8.691  13.088
84295W        W55911  16.839  39.392  10.877
84296W        W55912  32.862  14.752  13.061
84297W        W55913  41.846  26.528   0.046
84298W        W55914   3.520  20.944  14.256
84299W        W55915  18.337  11.632   3.190
84300W        W55916   1.222  34.000  13.046
84301W        W55917  28.443  11.779  10.681
84302W        W55918  41.412  33.578  13.670
84303W        W55919  14.119  12.779  13.789
84304W        W55920  38.115  22.736  11.564
84305W        W55921  25.586  19.382   9.979
84306W        W55922  39.752  27.308  14.741
84307W        W55923  32.635  35.019  13.796
84308W        W55924  27.104  43.359   1.979
84309W        W55925  38.826  35.690   1.684
84310W        W55926  31.003  33.646   0.821
84311W        W55927  26.745  35.947   1.951
84312W        W55928   9.333  36.033   1.263
84313W        W55929  30.021  26.430   1.444
84314W        W55930  33.094  43.444  11.181
84315W        W55931  13.240  44.934   3.089
84316W        W55932  17.316  40.986  13.314
84317W        W55933  14.656  20.626   0.238
84318W        W55934  16.267  35.012  13.382
84319W        W55935   8.647  39.566   0.116
84320W        W55936  41.849  27.873   3.197
84321W        W55937   6.153  30.538   5.001
84322W        W55938  29.510  30.397  14.533
84323W        W55939  31.043  23.159  12.421
84324W        W55940  38.418   8.490  14.303
84325W        W55941  13.286  11.241   4.606
84326W        W55942  23.956   8.255   4.385
84327W        W55943  19.050  20.147  11.981
84328W        W55944   8.384   8.157   3.592
84329W        W55945  30.680  17.983   1.112
84330W        W55946  20.493   1.658  13.048
84331W        W55947   7.471  29.688   3.658
84332W        W55948   4.283  41.598   4.777
84333W        W55949  21.043  24.487   5.043
84334W        W55950  11.321   0.921   3.903
84335W        W55951  15.569  17.780   4.715
84336W        W55952  25.101  38.472  14.432
84337W        W55953  41.877  27.927   1.821
84338W        W55954   4.209  22.748   4.648
84339W        W55955  22.071   3.799   0.468
84340W        W55956  24.879  38.634  11.566
84341W        W55957   5.943  43.665  12.985
84342W        W55958  27.007  38.259  12.144
84343W        W55959  26.685  32.201   1.790
84344W        W55960  21.650  30.881  12.661
84345W        W55961  30.097   4.065   0.191
84346W        W55962  33.084  41.510   0.898
84347W        W55963  28.769   9.103   1.371
84348W        W55964  10.074  28.360  14.857
84349W        W55965  14.213  29.187  12.856
84350W        W55966   9.097  11.200   2.178
84351W        W55967  40.932  21.316   2.349
84352W        W55968  42.988  36.435   2.870
84353W        W55969  40.483  38.579   3.054
84354W        W55970  21.060  12.284   0.971
84355W        W55971  16.540   4.770   1.069
84356W        W55972  39.293  31.944   0.270
84357W        W55973  44.248  30.631   0.457
84358W        W55974  44.663  39.845  13.480
84359W        W55975  27.223  37.247   4.211
84360W        W55976  34.600   2.889   3.806
84361W        W55977   7.059   3.203  13.461
84362W        W55978  25.057  36.930  12.322
84363W        W55979  23.818  15.708  14.446
84364W        W55980  36.334  24.032   3.845
84365W        W55981   9.260  11.234   4.551
84366W        W55982   1.791  12.683   0.211
84367W        W55983  32.400  19.768  10.429
84368W        W55984  36.801  19.199  14.501
84369W        W55985  38.459   9.674  14.834
84370W        W55986  22.364  21.946  14.007
84371W        W55987  11.911   1.888   1.822
84372W        W55988  15.002  41.503   2.693
84373W        W55989  44.235   3.890   1.089
84374W        W55990  10.060  15.104  12.938
84375W        W55991  16.838  18.300  14.407
84376W        W55992  18.177  43.369  11.136
84377W        W55993  41.508  15.185  12.496
84378W        W55994   1.152  22.693   1.832
84379W        W55995  23.096   1.375  11.407
84380W        W55996  33.632  18.106  11.501
84381W        W55997   5.186  32.178   2.759
84382W        W55998  12.874  43.900  12.538
84383W        W55999   4.607  30.832  12.392
84384W        W56000  33.915   8.066  13.580
84385W        W56001  24.515  17.625   1.731
84386W        W56002  33.922  19.079   0.846
84387W        W56003  38.573  22.101   2.898
84388W        W56004  12.343  43.941  12.568
84389W        W56005  30.400  23.101   4.743
84390W        W56006  11.742  16.998  10.665
84391W        W56007  12.951  38.277   3.677
84392W        W56008  38.596  20.977  13.761
84393W        W56009   7.325  32.212  11.165
84394W        W56010  26.906  10.572   4.584
84395W        W56011  33.538  33.098   4.980
84396W        W56012  16.892   2.550  14.417
84397W        W56013   8.887  24.560   1.868
84398W        W56014  34.190  16.860  11.503
84399W        W56015  18.731   3.805  14.477
84400W        W56016   5.489  10.980  11.958
84401W        W56017  39.893   6.390   0.442
84402W        W56018   0.308   0.373   2.697
84403W        W56019  42.209  10.576   3.313
84404W        W56020  29.409  31.236  14.196
84405W        W56021  16.909  32.423   0.778
84406W        W56022  12.829  20.168  11.339
84407W        W56023  19.904  10.205   2.862
84408W        W56024  20.205  41.165   2.676
84409W        W56025  16.539   5.516  14.568
84410W        W56026  41.051   7.826  12.129
84411W        W56027  33.019  20.986   0.816
84412W        W56028   2.944   9.773  12.860
84413W        W56029  21.914   1.825  12.090
84414W        W56030  27.518  15.856   1.887
84415W        W56031  36.872  21.340  14.000
84416W        W56032  32.354  43.911  11.702
84417W        W56033   9.106  12.651  10.634
84418W        W56034  21.649  35.503  11.403
84419W        W56035  32.175  36.522  12.541
84420W        W56036   2.243  18.535  13.796
84421W        W56037  36.415  41.044   1.372
84422W        W56038  32.352  17.392  12.335
84423W        W56039  13.823  14.602   1.453
84424W        W56040  29.464  11.588   4.495
84425W        W56041  35.519   5.702   2.377
84426W        W56042  38.956  13.639  10.598
84427W        W56043  34.259   8.090   4.321
84428W        W56044  13.174  28.526  11.814
84429W        W56045  40.600  17.900   4.525
84430W        W56046  35.785   2.938   3.821
84431W        W56047  36.041  43.859   1.216
84432W        W56048  31.396   3.306   3.382
84433W        W56049   2.693  24.906  11.011
84434W        W56050  13.501  34.019  14.206
84435W        W56051  11.189  25.775   2.300
84436W        W56052  13.753   7.476   4.268
84437W        W56053  25.746  32.935   2.241
84438W        W56054  25.209  41.890  11.820
84439W        W56055   9.840   0.095   0.485
84440W        W56056  12.920  28.803   0.000
84441W        W56057  12.666   4.847   3.274
84442W        W56058   5.280  15.240   2.305
84443W        W56059  21.728  39.939   4.725
84444W        W56060  19.756  30.571  12.982
84445W        W56061  23.968   6.008  14.932
84446W        W56062   0.905  21.070   1.743
84447W        W56063  24.010  27.578   2.856
84448W        W56064  38.098  14.045   3.772
84449W        W56065   4.812  32.902  12.037
84450W        W56066   4.714   3.531   4.183
84451W        W56067   2.336  38.780   1.514
84452W        W56068   6.621  29.463  10.635
84453W        W56069  20.418   8.571  12.863
84454W        W56070   7.872  27.943  13.054
84455W        W56071  18.941  40.236   3.622
84456W        W56072  16.558   7.745  14.943
84457W        W56073  18.231  37.868   1.935
84458W        W56074  37.103  38.031   2.398
84459W        W56075  31.178   9.745   3.776
84460W        W56076  15.202  14.700   4.543
84461W        W56077   5.375  10.870   1.805
84462W        W56078  42.711  29.534  13.612
84463W        W56079  37.131  15.498  11.155
84464W        W56080  30.511  12.729  12.913
84465W        W56081   9.355   3.244   0.231
84466W        W56082  11.675  32.634   2.689
84467W        W56083  43.804  18.950  12.974
84468W        W56084  27.528  29.450  11.140
84469W        W56085  22.617   0.438  13.316
84470W        W56086   4.707  26.749   0.594
84471W        W56087  12.351  42.566   3.289
84472W        W56088   5.485  40.958  13.167
84473W        W56089  32.013  32.377  12.565
84474W        W56090   7.085  24.866  11.051
84475W        W56091  17.225   5.383   4.824
84476W        W56092  11.761   7.732   1.108
84477W        W56093  25.253  32.445   0.510
84478W        W56094  14.713  11.374   2.356
84479W        W56095  35.574   2.865   0.397
84480W        W56096  44.054  33.120   4.431
84481W        W56097   3.890  26.418   1.220
84482W        W56098  10.147   1.211   1.842
84483W        W56099  21.245  11.015   3.634
84484W        W56100  24.090  37.569   4.508
84485W        W56101  19.588   7.040  12.599
84486W        W56102  25.478  20.707   0.802
84487W        W56103   1.424  25.052   4.407
84488W        W56104  38.407  11.645  11.143
84489W        W56105  34.525  12.180  14.514
84490W        W56106  40.443   9.634  11.475
84491W        W56107  26.198  37.302  10.350
84492W        W56108  35.313  21.467  12.038
84493W        W56109   1.185  43.346  12.134
84494W        W56110  13.558  29.025  10.761
84495W        W56111  18.845  36.706  11.993
84496W        W56112  29.887  18.686  11.512
84497W        W56113  19.777  22.667   3.636
84498W        W56114  42.635  35.525   4.924
84499W        W56115  30.355  25.190  11.100
84500W        W56116   4.948  11.283  13.544
84501W        W56117  41.034  14.500  13.525
84502W        W56118  44.942  10.178  10.543
84503W        W56119  29.008   4.025  12.350
84504W        W56120   0.974  19.628  11.626
84505W        W56121  15.839  25.147  13.637
84506W        W56122  16.994  28.466  13.486
84507W        W56123   0.931  44.803   2.229
84508W        W56124  17.820  27.396  13.834
84509W        W56125  26.579  32.178   0.329
84510W        W56126  20.823  32.419  12.405
84511W        W56127  40.391  37.438  13.819
84512W        W56128  23.182   5.711   3.654
84513W        W56129  41.922  16.450   3.585
84514W        W56130  18.480  21.622   1.748
84515W        W56131  10.318  27.023   2.935
84516W        W56132  15.188  41.993  13.168
84517W        W56133  31.950  14.620  11.592
84518W        W56134  15.618  13.604  12.473
84519W        W56135  34.544   2.973  10.966
84520W        W56136  14.081  36.355  14.214
84521W        W56137   8.574  36.013   0.550
84522W        W56138  40.146  35.443  11.089
84523W        W56139   4.427   5.616   0.418
84524W        W56140   7.636  18.166  12.619
84525W        W56141  17.814  17.331  13.277
84526W        W56142  13.883  41.849  13.739
84527W        W56143  32.676  40.806  14.249
84528W        W56144   9.824  11.349  11.954
84529W        W56145  42.859  41.987   1.618
84530W        W56146  32.348  31.964  13.981
84531W        W56147  31.638   3.571  14.023
84532W        W56148  39.981  17.691   2.775
84533W        W56149   3.346  39.571   1.856
84534W        W56150  35.948   9.653   4.110
84535W        W56151  10.159  36.112   0.262
84536W        W56152  25.609  18.299   4.141
84537W        W56153   2.360  23.055  11.262
84538W        W56154  21.700  21.818   0.527
84539W        W56155  24.106  18.667  12.521
84540W        W56156  37.819  24.674  12.878
84541W        W56157  35.498  10.753  12.790
84542W        W56158  28.429  14.289   2.269
84543W        W56159  34.509  42.981  12.599
84544W        W56160  44.517   2.180   2.082
84545W        W56161  17.076  20.747  12.188
84546W        W56162  10.678  36.375   0.390
84547W        W56163  24.471  18.942  14.160
84548W        W56164  26.085  20.713   1.662
84549W        W56165   5.353  23.684  11.864
84550W        W56166  10.829  18.577   1.693
84551W        W56167  30.086  11.864  14.274
84552W        W56168  30.840  33.140   0.910
84553W        W56169   0.055   6.376  13.096
84554W        W56170  36.846  33.606  14.844
84555W        W56171  44.727  43.382  12.930
84556W        W56172  37.744  15.261   0.018
84557W        W56173   8.656   5.881   2.399
84558W        W56174  16.652  35.043  14.542
84559W        W56175  22.780   5.299   1.325
84560W        W56176  20.076  18.619   0.144
84561W        W56177  10.864  17.230   4.450
84562W        W56178  36.116  24.970   4.109
84563W        W56179  24.375  25.393   0.421
84564W        W56180  15.482  39.516   2.760
84565W        W56181  33.639  39.925   2.932
84566W        W56182  23.033   5.407   4.912
84567W        W56183  11.502  20.833  12.457
84568W        W56184  14.294  43.526   2.121
84569W        W56185  34.227  37.264  11.319
84570W        W56186  26.990  33.495  13.461
84571W        W56187  17.119  35.392   3.701
84572W        W56188  20.536  43.257   0.960
84573W        W56189  21.118   3.236   1.255
84574W        W56190  27.060  32.409   4.548
84575W        W56191   4.847  41.620   5.101
84576W        W56192   9.929  36.024  10.040
84577W        W56193  21.750  12.374   3.271
84578W        W56194  21.104  28.117   3.219
84579W        W56195  37.063  26.087  11.254
84580W        W56196  39.308  35.053  13.539
84581W        W56197  24.659  27.793   3.061
84582W        W56198   0.398  10.466   1.866
84583W        W56199   7.277  40.895  14.852
84584W        W56200  43.225   9.686  12.061
84585W        W56201  37.417  20.689   3.350
84586W        W56202  40.813  25.194  12.514
84587W        W56203   1.880  33.235  11.150
84588W        W56204  30.401   4.740  10.712
84589W        W56205  23.508  37.499  12.450
84590W        W56206  27.707  14.814   2.124
84591W        W56207  43.916   4.462  10.768
84592W        W56208  27.458  17.734  11.513
84593W        W56209  18.189   1.345  10.730
84594W        W56210  42.950  31.491   1.333
84595W        W56211  14.090  13.719  12.509
84596W        W56212  34.097   4.122  11.473
84597W        W56213  22.177  38.378   3.402
84598W        W56214  10.148   8.418  14.866
84599W        W56215  10.106   5.416  10.741
84600W        W56216  14.564   6.857   0.908
84601W        W56217  27.911  42.072   4.125
84602W        W56218  31.824  43.856   2.063
84603W        W56219   4.212  25.857   3.882
84604W        W56220  30.561   0.824   4.505
84605W        W56221  20.319   9.758  11.182
84606W        W56222  12.936  39.001  10.744
84607W        W56223   7.437   1.949   3.733
84608W        W56224  26.106  25.428   4.406
84609W        W56225  33.857  32.148   2.678
84610W        W56226  19.915  43.020   0.374
84611W        W56227  23.463   9.697  13.132
84612W        W56228  10.496  22.588   2.192
84613W        W56229  39.190  13.191   9.756
84614W        W56230  31.203  28.869  10.367
84615W        W56231   5.190  10.394   1.633
84616W        W56232   8.589   3.517   4.144
84617W        W56233   3.281  19.735   2.148
84618W        W56234  44.623  35.271   5.184
84619W        W56235  30.481  18.958  14.964
84620W        W56236   3.826  40.843  11.693
84621W        W56237  13.002  41.035  12.568
84622W        W56238  13.756  12.835   0.466
84623W        W56239  19.134  10.906   3.448
84624W        W56240  10.735  12.226  12.418
84625W        W56241  17.312  37.957  13.456
84626W        W56242  24.187  15.612  12.517
84627W        W56243  17.221  25.966   2.074
84628W        W56244  30.007  13.656  12.979
84629W        W56245   2.408   9.806  12.072
84630W        W56246  35.036  39.349   2.640
84631W        W56247  42.868   8.382  13.058
84632W        W56248   2.191  25.118   0.322
84633W        W56249  15.176  36.430   4.734
84634W        W56250  26.013  30.918  14.379
84635W        W56251  35.525   6.212  13.161
84636W        W56252  17.988  32.410   0.831
84637W        W56253   2.279  39.735   0.515
84638W        W56254  39.932  15.838   1.716
84639W        W56255  32.133  25.081  12.878
84640W        W56256  37.811  23.950   1.355
84641W        W56257   7.500  19.061  12.426
84642W        W56258  28.511  22.231   3.188
84643W        W56259  39.490  24.614  12.570
84644W        W56260   4.377  14.014   1.824
84645W        W56261  39.075   7.323  12.799
84646W        W56262  22.507  33.179  14.152
84647W        W56263  28.606   4.668  10.900
84648W        W56264  42.799  30.045  10.724
84649W        W56265  34.523  27.683   3.810
84650W        W56266  24.228  34.090   4.603
84651W        W56267  35.408  36.073  11.062
84652W        W56268  23.291  17.261   0.345
84653W        W56269  10.216  31.504  13.903
84654W        W56270  41.910  22.818  11.155
84655W        W56271  30.853   3.166   1.820
84656W        W56272  30.671   0.455  10.427
84657W        W56273  28.076   7.707   3.495
84658W        W56274  32.896  14.171  11.599
84659W        W56275  13.986  23.009   4.122
84660W        W56276  11.536  22.093   0.874
84661W        W56277  13.205  33.501  11.758
84662W        W56278  33.434  42.215   0.362
84663W        W56279   3.879  31.958  14.439
84664W        W56280  22.434  12.796  14.145
84665W        W56281  32.641  41.984   0.335
84666W        W56282   5.753  16.067  13.186
84667W        W56283   1.938   5.790  11.283
84668W        W56284  29.079  14.025   0.065
84669W        W56285  15.562  12.011  11.612
84670W        W56286  17.637  10.145   4.797
84671W        W56287  28.906  21.267   2.754
84672W        W56288  22.416  11.895   0.661
84673W        W56289  44.768  10.693  11.171
84674W        W56290   6.422  41.019   2.937
84675W        W56291  29.699  26.673  12.586
84676W        W56292   1.034  15.388   5.008
84677W        W56293   1.267  30.419   2.325
84678W        W56294   1.545   6.098  11.140
84679W        W56295   6.644  44.018  11.408
84680W        W56296  15.154  29.250   1.207
84681W        W56297  23.624   1.230  12.101
84682W        W56298  25.576  36.267   2.664
84683W        W56299  38.914  33.500  12.259
84684W        W56300  28.266  11.543   1.774
84685W        W56301  15.040  18.716  11.688
84686W        W56302  18.822  12.284   1.949
84687W        W56303  14.920   7.761  12.910
84688W        W56304  40.716  12.933   3.638
84689W        W56305  30.094   7.951   0.829
84690W        W56306  26.210  19.798  14.025
84691W        W56307   3.543  24.537  11.561
84692W        W56308  37.996  26.390  14.791
84693W        W56309  13.152  30.816   4.361
84694W        W56310  16.103  27.068  13.282
84695W        W56311   9.129  34.911   0.922
84696W        W56312  32.283  41.592  12.561
84697W        W56313  12.273  27.091   1.618
84698W        W56314  11.852  30.672  12.907
84699W        W56315  19.784  40.844   2.657
84700W        W56316  40.822   4.239   3.807
84701W        W56317  14.240  41.263  14.451
84702W        W56318  35.779  22.498   1.913
84703W        W56319  16.564  22.210   0.679
84704W        W56320  14.784  11.811  14.471
84705W        W56321  13.527  17.280   0.087
84706W        W56322   9.852  31.140   4.100
84707W        W56323  12.532   9.814  13.324
84708W        W56324  38.741  16.309   4.581
84709W        W56325  13.586  32.045   2.189
84710W        W56326  31.480  29.649   3.178
84711W        W56327  19.098  27.407   4.513
84712W        W56328  39.200  12.606   4.590
84713W        W56329  12.247   2.277  11.487
84714W        W56330   7.739  32.832  14.408
84715W        W56331  22.212  13.698   0.796
84716W        W56332  26.005  26.645   0.912
84717W        W56333  35.597  22.069   2.671
84718W        W56334  10.237   6.343   3.127
84719W        W56335  32.443  19.243   3.333
84720W        W56336   4.907  33.681  13.408
84721W        W56337  19.919  43.402   4.168
84722W        W56338  22.225  33.766  14.005
84723W        W56339   8.881  22.560  12.114
84724W        W56340   5.263  22.027  11.068
84725W        W56341   3.800   8.743   0.001
84726W        W56342   8.236  42.891   0.704
84727W        W56343   4.190  12.596  12.214
84728W        W56344  34.321  10.114   1.651
84729W        W56345  19.589  13.111  11.418
84730W        W56346  10.916  17.571   0.320
84731W        W56347  39.713   5.226   4.048
84732W        W56348  11.793  28.278   3.557
84733W        W56349  17.834  27.511   1.788
84734W        W56350  13.721  22.822  12.120
84735W        W56351  15.612  29.074  10.787
84736W        W56352  13.545  25.846   2.369
84737W        W56353  33.203  20.937   3.604
84738W        W56354  24.678  25.529  11.511
84739W        W56355  35.317  30.648   4.258
84740W        W56356   7.730  40.528  14.261
84741W        W56357  24.007  42.545   3.214
84742W        W56358   1.344   5.428   3.389
84743W        W56359  25.213  22.735  13.881
84744W        W56360  31.105  11.372   0.959
84745W        W56361  37.223  29.161  14.355
84746W        W56362  13.774  16.206   1.118
84747W        W56363  10.943  44.736   1.929
84748W        W56364  31.043   4.176   3.662
84749W        W56365  44.215  32.938   3.752
84750W        W56366  25.716  13.698   5.083
84751W        W56367  44.188  40.635  11.558
84752W        W56368  41.947   9.876  12.565
84753W        W56369  32.902  44.411   2.819
84754W        W56370  34.013  24.700   3.282
84755W        W56371  33.831   3.936   0.507
84756W        W56372  27.068  19.693  11.218
84757W        W56373  17.320   0.172  13.250
84758W        W56374  28.177  13.148   1.719
84759W        W56375   3.744  34.609   0.133
84760W        W56376  42.799  38.327  11.271
84761W        W56377  16.055  44.367  14.914
84762W        W56378  33.359  19.297   3.200
84763W        W56379  39.825  30.070   1.784
84764W        W56380   5.205  22.219  10.589
84765W        W56381  39.524  25.593   2.874
84766W        W56382   8.788  37.801   4.464
84767W        W56383  34.514  22.795  11.001
84768W        W56384  18.346  12.231  11.184
84769W        W56385   3.323  38.884   3.699
84770W        W56386  41.114   6.068  13.837
84771W        W56387   8.053  25.537  13.826
84772W        W56388  34.745   0.607   0.784
84773W        W56389  38.444  44.939   4.590
84774W        W56390   2.233  11.598  14.984
84775W        W56391  38.070  43.274  11.387
84776W        W56392   7.055  28.094  12.803
84777W        W56393  26.097  39.000   4.195
84778W        W56394  22.502  11.283  14.867
84779W        W56395  26.029  30.563   1.036
84780W        W56396   0.294  13.080   4.832
84781W        W56397  22.019  12.779   0.971
84782W        W56398  37.554   9.901  11.917
84783W        W56399  23.915  13.575  12.913
84784W        W56400   4.687  13.365  14.518
84785W        W56401  20.540  31.880   2.183
84786W        W56402   3.773   7.144   4.873
84787W        W56403  41.368   0.967  13.393
84788W        W56404  10.895  33.394   0.856
84789W        W56405  27.533   2.336   1.360
84790W        W56406   4.154  31.058  11.157
84791W        W56407   4.392  38.628   2.630
84792W        W56408   7.988  10.318  13.113
84793W        W56409   3.186  42.829   3.893
84794W        W56410  31.718  16.781   4.118
84795W        W56411   2.513   9.683   1.031
84796W        W56412  23.957  32.520   1.291
84797W        W56413  22.921   9.695   0.680
84798W        W56414  41.935  18.994  10.734
84799W        W56415  26.576  25.312  13.558
84800W        W56416  38.319  15.400   4.795
84801W        W56417   9.242  36.656  13.862
84802W        W56418  33.931   7.712   1.981
84803W        W56419  30.375  35.849  14.392
84804W        W56420  34.568  33.052  11.526
84805W        W56421  42.904  37.573   2.048
84806W        W56422  24.121  38.381  13.299
84807W        W56423  24.104  12.639  12.873
84808W        W56424  11.473  39.031   0.840
84809W        W56425  38.013  24.232  14.517
84810W        W56426  37.447  21.618   1.582
84811W        W56427  44.383  25.731   4.151
84812W        W56428  31.216  33.902   1.242
84813W        W56429  29.632   2.182   3.602
84814W        W56430  41.375  27.202   4.538
84815W        W56431  37.457  30.376   4.812
84816W        W56432   0.208  42.503  10.474
84817W        W56433   2.247   2.941   4.550
84818W        W56434  44.115  33.478  11.489
84819W        W56435  41.920  36.328  12.844
84820W        W56436  18.666  36.605  14.117
84821W        W56437  11.678  31.844  11.916
84822W        W56438  43.844  26.397  12.406
84823W        W56439  12.802  24.996  12.050
84824W        W56440  38.051  11.561   1.880
84825W        W56441  35.417   2.389  11.190
84826W        W56442   4.468  26.997  13.431
84827W        W56443  43.818  40.112  10.930
84828W        W56444  29.483  26.445   2.774
84829W        W56445  44.950  18.142   0.910
84830W        W56446  43.814   2.860   3.807
84831W        W56447  29.043  36.906  13.905
84832W        W56448  44.500   4.938  14.448
84833W        W56449   6.896  22.529  13.475
84834W        W56450  35.466   7.771   4.036
84835W        W56451  11.083  24.568  11.084
84836W        W56452   8.383   0.260   3.234
84837W        W56453  31.191  39.440  12.942
84838W        W56454  24.209  40.970  10.413
84839W        W56455  32.536   1.935   5.000
84840W        W56456  28.477  39.966  11.044
84841W        W56457  42.258  21.107  12.460
84842W        W56458  26.534  29.458  11.583
84843W        W56459  40.479   8.669  11.375
84844W        W56460   3.958  10.832  12.079
84845W        W56461  38.748  39.886  13.878
84846W        W56462  41.533  12.629  11.200
84847W        W56463  19.274  14.413   2.098
84848W        W56464  11.747  44.473  12.432
84849W        W56465  11.707  42.623   5.052
84850W        W56466  29.417   9.680   3.326
84851W        W56467  28.649  14.766   3.321
84852W        W56468  19.578   7.234   1.822
84853W        W56469  35.842  31.973  10.759
84854W        W56470  43.678  20.676  12.096
84855W        W56471  23.059  31.855   4.929
84856W        W56472  36.119  21.162  13.499
84857W        W56473   8.322  16.152   1.656
84858W        W56474   1.651   4.026  13.825
84859W        W56475  43.312  33.811  14.321
84860W        W56476   5.383  13.358   0.105
84861W        W56477  44.962   3.497   2.699
84862W        W56478  16.196  25.276   1.055
84863W        W56479  25.858  37.360   4.197
84864W        W56480  25.268   3.937  12.070
84865W        W56481  42.963  22.718   0.324
84866W        W56482  14.404  14.637  14.907
84867W        W56483   4.203   8.385   1.679
84868W        W56484  13.103   8.662  12.497
84869W        W56485  42.806  29.502   4.662
84870W        W56486  26.832   4.713  11.188
84871W        W56487   5.136  43.805   4.595
84872W        W56488  23.025   8.390  12.473
84873W        W56489  37.043  11.722  12.882
84874W        W56490  28.630  28.589   4.620
84875W        W56491   0.480  23.302   1.743
84876W        W56492   5.198   3.708   4.622
84877W        W56493   1.869  22.491  10.633
84878W        W56494  39.283  26.478   2.271
84879W        W56495   3.292  19.593  11.150
84880W        W56496  21.997  35.085  11.050
84881W        W56497   0.462  31.143   4.633
84882W        W56498   5.366  42.059  12.427
84883W        W56499  38.466  40.855  14.300
84884W        W56500  12.786  28.132  12.960
84885W        W56501  42.775  19.767   3.234
84886W        W56502  10.279  35.141   0.498
84887W        W56503  14.168   2.258   3.704
84888W        W56504   5.736  34.424   3.862
84889W        W56505  28.627  35.584   4.463
84890W        W56506   1.617   4.534  12.066
84891W        W56507  35.030  35.457   5.256
84892W        W56508  20.052  32.610  14.384
84893W        W56509  25.068  22.341   3.623
84894W        W56510  44.372  26.455   0.487
84895W        W56511  29.671  20.521   3.145
84896W        W56512   4.233  17.576  11.677
84897W        W56513  29.528   2.717   1.807
84898W        W56514   2.822   9.071   4.504
84899W        W56515  17.069  35.399   4.232
84900W        W56516  37.004  26.420  13.952
84901W        W56517  32.423  20.685  14.619
84902W        W56518  41.118  26.667  11.673
84903W        W56519  17.061  44.338   2.810
84904W        W56520   4.702  23.174   0.291
84905W        W56521   2.182  38.927  11.534
84906W        W56522  10.356  29.416  14.887
84907W        W56523   0.667  37.517   0.624
84908W        W56524  24.495  19.920   1.848
84909W        W56525  34.966   7.837  10.375
84910W        W56526  10.751   7.898   2.431
84911W        W56527  34.330  20.963   0.389
84912W        W56528  18.773   9.146  10.674
84913W        W56529  34.978  26.460  11.556
84914W        W56530  33.463  17.577  12.002
84915W        W56531  15.580  14.518   1.683
84916W        W56532  26.567  35.914  10.476
84917W        W56533   0.055  28.060   3.172
84918W        W56534  38.067  29.870  11.636
84919W        W56535  22.170  22.904  13.298
84920W        W56536  15.348  29.176  13.521
84921W        W56537   3.300  38.916   0.052
84922W        W56538  35.841  20.277   0.935
84923W        W56539  13.241   9.322  13.573
84924W        W56540  21.998  43.805   3.123
84925W        W56541  31.427   9.744   4.230
84926W        W56542  25.703   3.264  14.523
84927W        W56543  13.866  11.165  12.069
84928W        W56544  40.307   4.323  11.233
84929W        W56545   8.966  24.980  14.920
84930W        W56546  41.592  38.408   2.654
84931W        W56547  34.687  42.722  13.682
84932W        W56548  39.325   9.264  12.597
84933W        W56549   0.470  16.327   1.705
84934W        W56550   8.191  25.585   1.899
84935W        W56551   7.785   1.231  14.002
84936W        W56552  17.735  10.155  14.762
84937W        W56553   3.949  24.182   0.684
84938W        W56554  16.367  14.784   2.112
84939W        W56555   9.783  32.481  13.791
84940W        W56556  39.617  22.794   3.347
84941W        W56557  26.149  43.291  10.514
84942W        W56558  26.237   9.270  13.064
84943W        W56559   8.163   1.250   3.303
84944W        W56560  43.238  10.403   0.857
84945W        W56561  41.058  30.484  14.967
84946W        W56562   9.262  33.118  11.516
84947W        W56563  12.668   3.736   0.706
84948W        W56564  40.010  20.298   1.273
84949W        W56565  44.966   4.720   4.152
84950W        W56566   0.570  39.894  12.957
84951W        W56567  36.459   2.048   1.425
84952W        W56568  40.278   6.951   3.346
84953W        W56569  38.410  30.363   2.716
84954W        W56570  40.422   4.720   1.496
84955W        W56571  27.559  33.188  13.047
84956W        W56572  30.961  40.927   1.384
84957W        W56573  19.959  37.992  11.532
84958W        W56574  27.372  34.339  13.965
84959W        W56575  17.901   8.786   4.212
84960W        W56576  34.819  19.657   2.470
84961W        W56577  33.493  33.479   4.169
84962W        W56578  35.627  39.568  11.971
84963W        W56579  29.041   3.635  14.321
84964W        W56580  33.113  17.012   2.346
84965W        W56581  26.925  33.312  11.943
84966W        W56582   3.822   0.611   4.772
84967W        W56583  20.010  10.173   0.856
84968W        W56584  41.897  31.831   3.607
84969W        W56585   3.768  37.370  12.727
84970W        W56586  10.637  12.310   3.036
84971W        W56587  11.841  25.416   4.143
84972W        W56588  23.067  20.775  10.776
84973W        W56589  32.717   7.459  13.894
84974W        W56590  40.613   1.767  14.390
84975W        W56591  11.011  16.180   1.154
84976W        W56592  13.903   2.530  13.029
84977W        W56593   8.600  17.791  14.065
84978W        W56594  24.717  19.542  12.031
84979W        W56595  17.322  38.506   2.705
84980W        W56596   0.555  28.048   1.250
84981W        W56597  40.959  11.046   3.609
84982W        W56598  16.234  28.618  11.958
84983W        W56599  28.618  28.353   4.119
84984W        W56600  32.030  18.014   1.485
84985W        W56601  12.940  31.869  11.201
84986W        W56602  31.029  36.285  13.467
84987W        W56603  29.055  44.308   2.919
84988W        W56604   4.940  12.203   4.426
84989W        W56605  43.702   3.962  14.324
84990W        W56606  25.217  32.915  12.518
84991W        W56607  35.509  18.487   4.256
84992W        W56608  30.930  38.043  14.893
84993W        W56609  19.643  44.648  12.463
84994W        W56610  24.703  14.178  10.585
84995W        W56611  18.062  44.723  12.010
84996W        W56612  19.155  10.595   2.464
84997W        W56613  40.397  28.545   4.314
84998W        W56614   2.782  26.454  11.033
84999W        W56615  44.998  25.242   2.398
85000W        W56616  33.568  34.416   3.703
85001W        W56617  44.999   6.185   0.499
85002W        W56618  37.651  14.663   2.715
85003W        W56619  14.243  36.502  13.375
85004W        W56620   6.106   3.455   3.834
85005W        W56621  33.693  20.803  14.769
85006W        W56622  34.044  30.946   0.058
85007W        W56623  33.694  25.851   0.300
85008W        W56624  22.633  42.017  14.374
85009W        W56625  17.050  14.345   3.808
85010W        W56626  27.338  39.621  14.021
85011W        W56627  11.064  40.469   2.226
85012W        W56628  15.221  13.796   2.808
85013W        W56629   8.103  11.597  12.634
85014W        W56630  43.997   9.240   0.468
85015W        W56631  39.931  19.656  11.938
85016W        W56632   4.821  28.385   2.352
85017W        W56633  29.528  43.762  14.355
85018W        W56634  15.089   2.416   2.115
85019W        W56635  40.558  18.749  11.944
85020W        W56636   9.345  39.622  12.371
85021W        W56637  39.190  31.128   0.103
85022W        W56638  10.213  10.397  14.777
85023W        W56639  29.011  18.841  10.431
85024W        W56640  38.340  25.180  14.544
85025W        W56641  37.249  23.560  11.995
85026W        W56642  37.097   1.529  14.716
85027W        W56643  30.612   6.162  13.910
85028W        W56644  13.278   3.730  11.927
85029W        W56645   2.475  35.898  11.187
85030W        W56646   8.614   9.357   0.775
85031W        W56647  16.213  20.189   1.918
85032W        W56648  12.084  37.074  14.045
85033W        W56649  33.364  42.911   4.565
85034W        W56650  38.456  22.574  13.527
85035W        W56651  43.920  17.216   1.139
85036W        W56652  42.258  37.529  10.238
85037W        W56653  15.228  20.888  12.929
85038W        W56654   1.850  28.676   2.269
85039W        W56655  20.699  19.035  13.535
85040W        W56656   4.199   2.518   0.297
85041W        W56657  29.355  30.457   0.426
85042W        W56658  20.597  27.794   1.221
85043W        W56659  41.312  25.921   1.396
85044W        W56660  12.116   3.344   1.678
85045W        W56661   4.147   7.925  12.818
85046W        W56662  17.240  43.950   5.213
85047W        W56663  20.473  10.557  12.005
85048W        W56664  44.448   7.365   2.794
85049W        W56665  12.806  16.727   2.430
85050W        W56666  11.200  33.131   0.426
85051W        W56667   4.992  18.590  11.573
85052W        W56668  32.064   5.708   3.654
85053W        W56669  43.877  25.629   2.230
85054W        W56670  38.631  24.419   4.698
85055W        W56671  29.601   4.471   1.404
85056W        W56672  17.671  41.870   0.240
85057W        W56673  26.572  36.318   3.193
85058W        W56674  28.485  10.360   0.937
85059W        W56675  42.363  31.251  10.944
85060W        W56676  34.344   8.695   1.579
85061W        W56677   5.370  17.518   2.871
85062W        W56678  24.546  40.346   3.690
85063W        W56679  30.077  12.123   2.844
85064W        W56680  28.087  43.277   4.695
85065W        W56681  21.492   6.008  13.735
85066W        W56682  24.380  20.341  13.948
85067W        W56683  16.152  42.189  10.847
85068W        W56684  16.699  44.742   2.637
85069W        W56685  11.621  19.414   4.209
85070W        W56686   6.253  37.436   0.511
85071W        W56687  12.687  39.901  11.213
85072W        W56688  35.409  44.591  11.555
85073W        W56689  16.553   2.383  14.913
85074W        W56690  14.688  39.352  13.337
85075W        W56691  26.636  43.283   1.786
85076W        W56692  36.501  44.373  12.383
85077W        W56693  30.541   0.181  12.023
85078W        W56694  20.109  18.434  13.901
85079W        W56695  37.426  43.796   2.165
85080W        W56696   0.177  21.771   0.714
85081W        W56697  38.789  35.959   0.044
85082W        W56698  32.987   3.557   2.781
85083W        W56699  26.564  16.270  10.909
85084W        W56700  36.623  22.321  11.116
85085W        W56701  17.450   4.684   4.634
85086W        W56702  37.728  17.835   2.451
85087W        W56703  34.012  36.382  13.547
85088W        W56704  10.213  11.640   0.764
85089W        W56705  36.445   4.667   4.496
85090W        W56706   7.320  19.516  12.605
85091W        W56707  15.881  10.217   5.010
85092W        W56708  33.932  21.310   2.217
85093W        W56709  35.435  31.701   0.307
85094W        W56710  17.189   0.452   3.338
85095W        W56711   8.344   4.826   0.405
85096W        W56712  18.839  17.585   3.108
85097W        W56713   4.458  14.640   0.358
85098W        W56714   3.400  26.137   2.348
85099W        W56715   8.868  17.918   4.151
85100W        W56716  25.091  10.400  11.973
85101W        W56717  29.982  15.198   0.785
85102W        W56718  14.926  15.830  11.200
85103W        W56719  44.954  18.721   1.602
85104W        W56720  13.624   4.401   0.397
85105W        W56721  32.463   3.031   0.742
85106W        W56722  35.991  25.895   3.145
85107W        W56723   4.272  23.706   5.443
85108W        W56724  24.055   6.787   1.740
85109W        W56725   2.967   1.479  11.917
85110W        W56726  24.213  35.471   2.040
85111W        W56727   9.703  22.789   2.309
85112W        W56728  23.752   0.832   0.317
85113W        W56729  41.972  42.122   0.316
85114W        W56730  40.438   2.482   0.931
85115W        W56731  35.116  44.483  12.535
85116W        W56732   9.586  29.272   3.802
85117W        W56733  31.635  31.139   2.178
85118W        W56734  32.056  22.269  12.399
85119W        W56735  42.082   1.404  13.026
85120W        W56736   5.225  12.223   2.622
85121W        W56737  18.756   6.148   4.801
85122W        W56738  22.516  34.728   0.286
85123W        W56739   6.321   9.822   2.171
85124W        W56740  32.500   5.455   1.880
85125W        W56741  37.363  36.313  13.429
85126W        W56742   7.173  14.852   2.738
85127W        W56743   7.217  12.021   0.727
85128W        W56744   1.062  13.201  11.257
85129W        W56745  16.361  12.633   4.123
85130W        W56746  20.661  23.966   4.146
85131W        W56747  24.015   3.499  13.312
85132W        W56748   8.705   0.391   4.146
85133W        W56749  25.379  44.612   0.816
85134W        W56750  22.650  35.855   4.830
85135W        W56751  16.989  38.459   0.470
85136W        W56752  20.618  13.414   3.087
85137W        W56753  16.592  38.803   0.360
85138W        W56754  10.138  25.531   0.409
85139W        W56755  23.665  35.561  11.657
85140W        W56756  11.736  36.941   5.021
85141W        W56757   5.197  19.334  10.953
85142W        W56758  10.880  16.588  13.971
85143W        W56759  25.140  24.221   3.320
85144W        W56760  35.884  25.406  13.486
85145W        W56761   7.704  19.722  12.940
85146W        W56762  38.592   0.842  14.445
85147W        W56763  25.186   0.049  10.499
85148W        W56764  23.701  16.394   3.658
85149W        W56765   1.907  25.172   4.150
85150W        W56766  42.955  17.516  11.030
85151W        W56767  26.023   2.548   3.377
85152W        W56768  18.219  33.333  14.513
85153W        W56769   7.187   0.026  13.356
85154W        W56770  41.361  26.011  14.971
85155W        W56771  39.083  26.704  11.669
85156W        W56772  30.968  22.650   2.179
85157W        W56773  43.018  35.826  14.916
85158W        W56774  31.039  36.929   3.382
85159W        W56775   5.299   9.908   1.768
85160W        W56776   3.568  25.087  13.580
85161W        W56777  16.984  44.452  11.935
85162W        W56778  40.964  15.278  10.706
85163W        W56779  10.819  37.393  14.355
85164W        W56780  36.048  44.872  12.080
85165W        W56781   2.314  42.872   5.088
85166W        W56782  34.591  43.712  11.132
85167W        W56783  12.670  34.122   4.831
85168W        W56784   3.112  35.504   1.728
85169W        W56785  15.784   7.484   1.859
85170W        W56786  41.804   9.413   3.677
85171W        W56787   3.410   9.207  11.158
85172W        W56788   7.238  31.535   4.110
85173W        W56789   7.903   7.926   4.204
85174W        W56790  26.148  20.514   2.169
85175W        W56791  44.983  36.077  11.515
85176W        W56792   8.624  12.165   2.258
85177W        W56793   4.203  17.113  12.935
85178W        W56794  37.658  14.273  12.400
85179W        W56795  44.642  21.684  13.755
85180W        W56796  21.714  27.185  14.311
85181W        W56797  21.544  30.732  13.130
85182W        W56798  14.122  24.926  10.864
85183W        W56799  25.280   8.143  14.058
85184W        W56800  24.046  42.400  12.049
85185W        W56801   5.837   2.011   3.113
85186W        W56802  14.242  24.230  12.127
85187W        W56803  30.041  35.629   3.254
85188W        W56804  30.785  41.796   2.294
85189W        W56805  31.417   0.306  12.560
85190W        W56806   0.316  29.769  13.506
85191W        W56807   6.244  28.202  10.280
85192W        W56808   4.172  18.592   4.106
85193W        W56809   7.355   9.801  13.429
85194W        W56810  11.252  44.896   3.338
85195W        W56811  39.036  10.335  12.592
85196W        W56812  16.800  24.379   1.447
85197W        W56813  10.730  43.292  13.948
85198W        W56814  20.653   4.302   3.863
85199W        W56815   3.853  44.318  13.950
85200W        W56816  14.581  17.795   3.129
85201W        W56817  40.050  26.437   1.886
85202W        W56818  14.313  44.519  13.054
85203W        W56819   5.426  26.317  11.342
85204W        W56820  10.621   1.977  13.400
85205W        W56821  14.242  10.885   4.112
85206W        W56822   1.937  34.858  11.878
85207W        W56823  29.182  19.786  13.884
85208W        W56824   0.099  43.003  10.317
85209W        W56825  24.622   4.911  11.543
85210W        W56826  31.233  34.079   3.661
85211W        W56827  43.904  30.824   3.846
85212W        W56828  14.330  39.117  12.994
85213W        W56829  30.973   5.911   4.797
85214W        W56830  16.587  40.561   3.656
85215W        W56831   2.941  11.281  11.142
85216W        W56832  37.535  22.178  14.468
85217W        W56833  29.414  28.992  12.878
85218W        W56834   3.132  12.187   1.665
85219W        W56835  21.061  37.122  13.993
85220W        W56836  27.121  38.900  11.580
85221W        W56837  12.351  41.870   1.487
85222W        W56838  42.744  28.703  13.728
85223W        W56839  33.618  43.939   1.863
85224W        W56840  17.023   3.082  10.161
85225W        W56841  39.746  10.882   1.887
85226W        W56842  23.209  11.770   3.312
85227W        W56843   8.105  22.596  11.646
85228W        W56844  36.633   1.800   1.907
85229W        W56845  29.609  39.398  14.897
85230W        W56846  34.994  35.407  11.571
85231W        W56847  32.198  41.018  12.005
85232W        W56848  23.231  15.620   3.706
85233W        W56849   4.368  22.854  12.868
85234W        W56850  34.175   6.419   1.444
85235W        W56851   1.455  10.599   0.110
85236W        W56852   3.019  41.412  11.171
85237W        W56853   6.123  34.569  11.478
85238W        W56854   9.843  25.010  10.564
85239W        W56855  26.497  16.304  14.890
85240W        W56856  30.538   1.997  11.886
85241W        W56857   3.438   7.315   0.887
85242W        W56858  42.283  24.556  12.432
85243W        W56859  22.769  26.909  11.307
85244W        W56860  32.455   0.006   1.110
85245W        W56861   6.929   6.178   3.632
85246W        W56862  40.596  29.249  13.124
85247W        W56863  40.979  14.657   0.852
85248W        W56864  33.080   3.135   4.166
85249W        W56865  22.356  40.873   1.000
85250W        W56866  36.495   5.412  13.573
85251W        W56867  19.510  13.968   2.833
85252W        W56868  26.592  33.287   4.561
85253W        W56869  31.490  39.056   3.157
85254W        W56870  39.504  26.127  14.512
85255W        W56871   3.852  23.830  14.234
85256W        W56872  38.756  15.215  12.012
85257W        W56873  15.317  37.214   1.820
85258W        W56874  44.745   7.708   0.347
85259W        W56875  15.574  23.533   4.665
85260W        W56876  31.467  24.211   3.455
85261W        W56877  31.995  36.568   1.411
85262W        W56878  15.098  19.552   0.772
85263W        W56879  33.116  31.877  14.895
85264W        W56880  19.161  12.765  10.685
85265W        W56881  24.632  23.765   2.482
85266W        W56882  37.413  13.836   5.616
85267W        W56883  13.352  35.296   4.573
85268W        W56884  21.806  16.846   1.684
85269W        W56885  13.600  14.271  13.307
85270W        W56886   5.795  21.229  14.333
85271W        W56887  23.861  21.234  11.744
85272W        W56888  42.947  35.178   9.650
85273W        W56889  29.656  19.605  13.819
85274W        W56890  26.245   8.372   4.196
85275W        W56891  12.508  21.171   0.291
85276W        W56892  35.854  26.453  13.505
85277W        W56893   9.683  10.321  12.703
85278W        W56894  29.305  38.366   3.810
85279W        W56895   2.898  20.897  14.892
85280W        W56896  41.289  17.291  14.926
85281W        W56897  11.685  23.705  14.428
85282W        W56898  30.623  35.086  14.918
85283W        W56899  17.110  17.079   5.455
85284W        W56900  14.315  40.777  14.305
85285W        W56901  14.554  13.764  12.702
85286W        W56902  12.712  10.750   4.051
85287W        W56903  20.675  14.051  11.357
85288W        W56904  22.561  27.766   1.926
85289W        W56905  39.508  18.089   2.728
85290W        W56906  27.951  38.433   1.673
85291W        W56907   3.930   8.446   2.791
85292W        W56908  26.474  11.340  11.461
85293W        W56909  41.305  35.861   1.692
85294W        W56910   1.378  25.519  14.606
85295W        W56911  25.205  16.297   1.939
85296W        W56912   1.850   0.356  13.142
85297W        W56913  40.535  12.809  11.088
85298W        W56914  19.293  17.747  14.483
85299W        W56915  10.870  16.582   0.825
85300W        W56916  22.652  14.919  13.884
85301W        W56917   6.309  15.836   0.939
85302W        W56918   5.930  40.334   4.177
85303W        W56919  10.857   1.739  11.616
85304W        W56920   4.314  17.612  13.000
85305W        W56921  14.625  21.729  13.774
85306W        W56922   0.436   1.993   0.760
85307W        W56923  14.964   4.593   0.862
85308W        W56924  28.608  17.099  12.521
85309W        W56925  32.883  43.764   0.002
85310W        W56926  23.251  39.504   0.164
85311W        W56927  40.652  12.831   4.759
85312W        W56928  42.867  27.621   1.787
85313W        W56929  37.957   2.811   0.013
85314W        W56930  24.193  30.843  12.197
85315W        W56931  32.078  36.591  14.138
85316W        W56932  13.752  33.882   2.353
85317W        W56933   0.457  35.800   1.409
85318W        W56934  17.729  14.888  11.059
85319W        W56935  27.228  14.224   3.824
85320W        W56936  37.087  13.726  11.584
85321W        W56937  24.631   1.048  12.043
85322W        W56938  41.670  10.469  11.129
85323W        W56939   0.519  26.040   0.799
85324W        W56940  11.598  17.484   1.721
85325W        W56941  17.778  39.828  11.660
85326W        W56942  26.422  35.919   2.360
85327W        W56943  36.347  10.501  12.064
85328W        W56944  40.123  31.542  10.947
85329W        W56945   5.146   5.271   3.312
85330W        W56946  29.385  33.289   5.026
85331W        W56947  27.658   0.583   3.739
85332W        W56948  18.293  18.051   3.240
85333W        W56949  26.660  14.186   2.687
85334W        W56950   3.769   8.990   4.870
85335W        W56951  16.341  21.578  11.479
85336W        W56952   5.235  15.972   2.866
85337W        W56953  44.322  25.420   4.569
85338W        W56954  36.112  32.087   0.963
85339W        W56955  22.306  12.992  12.069
85340W        W56956  43.083  35.846  13.558
85341W        W56957   0.875   6.123   0.410
85342W        W56958  16.697   4.268   4.624
85343W        W56959  13.637  23.332  14.693
85344W        W56960  40.865   6.240   2.228
85345W        W56961  44.895  18.705  10.364
85346W        W56962   7.642  10.575   2.698
85347W        W56963  42.900   1.399   1.152
85348W        W56964  10.482   1.706  12.972
85349W        W56965   8.796  37.297  11.653
85350W        W56966   1.185  34.160  13.545
85351W        W56967  17.634  34.037  10.358
85352W        W56968   9.104  18.774  13.432
85353W        W56969  35.998  30.032   0.131
85354W        W56970  14.001   9.953  11.574
85355W        W56971  27.703  30.454   3.240
85356W        W56972  40.055   1.479  12.079
85357W        W56973  44.476  10.712  11.590
85358W        W56974  13.465  19.888  14.393
85359W        W56975  21.011  37.010   3.257
85360W        W56976  13.327   2.795   0.083
85361W        W56977   8.957  24.682   2.720
85362W        W56978  26.476  27.484   3.714
85363W        W56979  33.505  34.548   0.695
85364W        W56980  12.601  28.013  14.475
85365W        W56981  31.614  38.395  13.085
85366W        W56982  14.837   1.332  12.334
85367W        W56983  25.055  34.946  12.400
85368W        W56984   5.363  33.922  13.512
85369W        W56985  11.737  32.368  12.018
85370W        W56986   9.859  27.018   3.993
85371W        W56987   0.039  27.232  12.272
85372W        W56988  28.913  26.106  11.297
85373W        W56989  23.467  12.216   3.264
85374W        W56990  24.443  29.874   4.577
85375W        W56991   3.655   3.389  12.883
85376W        W56992   8.184   6.600   2.123
85377W        W56993  32.592  10.718  13.536
85378W        W56994   3.708  36.465  13.213
85379W        W56995  15.578  24.873  11.139
85380W        W56996  16.491  14.125  13.584
85381W        W56997   1.487  39.891   2.202
85382W        W56998  28.836   1.879  13.923
85383W        W56999  18.037  14.084   3.140
85384W        W57000  10.110  20.371  13.453
85385W        W57001   5.391   0.800  10.041
85386W        W57002  10.098  22.378   1.935
85387W        W57003  39.974  14.107  11.397
85388W        W57004  15.591  11.343   3.033
85389W        W57005  37.344  19.833  13.427
85390W        W57006  31.918  32.907  14.528
85391W        W57007   0.065   3.986  13.095
85392W        W57008  39.384  39.541   0.829
85393W        W57009  15.711  25.960  13.124
85394W        W57010  29.453  25.956  13.044
85395W        W57011  31.048  11.894  13.806
85396W        W57012   2.910   6.916   4.153
85397W        W57013  29.522  41.841  14.306
85398W        W57014   5.946  34.004  14.308
85399W        W57015   2.313  34.048   1.443
85400W        W57016  24.592  24.017  10.630
85401W        W57017  34.660  44.776  13.301
85402W        W57018   0.529  44.393   3.410
85403W        W57019  33.185  24.334  12.799
85404W        W57020   6.953  41.840  14.416
85405W        W57021  19.694  30.933  12.523
85406W        W57022  16.767  30.725  14.393
85407W        W57023  35.540  21.049  10.799
85408W        W57024  35.801   6.824  11.040
85409W        W57025   9.113   2.764  13.514
85410W        W57026  38.412   2.377   1.227
85411W        W57027  41.914  15.600   4.693
85412W        W57028   7.994  13.085   4.713
85413W        W57029  27.075  33.462   4.392
85414W        W57030  10.453  26.903  13.310
85415W        W57031  26.566  44.296   4.010
85416W        W57032  30.785  43.196  14.970
85417W        W57033  28.018  30.173  14.686
85418W        W57034  21.637   5.612   1.921
85419W        W57035  26.063  26.034  11.953
85420W        W57036  30.643  13.157   4.780
85421W        W57037  42.871  40.312   0.995
85422W        W57038  35.030  23.225   4.511
85423W        W57039  28.187  42.442  14.742
85424W        W57040  18.024  35.609   3.727
85425W        W57041  43.905  13.385  11.490
85426W        W57042  17.819   1.752   0.016
85427W        W57043  27.347  29.502  13.432
85428W        W57044  22.972   5.427   1.802
85429W        W57045  35.170  34.491   1.534
85430W        W57046  41.091  27.537  11.540
85431W        W57047  21.182  38.553  11.427
85432W        W57048   1.882   7.999   1.648
85433W        W57049   1.249  23.671   4.112
85434W        W57050   3.686   8.683   3.625
85435W        W57051  26.493  19.413  11.869
85436W        W57052  10.275  28.152   3.601
85437W        W57053  20.147  22.815   0.395
85438W        W57054  36.373  38.419  12.858
85439W        W57055  19.312   3.956  11.074
85440W        W57056  39.819  42.459   1.053
85441W        W57057  43.058  42.997   4.130
85442W        W57058   3.363  10.099   1.431
85443W        W57059  41.052   6.537   3.198
85444W        W57060  34.418  20.890   4.270
85445W        W57061   8.667  34.535   4.387
85446W        W57062   6.180  23.199  13.305
85447W        W57063  42.477  43.438   0.343
85448W        W57064  17.830  38.460  12.639
85449W        W57065  31.926   0.057   1.130
85450W        W57066  11.274  37.652  14.435
85451W        W57067  31.304  22.049  12.407
85452W        W57068  36.376  11.674   1.174
85453W        W57069  19.469   0.836   0.777
85454W        W57070  42.820  38.752  11.615
85455W        W57071  30.433   5.642  11.090
85456W        W57072  41.098   1.352  13.988
85457W        W57073  24.621  31.676   1.883
85458W        W57074  34.447  39.612  11.190
85459W        W57075  29.235  11.196   1.901
85460W        W57076  38.516  29.844   2.651
85461W        W57077  12.350  44.771   2.676
85462W        W57078   7.864  38.064   0.962
85463W        W57079  40.004  11.009   0.719
85464W        W57080  22.767  38.317   3.603
85465W        W57081  30.260   0.332   4.516
85466W        W57082  11.577   2.800   1.805
85467W        W57083   8.703  19.227   3.721
85468W        W57084  22.432  36.057   0.840
85469W        W57085  38.093  28.505   0.953
85470W        W57086  11.049  33.373  13.310
85471W        W57087   4.761   1.291   0.374
85472W        W57088  30.344   9.611  14.837
85473W        W57089  43.436  27.853  13.311
85474W        W57090   7.581  14.019   1.299
85475W        W57091   0.958   6.725   2.204
85476W        W57092  24.647   6.834  14.979
85477W        W57093  40.006  37.981  12.372
85478W        W57094  22.098  26.627   2.273
85479W        W57095  22.783   3.293  10.459
85480W        W57096  22.792   6.219   1.444
85481W        W57097  20.714   5.351   0.331
85482W        W57098   4.636   5.975  10.301
85483W        W57099   5.279  34.025  14.017
85484W        W57100  27.183  29.772   1.271
85485W        W57101  27.158  35.567  13.038
85486W        W57102  31.971  36.081  12.087
85487W        W57103  15.090  42.896  14.742
85488W        W57104  30.518  42.520  12.308
85489W        W57105  12.115  18.961   4.414
85490W        W57106   8.831  15.082   2.386
85491W        W57107  36.889  18.727  11.981
85492W        W57108  12.179  22.815   3.161
85493W        W57109  28.977  15.755  12.467
85494W        W57110  12.270  12.860   0.556
85495W        W57111  36.006  21.543  10.680
85496W        W57112  18.189   7.734  12.474
85497W        W57113  19.670  29.115   0.550
85498W        W57114   4.713  13.871  11.463
85499W        W57115   5.839   8.167   2.992
85500W        W57116  17.353  33.756  10.025
85501W        W57117   6.794  18.550   1.187
85502W        W57118  13.812   6.644   4.755
85503W        W57119   7.907  43.238   1.885
85504W        W57120  21.089  43.742   3.139
85505W        W57121  24.254  23.059  10.817
85506W        W57122  38.389   2.928   4.840
85507W        W57123   4.446  19.740  11.974
85508W        W57124  10.601  14.625  13.899
85509W        W57125   5.653   7.767   2.654
85510W        W57126  32.194  23.802   3.389
85511W        W57127  39.528  26.258  11.851
85512W        W57128  30.524   3.293  11.191
85513W        W57129   0.751  22.135  14.944
85514W        W57130  28.687   7.668   4.197
85515W        W57131  39.341  38.529  10.388
85516W        W57132   9.909  14.905   0.995
85517W        W57133  27.005   6.303  14.077
85518W        W57134  15.449  22.812  10.683
85519W        W57135   0.950  27.465   4.005
85520W        W57136  33.634  11.752   1.861
85521W        W57137  39.747   4.794  12.067
85522W        W57138  31.936  24.083   2.628
85523W        W57139  34.165   1.158   2.643
85524W        W57140  28.706  35.399   0.560
85525W        W57141   1.067  26.182   4.051
85526W        W57142   0.066  23.801   3.406
85527W        W57143  29.573  39.260   3.742
85528W        W57144  35.437  34.208  11.280
85529W        W57145  32.509  33.667  13.624
85530W        W57146  30.589  28.117   9.918
85531W        W57147  13.706   5.952  12.686
85532W        W57148  24.611  38.573   2.274
85533W        W57149   5.589  38.978   4.326
85534W        W57150  11.323  17.230  14.240
85535W        W57151   5.187  25.181  11.477
85536W        W57152  31.867  10.393  10.390
85537W        W57153   7.626   5.002  10.219
85538W        W57154  25.631   0.424  12.529
85539W        W57155  37.856  24.481   3.677
85540W        W57156  24.789  27.264   4.156
85541W        W57157   0.442  11.500   3.087
85542W        W57158   0.697  37.041   1.248
85543W        W57159  29.377  14.613  12.830
85544W        W57160   9.680   7.647  13.816
85545W        W57161  26.688   2.903   4.188
85546W        W57162  34.739  27.576  12.077
85547W        W57163   0.266   9.827  14.570
85548W        W57164  44.196  39.611   2.405
85549W        W57165   9.329  43.185  12.047
85550W        W57166  12.520  38.933   5.028
85551W        W57167  44.801  24.112   3.739
85552W        W57168  24.082  16.327  13.846
85553W        W57169  44.178  38.142  14.885
85554W        W57170  16.645  40.912   1.441
85555W        W57171  39.389  39.979   1.798
85556W        W57172  32.532  29.901   1.289
85557W        W57173   1.245  34.766   1.092
85558W        W57174  36.145  27.659   3.522
85559W        W57175  35.035  38.888  13.469
85560W        W57176  36.372   9.874   4.649
85561W        W57177  37.473  37.310  14.386
85562W        W57178   0.736   4.739   0.319
85563W        W57179  10.328  24.143  11.993
85564W        W57180  34.563  30.757  14.512
85565W        W57181  37.051  37.017  14.466
85566W        W57182  35.520  37.496   1.891
85567W        W57183  19.966  35.232  13.611
85568W        W57184  32.602  39.750  11.093
85569W        W57185  22.361  28.835   2.248
85570W        W57186  41.522   0.351  12.474
85571W        W57187  29.981  43.614   0.679
85572W        W57188   2.729  24.038   1.660
85573W        W57189  44.843  17.602   1.674
85574W        W57190   9.799  19.288   4.920
85575W        W57191  25.317  14.577  10.182
85576W        W57192   7.163  38.462  11.614
85577W        W57193  41.149  25.632   5.087
85578W        W57194  42.843  17.864   4.095
85579W        W57195  28.684  29.865  10.349
85580W        W57196   1.815  31.376  12.354
85581W        W57197   4.976  26.972  14.817
85582W        W57198  26.079  16.652  14.888
85583W        W57199  33.832  27.021   4.330
85584W        W57200  16.164  43.938   5.382
85585W        W57201   9.927  26.027  11.285
85586W        W57202   1.231  31.140  13.046
85587W        W57203  43.515  25.500   1.801
85588W        W57204  22.594  16.280  12.375
85589W        W57205  38.606  34.431  14.475
85590W        W57206   6.671   5.845  10.687
85591W        W57207  38.922  38.542   1.342
85592W        W57208  19.646  12.808   2.419
85593W        W57209  29.176  28.513  12.955
85594W        W57210   1.741  41.898  12.032
85595W        W57211  39.366   8.193  13.559
85596W        W57212   1.755  12.504   3.039
85597W        W57213  15.243  18.111   1.312
85598W        W57214  44.038  14.670   2.769
85599W        W57215  25.275   5.288  12.090
85600W        W57216   2.428   7.926   2.242
85601W        W57217  43.700   8.752  10.440
85602W        W57218  27.530  21.583   4.784
85603W        W57219  43.392  34.448   0.807
85604W        W57220  36.002  11.144   5.162
85605W        W57221  21.614  28.365  11.156
85606W        W57222  18.258  34.956  10.623
85607W        W57223  21.791  21.150   3.717
85608W        W57224  43.363   9.841  12.522
85609W        W57225   3.335   8.140  14.437
85610W        W57226  41.623  24.740   1.661
85611W        W57227  33.129  26.152   1.230
85612W        W57228  10.702   5.465   4.363
85613W        W57229   3.777  25.141  13.062
85614W        W57230  40.071  41.098  10.632
85615W        W57231  26.704   0.785  12.840
85616W        W57232  13.227  30.852   0.361
85617W        W57233  44.675   4.615  13.258
85618W        W57234  32.433  41.393  13.450
85619W        W57235  39.290   8.324  12.543
85620W        W57236  17.228  39.514  10.558
85621W        W57237  32.014  21.346  10.839
85622W        W57238  35.117   9.897  14.863
85623W        W57239  24.487  40.013   1.302
85624W        W57240   8.378  14.417  13.123
85625W        W57241   3.765  10.121   0.348
85626W        W57242  33.335  42.031  13.957
85627W        W57243   2.486  24.062  12.966
85628W        W57244  24.315   7.384   3.386
85629W        W57245  32.079  34.802   1.206
85630W        W57246   4.249  28.536  12.977
85631W        W57247  36.757   2.368  11.456
85632W        W57248  19.674   4.736   3.162
85633W        W57249  36.396  12.405  14.481
85634W        W57250  22.619   5.687  12.062
85635W        W57251  13.634  18.014   2.722
85636W        W57252  18.859   8.044   3.602
85637W        W57253  34.159  19.677  10.769
85638W        W57254  16.063  19.239   9.808
85639W        W57255  16.813  19.098   0.764
85640W        W57256  41.052  40.746   4.620
85641W        W57257  26.873  42.564  12.887
85642W        W57258  13.129   3.643  10.961
85643W        W57259  17.672  21.180  14.016
85644W        W57260  18.777  29.933   2.257
85645W        W57261  21.509  23.715   1.167
85646W        W57262  11.157  29.620  14.619
85647W        W57263   3.882   4.954  14.828
85648W        W57264  21.023   1.851   0.858
85649W        W57265  27.857  12.774  12.077
85650W        W57266  21.708   6.901  13.624
85651W        W57267  24.751  39.330  12.519
85652W        W57268   3.798  30.430  11.197
85653W        W57269  10.402  11.134   2.617
85654W        W57270  19.162  37.487   4.233
85655W        W57271  16.118  43.792   4.897
85656W        W57272  10.655  22.452   3.426
85657W        W57273   3.909  11.797  10.655
85658W        W57274  37.469  38.135   0.699
85659W        W57275  36.470  21.733  14.049
85660W        W57276   8.910  16.294   2.818
85661W        W57277  39.607  21.467  13.916
85662W        W57278  32.638  44.573   5.040
85663W        W57279  42.779  39.977  12.067
85664W        W57280  14.628   3.213  11.562
85665W        W57281  32.922  11.097   4.119
85666W        W57282  29.148  40.908   4.664
85667W        W57283  35.850  12.270   1.912
85668W        W57284   3.953  24.368   1.173
85669W        W57285  25.058   1.712  13.111
85670W        W57286  23.253  22.743   1.044
85671W        W57287  35.117  25.623  12.450
85672W        W57288  44.215  43.883  13.627
85673W        W57289  17.717  11.631  12.212
85674W        W57290  15.061  18.112   4.090
85675W        W57291  10.404   1.936   4.312
85676W        W57292  32.214  38.439   5.007
85677W        W57293  14.480  14.485   4.141
85678W        W57294  16.561   5.854  10.561
85679W        W57295  11.165  34.876   3.887
85680W        W57296  16.011  33.505   3.463
85681W        W57297   9.985  25.134  11.596
85682W        W57298   7.676  40.784  13.399
85683W        W57299  44.195  31.524   2.767
85684W        W57300   4.925  42.654   2.830
85685W        W57301  20.300  43.935   3.006
85686W        W57302  30.611  32.806   3.663
85687W        W57303  44.691   8.878   1.416
85688W        W57304  35.900   1.228   1.102
85689W        W57305  18.675   0.097  10.601
85690W        W57306  41.851  31.014  13.583
85691W        W57307  12.205   6.389  11.521
85692W        W57308  33.413  44.726   3.430
85693W        W57309  12.877  17.605  12.497
85694W        W57310  17.078  34.073   0.209
85695W        W57311  10.301  39.425  13.842
85696W        W57312  32.393   4.743  14.500
85697W        W57313  13.782  41.303   2.101
85698W        W57314  23.516  11.253  14.648
85699W        W57315  41.319  31.866  10.428
85700W        W57316   0.174  38.334   0.400
85701W        W57317  40.132  42.781   2.312
85702W        W57318  43.594  35.943  13.510
85703W        W57319  33.208  35.854   3.634
85704W        W57320  21.905  20.700  13.935
85705W        W57321  13.193  14.606   1.739
85706W        W57322  25.038  34.848  10.659
85707W        W57323   7.608  34.118   0.809
85708W        W57324  19.016  38.900  11.165
85709W        W57325  31.760  15.765  11.319
85710W        W57326  13.542  12.860  11.113
85711W        W57327  30.536  11.718  14.511
85712W        W57328  33.134  12.804   3.775
85713W        W57329   3.452   7.317  13.338
85714W        W57330  37.658  25.338  14.012
85715W        W57331   5.997  14.823   0.799
85716W        W57332  21.172  27.624  10.664
85717W        W57333  11.197  20.157   4.084
85718W        W57334   4.240   0.762  14.277
85719W        W57335  41.393  13.649  11.679
85720W        W57336  41.127  26.437  13.038
85721W        W57337   4.342  38.408  10.746
85722W        W57338   0.293  36.488   2.235
85723W        W57339  11.746  21.161   2.756
85724W        W57340  24.924  37.863  10.608
85725W        W57341  15.666  23.691   2.083
85726W        W57342  35.302  34.159   0.258
85727W        W57343  42.118  36.491   2.945
85728W        W57344  12.514  24.744   4.104
85729W        W57345  42.272  33.577   1.842
85730W        W57346  21.675  27.108  13.279
85731W        W57347  33.486   2.801   1.874
85732W        W57348   1.290  23.135  10.191
85733W        W57349   3.931   7.188  10.779
85734W        W57350  27.536  41.901   2.856
85735W        W57351   1.695  34.676   0.825
85736W        W57352  25.777  15.749   1.189
85737W        W57353   9.845  11.700  12.858
85738W        W57354  38.667  39.831   4.973
85739W        W57355  25.920  12.795  13.023
85740W        W57356  26.168  19.746  12.102
85741W        W57357   5.857   8.648   2.783
85742W        W57358   2.248  26.770   2.000
85743W        W57359  25.197  30.148  13.978
85744W        W57360  43.744   1.016  11.560
85745W        W57361  41.070  28.143  12.769
85746W        W57362   4.262   6.848   4.333
85747W        W57363  37.115  32.013   2.279
85748W        W57364  13.475  27.664  12.615
85749W        W57365  33.500  24.415   2.419
85750W        W57366  40.903  34.385   3.174
85751W        W57367  41.563  27.960   4.212
85752W        W57368   7.560  43.441   2.222
85753W        W57369  36.026  23.342   1.509
85754W        W57370  30.701  27.863   3.544
85755W        W57371  31.140  37.280  14.363
85756W        W57372  41.548  13.638  12.542
85757W        W57373   4.713  17.532   2.283
85758W        W57374  20.170  22.292  12.066
85759W        W57375   3.661  10.396  12.041
85760W        W57376  27.540  18.876   3.896
85761W        W57377   2.962  22.647   1.388
85762W        W57378   7.431  41.999   0.776
85763W        W57379  23.184   5.460  10.724
85764W        W57380  29.367  39.683   2.828
85765W        W57381  20.658   8.139  10.768
85766W        W57382  22.327  38.221   4.294
85767W        W57383  35.150   2.634   2.784
85768W        W57384  29.603   3.134   0.827
85769W        W57385  13.500   8.334  11.128
85770W        W57386   6.917  32.227   0.459
85771W        W57387  33.497  12.612   4.790
85772W        W57388  24.748  14.893  14.861
85773W        W57389  41.085  39.344   1.918
85774W        W57390   3.195   5.148   3.394
85775W        W57391  36.848  24.876   3.630
85776W        W57392  16.653  32.912   4.611
85777W        W57393  40.057  18.504  12.590
85778W        W57394   2.934  13.880   4.585
85779W        W57395  16.479  30.516   0.409
85780W        W57396   2.775  32.090  11.401
85781W        W57397  41.489  37.004   0.280
85782W        W57398  32.377  32.423  12.159
85783W        W57399  26.446   4.678   3.301
85784W        W57400  14.089  24.702  12.390
85785W        W57401  30.619  30.465  13.985
85786W        W57402   4.326   1.494  13.383
85787W        W57403  37.406  35.603   4.886
85788W        W57404  15.185  34.410  10.898
85789W        W57405  14.521   9.301  14.324
85790W        W57406  34.747  39.267   0.841
85791W        W57407  21.157   7.435   0.941
85792W        W57408  23.801  17.760   0.884
85793W        W57409   6.430   4.991  11.773
85794W        W57410  39.782  23.759   3.297
85795W        W57411  13.359  42.687   5.035
85796W        W57412  31.006   5.014   4.523
85797W        W57413  29.341  40.239  13.021
85798W        W57414  37.009  38.338   2.922
85799W        W57415  22.310  38.216   2.373
85800W        W57416  32.026  14.903   3.597
85801W        W57417  42.425   6.036   0.277
85802W        W57418  14.457  32.454   4.662
85803W        W57419   4.003  16.989  14.386
85804W        W57420  29.423   5.988  11.265
85805W        W57421  34.007  41.837   1.794
85806W        W57422  43.212  33.553   5.249
85807W        W57423  30.785  18.278  11.462
85808W        W57424  34.691  20.557   4.611
85809W        W57425  18.288   3.114   3.267
85810W        W57426   6.313  39.452   3.856
85811W        W57427  35.520   0.279   4.106
85812W        W57428  41.555   4.334  13.759
85813W        W57429  25.328  29.683   1.516
85814W        W57430  14.502   6.798   4.127
85815W        W57431  12.107  42.522   1.885
85816W        W57432  32.034   8.892  14.326
85817W        W57433  32.084  22.298   3.857
85818W        W57434  35.527  21.866   0.282
85819W        W57435  34.714  18.084   0.845
85820W        W57436   1.471  33.515  11.961
85821W        W57437   9.361   9.786  10.620
85822W        W57438   7.301   9.690  10.501
85823W        W57439  43.223  39.963  13.311
85824W        W57440   6.278  36.897   3.805
85825W        W57441  23.990  11.860   1.835
85826W        W57442  31.431  13.165   1.252
85827W        W57443  32.602  42.781  12.030
85828W        W57444   0.963   8.077  12.396
85829W        W57445  17.259   3.160   2.727
85830W        W57446  17.726  21.802  14.357
85831W        W57447   7.174  34.833  11.794
85832W        W57448  23.052   7.376  10.314
85833W        W57449  32.641   0.378   1.408
85834W        W57450   5.272   6.226   1.377
85835W        W57451  43.247  44.881   2.810
85836W        W57452  24.800  27.981  13.400
85837W        W57453  20.493  30.995  13.588
85838W        W57454  44.894  37.613   1.735
85839W        W57455  15.131  31.116  11.482
85840W        W57456  28.956  35.485   4.060
85841W        W57457  26.725  34.695   1.615
85842W        W57458  10.221  32.642  10.691
85843W        W57459  13.878  42.195  14.783
85844W        W57460  16.599   9.692  13.865
85845W        W57461  27.603  13.193   4.556
85846W        W57462   8.615   3.227  12.009
85847W        W57463   3.272  18.681  11.115
85848W        W57464  18.059   4.796  14.935
85849W        W57465  41.537  44.001   0.760
85850W        W57466  39.932   3.525   3.359
85851W        W57467  40.223  37.117   3.203
85852W        W57468  10.324   6.769  10.669
85853W        W57469  22.678  38.315   2.724
85854W        W57470  13.470  32.646  11.795
85855W        W57471   1.782  18.228  13.096
85856W        W57472  32.133  22.118   1.904
85857W        W57473  23.232  15.113   3.743
85858W        W57474  29.011  25.181   3.152
85859W        W57475  36.825  40.787  13.869
85860W        W57476   8.325  36.655   0.225
85861W        W57477  33.603  24.232  12.447
85862W        W57478  35.010  28.970  11.416
85863W        W57479   3.642  44.320  13.021
85864W        W57480  25.536   1.499   1.431
85865W        W57481  10.368  30.725   5.138
85866W        W57482  26.456  25.952  13.884
85867W        W57483  35.641   7.292   4.122
85868W        W57484  15.501  14.543   0.822
85869W        W57485   9.241   0.275  11.957
85870W        W57486   0.439  20.827   1.816
85871W        W57487   7.230  32.042  10.230
85872W        W57488  30.643  33.615  12.531
85873W        W57489  16.831  17.791  11.166
85874W        W57490  20.804  14.270   3.634
85875W        W57491  38.991   4.009   4.004
85876W        W57492   9.620  37.405  11.030
85877W        W57493  18.253  36.228   4.231
85878W        W57494  20.332   9.901   2.244
85879W        W57495  28.965  14.319   4.078
85880W        W57496  11.086  19.883   0.233
85881W        W57497  14.807  33.782  14.899
85882W        W57498  21.720  43.165  11.014
85883W        W57499  43.826  44.709  11.250
85884W        W57500  21.931  25.959  13.562
85885W        W57501  27.371  10.284  11.173
85886W        W57502  12.461  36.916   1.824
85887W        W57503   4.328  37.980   0.870
85888W        W57504   2.185  23.493   4.595
85889W        W57505  27.665  35.851  13.845
85890W        W57506  17.447  41.704  10.847
85891W        W57507  40.064   8.348   3.114
85892W        W57508   4.382  14.518   4.844
85893W        W57509  30.205   1.756   0.676
85894W        W57510  31.548  19.577  10.869
85895W        W57511   6.706   3.867   0.221
85896W        W57512  19.282  36.046  14.585
85897W        W57513   8.344   6.715  11.922
85898W        W57514  19.609  29.102  11.744
85899W        W57515  28.023  36.439   1.887
85900W        W57516   5.029   3.166  11.500
85901W        W57517  40.287  20.143  13.130
85902W        W57518  29.029   9.154   0.355
85903W        W57519  26.045   6.494  14.520
85904W        W57520   1.324  35.815  13.869
85905W        W57521  26.451  33.438   3.185
85906W        W57522   0.068  10.152   2.113
85907W        W57523  28.531  41.879  14.468
85908W        W57524   3.315   0.273   2.179
85909W        W57525  30.595  29.352   3.708
85910W        W57526  43.210  23.125  14.766
85911W        W57527  15.672  27.095   2.391
85912W        W57528  25.233  27.146   3.668
85913W        W57529  23.579  20.507   2.765
85914W        W57530  26.230  17.207   5.167
85915W        W57531  17.312  42.804  14.502
85916W        W57532  12.810  25.103   0.771
85917W        W57533  10.821  24.638   2.683
85918W        W57534  42.156  16.788   1.843
85919W        W57535  12.700   5.179  13.575
85920W        W57536  14.534  34.917  13.045
85921W        W57537  16.991  34.816  11.159
85922W        W57538  44.806   0.029  14.319
85923W        W57539  14.355   4.340  12.321
85924W        W57540  16.553  23.316   2.600
85925W        W57541   8.382  15.785  13.922
85926W        W57542  32.972  37.705   2.288
85927W        W57543  32.015  13.848  10.729
85928W        W57544  44.310   0.749  10.065
85929W        W57545  39.741  36.021  14.011
85930W        W57546  22.595  12.694   4.501
85931W        W57547  11.109  16.604  11.282
85932W        W57548  14.885  39.300   0.253
85933W        W57549  30.818  38.528  14.838
85934W        W57550  35.655   7.287   2.789
85935W        W57551  35.614  39.362   1.758
85936W        W57552  17.172  40.777   0.293
85937W        W57553  10.299  28.178   0.737
85938W        W57554  34.917  30.619   1.370
85939W        W57555  33.017  13.643  11.635
85940W        W57556   3.808  39.335   4.616
85941W        W57557  17.374   3.454   3.132
85942W        W57558  25.047  35.961  12.829
85943W        W57559  31.419  31.074  11.959
85944W        W57560  18.085  26.462   3.738
85945W        W57561  43.228  20.990  11.126
85946W        W57562  12.363  23.181  13.731
85947W        W57563  20.119  25.246  10.555
85948W        W57564  39.794  27.547   3.723
85949W        W57565  44.497  27.508  11.933
85950W        W57566  44.569  30.386  13.087
85951W        W57567  25.569  23.468  12.375
85952W        W57568  34.940   8.200  12.468
85953W        W57569  23.001  26.986   0.805
85954W        W57570   8.988  12.827   2.416
85955W        W57571  25.576  12.694   2.467
85956W        W57572  12.721   3.966   1.244
85957W        W57573   2.253  35.001   4.789
85958W        W57574  31.556  12.201  13.966
85959W        W57575  42.366  31.639   4.540
85960W        W57576  35.849   5.639  14.165
85961W        W57577  38.016  22.308  14.270
85962W        W57578  43.885   7.930  13.781
85963W        W57579  23.647  43.987   1.556
85964W        W57580  33.447  22.277  10.262
85965W        W57581   6.699   1.309  12.116
85966W        W57582  12.284   2.741   3.248
85967W        W57583  13.603   4.473  11.140
85968W        W57584  43.944  18.304   3.368
85969W        W57585   1.442  34.503  13.047
85970W        W57586   3.167  27.263   0.319
85971W        W57587  34.487  44.504  13.832
85972W        W57588   2.323  12.422  11.976
85973W        W57589  10.339   5.607   1.838
85974W        W57590  42.764  11.802   4.621
85975W        W57591   9.256   0.434   1.057
85976W        W57592  10.789  19.049   3.341
85977W        W57593  26.924   7.657  11.970
85978W        W57594  20.171  23.272  12.093
85979W        W57595  34.575  37.488   3.571
85980W        W57596  13.824  10.353   0.328
85981W        W57597  43.404  12.891  14.264
85982W        W57598  27.230  32.033   3.402
85983W        W57599  40.243  10.305   0.414
85984W        W57600  15.492  31.794   4.489
85985W        W57601  24.814  10.821  10.539
85986W        W57602  10.086  22.478  13.478
85987W        W57603  14.893   6.932   2.763
85988W        W57604  18.486  16.585   1.108
85989W        W57605  10.188  26.975  10.616
85990W        W57606  31.386  44.545   1.891
85991W        W57607  28.873   9.844  14.793
85992W        W57608   9.763   6.901  12.041
85993W        W57609  12.653  22.557   3.880
85994W        W57610  26.610  34.212   1.840
85995W        W57611  29.931  44.976  11.978
85996W        W57612  11.311  38.902  14.271
85997W        W57613   9.080  24.979   3.354
85998W        W57614   4.049  21.619  13.362
85999W        W57615  33.941  36.418  12.583
86000W        W57616   5.007   8.563   2.730
86001W        W57617  22.144  38.784   0.868
86002W        W57618  39.920  13.898   0.046
86003W        W57619   4.290  44.903  11.144
86004W        W57620  18.122  25.504  14.754
86005W        W57621   4.515  24.718   4.652
86006W        W57622  34.411  33.574   0.258
86007W        W57623  36.263  39.830  11.131
86008W        W57624  39.059   8.866  13.807
86009W        W57625  40.564  39.443   1.842
86010W        W57626   6.969   2.855   3.651
86011W        W57627  35.932  14.578  11.054
86012W        W57628  13.336  24.138   4.010
86013W        W57629  38.340  25.038   3.556
86014W        W57630  33.076  31.061  14.389
86015W        W57631  11.375   7.387  13.915
86016W        W57632  17.199  29.555   0.430
86017W        W57633  22.122  28.919   2.686
86018W        W57634  27.161  27.064   0.469
86019W        W57635  37.504   6.305  11.181
86020W        W57636  38.468  41.533   2.656
86021W        W57637  37.090  27.533   3.718
86022W        W57638   5.840  44.193  13.921
86023W        W57639  30.630  11.847  10.438
86024W        W57640   2.154   1.431   2.574
86025W        W57641  11.748   9.651  11.587
86026W        W57642  29.729   5.925   2.165
86027W        W57643  10.025  29.993  11.052
86028W        W57644  23.651   8.738  14.629
86029W        W57645  21.685  34.295   4.529
86030W        W57646   8.484   2.810  14.961
86031W        W57647  11.731  19.357   3.706
86032W        W57648  22.822   0.494   5.009
86033W        W57649  21.439  35.187   3.792
86034W        W57650  20.317  27.860   3.780
86035W        W57651   0.297  23.932   4.234
86036W        W57652   1.994  38.423  11.604
86037W        W57653  16.703  15.262   4.771
86038W        W57654   6.295  11.353   2.634
86039W        W57655  11.845  38.043   0.415
86040W        W57656  12.089   2.501   4.961
86041W        W57657  14.674  29.430   3.659
86042W        W57658   5.109  37.491  14.448
86043W        W57659  39.293  33.126  10.830
86044W        W57660  35.406  23.680   0.900
86045W        W57661   9.279   5.332   3.115
86046W        W57662  30.253  34.049  14.907
86047W        W57663  36.059  42.103   5.073
86048W        W57664  31.265  41.405  12.562
86049W        W57665   2.822  11.660  14.326
86050W        W57666  17.482  43.190  12.471
86051W        W57667   6.425   6.817  13.969
86052W        W57668   4.480  12.877  12.527
86053W        W57669   4.442  38.546   3.171
86054W        W57670  36.977  20.580  13.470
86055W        W57671  30.598  16.246  10.654
86056W        W57672   5.856  15.576   3.078
86057W        W57673  12.299   4.645   4.172
86058W        W57674  42.371  36.877   4.284
86059W        W57675   6.571  34.460  12.977
86060W        W57676  33.433  35.536   2.852
86061W        W57677  37.607  23.790   4.211
86062W        W57678  41.253  19.741  11.537
86063W        W57679  13.426   1.816   4.626
86064W        W57680  24.277  39.492  14.414
86065W        W57681   9.230  24.420  12.039
86066W        W57682  23.540   0.244  12.886
86067W        W57683  27.649  20.182  13.149
86068W        W57684  44.822   8.971  12.465
86069W        W57685  19.617  22.990  10.711
86070W        W57686  22.478  42.931  13.735
86071W        W57687  13.152  37.975  12.296
86072W        W57688  18.822  41.169  11.103
86073W        W57689  33.039  41.448   2.954
86074W        W57690  43.425  31.249  11.919
86075W        W57691  22.637   3.263  13.786
86076W        W57692  44.507   2.187  11.562
86077W        W57693   7.795  16.888  10.722
86078W        W57694  22.305   7.129   3.195
86079W        W57695  40.724   4.859  12.943
86080W        W57696   8.263  31.860   3.257
86081W        W57697   2.536  31.530   1.181
86082W        W57698  17.495   5.052   0.683
86083W        W57699  34.490  11.579   4.133
86084W        W57700   7.843   7.366   1.326
86085W        W57701   6.029  39.573  14.928
86086W        W57702  33.204  39.283  10.608
86087W        W57703   3.833   7.641   3.273
86088W        W57704  11.148  35.451   1.257
86089W        W57705  37.048  25.560  13.382
86090W        W57706   5.836   1.985  14.949
86091W        W57707   2.768  34.474   0.236
86092W        W57708  36.118  22.553  12.796
86093W        W57709  42.058  18.997   4.376
86094W        W57710  28.150   3.315  12.581
86095W        W57711  30.734  14.798  14.877
86096W        W57712  19.145  14.087  14.624
86097W        W57713   4.451  15.235  13.906
86098W        W57714   0.412  10.722   4.321
86099W        W57715  21.045  31.121  13.526
86100W        W57716  35.523  39.509   2.666
86101W        W57717   7.841  12.635  11.140
86102W        W57718  28.624  29.596   3.777
86103W        W57719  16.045  35.538  13.428
86104W        W57720  21.987   2.036   3.661
86105W        W57721   8.349  38.446  13.144
86106W        W57722  18.574  19.961   4.202
86107W        W57723  21.249  14.330  12.819
86108W        W57724  26.173  24.678   1.769
86109W        W57725  14.676  36.253   1.254
86110W        W57726  37.567  26.111  11.050
86111W        W57727  39.160   1.016   0.779
86112W        W57728  34.691  33.414   2.775
86113W        W57729  37.628  21.347  11.701
86114W        W57730  27.719   5.973   0.280
86115W        W57731  42.821  17.406   1.792
86116W        W57732  44.862  41.756   4.100
86117W        W57733  27.182   0.422   3.921
86118W        W57734  31.924  27.774   2.004
86119W        W57735  10.812   3.792   4.836
86120W        W57736  44.502  44.660   2.223
86121W        W57737  30.439  24.312  11.394
86122W        W57738   0.414   3.462   1.070
86123W        W57739  32.919  16.711  13.415
86124W        W57740  36.643   9.831  11.456
86125W        W57741  40.455  39.296   1.359
86126W        W57742  21.622  36.043  12.928
86127W        W57743  26.091  21.153  13.815
86128W        W57744  26.007  29.667   2.133
86129W        W57745  31.461  18.195   3.551
86130W        W57746  26.738  12.308  13.370
86131W        W57747  10.724  36.099   3.854
86132W        W57748  16.722  27.811   3.356
86133W        W57749  23.225  27.745  10.611
86134W        W57750  14.409   4.230   2.559
86135W        W57751  32.264  15.035  11.461
86136W        W57752  21.242   1.505   3.699
86137W        W57753  38.065  12.677   0.482
86138W        W57754  30.109   3.614  13.012
86139W        W57755  32.475  15.280   1.156
86140W        W57756  30.432   9.602   3.317
86141W        W57757  22.405  15.815   3.520
86142W        W57758  38.613  31.357   3.570
86143W        W57759  11.208   4.682   1.339
86144W        W57760   6.665  25.626   3.329
86145W        W57761  20.463  39.761   4.024
86146W        W57762  30.503  36.788   5.030
86147W        W57763  34.413   9.828   3.591
86148W        W57764  13.535  41.123  12.488
86149W        W57765  13.536   6.896   2.746
86150W        W57766  27.642  25.145   2.711
86151W        W57767  30.800  22.361   0.303
86152W        W57768  11.712  12.709   4.491
86153W        W57769  26.484  31.197  10.920
86154W        W57770  26.468  35.290  10.387
86155W        W57771  23.152  31.682   2.854
86156W        W57772  43.337  29.037   1.423
86157W        W57773  33.431  32.619  11.623
86158W        W57774  14.683  40.676  12.132
86159W        W57775   8.353  16.323   0.248
86160W        W57776  21.065  14.895  10.930
86161W        W57777  44.396  28.165   1.407
86162W        W57778  16.575  20.163   2.377
86163W        W57779   8.722   4.654   0.728
86164W        W57780   9.786  41.323  11.064
86165W        W57781   2.655  28.015   2.301
86166W        W57782  40.846  11.302   1.660
86167W        W57783  35.058  22.297   4.555
86168W        W57784  26.955   4.506   4.030
86169W        W57785   8.871   0.838   3.602
86170W        W57786   2.008  40.743  14.017
86171W        W57787  41.284   0.258  11.988
86172W        W57788   7.624  28.116   2.484
86173W        W57789   2.516  39.067  11.970
86174W        W57790  33.667  19.694  10.681
86175W        W57791  15.660  36.212  12.065
86176W        W57792   7.479  15.705   4.154
86177W        W57793  31.631   6.702  13.785
86178W        W57794  32.130  31.446   0.978
86179W        W57795   2.698  16.148  10.816
86180W        W57796  25.411   8.310  11.427
86181W        W57797  38.762  17.770   4.601
86182W        W57798  42.539  23.143   2.825
86183W        W57799  13.645  33.125  13.901
86184W        W57800   1.878  15.557  12.982
86185W        W57801  30.940   9.229  11.646
86186W        W57802  23.509  44.512   3.207
86187W        W57803   2.884  36.518  12.973
86188W        W57804  28.075  17.232   3.826
86189W        W57805  10.621  34.384  14.358
86190W        W57806  10.971  41.284   3.902
86191W        W57807  17.835   3.995  14.983
86192W        W57808   3.319  19.564   4.848
86193W        W57809  41.998  23.682  12.999
86194W        W57810  22.574  40.754  13.817
86195W        W57811   6.507  10.293  12.488
86196W        W57812  19.134  30.881  14.287
86197W        W57813  43.466  36.988  14.482
86198W        W57814  43.016  20.840  14.872
86199W        W57815   5.874  15.407  11.173
86200W        W57816  27.553  24.502  10.339
86201W        W57817   0.994  14.090   2.409
86202W        W57818  17.534  13.758  13.372
86203W        W57819  40.815  26.362   4.102
86204W        W57820  40.828  38.413  13.620
86205W        W57821  30.998  37.850   3.424
86206W        W57822  31.030  37.906   1.394
86207W        W57823  39.991  36.048   1.512
86208W        W57824  44.925  29.428   3.238
86209W        W57825  43.480  42.761  13.927
86210W        W57826   1.443  32.581  10.750
86211W        W57827   7.883  22.231   3.727
86212W        W57828   5.103   6.856   3.298
86213W        W57829  41.937   3.783  13.323
86214W        W57830   9.288  17.633   3.542
86215W        W57831  20.027  23.019  13.577
86216W        W57832  15.328  17.129  10.673
86217W        W57833   2.171  24.647  13.736
86218W        W57834  19.111  34.479   3.203
86219W        W57835  38.781  28.499  12.463
86220W        W57836  11.194   8.866   1.717
86221W        W57837  13.206  18.726  13.416
86222W        W57838   6.754   9.391  13.051
86223W        W57839  41.571  37.491  13.568
86224W        W57840  10.359  40.091   4.177
86225W        W57841  38.429  33.345   3.577
86226W        W57842  44.308  25.446   3.156
86227W        W57843  22.055  24.576  12.887
86228W        W57844  34.926  19.844  12.407
86229W        W57845  21.182  31.296   4.085
86230W        W57846  28.624  40.062   0.329
86231W        W57847  27.214  41.276   4.825
86232W        W57848  38.156   7.148  10.553
86233W        W57849  12.659  30.139   2.235
86234W        W57850  14.138  18.658  12.958
86235W        W57851  21.162  40.804  11.495
86236W        W57852  44.288   4.829   4.647
86237W        W57853  17.755  27.894   4.848
86238W        W57854   3.759  37.467  10.367
86239W        W57855  10.116  20.731  11.515
86240W        W57856  44.719   2.943   1.686
86241W        W57857   8.381  10.186  13.415
86242W        W57858  39.398  23.290   4.205
86243W        W57859   9.312   3.792   1.380
86244W        W57860   5.348  34.788   1.283
86245W        W57861  30.695   6.465  10.984
86246W        W57862  16.836  33.434  11.931
86247W        W57863  37.860  35.574   4.548
86248W        W57864   2.526  15.863  14.575
86249W        W57865  26.665  33.911  11.554
86250W        W57866  28.513   1.462   0.968
86251W        W57867   3.948  18.891   4.595
86252W        W57868  15.597  14.333   0.346
86253W        W57869  31.005  28.685   4.025
86254W        W57870  28.488  26.319   4.665
86255W        W57871   2.856  34.384   2.980
86256W        W57872   4.774  43.802  13.306
86257W        W57873  26.225   8.230   0.793
86258W        W57874  22.796   3.103   2.600
86259W        W57875  39.579  25.508  13.016
86260W        W57876  10.098  33.055  14.435
86261W        W57877   7.902  36.001  12.461
86262W        W57878  27.006  16.534   2.813
86263W        W57879   5.582   1.342  12.020
86264W        W57880   3.466  43.836  13.029
86265W        W57881   6.475  10.738  12.055
86266W        W57882   1.348  29.542   4.514
86267W        W57883  12.863  20.683  11.509
86268W        W57884  24.710   6.380   3.764
86269W        W57885  18.765  10.594  10.997
86270W        W57886  16.632  14.849   1.655
86271W        W57887  13.599  29.893   0.255
86272W        W57888  14.820  34.385   1.768
86273W        W57889  21.500   1.787   2.222
86274W        W57890  29.897   9.281  11.597
86275W        W57891  41.756  43.110  14.354
86276W        W57892  31.191   8.412   3.738
86277W        W57893  15.888   9.269  14.731
86278W        W57894  19.210  42.878  12.318
86279W        W57895  39.534  39.821  14.651
86280W        W57896  15.787  32.887  11.127
86281W        W57897  35.381  34.013   3.226
86282W        W57898  17.649  36.102   2.694
86283W        W57899  23.170  27.464  11.050
86284W        W57900  43.248  34.393   3.134
86285W        W57901  34.971  41.077  13.790
86286W        W57902  20.151  36.463   4.541
86287W        W57903  20.490  22.963  10.738
86288W        W57904   7.100  17.851   4.293
86289W        W57905  20.809  32.657  13.759
86290W        W57906  21.080   3.968  13.374
86291W        W57907  20.638  12.642  12.355
86292W        W57908   5.569  12.773  14.444
86293W        W57909  34.311  23.160   4.218
86294W        W57910  18.710  23.480  11.659
86295W        W57911   3.842   6.487  10.278
86296W        W57912  15.119  26.112   0.445
86297W        W57913  10.502  31.878   4.782
86298W        W57914  38.803  13.337  11.047
86299W        W57915  19.812  12.432  13.417
86300W        W57916  27.075   0.853   4.730
86301W        W57917  40.423   5.309  13.151
86302W        W57918  32.272   5.857  10.611
86303W        W57919  27.983  17.143   4.666
86304W        W57920  35.822  11.995  14.864
86305W        W57921  19.724  18.909  14.513
86306W        W57922   9.936  41.469   5.005
86307W        W57923  33.489  33.879  12.827
86308W        W57924  23.828  11.368   1.857
86309W        W57925  21.183   0.554  14.334
86310W        W57926   4.701   2.615  13.062
86311W        W57927  37.116  10.913  12.554
86312W        W57928  38.126   4.372   1.371
86313W        W57929  23.845  41.091   0.827
86314W        W57930  18.066  10.713   1.455
86315W        W57931   6.717  26.901  14.545
86316W        W57932  21.044  40.129   2.608
86317W        W57933   5.853  36.387   2.282
86318W        W57934  37.489  32.449  14.304
86319W        W57935  39.383  19.612  10.685
86320W        W57936  43.472  25.046  13.538
86321W        W57937  27.381  20.588  13.347
86322W        W57938   0.717  27.186  10.631
86323W        W57939  30.129  24.175   3.149
86324W        W57940  35.090   4.142  12.885
86325W        W57941  20.103  28.710  12.007
86326W        W57942  25.314  38.956  14.761
86327W        W57943  32.969  42.323  12.355
86328W        W57944   8.692  31.457   2.542
86329W        W57945  23.666  15.132  11.609
86330W        W57946  44.982  44.367   2.101
86331W        W57947   0.002  22.579  13.864
86332W        W57948  16.857  39.471  13.781
86333W        W57949  40.275   6.586  11.184
86334W        W57950  41.050  42.820  10.093
86335W        W57951   9.214  22.313   4.105
86336W        W57952  42.378  31.960   3.574
86337W        W57953  28.690  19.656   3.202
86338W        W57954  18.885  42.928   0.248
86339W        W57955  36.084  25.213  13.060
86340W        W57956  38.359  24.256  13.339
86341W        W57957   5.723  23.480   4.663
86342W        W57958  16.927  16.169  14.336
86343W        W57959  44.405  32.453  13.099
86344W        W57960  37.587   1.491  14.855
86345W        W57961  37.585  31.029  13.063
86346W        W57962  41.873  36.506  12.370
86347W        W57963  29.076  44.945  12.555
86348W        W57964  25.610   8.466  12.307
86349W        W57965  30.406  18.193   1.504
86350W        W57966  22.993   3.309   3.594
86351W        W57967  20.921  36.463  10.747
86352W        W57968  21.982  10.302   3.650
86353W        W57969  19.704   0.887   0.243
86354W        W57970  34.101  26.386  11.910
86355W        W57971   0.376  21.562  12.444
86356W        W57972  42.973  38.638   9.896
86357W        W57973  24.030  17.224  12.377
86358W        W57974  24.682  23.313  11.944
86359W        W57975   8.346   8.794  11.444
86360W        W57976  38.145  39.083   3.546
86361W        W57977  13.827  23.716  14.978
86362W        W57978  26.018  36.994   0.956
86363W        W57979  43.930  22.541   4.956
86364W        W57980  20.093   8.536   5.333
86365W        W57981  39.398  10.126  12.296
86366W        W57982   9.616  20.184   2.713
86367W        W57983  41.278  16.702  11.359
86368W        W57984   7.767  22.021   3.189
86369W        W57985  44.449  21.721  10.793
86370W        W57986  42.304  27.641  13.865
86371W        W57987  43.871  13.314   3.260
86372W        W57988  39.578  24.547   4.552
86373W        W57989  15.375  19.224  12.978
86374W        W57990  42.324  28.980   1.654
86375W        W57991   3.118   8.197   0.233
86376W        W57992  33.679  36.024  11.677
86377W        W57993  43.815  20.007  10.410
86378W        W57994  18.122  41.570  11.565
86379W        W57995   9.272  44.497  10.690
86380W        W57996  28.409   7.171   4.648
86381W        W57997  39.537  38.529   1.968
86382W        W57998  22.484   0.842  11.474
86383W        W57999  25.720  36.575  13.794
86384W        W58000   1.315  27.068  14.108
86385W        W58001   7.100  33.056  12.431
86386W        W58002  39.354   9.368   3.617
86387W        W58003  15.794  10.345  13.343
86388W        W58004  27.556  40.932  12.868
86389W        W58005  18.778  22.087  13.864
86390W        W58006  44.455  25.805  12.074
86391W        W58007  28.147  19.125   0.372
86392W        W58008   8.146   1.531  14.892
86393W        W58009  20.553  37.895  13.374
86394W        W58010  10.279  16.074   3.963
86395W        W58011  22.545  36.456  14.325
86396W        W58012  28.716   2.488   3.170
86397W        W58013  35.684  29.984  11.567
86398W        W58014   5.520  16.430  12.429
86399W        W58015   4.876   9.689  13.927
86400W        W58016  12.772  41.436  11.554
86401W        W58017  36.583  31.061   4.902
86402W        W58018   0.080  44.763   1.210
86403W        W58019  39.480  36.567  13.355
86404W        W58020  40.441  10.755   0.710
86405W        W58021  36.871   9.482   1.960
86406W        W58022  34.918   2.022  11.462
86407W        W58023   1.868  33.754  11.108
86408W        W58024  15.190  23.702  12.342
86409W        W58025   2.267  30.202   0.417
86410W        W58026  35.422  38.882   1.802
86411W        W58027   9.478  29.962   0.927
86412W        W58028  21.899  35.351   1.180
86413W        W58029  44.842  44.234  14.807
86414W        W58030  26.555  13.475  10.805
86415W        W58031  20.151  27.158  10.664
86416W        W58032  12.807  12.238   1.888
86417W        W58033  22.636  16.407  14.004
86418W        W58034  20.094  40.015   0.860
86419W        W58035  15.697   7.339  13.768
86420W        W58036  16.042   1.018   3.489
86421W        W58037  10.722  22.042   0.827
86422W        W58038  42.031   1.410   4.850
86423W        W58039  22.836   8.824   1.226
86424W        W58040   9.323  16.741   3.186
86425W        W58041  36.019  26.431  14.911
86426W        W58042  21.078   5.937   0.981
86427W        W58043  42.547  44.309  13.027
86428W        W58044  37.513  17.297   3.287
86429W        W58045  44.849  30.694   3.753
86430W        W58046  30.003   7.430   2.246
86431W        W58047  21.959   1.545  13.836
86432W        W58048  13.368  25.194  13.892
86433W        W58049  27.628  28.007  11.387
86434W        W58050  36.040   9.491  12.376
86435W        W58051   4.771  20.163   0.282
86436W        W58052   1.904  23.053  10.993
86437W        W58053   9.612   7.289  14.988
86438W        W58054  22.187  24.452   4.835
86439W        W58055  26.236   9.326   2.736
86440W        W58056  36.630   1.364  13.828
86441W        W58057  25.090  29.982  13.468
86442W        W58058  29.380   7.539  14.369
86443W        W58059  44.714  42.971   4.663
86444W        W58060  30.957  12.225   1.617
86445W        W58061  27.743  21.210   1.766
86446W        W58062  18.549   4.745  13.559
86447W        W58063  38.501  44.484   1.838
86448W        W58064   7.193  24.233   0.402
86449W        W58065  31.341   3.803  12.404
86450W        W58066   2.882  41.033   3.844
86451W        W58067  22.232   4.141  12.482
86452W        W58068  39.378  12.887  10.600
86453W        W58069  15.043  27.063   2.418
86454W        W58070  11.276   6.682   3.818
86455W        W58071  29.363  37.476  13.573
86456W        W58072  32.957  30.876  14.871
86457W        W58073   4.310  12.213   2.728
86458W        W58074  34.510  33.423   3.250
86459W        W58075   0.728   9.220  14.423
86460W        W58076  42.463  18.247   4.608
86461W        W58077   2.000  33.474   3.830
86462W        W58078  35.096  42.270   3.838
86463W        W58079  23.907  38.947  11.709
86464W        W58080  39.628   0.350  11.595
86465W        W58081  15.040  10.349  11.652
86466W        W58082  33.926  42.577  12.986
86467W        W58083  32.061   8.979   0.859
86468W        W58084  32.696  30.450  10.772
86469W        W58085   9.185   0.381  13.293
86470W        W58086  10.937  19.564   3.796
86471W        W58087  28.052  35.190   1.359
86472W        W58088  28.125  37.750   4.809
86473W        W58089  36.775  13.066  10.191
86474W        W58090  22.239   5.108  14.895
86475W        W58091  12.655   7.870  11.563
86476W        W58092  38.412  13.841   0.355
86477W        W58093   5.909  18.796  11.607
86478W        W58094  35.757  40.516   5.034
86479W        W58095  23.390  40.198  13.931
86480W        W58096   3.329   2.860   3.186
86481W        W58097  12.686  43.578   4.555
86482W        W58098   6.939  24.190  14.952
86483W        W58099  42.985   7.387   4.571
86484W        W58100  35.932  43.525  11.089
86485W        W58101   6.367  17.717  12.511
86486W        W58102  33.495  35.078   1.393
86487W        W58103  26.151   3.004   3.580
86488W        W58104  13.585  38.039  11.135
86489W        W58105  38.613  11.164  11.133
86490W        W58106   3.729  43.440  13.939
86491W        W58107  44.113  27.373   9.943
86492W        W58108  15.518  29.380  11.185
86493W        W58109  35.016  43.021  14.342
86494W        W58110  41.976  36.755  11.935
86495W        W58111  44.944   6.647   0.263
86496W        W58112  44.263  10.406   3.687
86497W        W58113  40.954   6.482  14.119
86498W        W58114   4.377   3.690   2.740
86499W        W58115  31.614   9.897   1.051
86500W        W58116  14.580  13.561   2.184
86501W        W58117  10.283   9.705   1.084
86502W        W58118  42.871  39.001  12.380
86503W        W58119  36.017  42.586   2.244
86504W        W58120   2.724  39.460  13.056
86505W        W58121   7.280  41.092  13.344
86506W        W58122  27.296  38.716   0.236
86507W        W58123  33.513  31.596  10.355
86508W        W58124  32.282   1.994   9.804
86509W        W58125  28.644  19.786  14.978
86510W        W58126  18.758   4.895  13.995
86511W        W58127  26.182  42.568   1.695
86512W        W58128  27.705  28.192  10.382
86513W        W58129  30.554   6.997   0.002
86514W        W58130  28.844   5.358  10.630
86515W        W58131  26.638  43.453  12.929
86516W        W58132  24.762  34.381  13.384
86517W        W58133  20.190  15.053   4.133
86518W        W58134  26.653   3.382   1.858
86519W        W58135   2.376  24.593  12.329
86520W        W58136   9.455  34.675  10.803
86521W        W58137  28.639  23.388   0.439
86522W        W58138  44.673  33.982   4.000
86523W        W58139   0.086   6.254   4.046
86524W        W58140  14.602  34.314  13.801
86525W        W58141  41.823  36.406  13.355
86526W        W58142  13.084  12.605  13.903
86527W        W58143  22.523  37.365   2.863
86528W        W58144  42.006   6.539  13.927
86529W        W58145  13.784  32.574   3.050
86530W        W58146  39.897  24.205  13.134
86531W        W58147   6.439  43.017   2.820
86532W        W58148  26.482  13.437  13.069
86533W        W58149  11.159  24.445  14.457
86534W        W58150  11.897  10.315   0.259
86535W        W58151   4.284  37.771  14.767
86536W        W58152   6.429  11.391   4.549
86537W        W58153  35.644  44.801  11.119
86538W        W58154   8.573  11.221   1.506
86539W        W58155  11.761  37.492  12.103
86540W        W58156  44.655   5.363  11.155
86541W        W58157  35.839   7.390   0.381
86542W        W58158   3.472  31.507  12.490
86543W        W58159   0.781  22.800   2.197
86544W        W58160  13.122  15.857  11.722
86545W        W58161  22.262  37.986   2.836
86546W        W58162  20.873  38.341   0.332
86547W        W58163  41.859  11.823   4.628
86548W        W58164  22.642  10.644   3.171
86549W        W58165   9.695  38.749  11.402
86550W        W58166  38.819   2.817  12.435
86551W        W58167  15.668   7.827  14.051
86552W        W58168  15.281  22.516   0.879
86553W        W58169   6.267  16.067   4.655
86554W        W58170  37.362   9.692   2.862
86555W        W58171  27.025  41.402   2.134
86556W        W58172   1.910  18.682   3.800
86557W        W58173  21.819  41.055  11.209
86558W        W58174  38.506  29.869   5.079
86559W        W58175  25.605  40.441   0.224
86560W        W58176  27.882  19.555  11.174
86561W        W58177  21.614  44.354   1.245
86562W        W58178  18.452  21.208   4.486
86563W        W58179  30.116   0.978  13.628
86564W        W58180  27.532  18.792   1.883
86565W        W58181   0.023   6.208   2.360
86566W        W58182  30.006  32.102  14.309
86567W        W58183  13.676   3.852  14.277
86568W        W58184  39.054   9.583   2.227
86569W        W58185  16.141   3.604  12.003
86570W        W58186  14.129   5.451  11.514
86571W        W58187  34.463  17.261   1.449
86572W        W58188   5.740  20.404   2.650
86573W        W58189  26.429  43.380   4.201
86574W        W58190  42.305  30.504   2.659
86575W        W58191   8.767  36.218   5.210
86576W        W58192   2.820  37.591  14.979
86577W        W58193  21.587  43.028   3.309
86578W        W58194  23.608  24.638  11.987
86579W        W58195   6.349  12.550   3.185
86580W        W58196  34.366  42.502   0.011
86581W        W58197  24.641  20.938  12.566
86582W        W58198  10.721  37.039   3.564
86583W        W58199   1.205  41.391  12.260
86584W        W58200  14.974  41.964   3.474
86585W        W58201  22.140  17.149   2.572
86586W        W58202  22.585   0.366   2.703
86587W        W58203  29.137  13.342  14.321
86588W        W58204  34.175  31.050   1.319
86589W        W58205  33.384   7.802  13.025
86590W        W58206  19.261  26.551  13.811
86591W        W58207  41.684  24.237   2.645
86592W        W58208  44.818  16.728   0.291
86593W        W58209  22.647  31.380  11.204
86594W        W58210  12.390  27.440  12.051
86595W        W58211  12.258  37.625   3.178
86596W        W58212  39.971   7.039  12.463
86597W        W58213  39.182  44.965  10.733
86598W        W58214  14.496  39.084  10.353
86599W        W58215  18.806   6.143  12.915
86600W        W58216   6.391  13.241   1.165
86601W        W58217  37.398   0.362   2.309
86602W        W58218  15.061  24.675  13.039
86603W        W58219  17.953   0.052  10.192
86604W        W58220   1.865  18.545   4.286
86605W        W58221  40.865   0.977   0.772
86606W        W58222  29.960  33.103  14.715
86607W        W58223  27.542  17.804  12.881
86608W        W58224  41.738  13.717  12.071
86609W        W58225  23.474  14.788  13.435
86610W        W58226  30.184  15.652   0.871
86611W        W58227  12.837  10.121  12.005
86612W        W58228  16.523  14.634  12.331
86613W        W58229  33.918  32.560  13.615
86614W        W58230  20.516   6.447  12.473
86615W        W58231  43.319  40.593  11.860
86616W        W58232  17.031   0.935   3.212
86617W        W58233  32.608  41.455   1.182
86618W        W58234  41.778  24.961   0.597
86619W        W58235  12.103  37.554  10.535
86620W        W58236  30.679  31.600  14.360
86621W        W58237  16.901  44.393  13.033
86622W        W58238  22.009   3.310   0.677
86623W        W58239   6.769   9.469  13.998
86624W        W58240  31.390  30.824   1.341
86625W        W58241   9.702  26.844  10.713
86626W        W58242  43.988  28.988  13.517
86627W        W58243  29.461  44.611  12.605
86628W        W58244  44.103  19.776  11.312
86629W        W58245  12.729  28.099   1.277
86630W        W58246  43.598  37.495   3.682
86631W        W58247  33.136  40.007   2.812
86632W        W58248  42.218  24.760  13.222
86633W        W58249  36.474  15.124  10.478
86634W        W58250  22.744   9.193   2.407
86635W        W58251  19.167   6.398   3.305
86636W        W58252   2.829  32.599   4.245
86637W        W58253  26.054   5.275   1.162
86638W        W58254  28.211  38.090  12.133
86639W        W58255  41.827  27.022  11.119
86640W        W58256   8.267  23.926  12.431
86641W        W58257   1.134  40.869   1.330
86642W        W58258   0.501  23.453   0.295
86643W        W58259  43.977  13.282  10.448
86644W        W58260  33.758  21.597  13.578
86645W        W58261  42.032   0.178  12.377
86646W        W58262  25.639  15.023   3.745
86647W        W58263  17.686  40.991   4.281
86648W        W58264  14.175  37.089  12.478
86649W        W58265  23.242   7.408   1.165
86650W        W58266  24.963   4.988   3.432
86651W        W58267  22.797  23.920   3.334
86652W        W58268  42.560  41.838   4.766
86653W        W58269   6.400   9.796   0.385
86654W        W58270  36.483  35.035  11.906
86655W        W58271  31.364  17.241  11.208
86656W        W58272  10.338  42.766  14.455
86657W        W58273   5.511  15.150   1.859
86658W        W58274  35.855  40.174  12.029
86659W        W58275  41.905  15.331  12.777
86660W        W58276  33.453  38.930  10.298
86661W        W58277  27.633  23.711  11.765
86662W        W58278   5.326   8.412   0.861
86663W        W58279   6.965  34.368  11.997
86664W        W58280  23.624  39.736   3.311
86665W        W58281   8.154  11.127  12.434
86666W        W58282  19.171   7.919   1.709
86667W        W58283  36.873  40.048   1.796
86668W        W58284  17.190  17.069   3.255
86669W        W58285  31.886  23.659  12.902
86670W        W58286  29.178  32.585  14.391
86671W        W58287   4.210  18.050   3.437
86672W        W58288   7.801  33.349  14.498
86673W        W58289  32.837  19.536  10.982
86674W        W58290  31.948  43.374  11.949
86675W        W58291  10.844  41.035   4.363
86676W        W58292   2.086  10.953   3.651
86677W        W58293  10.650  44.913   2.330
86678W        W58294  14.556  20.659  10.645
86679W        W58295   1.891  10.224   3.920
86680W        W58296   6.461  41.392  10.647
86681W        W58297  38.383   5.049   1.869
86682W        W58298  12.709   0.391   2.574
86683W        W58299  42.823   7.792   0.235
86684W        W58300   0.567  19.283   2.035
86685W        W58301  33.797  44.868  13.709
86686W        W58302  42.839  22.561   4.055
86687W        W58303  32.948  10.664  13.949
86688W        W58304  20.136   9.928  10.737
86689W        W58305   4.375  31.877   4.473
86690W        W58306  23.665  26.755  12.816
86691W        W58307  30.526  26.609  11.003
86692W        W58308  28.667  32.127  12.000
86693W        W58309  17.230  40.342   0.574
86694W        W58310  19.142  25.087   1.907
86695W        W58311  30.594   6.195  11.800
86696W        W58312  36.971  20.443   1.712
86697W        W58313  14.075   2.867  12.594
86698W        W58314  39.871  14.929  14.978
86699W        W58315  14.848  27.107  13.854
86700W        W58316  21.839  15.843  14.384
86701W        W58317  32.078  34.957   0.225
86702W        W58318  18.135   7.019  14.275
86703W        W58319  41.960  20.599   2.392
86704W        W58320  16.660  42.499   3.388
86705W        W58321   9.705  19.520  11.437
86706W        W58322   5.173  12.397   0.256
86707W        W58323  33.904   2.445   5.002
86708W        W58324  30.441  11.359   2.606
86709W        W58325  30.649   1.158  11.594
86710W        W58326  20.772   0.523   2.735
86711W        W58327  26.404  19.114  11.168
86712W        W58328   1.908   4.921  11.859
86713W        W58329  30.149  42.311  11.020
86714W        W58330   5.191  18.848  11.164
86715W        W58331  39.493   8.133   4.747
86716W        W58332  23.049  25.459  12.094
86717W        W58333  19.086  14.523   3.575
86718W        W58334  36.010  30.871  14.199
86719W        W58335  33.522  22.728   2.927
86720W        W58336   8.019  32.616   4.361
86721W        W58337  14.771  25.610   4.114
86722W        W58338  15.059  20.382   3.013
86723W        W58339  26.118  11.439  14.232
86724W        W58340  11.841  15.606   0.388
86725W        W58341  36.877  25.747   1.726
86726W        W58342  13.674  37.217   1.162
86727W        W58343  35.448   8.199   3.755
86728W        W58344  27.485  13.440   4.100
86729W        W58345  19.197  26.636  11.180
86730W        W58346  41.541  28.734   1.718
86731W        W58347  30.362  34.453  11.945
86732W        W58348  37.252  24.647  11.014
86733W        W58349  20.794   6.309   1.300
86734W        W58350  30.965  44.246  14.625
86735W        W58351  41.564  11.993   4.206
86736W        W58352   2.493  22.517   4.615
86737W        W58353   4.825  30.577  14.152
86738W        W58354  43.756  26.696  11.592
86739W        W58355  11.834  32.011   3.532
86740W        W58356   5.253  34.493  11.829
86741W        W58357   9.866  26.076   4.056
86742W        W58358  14.847  10.931  11.144
86743W        W58359  10.225  29.526  12.678
86744W        W58360  39.420   6.699  13.740
86745W        W58361  40.922  14.224   3.631
86746W        W58362  15.463  18.606  14.357
86747W        W58363   0.299  16.530  11.645
86748W        W58364  21.104  21.043  13.848
86749W        W58365  37.769   7.486  10.302
86750W        W58366   5.797  39.296  14.563
86751W        W58367  36.600  15.092   1.889
86752W        W58368   1.335  38.902  13.399
86753W        W58369   8.690  35.195   0.777
86754W        W58370  26.978  37.106  10.712
86755W        W58371  32.113  36.243   2.396
86756W        W58372  22.536  41.057   2.409
86757W        W58373   5.731  30.293  14.933
86758W        W58374  23.820   0.898  13.791
86759W        W58375   2.985  38.110  14.559
86760W        W58376  23.355  37.287   4.083
86761W        W58377  24.052  27.143  13.781
86762W        W58378  28.928  17.624  11.014
86763W        W58379  42.516  33.579   4.664
86764W        W58380  41.089  41.549   4.176
86765W        W58381   3.272   6.680   0.695
86766W        W58382  42.278  30.118   4.225
86767W        W58383  17.991  12.320  12.966
86768W        W58384   6.092  32.144   1.644
86769W        W58385  22.675  19.799   0.433
86770W        W58386  17.199  11.377   2.807
86771W        W58387  30.538  35.509  11.167
86772W        W58388  34.789  41.453   0.447
86773W        W58389  25.743  17.377   5.051
86774W        W58390  44.211  14.603   4.211
86775W        W58391  28.947  27.491  11.045
86776W        W58392  27.508  19.166   2.685
86777W        W58393  22.869  21.049  12.664
86778W        W58394  13.110   7.780  14.326
86779W        W58395  18.290  43.504   5.596
86780W        W58396   5.365  34.378   4.708
86781W        W58397  26.596  41.242  11.934
86782W        W58398  28.672   4.884  14.906
86783W        W58399  30.222  29.698  12.014
86784W        W58400  37.058  33.557   2.579
86785W        W58401  13.619  36.892  12.617
86786W        W58402  13.157  26.133  10.637
86787W        W58403  25.200  13.329  13.530
86788W        W58404  23.036  21.852  13.821
86789W        W58405  28.654  17.709  14.812
86790W        W58406  44.224  35.166   2.094
86791W        W58407  25.633  38.598   1.269
86792W        W58408  42.337   6.746   4.154
86793W        W58409  35.979  18.053   4.001
86794W        W58410  27.623  23.100  14.433
86795W        W58411  14.774   9.137  10.473
86796W        W58412  27.052  25.234  10.749
86797W        W58413   3.839  41.939  11.646
86798W        W58414  31.536  37.062   3.232
86799W        W58415  11.704  15.133  12.033
86800W        W58416  24.282  25.711   2.116
86801W        W58417  13.333  18.539  14.751
86802W        W58418  21.909  12.634  14.975
86803W        W58419  35.889   3.386  11.898
86804W        W58420  24.984  15.504   3.257
86805W        W58421  33.205   2.383   4.569
86806W        W58422  38.935  39.942   0.353
86807W        W58423  19.979   1.438  13.015
86808W        W58424  15.033  14.537  14.036
86809W        W58425   3.970  20.346   0.898
86810W        W58426  31.626  44.725   1.440
86811W        W58427   3.770  39.090  14.957
86812W        W58428  12.732  41.074   0.339
86813W        W58429  29.954  13.890  13.940
86814W        W58430  27.129  28.404   4.575
86815W        W58431  21.291  40.397   1.734
86816W        W58432  28.072  41.686  10.660
86817W        W58433   6.697  21.786  14.369
86818W        W58434  27.039  25.118   0.178
86819W        W58435   7.750  28.155   1.997
86820W        W58436  39.439  42.010   1.870
86821W        W58437  40.295  14.941  13.353
86822W        W58438  27.223  34.970  10.966
86823W        W58439  44.523   3.424  14.297
86824W        W58440   0.709  13.747  11.047
86825W        W58441  23.486  10.134   4.437
86826W        W58442  26.328  11.860  12.880
86827W        W58443  19.676  33.551   4.568
86828W        W58444  34.560  21.794  11.173
86829W        W58445  18.484  34.220  14.289
86830W        W58446   0.385  11.172   1.265
86831W        W58447  17.524  20.253  11.075
86832W        W58448  11.951  34.905  13.346
86833W        W58449  33.909   3.827  13.514
86834W        W58450  11.215  30.065  10.650
86835W        W58451  20.972  44.639  11.286
86836W        W58452  12.314   2.882  12.264
86837W        W58453  42.918  13.819   4.128
86838W        W58454   4.568   8.419   0.359
86839W        W58455  28.454  24.621  13.528
86840W        W58456  12.790  41.557   1.043
86841W        W58457  19.333  39.346  13.246
86842W        W58458  40.828   5.407  13.495
86843W        W58459   3.234  25.142  14.930
86844W        W58460  26.456   0.870  14.209
86845W        W58461  41.523  35.522   2.109
86846W        W58462  16.077  23.695   1.756
86847W        W58463  22.536  39.867   2.778
86848W        W58464  18.282  30.505   3.261
86849W        W58465   9.838  40.808   4.210
86850W        W58466  24.195  27.635  13.892
86851W        W58467  19.663   0.203  11.274
86852W        W58468   9.374  43.998  12.316
86853W        W58469  25.701  13.872  12.419
86854W        W58470  34.377  23.153   0.463
86855W        W58471  40.541  36.871  12.051
86856W        W58472  27.020  15.785  10.748
86857W        W58473  20.567  17.745   3.131
86858W        W58474  10.210  22.684   1.179
86859W        W58475  10.119  42.403   3.601
86860W        W58476  16.294  40.224  13.947
86861W        W58477  14.278  17.670  13.953
86862W        W58478   2.443  15.703   0.975
86863W        W58479  23.300  18.092  13.489
86864W        W58480   6.890  13.855   0.819
86865W        W58481  20.517   0.319  13.810
86866W        W58482   8.207   4.845  14.518
86867W        W58483  38.859  42.050   0.349
86868W        W58484  25.227  44.885  13.289
86869W        W58485   2.541   0.825   0.637
86870W        W58486  39.688   0.016   0.284
86871W        W58487  28.363  19.511  11.291
86872W        W58488  27.042  10.464   0.305
86873W        W58489   6.799  15.716   2.753
86874W        W58490  31.512   4.629  11.578
86875W        W58491   6.364  28.994  10.667
86876W        W58492  35.263  39.958   3.573
86877W        W58493  43.651  19.906  14.195
86878W        W58494  29.245   0.394   2.228
86879W        W58495  10.460  38.310   1.234
86880W        W58496   9.203  15.384  12.500
86881W        W58497  17.866   0.870   0.396
86882W        W58498  40.770  18.570   5.175
86883W        W58499  17.264   4.795   4.147
86884W        W58500   7.548  26.695  11.194
86885W        W58501  15.918  18.000  11.411
86886W        W58502  13.808  15.025  10.752
86887W        W58503  22.720  32.582  11.566
86888W        W58504  43.893  32.711  11.082
86889W        W58505  32.435  24.652  11.044
86890W        W58506  21.062  32.783  13.248
86891W        W58507  24.999  39.941   1.254
86892W        W58508   4.855  25.965   0.355
86893W        W58509  18.703  40.913  10.663
86894W        W58510  27.325  19.573   4.827
86895W        W58511  28.672  17.677   4.699
86896W        W58512   1.210  12.826   4.267
86897W        W58513  25.687   2.829   1.224
86898W        W58514  25.941  23.679   3.625
86899W        W58515  33.354  28.446   3.291
86900W        W58516  41.578  12.691   1.797
86901W        W58517  20.254   4.369   1.450
86902W        W58518   2.758  28.045  11.630
86903W        W58519  42.254  18.178  12.555
86904W        W58520  30.385  42.379  12.780
86905W        W58521   3.390  37.072   3.641
86906W        W58522   6.782  44.686  13.914
86907W        W58523  40.803  40.264  11.989
86908W        W58524  27.607   8.414  13.748
86909W        W58525   7.343  42.416  14.767
86910W        W58526  14.120   7.195   0.367
86911W        W58527  30.592   6.728   1.737
86912W        W58528  16.249  24.162   3.112
86913W        W58529  10.279  42.260  14.356
86914W        W58530  40.497  16.139   0.362
86915W        W58531  31.457   8.401   1.476
86916W        W58532   1.251  24.075   4.700
86917W        W58533  41.472  11.857  13.278
86918W        W58534  20.079  34.098  10.886
86919W        W58535  38.303  37.052  14.910
86920W        W58536  35.566  36.595   2.229
86921W        W58537  33.976  37.968  12.502
86922W        W58538  40.521  35.423   1.836
86923W        W58539   4.558   2.769  12.101
86924W        W58540  38.004  38.097   1.321
86925W        W58541  11.627  41.345   2.350
86926W        W58542  31.660   9.300  14.727
86927W        W58543  21.002   5.501  11.019
86928W        W58544  21.057  23.192   1.878
86929W        W58545   7.280  17.663  10.660
86930W        W58546   4.703   5.003   4.115
86931W        W58547  27.701  17.519  11.901
86932W        W58548  43.911  41.362  11.925
86933W        W58549  35.513   5.871  10.929
86934W        W58550  30.116  28.116   4.023
86935W        W58551  37.369  23.401   1.778
86936W        W58552   9.704   1.913  13.586
86937W        W58553  34.935   4.814   5.165
86938W        W58554   2.035  27.657   4.548
86939W        W58555  18.027  27.552   4.563
86940W        W58556  19.031  40.534   1.438
86941W        W58557  29.648  42.679  10.013
86942W        W58558  17.614  44.547   0.158
86943W        W58559  10.223  41.507  13.387
86944W        W58560   2.276   4.839   3.090
86945W        W58561  20.063  17.494  13.201
86946W        W58562  32.145  10.366   4.044
86947W        W58563  29.429  42.847   2.716
86948W        W58564   8.170  32.340   2.486
86949W        W58565  22.666   0.698   4.528
86950W        W58566  14.756  17.492  14.063
86951W        W58567  40.037   7.351   1.315
86952W        W58568  22.510  32.974  14.652
86953W        W58569  11.630  22.125  13.574
86954W        W58570  33.794  25.453  12.848
86955W        W58571  30.552  40.844  13.013
86956W        W58572   8.306  31.740   2.739
86957W        W58573   4.601  21.825  13.335
86958W        W58574  28.500   2.689   3.900
86959W        W58575  17.770  40.328   1.924
86960W        W58576   6.078  33.063  12.395
86961W        W58577  13.266  33.186   3.682
86962W        W58578  13.408  43.313  11.570
86963W        W58579  16.291  38.965   3.106
86964W        W58580   0.354   9.024   3.731
86965W        W58581  43.262   9.131  14.438
86966W        W58582  23.704   1.566  11.488
86967W        W58583  36.534   9.143   2.917
86968W        W58584  33.527  13.093  10.935
86969W        W58585  13.556  32.911   3.343
86970W        W58586  27.181  12.068   0.509
86971W        W58587  23.742  40.106   1.840
86972W        W58588   8.817  24.324  12.352
86973W        W58589  40.313  29.094  11.792
86974W        W58590   4.156  22.470   5.095
86975W        W58591  31.934  42.780  10.997
86976W        W58592  12.595  19.502  14.344
86977W        W58593  22.077  21.041   2.330
86978W        W58594  38.080  10.682   2.317
86979W        W58595  10.401  10.694  11.734
86980W        W58596  31.330  21.065   1.618
86981W        W58597  22.150   3.374  11.026
86982W        W58598  21.918  11.771  13.903
86983W        W58599  27.266   6.719  14.286
86984W        W58600  39.980   7.961  13.424
86985W        W58601  36.413  41.895  14.731
86986W        W58602   2.354  40.006  10.591
86987W        W58603   2.451  11.242   4.539
86988W        W58604  24.254   7.180   1.421
86989W        W58605  13.589  17.601   1.721
86990W        W58606  16.932  18.277  11.362
86991W        W58607  43.368  22.596   2.503
86992W        W58608   0.328  34.738  14.723
86993W        W58609  39.312  16.664  12.544
86994W        W58610   0.466  31.892  14.303
86995W        W58611  35.817   4.307   1.235
86996W        W58612  39.657   1.062   0.845
86997W        W58613  38.381  31.872   2.698
86998W        W58614  32.331  28.672   3.357
86999W        W58615  34.375  41.208   3.633
87000W        W58616  34.599   6.337  14.324
87001W        W58617  38.133  29.930   1.532
87002W        W58618  12.739  14.692   2.970
87003W        W58619   1.262  21.628   4.630
87004W        W58620  29.674  28.222  11.041
87005W        W58621  11.862   2.800   4.089
87006W        W58622  40.759  23.180   3.206
87007W        W58623  23.603  10.887  13.023
87008W        W58624  15.689  11.440   3.552
87009W        W58625   5.483  33.156  14.526
87010W        W58626  33.120  22.512  11.065
87011W        W58627   8.766  17.655  11.937
87012W        W58628   4.923   1.767  10.174
87013W        W58629   8.755   3.252  14.791
87014W        W58630  14.166  36.847  12.936
87015W        W58631  10.853  25.943   4.101
87016W        W58632  11.705  20.449  14.847
87017W        W58633  18.571  13.938  11.447
87018W        W58634  19.734  44.385   1.251
87019W        W58635  19.694  14.433   2.839
87020W        W58636   6.246  41.831  13.948
87021W        W58637   2.855  23.897  11.116
87022W        W58638  38.836  36.583  12.498
87023W        W58639  30.666  43.716  14.883
87024W        W58640  29.988   4.733  13.873
87025W        W58641  25.661  16.318  11.420
87026W        W58642  10.984  40.469  13.041
87027W        W58643  23.624  23.698   0.821
87028W        W58644  14.186  10.295   0.718
87029W        W58645  15.825  44.486   3.417
87030W        W58646  34.325  29.803  10.632
87031W        W58647  16.638   9.641   3.435
87032W        W58648  22.224  40.847   4.363
87033W        W58649  28.088  14.525   0.738
87034W        W58650  10.927  27.887   4.259
87035W        W58651  20.655  23.783   3.138
87036W        W58652  33.161  26.535   3.947
87037W        W58653   0.788  19.553   2.427
87038W        W58654   6.770  40.796   3.449
87039W        W58655  41.883  32.634   3.859
87040W        W58656  13.810  17.976   0.364
87041W        W58657   4.818   6.138   3.189
87042W        W58658   4.747   9.280  10.919
87043W        W58659  28.786  13.316   4.567
87044W        W58660  37.567  10.095   1.247
87045W        W58661   8.365   6.545   4.126
87046W        W58662   8.794  10.949   3.040
87047W        W58663  16.814  27.669   2.303
87048W        W58664   8.434  23.911  11.091
87049W        W58665  19.949   3.222   0.549
87050W        W58666  16.721  19.341   0.316
87051W        W58667  28.453   2.733   4.845
87052W        W58668  23.029   2.035   1.656
87053W        W58669  37.432  13.781  12.007
87054W        W58670   4.676   4.206  13.934
87055W        W58671  27.925  17.381   1.335
87056W        W58672  20.605  42.439   2.767
87057W        W58673  29.028  21.509   3.699
87058W        W58674  17.416  12.779  13.047
87059W        W58675  40.298   4.337  10.728
87060W        W58676  33.570  22.012  12.937
87061W        W58677  10.610   5.455   2.792
87062W        W58678  34.827   4.176   2.763
87063W        W58679  33.399  26.658  10.571
87064W        W58680  30.195  12.326  11.225
87065W        W58681  10.849   9.787  13.902
87066W        W58682   3.150  25.952   2.782
87067W        W58683  40.982   2.769   3.730
87068W        W58684  43.935   3.412  12.339
87069W        W58685  36.077   8.129  12.806
87070W        W58686  18.528  22.561  12.514
87071W        W58687   8.340   0.866   3.667
87072W        W58688  25.972  27.563  10.517
87073W        W58689  17.972  27.351  13.319
87074W        W58690  14.664  41.321  10.971
87075W        W58691  34.284   1.807  14.851
87076W        W58692  39.584  26.184   1.783
87077W        W58693  43.383   4.287  14.063
87078W        W58694   3.259   9.220   0.710
87079W        W58695  40.760  25.358   4.453
87080W        W58696  36.939  17.430  14.493
87081W        W58697   6.161  12.886  14.024
87082W        W58698   1.755  12.019  13.262
87083W        W58699  15.801  26.556   2.380
87084W        W58700  11.815   1.011   1.285
87085W        W58701  32.321  24.219  14.516
87086W        W58702  17.528  28.711   1.460
87087W        W58703  15.677  25.632   3.641
87088W        W58704  43.996   9.578   3.844
87089W        W58705  21.202  30.930   1.723
87090W        W58706  11.324   6.361  13.997
87091W        W58707  39.918   8.997   2.979
87092W        W58708   1.945  31.851  14.315
87093W        W58709  26.699  27.556   4.556
87094W        W58710  38.951   9.818   0.498
87095W        W58711  35.852   6.207   3.687
87096W        W58712  39.234  34.159  14.767
87097W        W58713   0.390  36.597  13.801
87098W        W58714  32.178  10.920  12.563
87099W        W58715  23.097  19.204  12.917
87100W        W58716  23.971  21.018   2.176
87101W        W58717  42.426  36.839   1.818
87102W        W58718  25.098  25.734  11.214
87103W        W58719  40.978  43.414   1.739
87104W        W58720   3.338  34.846  11.936
87105W        W58721  26.074  40.272   0.325
87106W        W58722  40.038   7.688  13.874
87107W        W58723  20.076  34.707  13.439
87108W        W58724  32.092  18.686   2.736
87109W        W58725  28.059  25.847  11.072
87110W        W58726  17.058  37.966  12.614
87111W        W58727  16.646  44.370  10.967
87112W        W58728  22.140  17.823  10.372
87113W        W58729  44.649  19.571   4.579
87114W        W58730  43.455  41.692  13.937
87115W        W58731   9.878  13.031   4.935
87116W        W58732  32.488  10.052   2.648
87117W        W58733  23.469  44.427   0.853
87118W        W58734  28.599  38.448  12.124
87119W        W58735  21.495  44.824   3.679
87120W        W58736  12.040   5.946   3.780
87121W        W58737  28.973  33.482   3.243
87122W        W58738   8.234  35.842  14.446
87123W        W58739  14.783  43.759  11.926
87124W        W58740  14.942  36.084   3.854
87125W        W58741   7.415  16.272  11.204
87126W        W58742   1.819  40.961  14.470
87127W        W58743   5.100  14.172   1.449
87128W        W58744  22.437  10.118  12.707
87129W        W58745  31.453  37.941  10.539
87130W        W58746  28.015  40.560  12.089
87131W        W58747  10.380  34.336  10.505
87132W        W58748  17.681  44.178  12.420
87133W        W58749  40.053  34.443   0.586
87134W        W58750  44.550  19.001  13.434
87135W        W58751  39.794  13.082   1.236
87136W        W58752  36.230  10.638  13.030
87137W        W58753  32.447   9.902  12.979
87138W        W58754  14.659  10.179   4.177
87139W        W58755  39.318  11.375  13.947
87140W        W58756  12.797  18.306   2.322
87141W        W58757  19.075  21.651   0.667
87142W        W58758  41.848   1.880  10.810
87143W        W58759  40.222  35.918  13.885
87144W        W58760  19.278  26.057  14.442
87145W        W58761  28.675  42.374  11.475
87146W        W58762  14.325  29.447   1.169
87147W        W58763   9.289   7.757   4.312
87148W        W58764  18.803  40.397   0.433
87149W        W58765  29.075  32.127   3.634
87150W        W58766   2.718  16.145   0.899
87151W        W58767  18.268  21.227  14.777
87152W        W58768  35.643   1.024  11.535
87153W        W58769  25.064  30.657   0.314
87154W        W58770  31.446   1.412   0.159
87155W        W58771  16.795  42.913  13.566
87156W        W58772   7.231   0.738   5.394
87157W        W58773  20.889  24.493  11.174
87158W        W58774  23.009  18.612  10.116
87159W        W58775  32.480  22.735  11.110
87160W        W58776  13.384  15.994   0.354
87161W        W58777  22.337  13.780  12.669
87162W        W58778  38.943  32.171   3.589
87163W        W58779  14.023  33.868   1.293
87164W        W58780   6.871  14.031  14.912
87165W        W58781  17.723   2.161  14.290
87166W        W58782  40.982  37.483   4.535
87167W        W58783  26.511  20.816   1.922
87168W        W58784  27.929  23.213   2.273
87169W        W58785   0.393   6.423  13.900
87170W        W58786  14.906  28.807  10.219
87171W        W58787  10.430  20.577   2.806
87172W        W58788  40.900  41.612   0.255
87173W        W58789   8.461  15.684   0.384
87174W        W58790  28.049  36.998  11.270
87175W        W58791  41.430  35.873   2.486
87176W        W58792  32.372  11.627   0.343
87177W        W58793  10.684  16.072  10.631
87178W        W58794  44.896  35.430  12.963
87179W        W58795   8.698  43.290  13.764
87180W        W58796  33.536  25.528  13.285
87181W        W58797  21.628  29.445   2.155
87182W        W58798  38.267  42.343  14.006
87183W        W58799  38.812  26.698   0.415
87184W        W58800  31.562  25.548   0.476
87185W        W58801  24.038  22.622  10.599
87186W        W58802  24.253  26.360   0.186
87187W        W58803  15.069  32.134   3.194
87188W        W58804  25.709  40.399  14.224
87189W        W58805  38.396  13.709  14.112
87190W        W58806  10.597  20.713   1.301
87191W        W58807   8.704  16.624   3.566
87192W        W58808  16.243  31.888  13.562
87193W        W58809  20.550  17.286  13.303
87194W        W58810  16.350   5.321   0.031
87195W        W58811  40.181  11.378  13.298
87196W        W58812  38.456  37.828   1.348
87197W        W58813  18.220  36.002  14.543
87198W        W58814   9.858  44.511  12.999
87199W        W58815  31.774  40.550  12.571
87200W        W58816   0.675   8.130   0.488
87201W        W58817  25.607  12.629  12.182
87202W        W58818   6.338   1.044  11.859
87203W        W58819   3.893  13.636   3.236
87204W        W58820  18.085  22.558  10.391
87205W        W58821  19.257  21.761   2.254
87206W        W58822   9.923  19.639   0.928
87207W        W58823  38.271  39.693   2.878
87208W        W58824   9.798  36.944  14.898
87209W        W58825   2.842  35.387   3.170
87210W        W58826   4.718  12.680   0.249
87211W        W58827   1.402  37.116   2.621
87212W        W58828  44.441   2.387   1.013
87213W        W58829  32.715  17.340  13.673
87214W        W58830  39.450  34.315  12.957
87215W        W58831  25.994  28.962  10.970
87216W        W58832   7.387  30.694   1.593
87217W        W58833  34.285  34.672  11.522
87218W        W58834  22.296  27.224   3.699
87219W        W58835   9.463   2.263   0.280
87220W        W58836  26.957  32.263  11.918
87221W        W58837  39.499   5.657  13.517
87222W        W58838   4.710  32.160  14.575
87223W        W58839   5.099   8.219   0.445
87224W        W58840  23.556  32.921   4.389
87225W        W58841   9.859  35.297  12.092
87226W        W58842  39.630  25.713  10.749
87227W        W58843  17.404  17.148  10.866
87228W        W58844  18.240  32.904  11.113
87229W        W58845  13.702  25.478   2.764
87230W        W58846   6.827  35.139  11.030
87231W        W58847  31.031  11.718  14.313
87232W        W58848  31.993   1.813  14.112
87233W        W58849   8.464  39.176  11.429
87234W        W58850  34.915  11.573   0.361
87235W        W58851  41.398   0.326   2.918
87236W        W58852  38.862  41.058   1.281
87237W        W58853   3.788   7.033  13.579
87238W        W58854  31.519   3.203  14.355
87239W        W58855  21.570  43.567   4.238
87240W        W58856  13.161  17.291   1.469
87241W        W58857  36.536  38.844  14.645
87242W        W58858  43.387  13.144   2.133
87243W        W58859   0.556  25.595  11.278
87244W        W58860   6.070  34.061  11.909
87245W        W58861  14.253  21.603   1.978
87246W        W58862   9.927   5.288   1.056
87247W        W58863  16.579  26.413  11.591
87248W        W58864   8.451  25.188  13.929
87249W        W58865  42.293  26.437   4.216
87250W        W58866  16.237  17.588   2.595
87251W        W58867  15.070  35.803  13.313
87252W        W58868  25.215  10.632  11.533
87253W        W58869  14.650  16.246   2.265
87254W        W58870  15.692  20.765   9.990
87255W        W58871  28.589  22.238  13.055
87256W        W58872  15.148  11.625  11.540
87257W        W58873  10.064  10.072  12.463
87258W        W58874  26.941  18.776   4.576
87259W        W58875   7.341   5.506   2.385
87260W        W58876  21.077  41.505   3.595
87261W        W58877  35.807   4.551  11.211
87262W        W58878  32.048  31.904  12.401
87263W        W58879  20.747  37.209  12.972
87264W        W58880   3.898  33.489   1.891
87265W        W58881  43.824  35.055  12.599
87266W        W58882  44.648  12.354  14.587
87267W        W58883  25.664   0.770  10.686
87268W        W58884  11.866  29.199  11.163
87269W        W58885  35.898  16.377  14.099
87270W        W58886  17.327  18.033  12.655
87271W        W58887  29.974  25.264   2.724
87272W        W58888  23.620  19.144  11.103
87273W        W58889  19.111   8.970   3.060
87274W        W58890  37.989  31.902   0.983
87275W        W58891  21.589   5.354   0.576
87276W        W58892  42.937  28.558   2.874
87277W        W58893  41.911  16.426   1.556
87278W        W58894  39.418  35.413   1.904
87279W        W58895  14.449  34.439   2.750
87280W        W58896  22.221  42.879   2.202
87281W        W58897  11.765  27.388  11.467
87282W        W58898  18.882   6.195   4.292
87283W        W58899  23.633  13.366   3.553
87284W        W58900  10.320  44.414   3.730
87285W        W58901  12.719  39.532   1.844
87286W        W58902  35.030  23.428   2.916
87287W        W58903  12.270  35.355   2.164
87288W        W58904  23.449  23.467  12.048
87289W        W58905   8.762  15.172   2.899
87290W        W58906  12.273  24.021  13.767
87291W        W58907  19.122   0.311  12.916
87292W        W58908  38.786  37.476   1.925
87293W        W58909  12.977  37.334   3.549
87294W        W58910  16.935  17.768  12.867
87295W        W58911   5.546   5.603   2.206
87296W        W58912   6.460   0.506   4.554
87297W        W58913   6.719  36.457  12.851
87298W        W58914  25.475  28.876  11.234
87299W        W58915  39.781  34.295   2.075
87300W        W58916   0.937  26.995  14.946
87301W        W58917  24.231  33.034   2.284
87302W        W58918  21.904   9.877  13.199
87303W        W58919  43.877   1.736  12.000
87304W        W58920  44.753   1.592   3.710
87305W        W58921  16.726  10.587  14.964
87306W        W58922  30.686  19.642  12.471
87307W        W58923  38.404   1.624  14.973
87308W        W58924  20.517  33.652  11.561
87309W        W58925   9.630   9.076  14.403
87310W        W58926  19.005  28.989   4.373
87311W        W58927  37.672   8.884  13.047
87312W        W58928  23.823   7.947  11.649
87313W        W58929   0.211  37.372   2.062
87314W        W58930  26.073  29.460   0.122
87315W        W58931  31.497  33.160   2.401
87316W        W58932  10.922  37.805   4.889
87317W        W58933  28.909  33.464  14.929
87318W        W58934  42.288  19.322  14.374
87319W        W58935   8.912  12.324   2.653
87320W        W58936  31.619  43.852  14.436
87321W        W58937  43.151   6.689  12.193
87322W        W58938  10.769  29.580   1.328
87323W        W58939  35.441  21.535  14.868
87324W        W58940  43.596  43.970   0.302
87325W        W58941  14.239  33.536  14.985
87326W        W58942   4.175  22.459   4.163
87327W        W58943  36.864  20.241  10.536
87328W        W58944  13.323  29.125   0.029
87329W        W58945  40.960   4.296   4.733
87330W        W58946  43.003   1.371  11.012
87331W        W58947  10.418  13.142   3.271
87332W        W58948  19.932  43.227   4.983
87333W        W58949  28.161  28.198   3.915
87334W        W58950  13.839   9.320  13.539
87335W        W58951  31.345  20.029  13.339
87336W        W58952  28.628   3.300  10.852
87337W        W58953  27.893  19.739   1.884
87338W        W58954   9.758  24.103  10.728
87339W        W58955   4.622  24.873   5.504
87340W        W58956  31.519  29.997  10.111
87341W        W58957   2.174  11.719   4.500
87342W        W58958  26.080  27.265   3.097
87343W        W58959   9.060   1.787   2.103
87344W        W58960  23.248   9.120   2.434
87345W        W58961  10.897  10.118   1.083
87346W        W58962  40.509   4.242  14.722
87347W        W58963  17.314   7.897  10.947
87348W        W58964  41.505  31.592  12.485
87349W        W58965  13.661   0.260   0.479
87350W        W58966  26.071  33.601  14.502
87351W        W58967   0.406  19.275   0.783
87352W        W58968  34.546   4.696   3.219
87353W        W58969   0.424  30.684   1.791
87354W        W58970  30.117  27.579   4.102
87355W        W58971  36.420  36.044   3.165
87356W        W58972  28.195  28.363  14.340
87357W        W58973  18.184  39.883   0.718
87358W        W58974  40.097  23.902   1.981
87359W        W58975  26.161  24.192   3.517
87360W        W58976  28.382  40.945  14.805
87361W        W58977  37.551   6.805   2.334
87362W        W58978  16.821   1.824   2.541
87363W        W58979   5.183   2.434  10.917
87364W        W58980  13.583  22.676   4.197
87365W        W58981   4.321   6.105   1.519
87366W        W58982   6.704  32.287   2.403
87367W        W58983  35.372  19.325  11.050
87368W        W58984  29.750   2.946  12.721
87369W        W58985  11.526  44.292  14.412
87370W        W58986  28.450   1.042  11.726
87371W        W58987  31.572   2.732   1.156
87372W        W58988  44.811   7.983  12.499
87373W        W58989  37.160  14.181  12.336
87374W        W58990  16.296  13.137   3.287
87375W        W58991  25.568  33.471  14.653
87376W        W58992  32.241  31.024   3.589
87377W        W58993  42.095  16.201  11.632
87378W        W58994  19.281  33.027   3.339
87379W        W58995   0.670  44.377  10.667
87380W        W58996   0.933  36.123   2.772
87381W        W58997  30.156   3.310   2.141
87382W        W58998  30.321  17.430   1.937
87383W        W58999   8.827   9.807  10.599
87384W        W59000  30.587  44.728   2.223
87385W        W59001  26.538   6.341  14.329
87386W        W59002  44.867  27.208   1.223
87387W        W59003  10.305  19.461   4.799
87388W        W59004  11.269  37.394  10.880
87389W        W59005  29.806  33.894  11.632
87390W        W59006  28.454  44.026  13.538
87391W        W59007  14.897  42.480  10.675
87392W        W59008  18.107  25.005   1.926
87393W        W59009  18.325  43.195   3.201
87394W        W59010  26.911  25.212   2.180
87395W        W59011  25.185  10.120  11.547
87396W        W59012  25.543   7.312   2.257
87397W        W59013  25.218  25.552   1.747
87398W        W59014  12.769  16.597  11.058
87399W        W59015  19.902   5.345  13.426
87400W        W59016  34.323  29.080  12.480
87401W        W59017  42.687  38.465   5.202
87402W        W59018  41.578  32.470  12.287
87403W        W59019  38.607  20.813  12.583
87404W        W59020  26.756  18.743   5.092
87405W        W59021  41.078  44.512  11.104
87406W        W59022   9.679  32.843   4.734
87407W        W59023  14.838  27.276  12.151
87408W        W59024  39.753  42.838  12.024
87409W        W59025  11.929  13.201   4.565
87410W        W59026  22.677  39.349  12.933
87411W        W59027  42.265  14.091   3.126
87412W        W59028  31.970  39.513  11.684
87413W        W59029  25.032  40.494   0.857
87414W        W59030  25.406  33.386   4.201
87415W        W59031  24.614  20.093   3.872
87416W        W59032  19.244  14.361   2.602
87417W        W59033  13.558  36.047  14.967
87418W        W59034   9.554  40.741   2.398
87419W        W59035  23.545  39.230  13.856
87420W        W59036  28.460  24.141  10.960
87421W        W59037  10.548  27.728  12.121
87422W        W59038  44.431  22.001  11.212
87423W        W59039  40.765  31.511   0.850
87424W        W59040  20.175  18.757  14.297
87425W        W59041   4.187  10.736   4.082
87426W        W59042  27.512  38.111  12.057
87427W        W59043  39.318  31.234  10.612
87428W        W59044  15.915  22.782  10.910
87429W        W59045  29.539   7.226  13.574
87430W        W59046  19.501  30.482  14.829
87431W        W59047  41.620  23.500  10.641
87432W        W59048  19.701  17.482  11.569
87433W        W59049   0.396  33.925  11.398
87434W        W59050  25.496  14.302  12.906
87435W        W59051  43.667   1.988   0.977
87436W        W59052  24.373  38.390  14.793
87437W        W59053  28.071  16.555   1.911
87438W        W59054  36.102  32.025   3.627
87439W        W59055  13.351  43.516  13.857
87440W        W59056  12.394  39.608  12.789
87441W        W59057  20.595  26.424  13.399
87442W        W59058  16.029  27.159  10.749
87443W        W59059  29.700  15.258  14.005
87444W        W59060   8.934   7.424   2.912
87445W        W59061   4.442  43.255   3.201
87446W        W59062  29.453  41.477   2.465
87447W        W59063  34.970   1.202   2.938
87448W        W59064  14.356   6.777   2.731
87449W        W59065  16.828  14.499  13.559
87450W        W59066  40.891  13.624   1.920
87451W        W59067  19.616  13.392   1.603
87452W        W59068  27.996   8.846   0.945
87453W        W59069  41.327  34.524   2.883
87454W        W59070  26.617  40.293   3.858
87455W        W59071  20.931  36.635  13.379
87456W        W59072  18.505  27.120   2.742
87457W        W59073  16.581  17.350  11.125
87458W        W59074  22.228  31.677   1.293
87459W        W59075   7.845  23.182   3.206
87460W        W59076   9.185   6.427   0.931
87461W        W59077   9.844  28.556   1.154
87462W        W59078  33.561  30.186   0.390
87463W        W59079  31.952  27.527   0.119
87464W        W59080   7.828   7.413  13.343
87465W        W59081  44.877  18.853   3.837
87466W        W59082  15.959  13.165  11.139
87467W        W59083  39.945  31.229   1.200
87468W        W59084  33.132   1.326   4.632
87469W        W59085  27.958  13.268   2.625
87470W        W59086  26.978  25.523  11.180
87471W        W59087  10.186   9.548   2.020
87472W        W59088  28.254  30.714   2.820
87473W        W59089  29.474  14.892   3.707
87474W        W59090  41.268  33.407   1.982
87475W        W59091  16.556  15.727   1.469
87476W        W59092  41.321  24.705  10.618
87477W        W59093  30.358   9.420  12.389
87478W        W59094  23.541  31.232   2.701
87479W        W59095  38.840   8.379  10.681
87480W        W59096   3.653  37.981   3.182
87481W        W59097  25.226  36.787  14.445
87482W        W59098  35.920  36.139  12.421
87483W        W59099  41.072  16.383   4.046
87484W        W59100  21.229  37.571  14.193
87485W        W59101  34.467  34.951   2.745
87486W        W59102  25.668  16.785   3.344
87487W        W59103  28.652  37.860  13.942
87488W        W59104  14.840   9.187  14.712
87489W        W59105   4.713   6.955   0.210
87490W        W59106  36.359  38.007  10.685
87491W        W59107  37.918   3.135  13.838
87492W        W59108  31.398   1.935  12.385
87493W        W59109  24.768  39.111   0.965
87494W        W59110   7.930  22.754  10.426
87495W        W59111  27.527  39.509   0.491
87496W        W59112  27.972   6.900   4.589
87497W        W59113  23.320  18.545  12.141
87498W        W59114   2.654  20.949   4.762
87499W        W59115  22.534  37.028  13.906
87500W        W59116  24.341   0.430   2.251
87501W        W59117   1.909  41.051   1.046
87502W        W59118  25.673  10.377  13.890
87503W        W59119   9.297  35.138   1.374
87504W        W59120  44.939  38.868   4.525
87505W        W59121   8.203  26.470   3.566
87506W        W59122  30.873  33.205   2.715
87507W        W59123  42.302  36.883   4.797
87508W        W59124  26.670  14.391  10.512
87509W        W59125  20.712  32.879   1.701
87510W        W59126  43.464  19.452  12.511
87511W        W59127  14.564  12.298  11.563
87512W        W59128  37.867  26.906  11.937
87513W        W59129   5.416  20.531  12.122
87514W        W59130   9.376   9.671   0.660
87515W        W59131  39.960   0.657   0.800
87516W        W59132  27.079  24.595   0.910
87517W        W59133  13.678  23.099   4.559
87518W        W59134   6.020  22.138  11.391
87519W        W59135  36.055  23.052   0.911
87520W        W59136  38.777  10.380   4.703
87521W        W59137  12.859  38.036  10.534
87522W        W59138  24.752  19.132   0.166
87523W        W59139  30.228   4.460  14.876
87524W        W59140  34.077  33.117   4.074
87525W        W59141  28.223  16.689  11.557
87526W        W59142   0.918  43.976  12.882
87527W        W59143  41.368  22.640  10.713
87528W        W59144  41.740   4.826  10.336
87529W        W59145  25.730  36.117  14.052
87530W        W59146  36.351   4.715  13.959
87531W        W59147  34.331  10.377   0.745
87532W        W59148  23.551   1.765  11.948
87533W        W59149  28.924  13.142   4.091
87534W        W59150   1.872   8.781  12.567
87535W        W59151  19.476  29.958   3.266
87536W        W59152  27.229  29.977   2.732
87537W        W59153  13.348   0.496   0.165
87538W        W59154  12.209  34.378  10.937
87539W        W59155   5.756   5.184  11.457
87540W        W59156  15.365  35.695   2.944
87541W        W59157  32.453  43.665   9.760
87542W        W59158  16.696  30.451   4.764
87543W        W59159  32.132  20.048   0.006
87544W        W59160  33.553  15.764   3.268
87545W        W59161  28.067  35.496  10.002
87546W        W59162  25.205   6.444  14.257
87547W        W59163  22.566   2.769   1.314
87548W        W59164  15.684  43.374  10.722
87549W        W59165  16.013  37.554  14.365
87550W        W59166  13.415  19.110   3.129
87551W        W59167  19.578   4.488   1.686
87552W        W59168  43.555  19.703  14.852
87553W        W59169  21.571   5.738  10.544
87554W        W59170  28.226   9.206  13.413
87555W        W59171   8.397  13.799   1.417
87556W        W59172  25.996  27.701  11.940
87557W        W59173  21.225   4.762  11.630
87558W        W59174   6.733   2.428   2.786
87559W        W59175   0.770  36.091  13.846
87560W        W59176  34.218  28.708   4.172
87561W        W59177  19.186   3.159   1.693
87562W        W59178  11.874  28.290   2.397
87563W        W59179  36.402  35.833  10.840
87564W        W59180   4.207  17.685  14.374
87565W        W59181   2.007   5.331  12.589
87566W        W59182  23.929  26.308  13.452
87567W        W59183  39.101  35.040  12.649
87568W        W59184  35.335   3.534  14.277
87569W        W59185  17.725  29.875  11.583
87570W        W59186   5.202   8.159  10.963
87571W        W59187  17.758  24.719   3.185
87572W        W59188  41.848  25.455  13.358
87573W        W59189  12.179   0.823   4.744
87574W        W59190  14.445  29.097  13.400
87575W        W59191  25.781  22.177   2.331
87576W        W59192   7.181  20.147  13.447
87577W        W59193   0.814   0.785   0.430
87578W        W59194  36.701   0.842   1.013
87579W        W59195  31.958  29.150  11.009
87580W        W59196  22.308  24.616  13.361
87581W        W59197  33.871  15.182  10.760
87582W        W59198   7.273  28.875   1.455
87583W        W59199  28.451   7.420   3.751
87584W        W59200  34.834   0.682  13.526
87585W        W59201  14.378  31.937   2.413
87586W        W59202  38.113  29.216   1.294
87587W        W59203  31.430  30.058  11.051
87588W        W59204   7.402  39.747   2.714
87589W        W59205  20.794   8.206   4.208
87590W        W59206  24.985   8.221  11.740
87591W        W59207  33.383  36.789  11.501
87592W        W59208   4.300  16.199  13.056
87593W        W59209  31.530   3.642  11.498
87594W        W59210   2.655  44.293   2.284
87595W        W59211   1.978  22.004   0.189
87596W        W59212  21.525  40.112   1.283
87597W        W59213  30.072  27.684  13.302
87598W        W59214   4.534  42.578  11.617
87599W        W59215   8.210   1.772   3.296
87600W        W59216  13.398  27.264   1.279
87601W        W59217  10.803  33.232  10.068
87602W        W59218  37.346   8.793   4.576
87603W        W59219  32.992  26.632   2.441
87604W        W59220  26.248  37.416   2.076
87605W        W59221  27.692   3.226   3.520
87606W        W59222  34.970  23.552  13.366
87607W        W59223  39.049  26.448   4.643
87608W        W59224  33.496  39.892   2.447
87609W        W59225  18.729  42.271   3.361
87610W        W59226  21.227  37.093   1.013
87611W        W59227  26.124  27.894   2.462
87612W        W59228   4.465  21.329  13.383
87613W        W59229  14.711   8.678   4.985
87614W        W59230  42.302  33.856   3.813
87615W        W59231  25.637   7.331   0.745
87616W        W59232  18.639  27.754  14.954
87617W        W59233  15.688  17.721  14.034
87618W        W59234   3.801  18.610   2.260
87619W        W59235   6.881  12.306  14.058
87620W        W59236  32.506  25.110   0.325
87621W        W59237  27.472  34.902   2.358
87622W        W59238  23.134   8.440   0.349
87623W        W59239  24.011  13.672  10.369
87624W        W59240  41.856   3.262   4.185
87625W        W59241  43.190   2.739   2.863
87626W        W59242   9.293   7.686  14.277
87627W        W59243   7.769  41.055   2.744
87628W        W59244   0.033  26.390   4.096
87629W        W59245  16.280  18.616  13.971
87630W        W59246  35.938  16.463   4.278
87631W        W59247  13.396   7.502  13.395
87632W        W59248  28.297  24.989  11.138
87633W        W59249  12.775  25.315  11.638
87634W        W59250   0.223   4.500   3.742
87635W        W59251   1.822  36.557   2.319
87636W        W59252   7.138  18.831  11.086
87637W        W59253  35.597  20.694   4.212
87638W        W59254   0.396  35.280  13.016
87639W        W59255  10.172  35.072   4.463
87640W        W59256   6.039  23.726   3.147
87641W        W59257  10.771  15.289  12.489
87642W        W59258  18.198  23.522  12.425
87643W        W59259  39.818  32.115   0.731
87644W        W59260  14.169   2.995  14.812
87645W        W59261  34.441  44.053   1.880
87646W        W59262  21.017   2.671   1.363
87647W        W59263   6.205  41.837  10.682
87648W        W59264  19.285  19.671   1.887
87649W        W59265   9.520  38.007  12.542
87650W        W59266  24.988  34.078   3.751
87651W        W59267  39.016  20.517  14.384
87652W        W59268  30.820  13.051  11.682
87653W        W59269   9.623   2.928  14.017
87654W        W59270  19.683  39.811  13.457
87655W        W59271   5.406  28.093   0.517
87656W        W59272  41.008  22.255   3.226
87657W        W59273  40.076  38.976  12.644
87658W        W59274  26.515  41.601   1.446
87659W        W59275  31.546   7.001  14.814
87660W        W59276  12.313  13.672  14.859
87661W        W59277   7.828   2.624   2.363
87662W        W59278  18.683   5.825  13.477
87663W        W59279  40.722  37.205   3.211
87664W        W59280   6.846   7.748   3.423
87665W        W59281  20.606  43.824  11.796
87666W        W59282  19.486  21.422   1.006
87667W        W59283  36.108   4.713  12.157
87668W        W59284   7.201  43.882  13.887
87669W        W59285  16.748  40.775  11.669
87670W        W59286  12.590  44.955   2.243
87671W        W59287  27.470  30.914  12.206
87672W        W59288  17.491  36.636  11.918
87673W        W59289  25.486  19.828  13.481
87674W        W59290  38.482  32.514   2.242
87675W        W59291   9.615  43.270   3.101
87676W        W59292   6.569   0.003   4.673
87677W        W59293  11.393  17.772   0.383
87678W        W59294  11.264  15.235  12.321
87679W        W59295  25.650  32.795  14.074
87680W        W59296  23.279  37.058   1.433
87681W        W59297  14.619  18.721  13.171
87682W        W59298   5.736  28.495   4.501
87683W        W59299   2.421  41.020  11.577
87684W        W59300  18.330  26.523   2.876
87685W        W59301  22.508   5.018  10.414
87686W        W59302  43.865  23.184  13.666
87687W        W59303  17.325  35.364   4.681
87688W        W59304  21.200  22.602  13.807
87689W        W59305  14.238  34.633   1.460
87690W        W59306  36.786  39.144   1.348
87691W        W59307  19.755  35.138   2.077
87692W        W59308  18.773  29.399  13.514
87693W        W59309   2.499  19.722  11.522
87694W        W59310  11.060   8.042  11.039
87695W        W59311  36.344  38.769  11.973
87696W        W59312  28.553  22.600   1.887
87697W        W59313   7.196  19.200  11.627
87698W        W59314   3.830  12.216   0.842
87699W        W59315   6.144  44.023   4.493
87700W        W59316  10.607  27.471   4.377
87701W        W59317  27.586  20.115   2.579
87702W        W59318   4.988  35.892   3.872
87703W        W59319  28.123  15.518   0.955
87704W        W59320   1.301  38.737   3.722
87705W        W59321  26.549  19.605  13.414
87706W        W59322   3.290  16.833  10.228
87707W        W59323  26.541  11.102  14.296
87708W        W59324  29.366  25.032  10.254
87709W        W59325   0.510  39.528  13.331
87710W        W59326  18.270  33.621  12.372
87711W        W59327  34.608  10.215   0.302
87712W        W59328  38.885  40.429  12.622
87713W        W59329  13.085  19.478   2.371
87714W        W59330  11.793  10.182  11.277
87715W        W59331  10.847  38.280  14.974
87716W        W59332  12.385  25.406  14.807
87717W        W59333  24.494  39.695  13.972
87718W        W59334  14.264  23.946  14.855
87719W        W59335  22.644  30.154  14.328
87720W        W59336  25.104   7.750   3.171
87721W        W59337   8.146   6.338   0.201
87722W        W59338   8.938  42.553  13.010
87723W        W59339   4.477   9.160  11.720
87724W        W59340  21.425   1.607  11.959
87725W        W59341  18.022  11.150   3.241
87726W        W59342  41.663  38.918  12.081
87727W        W59343   1.796  21.197  11.163
87728W        W59344  21.521  41.573  14.507
87729W        W59345  36.907  13.078  11.132
87730W        W59346   8.456  16.206   4.168
87731W        W59347  22.548  15.175  11.268
87732W        W59348  13.256  32.818  10.739
87733W        W59349  25.219  16.178  12.196
87734W        W59350  36.287  12.845  12.521
87735W        W59351   4.494  18.786   0.011
87736W        W59352  16.196  30.912  13.851
87737W        W59353  10.662  14.709  14.454
87738W        W59354  14.734  21.493   2.827
87739W        W59355  38.578   0.425   4.263
87740W        W59356   7.833  22.634  14.983
87741W        W59357  37.588  20.218  14.301
87742W        W59358  41.541   7.460   3.200
87743W        W59359  29.007  41.246  13.901
87744W        W59360  31.199  11.631  12.552
87745W        W59361  17.038  24.541  11.892
87746W        W59362  40.878  26.264   4.804
87747W        W59363  34.603  10.594   4.212
87748W        W59364  32.665  25.491  13.473
87749W        W59365  18.169  21.275  13.884
87750W        W59366   6.132  26.943   2.122
87751W        W59367  29.605  11.689   3.150
87752W        W59368   5.829  11.668  11.200
87753W        W59369   4.049  36.534   1.708
87754W        W59370  15.082  19.834   3.262
87755W        W59371  21.770  20.567   0.859
87756W        W59372  26.524  31.691   2.759
87757W        W59373  36.468  13.212   0.441
87758W        W59374  21.471   9.100  12.720
87759W        W59375  30.842  19.230  13.385
87760W        W59376   2.128  39.931   3.422
87761W        W59377   3.891  25.706  13.065
87762W        W59378  28.926   3.773  11.500
87763W        W59379  42.690  33.442   0.854
87764W        W59380  32.630  22.556  13.438
87765W        W59381  19.257   7.771  13.176
87766W        W59382  40.931   4.328   0.884
87767W        W59383  13.788   4.287  10.607
87768W        W59384  23.975  17.091   2.323
87769W        W59385  21.287  38.563  12.307
87770W        W59386   6.201  39.957  11.201
87771W        W59387  31.558  26.311  13.627
87772W        W59388  37.938  38.348   0.836
87773W        W59389  20.793  42.006   5.061
87774W        W59390  22.971  30.641  13.818
87775W        W59391  28.312  18.074   2.593
87776W        W59392  37.926  10.205   5.403
87777W        W59393  25.259  15.726  14.432
87778W        W59394  19.436  23.997  12.554
87779W        W59395   1.785   1.338  12.619
87780W        W59396  44.004  18.998  10.805
87781W        W59397  12.599  14.724   1.728
87782W        W59398  20.107   1.226  12.519
87783W        W59399   6.619  18.373   0.370
87784W        W59400  19.430  31.681  10.556
87785W        W59401  20.758   9.438  11.125
87786W        W59402  32.038  15.343  14.279
87787W        W59403   2.084  23.695   3.824
87788W        W59404  22.498  15.727  13.435
87789W        W59405   4.691  44.435   1.120
87790W        W59406   7.857  43.290  10.416
87791W        W59407  17.624   6.377  10.495
87792W        W59408  22.307  30.732  12.466
87793W        W59409  42.263   1.793  10.470
87794W        W59410  41.636  30.080  10.842
87795W        W59411  13.417   4.058  10.877
87796W        W59412   3.617   8.373   0.275
87797W        W59413  15.176  17.929   0.266
87798W        W59414   4.203  20.245  12.408
87799W        W59415  11.426  21.036   5.021
87800W        W59416  25.166  20.803   3.756
87801W        W59417  17.740  33.543   1.465
87802W        W59418  42.092  43.877   2.701
87803W        W59419  13.797  26.582  14.570
87804W        W59420  33.363  19.522   4.985
87805W        W59421  13.284  24.181  11.995
87806W        W59422  30.708  30.435  11.008
87807W        W59423  40.851  22.765   4.095
87808W        W59424  43.502  22.344  11.085
87809W        W59425   0.242  43.261   1.269
87810W        W59426  17.728  13.526  12.462
87811W        W59427  34.350  38.305  14.432
87812W        W59428   9.154  10.813   4.865
87813W        W59429  43.939  21.185  13.617
87814W        W59430   7.390  33.678   4.326
87815W        W59431  33.065  13.183  13.991
87816W        W59432  21.311  11.264   0.040
87817W        W59433   9.847   4.207  12.002
87818W        W59434  32.980  13.117  11.707
87819W        W59435   1.838  33.263  14.539
87820W        W59436  43.958  40.894   0.532
87821W        W59437   9.690   0.837   0.885
87822W        W59438  31.466  16.885   4.588
87823W        W59439  16.099  24.951  11.091
87824W        W59440  26.999   9.405   4.166
87825W        W59441  13.780  10.585  14.403
87826W        W59442  43.402  18.741   0.016
87827W        W59443  44.746  14.478   2.403
87828W        W59444   6.652   2.483   0.153
87829W        W59445   7.650  39.168  14.397
87830W        W59446  19.011  15.646  13.038
87831W        W59447   3.373   3.823   5.133
87832W        W59448  14.141  27.699   1.063
87833W        W59449  41.753  37.904   2.781
87834W        W59450   9.628  14.738   2.946
87835W        W59451  27.854   1.361   2.234
87836W        W59452  21.202  20.518   4.295
87837W        W59453  24.951  31.868  14.776
87838W        W59454  24.122  29.649  13.809
87839W        W59455  31.159   0.903   0.980
87840W        W59456  16.947  10.705   2.311
87841W        W59457  29.962  19.173  11.687
87842W        W59458  10.579  36.763   2.575
87843W        W59459   1.235  24.229   3.208
87844W        W59460  23.706  39.599  12.591
87845W        W59461  29.220   5.704  14.904
87846W        W59462  21.990  31.554   0.351
87847W        W59463  35.960  21.556   1.418
87848W        W59464  12.237  11.114  10.649
87849W        W59465   7.222  29.451  14.920
87850W        W59466  37.377  42.555  13.464
87851W        W59467  34.412  19.370   1.336
87852W        W59468  43.049  11.492   2.880
87853W        W59469  33.988  43.801  11.025
87854W        W59470  40.356   5.008   0.857
87855W        W59471  26.823  21.174  11.212
87856W        W59472  42.206   4.759   0.696
87857W        W59473  39.082  17.842   1.202
87858W        W59474  24.992   7.854   4.671
87859W        W59475  27.787  42.340   2.751
87860W        W59476  19.574  41.901   4.063
87861W        W59477  11.046  38.083   0.759
87862W        W59478  10.550  20.491  10.956
87863W        W59479  18.537  29.142  10.972
87864W        W59480  31.658  23.305   0.695
87865W        W59481  18.346   9.397  12.422
87866W        W59482   6.400  26.093  13.107
87867W        W59483  11.880  44.234   2.151
87868W        W59484  33.460  44.316  14.049
87869W        W59485  36.033  36.035   4.224
87870W        W59486  30.079  21.282   3.292
87871W        W59487   5.588  25.067  14.403
87872W        W59488  19.907  28.163   0.901
87873W        W59489  38.995  40.990   3.723
87874W        W59490  29.209  24.063  12.773
87875W        W59491  32.734   0.004  14.852
87876W        W59492  34.811  13.376  11.437
87877W        W59493  21.113   0.899  12.479
87878W        W59494  11.722  16.098  14.086
87879W        W59495   5.077  17.223  13.445
87880W        W59496  30.955   4.165  11.067
87881W        W59497  27.804  22.324  12.145
87882W        W59498  22.030  30.731   3.825
87883W        W59499   3.948  13.521   0.833
87884W        W59500   5.409  36.356   1.287
87885W        W59501   9.591  12.883  14.235
87886W        W59502   4.636  23.537  11.211
87887W        W59503  25.770  30.989  13.901
87888W        W59504   4.145  42.972  10.408
87889W        W59505  10.012  28.091  14.419
87890W        W59506  35.901  30.168  12.410
87891W        W59507  16.087   9.029  13.448
87892W        W59508  21.256   3.762  11.320
87893W        W59509  19.706   6.623  12.903
87894W        W59510  32.525   8.621  13.536
87895W        W59511  10.710   4.939   0.385
87896W        W59512  34.196  25.949   0.348
87897W        W59513  26.165   0.435  12.476
87898W        W59514  31.190  33.507  13.496
87899W        W59515  36.558  30.672   3.135
87900W        W59516  30.677  32.532   0.358
87901W        W59517   1.500   7.757  11.576
87902W        W59518  38.078  33.909   0.319
87903W        W59519   1.967  28.599  11.754
87904W        W59520  13.708  21.695   1.180
87905W        W59521  33.879  15.210  14.300
87906W        W59522   2.368   1.436  13.223
87907W        W59523   9.703  28.542   0.150
87908W        W59524   0.900  19.086   3.241
87909W        W59525  27.313  19.136   2.202
87910W        W59526  35.988  40.813  11.341
87911W        W59527  36.392  36.276  11.111
87912W        W59528  18.352   5.626   3.182
87913W        W59529   0.882  38.131   2.774
87914W        W59530  19.072  11.934  12.840
87915W        W59531  15.266  33.159   3.284
87916W        W59532  34.082  38.409  10.341
87917W        W59533  27.672  23.625  11.261
87918W        W59534  22.045   3.445   3.548
87919W        W59535  39.846  22.505   3.713
87920W        W59536   0.431  20.225  11.997
87921W        W59537  32.998  39.264   1.351
87922W        W59538  44.499   7.890   2.844
87923W        W59539   0.328  23.547   2.626
87924W        W59540  21.142  15.838   3.694
87925W        W59541  26.186  17.796  13.830
87926W        W59542   4.232  41.072  14.286
87927W        W59543  37.663  40.734  14.570
87928W        W59544  17.807  43.350  13.372
87929W        W59545   0.459  38.554   0.882
87930W        W59546   4.432  44.690   4.170
87931W        W59547  15.218  24.179  14.969
87932W        W59548   3.761  25.868   3.620
87933W        W59549  39.087  31.703  10.686
87934W        W59550  42.671  43.949   2.279
87935W        W59551  30.704  40.339  12.940
87936W        W59552  39.444   5.275   0.279
87937W        W59553  16.345  33.073   1.233
87938W        W59554  23.532   1.015   2.645
87939W        W59555   8.390  16.736  13.804
87940W        W59556  40.299  39.423   3.195
87941W        W59557  37.500  31.980   0.854
87942W        W59558  42.966  21.959  13.047
87943W        W59559  10.620  41.880  12.952
87944W        W59560  27.260  16.779  10.672
87945W        W59561   7.751   9.273   0.958
87946W        W59562  42.326  17.258  14.082
87947W        W59563  42.033  31.773  14.805
87948W        W59564  20.218  21.147  13.012
87949W        W59565  41.846  16.063   3.933
87950W        W59566   8.798  14.083   0.209
87951W        W59567  38.310  15.162   2.668
87952W        W59568  12.986  40.512  12.804
87953W        W59569  27.619   8.952  12.867
87954W        W59570  37.855  18.827  12.899
87955W        W59571  22.874  16.257   0.290
87956W        W59572  43.725  20.311  13.409
87957W        W59573  19.270   8.925  10.745
87958W        W59574  31.685  21.711  14.025
87959W        W59575  15.750   8.615  13.369
87960W        W59576  35.066  10.719  13.788
87961W        W59577   7.797  21.158   3.705
87962W        W59578  24.618  23.401   4.622
87963W        W59579  14.797  34.809   2.621
87964W        W59580  16.323  22.127  13.375
87965W        W59581   9.659  24.216   0.413
87966W        W59582   9.788  39.861   2.000
87967W        W59583  40.406  40.132   2.414
87968W        W59584  29.655   1.695   4.591
87969W        W59585  42.077  16.113  12.392
87970W        W59586  10.298  12.946  13.940
87971W        W59587  27.390  13.061   5.038
87972W        W59588  21.698  24.040  13.969
87973W        W59589  26.694   7.769  13.891
87974W        W59590  22.991  13.820   3.271
87975W        W59591  11.230  14.226  12.874
87976W        W59592  44.203  28.383   3.325
87977W        W59593  31.369  41.391   4.270
87978W        W59594  20.206  24.015   0.011
87979W        W59595  30.487  23.810  11.496
87980W        W59596  17.798  24.127  14.955
87981W        W59597  14.277   5.689  13.977
87982W        W59598  35.041  21.674   0.345
87983W        W59599  29.876   6.781  14.309
87984W        W59600   0.863  44.605  13.690
87985W        W59601  33.575   5.232  13.134
87986W        W59602   9.743  30.201  12.627
87987W        W59603  38.934  38.756   0.884
87988W        W59604  33.369  33.518   2.398
87989W        W59605  19.775  31.371   3.881
87990W        W59606   8.787   0.951   4.102
87991W        W59607  23.058  30.505   1.977
87992W        W59608   7.778  32.158   2.193
87993W        W59609  41.577  16.215  11.557
87994W        W59610  38.930  31.581   0.281
87995W        W59611   7.650  41.551   2.867
87996W        W59612  34.018  37.510   3.190
87997W        W59613  18.340  10.322  12.938
87998W        W59614  36.780  37.034   3.948
87999W        W59615  17.386  31.613  14.425
88000W        W59616  32.665  24.559  13.445
88001W        W59617  17.053   8.703   0.835
88002W        W59618   8.488   9.728   3.745
88003W        W59619  32.362  24.028  12.625
88004W        W59620   0.044   7.286   4.614
88005W        W59621  24.053   8.365   0.313
88006W        W59622  17.119  39.329   3.268
88007W        W59623  27.090   8.888   3.165
88008W        W59624   2.959  13.603   3.104
88009W        W59625  23.236  27.975  11.187
88010W        W59626  19.568  31.251  11.508
88011W        W59627  19.175  29.097   3.384
88012W        W59628   0.220   5.832   2.766
88013W        W59629  12.467  12.246   2.687
88014W        W59630  29.645  17.801   0.890
88015W        W59631  18.536   6.592   4.143
88016W        W59632  25.888  16.249   3.325
88017W        W59633  20.493  44.311   2.654
88018W        W59634  21.651  38.133  14.858
88019W        W59635  17.772  23.721  12.582
88020W        W59636  12.377   4.830   1.871
88021W        W59637  25.848  14.015  10.170
88022W        W59638  42.924  39.297  14.037
88023W        W59639  24.042  37.537   2.993
88024W        W59640  10.853  28.669  13.491
88025W        W59641  29.065  44.012  11.134
88026W        W59642   1.989   5.409   1.201
88027W        W59643  27.418  16.279  13.940
88028W        W59644  20.784  26.546  10.571
88029W        W59645   7.690   5.497  12.058
88030W        W59646  42.539   9.332   0.386
88031W        W59647  36.973   2.245   0.288
88032W        W59648  28.697   8.800  12.289
88033W        W59649  15.790  36.141  13.499
88034W        W59650  36.214  23.837   1.307
88035W        W59651  34.874  44.087  13.872
88036W        W59652  41.296   8.404   4.118
88037W        W59653  28.194  20.128   1.718
88038W        W59654  28.073   6.085  13.610
88039W        W59655  32.091  27.627  14.005
88040W        W59656  21.211  40.050  10.116
88041W        W59657   6.954  13.166   1.362
88042W        W59658  18.271   7.002   2.456
88043W        W59659  40.845  31.719   4.250
88044W        W59660  13.863  26.983   1.186
88045W        W59661   7.359  17.550  12.147
88046W        W59662  26.704   4.985  13.409
88047W        W59663  43.595  42.283  14.804
88048W        W59664  25.224   1.498   0.907
88049W        W59665  22.098   5.812   1.712
88050W        W59666  35.373  22.125   3.142
88051W        W59667  43.865   3.413   4.551
88052W        W59668   2.632  44.057   4.596
88053W        W59669  41.212  29.440   0.806
88054W        W59670  40.048  38.083   1.357
88055W        W59671  37.448  23.116   2.648
88056W        W59672  39.313  25.189  14.755
88057W        W59673  28.256  26.145   3.803
88058W        W59674   6.845  23.046   1.482
88059W        W59675  35.637   5.526   0.353
88060W        W59676   9.859  41.075   4.669
88061W        W59677   0.249   9.209  13.352
88062W        W59678   6.104  34.849  12.571
88063W        W59679  36.537  30.031   1.052
88064W        W59680   4.403  23.922   0.683
88065W        W59681  15.801  37.099  14.250
88066W        W59682   6.228  25.537   3.045
88067W        W59683   5.458  26.436   2.354
88068W        W59684  39.267  36.337   4.625
88069W        W59685   9.114  16.271  13.923
88070W        W59686  13.059   3.494  11.548
88071W        W59687  22.208   2.241  14.939
88072W        W59688  15.965   5.881  12.767
88073W        W59689   5.243  40.799   3.612
88074W        W59690  22.474  25.920  10.049
88075W        W59691  41.453  21.657  12.492
88076W        W59692  37.353   1.275   1.655
88077W        W59693  14.260  44.041   2.116
88078W        W59694  39.039   2.452   0.774
88079W        W59695   3.351  32.524  13.725
88080W        W59696  17.643   3.285   1.360
88081W        W59697   9.278  17.741   3.040
88082W        W59698  42.847   9.021   1.333
88083W        W59699  19.018  25.493   1.116
88084W        W59700  23.783  26.224   3.872
88085W        W59701  12.169  41.868  12.898
88086W        W59702  35.255  18.623  10.596
88087W        W59703  11.812  37.754   4.310
88088W        W59704  11.612  27.192  11.982
88089W        W59705   9.189  22.411  10.322
88090W        W59706  26.046  22.582   1.018
88091W        W59707   2.892   1.970   2.648
88092W        W59708  29.263   6.851  12.892
88093W        W59709  31.374  13.773   0.829
88094W        W59710  14.140  32.960   1.350
88095W        W59711  29.928  34.115  11.147
88096W        W59712  23.150   3.701   2.007
88097W        W59713  21.020  12.709   2.718
88098W        W59714  35.547  36.566  11.562
88099W        W59715  26.494  16.613  12.588
88100W        W59716   4.325  26.395  10.600
88101W        W59717  43.566  39.410   0.855
88102W        W59718  14.152  28.461   3.221
88103W        W59719  44.239  29.741   1.448
88104W        W59720  27.425  29.971   3.224
88105W        W59721  31.861  31.283  12.079
88106W        W59722  22.288  40.898   2.848
88107W        W59723  20.336  42.836  14.089
88108W        W59724   7.708   4.551  12.084
88109W        W59725   8.686   0.292   0.193
88110W        W59726  31.855  11.208   3.750
88111W        W59727  39.044  12.437   1.330
88112W        W59728  44.150  21.740   1.380
88113W        W59729  40.094  34.911   2.669
88114W        W59730  36.737  25.270   1.515
88115W        W59731  43.755  37.845  14.792
88116W        W59732  40.338   9.509   0.994
88117W        W59733  40.514   4.785  10.933
88118W        W59734   5.627   5.736   4.842
88119W        W59735  34.469   2.291  14.923
88120W        W59736  10.779  26.357  10.752
88121W        W59737  12.457  39.432   4.878
88122W        W59738  18.859  18.284   4.694
88123W        W59739  19.729  27.031   3.382
88124W        W59740   9.720  10.737   3.712
88125W        W59741  18.690  16.452  11.330
88126W        W59742  12.239  43.450  13.426
88127W        W59743  25.314  18.918   2.182
88128W        W59744  29.019  33.748  10.441
88129W        W59745  25.173  38.603  11.095
88130W        W59746   4.395   8.955   3.713
88131W        W59747  16.239   5.745   3.273
88132W        W59748  25.943   9.316  13.488
88133W        W59749  28.045  24.056  14.488
88134W        W59750  17.355  23.621   2.623
88135W        W59751   6.027  42.479   0.377
88136W        W59752   1.231  10.407  13.917
88137W        W59753  12.626  37.276   1.329
88138W        W59754  27.449   1.981   3.368
88139W        W59755  34.891  22.482  12.523
88140W        W59756  15.324  34.327  13.389
88141W        W59757   1.710  25.616   4.767
88142W        W59758  17.073  15.504   4.082
88143W        W59759  14.653  21.170   4.168
88144W        W59760  36.020  43.479   0.554
88145W        W59761  43.068  14.978   3.609
88146W        W59762  11.281  38.545   0.901
88147W        W59763  36.038   7.943  13.292
88148W        W59764  18.268  41.497   2.825
88149W        W59765  37.507  30.705   4.120
88150W        W59766  24.677  12.156  10.472
88151W        W59767  34.894  34.383   0.036
88152W        W59768   7.571  26.246  14.028
88153W        W59769   8.892  23.588  11.468
88154W        W59770   2.256  26.042   0.442
88155W        W59771  41.661  42.063  14.385
88156W        W59772  22.955  18.174   2.441
88157W        W59773  44.833   1.197  13.463
88158W        W59774  38.493  24.728  10.669
88159W        W59775  34.438  39.051  12.071
88160W        W59776  28.231  35.054  13.341
88161W        W59777  18.512  15.680  13.936
88162W        W59778  16.781   9.725   0.712
88163W        W59779  25.374  40.136  11.109
88164W        W59780  42.527  25.070   2.890
88165W        W59781  43.063  15.282   4.553
88166W        W59782  37.072  15.858  14.471
88167W        W59783  30.666  15.737  13.963
88168W        W59784  31.864  15.848   1.892
88169W        W59785  16.643   3.251  13.188
88170W        W59786   2.424  15.677  11.151
88171W        W59787  12.183   2.432  12.481
88172W        W59788   0.410  39.455   4.432
88173W        W59789  41.388   7.587   0.349
88174W        W59790  20.523  15.730  12.962
88175W        W59791   6.262   3.680   1.798
88176W        W59792   7.684  20.637   0.014
88177W        W59793  43.257  32.135  12.604
88178W        W59794  23.620   5.000   3.175
88179W        W59795  23.655   0.745  12.385
88180W        W59796  17.307  36.569  10.601
88181W        W59797  10.278  20.696  10.544
88182W        W59798  14.048  34.605   4.082
88183W        W59799  30.994   3.929   1.414
88184W        W59800  22.186   3.016  11.393
88185W        W59801  31.521  18.391   4.604
88186W        W59802  19.214  15.025  12.578
88187W        W59803  26.567  29.057   1.183
88188W        W59804  16.628  24.050  14.486
88189W        W59805  42.481  35.763  12.532
88190W        W59806   5.621  26.923   1.988
88191W        W59807  26.780  44.462   3.095
88192W        W59808  17.703  27.070   3.320
88193W        W59809   8.219  13.827   4.915
88194W        W59810  32.542  37.761   1.967
88195W        W59811  29.177   8.183   4.828
88196W        W59812  41.530   9.127   4.950
88197W        W59813  10.893  23.023  11.542
88198W        W59814   9.267  44.382   3.393
88199W        W59815  38.858  10.878   0.957
88200W        W59816  23.561  12.604   1.417
88201W        W59817  36.535  20.759  14.844
88202W        W59818  38.333  17.509   1.362
88203W        W59819  14.077  18.510  11.550
88204W        W59820   2.529  32.419  13.043
88205W        W59821  25.136  38.580   3.773
88206W        W59822  24.764  32.365  13.038
88207W        W59823   0.824  41.456   9.844
88208W        W59824  31.468  33.937   4.137
88209W        W59825  29.044   7.150  13.432
88210W        W59826  28.454  18.404   2.994
88211W        W59827  22.307  40.863  11.199
88212W        W59828  26.979   5.337  11.440
88213W        W59829  14.999   9.798  13.882
88214W        W59830   4.984  16.222  10.817
88215W        W59831  34.499  40.556   2.837
88216W        W59832  25.578  25.024   3.288
88217W        W59833  40.857  42.600  13.350
88218W        W59834  16.859  37.903   4.307
88219W        W59835  19.549  32.908  12.526
88220W        W59836  19.721  44.025   4.699
88221W        W59837  24.567  32.923  11.959
88222W        W59838  22.284  38.572   3.873
88223W        W59839  34.508  11.244   2.856
88224W        W59840   6.242  37.821   1.355
88225W        W59841  25.381  39.082  13.329
88226W        W59842  26.203  17.674  13.343
88227W        W59843  37.019  37.912   0.788
88228W        W59844   4.126  21.231   0.519
88229W        W59845  15.586   8.009   0.974
88230W        W59846  23.160  18.566  10.722
88231W        W59847  22.017  31.240   3.688
88232W        W59848  41.462  16.788   1.634
88233W        W59849  33.571   7.465   0.659
88234W        W59850  10.813  35.856   1.086
88235W        W59851  20.687  38.418  14.389
88236W        W59852  17.050  35.517   0.240
88237W        W59853   4.437  10.896   2.101
88238W        W59854   4.758  39.325  11.713
88239W        W59855  12.312  37.611   4.131
88240W        W59856  10.259   8.232  12.435
88241W        W59857  39.317  41.822   2.728
88242W        W59858  27.211  42.946   2.256
88243W        W59859   3.231   1.509  14.824
88244W        W59860  31.976  44.368  11.366
88245W        W59861  29.055  31.095  10.601
88246W        W59862  22.208  33.901   0.370
88247W        W59863  26.658  34.966   3.659
88248W        W59864   5.395   7.312   2.643
88249W        W59865  35.002  10.877  10.673
88250W        W59866  37.587  29.999   1.451
88251W        W59867  21.013  43.705   1.774
88252W        W59868  22.657  15.668   3.941
88253W        W59869   4.992   7.863   2.453
88254W        W59870  18.646  42.459  12.873
88255W        W59871   3.293  37.412  10.616
88256W        W59872  34.039   7.641  12.441
88257W        W59873  42.603  16.239  11.497
88258W        W59874  35.647  15.906  11.265
88259W        W59875  19.790  15.190  13.229
88260W        W59876  37.850  14.139  14.782
88261W        W59877   3.765  32.481   0.044
88262W        W59878   7.866   7.411   4.155
88263W        W59879  37.087  28.045   3.667
88264W        W59880  25.032   0.486  12.476
88265W        W59881   7.747   2.847   0.807
88266W        W59882  26.177  33.626   4.624
88267W        W59883   7.646  37.341   2.199
88268W        W59884  44.541  13.427  12.944
88269W        W59885  24.941  25.223  12.323
88270W        W59886   3.245   5.802   1.002
88271W        W59887   9.823  27.916   3.834
88272W        W59888  17.558  13.367   3.650
88273W        W59889  34.562  26.451  12.609
88274W        W59890   6.852  35.081  14.067
88275W        W59891  21.505  25.675  11.541
88276W        W59892  30.843   6.685   4.478
88277W        W59893  23.606  34.903   0.735
88278W        W59894  42.491  29.176  11.010
88279W        W59895  25.289  44.916  10.991
88280W        W59896   7.795  27.899   3.808
88281W        W59897  33.383  24.950   4.102
88282W        W59898  40.364  36.957   0.858
88283W        W59899  32.668  43.595  13.996
88284W        W59900  16.747  42.942   4.292
88285W        W59901  18.247  38.602   0.347
88286W        W59902   9.069  43.809   1.008
88287W        W59903   6.649  37.532   2.230
88288W        W59904  25.693  22.130  13.489
88289W        W59905  18.044  28.800  13.452
88290W        W59906  28.966  20.097   3.221
88291W        W59907  33.609  15.267   2.507
88292W        W59908  37.699  37.526  13.931
88293W        W59909   5.091  28.743  12.488
88294W        W59910  22.711  23.916  12.420
88295W        W59911  23.253  22.652   2.356
88296W        W59912  31.678  17.376   4.588
88297W        W59913  41.525  17.603   2.908
88298W        W59914   8.635  32.014   2.428
88299W        W59915  37.899  10.625   4.491
88300W        W59916  13.327  10.701  11.524
88301W        W59917  15.722   3.086  10.124
88302W        W59918   8.480  11.845  11.165
88303W        W59919  42.092  25.838  11.586
88304W        W59920  38.093  30.143  13.298
88305W        W59921  14.586   7.658  14.489
88306W        W59922  39.556  26.663  10.916
88307W        W59923  13.334  32.493   2.187
88308W        W59924   9.341  42.151  12.005
88309W        W59925  31.728  30.528  10.985
88310W        W59926  39.403  19.646  14.477
88311W        W59927  24.675  11.208  11.167
88312W        W59928  14.009   2.446   2.835
88313W        W59929   0.893   6.270  13.102
88314W        W59930  17.952  42.972  13.961
88315W        W59931  13.581  12.255   4.788
88316W        W59932   7.075   8.235  14.577
88317W        W59933  37.575   3.758   2.211
88318W        W59934  38.319  21.533   0.441
88319W        W59935  40.927  39.799   1.709
88320W        W59936  35.495  17.282   0.421
88321W        W59937  16.098  14.751   2.552
88322W        W59938  14.934  13.793  14.804
88323W        W59939   2.836  31.558  13.176
88324W        W59940  11.371  26.552  12.966
88325W        W59941   1.749  22.605   4.052
88326W        W59942  10.902  31.907  12.792
88327W        W59943  32.383  13.812  13.870
88328W        W59944  24.386  31.897  12.014
88329W        W59945  32.334  12.801   0.069
88330W        W59946  17.272  34.180  12.613
88331W        W59947  40.753  22.876  11.875
88332W        W59948  20.098  40.542   0.962
88333W        W59949  33.506  32.075   0.173
88334W        W59950  23.304   5.282   2.810
88335W        W59951  25.909  29.745   1.616
88336W        W59952  16.047  38.037   0.347
88337W        W59953  33.703  17.693  13.878
88338W        W59954   1.880  32.330  12.446
88339W        W59955  38.969  15.162   5.315
88340W        W59956  19.834   2.421  14.695
88341W        W59957  10.329   1.959   9.873
88342W        W59958  29.666   3.663   2.016
88343W        W59959  24.193  17.564  11.093
88344W        W59960  17.567  19.525   2.272
88345W        W59961  18.785  42.228  11.878
88346W        W59962   3.406   8.319   1.168
88347W        W59963  15.747  16.250  13.890
88348W        W59964  37.877   9.388   1.700
88349W        W59965  38.355  10.051   2.741
88350W        W59966  38.945   9.878  14.926
88351W        W59967  21.522   1.749   3.142
88352W        W59968   7.004  22.586  12.566
88353W        W59969   6.695  41.767   0.310
88354W        W59970  11.979  20.697  12.542
88355W        W59971   9.928  34.137   2.707
88356W        W59972  36.848   9.762  12.274
88357W        W59973  41.068  43.656  10.668
88358W        W59974  23.977  42.079  13.350
88359W        W59975  31.070  23.433   1.823
88360W        W59976  14.354   6.232  14.408
88361W        W59977  18.157  17.610  13.536
88362W        W59978  29.395  16.567  11.826
88363W        W59979   3.506  18.442  14.888
88364W        W59980  43.891  30.039  11.290
88365W        W59981   4.388   6.670  10.975
88366W        W59982  16.384  21.807  11.980
88367W        W59983  44.828   9.893   0.519
88368W        W59984  31.352  34.543   3.831
88369W        W59985  34.472  20.118  12.779
88370W        W59986  31.292  28.409   4.973
88371W        W59987  16.496  18.969  11.545
88372W        W59988  33.870  20.047   0.889
88373W        W59989  19.234  29.409   1.589
88374W        W59990  26.577   0.178   0.252
88375W        W59991  36.913  37.847  10.691
88376W        W59992   8.398   9.121   3.098
88377W        W59993  20.291  22.013  13.643
88378W        W59994  28.368  27.823   1.263
88379W        W59995  40.727  11.779   4.282
88380W        W59996  33.463  41.725   0.508
88381W        W59997   6.951   1.257   2.617
88382W        W59998  17.587   8.718  12.433
88383W        W59999  42.938  18.688   0.324
88384W        W60000  33.391  11.581   2.380
88385W        W60001   2.297  28.935  12.905
88386W        W60002  41.080  28.043   2.784
88387W        W60003  40.767  32.903  12.056
88388W        W60004  44.297   6.892  13.568
88389W        W60005  21.258  26.750   0.504
88390W        W60006  41.846   9.160  12.653
88391W        W60007  18.296  35.923  11.117
88392W        W60008  38.130  20.301  14.256
88393W        W60009  42.504  13.217   3.776
88394W        W60010  31.124   5.657   2.625
88395W        W60011   7.401  31.945   3.643
88396W        W60012  16.339  40.193   0.836
88397W        W60013  20.509  29.458   2.335
88398W        W60014  20.434  20.483   3.862
88399W        W60015  44.767  43.409  11.131
88400W        W60016   4.898  31.031  12.830
88401W        W60017  43.981  10.294   2.283
88402W        W60018   2.253  20.619  11.947
88403W        W60019   3.073   1.977  13.051
88404W        W60020   9.779  14.809  11.149
88405W        W60021  16.158   0.836  14.979
88406W        W60022   8.170  44.473  11.990
88407W        W60023  29.115  39.901   3.634
88408W        W60024  18.802  34.639   1.346
88409W        W60025  36.043  43.972  14.277
88410W        W60026  40.107  25.446  12.507
88411W        W60027  37.950  31.555   2.923
88412W        W60028  26.340   1.473  13.000
88413W        W60029  23.318  22.126   4.495
88414W        W60030  35.812  13.300  13.802
88415W        W60031  36.601   9.434   2.392
88416W        W60032   0.275   8.629   2.216
88417W        W60033   1.227  31.399  14.896
88418W        W60034  20.680  26.393  11.049
88419W        W60035  15.843   5.398   5.033
88420W        W60036   3.388   4.299   3.396
88421W        W60037  34.580  36.586   3.112
88422W        W60038  12.883   5.319   2.599
88423W        W60039  35.506  44.344   3.712
88424W        W60040  38.718  41.971   2.525
88425W        W60041  44.138  30.367  13.872
88426W        W60042  36.141   7.588  12.104
88427W        W60043  17.045  15.180   1.055
88428W        W60044  29.634  42.516  11.198
88429W        W60045  15.804   5.881  11.164
88430W        W60046  13.884  34.893   3.196
88431W        W60047  18.675  27.100  13.023
88432W        W60048  40.807   0.950  10.531
88433W        W60049  23.692   3.707  12.977
88434W        W60050  17.396   4.333  13.388
88435W        W60051  32.053  43.046  10.581
88436W        W60052  28.488  42.997  10.663
88437W        W60053  10.940  23.390  13.033
88438W        W60054  12.350  10.083  10.645
88439W        W60055  12.704   6.623  12.073
88440W        W60056   6.645  40.030  12.531
88441W        W60057   8.227   2.462  11.988
88442W        W60058  37.191  21.580  11.333
88443W        W60059   3.590  27.430   2.690
88444W        W60060  25.564  31.633  14.827
88445W        W60061  36.786  11.640  14.835
88446W        W60062  44.741  14.663   3.298
88447W        W60063  35.589  17.815  11.097
88448W        W60064  31.961  26.476   1.713
88449W        W60065   4.140  32.985  10.229
88450W        W60066   1.221  13.178   4.769
88451W        W60067  10.215  17.773  13.137
88452W        W60068  40.997   2.999   3.268
88453W        W60069  35.112   2.436   4.069
88454W        W60070  28.393  16.929   9.865
88455W        W60071  44.455  35.862   4.074
88456W        W60072  30.704  10.229   0.272
88457W        W60073  25.613  11.685   1.594
88458W        W60074   7.619  37.307  11.153
88459W        W60075  22.715  13.646  11.359
88460W        W60076  36.656  36.703  10.970
88461W        W60077  11.873  26.156   2.758
88462W        W60078   8.313  27.554  12.096
88463W        W60079  31.053  26.960  11.491
88464W        W60080  21.283   2.983  14.365
88465W        W60081   9.256  22.779   1.753
88466W        W60082  12.325  17.261  12.900
88467W        W60083   8.650  29.601  14.105
88468W        W60084  23.612  35.861   4.275
88469W        W60085  15.563  39.813  12.595
88470W        W60086  16.128  25.956  13.442
88471W        W60087  28.405  23.258  10.399
88472W        W60088   1.742  29.631  13.882
88473W        W60089   5.656  28.934  11.273
88474W        W60090  37.827  39.013   3.129
88475W        W60091  27.010  24.628  13.046
88476W        W60092  16.714  31.470   2.519
88477W        W60093   6.514  22.498   4.126
88478W        W60094  40.520  16.774  14.913
88479W        W60095   9.261  26.411   4.506
88480W        W60096  39.650  36.417   1.714
88481W        W60097   1.260   4.253   0.064
88482W        W60098  44.831  42.547  13.577
88483W        W60099  16.397  20.409  14.014
88484W        W60100   1.489  40.264  14.701
88485W        W60101   2.061  40.959   4.249
88486W        W60102  10.803  23.771   0.410
88487W        W60103  14.734  30.642  12.164
88488W        W60104  41.385  12.336  13.406
88489W        W60105  22.181  13.927  14.476
88490W        W60106  43.701   0.208  11.179
88491W        W60107  26.589  40.061  11.599
88492W        W60108   3.394   2.770  12.554
88493W        W60109   2.915  42.507   1.261
88494W        W60110  41.980   6.215  14.904
88495W        W60111  22.611   3.420   4.823
88496W        W60112  41.787  33.482   4.078
88497W        W60113  44.288  42.535  14.282
88498W        W60114  13.422  26.726  13.947
88499W        W60115   3.915  15.936  12.780
88500W        W60116  34.990   7.967   3.845
88501W        W60117  11.361  24.522  10.647
88502W        W60118  26.661   8.845  10.477
88503W        W60119  11.026   1.781  13.156
88504W        W60120   3.799  39.631  14.976
88505W        W60121   3.347   8.209  12.109
88506W        W60122  35.289  13.581  11.463
88507W        W60123  23.326  36.328   4.205
88508W        W60124  43.818  42.970  10.993
88509W        W60125  37.285  19.776   3.795
88510W        W60126   3.959  10.814  12.959
88511W        W60127  34.610  39.743  14.913
88512W        W60128   3.854  23.227  14.079
88513W        W60129  38.609  11.727  12.979
88514W        W60130  27.102  38.614  12.527
88515W        W60131  13.109  11.801   0.994
88516W        W60132  31.362  36.329   2.617
88517W        W60133   3.055  20.624  12.422
88518W        W60134  35.652  43.901  13.392
88519W        W60135  37.144  29.285  10.766
88520W        W60136   2.469  43.597  10.283
88521W        W60137   4.479   3.392  12.563
88522W        W60138  21.468   4.814   3.640
88523W        W60139  15.521   5.791   2.834
88524W        W60140  30.558   2.727   1.784
88525W        W60141  15.638  34.262   4.909
88526W        W60142   7.183  44.290  12.973
88527W        W60143  11.382  23.097  11.605
88528W        W60144  37.879  43.565  14.400
88529W        W60145   1.990  34.403  11.667
88530W        W60146   0.711   5.996  11.822
88531W        W60147  29.746  24.294   0.783
88532W        W60148  25.516  24.240  11.644
88533W        W60149  10.908  36.343  11.130
88534W        W60150   7.141  18.851  12.034
88535W        W60151  36.563  10.969  12.113
88536W        W60152  15.264   0.450  13.280
88537W        W60153   7.796  41.192   0.974
88538W        W60154   3.889   9.956  11.251
88539W        W60155  28.900   7.002   4.627
88540W        W60156  18.178  20.503  14.317
88541W        W60157   7.709  21.664   4.657
88542W        W60158  22.781  17.103   0.377
88543W        W60159   6.239  12.504  11.638
88544W        W60160  36.121  14.842   3.679
88545W        W60161  11.160  32.493   3.927
88546W        W60162  21.570  28.934   0.875
88547W        W60163  32.510  44.993   5.339
88548W        W60164   8.286   8.260  13.106
88549W        W60165  29.264  23.405  13.861
88550W        W60166  10.874  11.055   1.347
88551W        W60167  13.348  33.934  11.048
88552W        W60168  22.835  29.995   4.688
88553W        W60169  35.551  24.411   0.402
88554W        W60170   1.385  28.037   2.725
88555W        W60171  39.327  16.257   2.319
88556W        W60172  14.799  44.784   1.889
88557W        W60173  11.151   4.374  13.974
88558W        W60174  21.362  23.501  10.625
88559W        W60175  26.265  35.448  14.070
88560W        W60176  14.636  29.865   4.197
88561W        W60177   9.862  15.618  12.068
88562W        W60178   9.738  23.995  12.501
88563W        W60179  20.744  15.053  13.320
88564W        W60180  10.561  14.279   4.631
88565W        W60181   6.391  19.923   1.985
88566W        W60182   0.254  34.527  12.573
88567W        W60183  10.218  44.379   4.281
88568W        W60184  37.127  17.265   2.042
88569W        W60185  33.606  22.506   3.763
88570W        W60186  42.924  35.648   4.519
88571W        W60187  29.767  29.535   2.311
88572W        W60188   1.432  40.025  11.869
88573W        W60189  24.648  32.694  13.900
88574W        W60190  26.022  28.199   0.945
88575W        W60191  15.253  23.917   0.791
88576W        W60192   6.354  12.322   4.097
88577W        W60193  22.089  19.787  14.789
88578W        W60194   3.301  16.569  13.941
88579W        W60195   0.535  14.476  11.422
88580W        W60196  12.542  10.870   0.843
88581W        W60197  40.281  34.082  13.484
88582W        W60198  16.242  36.374   2.758
88583W        W60199   1.052   5.278  12.431
88584W        W60200  28.977  42.100  12.166
88585W        W60201  18.797  26.942   3.758
88586W        W60202  26.560  36.635   4.516
88587W        W60203  27.986  29.531   0.875
88588W        W60204   4.787   8.116   2.838
88589W        W60205  24.113  31.692  12.985
88590W        W60206  20.269   1.261  14.805
88591W        W60207   3.192  37.206  14.911
88592W        W60208  19.084   3.236   4.370
88593W        W60209  15.352  15.421   0.887
88594W        W60210  29.925  29.654  12.541
88595W        W60211  16.219   4.481   9.847
88596W        W60212   5.176   9.398   1.402
88597W        W60213  43.231  19.704   4.178
88598W        W60214   8.418  38.440  12.643
88599W        W60215  30.178   3.509   3.668
88600W        W60216  29.928   3.734  12.355
88601W        W60217  23.409  27.992   1.845
88602W        W60218  25.291  19.000   3.369
88603W        W60219   4.846  31.880  12.151
88604W        W60220  31.869  26.147  11.108
88605W        W60221  22.510   5.392  12.486
88606W        W60222  30.193  21.137  12.950
88607W        W60223  33.529   9.603   4.174
88608W        W60224  30.020  41.309  11.427
88609W        W60225   9.586  39.442   1.761
88610W        W60226  33.417  26.919   2.270
88611W        W60227  38.086  27.214   4.243
88612W        W60228  42.394  13.786   1.841
88613W        W60229  12.348  33.028  14.427
88614W        W60230  23.494  19.598   4.607
88615W        W60231  31.384  31.007  14.832
88616W        W60232  23.040  34.776   3.355
88617W        W60233  14.792  42.724  11.114
88618W        W60234  15.901  28.946  11.772
88619W        W60235  42.928   0.917  10.714
88620W        W60236  26.511   0.990   1.403
88621W        W60237  42.974   5.808   4.144
88622W        W60238  20.180  41.493   4.498
88623W        W60239  36.482  17.159   4.782
88624W        W60240  29.575  29.098   2.146
88625W        W60241   4.973  21.617   2.585
88626W        W60242  26.439  12.619   5.020
88627W        W60243  36.436  32.905   2.763
88628W        W60244   2.618  18.791  14.036
88629W        W60245  24.546  19.214   4.091
88630W        W60246  27.638  24.521   4.646
88631W        W60247  33.700  10.639   3.642
88632W        W60248  17.775  40.161  12.054
88633W        W60249   0.933  15.581   3.310
88634W        W60250  13.332  27.061   3.270
88635W        W60251  38.512  23.180  14.206
88636W        W60252   5.997   1.382   0.843
88637W        W60253   1.307  12.662  14.414
88638W        W60254  10.860   7.901   0.382
88639W        W60255  27.984  39.042   3.147
88640W        W60256   7.493  36.061  10.746
88641W        W60257  40.394  22.230  11.190
88642W        W60258  14.617  20.152   3.732
88643W        W60259  34.416  33.371  10.659
88644W        W60260  15.581  31.751   5.357
88645W        W60261  10.593   1.213  12.979
88646W        W60262  18.516   7.764   4.533
88647W        W60263   7.901  17.531   2.169
88648W        W60264  29.877  41.362   4.145
88649W        W60265  31.511  16.228  13.371
88650W        W60266  22.839   2.001   0.770
88651W        W60267   2.420   2.254  11.135
88652W        W60268  43.261   1.764   1.263
88653W        W60269  27.247  39.031  14.740
88654W        W60270   2.966  37.505  11.100
88655W        W60271   7.184  24.211   3.848
88656W        W60272  29.536  43.074  11.116
88657W        W60273  35.541  29.000   3.889
88658W        W60274  12.288   7.329  14.758
88659W        W60275  15.605   0.381  10.821
88660W        W60276  20.003  37.847  12.624
88661W        W60277   7.263  41.282   2.597
88662W        W60278   4.898   6.580   2.895
88663W        W60279  18.586  37.078   2.722
88664W        W60280  41.315  30.399  14.486
88665W        W60281   0.371   4.431   0.649
88666W        W60282  33.647  43.991   3.021
88667W        W60283  16.969  21.761  13.771
88668W        W60284   8.768   5.002   1.110
88669W        W60285  20.136   4.771   1.139
88670W        W60286  31.932  16.352   4.581
88671W        W60287  44.201  23.562  10.994
88672W        W60288   2.026   7.651   0.771
88673W        W60289  24.256   9.355   2.241
88674W        W60290  36.568   5.374  14.479
88675W        W60291  30.692  40.854   3.611
88676W        W60292  10.273  34.009  13.548
88677W        W60293  18.368  14.761  14.580
88678W        W60294  42.331  33.028  11.432
88679W        W60295  29.146  22.256   2.555
88680W        W60296  13.600  13.228   1.858
88681W        W60297  17.741  10.713   4.096
88682W        W60298   8.852  29.168  14.997
88683W        W60299  35.808  18.928  14.314
88684W        W60300  35.795  31.491  11.085
88685W        W60301  23.612  22.938  10.614
88686W        W60302   6.312  39.218  12.615
88687W        W60303  32.615  29.469  10.248
88688W        W60304  27.361  35.062  12.876
88689W        W60305  40.920  39.096  11.463
88690W        W60306  28.508  16.350  13.502
88691W        W60307  29.358   9.907   1.552
88692W        W60308   3.811   3.207  13.342
88693W        W60309   7.983  20.752  10.813
88694W        W60310  41.395  38.250   0.234
88695W        W60311  13.729  28.401   3.500
88696W        W60312  37.499  16.565   0.855
88697W        W60313  24.602  17.151   1.071
88698W        W60314  29.444  26.961   1.758
88699W        W60315  34.569  20.502  14.943
88700W        W60316  16.357  31.014   1.148
88701W        W60317  17.248  21.995  11.569
88702W        W60318  20.665   4.482  12.479
88703W        W60319  12.312  15.707   1.331
88704W        W60320  44.088  21.966  10.533
88705W        W60321   7.518   7.177  11.544
88706W        W60322  17.020  12.769   4.877
88707W        W60323  39.290  17.534   3.938
88708W        W60324  23.423   2.183  10.601
88709W        W60325   4.797   6.679  10.652
88710W        W60326   1.618   1.510  13.734
88711W        W60327   3.717  20.236   3.665
88712W        W60328  34.915   2.619   4.778
88713W        W60329  35.063  17.850   0.028
88714W        W60330  35.871  37.837  10.580
88715W        W60331   7.832  41.701   0.948
88716W        W60332  25.540  27.046  12.442
88717W        W60333   5.780  26.514  13.987
88718W        W60334  28.661  17.103  13.937
88719W        W60335  27.769  33.029   2.326
88720W        W60336  34.954  40.983   5.174
88721W        W60337  11.827   4.976   3.617
88722W        W60338  28.145  18.500  10.367
88723W        W60339  17.930   3.151  12.380
88724W        W60340   2.782   0.913  10.203
88725W        W60341  15.774  21.082  10.744
88726W        W60342   8.392   8.278   2.584
88727W        W60343  18.694  26.761  11.157
88728W        W60344  20.520   8.350  12.027
88729W        W60345  35.902  19.476   1.408
88730W        W60346   8.200  12.018   3.076
88731W        W60347   2.578   9.559  13.146
88732W        W60348  23.177  20.029  11.273
88733W        W60349   0.760  29.688   3.026
88734W        W60350  38.885  11.902   2.812
88735W        W60351  22.604  44.885   2.326
88736W        W60352   6.708  14.101   2.113
88737W        W60353  43.856   2.070   0.242
88738W        W60354  30.769  38.424  10.352
88739W        W60355  27.895   0.645   1.872
88740W        W60356  42.481  44.295  14.943
88741W        W60357  20.467  24.247  13.934
88742W        W60358  25.215   1.894   1.253
88743W        W60359  36.761  26.869   1.787
88744W        W60360   7.922  38.558  12.863
88745W        W60361  32.888  33.409   3.331
88746W        W60362  35.160   2.048   5.025
88747W        W60363  41.394  26.334  13.783
88748W        W60364  17.352  13.352   1.004
88749W        W60365   3.994  35.132   1.425
88750W        W60366  43.389  25.850  10.569
88751W        W60367   0.507  35.642  10.994
88752W        W60368  36.968  43.429  14.236
88753W        W60369   8.101  44.360   4.197
88754W        W60370  32.892  37.109  14.089
88755W        W60371  28.006  13.934  14.858
88756W        W60372  17.789  30.569  10.717
88757W        W60373  18.739  29.180   0.842
88758W        W60374  31.694  22.528   0.009
88759W        W60375  20.513  10.378   2.241
88760W        W60376   4.198  38.985   3.014
88761W        W60377  16.746  20.146  11.738
88762W        W60378  16.291  42.787  13.567
88763W        W60379   3.311  32.947  10.566
88764W        W60380  22.163   4.836   1.280
88765W        W60381   0.739   8.812  14.767
88766W        W60382  19.682   4.235  12.183
88767W        W60383  37.577  13.331  10.632
88768W        W60384  18.371  41.339  12.598
88769W        W60385   1.750  24.244   3.166
88770W        W60386  25.250  14.730   3.553
88771W        W60387  44.802  10.417  12.581
88772W        W60388  28.853   6.334   4.218
88773W        W60389  35.364  10.770   1.449
88774W        W60390  37.001  27.141   2.200
88775W        W60391  21.061  31.476  12.539
88776W        W60392   7.661  29.158  14.862
88777W        W60393   0.052   9.633  12.003
88778W        W60394  12.199  36.020   4.402
88779W        W60395  33.544  32.089  11.613
88780W        W60396  33.576  12.209  13.576
88781W        W60397  15.297  19.497  10.472
88782W        W60398  34.499  10.582   1.240
88783W        W60399  24.937  38.335   0.409
88784W        W60400   9.704  32.998   4.238
88785W        W60401  22.780  29.472   4.558
88786W        W60402  32.500   2.526   0.777
88787W        W60403  17.276  17.335   0.260
88788W        W60404  11.881  12.680  11.250
88789W        W60405  22.571  24.096   2.030
88790W        W60406  37.630  37.322  12.588
88791W        W60407   1.827   4.248  13.404
88792W        W60408  23.448  21.021  12.052
88793W        W60409  34.902  21.024   2.396
88794W        W60410  24.018  28.539   3.047
88795W        W60411  29.902  35.403   3.705
88796W        W60412   8.150  33.900   3.771
88797W        W60413  12.393  31.176  12.411
88798W        W60414  23.435  26.271  11.151
88799W        W60415  12.247  19.019  13.296
88800W        W60416  14.798  40.571   1.792
88801W        W60417  26.222  42.368  12.080
88802W        W60418  17.456   2.739   2.321
88803W        W60419  33.637  41.051   2.888
88804W        W60420  18.205  44.025  13.530
88805W        W60421  30.015   1.545  13.757
88806W        W60422  32.500  21.147  13.347
88807W        W60423   9.400  11.111  11.057
88808W        W60424  40.264  34.551   1.933
88809W        W60425  21.156  31.196  10.892
88810W        W60426  37.496  42.783  12.495
88811W        W60427  18.359   4.705   1.881
88812W        W60428  22.680  11.641  11.180
88813W        W60429  30.607  21.076  10.656
88814W        W60430  14.341  17.242  10.600
88815W        W60431   4.128  13.248   0.393
88816W        W60432  29.567   5.349   4.687
88817W        W60433  36.402  27.554   4.525
88818W        W60434  21.624   3.757  14.562
88819W        W60435  31.607  17.729   0.892
88820W        W60436   7.984  35.823   4.451
88821W        W60437  40.691  21.168   1.412
88822W        W60438  38.731   8.719  12.114
88823W        W60439  29.767  16.349   3.663
88824W        W60440   5.762  37.140  13.875
88825W        W60441   0.675  25.553   4.637
88826W        W60442  28.128   9.332  14.263
88827W        W60443  22.439  17.584   2.632
88828W        W60444  39.020  36.594  11.572
88829W        W60445  32.124   5.401  13.455
88830W        W60446  16.668  14.877  14.713
88831W        W60447  38.224  37.641  11.605
88832W        W60448  41.280   9.789  12.079
88833W        W60449   4.681  43.982  12.415
88834W        W60450   0.713  34.308  11.154
88835W        W60451  40.112  15.456   3.597
88836W        W60452  28.571  20.849  10.932
88837W        W60453  44.920  22.955   2.165
88838W        W60454  39.180  44.223   2.611
88839W        W60455  10.006  36.437  11.342
88840W        W60456   3.801   3.503   1.301
88841W        W60457  43.465   0.053  14.436
88842W        W60458  41.498  18.076  13.428
88843W        W60459  25.504  11.591   3.106
88844W        W60460  36.478   5.203  11.517
88845W        W60461  39.403  41.957  14.810
88846W        W60462  20.568  12.150  10.467
88847W        W60463  12.658   1.413   1.639
88848W        W60464   3.773  10.378   1.801
88849W        W60465  13.048  26.851  14.307
88850W        W60466  29.662   7.480  12.933
88851W        W60467   2.365  37.391   0.953
88852W        W60468   5.249  30.523  14.429
88853W        W60469  12.365  38.076   0.464
88854W        W60470  27.652  22.101   3.932
88855W        W60471  28.955  11.160  12.414
88856W        W60472  41.371  38.037  12.313
88857W        W60473   7.317  36.938  12.519
88858W        W60474   3.839  28.485  11.336
88859W        W60475  41.392   8.730   1.745
88860W        W60476  33.904   0.003  14.510
88861W        W60477  13.061  35.430  13.807
88862W        W60478  22.235  13.666  10.671
88863W        W60479  34.155  43.288   2.057
88864W        W60480  15.767  12.895  13.992
88865W        W60481   5.673  30.899   1.650
88866W        W60482  21.040  10.843   0.873
88867W        W60483  42.506  36.402   2.630
88868W        W60484   8.389  28.056   2.782
88869W        W60485  30.657   7.089  14.034
88870W        W60486  44.465  18.114  10.670
88871W        W60487  19.575  40.505   1.426
88872W        W60488  15.739   5.477  11.939
88873W        W60489  38.324  21.171   1.392
88874W        W60490  19.109  37.086  10.800
88875W        W60491   1.264   3.689  11.043
88876W        W60492  12.741  34.967  14.429
88877W        W60493   4.263  28.565  14.865
88878W        W60494  33.539  39.305   0.690
88879W        W60495  11.312  17.270  10.726
88880W        W60496  16.772  21.723   2.536
88881W        W60497   4.432  20.174   3.272
88882W        W60498  25.472  44.077  12.490
88883W        W60499  41.995  18.291   2.270
88884W        W60500  21.620  18.662  13.505
88885W        W60501  30.485  14.881  10.738
88886W        W60502  41.545   8.959   3.717
88887W        W60503   4.866  40.367   4.230
88888W        W60504   8.650  36.607  11.224
88889W        W60505  15.277   0.682   3.718
88890W        W60506  20.627  28.830  12.571
88891W        W60507  38.855   3.830   1.332
88892W        W60508   9.096   2.882   1.869
88893W        W60509  30.016  19.827   2.714
88894W        W60510  42.449  13.004   4.292
88895W        W60511   9.057  18.471  11.722
88896W        W60512   4.949  29.499   1.297
88897W        W60513  38.363   7.918  11.748
88898W        W60514   0.038  10.758   2.901
88899W        W60515  13.812  28.572   0.864
88900W        W60516  31.922  38.957   0.554
88901W        W60517   9.782   2.440  13.868
88902W        W60518  10.071  24.694  12.536
88903W        W60519  37.621  38.059  13.918
88904W        W60520  16.666   6.010   1.894
88905W        W60521  16.227  38.389   4.361
88906W        W60522  29.517  40.143  11.135
88907W        W60523  38.746  25.018  12.522
88908W        W60524  14.908  35.774   1.086
88909W        W60525   3.467  34.450  10.582
88910W        W60526  44.847   2.402   1.710
88911W        W60527  22.673  25.642   2.962
88912W        W60528  41.869  12.339   4.000
88913W        W60529  13.755  25.107  13.019
88914W        W60530  40.722  23.852  13.045
88915W        W60531  33.924   8.544  12.913
88916W        W60532  41.412  35.773   4.933
88917W        W60533  22.281   9.699  12.400
88918W        W60534  31.692   5.127  12.502
88919W        W60535  14.075   6.000  14.917
88920W        W60536  41.803  33.551  10.634
88921W        W60537  19.086  27.447  14.924
88922W        W60538   9.169  12.470  12.188
88923W        W60539  44.552  30.555  10.739
88924W        W60540  43.695  33.335   0.868
88925W        W60541  39.903  27.167   4.565
88926W        W60542  11.920   2.579  11.219
88927W        W60543  28.852   1.820   4.139
88928W        W60544  35.528  14.383   5.009
88929W        W60545   3.814  40.114  14.776
88930W        W60546  12.100  17.998   2.257
88931W        W60547  28.132  15.572  10.274
88932W        W60548   5.283  44.923   2.790
88933W        W60549   5.275  28.643  14.426
88934W        W60550  36.876  15.339  13.384
88935W        W60551  43.105  43.272   1.125
88936W        W60552  38.823  23.277  10.437
88937W        W60553   3.775  31.852   2.689
88938W        W60554  41.050  11.080  13.451
88939W        W60555   6.516  39.575   1.208
88940W        W60556  44.971  27.647   1.485
88941W        W60557  17.804  30.627  14.446
88942W        W60558   9.561  32.471   1.359
88943W        W60559  18.547  19.313   0.884
88944W        W60560  34.345  36.564   2.644
88945W        W60561   1.045  29.984  14.928
88946W        W60562  24.657  28.216   2.771
88947W        W60563   7.919   5.271  14.532
88948W        W60564  44.346  28.900   3.253
88949W        W60565   4.629  16.778  13.060
88950W        W60566  24.706   4.411  11.650
88951W        W60567  27.618  27.533   4.418
88952W        W60568  39.126  17.482  14.723
88953W        W60569   2.916  32.600  10.680
88954W        W60570  20.723  22.276   2.770
88955W        W60571  44.652  19.614  11.173
88956W        W60572  21.091   0.548   1.700
88957W        W60573  21.846  23.682   4.318
88958W        W60574  11.689  17.226  11.582
88959W        W60575   7.163  37.587   2.219
88960W        W60576   6.207  35.830  12.400
88961W        W60577   1.331  27.659  14.346
88962W        W60578  10.238  21.144   0.844
88963W        W60579   9.696  42.211   3.864
88964W        W60580  43.275  12.398  14.164
88965W        W60581  10.826  39.838   4.016
88966W        W60582  43.506  32.524  12.289
88967W        W60583  34.513  20.430   2.867
88968W        W60584   8.218  16.520   2.368
88969W        W60585   9.059  41.556  11.502
88970W        W60586   8.392  20.011   2.268
88971W        W60587  23.680   6.911  14.750
88972W        W60588  32.507  37.005  10.637
88973W        W60589  11.656  33.444   0.376
88974W        W60590  27.464  40.243   4.258
88975W        W60591  28.463   4.457  11.707
88976W        W60592  25.688  44.036   4.161
88977W        W60593  41.486  34.556  13.413
88978W        W60594  20.075  24.329   0.440
88979W        W60595  16.532  11.372   3.402
88980W        W60596  22.451  28.425  11.156
88981W        W60597  19.572  28.164   0.494
88982W        W60598  10.256  32.886   1.852
88983W        W60599  17.538  37.312  12.916
88984W        W60600  35.448   1.451   2.308
88985W        W60601   5.824  21.073  12.425
88986W        W60602  44.363   3.280   4.516
88987W        W60603  14.904  34.012  13.490
88988W        W60604  21.003  41.353  12.422
88989W        W60605   6.715   8.177  11.185
88990W        W60606  15.540   3.744   4.509
88991W        W60607  11.426  24.860   1.845
88992W        W60608   5.335  21.019   4.598
88993W        W60609  24.799  15.280   1.915
88994W        W60610  35.321   5.323  12.104
88995W        W60611  31.655  18.887   4.789
88996W        W60612  11.954  14.179   2.273
88997W        W60613  23.988  15.305  12.980
88998W        W60614  10.219  30.195  13.370
88999W        W60615   9.345   0.541  12.395
89000W        W60616  13.219  28.596   1.673
89001W        W60617   2.790  19.141   3.278
89002W        W60618  29.118  19.196  12.704
89003W        W60619  25.987  17.255  10.721
89004W        W60620   3.566  14.998  10.243
89005W        W60621  23.085  15.876   4.126
89006W        W60622  39.790   7.652  11.551
89007W        W60623  31.390  39.563  14.400
89008W        W60624  40.278  34.739   3.427
89009W        W60625  32.592  12.532   1.277
89010W        W60626  14.932  33.960  14.028
89011W        W60627  43.338  30.381   2.658
89012W        W60628   9.070  38.566   1.709
89013W        W60629  44.855   9.169   0.875
89014W        W60630  13.613   9.324   0.897
89015W        W60631  14.790  43.265  12.060
89016W        W60632  24.058  32.627  12.647
89017W        W60633  32.100  14.926   2.665
89018W        W60634   1.069  19.285   3.686
89019W        W60635   5.512   2.428   2.309
89020W        W60636   2.003  17.066   3.338
89021W        W60637   8.865   1.734   1.592
89022W        W60638   5.403  10.086  12.039
89023W        W60639  39.036  31.113   2.202
89024W        W60640  16.960  44.245  10.164
89025W        W60641  36.859   1.494  14.261
89026W        W60642  33.475  33.488  10.879
89027W        W60643  43.444  16.997   1.291
89028W        W60644  16.011  28.644   2.690
89029W        W60645  38.667  11.280  10.308
89030W        W60646  26.667  39.011  12.481
89031W        W60647   1.297   0.011   0.628
89032W        W60648  14.647  33.943  12.531
89033W        W60649  40.928  24.329  14.464
89034W        W60650  26.119   8.736  14.917
89035W        W60651  42.051   4.939  13.436
89036W        W60652  28.991  30.035   0.473
89037W        W60653   2.195  11.474   3.720
89038W        W60654  29.204   9.201   2.766
89039W        W60655  19.486  16.685   1.245
89040W        W60656  12.219   6.937   0.847
89041W        W60657   5.181   2.773   1.783
89042W        W60658   1.453  36.175  14.244
89043W        W60659  29.892  33.347  12.887
89044W        W60660   4.095  25.930   1.818
89045W        W60661   5.338   0.303  14.390
89046W        W60662  35.986  36.941  14.856
89047W        W60663   2.553   1.506  12.252
89048W        W60664  36.825  31.315  12.209
89049W        W60665  15.553   2.189  11.935
89050W        W60666  14.250  28.182   0.945
89051W        W60667  29.491  17.314   3.670
89052W        W60668   9.761  16.521  13.783
89053W        W60669  38.053   2.151   0.914
89054W        W60670  38.964  14.804   0.796
89055W        W60671  32.962  25.974  13.782
89056W        W60672   7.004  15.075   4.037
89057W        W60673  13.221   4.676   4.157
89058W        W60674  41.520  31.763  11.134
89059W        W60675  28.600  26.579  10.201
89060W        W60676  40.510  41.111   3.801
89061W        W60677   2.317  22.003   1.432
89062W        W60678  30.671  15.381   0.397
89063W        W60679  22.681   2.699   2.880
89064W        W60680   2.506  27.670  12.410
89065W        W60681  38.628  38.841  14.321
89066W        W60682  28.458  41.419  11.039
89067W        W60683  12.053  12.722  10.377
89068W        W60684  29.073   4.457   4.672
89069W        W60685  18.841  28.436   2.487
89070W        W60686  17.416  31.702   3.679
89071W        W60687  19.630  39.513   3.372
89072W        W60688  40.393  27.711   0.339
89073W        W60689  22.738  36.600  11.817
89074W        W60690  29.105  40.894  11.144
89075W        W60691  25.555   8.956   1.706
89076W        W60692  17.287  29.105   1.746
89077W        W60693  16.924  40.312  10.799
89078W        W60694  13.305  40.312   0.462
89079W        W60695   1.053  37.093   0.293
89080W        W60696   4.814  44.512  10.523
89081W        W60697  24.890   3.638  14.775
89082W        W60698  12.725  17.227   0.729
89083W        W60699   5.358  44.784  14.390
89084W        W60700  10.566  43.991  12.703
89085W        W60701  20.359  18.759   3.597
89086W        W60702  37.437  30.866   5.110
89087W        W60703  11.070   3.536  11.680
89088W        W60704  10.143   8.360   4.470
89089W        W60705  13.137  11.719  10.700
89090W        W60706  12.803  21.983  11.999
89091W        W60707  20.187  26.530  11.035
89092W        W60708   1.313   9.151  13.415
89093W        W60709  16.820  21.331  14.378
89094W        W60710   1.117  19.891   2.231
89095W        W60711   3.870  29.538  12.316
89096W        W60712  10.857  39.526  12.021
89097W        W60713  36.623  39.843   3.598
89098W        W60714  37.576  22.760  14.998
89099W        W60715  33.594   6.243  10.226
89100W        W60716  23.095  32.515  11.917
89101W        W60717  33.998  37.520  14.245
89102W        W60718  26.900  11.791   2.714
89103W        W60719  14.602  23.080  10.364
89104W        W60720  34.447  13.376   0.328
89105W        W60721  25.453   9.050  12.511
89106W        W60722  24.088  33.829  14.425
89107W        W60723  33.802  33.877  11.831
89108W        W60724  22.021  36.514   4.666
89109W        W60725  11.893  28.409  12.940
89110W        W60726  44.873  21.991  14.772
89111W        W60727  35.376  37.021   3.193
89112W        W60728  27.998   2.830   2.826
89113W        W60729  38.967  10.725   4.145
89114W        W60730  26.087  16.750   0.437
89115W        W60731  26.099  31.534   2.502
89116W        W60732  18.134  10.104  14.335
89117W        W60733   4.409  37.031   4.105
89118W        W60734  44.135   1.016  13.762
89119W        W60735  11.867  12.761  13.064
89120W        W60736   1.099   8.875   4.070
89121W        W60737   6.979  12.194  12.024
89122W        W60738  24.629  38.288   1.272
89123W        W60739  20.123  41.917   4.908
89124W        W60740  33.288  34.060  10.125
89125W        W60741  39.957  14.823  10.904
89126W        W60742  34.643   7.356   3.289
89127W        W60743   1.722  10.480  13.076
89128W        W60744  31.002  42.802  10.577
89129W        W60745  10.481  41.334   4.087
89130W        W60746   1.967  29.170  13.873
89131W        W60747   7.973  24.258  10.254
89132W        W60748   1.009  37.127   3.694
89133W        W60749  34.355  44.848  12.897
89134W        W60750  32.402  19.758  12.558
89135W        W60751  15.350  10.194  13.580
89136W        W60752  23.087  42.548   2.691
89137W        W60753   0.015   1.896  14.882
89138W        W60754  21.859  13.845  11.129
89139W        W60755  11.252  10.848  12.624
89140W        W60756  37.090  11.402  14.467
89141W        W60757  20.522   0.902   3.607
89142W        W60758  42.513  15.156   1.476
89143W        W60759  10.806  28.394   4.214
89144W        W60760  32.596   8.402  12.072
89145W        W60761  18.358   2.980  11.664
89146W        W60762  28.232  20.877  14.331
89147W        W60763  27.077  15.262   4.070
89148W        W60764  14.588  28.111  14.274
89149W        W60765  40.413  26.446  11.964
89150W        W60766  28.170  42.474  10.228
89151W        W60767  15.123  33.882   3.752
89152W        W60768  37.422  27.223   1.310
89153W        W60769  16.753  36.978   0.192
89154W        W60770  13.745   4.580   4.535
89155W        W60771  30.921  23.658   3.182
89156W        W60772  24.116  43.843  10.929
89157W        W60773  37.267  34.698  11.160
89158W        W60774  33.137  39.154  12.408
89159W        W60775  20.246  43.263   3.765
89160W        W60776  31.565  34.431  13.309
89161W        W60777  14.888  13.184  13.337
89162W        W60778  18.779   5.851   2.201
89163W        W60779  32.962   2.465   0.352
89164W        W60780  11.229   6.482   4.286
89165W        W60781  38.148  36.544  13.014
89166W        W60782   4.942  28.683  10.465
89167W        W60783  11.737  42.166   2.107
89168W        W60784  40.860  11.803  13.934
89169W        W60785  36.801  27.522   0.889
89170W        W60786  23.134  28.533   1.168
89171W        W60787  38.086  23.137   1.033
89172W        W60788  22.035  22.702  10.841
89173W        W60789  18.748  33.554   0.902
89174W        W60790  29.577  42.449   2.397
89175W        W60791  16.267  20.880  13.844
89176W        W60792  38.094  18.827  13.342
89177W        W60793  26.512  38.567  14.533
89178W        W60794   1.648   0.904  12.904
89179W        W60795  17.563   5.638   3.682
89180W        W60796  36.183   9.235   2.125
89181W        W60797  38.463  28.150   4.286
89182W        W60798  22.582  41.568   3.312
89183W        W60799  37.804  35.076  11.607
89184W        W60800  34.766  37.914   3.187
89185W        W60801   1.897  25.232  11.811
89186W        W60802  36.069   4.914   3.761
89187W        W60803   4.786  18.286  11.954
89188W        W60804  29.023  28.052   9.865
89189W        W60805  31.901  25.472   1.765
89190W        W60806  13.166  37.461   2.735
89191W        W60807  19.236  43.379  13.570
89192W        W60808  13.807   3.764   5.130
89193W        W60809  21.915  26.522  11.820
89194W        W60810  25.798  26.523   2.772
89195W        W60811  29.673  18.339   3.677
89196W        W60812  26.174  10.828  14.846
89197W        W60813  11.570  21.129  13.821
89198W        W60814  31.940  44.735  10.974
89199W        W60815  16.371  16.732  12.070
89200W        W60816  30.400  13.696  14.287
89201W        W60817  37.129  15.259  11.623
89202W        W60818  37.621  29.569  14.306
89203W        W60819   5.357  19.655   4.588
89204W        W60820  27.445  10.364  14.522
89205W        W60821  38.261  30.440   3.598
89206W        W60822  19.271   4.172  10.347
89207W        W60823  30.531   7.208   0.908
89208W        W60824  43.472   4.957   2.121
89209W        W60825  19.313  13.684   1.907
89210W        W60826  18.550  28.003   2.647
89211W        W60827  26.029   9.526  11.499
89212W        W60828  21.323  41.501   9.853
89213W        W60829  11.659  26.489   0.297
89214W        W60830   5.839   3.022  12.611
89215W        W60831  25.243  29.055   2.761
89216W        W60832  42.259   4.825  11.987
89217W        W60833  17.318  17.149   1.623
89218W        W60834  34.869   9.200  14.395
89219W        W60835  18.084  25.042   0.922
89220W        W60836  14.170  16.364   5.434
89221W        W60837   2.177  27.141   2.804
89222W        W60838  39.693  16.650   2.240
89223W        W60839  24.466  33.146   4.039
89224W        W60840  11.973  41.107  14.794
89225W        W60841  25.221  39.128  12.425
89226W        W60842  38.470  35.061   2.270
89227W        W60843  35.351   4.262   4.056
89228W        W60844  13.375  10.563   1.394
89229W        W60845  44.989  15.643  12.479
89230W        W60846  42.815  14.936  12.964
89231W        W60847   0.807  25.062   5.110
89232W        W60848  25.689  39.526  12.458
89233W        W60849  13.076  24.781   0.461
89234W        W60850  21.010   9.184   4.359
89235W        W60851  16.602   0.569  12.060
89236W        W60852   2.944  36.222  12.529
89237W        W60853  13.602  17.632   3.088
89238W        W60854  17.767  17.233   2.730
89239W        W60855  29.640  32.384  10.743
89240W        W60856  31.602  12.739  12.401
89241W        W60857  29.621   2.636   3.312
89242W        W60858  25.532  12.082   4.525
89243W        W60859  43.365   2.010   0.372
89244W        W60860  44.764  11.651   1.797
89245W        W60861  24.591  34.850   3.657
89246W        W60862   3.273  36.181   3.555
89247W        W60863  34.158  38.015  12.018
89248W        W60864   7.409   7.794   4.105
89249W        W60865  37.176  31.349  12.981
89250W        W60866  33.558  13.789  14.427
89251W        W60867  40.107   3.363  12.074
89252W        W60868  18.562  22.941   4.923
89253W        W60869  36.147  16.270   1.953
89254W        W60870  14.566   0.879  13.526
89255W        W60871  38.348   0.963  13.592
89256W        W60872  29.715  44.556  11.408
89257W        W60873   0.263  14.902  11.320
89258W        W60874  29.582  22.780   1.710
89259W        W60875  12.551  20.075  14.552
89260W        W60876  43.310  39.720   2.175
89261W        W60877  29.431   7.351   0.439
89262W        W60878  34.864  24.613   4.632
89263W        W60879  10.929  11.242   3.677
89264W        W60880  17.627  43.784   1.388
89265W        W60881   9.877   7.774   2.260
89266W        W60882  34.976  26.009  14.050
89267W        W60883   7.601  30.132   3.974
89268W        W60884  33.749  38.315   3.696
89269W        W60885   7.265  39.513   2.287
89270W        W60886  35.614  19.131  14.832
89271W        W60887  28.951  13.096   2.722
89272W        W60888  12.553  10.263   3.934
89273W        W60889   1.220  29.616  13.806
89274W        W60890  36.466   8.417   4.128
89275W        W60891  13.116  10.350   1.785
89276W        W60892  20.987  39.961   3.182
89277W        W60893  43.035  41.965  14.051
89278W        W60894   9.900  28.178  12.667
89279W        W60895  14.945  30.769  10.630
89280W        W60896   4.229  29.841  12.556
89281W        W60897  27.220  12.203   2.812
89282W        W60898  27.486  22.782  10.798
89283W        W60899  10.925  11.664   3.359
89284W        W60900   2.233  26.007  12.650
89285W        W60901  19.756   2.793  10.652
89286W        W60902  28.512  42.482  10.642
89287W        W60903   6.862  15.638  11.038
89288W        W60904  11.150  38.996  12.965
89289W        W60905  22.531  28.982  13.692
89290W        W60906  21.524  44.037   3.281
89291W        W60907  37.063  37.882  13.036
89292W        W60908  25.535   9.737   2.880
89293W        W60909  12.146  28.865   3.419
89294W        W60910  12.246   1.504   1.955
89295W        W60911  27.028   8.374   1.285
89296W        W60912  16.583   7.326   3.286
89297W        W60913  12.876  31.415  10.490
89298W        W60914  23.590  35.608  13.572
89299W        W60915  15.707  39.864  14.519
89300W        W60916  15.843   8.815   4.136
89301W        W60917   3.259   4.252  13.958
89302W        W60918  27.888  16.052  13.941
89303W        W60919  41.499  40.819  12.444
89304W        W60920  27.977   6.095   1.868
89305W        W60921  30.582  40.326   3.773
89306W        W60922  27.257   6.451  13.072
89307W        W60923  41.705  40.199   1.184
89308W        W60924   0.323  16.784   3.139
89309W        W60925  25.930  33.432   3.117
89310W        W60926  35.634  22.083   3.587
89311W        W60927  37.644  28.012   2.344
89312W        W60928  19.289  15.888  13.434
89313W        W60929  35.012   4.935   3.189
89314W        W60930  23.575  41.453   0.371
89315W        W60931  32.412  10.899  13.064
89316W        W60932  38.868  23.952   3.057
89317W        W60933  16.007  14.600   0.789
89318W        W60934  42.878   0.531  12.899
89319W        W60935  42.815   1.539   2.190
89320W        W60936  40.780   6.407  13.630
89321W        W60937  25.496   1.006  14.748
89322W        W60938  19.242  40.033   4.001
89323W        W60939  30.156  35.622  13.330
89324W        W60940  18.629  14.753  11.390
89325W        W60941  30.932  14.353  12.837
89326W        W60942   9.096   3.033   3.209
89327W        W60943  42.054  41.574   2.729
89328W        W60944  24.056  15.211  14.402
89329W        W60945   4.524  44.752   0.509
89330W        W60946   1.694  36.591  14.433
89331W        W60947  33.082   1.207  14.881
89332W        W60948  15.273  10.830   1.059
89333W        W60949  26.550   1.925  13.937
89334W        W60950   0.367  12.911  10.698
89335W        W60951  24.891  12.816   1.368
89336W        W60952   5.351  16.362  13.309
89337W        W60953  11.661  13.679   1.615
89338W        W60954  21.876  27.321   1.509
89339W        W60955  32.160  42.134  12.399
89340W        W60956  13.806   7.945   2.857
89341W        W60957  33.173  30.207   3.720
89342W        W60958  13.719   4.894   2.187
89343W        W60959   5.741  10.925  12.433
89344W        W60960  15.252  21.028   9.842
89345W        W60961  30.523  41.518  10.643
89346W        W60962  31.200  20.789   1.197
89347W        W60963   5.357  14.002   2.722
89348W        W60964  25.058  20.161  14.352
89349W        W60965   0.162   8.905   3.263
89350W        W60966   1.817  30.894   0.675
89351W        W60967   3.674  38.903  11.459
89352W        W60968  44.801  13.529  12.335
89353W        W60969  31.236  22.154  14.050
89354W        W60970  24.463  24.599  12.404
89355W        W60971  20.109  31.877  14.903
89356W        W60972  19.031   0.945   3.212
89357W        W60973  19.577  11.119  14.885
89358W        W60974  43.047  39.355   0.856
89359W        W60975   2.430  44.116   3.829
89360W        W60976  29.972  29.177   3.749
89361W        W60977  17.051  42.427  14.265
89362W        W60978  27.513   3.669   3.781
89363W        W60979  15.081  23.562  10.908
89364W        W60980   5.699  33.912   2.363
89365W        W60981  15.159  27.675   1.731
89366W        W60982  37.657  42.294  12.341
89367W        W60983   5.176  18.587   1.245
89368W        W60984  36.350  23.418  13.027
89369W        W60985  25.023  42.298  13.992
89370W        W60986  35.468  16.282   1.232
89371W        W60987  13.837  12.160   0.963
89372W        W60988   6.225  31.847  14.333
89373W        W60989   9.197  44.375  12.003
89374W        W60990  37.778  27.663   4.255
89375W        W60991  30.102  19.229   0.216
89376W        W60992  32.585  33.620  10.824
89377W        W60993   3.241  20.990  10.967
89378W        W60994  38.059  27.077   2.403
89379W        W60995  40.794  17.171  11.985
89380W        W60996  38.108   4.419  11.425
89381W        W60997  11.703  36.871  14.329
89382W        W60998   3.026  32.466  11.685
89383W        W60999  28.661   7.298   2.835
89384W        W61000  41.195  21.976   0.299
89385W        W61001  31.524  26.771   1.705
89386W        W61002   4.185  23.169   5.426
89387W        W61003  23.769   6.237  13.865
89388W        W61004  44.106   2.489  11.449
89389W        W61005  15.335  37.100  13.973
89390W        W61006  35.938  11.824   4.044
89391W        W61007   2.422  23.280   2.750
89392W        W61008  12.428  33.445   0.284
89393W        W61009  32.860  35.370   1.665
89394W        W61010  16.314   4.749   0.563
89395W        W61011  41.848  29.668  14.439
89396W        W61012  16.306   1.227   2.345
89397W        W61013  20.295  18.219   3.197
89398W        W61014  23.637  28.542   2.277
89399W        W61015  15.329  19.053   2.841
89400W        W61016  34.843   5.582  14.755
89401W        W61017  26.546  16.117  11.398
89402W        W61018   2.888   6.856   0.193
89403W        W61019  18.751  22.099  12.434
89404W        W61020   8.137  37.147   2.281
89405W        W61021  14.112  14.581  10.683
89406W        W61022  43.475  23.704   4.495
89407W        W61023  37.686  25.285  12.823
89408W        W61024  18.659   0.578  13.569
89409W        W61025  18.110   6.152   1.345
89410W        W61026  42.089  35.410  12.417
89411W        W61027  15.500  13.421   3.741
89412W        W61028  14.192  19.593   0.918
89413W        W61029  17.828  13.080   0.068
89414W        W61030  27.550  23.671   3.556
89415W        W61031   1.421   2.861   0.354
89416W        W61032  26.580  32.127  10.979
89417W        W61033  42.334  19.082  12.781
89418W        W61034  26.842  42.876   0.228
89419W        W61035  29.508  36.975  13.523
89420W        W61036  34.519   7.292  13.927
89421W        W61037   2.053  21.816  11.552
89422W        W61038  21.797  42.356  10.836
89423W        W61039  19.811  13.097   2.017
89424W        W61040  25.618  26.381   1.946
89425W        W61041   8.927  42.495   2.763
89426W        W61042  27.581   1.752  13.058
89427W        W61043   2.628  16.962   3.955
89428W        W61044   4.006  21.190  14.293
89429W        W61045  44.228  35.473   4.305
89430W        W61046  23.114  32.777   4.646
89431W        W61047  30.942  37.453  11.201
89432W        W61048  43.954  35.873   4.162
89433W        W61049   4.817  39.862  13.393
89434W        W61050  13.209   6.301  10.699
89435W        W61051  44.998  35.135   2.275
89436W        W61052  43.253  29.963  13.069
89437W        W61053  41.759  17.700   0.402
89438W        W61054  29.947  41.105  13.982
89439W        W61055  42.137  29.477  11.226
89440W        W61056   9.811  24.542   3.305
89441W        W61057  39.501  37.132  13.369
89442W        W61058  12.887  19.188   1.780
89443W        W61059   8.770  21.990  12.939
89444W        W61060  14.153  43.117  14.998
89445W        W61061  41.270   7.353   1.780
89446W        W61062   5.343   9.713   0.303
89447W        W61063  30.456  37.981  11.664
89448W        W61064   2.712  39.329   2.235
89449W        W61065  34.513  23.970   4.612
89450W        W61066  19.706  36.499   3.308
89451W        W61067   2.185  35.401   1.359
89452W        W61068  14.627  27.824  10.354
89453W        W61069  33.277   6.173  12.905
89454W        W61070  36.061   3.824   3.813
89455W        W61071  30.431  37.896  12.866
89456W        W61072  40.846  22.633   1.885
89457W        W61073   6.170   6.463  11.208
89458W        W61074  20.815  15.490  14.764
89459W        W61075  31.133  43.385  14.634
89460W        W61076  42.325  42.496   0.342
89461W        W61077  44.915  16.257   0.524
89462W        W61078  36.656  19.147   1.440
89463W        W61079   8.831   9.988  13.580
89464W        W61080  41.702  20.416   4.256
89465W        W61081  17.319   9.853  14.769
89466W        W61082  13.122  35.156   2.764
89467W        W61083  18.726  11.533  11.273
89468W        W61084  43.874   5.217  13.365
89469W        W61085   6.439  34.549  10.720
89470W        W61086  39.386  22.208   2.237
89471W        W61087   3.718  17.697   0.286
89472W        W61088  25.855  38.898   2.128
89473W        W61089   0.988  27.899   4.956
89474W        W61090  33.378  24.253   2.889
89475W        W61091  31.391  38.124   0.672
89476W        W61092  28.206  28.647  14.995
89477W        W61093  17.127   6.002  13.486
89478W        W61094   9.853  42.123  11.716
89479W        W61095  16.215  30.171  12.926
89480W        W61096  32.404  34.505   4.226
89481W        W61097  36.666  20.647   0.833
89482W        W61098  20.653  35.559   0.408
89483W        W61099  26.008  42.654  14.070
89484W        W61100  15.198  17.838  12.772
89485W        W61101   9.813  18.610   0.804
89486W        W61102  10.281  29.486  11.705
89487W        W61103  10.100  33.366   3.205
89488W        W61104  22.156  34.612   4.806
89489W        W61105  35.111  40.853   3.527
89490W        W61106  40.429  37.476   0.834
89491W        W61107   1.304  26.553  10.751
89492W        W61108  34.128   5.297  14.357
89493W        W61109   1.753   3.530   2.743
89494W        W61110  10.881   5.035   3.659
89495W        W61111   8.445  20.714   1.794
89496W        W61112   7.664   3.075   0.246
89497W        W61113  13.257  19.738   1.459
89498W        W61114  37.827  37.878  11.141
89499W        W61115  28.390   1.868   3.796
89500W        W61116   2.100  23.802  13.925
89501W        W61117  13.802   3.325  13.516
89502W        W61118   5.456   0.361   9.767
89503W        W61119  26.668   3.249  11.075
89504W        W61120  28.413  15.832  11.204
89505W        W61121  15.799   7.403  12.077
89506W        W61122  19.514   6.383  10.898
89507W        W61123  24.920   5.159  14.098
89508W        W61124  29.420  17.191  10.661
89509W        W61125  13.582   2.673  13.437
89510W        W61126  21.084  21.659   3.643
89511W        W61127   9.144  23.659   3.053
89512W        W61128  15.053   4.149  11.860
89513W        W61129  28.971   1.892  12.013
89514W        W61130   8.986  31.912   3.766
89515W        W61131   9.283   8.188  14.623
89516W        W61132  33.372  23.431  11.269
89517W        W61133  18.076  41.567   2.347
89518W        W61134  26.823  20.175  12.458
89519W        W61135   5.362  20.677  10.752
89520W        W61136  21.101  27.352   4.431
89521W        W61137  18.541  38.518  14.598
89522W        W61138  34.955   4.401   2.325
89523W        W61139  19.714  21.268   2.770
89524W        W61140  25.001  29.701  13.044
89525W        W61141  22.076  20.377  12.130
89526W        W61142  28.865  27.024  13.841
89527W        W61143  10.389  43.610  13.022
89528W        W61144  20.897  23.648   1.676
89529W        W61145  41.437  29.094  11.088
89530W        W61146  39.990  14.297   0.965
89531W        W61147  38.081  42.235   2.650
89532W        W61148  37.362   1.731  11.999
89533W        W61149  39.996  28.005   3.852
89534W        W61150  35.573   5.306  14.513
89535W        W61151   7.309  32.180   0.826
89536W        W61152  11.570  11.154  11.254
89537W        W61153  28.051  42.341  12.365
89538W        W61154  10.160  29.075  13.038
89539W        W61155   2.167  35.296  13.544
89540W        W61156  10.122  43.376  12.625
89541W        W61157  25.271  41.650  13.342
89542W        W61158  10.229  20.821   4.091
89543W        W61159   5.705  35.056  12.856
89544W        W61160  28.239  31.664  12.152
89545W        W61161  34.935  38.883  11.957
89546W        W61162  12.110  39.483   0.988
89547W        W61163   5.710  38.552   3.674
89548W        W61164  35.542  32.390   2.975
89549W        W61165  39.478  27.730   4.103
89550W        W61166  28.700  10.222   3.235
89551W        W61167   5.473  28.683   2.778
89552W        W61168  19.612  14.142  12.543
89553W        W61169   5.618  26.056   3.202
89554W        W61170   7.412   2.169   3.245
89555W        W61171  28.572  29.455  14.819
89556W        W61172  39.501  36.311  11.519
89557W        W61173   3.364   5.973   1.478
89558W        W61174  27.964  28.133  13.915
89559W        W61175  28.038  44.892  13.532
89560W        W61176  43.432  14.380  14.358
89561W        W61177   2.292  22.046   2.467
89562W        W61178  12.337  43.950  13.550
89563W        W61179  18.936   9.177  14.968
89564W        W61180  25.544  26.360   0.918
89565W        W61181  18.008  24.581  14.748
89566W        W61182  34.018  40.219   3.654
89567W        W61183  38.495   3.398  13.457
89568W        W61184  31.836  35.504   3.657
89569W        W61185  31.620  14.382   1.900
89570W        W61186  24.690  22.104  13.336
89571W        W61187  17.724   3.009   1.813
89572W        W61188   9.756  40.505  10.487
89573W        W61189  37.291  33.045   1.194
89574W        W61190  33.677  42.481   0.708
89575W        W61191  34.469  30.014  14.783
89576W        W61192  11.927  13.774   4.674
89577W        W61193  24.714  34.046  14.245
89578W        W61194  38.399  28.982   1.827
89579W        W61195   0.738  40.101   2.859
89580W        W61196   7.029  12.556   3.662
89581W        W61197  42.257  32.926  12.572
89582W        W61198  40.241  33.135   4.054
89583W        W61199  37.758  14.694  13.978
89584W        W61200  43.356  22.798   4.193
89585W        W61201  37.846   5.295  11.597
89586W        W61202   4.031  43.847   0.799
89587W        W61203  28.714  17.040   0.682
89588W        W61204   7.970  33.954  12.175
89589W        W61205  11.590  23.316   3.342
89590W        W61206  32.923  29.849   4.040
89591W        W61207   4.740   1.481   5.404
89592W        W61208  39.824  33.634  14.954
89593W        W61209  31.887   1.906   3.263
89594W        W61210  40.969  37.055  11.360
89595W        W61211  39.452   3.403  13.884
89596W        W61212  34.377  27.144   4.339
89597W        W61213  44.258  22.221  12.995
89598W        W61214  17.470  32.467  14.962
89599W        W61215   9.720   4.215  13.396
89600W        W61216  32.775  12.170   1.806
89601W        W61217   3.209  24.117   0.071
89602W        W61218   2.514  35.314  14.951
89603W        W61219   1.473  42.458   2.299
89604W        W61220   6.235   4.371  13.054
89605W        W61221  43.356  23.548   2.660
89606W        W61222   4.583   6.717  13.650
89607W        W61223  42.082   8.343   1.807
89608W        W61224   8.615   1.272   1.473
89609W        W61225  20.599  13.172  14.708
89610W        W61226  16.802  17.468  13.382
89611W        W61227  28.434  23.258   2.210
89612W        W61228  32.144  41.294   1.870
89613W        W61229  36.112  15.770   2.527
89614W        W61230   0.401  25.470  10.818
89615W        W61231  18.656  28.676   0.752
89616W        W61232  44.963  15.513   2.363
89617W        W61233  29.653  18.432   4.720
89618W        W61234  37.969  34.660   3.641
89619W        W61235  22.005  31.791   3.666
89620W        W61236  17.658  16.570  12.359
89621W        W61237  36.442   9.641   2.843
89622W        W61238  41.614  38.052  13.746
89623W        W61239  21.800  29.615   3.094
89624W        W61240  37.595  14.222  11.015
89625W        W61241  44.523  37.275  10.180
89626W        W61242  34.988  22.665  13.897
89627W        W61243   7.138  34.961   1.721
89628W        W61244  11.720   8.953  12.671
89629W        W61245   9.659  24.253   3.703
89630W        W61246  27.738  32.579  14.285
89631W        W61247  38.560  17.583  13.496
89632W        W61248  16.592   6.370   3.288
89633W        W61249  31.516   4.797   4.537
89634W        W61250  14.662  11.309  13.327
89635W        W61251  38.402   4.784   2.791
89636W        W61252  36.573  27.970  10.159
89637W        W61253   9.234  19.794  10.198
89638W        W61254  42.518  17.564   0.060
89639W        W61255  37.517  15.812  13.119
89640W        W61256  42.752   0.043  12.997
89641W        W61257   7.750  15.829  10.449
89642W        W61258  11.539  16.554   1.822
89643W        W61259  15.121  29.909   0.448
89644W        W61260  14.002  15.848  14.620
89645W        W61261   1.719  22.663   4.943
89646W        W61262  33.065  26.743   4.787
89647W        W61263   2.830   2.872  14.388
89648W        W61264  27.445  12.087  12.041
89649W        W61265  24.883  43.010  11.630
89650W        W61266  29.110  41.483   2.845
89651W        W61267  13.688  24.557   1.952
89652W        W61268  12.117  36.541   1.718
89653W        W61269   3.736   4.437  13.730
89654W        W61270  28.466  39.380   1.654
89655W        W61271   2.931   6.380   4.170
89656W        W61272   6.466  35.603   2.164
89657W        W61273  19.322  14.925   2.169
89658W        W61274  28.092   0.758  11.927
89659W        W61275  22.097  20.674  12.604
89660W        W61276  29.667  24.854   2.781
89661W        W61277  25.673  33.398   4.657
89662W        W61278  18.265  17.393  13.975
89663W        W61279  15.573  24.990  12.430
89664W        W61280  14.123  19.272   3.873
89665W        W61281   6.088   8.301  11.640
89666W        W61282  18.183   0.231  12.876
89667W        W61283  12.322   6.286  12.013
89668W        W61284  13.075  30.109  14.142
89669W        W61285  23.773  32.337   1.925
89670W        W61286   3.638  31.021  12.444
89671W        W61287  27.180  21.070  11.621
89672W        W61288  33.688  12.442   3.114
89673W        W61289   8.254  34.653   0.252
89674W        W61290  11.680  19.114   2.243
89675W        W61291  38.067   4.273   2.942
89676W        W61292   2.707  15.584   2.891
89677W        W61293  14.558  38.861   4.446
89678W        W61294  16.075  29.199   0.207
89679W        W61295  25.557  23.392   9.804
89680W        W61296   6.975  40.511   0.696
89681W        W61297  35.995  26.974   0.814
89682W        W61298   6.276  24.232  12.892
89683W        W61299  24.024  11.298   3.709
89684W        W61300  29.371  13.643  13.514
89685W        W61301  35.965  39.463   2.376
89686W        W61302   9.722  41.099   2.922
89687W        W61303  15.584  17.189   0.855
89688W        W61304  15.633  33.347  11.315
89689W        W61305   3.388  26.778   0.391
89690W        W61306  35.686   9.345   2.888
89691W        W61307  11.361  17.084   0.894
89692W        W61308  27.667  13.225   1.667
89693W        W61309  22.852   7.206  14.812
89694W        W61310   3.409   4.767  13.998
89695W        W61311   7.447  14.318  11.096
89696W        W61312  16.354   4.865  13.792
89697W        W61313  25.462   8.205   3.175
89698W        W61314  20.169   1.550  14.381
89699W        W61315  10.417  25.134   2.760
89700W        W61316  26.733  26.994  12.841
89701W        W61317   1.885   7.660   3.144
89702W        W61318   6.126   9.931  12.514
89703W        W61319  15.846  15.111  13.075
89704W        W61320   2.779  19.289  12.859
89705W        W61321  43.220   5.972   3.306
89706W        W61322  38.159  43.950   3.348
89707W        W61323  24.994  36.824   1.382
89708W        W61324   8.996  29.100   0.488
89709W        W61325  40.036  36.947   1.853
89710W        W61326  18.036   0.803  14.497
89711W        W61327   6.643  16.636  11.619
89712W        W61328  38.578  30.191  12.488
89713W        W61329  14.582   4.447  10.196
89714W        W61330   8.675  39.342  13.562
89715W        W61331  31.120  30.164  13.914
89716W        W61332  34.449  36.283   2.221
89717W        W61333  18.611   8.632   0.868
89718W        W61334  13.396  30.364   0.453
89719W        W61335  39.368   3.817  14.883
89720W        W61336  19.516  44.744   0.905
89721W        W61337  39.242  41.413  14.187
89722W        W61338   7.142   3.627  10.332
89723W        W61339  16.387  29.304  13.559
89724W        W61340  10.824  24.313  11.948
89725W        W61341  39.598  29.405  14.275
89726W        W61342  31.571  37.620   0.686
89727W        W61343   2.333   9.115   3.642
89728W        W61344   0.233  29.539   1.325
89729W        W61345   3.757  37.388   3.337
89730W        W61346  14.130  41.773  11.582
89731W        W61347   4.182  32.931   0.253
89732W        W61348  35.115  16.600  11.532
89733W        W61349  29.853  24.118   3.867
89734W        W61350   4.625  12.383  12.497
89735W        W61351  30.357  22.133  12.914
89736W        W61352  44.476  36.494  12.066
89737W        W61353  35.064  17.803  13.713
89738W        W61354   5.561  10.733   0.290
89739W        W61355  43.514  33.951  11.593
89740W        W61356  32.747  22.998   4.042
89741W        W61357  42.995  17.021  10.989
89742W        W61358   7.386   5.957  13.657
89743W        W61359  16.885  16.085   4.158
89744W        W61360  39.564  32.372   3.220
89745W        W61361  24.605   9.926   3.928
89746W        W61362   5.266  42.967  12.179
89747W        W61363  31.616  36.845   3.719
89748W        W61364   0.196  13.878   0.084
89749W        W61365  31.427  32.643  11.164
89750W        W61366   8.445   1.484   2.918
89751W        W61367  18.328  14.795   0.918
89752W        W61368  22.657  11.742  13.558
89753W        W61369  37.095   0.484  13.426
89754W        W61370  37.552  14.048  13.435
89755W        W61371  30.653  20.123   3.923
89756W        W61372  39.585   8.127   1.730
89757W        W61373  11.405  26.002   3.063
89758W        W61374  38.889  32.151  14.424
89759W        W61375  14.790   7.931  13.458
89760W        W61376  44.904   8.122  11.922
89761W        W61377  31.629   0.055  12.155
89762W        W61378  13.547   9.682  14.161
89763W        W61379  18.000  25.688  14.285
89764W        W61380  41.965   7.137   3.216
89765W        W61381  37.524  36.794  14.365
89766W        W61382  34.522   6.962   2.727
89767W        W61383  43.066  44.739  14.428
89768W        W61384  17.602  17.281  10.011
89769W        W61385  18.721  39.129  11.948
89770W        W61386  26.734  29.399  12.921
89771W        W61387   1.321  28.224   1.838
89772W        W61388  10.901  25.282   1.453
89773W        W61389  16.738   2.603   0.411
89774W        W61390   0.876   7.930  12.867
89775W        W61391  19.633  14.098   4.943
89776W        W61392  26.543  21.490   5.000
89777W        W61393  25.603  30.236   3.704
89778W        W61394  43.917  21.550  11.873
89779W        W61395   9.679  25.563   2.837
89780W        W61396  14.304  25.073  14.331
89781W        W61397  33.210   4.234  11.111
89782W        W61398  13.195   4.058   1.091
89783W        W61399  29.044  37.796  14.267
89784W        W61400  44.331  16.024  13.520
89785W        W61401  11.134   0.920  10.532
89786W        W61402  37.385  40.128  13.819
89787W        W61403  14.172  24.423   4.431
89788W        W61404   1.968  29.920  12.527
89789W        W61405  36.605  38.422   0.417
89790W        W61406  37.065  44.349  12.966
89791W        W61407  28.447  14.540  12.980
89792W        W61408  43.839   0.180   2.151
89793W        W61409   3.416  16.821  10.763
89794W        W61410  21.524   6.920   0.243
89795W        W61411  44.053  19.619   2.941
89796W        W61412  24.614   7.240  12.036
89797W        W61413  27.895  14.897  12.659
89798W        W61414  16.827  31.670  12.392
89799W        W61415  38.076   4.717  12.556
89800W        W61416  15.693  19.060  10.144
89801W        W61417   5.715  13.714   4.689
89802W        W61418  13.564  43.041  12.863
89803W        W61419  32.504  23.606  13.725
89804W        W61420  36.121  25.993   2.202
89805W        W61421  26.523  11.303   0.161
89806W        W61422  28.514   2.279  13.770
89807W        W61423  16.461   2.210   3.586
89808W        W61424  13.197   7.650   4.852
89809W        W61425  41.285  41.578  11.067
89810W        W61426  26.802  23.503  12.888
89811W        W61427   5.031  30.057   1.839
89812W        W61428  21.689  44.402  12.435
89813W        W61429   2.994  11.802   1.282
89814W        W61430  35.432  36.289  12.436
89815W        W61431   4.890  10.693   1.914
89816W        W61432  29.426  24.659  14.001
89817W        W61433  24.710   6.474  14.107
89818W        W61434  32.328  25.548   3.088
89819W        W61435  29.404   4.919  14.476
89820W        W61436  16.802   5.811   2.390
89821W        W61437  38.523   5.222  14.969
89822W        W61438  22.031  44.320   3.204
89823W        W61439  40.786  23.799   4.129
89824W        W61440  42.991   0.266  14.353
89825W        W61441  44.070  27.891   0.285
89826W        W61442  23.049  18.193  12.520
89827W        W61443  42.819  39.683   1.319
89828W        W61444   7.746  31.628   3.901
89829W        W61445  20.733   7.681   4.189
89830W        W61446  15.572  37.656  10.274
89831W        W61447  21.196  23.596  12.613
89832W        W61448  25.634  38.994   0.925
89833W        W61449  14.648   3.787   1.289
89834W        W61450   3.434  33.845   4.198
89835W        W61451   2.324  18.218   2.452
89836W        W61452  13.102   1.418   4.707
89837W        W61453  44.279  41.422   3.733
89838W        W61454  12.720  39.809   3.406
89839W        W61455   5.642  37.815   2.871
89840W        W61456  14.011   0.631   0.321
89841W        W61457  43.104  12.949  11.155
89842W        W61458  22.131  20.133  11.124
89843W        W61459   1.945  28.624  13.127
89844W        W61460  19.187   7.675  14.503
89845W        W61461  36.092   6.273  10.393
89846W        W61462  44.660  10.351  11.984
89847W        W61463  40.329  23.260  11.977
89848W        W61464  30.480  44.277   3.125
89849W        W61465  19.983  35.440  12.406
89850W        W61466  17.716  17.895   3.770
89851W        W61467  37.628  27.144   0.865
89852W        W61468  42.562  44.795   2.147
89853W        W61469  37.507  14.061   0.247
89854W        W61470  33.822  26.910  12.667
89855W        W61471  18.708  31.857  11.121
89856W        W61472  26.107  44.312  12.111
89857W        W61473  28.467  19.204   3.138
89858W        W61474  39.073   3.412   2.901
89859W        W61475   1.754  19.056   3.200
89860W        W61476  23.156  41.357   1.838
89861W        W61477  14.531  31.595  12.132
89862W        W61478  11.783  32.879   0.924
89863W        W61479  18.179   7.765  11.141
89864W        W61480   3.373  19.696   1.121
89865W        W61481  22.458   9.348   2.799
89866W        W61482  20.653  27.403  10.719
89867W        W61483  15.232  21.307   2.260
89868W        W61484  10.299  33.676   0.431
89869W        W61485   7.969   0.354   2.892
89870W        W61486  32.191  22.585  14.879
89871W        W61487  33.628  33.118  12.367
89872W        W61488   8.546  41.671  11.559
89873W        W61489  13.416  31.208  14.372
89874W        W61490  19.069   4.838  14.511
89875W        W61491  41.919  28.640  13.996
89876W        W61492  41.937   5.683  11.372
89877W        W61493  28.040   2.001  11.156
89878W        W61494  30.528  38.214   2.148
89879W        W61495  40.294   0.311   1.368
89880W        W61496  40.302  19.533   1.558
89881W        W61497  27.306  35.619  10.115
89882W        W61498  22.127   0.996   1.336
89883W        W61499  14.563   3.026  12.571
89884W        W61500  23.819  29.028   2.331
89885W        W61501  21.741  37.303   4.196
89886W        W61502  40.168  11.360   2.552
89887W        W61503  40.902   6.340   0.167
89888W        W61504  27.025  17.124  14.972
89889W        W61505   2.399  26.309   4.835
89890W        W61506  32.526  17.680   4.852
89891W        W61507  42.779   7.845   4.668
89892W        W61508  13.356  43.562   0.916
89893W        W61509  16.023  14.737  13.888
89894W        W61510   2.996  11.260  14.994
89895W        W61511  44.098  13.889   4.589
89896W        W61512  12.724  38.071   4.814
89897W        W61513  23.671  12.824  12.309
89898W        W61514  18.712  15.780   5.120
89899W        W61515  30.655  41.464  14.013
89900W        W61516   8.802  15.698  12.688
89901W        W61517   1.954  34.143  13.641
89902W        W61518   3.717   7.745  14.032
89903W        W61519  14.288  16.601   3.662
89904W        W61520  43.481   4.623   0.371
89905W        W61521  23.151  23.769   4.037
89906W        W61522  20.648  20.994   1.420
89907W        W61523  19.723   2.263  10.691
89908W        W61524  37.526  18.665  10.798
89909W        W61525  13.894  24.231   3.192
89910W        W61526  43.027  13.031   1.628
89911W        W61527   6.420   3.237   2.014
89912W        W61528  25.035   2.538   4.293
89913W        W61529  10.178  37.100   4.930
89914W        W61530  44.530  13.885  12.042
89915W        W61531   0.247  29.052   4.120
89916W        W61532  24.689   7.385   1.216
89917W        W61533  11.872  36.510   2.252
89918W        W61534  23.922  34.417  14.731
89919W        W61535  13.258  31.304   1.925
89920W        W61536  42.492  37.357   4.610
89921W        W61537  40.783  28.330  11.673
89922W        W61538  40.731   2.294   3.773
89923W        W61539  32.634  44.461  13.724
89924W        W61540  41.539  37.801   1.836
89925W        W61541  29.660   8.615   4.474
89926W        W61542  20.057   3.882   1.291
89927W        W61543  39.422   7.646   3.631
89928W        W61544  43.860  28.148   2.309
89929W        W61545  28.152  28.646   4.844
89930W        W61546  39.276   3.129   3.877
89931W        W61547  16.080  12.307   1.789
89932W        W61548   7.656   1.702   1.489
89933W        W61549   6.545  44.459   2.827
89934W        W61550  26.153   3.260  14.279
89935W        W61551  28.028  40.296   0.730
89936W        W61552   8.398   8.298   1.262
89937W        W61553  10.127  42.380  11.379
89938W        W61554  44.085   7.849  11.018
89939W        W61555  24.211  31.558  11.519
89940W        W61556  17.008   6.886   0.966
89941W        W61557   9.217  38.589  11.157
89942W        W61558  24.865   0.664  13.243
89943W        W61559  18.814  31.068   0.134
89944W        W61560   1.769  11.675   5.100
89945W        W61561  22.807   9.852  11.602
89946W        W61562  25.544   2.748   3.805
89947W        W61563  26.385  31.614   4.998
89948W        W61564  16.200   8.728   3.704
89949W        W61565  37.345  44.384  12.462
89950W        W61566  32.196  38.563  13.158
89951W        W61567   2.986   5.760  11.709
89952W        W61568  12.682   3.195  13.009
89953W        W61569  11.605   9.164   0.909
89954W        W61570  29.432   8.358   0.340
89955W        W61571  12.277  41.358  11.565
89956W        W61572  29.900  21.799   3.275
89957W        W61573  41.517  43.078  11.890
89958W        W61574  39.467  19.303   0.697
89959W        W61575  44.297  43.374   1.353
89960W        W61576  27.018  44.425  12.927
89961W        W61577  41.591   5.241   3.439
89962W        W61578  37.800  10.089  14.294
89963W        W61579  10.723  20.493   3.245
89964W        W61580  23.448  14.758   0.544
89965W        W61581  13.930  21.605  13.401
89966W        W61582  26.926  35.879   1.103
89967W        W61583   0.784  23.535  14.318
89968W        W61584  20.224  43.195   4.553
89969W        W61585  26.515  33.082   2.700
89970W        W61586  25.679  22.525   2.914
89971W        W61587   3.031  29.528  11.694
89972W        W61588   4.928   3.419  13.309
89973W        W61589  32.585  40.292  12.920
89974W        W61590  21.003  11.723   4.086
89975W        W61591  35.043  17.097  13.009
89976W        W61592  42.329  24.854  11.550
89977W        W61593  16.548  29.533   3.817
89978W        W61594  42.275  27.593   4.596
89979W        W61595  30.094   3.293   4.384
89980W        W61596  41.228  25.590   4.578
89981W        W61597  23.471   8.409  11.584
89982W        W61598  40.561  28.566   3.260
89983W        W61599   1.666  15.943   0.760
89984W        W61600  12.768   3.970  13.911
89985W        W61601   4.872  26.594   3.629
89986W        W61602  10.363  40.000  13.481
89987W        W61603   7.712   8.249   1.804
89988W        W61604  31.316  17.252  12.062
89989W        W61605  44.915  10.048  10.002
89990W        W61606  28.977   5.134  12.115
89991W        W61607  41.858  41.459   0.818
89992W        W61608  24.437  15.650  13.308
89993W        W61609   9.651  36.058  12.045
89994W        W61610  37.104  31.899  14.796
89995W        W61611  14.869  11.033   0.816
89996W        W61612  23.044  32.398  10.539
89997W        W61613  12.815  18.528  13.120
89998W        W61614  16.828  17.011  13.616
89999W        W61615  34.295   1.370   3.529
90000W        W61616  26.107  26.048   4.309
90001W        W61617  40.785  12.427  14.584
90002W        W61618  14.825  27.982  13.824
90003W        W61619  22.689  28.428   2.334
90004W        W61620   1.352   1.664   3.704
90005W        W61621  42.941  21.169   4.516
90006W        W61622  38.581   7.290  13.019
90007W        W61623  19.236  12.639   3.435
90008W        W61624  31.958  22.753  12.818
90009W        W61625  17.775  31.950   0.769
90010W        W61626  20.097  33.913   3.733
90011W        W61627   1.894   4.442  11.638
90012W        W61628   0.817  10.616  10.496
90013W        W61629  36.048   5.215   0.387
90014W        W61630  27.673  35.467  13.022
90015W        W61631  30.880   4.422   1.505
90016W        W61632   0.781  26.604   9.853
90017W        W61633  23.110  40.703   4.550
90018W        W61634  37.942  42.705   2.825
90019W        W61635  44.967  30.209   2.440
90020W        W61636  30.792  15.896   0.479
90021W        W61637  38.533  18.977   3.784
90022W        W61638  19.748  21.617   2.344
90023W        W61639  12.559  36.940  14.285
90024W        W61640   4.916  22.225  11.931
90025W        W61641  39.274  32.638   2.807
90026W        W61642  41.175  13.145  14.036
90027W        W61643  23.328  44.262   3.684
90028W        W61644  36.742  11.995   1.916
90029W        W61645  44.391  24.572  10.886
90030W        W61646  35.361  29.161   1.931
90031W        W61647  38.066  18.893  14.160
90032W        W61648  27.197  15.003   0.697
90033W        W61649   3.339   8.874   4.560
90034W        W61650  12.441   2.772   0.260
90035W        W61651  36.579  36.842   0.303
90036W        W61652  10.253  18.932   4.652
90037W        W61653  18.584  38.992   0.268
90038W        W61654  42.898  18.131  13.155
90039W        W61655  14.440  15.794   2.104
90040W        W61656   2.663  43.433  11.982
90041W        W61657   7.302  15.996   3.357
90042W        W61658  32.078  27.450  12.940
90043W        W61659  13.185  11.872   2.019
90044W        W61660  17.181  43.367  14.483
90045W        W61661  32.172  22.282  12.902
90046W        W61662   8.772  29.705  12.609
90047W        W61663  18.577   8.435   3.800
90048W        W61664  23.700  22.274  13.459
90049W        W61665  30.197  34.599  11.126
90050W        W61666  41.073  42.246   2.305
90051W        W61667   0.453  34.042  12.621
90052W        W61668   5.621  32.359   3.063
90053W        W61669  44.752   6.589   0.749
90054W        W61670  34.868  13.778   3.061
90055W        W61671  28.075  31.915   1.650
90056W        W61672  27.387  24.168   4.972
90057W        W61673  44.933  17.267   0.994
90058W        W61674  35.306  17.403   5.031
90059W        W61675   9.889  26.989  14.862
90060W        W61676  19.179   6.818  11.620
90061W        W61677  17.277  10.325   2.779
90062W        W61678   3.219  43.492  13.927
90063W        W61679  36.030  31.456   2.727
90064W        W61680   9.618  36.142  14.277
90065W        W61681   6.621  10.280   0.361
90066W        W61682   5.349  38.892  13.802
90067W        W61683  28.981  39.859  10.961
90068W        W61684  43.913  43.943   2.748
90069W        W61685   6.454  18.152   2.721
90070W        W61686  16.680  20.165   4.668
90071W        W61687   3.881  15.336  13.269
90072W        W61688  29.678  43.899  14.829
90073W        W61689  14.667  17.645   4.911
90074W        W61690  13.378  44.060   4.148
90075W        W61691  28.410  19.660  13.655
90076W        W61692  19.107   0.476   1.020
90077W        W61693  16.348  39.957   2.263
90078W        W61694  19.744  19.430  14.481
90079W        W61695  16.730  33.716   4.030
90080W        W61696  16.966  20.489   1.447
90081W        W61697   8.386  24.249  14.706
90082W        W61698  11.403  44.273   3.166
90083W        W61699  10.468  27.225  10.943
90084W        W61700  25.784  19.697   0.271
90085W        W61701  24.723  21.198  13.513
90086W        W61702   3.014  11.354  10.648
90087W        W61703  10.796  42.791  14.999
90088W        W61704  36.936  37.341   3.105
90089W        W61705  41.329  26.932  14.812
90090W        W61706  28.887   0.027  11.146
90091W        W61707  35.007   3.143   0.749
90092W        W61708  34.859  15.131   3.764
90093W        W61709   4.317  28.582  11.170
90094W        W61710  35.498  20.263   1.335
90095W        W61711  14.811   8.126  14.521
90096W        W61712   0.983  22.757  11.991
90097W        W61713   6.455  36.284   2.073
90098W        W61714   4.290  26.466  12.793
90099W        W61715   7.194  29.648   4.192
90100W        W61716  43.214   9.708   4.242
90101W        W61717   0.577  14.199   2.083
90102W        W61718  30.093   6.900   0.960
90103W        W61719   5.266  12.772   4.703
90104W        W61720  42.951  10.129   4.077
90105W        W61721  36.039  26.793  11.965
90106W        W61722   8.853  31.376   3.038
90107W        W61723  30.697  11.226   2.176
90108W        W61724  27.506  22.060  12.459
90109W        W61725  40.787  22.614  10.685
90110W        W61726  21.779  12.891   3.212
90111W        W61727  14.790  21.119  10.679
90112W        W61728  20.101  10.133  14.500
90113W        W61729  44.490   8.335  13.655
90114W        W61730   3.264  20.175  10.615
90115W        W61731  16.832  34.464   4.602
90116W        W61732  32.540  23.462   3.242
90117W        W61733  39.779  14.811  14.477
90118W        W61734  38.428  10.943   5.596
90119W        W61735  37.422  22.347   0.913
90120W        W61736  10.222  24.216  12.502
90121W        W61737  14.717  11.810   3.878
90122W        W61738  35.428  17.142  13.856
90123W        W61739  23.509  20.075  14.515
90124W        W61740   8.744  18.517   0.475
90125W        W61741  28.961  20.538  10.699
90126W        W61742  19.594  27.444   4.668
90127W        W61743   4.545  18.650   3.187
90128W        W61744  35.362  20.100  13.305
90129W        W61745   0.406  32.794   1.986
90130W        W61746   8.304  28.203  12.890
90131W        W61747  24.023  35.566  12.331
90132W        W61748  33.716  17.312  10.953
90133W        W61749  11.850  20.697  13.879
90134W        W61750  40.957  36.661  13.064
90135W        W61751  21.519   7.872   1.345
90136W        W61752  29.741  11.184  13.395
90137W        W61753  26.647  43.623   3.323
90138W        W61754  16.595  17.730  14.386
90139W        W61755  31.589  43.535  14.873
90140W        W61756  36.119   7.150  10.699
90141W        W61757  40.330  23.801  14.007
90142W        W61758  19.276   1.829  13.831
90143W        W61759  24.657  28.824  10.675
90144W        W61760  31.564  25.234   4.147
90145W        W61761  31.871   9.119   1.330
90146W        W61762  15.767  10.856   0.892
90147W        W61763  38.317  37.296   3.217
90148W        W61764   2.168  31.501  14.941
90149W        W61765  12.749  29.656   4.759
90150W        W61766   1.915  38.860  14.146
90151W        W61767   0.307   7.740   4.410
90152W        W61768   6.708   6.734   1.131
90153W        W61769  10.122   5.182   2.025
90154W        W61770   8.281  20.645   3.341
90155W        W61771  38.743  38.316  14.407
90156W        W61772  44.513  10.397  13.393
90157W        W61773   9.031  13.814  11.360
90158W        W61774  41.880  24.112   0.228
90159W        W61775  16.294   3.848   0.904
90160W        W61776  35.478  18.643  14.992
90161W        W61777  11.379  26.044   0.264
90162W        W61778  17.469  25.524   2.909
90163W        W61779   1.891  10.343   0.319
90164W        W61780  21.599  31.989   3.016
90165W        W61781  37.421  34.132  12.897
90166W        W61782  25.529  26.854  10.008
90167W        W61783  12.735  12.785   3.329
90168W        W61784  29.873   2.576   0.291
90169W        W61785  31.927   8.600   1.319
90170W        W61786   5.152  40.674  14.900
90171W        W61787  17.497  22.773  12.462
90172W        W61788  19.650  19.095   2.870
90173W        W61789  20.170  21.891  12.432
90174W        W61790  20.067  26.680  14.499
90175W        W61791   8.562  23.950  11.584
90176W        W61792  26.620  44.295   0.868
90177W        W61793   1.052  26.069  13.290
90178W        W61794  23.513  21.623   4.595
90179W        W61795   7.275  10.066  11.958
90180W        W61796  22.317  31.077   4.078
90181W        W61797  38.145   1.225  14.004
90182W        W61798  33.815   7.058   3.245
90183W        W61799   9.844  42.563   0.760
90184W        W61800  21.140  31.355   4.578
90185W        W61801  17.360  19.609  10.776
90186W        W61802  29.422  22.103   0.005
90187W        W61803  37.198  42.653   1.336
90188W        W61804  32.368  41.548  10.791
90189W        W61805   0.486  21.231  12.838
90190W        W61806  33.647  27.248   2.624
90191W        W61807  18.000  11.686   1.345
90192W        W61808   8.106   8.185  14.922
90193W        W61809  21.612  14.223   4.602
90194W        W61810  20.761  15.160  11.218
90195W        W61811   2.612  19.344   1.157
90196W        W61812  20.632   5.659   5.031
90197W        W61813   5.330  36.028   0.043
90198W        W61814  17.299  23.670   1.232
90199W        W61815  11.783   2.909   3.227
90200W        W61816  39.435   9.638   3.181
90201W        W61817  33.602  11.834  11.609
90202W        W61818  27.349  25.999  11.494
90203W        W61819  33.363  11.376   1.342
90204W        W61820  12.141  31.510  13.656
90205W        W61821  22.760  12.669   2.350
90206W        W61822  13.760  32.594  14.523
90207W        W61823  14.873  23.782  14.851
90208W        W61824  38.969  27.450  11.084
90209W        W61825   7.296  15.382  11.874
90210W        W61826   3.454   3.729  10.526
90211W        W61827  11.148   7.336  11.893
90212W        W61828  10.363  25.741   4.140
90213W        W61829  20.750  11.187  12.544
90214W        W61830  16.933  18.946  14.529
90215W        W61831  34.944  25.719   1.754
90216W        W61832   8.541   1.855   1.993
90217W        W61833  30.485  11.162  12.795
90218W        W61834   8.277  33.456  10.627
90219W        W61835  37.815  35.992  14.617
90220W        W61836  20.028  37.285  11.142
90221W        W61837  43.184   2.329  12.520
90222W        W61838  13.406  24.516   4.937
90223W        W61839   6.167  44.353   1.441
90224W        W61840   3.242  39.913   4.169
90225W        W61841  35.107  28.509   0.869
90226W        W61842   0.323  24.882   0.819
90227W        W61843  24.557   5.871  13.086
90228W        W61844  36.666   2.780  11.782
90229W        W61845  21.202  22.485   1.285
90230W        W61846  35.143  32.868  12.339
90231W        W61847  30.873  42.887  12.415
90232W        W61848  39.963   0.748   4.866
90233W        W61849  40.765  39.136   3.866
90234W        W61850  14.556  13.729  10.410
90235W        W61851   0.955  18.005   0.870
90236W        W61852  37.140  16.610  12.006
90237W        W61853  25.062  21.871   1.533
90238W        W61854   9.873   3.014   2.991
90239W        W61855  16.745  19.158   4.912
90240W        W61856  20.162  17.573   4.414
90241W        W61857  21.286  29.456   1.747
90242W        W61858  41.837  11.736  12.134
90243W        W61859  21.237  28.894  14.985
90244W        W61860  38.346  38.045   0.890
90245W        W61861  28.353  37.550   1.292
90246W        W61862   8.781  25.338  14.559
90247W        W61863  10.393  31.622   1.363
90248W        W61864   1.723  11.270  10.758
90249W        W61865  35.872  10.655  13.417
90250W        W61866  13.208   3.729   1.485
90251W        W61867   8.267   7.934  11.654
90252W        W61868  19.544  12.893   4.254
90253W        W61869  34.516  19.633  13.596
90254W        W61870  28.461   5.230   0.251
90255W        W61871  33.341  21.837   2.573
90256W        W61872  17.645  38.292   1.319
90257W        W61873  33.692  44.750   1.756
90258W        W61874  14.159   5.321  14.393
90259W        W61875  20.187  43.385   2.891
90260W        W61876  15.839   4.831  14.767
90261W        W61877  39.032   3.562   5.093
90262W        W61878  28.222   9.174  10.600
90263W        W61879  33.940   2.092  10.282
90264W        W61880   9.212  40.372  14.534
90265W        W61881  31.859  18.032  11.257
90266W        W61882   4.268   0.193  14.898
90267W        W61883  29.728  28.388   1.659
90268W        W61884  23.191  37.635   1.381
90269W        W61885  12.818  40.029  13.627
90270W        W61886  29.985  10.212   0.324
90271W        W61887  10.290  30.605  13.026
90272W        W61888  14.071  43.403   3.782
90273W        W61889  24.678  38.490  13.495
90274W        W61890   0.943  21.733  14.347
90275W        W61891  17.714  44.731  10.653
90276W        W61892  29.517  41.613  10.719
90277W        W61893   2.855   1.507   3.839
90278W        W61894  15.158  38.724  13.826
90279W        W61895  10.794  19.069  11.041
90280W        W61896  31.525  15.584  13.504
90281W        W61897   4.732  29.475   0.793
90282W        W61898  18.797  39.441  12.416
90283W        W61899  38.397  36.807   3.127
90284W        W61900  30.028  13.781  12.474
90285W        W61901  29.171  30.973  11.539
90286W        W61902   8.941  44.246  12.439
90287W        W61903  18.579   5.663   2.670
90288W        W61904  44.235   8.857  11.110
90289W        W61905  13.560  16.507   0.348
90290W        W61906  35.881  11.139   4.267
90291W        W61907  17.633   1.435   4.132
90292W        W61908  15.642   4.344  12.011
90293W        W61909   0.684  17.230   1.659
90294W        W61910   9.573   9.743   2.851
90295W        W61911   8.388  43.242  14.205
90296W        W61912  31.376  24.479  12.886
90297W        W61913  13.096  16.602   3.685
90298W        W61914   7.296  17.292   2.592
90299W        W61915  31.722   9.150  13.356
90300W        W61916  21.003  36.119   3.151
90301W        W61917  13.152  30.187  11.539
90302W        W61918   5.539  35.088   2.745
90303W        W61919  21.296  27.927  14.737
90304W        W61920  16.897   3.926   2.202
90305W        W61921  38.422  23.611   0.293
90306W        W61922  43.538  40.757  13.772
90307W        W61923   5.652   1.533   2.308
90308W        W61924  34.834  10.686  13.326
90309W        W61925   5.727  34.451  12.567
90310W        W61926  12.845   0.308   3.082
90311W        W61927  18.939   0.082  10.163
90312W        W61928  40.393  43.442   2.509
90313W        W61929   3.125  25.578  14.678
90314W        W61930  24.785  42.083   0.819
90315W        W61931  42.447  13.388   4.816
90316W        W61932  43.974  30.382  13.391
90317W        W61933  25.461   2.664  13.985
90318W        W61934  16.183  33.389   4.741
90319W        W61935  34.906  16.067   4.137
90320W        W61936   8.346  35.626   3.309
90321W        W61937  22.801   3.077  14.521
90322W        W61938  11.795   1.514  12.006
90323W        W61939   4.914  43.275  10.511
90324W        W61940   3.675  43.702   1.144
90325W        W61941  44.025   7.499   0.874
90326W        W61942  41.609   5.253  14.235
90327W        W61943  18.141  19.597  13.048
90328W        W61944  35.284   9.023  14.110
90329W        W61945  16.496  15.757  10.660
90330W        W61946  26.146  38.708  12.412
90331W        W61947  31.463  26.032  14.533
90332W        W61948   7.466   2.351  13.070
90333W        W61949  34.329  44.868  10.663
90334W        W61950   3.670  36.027   4.562
90335W        W61951  14.216   7.964  12.162
90336W        W61952  25.105   5.461   3.591
90337W        W61953  26.216  43.785  12.030
90338W        W61954   4.882  27.867   1.478
90339W        W61955  40.005  20.122   4.201
90340W        W61956  12.658  21.265   0.772
90341W        W61957  10.207  22.946   2.451
90342W        W61958   2.963  43.360   1.796
90343W        W61959  38.749  20.981  14.298
90344W        W61960  18.455  30.579  13.991
90345W        W61961  11.599  16.622   4.340
90346W        W61962  10.811   2.279  12.446
90347W        W61963  19.277   9.462  12.268
90348W        W61964  14.395  28.594   4.131
90349W        W61965   6.625  23.316  14.488
90350W        W61966  29.542  24.741  10.660
90351W        W61967  40.080  23.018  14.032
90352W        W61968  42.608  35.120   2.753
90353W        W61969  13.833  16.958   0.412
90354W        W61970  35.438   3.837  11.476
90355W        W61971   0.611   0.971  14.966
90356W        W61972  19.759   5.915  11.539
90357W        W61973   6.943  18.748  12.891
90358W        W61974  12.695  41.479  12.471
90359W        W61975  33.800  25.559  10.636
90360W        W61976  28.470  22.731  10.675
90361W        W61977  34.110  10.375  12.095
90362W        W61978  31.060  25.285   4.460
90363W        W61979  36.363   1.340  14.309
90364W        W61980  32.844  42.456  10.642
90365W        W61981   7.150  11.660   4.857
90366W        W61982  31.063   5.968  11.822
90367W        W61983   7.100  15.254   3.066
90368W        W61984  25.094   7.371  14.252
90369W        W61985  42.233  35.440   3.996
90370W        W61986  17.300  41.326   4.143
90371W        W61987   8.406  18.044   4.562
90372W        W61988  25.597   1.328   2.456
90373W        W61989  36.044  20.849  10.734
90374W        W61990  24.180   5.084  12.992
90375W        W61991  19.912  20.101  11.693
90376W        W61992  22.232  12.503  12.545
90377W        W61993   2.456  13.560   2.880
90378W        W61994  40.490   4.411   3.328
90379W        W61995  31.679   3.967  14.347
90380W        W61996  10.596  24.667  11.048
90381W        W61997   2.841  28.110   4.552
90382W        W61998  35.003   7.519  13.977
90383W        W61999  12.054  38.112   3.207
90384W        W62000  32.586  12.651  12.096
90385W        W62001  32.102  17.463  11.498
90386W        W62002  31.377  37.513   1.395
90387W        W62003  28.619   8.207  12.474
90388W        W62004  34.923  34.662   4.589
90389W        W62005  31.645  21.176  13.963
90390W        W62006  22.329  10.055  11.492
90391W        W62007  26.933  20.440  12.969
90392W        W62008  26.982  19.510   2.948
90393W        W62009  33.023  36.000  11.196
90394W        W62010  34.707  19.529   4.092
90395W        W62011  32.349   1.238  14.342
90396W        W62012  11.919  36.915  13.393
90397W        W62013  37.915  20.692   0.879
90398W        W62014   6.406  16.762   3.000
90399W        W62015  32.573  35.171   4.668
90400W        W62016  20.520  15.849   3.221
90401W        W62017   5.244  34.837  12.712
90402W        W62018   0.421  20.056  11.123
90403W        W62019  41.030  32.476  14.370
90404W        W62020  13.022   6.885   2.763
90405W        W62021  24.067   5.299   4.813
90406W        W62022   1.901  36.693  11.931
90407W        W62023  20.194  15.441   3.645
90408W        W62024   7.946  19.550   0.756
90409W        W62025  39.046  39.954  14.312
90410W        W62026  37.629   3.035  12.121
90411W        W62027  37.096  30.173  14.239
90412W        W62028  40.943  38.558   1.392
90413W        W62029  33.222  42.431   0.952
90414W        W62030   9.787  34.901  11.260
90415W        W62031  35.006  43.020  12.469
90416W        W62032  25.900  19.707   4.131
90417W        W62033   0.798  18.268   2.779
90418W        W62034   0.892  41.659   2.362
90419W        W62035   2.710  27.879   4.107
90420W        W62036   7.835   4.691   1.369
90421W        W62037  16.021  34.669   0.895
90422W        W62038  39.862  31.607  14.668
90423W        W62039  38.247  19.947   4.628
90424W        W62040   6.357  31.673   4.623
90425W        W62041  30.511   4.473   3.758
90426W        W62042  38.927  15.176  14.554
90427W        W62043  32.464   2.835  11.110
90428W        W62044  31.311  22.521   3.796
90429W        W62045   2.522  28.220  12.388
90430W        W62046  23.692  14.300   5.081
90431W        W62047   0.443  31.076   2.132
90432W        W62048  44.863  35.984  10.171
90433W        W62049   9.582  38.597   3.771
90434W        W62050  37.802  41.860  11.094
90435W        W62051  32.028  36.773  14.830
90436W        W62052   9.261  35.466  10.523
90437W        W62053  15.300  22.831   3.702
90438W        W62054   3.652  38.961  13.870
90439W        W62055  33.714   3.342  11.064
90440W        W62056  21.510  21.462   4.083
90441W        W62057  43.267  30.860   1.729
90442W        W62058   6.365  18.686  14.234
90443W        W62059  31.832  21.085   1.681
90444W        W62060  43.962   1.224   3.069
90445W        W62061  41.519  31.698   1.976
90446W        W62062  43.748  38.528  10.194
90447W        W62063  44.596  40.966  11.610
90448W        W62064  30.880  32.395  12.018
90449W        W62065   2.668   2.458   4.583
90450W        W62066   9.559  15.758  11.113
90451W        W62067   5.274  28.256   4.417
90452W        W62068  41.903  32.487   4.870
90453W        W62069  20.652  41.942  14.592
90454W        W62070  44.412  12.548   3.162
90455W        W62071  20.201  40.855  14.812
90456W        W62072  14.095  34.493  13.847
90457W        W62073   3.612  16.163  11.600
90458W        W62074   9.665  38.942   0.039
90459W        W62075  38.628   0.657   0.710
90460W        W62076  41.923  31.452   3.278
90461W        W62077  37.831  39.112   0.374
90462W        W62078  35.037  39.369   4.876
90463W        W62079  25.447   9.923   3.651
90464W        W62080  35.456  26.316  14.814
90465W        W62081  19.179   1.196   2.212
90466W        W62082   4.225  40.486   2.797
90467W        W62083   3.319   9.577   1.484
90468W        W62084  30.866  32.510   3.296
90469W        W62085  35.941  42.887   0.740
90470W        W62086  32.657  41.578   4.455
90471W        W62087   9.351  35.520  11.958
90472W        W62088  42.384   0.740  14.308
90473W        W62089  18.271  18.222   0.341
90474W        W62090  14.140   0.589  12.613
90475W        W62091  32.982  34.647  11.868
90476W        W62092  33.969  21.014   0.749
90477W        W62093  41.733  34.944   0.309
90478W        W62094  42.974  16.160  12.097
90479W        W62095  40.407  26.541  12.871
90480W        W62096  22.310  20.726  14.360
90481W        W62097  16.788  18.964  11.976
90482W        W62098  38.206  17.299  11.124
90483W        W62099   2.398   2.706  13.980
90484W        W62100  16.293  41.886   1.222
90485W        W62101  11.370  34.325  14.259
90486W        W62102  23.654  34.153   4.531
90487W        W62103  22.060   1.214   1.810
90488W        W62104  42.402  21.309  13.012
90489W        W62105  24.990  12.865   3.130
90490W        W62106  10.605  44.440  10.481
90491W        W62107  33.926  19.709   5.052
90492W        W62108  15.289  12.153  12.435
90493W        W62109  21.171  10.386  12.757
90494W        W62110   6.831  22.250   4.597
90495W        W62111   0.287  29.961   4.629
90496W        W62112  42.937  31.447   4.643
90497W        W62113  36.444  35.545  11.633
90498W        W62114  16.749   2.564   3.838
90499W        W62115  10.430   1.650   1.832
90500W        W62116  28.547   6.746   0.294
90501W        W62117  27.403  13.495   5.326
90502W        W62118  13.696  27.157  13.798
90503W        W62119  25.593  23.712   2.122
90504W        W62120  15.316  32.981  11.433
90505W        W62121   4.285   6.881   4.854
90506W        W62122  27.664  26.870  12.558
90507W        W62123  13.103   4.888   0.908
90508W        W62124  38.116  30.072   2.416
90509W        W62125  26.043  42.843   4.817
90510W        W62126   6.339  38.082  13.593
90511W        W62127  37.943  17.437   4.665
90512W        W62128  19.526   8.179   3.010
90513W        W62129  11.096  37.068  13.823
90514W        W62130  38.771  42.526  11.823
90515W        W62131   9.040  39.325   4.231
90516W        W62132  18.760   3.913   2.017
90517W        W62133   5.194  15.796  13.784
90518W        W62134   6.319  38.625  10.422
90519W        W62135  42.477  37.788   4.311
90520W        W62136  32.045  26.579   4.638
90521W        W62137  14.278  35.157  13.471
90522W        W62138  29.431  17.322   2.305
90523W        W62139  12.734  11.834  14.781
90524W        W62140   9.327  18.627   2.236
90525W        W62141  22.988  11.208   2.199
90526W        W62142  21.645   7.686  14.895
90527W        W62143  12.206  40.634  11.134
90528W        W62144  19.523   4.247   4.515
90529W        W62145  29.681  40.974  14.389
90530W        W62146  33.268   0.922   2.194
90531W        W62147  40.823  20.649   4.551
90532W        W62148  43.022  41.664   4.537
90533W        W62149  28.066   7.878   0.939
90534W        W62150  32.158  39.635   1.783
90535W        W62151  32.043  34.265  13.393
90536W        W62152   6.160   6.549   2.431
90537W        W62153  18.567  36.275  13.330
90538W        W62154   3.805  24.104  10.221
90539W        W62155  10.178   9.455  10.732
90540W        W62156  25.185  23.187   3.168
90541W        W62157  33.040  30.068   1.257
90542W        W62158   3.692  26.678  11.861
90543W        W62159   6.230   1.894  13.356
90544W        W62160  19.764  39.840   2.679
90545W        W62161  17.070   3.433   1.972
90546W        W62162  38.411  33.521  12.099
90547W        W62163  39.902  20.708  11.906
90548W        W62164  22.552  17.110  14.916
90549W        W62165  34.482  32.677   2.116
90550W        W62166  27.099  37.592  13.983
90551W        W62167   5.730   3.392  12.194
90552W        W62168  35.082  13.206  12.674
90553W        W62169  36.074  24.970   2.328
90554W        W62170  10.435  20.203   1.220
90555W        W62171  18.846  19.673  13.830
90556W        W62172  41.284  23.039   4.810
90557W        W62173   6.681   9.568   0.018
90558W        W62174  41.986  30.047   1.016
90559W        W62175  35.524  10.875   1.978
90560W        W62176  24.440   3.493   0.016
90561W        W62177  19.603  42.915  10.759
90562W        W62178  29.526  36.697  13.955
90563W        W62179  24.739  22.596  11.597
90564W        W62180  32.061  30.000  12.810
90565W        W62181  42.504  23.473  14.733
90566W        W62182  19.981   8.268   1.778
90567W        W62183  32.870  28.475  11.603
90568W        W62184  44.444  10.584  12.891
90569W        W62185  26.303   8.355   2.861
90570W        W62186  44.849  38.359  12.042
90571W        W62187  37.265  14.626  12.593
90572W        W62188  40.769  42.962  14.728
90573W        W62189   5.304  18.404  12.872
90574W        W62190  14.311  21.032  14.942
90575W        W62191  27.047  43.284  11.412
90576W        W62192   1.545  29.383  13.459
90577W        W62193  30.097  42.152  12.387
90578W        W62194  17.428  40.276  10.909
90579W        W62195  20.036  38.117   0.462
90580W        W62196   5.688  21.415   3.735
90581W        W62197  12.479   9.760   0.181
90582W        W62198  33.895  23.709   0.751
90583W        W62199  37.943  31.317  14.018
90584W        W62200   1.351   8.083  11.196
90585W        W62201  28.403   2.854  12.475
90586W        W62202   4.083  21.934   4.046
90587W        W62203   5.390   2.887  11.062
90588W        W62204  27.624   4.784  10.703
90589W        W62205  13.497  34.904   5.108
90590W        W62206   4.295  34.023   4.133
90591W        W62207  35.346   3.328  14.744
90592W        W62208  12.774  35.347  12.930
90593W        W62209   5.493  32.957   1.493
90594W        W62210  12.660  42.430   0.467
90595W        W62211  36.579  37.376   0.254
90596W        W62212   8.392  11.345   1.030
90597W        W62213  26.537  39.907   2.111
90598W        W62214  28.554  21.726  12.948
90599W        W62215  38.943  17.853   3.717
90600W        W62216  36.987  38.494  13.549
90601W        W62217  19.706   9.748  10.510
90602W        W62218  33.826   6.816  11.033
90603W        W62219  15.048  37.797  10.942
90604W        W62220  17.924   8.276  12.558
90605W        W62221  19.528  18.812   3.295
90606W        W62222  41.568   3.484  10.757
90607W        W62223  23.579  29.937  14.408
90608W        W62224   8.173   4.955  11.580
90609W        W62225  40.384  19.088   3.164
90610W        W62226  32.769  20.021  10.683
90611W        W62227   4.180   6.291   0.016
90612W        W62228  14.182   7.694   0.467
90613W        W62229  38.008   2.901  14.470
90614W        W62230   4.668  13.329  11.718
90615W        W62231  32.808   2.038   9.737
90616W        W62232  39.595  28.148  14.014
90617W        W62233  36.107  13.675  14.436
90618W        W62234   4.428  10.377   2.062
90619W        W62235  23.222  43.334  14.101
90620W        W62236   2.776   9.323   2.967
90621W        W62237   5.320  36.277  13.996
90622W        W62238  33.498  20.650   2.869
90623W        W62239  34.890  28.062  11.953
90624W        W62240  39.060  21.433  11.031
90625W        W62241  21.159  35.959   0.829
90626W        W62242   3.009  33.577   3.814
90627W        W62243  29.409  22.753  14.508
90628W        W62244   7.888  37.105  10.749
90629W        W62245  21.457  34.929  14.467
90630W        W62246  14.609  18.135   4.614
90631W        W62247  10.514  15.535  12.891
90632W        W62248  19.009  18.743   3.371
90633W        W62249  27.572  20.274   0.287
90634W        W62250  41.688  23.149  12.202
90635W        W62251  33.337  15.276   3.468
90636W        W62252   8.777  30.015  14.385
90637W        W62253   6.060  13.353  11.123
90638W        W62254  32.429  39.981   3.525
90639W        W62255  40.364  12.878   5.187
90640W        W62256  38.915  13.646   9.699
90641W        W62257   7.322  12.654  13.289
90642W        W62258  37.777   0.914   3.338
90643W        W62259  20.162   2.990   1.014
90644W        W62260  32.883  27.631   1.029
90645W        W62261  44.952  43.489  13.943
90646W        W62262   0.440  18.007  14.969
90647W        W62263  25.190  28.684  10.662
90648W        W62264  36.019  43.013  12.616
90649W        W62265  15.784  28.159  10.738
90650W        W62266  27.194   3.768  13.815
90651W        W62267  44.515   6.033   5.041
90652W        W62268   5.804  38.339   4.126
90653W        W62269  31.950  18.756   3.634
90654W        W62270  33.554  12.590  11.119
90655W        W62271   9.969   1.738  12.236
90656W        W62272  34.950  30.659  10.790
90657W        W62273  41.389  28.415  14.797
90658W        W62274  13.623  13.762   2.264
90659W        W62275  21.225   4.036   1.710
90660W        W62276  30.171  37.556  11.571
90661W        W62277  37.353  44.453   1.367
90662W        W62278  26.705   6.808   0.859
90663W        W62279  15.424   2.769   0.396
90664W        W62280  14.163  12.275  14.042
90665W        W62281  36.458  42.739  14.575
90666W        W62282  26.241  22.128  10.683
90667W        W62283  18.752   7.232   4.690
90668W        W62284  16.259  21.264   4.463
90669W        W62285  24.439   2.827  12.523
90670W        W62286  34.693  38.607   1.830
90671W        W62287  40.345   1.997  14.001
90672W        W62288  35.102   2.101   3.649
90673W        W62289  25.043  22.760   4.568
90674W        W62290   7.706  35.467   0.179
90675W        W62291  23.688  23.844   3.084
90676W        W62292  27.440  39.663   0.986
90677W        W62293  18.077  34.310  14.589
90678W        W62294  20.746  12.363   1.392
90679W        W62295  36.351   3.078  13.466
90680W        W62296  44.443  25.704  10.609
90681W        W62297  22.934  12.598   4.883
90682W        W62298  40.813   8.179   1.406
90683W        W62299  35.702  20.509   0.488
90684W        W62300  13.603  36.412  11.977
90685W        W62301  10.768  22.388   1.363
90686W        W62302   6.911  20.837   2.312
90687W        W62303  11.651  33.487   1.406
90688W        W62304  38.642  13.188   9.750
90689W        W62305  19.706  36.430   4.792
90690W        W62306  29.930  10.049   4.567
90691W        W62307  23.037  14.571   0.904
90692W        W62308  22.699  40.377   2.798
90693W        W62309  33.881  27.402  10.698
90694W        W62310  29.461  38.957   2.381
90695W        W62311  44.529   7.108   9.792
90696W        W62312  24.580  10.133  11.084
90697W        W62313  27.213  17.059  12.909
90698W        W62314  42.579  14.688   0.721
90699W        W62315  39.501   0.688  14.956
90700W        W62316   6.824  44.523  10.704
90701W        W62317  32.804  27.167  14.774
90702W        W62318  36.863  27.704  12.901
90703W        W62319  44.902  10.602   1.945
90704W        W62320   5.312   5.051  11.199
90705W        W62321  28.080   0.260   0.677
90706W        W62322  25.176  15.245   3.695
90707W        W62323  36.382  35.421  14.927
90708W        W62324  25.512  14.617   0.397
90709W        W62325   4.523  28.152  14.617
90710W        W62326  21.243  19.689   3.098
90711W        W62327  38.945  12.723   0.780
90712W        W62328  32.462  25.646  10.910
90713W        W62329  15.135  19.237   3.790
90714W        W62330  27.541  15.697  14.033
90715W        W62331   8.782  28.767   2.226
90716W        W62332  13.177   6.737  10.085
90717W        W62333  15.165   7.297   3.773
90718W        W62334   4.765   0.802   0.601
90719W        W62335   5.235  25.023   3.621
90720W        W62336  42.472  37.753   4.967
90721W        W62337  24.326   8.019   0.944
90722W        W62338   1.264   4.908   2.255
90723W        W62339   6.176   3.475   4.499
90724W        W62340  39.265   5.371  12.793
90725W        W62341  22.507   6.368  10.997
90726W        W62342  28.417   1.012   0.183
90727W        W62343   7.643   6.922   1.114
90728W        W62344  41.248   8.836  12.913
90729W        W62345  33.603  22.031  13.847
90730W        W62346  21.694  27.626   2.777
90731W        W62347  40.504  11.207   5.235
90732W        W62348  24.435  36.149  14.476
90733W        W62349  38.070  22.258   1.663
90734W        W62350  21.176  43.801  13.967
90735W        W62351  26.021  19.851  12.606
90736W        W62352   8.521  16.040  13.488
90737W        W62353   1.803  32.356   0.437
90738W        W62354  23.173   6.112   0.646
90739W        W62355  31.596  20.007   2.451
90740W        W62356  40.545   8.942  12.347
90741W        W62357  32.604   7.406   1.029
90742W        W62358  14.365  33.887  10.697
90743W        W62359  21.933   7.425  14.449
90744W        W62360  39.192  15.141  11.193
90745W        W62361  26.755  18.723  11.151
90746W        W62362  28.496  14.088   0.837
90747W        W62363  29.420  41.601   4.118
90748W        W62364   9.842  33.116  11.252
90749W        W62365   6.802  38.016  13.843
90750W        W62366  26.630  28.876  12.053
90751W        W62367  13.714  24.559  10.648
90752W        W62368   1.697  10.233  12.628
90753W        W62369  42.281  38.116  11.992
90754W        W62370   2.965  13.620   3.644
90755W        W62371   3.160   6.015   2.735
90756W        W62372   9.638   8.765  12.019
90757W        W62373  21.601  24.116   2.639
90758W        W62374   7.876  27.524   2.294
90759W        W62375  25.961  26.767   3.195
90760W        W62376  22.230  37.789  12.867
90761W        W62377   7.803   5.261  14.042
90762W        W62378  25.110  16.676  12.493
90763W        W62379  37.875  22.096   3.636
90764W        W62380  37.397  38.284  12.881
90765W        W62381  33.129  14.487  14.972
90766W        W62382  37.097  36.536  14.239
90767W        W62383   0.486  28.057   0.243
90768W        W62384   0.560  40.945   4.440
90769W        W62385  44.393  43.746   4.126
90770W        W62386  20.218  37.355  11.942
90771W        W62387  10.226  42.588   1.127
90772W        W62388   5.462  34.541  13.898
90773W        W62389  33.616  20.255  12.469
90774W        W62390  36.309  29.007  14.367
90775W        W62391  36.334  41.698  14.259
90776W        W62392   2.230   8.820   2.048
90777W        W62393  39.964  22.689   4.221
90778W        W62394  15.025  19.559   1.941
90779W        W62395  21.864   7.188  12.908
90780W        W62396  28.366  10.067   3.632
90781W        W62397  11.397  37.392  14.922
90782W        W62398  36.647  38.024   2.678
90783W        W62399  13.514  17.771  10.700
90784W        W62400   2.535  10.837   4.913
90785W        W62401  10.370   9.999   3.797
90786W        W62402   1.449  40.568   3.568
90787W        W62403  17.136  32.837  13.785
90788W        W62404  35.176  38.103  11.192
90789W        W62405  42.956  18.039  11.073
90790W        W62406  26.532  37.796   1.821
90791W        W62407  23.539  33.661   2.721
90792W        W62408  33.474  33.902   2.001
90793W        W62409  28.868  13.805  13.415
90794W        W62410  12.233  14.811   3.257
90795W        W62411  22.093  44.715   2.312
90796W        W62412  19.326  23.012  12.578
90797W        W62413  29.796  33.619   0.278
90798W        W62414  13.144  15.029  14.719
90799W        W62415  10.666  21.261   2.128
90800W        W62416  12.774  14.247   0.773
90801W        W62417  38.387  27.141   3.757
90802W        W62418   4.211  17.914  13.408
90803W        W62419  41.389   4.842   4.229
90804W        W62420  16.738  21.957  11.651
90805W        W62421  37.885   9.431   0.833
90806W        W62422  38.998   5.423  14.781
90807W        W62423  23.504  16.970  14.495
90808W        W62424   3.776  22.227  10.639
90809W        W62425  43.579  18.562   4.617
90810W        W62426  28.941  24.757  11.540
90811W        W62427   1.062  10.569   1.242
90812W        W62428  13.164  35.548  14.301
90813W        W62429  16.212   6.740  10.897
90814W        W62430  27.659  11.747   4.087
90815W        W62431  24.025  13.061   3.635
90816W        W62432  34.474  36.839   4.242
90817W        W62433  10.800  39.444  13.617
90818W        W62434  16.988  44.318   4.250
90819W        W62435  28.015  15.738  13.535
90820W        W62436   2.955  24.625  12.559
90821W        W62437  31.142  39.877  11.698
90822W        W62438  18.963  38.005   4.050
90823W        W62439  35.255  19.707  10.124
90824W        W62440  29.774   5.281   3.242
90825W        W62441  37.806  39.141   1.302
90826W        W62442   3.979  12.224  11.897
90827W        W62443  22.132  27.687   4.489
90828W        W62444  44.620  29.864   0.082
90829W        W62445  34.063   1.068   0.403
90830W        W62446   4.875  38.646   1.398
90831W        W62447  12.008   9.901  13.437
90832W        W62448  17.086  28.478  14.484
90833W        W62449  24.305  41.864   1.904
90834W        W62450   9.237  21.662  13.285
90835W        W62451  20.657  20.186  11.604
90836W        W62452  32.690   4.860   1.448
90837W        W62453  14.191  33.863  11.615
90838W        W62454  33.447  41.637   4.855
90839W        W62455  22.538  20.328  10.713
90840W        W62456  37.474  39.545  12.972
90841W        W62457  12.239   7.429   3.663
90842W        W62458  11.021  19.745  11.164
90843W        W62459  19.117  12.789   2.412
90844W        W62460  39.924  15.303  13.398
90845W        W62461  33.255   3.149  14.001
90846W        W62462  38.462  44.199  12.913
90847W        W62463  23.921  35.530  10.925
90848W        W62464  13.780  40.334  11.909
90849W        W62465  22.012  21.444  10.296
90850W        W62466  11.821  17.138  12.886
90851W        W62467  29.380   8.979  13.078
90852W        W62468   5.703  36.639  12.897
90853W        W62469  35.539  13.366  12.438
90854W        W62470  19.375  13.768  13.473
90855W        W62471  29.417  19.777  11.071
90856W        W62472  14.147   8.816  12.536
90857W        W62473  21.245  17.371   2.625
90858W        W62474  22.016  10.386   2.287
90859W        W62475  19.420  41.142   2.232
90860W        W62476  19.707  41.803  11.107
90861W        W62477  31.151  32.437  13.991
90862W        W62478  22.876  15.313  14.946
90863W        W62479  29.094   7.808   4.481
90864W        W62480  38.576  13.478   4.923
90865W        W62481  37.673  33.913  12.489
90866W        W62482  18.158  11.280   2.274
90867W        W62483  38.444  44.192   4.090
90868W        W62484  37.043  32.540  14.043
90869W        W62485   5.641  24.807   3.852
90870W        W62486   3.873   3.426   0.375
90871W        W62487  37.512  19.339  12.328
90872W        W62488  16.613  12.883   0.940
90873W        W62489   0.523  13.189  11.156
90874W        W62490  26.039  29.642  11.678
90875W        W62491   4.717  40.877   0.771
90876W        W62492  33.541   6.461  14.283
90877W        W62493  28.593  41.935   0.931
90878W        W62494  41.042  42.869   1.366
90879W        W62495   9.633  41.966  13.349
90880W        W62496  32.614  37.608  13.503
90881W        W62497  44.353   1.233   0.488
90882W        W62498  37.026  44.057   1.300
90883W        W62499  15.907  37.625   1.426
90884W        W62500   5.338  18.143   4.539
90885W        W62501  38.533  39.066  14.810
90886W        W62502  34.867   8.263  14.719
90887W        W62503   9.389   5.449  13.812
90888W        W62504  24.286  32.811  11.122
90889W        W62505  13.346  32.061  14.845
90890W        W62506  19.283  29.047   2.481
90891W        W62507  25.684  33.103  13.659
90892W        W62508  18.067  16.350   1.350
90893W        W62509  10.770   1.251  12.506
90894W        W62510  34.571  26.391   3.088
90895W        W62511   4.924  22.215  11.408
90896W        W62512  18.691  26.597  12.915
90897W        W62513   5.560   7.068  12.457
90898W        W62514  23.949  34.030  12.478
90899W        W62515  19.530   7.780   1.300
90900W        W62516   8.074  25.043   3.109
90901W        W62517   7.207  21.675  14.508
90902W        W62518   7.781  37.630  10.752
90903W        W62519  38.450  41.531  13.515
90904W        W62520  39.821  32.529   1.954
90905W        W62521  41.703   9.857   4.594
90906W        W62522  21.942  19.257  12.928
90907W        W62523  41.996   7.994  10.628
90908W        W62524  43.858   0.186   1.626
90909W        W62525  39.047  15.718  13.795
90910W        W62526   5.580  41.827  14.750
90911W        W62527  37.408  16.303   4.077
90912W        W62528   6.221   9.773   3.566
90913W        W62529  26.249   5.884   4.632
90914W        W62530  35.671  22.751  14.141
90915W        W62531   2.396  24.189   2.472
90916W        W62532  40.877  33.572  11.460
90917W        W62533  12.139  27.194  14.003
90918W        W62534  41.011  25.727   0.774
90919W        W62535  39.260  39.277  11.421
90920W        W62536   4.473  43.922  14.432
90921W        W62537  28.276   1.947   0.895
90922W        W62538  31.424  22.507   2.354
90923W        W62539   3.442   0.396  14.464
90924W        W62540  42.978  11.128  12.982
90925W        W62541  30.911  31.544   4.867
90926W        W62542  22.603  29.214   0.065
90927W        W62543  32.911  27.592   0.520
90928W        W62544  12.807   4.575  10.668
90929W        W62545  28.544  11.314  14.280
90930W        W62546   2.355  20.188  13.828
90931W        W62547  15.310  18.038  10.633
90932W        W62548  25.409  44.839   1.701
90933W        W62549  38.823  40.867  13.128
90934W        W62550  24.068  38.647   0.568
90935W        W62551   6.223  32.011   4.245
90936W        W62552  15.807   7.746   2.336
90937W        W62553  29.325   6.365   2.100
90938W        W62554  32.677  36.749  12.446
90939W        W62555  27.456  41.763   4.236
90940W        W62556  14.080  11.409  10.471
90941W        W62557  43.007  17.283   1.312
90942W        W62558  29.066  43.843  11.617
90943W        W62559  33.431  23.734  14.749
90944W        W62560  35.815  39.808   0.299
90945W        W62561  28.686  21.967   0.895
90946W        W62562  25.467  35.035   4.551
90947W        W62563   7.979   8.365  11.799
90948W        W62564   7.192  37.220  13.989
90949W        W62565  43.757  18.193   4.294
90950W        W62566  22.806  39.148  13.465
90951W        W62567  11.441   4.743   0.038
90952W        W62568   5.217  13.849  12.628
90953W        W62569  10.105   1.414   0.337
90954W        W62570  32.097  21.005  11.548
90955W        W62571  21.174  12.102  14.485
90956W        W62572  24.662  10.734  12.404
90957W        W62573  15.586  37.958   3.251
90958W        W62574  41.829  17.865   9.681
90959W        W62575  41.891  40.368   3.612
90960W        W62576  31.217  39.078  14.264
90961W        W62577  41.797  10.094  13.058
90962W        W62578  24.694   5.860   1.379
90963W        W62579  35.326  34.466  10.641
90964W        W62580  24.657   3.618  11.152
90965W        W62581  37.186  19.439  14.019
90966W        W62582   4.084  35.969  11.996
90967W        W62583  30.917   8.236   0.369
90968W        W62584  13.110  42.810  11.573
90969W        W62585  23.967  38.887   2.707
90970W        W62586   1.729  12.823  10.686
90971W        W62587  26.516   9.847   1.462
90972W        W62588  17.152  10.091  13.483
90973W        W62589  12.807  10.653  11.991
90974W        W62590   8.915  13.726   1.821
90975W        W62591  24.692  41.319  11.631
90976W        W62592  42.412  13.943  11.086
90977W        W62593   7.602  15.598  14.351
90978W        W62594  23.979  40.557  11.503
90979W        W62595  19.354  43.783  14.190
90980W        W62596  37.974  28.145  10.174
90981W        W62597  14.766   2.929   2.912
90982W        W62598  39.623  41.475   3.570
90983W        W62599  14.511  32.572   1.330
90984W        W62600  20.433  15.582   0.885
90985W        W62601   1.956  31.874   0.336
90986W        W62602  32.333  43.269   3.284
90987W        W62603   7.734  19.299   1.382
90988W        W62604  39.882   0.911  12.654
90989W        W62605  15.726  24.513   3.715
90990W        W62606  23.810  39.103   0.718
90991W        W62607  30.577  12.050  12.106
90992W        W62608  31.321   1.340   0.689
90993W        W62609  26.241   2.146   3.719
90994W        W62610  31.350  44.423   4.634
90995W        W62611  23.207  30.535   3.881
90996W        W62612  10.370  42.921  13.935
90997W        W62613  17.645  22.996   0.716
90998W        W62614  31.250  32.008   1.668
90999W        W62615  32.409   5.961  14.085
91000W        W62616   4.878  13.042   4.255
91001W        W62617  11.010  17.406  11.181
91002W        W62618   2.558  43.281   2.294
91003W        W62619  33.786  29.078   3.303
91004W        W62620  16.251  34.360   3.755
91005W        W62621  12.577  31.241  12.906
91006W        W62622  31.699  43.420   4.804
91007W        W62623  16.055  33.991  11.884
91008W        W62624  25.578  17.570   3.771
91009W        W62625  34.661  24.542  14.426
91010W        W62626  18.102  12.207  10.740
91011W        W62627  37.455  36.182   3.236
91012W        W62628  44.540   4.730   1.390
91013W        W62629  33.243   2.377  10.808
91014W        W62630  20.127  13.655   3.146
91015W        W62631  34.710  28.145  11.038
91016W        W62632   9.796  13.082   3.855
91017W        W62633  44.253   6.739   3.300
91018W        W62634  26.662  32.504  13.118
91019W        W62635   9.251  16.343   2.427
91020W        W62636  13.034  10.746   1.035
91021W        W62637   9.336   8.422   1.379
91022W        W62638   6.949  42.382  13.914
91023W        W62639  28.460  12.149   2.212
91024W        W62640   6.611  37.542   3.175
91025W        W62641  24.441   1.148  11.128
91026W        W62642  25.017   0.350  11.148
91027W        W62643  35.260  17.065  12.010
91028W        W62644  33.184  24.118   3.354
91029W        W62645   4.723  16.247   3.322
91030W        W62646  39.183   9.992  10.227
91031W        W62647  37.549  39.699  11.215
91032W        W62648  25.657  33.602   3.793
91033W        W62649  18.127  15.628  11.449
91034W        W62650  12.137  21.208   0.702
91035W        W62651   5.833  29.963   2.896
91036W        W62652   1.761   8.261  14.444
91037W        W62653  13.858  11.079  14.507
91038W        W62654  20.770  13.198   0.468
91039W        W62655   9.746  22.793   0.431
91040W        W62656   1.909  15.633  11.130
91041W        W62657  19.790  41.376  14.953
91042W        W62658  14.303  30.562   2.490
91043W        W62659  20.388  24.952   3.811
91044W        W62660   2.219  32.052  13.889
91045W        W62661  14.123  14.356  13.411
91046W        W62662  18.798  34.064   3.011
91047W        W62663  13.551  16.082  10.841
91048W        W62664  40.562  14.874   3.182
91049W        W62665  31.659   4.247   2.793
91050W        W62666   2.358  32.619   1.820
91051W        W62667  42.997  24.136   0.319
91052W        W62668  12.816   7.036   0.785
91053W        W62669  39.488  11.655  13.325
91054W        W62670   8.055  17.983  14.295
91055W        W62671   5.089   1.308  11.857
91056W        W62672  23.572   1.461  13.505
91057W        W62673   4.858  28.375   1.409
91058W        W62674   0.434  32.662   0.486
91059W        W62675  17.199  15.374   2.844
91060W        W62676   4.902  11.343  13.024
91061W        W62677  41.611  13.288   1.226
91062W        W62678  13.156   3.949  13.387
91063W        W62679  11.222  34.626  13.823
91064W        W62680  39.953  42.581   2.742
91065W        W62681  38.646  19.937  12.846
91066W        W62682   3.997  18.558  14.701
91067W        W62683   5.709  33.928   3.755
91068W        W62684   8.267  35.632  11.995
91069W        W62685  18.033  25.041  10.728
91070W        W62686  34.522   7.233   5.016
91071W        W62687   3.936  11.636   2.171
91072W        W62688  35.148  11.720   0.822
91073W        W62689  37.373  27.750  13.928
91074W        W62690  17.961  16.160  11.500
91075W        W62691  23.292  39.012   0.843
91076W        W62692  21.186  37.620   1.915
91077W        W62693  33.376  35.501   1.024
91078W        W62694  24.949  32.628  12.123
91079W        W62695   6.711  18.087  12.608
91080W        W62696  39.562  28.118   2.319
91081W        W62697   0.203   2.182  12.055
91082W        W62698  31.906  38.868  12.810
91083W        W62699  15.533   2.829  14.511
91084W        W62700  40.035  13.257  12.368
91085W        W62701  31.954  25.595   0.819
91086W        W62702  40.021   4.699   9.893
91087W        W62703   0.729  31.181  13.898
91088W        W62704  24.535  41.543   2.727
91089W        W62705  32.159  26.365  12.894
91090W        W62706  41.809  23.010  10.667
91091W        W62707  16.280  14.288   2.328
91092W        W62708  43.941  40.061   1.719
91093W        W62709  41.893  38.933   0.492
91094W        W62710   6.212   0.962   4.544
91095W        W62711  14.816  22.653  11.738
91096W        W62712  16.130  25.548   0.323
91097W        W62713   8.772  22.677   1.907
91098W        W62714   6.338   9.643  11.509
91099W        W62715  38.743  10.884   4.601
91100W        W62716  42.286  20.755   0.990
91101W        W62717  31.960  14.138   4.308
91102W        W62718  28.632  27.493   0.911
91103W        W62719  23.222  37.336  10.702
91104W        W62720   2.290  29.973  12.948
91105W        W62721  40.568  40.804  12.543
91106W        W62722  32.325  30.446  11.639
91107W        W62723  18.003  20.173   0.416
91108W        W62724  16.642  13.278  10.340
91109W        W62725  40.530  31.007  13.866
91110W        W62726  39.705  37.101   0.054
91111W        W62727  39.454   8.087  14.402
91112W        W62728  36.048  33.655   2.855
91113W        W62729  12.570   7.245   2.331
91114W        W62730  38.063  14.697   2.415
91115W        W62731  40.315  27.529  12.978
91116W        W62732  35.476  24.476  12.035
91117W        W62733  34.033  26.868  14.467
91118W        W62734   5.930  31.163  13.561
91119W        W62735  19.744  21.999  14.939
91120W        W62736  21.261  33.005   0.109
91121W        W62737  36.106  17.490   1.219
91122W        W62738  35.563  36.064  14.748
91123W        W62739  24.187  30.691   2.368
91124W        W62740  31.473  28.015  11.252
91125W        W62741  17.014   8.159  11.574
91126W        W62742  36.814  24.573  11.365
91127W        W62743  44.307  11.408   2.803
91128W        W62744  21.724  33.894   3.355
91129W        W62745  35.114  14.394   2.224
91130W        W62746   6.331  19.054   3.643
91131W        W62747  20.701  20.654   4.292
91132W        W62748   7.827  20.644  13.058
91133W        W62749  19.066   2.062  12.412
91134W        W62750  44.922  28.544   3.730
91135W        W62751  20.763   7.699   0.214
91136W        W62752  31.223  24.699  11.016
91137W        W62753   2.160  30.352   2.393
91138W        W62754   5.970   4.331   0.434
91139W        W62755  13.060  39.036   4.203
91140W        W62756  25.531  36.257   1.857
91141W        W62757   3.596  36.584   3.699
91142W        W62758  27.990  14.016   0.798
91143W        W62759  33.091  22.990  11.268
91144W        W62760  38.320  22.268  12.357
91145W        W62761  25.219  15.771  11.841
91146W        W62762  11.870  18.524  12.701
91147W        W62763  32.633  40.540   2.408
91148W        W62764  28.124  38.985  12.579
91149W        W62765  19.642  37.745  11.183
91150W        W62766   3.033  22.474  12.987
91151W        W62767  19.203  30.853  11.642
91152W        W62768  34.216  22.576   2.117
91153W        W62769   2.915   8.785   0.704
91154W        W62770  25.172  35.491  13.023
91155W        W62771  23.764  22.280  11.517
91156W        W62772  27.592  22.683   3.293
91157W        W62773  36.688  32.516  12.408
91158W        W62774  35.838   3.915  13.612
91159W        W62775  39.587  17.136  12.464
91160W        W62776   2.254   1.427   1.191
91161W        W62777  37.362  23.439  13.906
91162W        W62778  27.497  34.691   4.300
91163W        W62779  14.283  26.623  14.406
91164W        W62780   0.712  12.160   0.740
91165W        W62781   2.769  36.463   4.243
91166W        W62782  32.595  31.409   4.950
91167W        W62783  38.584  23.016  14.758
91168W        W62784   4.329  19.054   3.856
91169W        W62785  12.685  10.956   1.342
91170W        W62786  44.561  12.198   4.092
91171W        W62787   8.122  25.587   4.610
91172W        W62788  33.575  40.371   2.679
91173W        W62789  18.739  27.048  14.345
91174W        W62790  19.052  20.335  11.497
91175W        W62791  21.977  15.729  12.300
91176W        W62792  20.340  12.104   0.282
91177W        W62793  42.206   7.252   4.140
91178W        W62794  27.715   9.313  14.553
91179W        W62795  16.824  31.427   3.033
91180W        W62796  11.402  37.342  13.453
91181W        W62797  31.853  13.671   3.091
91182W        W62798  14.179  21.906   3.256
91183W        W62799   5.960  14.822   4.078
91184W        W62800  39.028  29.213   2.232
91185W        W62801  44.282   4.622   1.852
91186W        W62802  38.171  41.267   1.836
91187W        W62803  31.827  14.739   2.248
91188W        W62804  25.771  28.558   3.219
91189W        W62805  24.286   7.795   1.840
91190W        W62806  31.969  27.138   4.038
91191W        W62807  27.421  30.639  11.469
91192W        W62808  17.052   6.365   2.363
91193W        W62809   8.927  33.795  11.145
91194W        W62810  16.262  39.850  14.761
91195W        W62811  41.668   2.779   4.322
91196W        W62812  12.231  43.411  14.483
91197W        W62813  15.121   2.173   0.803
91198W        W62814  37.087   1.158   2.867
91199W        W62815   3.429  15.758  12.566
91200W        W62816  26.928   9.228  14.936
91201W        W62817  22.983  43.017  13.761
91202W        W62818  20.004  17.107   4.564
91203W        W62819  10.820  31.418  11.865
91204W        W62820  16.023  10.730   2.307
91205W        W62821  39.167  37.560  12.497
91206W        W62822  25.459   0.264  14.421
91207W        W62823  41.787  36.042   0.285
91208W        W62824   2.424  39.319  14.821
91209W        W62825  43.090   3.834  11.726
91210W        W62826  38.994  20.962  12.938
91211W        W62827  10.634  27.052   4.668
91212W        W62828   4.439   0.967   2.937
91213W        W62829  20.811  25.722  13.882
91214W        W62830  32.981  11.605  11.837
91215W        W62831  27.017  27.031  11.935
91216W        W62832  11.182  37.850  10.596
91217W        W62833  33.137   0.392   2.221
91218W        W62834  29.864   6.414   4.246
91219W        W62835  39.486  10.751  13.465
91220W        W62836  28.235  12.284   2.770
91221W        W62837   5.679  16.172   1.336
91222W        W62838  31.017  31.813   1.219
91223W        W62839  11.663  19.139  10.500
91224W        W62840  39.145  14.174  10.324
91225W        W62841  31.962  18.220  12.601
91226W        W62842  17.944  21.278   2.226
91227W        W62843  31.031  12.578   0.301
91228W        W62844  43.637  21.773   1.324
91229W        W62845  18.797  35.173   0.451
91230W        W62846   7.940  20.487  13.906
91231W        W62847  31.756   2.040  12.871
91232W        W62848  26.545  41.519  11.511
91233W        W62849  44.731   5.979   2.750
91234W        W62850  31.917   0.492   2.386
91235W        W62851   6.359  17.545  14.061
91236W        W62852  35.111  32.158   3.274
91237W        W62853   7.102  42.589  13.463
91238W        W62854  14.369  17.294   4.627
91239W        W62855  31.699  31.262   1.233
91240W        W62856  36.387  36.822   4.169
91241W        W62857  37.632  19.704   3.195
91242W        W62858  26.578   8.282  12.523
91243W        W62859   5.819   7.089  10.841
91244W        W62860  22.852   5.715   1.008
91245W        W62861   9.085  15.787  10.979
91246W        W62862  19.633   7.226  14.231
91247W        W62863  29.660  42.048  10.944
91248W        W62864  12.986  22.173   3.315
91249W        W62865  37.513  43.848   4.612
91250W        W62866  35.409  14.247   1.780
91251W        W62867  29.382  20.188  11.529
91252W        W62868  19.312  33.049  12.104
91253W        W62869  24.783  23.125   0.320
91254W        W62870  14.050  43.257   1.733
91255W        W62871   6.151  16.353   3.237
91256W        W62872  11.810  34.891   4.506
91257W        W62873  18.491  22.113  11.096
91258W        W62874   9.833  20.971   1.170
91259W        W62875  18.120  37.206   0.916
91260W        W62876  13.377  26.643  14.933
91261W        W62877  25.425  13.717   1.316
91262W        W62878  25.051  26.075  12.518
91263W        W62879  43.471  28.428   2.873
91264W        W62880  18.235  14.552  13.503
91265W        W62881   0.337  12.700  11.172
91266W        W62882  12.733  28.985   1.103
91267W        W62883  25.645  31.227  11.222
91268W        W62884  30.082  22.118   2.847
91269W        W62885  32.971  10.677   0.511
91270W        W62886   2.217  11.125  12.984
91271W        W62887   8.932  20.183  10.983
91272W        W62888  21.137   9.200  11.955
91273W        W62889  41.325   9.857   2.742
91274W        W62890   7.803  12.377  13.518
91275W        W62891  15.273  34.872  10.685
91276W        W62892  35.357  29.040   0.282
91277W        W62893  32.589   8.448   2.814
91278W        W62894  31.386   4.204   2.328
91279W        W62895  42.307  23.565   2.138
91280W        W62896  44.167  23.513  10.471
91281W        W62897  23.759  28.781  11.077
91282W        W62898  23.075  36.533  14.098
91283W        W62899  15.180  44.077  14.425
91284W        W62900  14.643  21.400   3.704
91285W        W62901  10.444   6.157   0.541
91286W        W62902  29.223  40.244  10.698
91287W        W62903  25.612  10.659   1.762
91288W        W62904  27.465  21.669   1.718
91289W        W62905  39.868  22.670   0.060
91290W        W62906  14.121  10.168  12.984
91291W        W62907  27.683  43.896  14.252
91292W        W62908  27.049   3.277  14.054
91293W        W62909   2.819  12.661   4.709
91294W        W62910  37.110  29.633  12.544
91295W        W62911  18.103  40.136  14.108
91296W        W62912  22.775  42.961   4.474
91297W        W62913  20.797  10.831   4.843
91298W        W62914  30.319  26.905   2.335
91299W        W62915  44.911  20.631   2.380
91300W        W62916   8.222  23.359  11.154
91301W        W62917  25.087   1.310  14.900
91302W        W62918  34.428   5.633  11.995
91303W        W62919  31.398  11.680   0.007
91304W        W62920  20.478  38.024  12.407
91305W        W62921  15.154   7.957   2.113
91306W        W62922  27.193   3.266   3.773
91307W        W62923  43.324  14.809  12.039
91308W        W62924  25.166  15.241   4.639
91309W        W62925  11.184  28.211  10.560
91310W        W62926  21.101  43.532   0.366
91311W        W62927  14.280  10.625   2.816
91312W        W62928  38.284  39.368  12.563
91313W        W62929  30.566  16.385   1.349
91314W        W62930  28.559  38.982   2.908
91315W        W62931   7.172  13.066  11.594
91316W        W62932   0.511  35.080   4.181
91317W        W62933  12.405  25.304   0.530
91318W        W62934  20.370  36.618   0.250
91319W        W62935  11.248  20.487   3.137
91320W        W62936  10.176  39.494  14.394
91321W        W62937   0.024  34.877  12.909
91322W        W62938  30.045  18.062  14.810
91323W        W62939   8.444   5.217   4.060
91324W        W62940  15.925   0.227   3.924
91325W        W62941  20.474  19.562   2.654
91326W        W62942  32.434  39.721   0.667
91327W        W62943  23.655  11.140   0.681
91328W        W62944  31.060  24.146   3.141
91329W        W62945   5.926  34.396  10.691
91330W        W62946  33.189   4.808  11.749
91331W        W62947  22.220  39.375   4.219
91332W        W62948   0.450  18.228  13.482
91333W        W62949  41.122  12.264   2.344
91334W        W62950  18.807  37.066  14.320
91335W        W62951  19.120   2.764   2.908
91336W        W62952  31.125  38.820   1.931
91337W        W62953  44.724  27.517  11.068
91338W        W62954  14.381  22.537   2.736
91339W        W62955  40.224   4.876  12.951
91340W        W62956   5.384  13.218   3.407
91341W        W62957  36.723  39.994   1.276
91342W        W62958   7.434  15.830  12.087
91343W        W62959  25.641  27.608   3.112
91344W        W62960   1.372   7.157  13.463
91345W        W62961   6.129   8.696   4.282
91346W        W62962  15.716  10.082   4.097
91347W        W62963   3.596  37.262   0.469
91348W        W62964  33.129  14.991  14.852
91349W        W62965  42.531  26.368  12.233
91350W        W62966  16.119   1.012  10.857
91351W        W62967  24.763  40.403   2.263
91352W        W62968   9.937  23.723   4.331
91353W        W62969   6.708   0.018   1.884
91354W        W62970  25.835  17.439   4.194
91355W        W62971  20.806  37.601  13.740
91356W        W62972   7.992  11.615  11.240
91357W        W62973  40.250  28.641  14.404
91358W        W62974  24.601  38.041   2.231
91359W        W62975  21.492  26.823  11.927
91360W        W62976  21.635   8.664  13.783
91361W        W62977   3.675  20.067  13.269
91362W        W62978  12.904   3.241  13.471
91363W        W62979  39.441  22.617  14.669
91364W        W62980  35.463  43.351   0.332
91365W        W62981  37.843  25.812  14.014
91366W        W62982  15.350  28.708  14.359
91367W        W62983  38.437  22.405   0.502
91368W        W62984   3.037  25.467   2.612
91369W        W62985  15.680  15.017   0.864
91370W        W62986  38.085   5.256   0.275
91371W        W62987   0.242   0.060  14.860
91372W        W62988   1.960   5.645  14.855
91373W        W62989  15.096   7.877   0.794
91374W        W62990   5.205   8.212   1.798
91375W        W62991  44.455  21.988   3.743
91376W        W62992  42.446  36.050   3.808
91377W        W62993   3.744  24.250  13.275
91378W        W62994  10.042  32.324  14.283
91379W        W62995  37.905  17.376   1.638
91380W        W62996   5.521   1.816   0.324
91381W        W62997  23.951  33.668  12.087
91382W        W62998  34.983  17.911   3.700
91383W        W62999  39.923  41.829  14.579
91384W        W63000  12.297  19.603   2.614
91385W        W63001  18.596   0.343  11.412
91386W        W63002  20.582  32.373   3.659
91387W        W63003  44.945   9.643  13.264
91388W        W63004  32.206  41.180   0.924
91389W        W63005   4.318  16.178  12.523
91390W        W63006  10.088  14.344   3.786
91391W        W63007  17.392  14.620   4.676
91392W        W63008  32.007  25.510   4.806
91393W        W63009  21.940  44.516   3.670
91394W        W63010   4.307  13.651   3.608
91395W        W63011  32.402   1.346   0.728
91396W        W63012  30.155  11.583  13.749
91397W        W63013  38.814  34.756  14.101
91398W        W63014  13.658   9.202  13.998
91399W        W63015  32.929  27.127   1.163
91400W        W63016  40.521  10.179  12.020
91401W        W63017   4.392  39.040  12.579
91402W        W63018  19.195  35.433   3.692
91403W        W63019  26.890  14.859   4.851
91404W        W63020  15.338  12.615  10.726
91405W        W63021  24.947   8.909  12.707
91406W        W63022   8.298  13.044  10.445
91407W        W63023  27.494  32.615   1.606
91408W        W63024  25.900  14.241   1.898
91409W        W63025  25.772   5.728   4.515
91410W        W63026  40.765  30.893  11.561
91411W        W63027  21.233  11.105   4.698
91412W        W63028  22.638  24.913   3.400
91413W        W63029   5.646  15.819  14.037
91414W        W63030  29.398   6.334  10.552
91415W        W63031  27.783  40.640  13.823
91416W        W63032  17.088  43.033   3.440
91417W        W63033  37.643  24.076   4.647
91418W        W63034  32.535  20.232   1.266
91419W        W63035  34.588  42.977   2.741
91420W        W63036  11.492  42.804   2.236
91421W        W63037  17.343  42.700  12.498
91422W        W63038  33.521  17.090  14.779
91423W        W63039   6.765  24.159  14.441
91424W        W63040   1.796  42.824   3.333
91425W        W63041  22.885  29.035  14.276
91426W        W63042  16.241  13.531  12.925
91427W        W63043  10.402  43.049   1.368
91428W        W63044  36.748  35.652  14.633
91429W        W63045  21.262  37.566   4.182
91430W        W63046   3.826  37.277   0.933
91431W        W63047  27.195  25.748  10.770
91432W        W63048  39.989  14.089   3.803
91433W        W63049   5.194  29.991   3.720
91434W        W63050  30.489  24.917  12.486
91435W        W63051  30.268  36.283   4.158
91436W        W63052  27.383  38.045   2.321
91437W        W63053  20.676  22.082   0.465
91438W        W63054  12.136  44.301   4.606
91439W        W63055  33.475  22.044   3.554
91440W        W63056  18.639  38.943  12.402
91441W        W63057  24.544  32.321  13.519
91442W        W63058  41.414  16.859   1.126
91443W        W63059  27.459   1.757   0.458
91444W        W63060  26.261  34.947   1.867
91445W        W63061  41.422  12.164  11.516
91446W        W63062  18.300  18.987  14.332
91447W        W63063  15.926  28.875   3.604
91448W        W63064   9.955  17.303   0.773
91449W        W63065  21.455  22.566  12.171
91450W        W63066  41.819  41.878  14.864
91451W        W63067  13.217  42.063  10.653
91452W        W63068   5.216   4.181  13.915
91453W        W63069  25.335  17.199  13.830
91454W        W63070  22.680  33.994  10.396
91455W        W63071   0.718  40.460   1.890
91456W        W63072  17.656  31.414  12.894
91457W        W63073   7.729  15.120   0.412
91458W        W63074  24.104   7.695   1.365
91459W        W63075  22.149   5.900  12.016
91460W        W63076  24.511  36.530  10.404
91461W        W63077  34.452   7.629  10.765
91462W        W63078  31.867   0.445   0.794
91463W        W63079   8.408  21.250   0.018
91464W        W63080  15.161  25.539   5.041
91465W        W63081  20.304  38.673  14.660
91466W        W63082   2.138  15.049  14.350
91467W        W63083   1.495  19.703  11.532
91468W        W63084  24.461  20.670   0.865
91469W        W63085  36.376  36.191  13.264
91470W        W63086   1.470   6.587  11.276
91471W        W63087   0.228  43.221  11.178
91472W        W63088  25.043  33.399   0.927
91473W        W63089  15.228  15.530  13.786
91474W        W63090  23.795  12.062   4.275
91475W        W63091   1.875  19.629  11.968
91476W        W63092  41.913  36.488   1.966
91477W        W63093  20.073  18.741   1.639
91478W        W63094  31.020  14.112   5.030
91479W        W63095  17.973  10.813  10.790
91480W        W63096  34.353  44.027   0.029
91481W        W63097   0.045  17.758  14.710
91482W        W63098   2.267  35.974  12.440
91483W        W63099  15.739  44.919   2.592
91484W        W63100  29.392  14.192   3.320
91485W        W63101  17.646  15.746   3.227
91486W        W63102  25.986  21.104  14.325
91487W        W63103  40.338   8.383   4.354
91488W        W63104  28.517  20.126   0.363
91489W        W63105  30.132  25.508   0.370
91490W        W63106  38.916  35.120  11.486
91491W        W63107  43.535   8.318  13.845
91492W        W63108  41.518  29.155  13.523
91493W        W63109  17.648  12.409  11.632
91494W        W63110  31.881  30.054  10.801
91495W        W63111  10.320  38.130  11.167
91496W        W63112   2.006   8.164   3.273
91497W        W63113  30.009  35.642  11.191
91498W        W63114  37.616  41.641   0.957
91499W        W63115  32.595  31.580   4.396
91500W        W63116  35.896  33.803   2.373
91501W        W63117   7.295  16.057   0.774
91502W        W63118  42.005  26.187   4.734
91503W        W63119  38.748   9.943   3.609
91504W        W63120   2.882  17.999  13.359
91505W        W63121  34.441  19.215  14.256
91506W        W63122  28.522  17.658  10.665
91507W        W63123  28.005  42.781   1.761
91508W        W63124  23.722  10.618   0.845
91509W        W63125  26.047  39.766   3.228
91510W        W63126   1.427  35.649  11.095
91511W        W63127  21.666  32.947   3.677
91512W        W63128  10.669   7.092  11.959
91513W        W63129  25.431  10.857  13.026
91514W        W63130  15.705  19.524   4.206
91515W        W63131   4.961  37.936  12.450
91516W        W63132  15.422   4.227   5.553
91517W        W63133  26.391  36.237   3.714
91518W        W63134  24.506  22.955  13.628
91519W        W63135   4.996   3.485  14.700
91520W        W63136  12.726  40.398   3.618
91521W        W63137  43.772  24.580   1.839
91522W        W63138  19.752   1.268   0.618
91523W        W63139  21.523  43.551   1.769
91524W        W63140   5.273  32.751  14.753
91525W        W63141  41.991  30.060   2.499
91526W        W63142  14.857  13.377  12.482
91527W        W63143   7.454   5.795  11.136
91528W        W63144  16.174  33.368  14.880
91529W        W63145  36.219  17.291   1.696
91530W        W63146  39.772  21.640  10.610
91531W        W63147   1.197   7.312  10.725
91532W        W63148  25.968  29.730   2.647
91533W        W63149  11.544  11.698   4.029
91534W        W63150  19.643  27.925  12.572
91535W        W63151  35.023  36.087  13.327
91536W        W63152  22.455  44.582  13.860
91537W        W63153   6.421  31.167  10.691
91538W        W63154  19.971  10.627  14.631
91539W        W63155   5.297  25.742   0.222
91540W        W63156  11.906  36.119   1.905
91541W        W63157   4.471   6.593  14.151
91542W        W63158   8.847  30.899   1.853
91543W        W63159   7.201   6.964   3.795
91544W        W63160  24.168  25.152   0.906
91545W        W63161   2.185  20.828   4.341
91546W        W63162  42.146   4.738  14.820
91547W        W63163  26.647  12.652  11.161
91548W        W63164  39.522  10.319   1.715
91549W        W63165  20.696  42.819   3.235
91550W        W63166  34.662  28.888   3.132
91551W        W63167   8.133  13.778  12.093
91552W        W63168   0.422  30.033   3.729
91553W        W63169  12.016  27.655  12.930
91554W        W63170  20.730  17.178   3.831
91555W        W63171  33.049  19.574   0.058
91556W        W63172  25.488  15.142   0.382
91557W        W63173   5.713  25.333   1.369
91558W        W63174  40.751   8.292  14.931
91559W        W63175  14.015  16.880  10.724
91560W        W63176  39.549  34.630  12.512
91561W        W63177  28.838  18.130   2.585
91562W        W63178  43.809  26.951   2.361
91563W        W63179   1.524  11.769  14.293
91564W        W63180  30.653  28.968  10.409
91565W        W63181  26.713   4.819   1.941
91566W        W63182  12.857  16.576   1.918
91567W        W63183   6.262  42.929   0.437
91568W        W63184  16.602  13.637  11.569
91569W        W63185  43.222  27.667   0.341
91570W        W63186   6.838  31.792   2.490
91571W        W63187   6.418  38.206   3.175
91572W        W63188  42.053  25.410  12.485
91573W        W63189  34.377  18.562   2.824
91574W        W63190  12.570  30.400  11.128
91575W        W63191  24.686  10.977  13.407
91576W        W63192  37.526  14.082   1.373
91577W        W63193  33.993  43.208   3.531
91578W        W63194  12.270  35.477  12.805
91579W        W63195   8.647   8.140  13.821
91580W        W63196  16.981  40.391   4.298
91581W        W63197  12.213  12.937   1.064
91582W        W63198  44.294  34.851  12.497
91583W        W63199  12.406  29.598  13.493
91584W        W63200  15.208   6.628  11.056
91585W        W63201  19.241  18.215  14.239
91586W        W63202  30.165  44.892  12.554
91587W        W63203  12.749  25.620   0.786
91588W        W63204  32.084  42.247   0.907
91589W        W63205  22.453  30.561   0.510
91590W        W63206  41.292  44.808   2.293
91591W        W63207   1.411   7.149   4.270
91592W        W63208  33.581  39.374  10.982
91593W        W63209  12.322  37.919  14.528
91594W        W63210  31.949   4.694   0.985
91595W        W63211  32.459  35.069   2.922
91596W        W63212  26.920  12.272   0.911
91597W        W63213   1.903  38.817  11.117
91598W        W63214   4.938  41.914  11.563
91599W        W63215   1.791  35.329  11.274
91600W        W63216   1.333  13.741   2.612
91601W        W63217  31.866  38.427   1.403
91602W        W63218  31.357  32.048  13.028
91603W        W63219  38.333  29.556  14.884
91604W        W63220  17.109  43.920   3.306
91605W        W63221  25.466  17.634  12.972
91606W        W63222  24.200  24.114   0.712
91607W        W63223  32.473   1.526  13.423
91608W        W63224  37.450  40.812   1.292
91609W        W63225  34.901  43.292   3.534
91610W        W63226  44.837  21.168   2.570
91611W        W63227  37.946  32.998  10.337
91612W        W63228   8.446   0.994   2.732
91613W        W63229  18.994  39.994   3.123
91614W        W63230  12.866  41.947   1.500
91615W        W63231  18.064   6.347  11.988
91616W        W63232   3.786   0.906  11.110
91617W        W63233   6.853  12.322   0.935
91618W        W63234  27.371  20.708   3.794
91619W        W63235  33.030  20.364   0.428
91620W        W63236  22.268   3.674  13.425
91621W        W63237  31.114  36.052   2.254
91622W        W63238  29.535  30.322   3.005
91623W        W63239   0.701  43.017   4.311
91624W        W63240  19.828  23.708  14.776
91625W        W63241  43.461  17.445   0.380
91626W        W63242   8.354  24.079   3.317
91627W        W63243  12.362  13.324  14.248
91628W        W63244  31.604  10.754  11.593
91629W        W63245  30.951  27.570   2.644
91630W        W63246  24.287   9.706   2.665
91631W        W63247  22.443  19.063   3.267
91632W        W63248  28.951  14.321   1.997
91633W        W63249  38.030  34.879  10.703
91634W        W63250  14.002  39.488  12.810
91635W        W63251   9.752  17.235  11.155
91636W        W63252  40.969  36.603  14.044
91637W        W63253   1.095  39.014   1.907
91638W        W63254   6.476  12.650  14.429
91639W        W63255  40.725  39.245  13.566
91640W        W63256  34.046  26.972   2.813
91641W        W63257  20.225  27.914  11.705
91642W        W63258  15.225  10.683   4.639
91643W        W63259   7.744  13.879  11.734
91644W        W63260   9.739  31.528   0.699
91645W        W63261   7.444   8.582  14.451
91646W        W63262  38.536  41.703   3.990
91647W        W63263   6.616  26.099  11.984
91648W        W63264  44.102   0.820   5.075
91649W        W63265  22.181  35.039   4.313
91650W        W63266  41.991  31.878  11.992
91651W        W63267  33.901   4.305  11.970
91652W        W63268  13.229  40.033  11.138
91653W        W63269   0.539   7.504  14.685
91654W        W63270  22.498   7.820  11.083
91655W        W63271   4.445  10.385  13.378
91656W        W63272  42.225   3.338  13.859
91657W        W63273   4.345  36.848   4.587
91658W        W63274   7.416  13.531   2.190
91659W        W63275  34.867  28.080   0.003
91660W        W63276  23.508  32.972   3.871
91661W        W63277  20.187  18.768   1.140
91662W        W63278  26.505  20.620  14.963
91663W        W63279  26.978  30.950   4.606
91664W        W63280  29.535  21.483   2.360
91665W        W63281  17.369  22.253  14.900
91666W        W63282  22.968  37.395  14.511
91667W        W63283  42.451  10.370  12.069
91668W        W63284  33.356  33.377   0.819
91669W        W63285   2.480  23.702  12.425
91670W        W63286  24.217   9.715   4.874
91671W        W63287  18.564   4.721  14.447
91672W        W63288  10.410  17.607  14.094
91673W        W63289  40.013   6.394   0.986
91674W        W63290  20.290   3.065  14.174
91675W        W63291  28.603  18.214  14.407
91676W        W63292  21.606  15.866   3.456
91677W        W63293  37.015  29.294   2.875
91678W        W63294  39.417  32.891   1.866
91679W        W63295  23.535  37.562   1.779
91680W        W63296  34.718  42.935  10.705
91681W        W63297  19.539  24.992  14.044
91682W        W63298   8.221  34.122  11.521
91683W        W63299  14.195  12.319   3.375
91684W        W63300  18.280  35.557  11.468
91685W        W63301   8.188  15.393   4.811
91686W        W63302   6.952  27.032  11.667
91687W        W63303   7.323  13.009   2.758
91688W        W63304   5.618  20.258   1.383
91689W        W63305  41.369  10.650  13.480
91690W        W63306  42.271  42.802   4.647
91691W        W63307  42.340  37.126  12.942
91692W        W63308   5.739  29.796   4.399
91693W        W63309  28.485   5.614  11.238
91694W        W63310  43.709  43.506  12.010
91695W        W63311  29.390  20.712   4.516
91696W        W63312   1.269  40.777   2.268
91697W        W63313   2.466   8.879  10.451
91698W        W63314   9.722  20.462  10.667
91699W        W63315   2.202   0.482   1.889
91700W        W63316  27.478   3.324  13.762
91701W        W63317  28.426  39.274  11.580
91702W        W63318   6.668  21.262  14.542
91703W        W63319  25.650  43.954   3.653
91704W        W63320  11.629  25.206  14.419
91705W        W63321  18.111  23.268   3.532
91706W        W63322  24.897  32.552   3.388
91707W        W63323   6.178  25.569  14.762
91708W        W63324  43.269  26.563   1.045
91709W        W63325  37.498  39.782   2.221
91710W        W63326  28.550  15.296   3.579
91711W        W63327  15.476   5.985  12.959
91712W        W63328  18.579   8.174  10.769
91713W        W63329  33.910  19.801  14.861
91714W        W63330  28.524   5.567   2.931
91715W        W63331   2.908  10.436  12.466
91716W        W63332  19.084  33.895  12.004
91717W        W63333   9.761  14.330  11.327
91718W        W63334  22.060  44.964  13.858
91719W        W63335  26.523  19.748   0.791
91720W        W63336  24.130  27.434   0.738
91721W        W63337  41.923  32.537   1.857
91722W        W63338  11.094  27.511  14.983
91723W        W63339  42.237  34.533   1.836
91724W        W63340  32.697  16.014  12.081
91725W        W63341  30.419  14.206   2.189
91726W        W63342  26.028  15.150  12.076
91727W        W63343  34.569  25.650  11.565
91728W        W63344  11.006  39.117   1.704
91729W        W63345  14.267   2.611   0.359
91730W        W63346  23.933  35.467   2.476
91731W        W63347  40.834  33.684   4.078
91732W        W63348   4.943  35.372  12.031
91733W        W63349  14.739  37.602  11.600
91734W        W63350  21.003  39.515   4.627
91735W        W63351  27.701  15.392   1.213
91736W        W63352  11.862  27.651  13.917
91737W        W63353   3.460  29.574   0.517
91738W        W63354  28.148  31.732  11.161
91739W        W63355   6.423  24.759  11.105
91740W        W63356  27.498   9.998  11.799
91741W        W63357  25.575  41.816  10.496
91742W        W63358  30.000  11.899  11.019
91743W        W63359  17.312   9.888  11.590
91744W        W63360   5.793   0.285   1.373
91745W        W63361  32.545  41.037  11.621
91746W        W63362  36.998  38.769   4.707
91747W        W63363  40.883   1.420  12.607
91748W        W63364  35.877  38.952  12.622
91749W        W63365  35.922   5.974  11.233
91750W        W63366   0.903  41.546   1.757
91751W        W63367  32.047   6.367  10.576
91752W        W63368  16.810  40.813  10.717
91753W        W63369  36.381  14.208   1.914
91754W        W63370  18.777  34.947  11.484
91755W        W63371  18.249  19.098  10.720
91756W        W63372  39.695  35.826  11.543
91757W        W63373   9.871  23.019  11.488
91758W        W63374   7.844   1.848   0.204
91759W        W63375  33.276  36.591  11.009
91760W        W63376  11.714  38.818   0.050
91761W        W63377  27.592  35.980  10.378
91762W        W63378  17.590   3.316  11.966
91763W        W63379  17.050  27.314  10.576
91764W        W63380  22.632  31.044  13.064
91765W        W63381   7.921  43.443  12.341
91766W        W63382  41.133  44.238   2.821
91767W        W63383  41.358  20.508  12.914
91768W        W63384  29.440  23.477   2.212
91769W        W63385  33.949   4.498  10.477
91770W        W63386  26.993   6.959   3.552
91771W        W63387  13.236  24.731  11.951
91772W        W63388  43.891  11.109   3.548
91773W        W63389   7.592  36.423  12.516
91774W        W63390  25.182  29.388   3.176
91775W        W63391  42.929  31.760  10.307
91776W        W63392  21.880  24.507  11.220
91777W        W63393  43.091  42.541  11.179
91778W        W63394  10.618  42.482  10.702
91779W        W63395  30.839   7.403  11.443
91780W        W63396  34.696   7.219   1.955
91781W        W63397   3.659  34.978  12.885
91782W        W63398  19.408  33.680   1.888
91783W        W63399  19.548  11.962  11.603
91784W        W63400  17.711   2.228  12.463
91785W        W63401  27.672  42.457  10.448
91786W        W63402  31.058  37.322  13.512
91787W        W63403  28.960  30.559  12.354
91788W        W63404  41.898  35.573   2.909
91789W        W63405  12.644  20.498  14.234
91790W        W63406  13.661   8.371  11.621
91791W        W63407  32.130  24.102  13.080
91792W        W63408   0.172  35.501   4.319
91793W        W63409   7.395   2.222  14.875
91794W        W63410  37.585   8.587   0.328
91795W        W63411  16.775  44.784   3.130
91796W        W63412  43.289   4.038  13.447
91797W        W63413   4.288  21.716  11.345
91798W        W63414   5.954  24.685  10.487
91799W        W63415  41.578  43.372  14.819
91800W        W63416  33.398  11.328  11.625
91801W        W63417   4.908   0.914  10.155
91802W        W63418  17.742  15.272  14.510
91803W        W63419  28.648  14.023  10.685
91804W        W63420  17.293  16.275  10.202
91805W        W63421  24.667  32.020  12.655
91806W        W63422  30.365  22.008   3.293
91807W        W63423  27.988  22.700   0.623
91808W        W63424  28.183  23.635   0.285
91809W        W63425  27.103  35.117  11.436
91810W        W63426  19.360  40.582   0.957
91811W        W63427  41.560  16.236   0.271
91812W        W63428  39.075  40.085   1.404
91813W        W63429  15.427   3.189   1.479
91814W        W63430  35.830  21.164   4.118
91815W        W63431  38.643  31.988   2.255
91816W        W63432   9.595  27.433  11.138
91817W        W63433  44.792  42.268   4.102
91818W        W63434   5.876  11.425  10.735
91819W        W63435   1.798   7.003  12.154
91820W        W63436   7.941  30.765  10.186
91821W        W63437  37.401  30.647   1.950
91822W        W63438  42.798  36.670  11.002
91823W        W63439  43.360  15.880   0.256
91824W        W63440  17.165   9.083  12.511
91825W        W63441  17.180  18.687   5.195
91826W        W63442  19.589  44.846   0.398
91827W        W63443  24.646  36.138  13.126
91828W        W63444   9.801  18.147   0.552
91829W        W63445  24.611  23.682  14.820
91830W        W63446  24.420  31.101  11.660
91831W        W63447  30.931  24.574  13.783
91832W        W63448  15.046  23.736  11.843
91833W        W63449  14.722   9.572   1.850
91834W        W63450  37.173  42.279  14.428
91835W        W63451  25.199  32.980   3.265
91836W        W63452  39.428  36.766   1.390
91837W        W63453  24.235  11.754   3.084
91838W        W63454  26.618  40.809   3.787
91839W        W63455  40.985  44.729   2.706
91840W        W63456  28.833   2.672  14.498
91841W        W63457  34.468   7.461   2.812
91842W        W63458  14.891  13.227  11.051
91843W        W63459   5.420  12.844  12.915
91844W        W63460  29.623  41.843   2.843
91845W        W63461  11.236  30.474   3.777
91846W        W63462   4.904   5.273   2.855
91847W        W63463  44.240  21.765  14.670
91848W        W63464  18.544  11.160   3.192
91849W        W63465  16.270  37.182   3.148
91850W        W63466  38.171  19.633  12.459
91851W        W63467  31.494   1.602   2.820
91852W        W63468  16.095   0.861  12.354
91853W        W63469  27.304  42.098   0.708
91854W        W63470  41.932   7.341   4.572
91855W        W63471  33.146  12.762  10.850
91856W        W63472   4.709   6.223  12.898
91857W        W63473  44.502  38.147  13.922
91858W        W63474  25.544  38.212  11.152
91859W        W63475  10.751  40.036  11.799
91860W        W63476   6.946  32.848   3.426
91861W        W63477  16.155  30.745   2.127
91862W        W63478   5.293  13.772  11.705
91863W        W63479  23.769  21.348  10.722
91864W        W63480  35.350  18.810  14.506
91865W        W63481  24.578   4.850   1.711
91866W        W63482   0.432  29.131  14.058
91867W        W63483  42.558   1.292   3.608
91868W        W63484  43.355   2.203   4.432
91869W        W63485  31.528   3.836  12.892
91870W        W63486  30.400  33.767   3.323
91871W        W63487   8.748   8.358  10.579
91872W        W63488  33.038  33.886   3.206
91873W        W63489  23.465  41.990   3.703
91874W        W63490  15.920  17.264   4.543
91875W        W63491  14.428   7.767  11.709
91876W        W63492  34.678  25.923   2.159
91877W        W63493  27.367  16.532  11.130
91878W        W63494  22.078   3.742  10.661
91879W        W63495  13.807  41.799  12.889
91880W        W63496  41.345  18.144  13.927
91881W        W63497   6.481  14.334   3.851
91882W        W63498  21.966  23.155   4.506
91883W        W63499   5.816  34.389   2.582
91884W        W63500   0.042  24.705  12.994
91885W        W63501  37.725  36.842   3.720
91886W        W63502   7.157  29.037  12.052
91887W        W63503  35.970  43.500  13.984
91888W        W63504  28.102  11.695  13.734
91889W        W63505  44.041  33.838   2.857
91890W        W63506   2.953  34.690  12.376
91891W        W63507  41.303   0.517  11.144
91892W        W63508  20.572  30.574   4.637
91893W        W63509  15.170   1.032   3.260
91894W        W63510  11.349   0.598   2.133
91895W        W63511  34.174  23.647   4.342
91896W        W63512  10.865   1.497   1.251
91897W        W63513  10.714  30.564   4.274
91898W        W63514  39.046   5.736  13.767
91899W        W63515  26.945  11.446  12.161
91900W        W63516  17.621  26.678   1.635
91901W        W63517  31.068  40.719  12.974
91902W        W63518   6.906  30.251   3.363
91903W        W63519   7.322   9.370  13.917
91904W        W63520  26.486  20.220  12.843
91905W        W63521  17.789   8.652   0.412
91906W        W63522  10.057  27.523  12.025
91907W        W63523  25.409   7.834  11.123
91908W        W63524   4.328  31.884   3.310
91909W        W63525  26.999  26.241   4.710
91910W        W63526  44.866   8.445  13.981
91911W        W63527  27.737  20.272  14.795
91912W        W63528   1.851  17.903   2.845
91913W        W63529  14.865   8.220   0.474
91914W        W63530  28.127  35.613  11.173
91915W        W63531  36.653  23.236  12.483
91916W        W63532  38.521  37.051   0.815
91917W        W63533  39.352  28.081   4.452
91918W        W63534  41.475  19.543   2.800
91919W        W63535  26.257  25.233   3.693
91920W        W63536  44.008  30.197   4.734
91921W        W63537  14.791  40.772  13.359
91922W        W63538  13.864  44.086  13.517
91923W        W63539  24.532  38.208  10.704
91924W        W63540   9.166  27.725  11.558
91925W        W63541  20.311  24.007   4.580
91926W        W63542  40.845   3.894   0.588
91927W        W63543  11.402  31.321   2.128
91928W        W63544   5.406  24.320  14.853
91929W        W63545   6.672  14.114   0.402
91930W        W63546  18.290  37.930  14.543
91931W        W63547   9.320  25.564  12.942
91932W        W63548   1.046  25.376   1.812
91933W        W63549  14.322  27.009   3.114
91934W        W63550  33.527  38.538   4.974
91935W        W63551  21.551  20.067  13.057
91936W        W63552  20.180  38.498  11.424
91937W        W63553  24.115  32.071  13.333
91938W        W63554  37.258  10.978   9.795
91939W        W63555  43.333  28.164   2.402
91940W        W63556  27.270  11.167   2.386
91941W        W63557  19.531   1.165  13.136
91942W        W63558  15.456  31.159   3.798
91943W        W63559  42.528  19.611  12.662
91944W        W63560  13.906   3.267  10.526
91945W        W63561  23.979  15.337   3.246
91946W        W63562  34.361  35.235   3.170
91947W        W63563  30.650  25.804   0.970
91948W        W63564  32.138  40.803  14.318
91949W        W63565  14.235  44.124   5.118
91950W        W63566  27.791  31.568  14.266
91951W        W63567  42.868  16.302   0.074
91952W        W63568  13.193  12.310  12.781
91953W        W63569   2.167  12.226   1.242
91954W        W63570  42.346  37.627  13.894
91955W        W63571  23.657  24.274   3.367
91956W        W63572  24.046  27.253   3.264
91957W        W63573  13.354  18.627   1.218
91958W        W63574  19.913  27.811  12.103
91959W        W63575  41.597  36.505  13.864
91960W        W63576  43.830  18.301   1.643
91961W        W63577  30.516  27.172  14.765
91962W        W63578  42.773   2.872   0.643
91963W        W63579  34.439   4.500  13.891
91964W        W63580  21.199   6.847   2.643
91965W        W63581  31.731  35.126  13.405
91966W        W63582  44.747  41.584   3.624
91967W        W63583  22.273  32.220   2.817
91968W        W63584   7.746  30.941  14.414
91969W        W63585  43.401  44.276  14.924
91970W        W63586  14.930  34.141   0.318
91971W        W63587  15.686   7.305  10.181
91972W        W63588  13.704  28.210  14.782
91973W        W63589  32.850  26.965  10.702
91974W        W63590  44.724   4.715   0.874
91975W        W63591  17.634  10.737   1.170
91976W        W63592  18.790  20.763  12.708
91977W        W63593  12.090  32.543   0.200
91978W        W63594  44.432  26.907   9.924
91979W        W63595  40.170  17.588  11.588
91980W        W63596  22.930  36.139  14.419
91981W        W63597   3.796  24.060   1.905
91982W        W63598  44.897   0.763  11.674
91983W        W63599  19.593  39.356  14.804
91984W        W63600  19.014  37.104  13.841
91985W        W63601  35.931  21.150  14.127
91986W        W63602   9.824  38.299  11.633
91987W        W63603  33.665  13.679  12.490
91988W        W63604  22.664  36.766  10.814
91989W        W63605  23.648   4.781   0.645
91990W        W63606  29.927  33.987   3.277
91991W        W63607  30.581   4.144  12.278
91992W        W63608   9.748  23.259  11.956
91993W        W63609  25.779   2.661   2.918
91994W        W63610  30.212  31.618   2.445
91995W        W63611   5.076   6.268  11.563
91996W        W63612   8.245  22.513  13.413
91997W        W63613  18.672  28.637   9.887
91998W        W63614  32.434  12.804   0.837
91999W        W63615  42.448  10.953   4.601
92000W        W63616  28.189  22.978   1.846
92001W        W63617  27.734  27.123   2.692
92002W        W63618  30.549  33.113   4.158
92003W        W63619  12.072  10.818   3.281
92004W        W63620  18.234   6.703  12.347
92005W        W63621  30.781  27.810   4.551
92006W        W63622  39.365  34.524   0.838
92007W        W63623  22.452  13.906  14.021
92008W        W63624  19.678  15.197   1.910
92009W        W63625  25.188  41.894   1.693
92010W        W63626   8.128   6.309  12.133
92011W        W63627  29.699  11.152  11.974
92012W        W63628  32.506  30.097  12.044
92013W        W63629  34.682  20.132  13.579
92014W        W63630  23.614  21.727   2.204
92015W        W63631  27.462  44.993  13.512
92016W        W63632  34.689  34.445   1.721
92017W        W63633   7.983  22.873  11.233
92018W        W63634  19.797   3.205   2.349
92019W        W63635  26.752  21.289  13.282
92020W        W63636   8.890  41.731  14.906
92021W        W63637  32.501  19.503   2.599
92022W        W63638  42.337  15.209  13.923
92023W        W63639  12.600   7.229  10.946
92024W        W63640  41.724  32.817  12.622
92025W        W63641  11.251  21.000  11.916
92026W        W63642   1.768   3.458  14.929
92027W        W63643  31.450   4.877  12.901
92028W        W63644   7.321   9.113  12.587
92029W        W63645  38.846   9.363  13.909
92030W        W63646  30.676  42.048   1.813
92031W        W63647   4.821  28.432   4.626
92032W        W63648  20.027  33.299   0.171
92033W        W63649  40.265  14.018   2.690
92034W        W63650   6.886   5.146   3.885
92035W        W63651  13.092  40.735  14.049
92036W        W63652   9.729   5.387   3.387
92037W        W63653   9.698  41.889   2.996
92038W        W63654   6.402  22.690  14.996
92039W        W63655  44.848   1.018  14.310
92040W        W63656  44.944  15.683  11.578
92041W        W63657  20.981  27.619   3.147
92042W        W63658   7.251  27.423  13.490
92043W        W63659  31.120  10.693   1.722
92044W        W63660  43.372  39.807  13.786
92045W        W63661  31.935  15.217   3.190
92046W        W63662  18.602  33.885  12.873
92047W        W63663  22.711  18.658   2.343
92048W        W63664  38.075  22.510   1.192
92049W        W63665  40.642   2.880   4.114
92050W        W63666  22.554   1.255   4.985
92051W        W63667   3.828  22.258  12.043
92052W        W63668   1.196  27.446  11.113
92053W        W63669   2.533  18.079   4.732
92054W        W63670  11.224  22.963  14.500
92055W        W63671  32.408  30.963   1.674
92056W        W63672  38.446  20.789  11.646
92057W        W63673   6.350  25.974   2.403
92058W        W63674  41.738  29.249  11.474
92059W        W63675   0.972  20.605   4.740
92060W        W63676  35.296  28.208  12.902
92061W        W63677  33.939   2.729  13.001
92062W        W63678  41.550   2.308  10.447
92063W        W63679  16.062  26.532   3.635
92064W        W63680  31.107  32.562   3.760
92065W        W63681   8.825  20.688   0.808
92066W        W63682  29.351  10.037   2.465
92067W        W63683  30.683  19.539   2.247
92068W        W63684  34.880  24.034   3.406
92069W        W63685  13.589  38.343  14.550
92070W        W63686  17.780  13.069  10.681
92071W        W63687  18.253  42.492   0.689
92072W        W63688  44.330  11.399  14.730
92073W        W63689  20.072  31.668   2.280
92074W        W63690  33.443  29.224   2.769
92075W        W63691  16.097  43.743   1.303
92076W        W63692   2.233  30.870  13.113
92077W        W63693  21.322  15.974  14.208
92078W        W63694  15.064  38.448  12.067
92079W        W63695  17.770  34.859  11.471
92080W        W63696  34.546  10.319   2.210
92081W        W63697  17.711  36.554  13.935
92082W        W63698  21.671  19.053  10.931
92083W        W63699  28.633   1.685  12.947
92084W        W63700  17.729  14.144   4.550
92085W        W63701  37.291   4.951   1.178
92086W        W63702  40.570  11.722   5.119
92087W        W63703  21.506  12.288  10.416
92088W        W63704  37.472  17.134  12.601
92089W        W63705   2.681   6.991  12.299
92090W        W63706  10.772   8.308  12.545
92091W        W63707  14.794  31.168   2.341
92092W        W63708  41.829  18.611   0.532
92093W        W63709  41.060  22.032  13.767
92094W        W63710  41.317  20.203   2.165
92095W        W63711  20.203   2.520  10.699
92096W        W63712  44.232   9.010   5.011
92097W        W63713  38.540  24.050   2.655
92098W        W63714  21.221   9.167   0.249
92099W        W63715  33.090  35.649   0.325
92100W        W63716  26.923   6.162   0.415
92101W        W63717  26.395  13.931  13.051
92102W        W63718  18.713  42.635   3.739
92103W        W63719  38.879  11.316  12.809
92104W        W63720  11.255  38.944  14.838
92105W        W63721  34.815  10.146   1.789
92106W        W63722  25.322   4.437   4.138
92107W        W63723  10.432  21.031   4.500
92108W        W63724  43.935  22.701  13.438
92109W        W63725  28.135   8.781  10.264
92110W        W63726  22.613  22.932  10.731
92111W        W63727  22.787  43.901  11.042
92112W        W63728  27.436   4.625  11.580
92113W        W63729  29.071  18.340  12.559
92114W        W63730  13.032   4.903  13.280
92115W        W63731   4.801  39.031  13.922
92116W        W63732   3.306   2.929  13.222
92117W        W63733  38.367  42.899   2.611
92118W        W63734  28.663  13.834   2.362
92119W        W63735  11.742   5.561  13.841
92120W        W63736  12.041  44.405  13.541
92121W        W63737  22.166  33.667   3.179
92122W        W63738  29.942   6.437  11.475
92123W        W63739  29.398   3.240   1.892
92124W        W63740   3.870  26.602  12.348
92125W        W63741  34.364   6.165   1.886
92126W        W63742  27.596  18.057   0.762
92127W        W63743   5.230  23.446  13.559
92128W        W63744  21.046  26.726   1.219
92129W        W63745  27.710  18.940   1.417
92130W        W63746  13.337   7.610  10.635
92131W        W63747   4.643   7.252   2.008
92132W        W63748  43.807   5.420   0.276
92133W        W63749   7.786  31.136  10.971
92134W        W63750  42.461  31.473   2.052
92135W        W63751  39.038  26.203   0.439
92136W        W63752  18.347  44.210  13.062
92137W        W63753  16.116  33.354  12.642
92138W        W63754  39.984  11.343  14.784
92139W        W63755  13.534  44.945   3.519
92140W        W63756  12.291  32.130  13.059
92141W        W63757  41.886   8.806  10.251
92142W        W63758  35.591  10.105  14.313
92143W        W63759  29.702  23.614  14.056
92144W        W63760  33.898   9.814  14.311
92145W        W63761  19.976  24.595   3.916
92146W        W63762  19.885  30.107   0.933
92147W        W63763  27.035  44.348   3.686
92148W        W63764  29.987  37.501   0.102
92149W        W63765  31.946  28.669  13.984
92150W        W63766  33.563   2.072  12.131
92151W        W63767   8.825  25.060   4.896
92152W        W63768   4.144  39.058  13.081
92153W        W63769  34.928  12.650   1.609
92154W        W63770   8.690   5.969   3.427
92155W        W63771  34.084  26.205  13.417
92156W        W63772   3.935  14.688  14.473
92157W        W63773  40.843  15.400  13.152
92158W        W63774  31.021   2.284   2.205
92159W        W63775   3.252  26.055  12.853
92160W        W63776  25.903  37.958   2.467
92161W        W63777   1.430   4.835  13.852
92162W        W63778  26.290  11.243   5.263
92163W        W63779  35.269  31.519  11.104
92164W        W63780  41.963  34.125  12.081
92165W        W63781  32.839  44.414   1.872
92166W        W63782   1.971   3.214   1.773
92167W        W63783   1.553  41.011   4.276
92168W        W63784  38.990  36.080   3.271
92169W        W63785   8.759  39.807   3.406
92170W        W63786  44.606  21.233   0.325
92171W        W63787  37.544  30.520   3.272
92172W        W63788  39.783  39.892   4.648
92173W        W63789   0.242  15.578  12.034
92174W        W63790  39.497   2.201   2.664
92175W        W63791  21.139  30.717   1.233
92176W        W63792  32.899  18.931   0.700
92177W        W63793  26.805  21.045   5.105
92178W        W63794  29.054  19.237  12.200
92179W        W63795  38.553   5.249   1.212
92180W        W63796  41.879   3.865   3.372
92181W        W63797  42.457  33.038  13.572
92182W        W63798  23.018  38.630  13.005
92183W        W63799  37.990   1.382   3.348
92184W        W63800  13.096  27.493  14.997
92185W        W63801  13.543  27.083  10.702
92186W        W63802  40.277  19.777   4.619
92187W        W63803  13.440  23.366   3.286
92188W        W63804  42.899  15.535   2.753
92189W        W63805  30.234  14.639   2.484
92190W        W63806  37.767  44.015  12.134
92191W        W63807  29.447  38.401  12.534
92192W        W63808  41.932  26.693   4.498
92193W        W63809   8.630   1.640   1.109
92194W        W63810  25.116  21.045   2.788
92195W        W63811  37.851  29.490   4.551
92196W        W63812  41.334  31.107  13.445
92197W        W63813   9.830  38.504   1.258
92198W        W63814   5.987  18.724   3.412
92199W        W63815  34.143   8.287  11.167
92200W        W63816  23.180  38.160  12.907
92201W        W63817  27.745   2.765   3.306
92202W        W63818  11.875   4.746   2.683
92203W        W63819  40.590  16.762  13.366
92204W        W63820  13.594   3.844   2.361
92205W        W63821  14.497  39.974   0.840
92206W        W63822  31.704  23.162   2.859
92207W        W63823  33.168   0.441   4.698
92208W        W63824  44.478  20.290  14.944
92209W        W63825  40.362  25.323   1.137
92210W        W63826  27.089  18.536   1.838
92211W        W63827  41.458  15.798   2.726
92212W        W63828  26.919  38.875  12.042
92213W        W63829  26.507  32.615   3.424
92214W        W63830  34.905   0.665  11.128
92215W        W63831  19.344  31.719  14.501
92216W        W63832  37.329   4.268  13.375
92217W        W63833  34.087  40.011   3.158
92218W        W63834  25.093  24.118  10.776
92219W        W63835  24.940  17.554  10.739
92220W        W63836   5.516  10.356   3.711
92221W        W63837  33.059  29.540  10.497
92222W        W63838  17.438   2.611  14.306
92223W        W63839  21.235  41.432  13.265
92224W        W63840   0.259  10.289   4.950
92225W        W63841  25.912   0.879   3.709
92226W        W63842  37.386  43.388   2.463
92227W        W63843  21.988   4.630  14.208
92228W        W63844  32.047   9.239   0.385
92229W        W63845  12.450  29.206  11.544
92230W        W63846  12.091  25.016  14.534
92231W        W63847   7.646  22.492  11.232
92232W        W63848   7.679  11.244  13.367
92233W        W63849   1.970  37.525   1.927
92234W        W63850  10.654  35.075   3.726
92235W        W63851   5.311  10.366  10.678
92236W        W63852  22.438  14.799  11.945
92237W        W63853  40.286  22.475   2.751
92238W        W63854   6.049  15.852   0.480
92239W        W63855  23.474   7.732   0.793
92240W        W63856   3.748  28.484  14.975
92241W        W63857   1.214  25.439  14.047
92242W        W63858  44.979  44.329  12.073
92243W        W63859   2.386   7.632  14.821
92244W        W63860  12.537  40.022   1.737
92245W        W63861  43.966  39.752  10.581
92246W        W63862  13.656  26.389  12.464
92247W        W63863  17.101  17.690   2.048
92248W        W63864   0.483  27.109  14.648
92249W        W63865  22.761  35.913   2.755
92250W        W63866  10.819   6.263  14.805
92251W        W63867  24.846  30.224  11.919
92252W        W63868  23.098  10.851  10.824
92253W        W63869  11.994  41.862  13.765
92254W        W63870  14.889  16.140   3.243
92255W        W63871  10.889  28.369  12.985
92256W        W63872  41.840   7.838   4.505
92257W        W63873  21.083  43.376  13.026
92258W        W63874   5.072  12.878  14.427
92259W        W63875  39.045  17.804   2.637
92260W        W63876  11.267  12.510   3.431
92261W        W63877  15.510  27.723  13.379
92262W        W63878  34.896  24.880  14.896
92263W        W63879  13.416  44.488   3.277
92264W        W63880  36.307  16.118   4.197
92265W        W63881  13.910  35.882  14.610
92266W        W63882  27.251  31.342  11.984
92267W        W63883  38.390   4.844  14.275
92268W        W63884  37.434  44.529  10.682
92269W        W63885  39.126   4.760   0.963
92270W        W63886  20.635   4.252   0.476
92271W        W63887   2.747  15.449  14.307
92272W        W63888  31.233  30.428   4.122
92273W        W63889  16.104  43.029  13.149
92274W        W63890   2.343  36.208   3.093
92275W        W63891   0.362  22.518  11.355
92276W        W63892  41.824  20.208  14.943
92277W        W63893  39.312  37.275   4.802
92278W        W63894  43.790   3.127  14.593
92279W        W63895  13.697  28.963   2.752
92280W        W63896   9.478  25.109  14.928
92281W        W63897  30.344  42.116  13.249
92282W        W63898  33.151   8.848   4.720
92283W        W63899   6.476  29.743  14.368
92284W        W63900  19.191  38.495   0.216
92285W        W63901  29.645   6.416  11.039
92286W        W63902  44.418  11.682   1.361
92287W        W63903   6.873   0.409  10.765
92288W        W63904  28.213  14.843  13.595
92289W        W63905  34.786   1.175  11.225
92290W        W63906  21.586  19.639   0.329
92291W        W63907  13.365  21.173   0.042
92292W        W63908  20.211  26.253   1.850
92293W        W63909  14.211  18.540   0.877
92294W        W63910  32.497  26.668   3.278
92295W        W63911   5.956  16.604   1.243
92296W        W63912   9.734  28.281  11.221
92297W        W63913   0.942   5.264   4.701
92298W        W63914  25.146  34.552  11.087
92299W        W63915  20.513   7.738  12.505
92300W        W63916  29.089  40.464   4.410
92301W        W63917  23.757   5.789  10.995
92302W        W63918  35.194   6.682  12.256
92303W        W63919  22.594  27.117   2.904
92304W        W63920  40.943  43.315  10.285
92305W        W63921  43.576  21.680   0.461
92306W        W63922   3.668  43.607  14.423
92307W        W63923  24.714   9.870   2.431
92308W        W63924  14.193  18.681   3.135
92309W        W63925  22.488  44.406  14.603
92310W        W63926  37.864  44.554   2.432
92311W        W63927  22.588  27.803   0.655
92312W        W63928  10.665  28.593   2.709
92313W        W63929  27.089   6.439   4.872
92314W        W63930  21.568  22.710  11.676
92315W        W63931  21.501  34.061  12.536
92316W        W63932  42.324  36.802  12.454
92317W        W63933   6.729  40.386  13.387
92318W        W63934  38.776  15.782   4.658
92319W        W63935  42.376  38.268   3.410
92320W        W63936  36.897   6.590   1.141
92321W        W63937  32.758  23.927   0.718
92322W        W63938  11.732  29.645   4.730
92323W        W63939   8.665  16.835   0.844
92324W        W63940  33.990  31.421   2.806
92325W        W63941  26.471  10.618  14.465
92326W        W63942   2.011  19.690   3.733
92327W        W63943  14.828  26.504  13.228
92328W        W63944   2.719  15.629  10.715
92329W        W63945  25.984   3.301  13.260
92330W        W63946  22.643   8.563  13.355
92331W        W63947  25.197   1.420  11.390
92332W        W63948  33.178  34.288   2.421
92333W        W63949  33.012  20.685   2.266
92334W        W63950   7.605  13.355  14.556
92335W        W63951  12.273  38.894   0.219
92336W        W63952  37.014  35.668  13.808
92337W        W63953  33.476   4.173   4.189
92338W        W63954  10.580  29.073  13.346
92339W        W63955  44.006  38.048  13.838
92340W        W63956  10.639   9.320   0.484
92341W        W63957  14.098  25.237  11.266
92342W        W63958  12.825  32.494   2.287
92343W        W63959   2.985  21.659  10.702
92344W        W63960   0.461  28.725   2.828
92345W        W63961  16.420  34.284   2.915
92346W        W63962  40.347  38.817   1.670
92347W        W63963  18.325  40.006   4.406
92348W        W63964  17.278  37.588  10.564
92349W        W63965  18.893  16.264   4.972
92350W        W63966   8.425   2.798  13.317
92351W        W63967  11.220  22.984  13.980
92352W        W63968  27.478  27.048   4.225
92353W        W63969  39.647   0.917   3.796
92354W        W63970  11.763  39.517   1.978
92355W        W63971  11.722  33.525  10.701
92356W        W63972  27.768   3.253   4.014
92357W        W63973  44.757  15.118  13.032
92358W        W63974   2.306  36.509   1.334
92359W        W63975  28.494  26.931   3.133
92360W        W63976  11.764  40.580  10.479
92361W        W63977  34.631  38.999  13.127
92362W        W63978  19.002   7.266  13.417
92363W        W63979  27.895  44.970   0.237
92364W        W63980  10.408  11.193  12.003
92365W        W63981  13.025  29.778  12.687
92366W        W63982  44.994  25.109   3.593
92367W        W63983  41.980   0.311   2.256
92368W        W63984   9.095  19.077  12.999
92369W        W63985  30.933  13.244  10.817
92370W        W63986   2.759  25.211  10.607
92371W        W63987   8.469  35.826  14.966
92372W        W63988  24.254  31.597   3.222
92373W        W63989  32.328  14.591   2.283
92374W        W63990  18.256  32.094  11.918
92375W        W63991   1.844   8.703  10.566
92376W        W63992  32.375  37.811  13.978
92377W        W63993  15.841  28.935   3.090
92378W        W63994  25.584  42.859   3.640
92379W        W63995   0.796   3.315   4.578
92380W        W63996  27.711  27.003   3.585
92381W        W63997   0.420   6.045   3.205
92382W        W63998   4.427   4.588  14.386
92383W        W63999  18.131  10.195   4.597
92384W        W64000  41.949  23.585   3.930
92385W        W64001  35.345  40.318   1.812
92386W        W64002   7.493  17.247   0.445
92387W        W64003  40.783  24.050  14.915
92388W        W64004  15.371  41.022  14.542
92389W        W64005   1.867  22.229   3.491
92390W        W64006  12.209  18.195  10.990
92391W        W64007   6.185  37.712   2.311
92392W        W64008   2.304  36.828   0.815
92393W        W64009  42.331  25.266  14.507
92394W        W64010  15.702  32.700   2.412
92395W        W64011   6.752  27.202   4.054
92396W        W64012  43.664  28.899  14.495
92397W        W64013   3.101   0.869   4.558
92398W        W64014  20.634  43.841  11.249
92399W        W64015  15.811   1.370  13.446
92400W        W64016  40.012  13.431  11.883
92401W        W64017  37.833  40.020   0.378
92402W        W64018  39.637   4.228  13.478
92403W        W64019  25.191  36.885  13.365
92404W        W64020  10.375  27.469   2.629
92405W        W64021  20.264  44.467  11.342
92406W        W64022  24.294  13.402   0.298
92407W        W64023  14.220   9.411   1.635
92408W        W64024   9.360  17.255   3.192
92409W        W64025  35.613   7.670   4.519
92410W        W64026  10.849  44.752   2.790
92411W        W64027  33.612   9.051  13.557
92412W        W64028  35.169  40.062   4.072
92413W        W64029  17.671  43.771   4.993
92414W        W64030  13.451  15.435  14.645
92415W        W64031  25.620  34.893  12.420
92416W        W64032  35.023  36.502   4.364
92417W        W64033  22.768  42.515  14.440
92418W        W64034  17.398  23.395   0.488
92419W        W64035  41.164  34.458   0.289
92420W        W64036  38.650  21.479   2.263
92421W        W64037  14.123  30.630   4.729
92422W        W64038  30.414  13.347  11.569
92423W        W64039  42.336  40.934   0.094
92424W        W64040  41.907  14.547   0.995
92425W        W64041  37.582  32.610  13.837
92426W        W64042   8.639  42.367   3.211
92427W        W64043  14.429  29.056  11.452
92428W        W64044  15.813  40.462  13.959
92429W        W64045  35.408  25.698   0.922
92430W        W64046  35.330  20.492   2.796
92431W        W64047  12.307  17.137   3.362
92432W        W64048  36.642  16.028   0.883
92433W        W64049  11.211  42.263   0.456
92434W        W64050   8.838   4.637   0.190
92435W        W64051  40.428   7.229  12.559
92436W        W64052  36.968  34.859   0.401
92437W        W64053  21.106   8.624   4.722
92438W        W64054   9.280  14.785  11.085
92439W        W64055   4.207  12.707   0.338
92440W        W64056   1.354  28.139  11.942
92441W        W64057  38.906  28.673   1.310
92442W        W64058   6.279  40.483  13.608
92443W        W64059   0.727   6.693  12.425
92444W        W64060  22.992  32.315   0.016
92445W        W64061  13.529  32.062   0.822
92446W        W64062  39.026   5.839  11.687
92447W        W64063  31.145  41.023  14.356
92448W        W64064  19.306  39.422   0.483
92449W        W64065  18.286  39.499   0.397
92450W        W64066  31.110  31.351  14.541
92451W        W64067   0.549  27.694   4.230
92452W        W64068  25.978  20.065   1.262
92453W        W64069  32.394  16.975   4.100
92454W        W64070  39.551  43.430   1.424
92455W        W64071  39.364  20.744  11.180
92456W        W64072  29.394  22.706  10.188
92457W        W64073  22.623  19.118  13.098
92458W        W64074  15.770   7.082  11.646
92459W        W64075   1.770  41.433  14.303
92460W        W64076  12.262  10.139  12.491
92461W        W64077  15.280  44.500   2.201
92462W        W64078   4.228  19.770   1.489
92463W        W64079   0.239  41.518   3.729
92464W        W64080  33.200  32.962   3.121
92465W        W64081  22.343  36.761  13.416
92466W        W64082  38.539   2.733   2.210
92467W        W64083  26.382  28.645  12.589
92468W        W64084  35.505  35.172   3.749
92469W        W64085  20.078  43.914  12.506
92470W        W64086  23.028   1.511   1.686
92471W        W64087  39.466  23.547   3.713
92472W        W64088  38.949   3.450   2.380
92473W        W64089  37.261  12.793  11.646
92474W        W64090  32.292  27.137   4.546
92475W        W64091  23.336  10.821  14.886
92476W        W64092  37.426  13.414  14.386
92477W        W64093   8.568  13.648  13.512
92478W        W64094   6.453   5.782  14.769
92479W        W64095  18.665  24.663  11.866
92480W        W64096  32.877  25.161   3.745
92481W        W64097   2.780  29.879   1.185
92482W        W64098   8.085   9.255  11.412
92483W        W64099  20.672   2.247  10.776
92484W        W64100  14.725  38.477   1.938
92485W        W64101  41.230  39.318   4.122
92486W        W64102  38.907   6.081  10.328
92487W        W64103  43.437  31.697   2.097
92488W        W64104  39.340  18.244  14.685
92489W        W64105  44.288  21.270   4.191
92490W        W64106  30.885  35.972   2.730
92491W        W64107  20.191  20.754   4.284
92492W        W64108  31.102  34.798  11.154
92493W        W64109  37.720  24.499  11.127
92494W        W64110   5.886  41.925   4.194
92495W        W64111  15.234   5.899   5.412
92496W        W64112  33.588  30.543   1.129
92497W        W64113   9.465  23.106   0.800
92498W        W64114   0.834   7.819  14.336
92499W        W64115  23.639  40.940   0.326
92500W        W64116   3.299  28.095  12.817
92501W        W64117   7.977  21.169   2.762
92502W        W64118  30.256  12.879  13.905
92503W        W64119  30.978  10.679   0.278
92504W        W64120  31.178   8.577   1.875
92505W        W64121  40.785  35.429   2.864
92506W        W64122  39.099  18.676   0.200
92507W        W64123  38.127  37.404  12.406
92508W        W64124  21.408   6.190  11.403
92509W        W64125   8.691  22.503   2.406
92510W        W64126  20.401  37.911   1.402
92511W        W64127  38.836  29.692   0.400
92512W        W64128  35.306   5.724  13.934
92513W        W64129  10.486  40.057  11.134
92514W        W64130  19.214  17.302  14.916
92515W        W64131  16.797  41.841   0.408
92516W        W64132  15.311  28.143  11.680
92517W        W64133   0.275  24.413  10.516
92518W        W64134  39.542   4.391   2.334
92519W        W64135   6.614  23.611   4.130
92520W        W64136  11.322   2.535  11.444
92521W        W64137  14.799  35.745  10.676
92522W        W64138  44.317  36.329  14.580
92523W        W64139  39.737   5.515  10.565
92524W        W64140   4.855  41.995  14.850
92525W        W64141  15.797   3.350  14.745
92526W        W64142  15.514  30.084  11.096
92527W        W64143  30.263   0.299   3.292
92528W        W64144  11.552  29.408  12.463
92529W        W64145  13.334  43.388   2.387
92530W        W64146  41.891  32.865  12.139
92531W        W64147  30.556  18.808   4.091
92532W        W64148   3.385  23.866  10.982
92533W        W64149   1.185  24.618  13.534
92534W        W64150  18.939  21.011   2.321
92535W        W64151   0.596  35.865   0.905
92536W        W64152   7.684  11.802  11.653
92537W        W64153   0.414  25.011   2.196
92538W        W64154   7.604  44.316   1.913
92539W        W64155  14.549  41.285   2.925
92540W        W64156  27.235  36.636  10.792
92541W        W64157  15.511  21.963  12.021
92542W        W64158   7.697   8.870   2.220
92543W        W64159  28.579  43.661  13.879
92544W        W64160  36.943  42.402  12.917
92545W        W64161  27.946   7.844   3.008
92546W        W64162   3.695  14.232  11.466
92547W        W64163   7.665   9.677   2.899
92548W        W64164   2.872  36.783  12.512
92549W        W64165  22.601  41.048  14.548
92550W        W64166   8.873  35.726   2.892
92551W        W64167  15.058   5.873  12.672
92552W        W64168  17.247  14.336  11.653
92553W        W64169  30.954  23.129  14.931
92554W        W64170   7.619  17.798   4.298
92555W        W64171  19.253  12.016   2.096
92556W        W64172  18.165   4.284   3.185
92557W        W64173  39.149  44.407  14.352
92558W        W64174  16.263  28.635   3.153
92559W        W64175   7.968  26.203  12.591
92560W        W64176  27.889  38.067   2.430
92561W        W64177  36.409  26.550   3.719
92562W        W64178  29.073  12.336  13.010
92563W        W64179  17.155  14.699  14.724
92564W        W64180  41.741  36.894  14.710
92565W        W64181  23.223  13.488   4.488
92566W        W64182  21.623  38.979  12.899
92567W        W64183  20.649  33.645  10.618
92568W        W64184   3.348   0.541   5.157
92569W        W64185   3.382  15.999  11.143
92570W        W64186  12.843  44.729   0.821
92571W        W64187  29.979  39.934  11.051
92572W        W64188   6.983  29.883   1.978
92573W        W64189  40.886  35.127   0.797
92574W        W64190  22.916  44.826   3.874
92575W        W64191  33.758  13.625   3.464
92576W        W64192  17.133  18.484   3.185
92577W        W64193   4.370  42.551  14.191
92578W        W64194   2.580   6.438  14.319
92579W        W64195  24.200   8.429   2.311
92580W        W64196  24.160  26.129  13.920
92581W        W64197  22.768  32.393  14.073
92582W        W64198  29.149  25.115  14.069
92583W        W64199  12.252  34.142   0.824
92584W        W64200  30.074  15.256  13.681
92585W        W64201  12.917   2.727  12.990
92586W        W64202  18.255  39.842  13.281
92587W        W64203  37.031  29.172   1.306
92588W        W64204  39.528   1.730  13.333
92589W        W64205   1.793  41.953   3.130
92590W        W64206   9.131  28.884   0.930
92591W        W64207  14.018  25.957  13.871
92592W        W64208   5.196  20.589  11.590
92593W        W64209  37.876  43.524   2.292
92594W        W64210  38.537  16.188   1.537
92595W        W64211   0.239  17.744  11.882
92596W        W64212  16.269  37.734   0.718
92597W        W64213  23.190  34.411  12.172
92598W        W64214  44.793  19.659  13.912
92599W        W64215  34.517  19.943   2.109
92600W        W64216  42.287   7.182  14.990
92601W        W64217   1.513   0.439  12.136
92602W        W64218   4.379  24.008   1.195
92603W        W64219  11.432  19.748   3.844
92604W        W64220  22.085  37.311  14.024
92605W        W64221  34.100  40.563   2.271
92606W        W64222   6.945  21.080   0.946
92607W        W64223  10.312  18.185   0.412
92608W        W64224  22.009  11.140   3.116
92609W        W64225  16.684  29.956   4.592
92610W        W64226  40.307  19.967  13.618
92611W        W64227  11.246   8.774  12.797
92612W        W64228  40.860   8.287   3.045
92613W        W64229  26.512  42.601   3.336
92614W        W64230   9.868  41.791   4.118
92615W        W64231  17.038  41.574   1.663
92616W        W64232  30.084   0.557  10.709
92617W        W64233   6.845  25.550   0.289
92618W        W64234  38.114  39.543   1.400
92619W        W64235  24.282  34.886  14.917
92620W        W64236  26.694  26.766  13.435
92621W        W64237  38.788  34.064   2.540
92622W        W64238  15.356  13.127   0.517
92623W        W64239  23.461  12.163   3.825
92624W        W64240   9.685  19.160   1.276
92625W        W64241   3.362  27.597  12.924
92626W        W64242  36.683  43.346  11.534
92627W        W64243  13.391   8.748  12.066
92628W        W64244  43.612  28.886  11.315
92629W        W64245  26.428  39.892   3.596
92630W        W64246   8.334  20.067  13.858
92631W        W64247  22.125   9.529   1.945
92632W        W64248  31.245   1.803  11.321
92633W        W64249   9.280   8.129   3.267
92634W        W64250  25.772  23.935  13.095
92635W        W64251  21.268  17.263   3.616
92636W        W64252   2.054  40.378   2.327
92637W        W64253  37.590  14.068   3.869
92638W        W64254   6.252  13.264  12.834
92639W        W64255  16.495  26.582   4.562
92640W        W64256  18.050  24.671   2.746
92641W        W64257  40.507   9.771   3.172
92642W        W64258   4.323   6.367   4.192
92643W        W64259  22.020  27.332   4.113
92644W        W64260  35.945  19.213   2.126
92645W        W64261  26.009  35.170  10.637
92646W        W64262  11.742  35.070   4.993
92647W        W64263  10.315   4.262   2.298
92648W        W64264  34.412  25.574   3.495
92649W        W64265  11.621  36.603   3.563
92650W        W64266  18.596  35.615  14.511
92651W        W64267   6.676   1.716   2.434
92652W        W64268   5.752  28.825  14.924
92653W        W64269  21.186  40.102  11.987
92654W        W64270  10.540  14.218  11.033
92655W        W64271  13.871  40.913  11.218
92656W        W64272   5.592   7.357  13.840
92657W        W64273  39.674  32.291   0.279
92658W        W64274  38.790   0.231  13.437
92659W        W64275  15.790  28.036   3.159
92660W        W64276  36.426  42.192   3.309
92661W        W64277  31.073  23.896   2.697
92662W        W64278  23.346  36.957   2.857
92663W        W64279   5.440   3.239  13.340
92664W        W64280   0.217  41.723  14.553
92665W        W64281  44.572  40.101  12.947
92666W        W64282  29.981  37.986   4.911
92667W        W64283  16.568  14.108  12.270
92668W        W64284   1.090   6.696  13.295
92669W        W64285  37.851  44.365  12.499
92670W        W64286  40.946  37.047  12.715
92671W        W64287  30.314  13.677   1.735
92672W        W64288  28.430  41.820   2.345
92673W        W64289  18.575  36.313   0.042
92674W        W64290  21.350  13.676  11.141
92675W        W64291  27.249  19.356   3.945
92676W        W64292  39.730  38.639  11.883
92677W        W64293  10.642  38.237  11.547
92678W        W64294  16.145   8.712  12.251
92679W        W64295   3.778  13.557  14.009
92680W        W64296  21.631  22.702  14.069
92681W        W64297  30.174  26.101   3.092
92682W        W64298  35.114   6.556  14.834
92683W        W64299  42.504  18.087   3.656
92684W        W64300  12.507  36.476  11.943
92685W        W64301  10.990  42.811   3.268
92686W        W64302  42.545  14.150  10.493
92687W        W64303  12.909  39.938   3.878
92688W        W64304  22.724  18.512   0.301
92689W        W64305  23.181   8.689  14.871
92690W        W64306   7.612  25.491   4.537
92691W        W64307   3.858   1.238  13.481
92692W        W64308  12.347  34.904   4.577
92693W        W64309   2.217  26.622   1.008
92694W        W64310  33.862  37.038   3.408
92695W        W64311   1.182  10.714   3.580
92696W        W64312  39.559  42.367  12.032
92697W        W64313  28.000  24.531   1.384
92698W        W64314   7.806   3.788   4.553
92699W        W64315   7.314   6.437  11.731
92700W        W64316   9.830  14.174   0.370
92701W        W64317  12.906   4.488   1.204
92702W        W64318  25.148  12.325   2.621
92703W        W64319  11.065  11.340   0.940
92704W        W64320  41.805  16.236   0.715
92705W        W64321   5.646  41.223   4.414
92706W        W64322   7.416  27.069  10.804
92707W        W64323  43.427  23.615   0.794
92708W        W64324  42.071   1.729  11.260
92709W        W64325  41.102   3.661  14.869
92710W        W64326   8.082  12.171   0.465
92711W        W64327   8.437  18.276   1.754
92712W        W64328  12.610  35.051   1.878
92713W        W64329  14.322  40.849   4.691
92714W        W64330  33.560  23.609  12.004
92715W        W64331  14.392   1.686   0.283
92716W        W64332   3.139  33.988   2.263
92717W        W64333  36.979  11.244  12.160
92718W        W64334   7.661  14.062   0.425
92719W        W64335  39.032  21.683   4.349
92720W        W64336   1.415  24.398  13.948
92721W        W64337  43.942  15.718  11.843
92722W        W64338   0.667   8.731   3.143
92723W        W64339  20.054  18.385   2.766
92724W        W64340  22.947   0.776  10.712
92725W        W64341   6.664   1.376  13.963
92726W        W64342   6.006  12.386  14.438
92727W        W64343  27.334  11.891   1.614
92728W        W64344  12.293  21.744   4.163
92729W        W64345   2.405   4.001   3.268
92730W        W64346  34.839   5.224   2.796
92731W        W64347  17.674  37.865  11.430
92732W        W64348  12.609  22.992  11.036
92733W        W64349  13.641  30.927   4.183
92734W        W64350  33.558  12.075  11.137
92735W        W64351  35.889  12.540   0.076
92736W        W64352  29.658  34.524   0.827
92737W        W64353  41.387  43.498  14.370
92738W        W64354  30.055  22.986   1.545
92739W        W64355  13.347  22.561   2.628
92740W        W64356  43.376  39.308   4.193
92741W        W64357   7.374  18.949  13.345
92742W        W64358   6.377  43.868  11.967
92743W        W64359  24.737   3.970   1.655
92744W        W64360  18.572  34.462  14.747
92745W        W64361   1.887   4.992  14.043
92746W        W64362  39.102  24.084   0.249
92747W        W64363  27.546  21.170   0.462
92748W        W64364  41.483  13.038  14.438
92749W        W64365   6.459  36.417  13.644
92750W        W64366   2.049  20.688   3.801
92751W        W64367  27.245   6.067  10.580
92752W        W64368  41.797   0.871   3.074
92753W        W64369  18.167  24.646  11.897
92754W        W64370  44.494  16.214  14.793
92755W        W64371  20.166  22.269  14.086
92756W        W64372   0.929  18.081   4.454
92757W        W64373  19.739   4.644   4.225
92758W        W64374  38.446  32.430   1.699
92759W        W64375  29.117   7.989  13.013
92760W        W64376  29.739  31.496  12.865
92761W        W64377  19.502  21.007   0.704
92762W        W64378  21.297   9.078   3.931
92763W        W64379  27.362  19.042  13.065
92764W        W64380   3.251  25.399   4.532
92765W        W64381  26.053  30.929  12.440
92766W        W64382  17.791  44.100   9.700
92767W        W64383  19.523   0.028  12.767
92768W        W64384   9.618   4.890   1.298
92769W        W64385   8.841  22.354  13.923
92770W        W64386   2.072   4.393  12.974
92771W        W64387  26.293  37.416   3.707
92772W        W64388  13.951  10.458   3.207
92773W        W64389   2.826   6.854  12.789
92774W        W64390   6.946  17.258  13.882
92775W        W64391  41.872  18.121   4.349
92776W        W64392   8.732   9.146   1.257
92777W        W64393  30.054  12.575   4.507
92778W        W64394  12.930   3.182  14.358
92779W        W64395  42.723  26.207   2.685
92780W        W64396  28.469  36.163   2.901
92781W        W64397  35.395  19.591   4.813
92782W        W64398  37.807  15.815  14.968
92783W        W64399  35.119  40.592  11.138
92784W        W64400  39.863   8.220   4.102
92785W        W64401  10.208  10.322  12.017
92786W        W64402  44.790   5.212   0.994
92787W        W64403  29.753  35.941  11.568
92788W        W64404  12.537   6.726   4.740
92789W        W64405  22.523  16.071   1.870
92790W        W64406   6.838  23.606   0.706
92791W        W64407  18.383   4.394  13.203
92792W        W64408  42.211  23.081  12.294
92793W        W64409  11.763  10.837   0.198
92794W        W64410  38.306   0.756   2.259
92795W        W64411  33.682  27.680   3.681
92796W        W64412  37.379  10.731   0.888
92797W        W64413  35.454  39.466  12.468
92798W        W64414  22.469   9.269  12.581
92799W        W64415  39.489  38.531  13.223
92800W        W64416  14.982  21.627  13.405
92801W        W64417  12.027  21.819  13.474
92802W        W64418  42.481  26.685   2.828
92803W        W64419  17.355   6.793  12.456
92804W        W64420  39.477  40.525  10.846
92805W        W64421  29.018  20.091  10.932
92806W        W64422   2.424  29.904   2.310
92807W        W64423  22.588  33.052   4.203
92808W        W64424  16.074  15.256   4.646
92809W        W64425  42.396  32.628   4.163
92810W        W64426  24.426  23.153   3.648
92811W        W64427   9.212  10.150   0.703
92812W        W64428  16.308  42.285   1.731
92813W        W64429  34.663   1.234  11.764
92814W        W64430   8.995  22.779  12.549
92815W        W64431  10.349   8.832  14.023
92816W        W64432  24.466  21.663  14.832
92817W        W64433  39.465  25.731   3.375
92818W        W64434  26.019  20.720  13.558
92819W        W64435   8.227   5.827   1.769
92820W        W64436  44.026  28.653  11.071
92821W        W64437  31.105  42.763  11.952
92822W        W64438   2.749  26.658   1.811
92823W        W64439  16.073   2.342  13.111
92824W        W64440   9.912  26.217  14.479
92825W        W64441  23.148  14.230   5.064
92826W        W64442  11.686  20.804   0.313
92827W        W64443   8.176  30.913   3.461
92828W        W64444  43.891   5.879  14.069
92829W        W64445  21.037  26.441   4.149
92830W        W64446   7.289   6.010   0.866
92831W        W64447  35.484  37.059  14.982
92832W        W64448  27.157  26.582   0.710
92833W        W64449  42.547  35.288  11.657
92834W        W64450  36.274  44.297  12.839
92835W        W64451   7.880  39.704   3.288
92836W        W64452  15.055  17.275   0.785
92837W        W64453  28.985  38.400   3.206
92838W        W64454  38.079  20.167   2.224
92839W        W64455  35.341  19.697  11.425
92840W        W64456  29.393  42.055   3.284
92841W        W64457  41.169  36.200  13.795
92842W        W64458   1.499  39.996  14.021
92843W        W64459   8.290  25.242   0.462
92844W        W64460  11.777  28.542  14.375
92845W        W64461  21.096  40.305  10.585
92846W        W64462  18.908   8.805   5.056
92847W        W64463  21.517  23.954  12.447
92848W        W64464  14.551   1.827  14.004
92849W        W64465  43.678  41.504   1.366
92850W        W64466  43.961  42.972  14.094
92851W        W64467  18.595  19.832   1.016
92852W        W64468  21.154  21.074  12.874
92853W        W64469  18.294  40.704  11.504
92854W        W64470  35.336  19.505  12.433
92855W        W64471  33.987  42.453  14.647
92856W        W64472  16.265  12.907  13.754
92857W        W64473  24.962  33.592  10.691
92858W        W64474  13.073  21.681   2.737
92859W        W64475  19.970  30.417  14.008
92860W        W64476  25.168  26.000  13.051
92861W        W64477  11.754   0.371   1.894
92862W        W64478   7.936   8.411  10.760
92863W        W64479   1.289  30.865   3.238
92864W        W64480  34.549  28.820   2.249
92865W        W64481  30.211  43.053   2.227
92866W        W64482  42.999  28.545  12.891
92867W        W64483  38.059  28.979  12.675
92868W        W64484  23.116  35.269   3.256
92869W        W64485  12.101   3.239  11.702
92870W        W64486  37.261  32.413   0.755
92871W        W64487   0.299  32.386  10.783
92872W        W64488  30.866  33.667   4.165
92873W        W64489  39.107  40.258  11.093
92874W        W64490  34.425  30.628   1.457
92875W        W64491  31.017  22.298   1.204
92876W        W64492  42.743   8.898  11.651
92877W        W64493  20.759  33.542   3.308
92878W        W64494  18.803  24.416  11.449
92879W        W64495  28.157  36.978  14.292
92880W        W64496  23.246  21.705  14.258
92881W        W64497  31.908  18.405  14.814
92882W        W64498  18.739  13.671  12.032
92883W        W64499  37.095  22.115  11.140
92884W        W64500  25.943  16.022   5.386
92885W        W64501  40.496  12.652  13.804
92886W        W64502  41.453   1.720   3.033
92887W        W64503  42.609  15.851  11.157
92888W        W64504   3.911   4.420   0.142
92889W        W64505  14.094  22.127  13.951
92890W        W64506   1.786  32.856   0.526
92891W        W64507  28.393  29.586  12.519
92892W        W64508   7.038  35.504  13.841
92893W        W64509   7.379  39.054   3.918
92894W        W64510  17.514  10.606  10.466
92895W        W64511   4.163  35.469   1.796
92896W        W64512   2.872  25.357   1.247
92897W        W64513  13.416  11.835  12.970
92898W        W64514  37.144  42.288   1.702
92899W        W64515  27.896  29.209   0.417
92900W        W64516   9.621  39.590  14.443
92901W        W64517   5.167   5.320  14.993
92902W        W64518  43.805  10.082   1.380
92903W        W64519  30.516  33.496  14.891
92904W        W64520  18.615  33.636  11.165
92905W        W64521  13.210  44.267  11.718
92906W        W64522  29.140  15.864  10.620
92907W        W64523  14.546  25.819  13.888
92908W        W64524  10.929  11.311   2.627
92909W        W64525  35.634  33.542   3.186
92910W        W64526  37.052   3.927   2.235
92911W        W64527  14.095  36.626  11.162
92912W        W64528  33.942  40.902  13.787
92913W        W64529  13.453  44.824   2.643
92914W        W64530  39.446  31.603  13.675
92915W        W64531  10.345  35.353  11.981
92916W        W64532  34.045  24.557  11.833
92917W        W64533  43.602  14.327  13.305
92918W        W64534  40.742  42.296   0.918
92919W        W64535  14.274  29.132   2.214
92920W        W64536  21.268  43.564  14.457
92921W        W64537  30.393  29.626   4.959
92922W        W64538  10.130  25.643   1.737
92923W        W64539  16.952   0.817  10.671
92924W        W64540  39.293   8.474  11.184
92925W        W64541  16.242  42.016  13.063
92926W        W64542  18.316  38.904  14.858
92927W        W64543  44.140  19.092  14.283
92928W        W64544   0.354   4.350  10.635
92929W        W64545   6.531  13.185  14.308
92930W        W64546  18.049   9.098   0.465
92931W        W64547  28.092  20.535   4.240
92932W        W64548  23.728   9.212   4.305
92933W        W64549   3.599  23.627  13.815
92934W        W64550  25.582   1.212  11.887
92935W        W64551  21.163  32.694  14.268
92936W        W64552  11.408  18.530  13.916
92937W        W64553   6.228  36.122  14.887
92938W        W64554  43.733  12.500  13.432
92939W        W64555  14.687  36.761   1.291
92940W        W64556   9.806  31.919   2.709
92941W        W64557  35.426   3.421  11.179
92942W        W64558  28.001   1.954   4.613
92943W        W64559   6.380  24.689  11.969
92944W        W64560  19.433   8.143  14.428
92945W        W64561   1.498  22.555  11.944
92946W        W64562  21.211  28.171  11.679
92947W        W64563  29.693  38.207   0.208
92948W        W64564   1.104   4.393   2.305
92949W        W64565  39.463  21.125  10.806
92950W        W64566  12.359   5.702  10.550
92951W        W64567  21.635  25.399   3.699
92952W        W64568   9.164  34.640   4.584
92953W        W64569  32.172  26.591  11.108
92954W        W64570  11.677  16.439   0.038
92955W        W64571  26.522  31.010  13.300
92956W        W64572  33.663  33.475   1.759
92957W        W64573  29.694  10.799  12.371
92958W        W64574  16.099   8.333   1.668
92959W        W64575   2.855   2.985  13.851
92960W        W64576   5.140  25.743  12.416
92961W        W64577   5.708  42.590   2.427
92962W        W64578  23.095  39.234   2.397
92963W        W64579   8.948  13.724   0.560
92964W        W64580  20.555  21.623   0.241
92965W        W64581  28.839   6.552   2.199
92966W        W64582  18.708  20.658  11.317
92967W        W64583   7.269  24.024   4.869
92968W        W64584  22.097  43.444  12.596
92969W        W64585  24.049   1.132   2.633
92970W        W64586   3.890  36.940  13.887
92971W        W64587  21.562  36.898   0.298
92972W        W64588  17.362   5.354  14.868
92973W        W64589  32.240   1.515   3.172
92974W        W64590  26.487  13.141   5.023
92975W        W64591  31.391  26.621  14.021
92976W        W64592   9.901   1.469   3.716
92977W        W64593   3.934  41.395  12.545
92978W        W64594  28.234  13.971  11.397
92979W        W64595  14.757  19.785  12.385
92980W        W64596  40.123  31.753  13.523
92981W        W64597  43.897  13.791  10.655
92982W        W64598  29.056   4.476   3.736
92983W        W64599  43.067  32.742  12.462
92984W        W64600  24.448  23.824  13.434
92985W        W64601   2.929   4.303   4.560
92986W        W64602  29.672  12.768   2.426
92987W        W64603   3.898  21.062  11.154
92988W        W64604  37.821  10.762   3.175
92989W        W64605  23.342  14.487  13.848
92990W        W64606  25.579  25.343  14.052
92991W        W64607  39.980  36.267   2.395
92992W        W64608  39.438  44.335  14.825
92993W        W64609   5.770  15.109  12.537
92994W        W64610   1.493  35.026  12.057
92995W        W64611   3.283  12.466   0.342
92996W        W64612  40.309  18.215  11.136
92997W        W64613   1.955   7.229  10.812
92998W        W64614  10.793  42.604   4.314
92999W        W64615  17.832  27.402   2.705
93000W        W64616  16.205  25.163   4.154
93001W        W64617  32.477  30.197   4.612
93002W        W64618   0.732  31.056  12.994
93003W        W64619   8.964   6.590   0.478
93004W        W64620   7.640  25.743  14.052
93005W        W64621  11.905   5.952  10.379
93006W        W64622  23.452   8.723  13.065
93007W        W64623  31.261  31.403   0.399
93008W        W64624  12.234  23.074   4.560
93009W        W64625  11.173  30.126  13.602
93010W        W64626  28.598  40.916   3.290
93011W        W64627  35.619   9.184   1.358
93012W        W64628  18.477  25.289   4.049
93013W        W64629  25.186  31.988   0.249
93014W        W64630  26.753  32.219  13.724
93015W        W64631  44.979  30.609  14.990
93016W        W64632  36.819  24.145   4.033
93017W        W64633  18.507  36.016   0.455
93018W        W64634   8.907  23.221   3.253
93019W        W64635  13.313  29.747  13.125
93020W        W64636  39.047  30.138   1.375
93021W        W64637  36.089  11.403  14.364
93022W        W64638   1.431  14.570   0.409
93023W        W64639  37.460   1.812  13.722
93024W        W64640  27.222  40.017   2.861
93025W        W64641  42.319  41.028  12.597
93026W        W64642   1.826  10.501  11.286
93027W        W64643   6.348  43.291   1.416
93028W        W64644  21.035  11.609  13.722
93029W        W64645   3.540  10.473  10.736
93030W        W64646  38.938  13.749  12.029
93031W        W64647  10.165  39.957   1.075
93032W        W64648  19.012  13.666  14.325
93033W        W64649  10.147  36.694  12.359
93034W        W64650  39.837  27.206  12.418
93035W        W64651  20.631  41.268   3.792
93036W        W64652   4.463  15.987  13.497
93037W        W64653  27.604  18.845   3.378
93038W        W64654  12.407  20.204   0.283
93039W        W64655  12.789  28.645  10.823
93040W        W64656  17.574   7.701   2.643
93041W        W64657  17.306  30.159  14.385
93042W        W64658  43.715  43.559   1.930
93043W        W64659  44.140  39.460  11.181
93044W        W64660   4.914  19.989  13.829
93045W        W64661  19.940  37.411   3.785
93046W        W64662  10.204  22.822  11.150
93047W        W64663  27.787   7.883  13.540
93048W        W64664  20.622  32.000   3.217
93049W        W64665  23.935  21.199   0.335
93050W        W64666  40.397  27.056   2.659
93051W        W64667   0.991   9.278   2.319
93052W        W64668  33.457  44.327   3.749
93053W        W64669   0.384  20.175   2.723
93054W        W64670  36.806  18.628  13.847
93055W        W64671  38.481  33.529   4.573
93056W        W64672   6.268  17.144   1.774
93057W        W64673  35.172  43.106  10.530
93058W        W64674  19.747   7.548   2.233
93059W        W64675  26.360  11.048   1.381
93060W        W64676  20.805  15.336   0.272
93061W        W64677   8.343   5.623   3.220
93062W        W64678  15.369  30.520   1.749
93063W        W64679  22.848  29.076  13.283
93064W        W64680   0.762  11.209   2.327
93065W        W64681  20.231   8.984   0.165
93066W        W64682  25.501  32.722  10.849
93067W        W64683  26.904  36.304   2.767
93068W        W64684  23.557  14.145  10.674
93069W        W64685  11.928  42.021   4.562
93070W        W64686  25.523  39.790  12.022
93071W        W64687  11.130   4.198   1.822
93072W        W64688  43.428  21.746  11.898
93073W        W64689  40.256  31.493   0.232
93074W        W64690   6.467  25.139   1.740
93075W        W64691  16.131   9.447  14.273
93076W        W64692  15.759  44.703   2.144
93077W        W64693  33.342  21.605   0.889
93078W        W64694  10.685  11.054  14.315
93079W        W64695   9.345  35.565   4.647
93080W        W64696  40.363  18.652   1.846
93081W        W64697   2.674  44.505  12.577
93082W        W64698  34.267  30.450   4.945
93083W        W64699  41.007  10.896   1.956
93084W        W64700   8.387  10.338  12.825
93085W        W64701  13.254   3.907   1.971
93086W        W64702   4.201  17.815   0.437
93087W        W64703   2.207  20.810  13.494
93088W        W64704  19.613  31.026   2.174
93089W        W64705  29.452  35.857  14.252
93090W        W64706  23.474  42.888   2.771
93091W        W64707   4.921  43.047  10.023
93092W        W64708  36.409  15.120   0.446
93093W        W64709  27.643  34.133  13.507
93094W        W64710  38.504  19.758  10.719
93095W        W64711   2.393  10.773  12.515
93096W        W64712  26.984  42.052   2.189
93097W        W64713  23.085   2.763  12.580
93098W        W64714  40.373  38.503   4.615
93099W        W64715  17.853  38.736  14.999
93100W        W64716  21.738  37.933  13.008
93101W        W64717  21.659  19.280   1.939
93102W        W64718  17.312  17.245  13.463
93103W        W64719  26.887  20.795  13.378
93104W        W64720  23.284   0.447   0.783
93105W        W64721  43.311  32.631   1.457
93106W        W64722  12.724  31.431   1.798
93107W        W64723  21.703  27.724   4.134
93108W        W64724   7.659   4.092  14.954
93109W        W64725  20.985  28.144   4.141
93110W        W64726  30.168  15.335   0.329
93111W        W64727   6.197  30.251  13.157
93112W        W64728  20.819  18.212   3.197
93113W        W64729  22.040  21.685   1.788
93114W        W64730   9.323  41.893  10.677
93115W        W64731  24.247  34.379   2.757
93116W        W64732   6.338   9.460   3.975
93117W        W64733  37.827  26.601  13.456
93118W        W64734  33.553  34.081   4.980
93119W        W64735  12.021  37.146  11.335
93120W        W64736  15.732  41.053   3.056
93121W        W64737  11.291  41.434   1.939
93122W        W64738  32.453  39.059   3.194
93123W        W64739   1.808  40.258   3.771
93124W        W64740  20.721  28.576   1.773
93125W        W64741  29.918  37.098  14.804
93126W        W64742   3.258  32.879   4.382
93127W        W64743   8.763   0.978   0.401
93128W        W64744   5.670  31.404   3.891
93129W        W64745  17.755   4.216  11.543
93130W        W64746  41.419  12.837  13.351
93131W        W64747  30.971  20.538  13.894
93132W        W64748   6.870   9.886   4.787
93133W        W64749  14.170  37.547   3.616
93134W        W64750  38.857  39.325   4.244
93135W        W64751  27.997  38.039  12.607
93136W        W64752  20.110  15.689  10.236
93137W        W64753  31.463  19.705   3.716
93138W        W64754  13.009   9.136   1.400
93139W        W64755   5.831   4.844  11.078
93140W        W64756  25.408   0.854   2.802
93141W        W64757  44.305  32.403  14.137
93142W        W64758  43.455  34.869   4.453
93143W        W64759   8.679  10.300  14.888
93144W        W64760   3.905  26.052  14.402
93145W        W64761  29.512   0.961   1.794
93146W        W64762  44.753  35.925   1.831
93147W        W64763  20.518  14.669   1.756
93148W        W64764  21.305  36.295  13.249
93149W        W64765   1.200   2.415  14.487
93150W        W64766  34.916   2.331   0.997
93151W        W64767  25.481  33.578   0.201
93152W        W64768  33.486  44.566  10.829
93153W        W64769   7.398   3.366  11.112
93154W        W64770  18.984   8.135   4.083
93155W        W64771   2.263  29.039   3.161
93156W        W64772  16.673   9.832  13.380
93157W        W64773  31.331  31.064   1.788
93158W        W64774   9.267  24.283  10.661
93159W        W64775   2.338   1.399   1.689
93160W        W64776  27.086  34.878  14.085
93161W        W64777  20.247   5.366   4.609
93162W        W64778  33.410  10.166   5.035
93163W        W64779  35.537   7.879  13.473
93164W        W64780   2.704  26.653  11.495
93165W        W64781  12.914  11.607   4.558
93166W        W64782  12.799   0.309   1.088
93167W        W64783  13.295  20.787   4.406
93168W        W64784  29.902  35.618  14.254
93169W        W64785  38.403  17.108   3.634
93170W        W64786  17.234   2.087   3.804
93171W        W64787  23.221   4.332  12.308
93172W        W64788  23.091  42.299   3.161
93173W        W64789  23.019  38.587  14.916
93174W        W64790  35.493   4.680   3.154
93175W        W64791  20.710   4.827   0.034
93176W        W64792  13.785  10.404  13.927
93177W        W64793   7.922   5.387  13.101
93178W        W64794  17.542  42.544   2.905
93179W        W64795  41.020   0.438  11.568
93180W        W64796  33.537  27.617  14.861
93181W        W64797  23.517  43.982   0.049
93182W        W64798   8.171  25.588  12.846
93183W        W64799  13.184  14.910   3.176
93184W        W64800  42.035  22.636   3.337
93185W        W64801  27.921  24.527  12.510
93186W        W64802  18.089  13.365   0.440
93187W        W64803  27.746  19.563  11.979
93188W        W64804  13.254  35.422  11.443
93189W        W64805  27.004  21.240  13.941
93190W        W64806  10.378   9.667  11.601
93191W        W64807  38.090  10.380   9.694
93192W        W64808  44.997  21.093  12.690
93193W        W64809  43.543  20.270  12.808
93194W        W64810  20.549  10.664   2.690
93195W        W64811   3.236  16.228   0.216
93196W        W64812  35.517  19.548  10.577
93197W        W64813  16.517  25.535  13.948
93198W        W64814  34.542  31.521   0.183
93199W        W64815   5.861  24.211  13.532
93200W        W64816  39.341  16.566   1.842
93201W        W64817  38.809   9.311  12.585
93202W        W64818  31.509   0.814   4.637
93203W        W64819  20.269  39.556  14.105
93204W        W64820  14.729   3.810   3.191
93205W        W64821  33.508  30.178  11.986
93206W        W64822   1.087  42.849   3.941
93207W        W64823  16.025  32.846   1.863
93208W        W64824  19.656  17.409  14.542
93209W        W64825  39.294  38.032   0.877
93210W        W64826  18.373  20.535  12.485
93211W        W64827   9.577   2.896  14.908
93212W        W64828  43.480   3.774  10.432
93213W        W64829   5.925  41.872  14.358
93214W        W64830  42.776   7.298  11.120
93215W        W64831  33.757  22.734  10.313
93216W        W64832  37.837  29.788  12.999
93217W        W64833  27.093   4.588  12.059
93218W        W64834  16.754   4.890   0.278
93219W        W64835  37.298  20.363   0.018
93220W        W64836  34.866  35.084  11.054
93221W        W64837  18.294  14.258   0.169
93222W        W64838   5.574   9.516  13.252
93223W        W64839  17.680  11.111   2.115
93224W        W64840  20.224  22.950   3.424
93225W        W64841  15.004  39.276  12.910
93226W        W64842  21.147   3.108  13.789
93227W        W64843  40.975  37.857  13.261
93228W        W64844   3.203   8.890   3.675
93229W        W64845  39.644   2.959  12.909
93230W        W64846  42.801  39.342   3.014
93231W        W64847  34.130  18.289  12.835
93232W        W64848  44.283  15.590   4.088
93233W        W64849  20.211  15.499  13.610
93234W        W64850  31.693  23.090  10.882
93235W        W64851  15.668  43.876  14.443
93236W        W64852  40.840  26.196   2.380
93237W        W64853  16.697  14.936  11.890
93238W        W64854  30.294  15.706   3.196
93239W        W64855  14.666  22.866   5.209
93240W        W64856  30.091  24.375  14.799
93241W        W64857  32.876  41.924  14.205
93242W        W64858   3.850  30.399  13.226
93243W        W64859  33.404  16.955   3.665
93244W        W64860  25.968  43.862  14.493
93245W        W64861  18.566   2.322  11.543
93246W        W64862   1.175   0.518  14.575
93247W        W64863  12.711  44.207  11.841
93248W        W64864  35.116  22.064   3.640
93249W        W64865  25.565  27.259  10.369
93250W        W64866  40.601  25.249  13.746
93251W        W64867  13.340  35.482  12.827
93252W        W64868  10.814   8.376  13.478
93253W        W64869  32.021  31.844   3.755
93254W        W64870  16.454  36.675   0.797
93255W        W64871  18.549  33.507   1.893
93256W        W64872   0.536  15.617   1.492
93257W        W64873   4.015  15.733   4.645
93258W        W64874  12.043  39.249   2.352
93259W        W64875   4.741   9.655  14.829
93260W        W64876  15.005   9.877   0.265
93261W        W64877  41.668  29.164  10.626
93262W        W64878  26.158  43.492   4.637
93263W        W64879  38.309  18.055  11.706
93264W        W64880  40.959  44.311   4.581
93265W        W64881  14.217  21.081   4.829
93266W        W64882   8.078  40.403   1.634
93267W        W64883  43.883  39.480  11.647
93268W        W64884  30.511  28.980   1.181
93269W        W64885  21.545  38.430   4.568
93270W        W64886  16.507   8.440   0.434
93271W        W64887   6.361  10.927   1.354
93272W        W64888  17.756  35.519   4.937
93273W        W64889   1.680  20.502   0.358
93274W        W64890  27.510  25.979  12.398
93275W        W64891  35.175  16.802   0.810
93276W        W64892   4.704  11.416  14.387
93277W        W64893  10.076   0.523   0.291
93278W        W64894  22.296  38.890  14.333
93279W        W64895  29.915  42.905   4.114
93280W        W64896  23.045  27.673  11.541
93281W        W64897   4.821  17.263   4.703
93282W        W64898  10.918  34.710  13.421
93283W        W64899  43.257  18.747   3.228
93284W        W64900   2.325  34.627   3.232
93285W        W64901  25.461   6.784   2.273
93286W        W64902  30.122  20.443  13.925
93287W        W64903  31.276  43.402  13.685
93288W        W64904   1.931  31.461  13.883
93289W        W64905  12.777  32.635   3.235
93290W        W64906  40.875   7.318  11.096
93291W        W64907  12.227  19.539  11.852
93292W        W64908  12.367  17.647  12.536
93293W        W64909  10.854   1.892  12.106
93294W        W64910   6.144   5.864   1.352
93295W        W64911  33.412  14.141  11.575
93296W        W64912  40.024  43.563   1.724
93297W        W64913  15.005  34.163  14.507
93298W        W64914  11.954   1.301  11.561
93299W        W64915  19.298  40.416  12.371
93300W        W64916   8.747  11.170  14.325
93301W        W64917  30.660  43.759  13.081
93302W        W64918  22.481  23.528   0.243
93303W        W64919  23.116   4.943   1.979
93304W        W64920  38.146   3.952   4.080
93305W        W64921  18.876  17.717  10.949
93306W        W64922  39.984  20.468   2.476
93307W        W64923   0.610  42.980   0.818
93308W        W64924   6.661   7.982   4.366
93309W        W64925  12.639   7.671   2.013
93310W        W64926   1.376   5.826   1.950
93311W        W64927  43.284  44.014  13.455
93312W        W64928  19.787  13.289  14.116
93313W        W64929   8.779   2.491   2.237
93314W        W64930  11.148  20.496  13.322
93315W        W64931  44.458  44.518  12.091
93316W        W64932  11.612  13.809  14.300
93317W        W64933  19.219   9.929  10.653
93318W        W64934  15.189  37.949  14.423
93319W        W64935  33.053   5.762  13.301
93320W        W64936  44.989  17.282  11.866
93321W        W64937   5.245  14.485  11.998
93322W        W64938  33.057   4.029  12.887
93323W        W64939  32.669  15.907  13.757
93324W        W64940  31.412  24.033   4.533
93325W        W64941  40.880  38.582  11.524
93326W        W64942  24.662  31.524  11.796
93327W        W64943  38.122  33.667  12.487
93328W        W64944  43.404  37.715  10.345
93329W        W64945  19.163  22.515  11.252
93330W        W64946  12.784   5.949  12.861
93331W        W64947  12.787  11.815   5.018
93332W        W64948   9.846  39.134   1.375
93333W        W64949  22.286  29.120  11.538
93334W        W64950  30.053   3.710  14.292
93335W        W64951  32.916  42.794  13.567
93336W        W64952  40.414   7.692   2.193
93337W        W64953  38.524  11.552   2.827
93338W        W64954  15.822   8.659   3.334
93339W        W64955  38.626  20.557   0.130
93340W        W64956  20.570  42.048   1.517
93341W        W64957   8.955  27.507   2.304
93342W        W64958  19.565  34.494  12.398
93343W        W64959  35.087  33.579   0.949
93344W        W64960  44.208  38.823   4.583
93345W        W64961  31.673  15.855   0.885
93346W        W64962  17.799  17.357   0.572
93347W        W64963  18.232  21.053  13.412
93348W        W64964  28.018   1.184  13.296
93349W        W64965   7.418  21.734   2.324
93350W        W64966  18.213  11.686  12.525
93351W        W64967  32.881  34.803   2.720
93352W        W64968   1.517  42.401   3.184
93353W        W64969  25.626   0.703   4.701
93354W        W64970  18.686  23.392  10.106
93355W        W64971  44.599   6.426  12.860
93356W        W64972   2.374  11.656   2.776
93357W        W64973   4.605  36.785  12.980
93358W        W64974  34.962  40.956   0.418
93359W        W64975  39.962  12.720   0.895
93360W        W64976  32.273  25.180  11.068
93361W        W64977  40.404   4.966  14.485
93362W        W64978  43.641  34.655  12.187
93363W        W64979  41.940  31.560   2.267
93364W        W64980  18.739  21.152   1.838
93365W        W64981  23.054  40.656  12.885
93366W        W64982  31.610  44.216   1.304
93367W        W64983  29.821  15.230  12.710
93368W        W64984  39.585  16.348   4.532
93369W        W64985  43.502  14.623   2.695
93370W        W64986   2.616   4.506   3.311
93371W        W64987  10.925  44.474   3.221
93372W        W64988   5.267  35.090   3.203
93373W        W64989   8.895  41.260  12.953
93374W        W64990  38.911  28.914   3.553
93375W        W64991  11.953   1.928   4.179
93376W        W64992  12.608  44.590   4.196
93377W        W64993   5.909  28.430   1.918
93378W        W64994  37.602  12.843   1.922
93379W        W64995   5.186  26.721  12.780
93380W        W64996  40.480  37.769   1.334
93381W        W64997  32.870  31.002   4.774
93382W        W64998  38.010  12.536   1.938
93383W        W64999  30.180   6.001  10.797
93384W        W65000  17.762   5.744   1.280
93385W        W65001   3.583  24.119   1.435
93386W        W65002  17.204  12.050   0.862
93387W        W65003  19.526  34.585  14.321
93388W        W65004  31.612  30.635   1.860
93389W        W65005  27.640  36.919   0.022
93390W        W65006  41.826   5.287   2.519
93391W        W65007  30.840  36.006   1.812
93392W        W65008   3.453  28.276   0.453
93393W        W65009  29.867  17.591  11.089
93394W        W65010  34.877   6.320  12.446
93395W        W65011  20.577  26.900  10.870
93396W        W65012  32.034  25.693  11.702
93397W        W65013  21.003  16.606   1.159
93398W        W65014   6.593  20.603  13.367
93399W        W65015  42.319  27.463   0.002
93400W        W65016   7.946  23.346   1.793
93401W        W65017  38.283  23.168   3.247
93402W        W65018  23.539  37.334  11.132
93403W        W65019  38.979  44.980   1.219
93404W        W65020  40.852  13.395  11.599
93405W        W65021  24.757  10.417  11.504
93406W        W65022  19.727  23.483   4.037
93407W        W65023  39.028   2.194  12.055
93408W        W65024  22.964  28.554   3.664
93409W        W65025   9.264  37.463  13.254
93410W        W65026   0.276   4.807  12.409
93411W        W65027  22.611  18.172   0.864
93412W        W65028  32.467   4.326  12.823
93413W        W65029  14.293  29.977   1.131
93414W        W65030  37.942  31.654  14.418
93415W        W65031  20.539   7.957   1.235
93416W        W65032  27.536  40.009  14.314
93417W        W65033  30.821  14.541   2.338
93418W        W65034   7.214  11.348  14.030
93419W        W65035  25.942  30.492   3.349
93420W        W65036  35.182  18.806   0.930
93421W        W65037  43.777  31.627  13.161
93422W        W65038  31.122   6.880  12.866
93423W        W65039  32.747  33.209  11.134
93424W        W65040  18.227  25.528  10.677
93425W        W65041  44.879   9.470  14.721
93426W        W65042   6.932  33.779  10.650
93427W        W65043  30.460  17.182  10.699
93428W        W65044  39.573  13.078  12.506
93429W        W65045   5.988  10.550   2.684
93430W        W65046  30.170  35.016  12.025
93431W        W65047   2.827   0.965  12.033
93432W        W65048  44.140  28.050   3.703
93433W        W65049  13.483  38.950   0.324
93434W        W65050  17.449  10.034  12.508
93435W        W65051  10.202  35.992  11.626
93436W        W65052  24.879  29.073   0.349
93437W        W65053  11.750  30.118  14.945
93438W        W65054  25.928  32.457  13.787
93439W        W65055  38.339  16.711   2.315
93440W        W65056  32.552   8.105  13.501
93441W        W65057  36.462   6.349   1.282
93442W        W65058  11.190  23.999   2.873
93443W        W65059   0.905  16.531   4.211
93444W        W65060  36.074  21.656   0.041
93445W        W65061  39.934  19.228   0.417
93446W        W65062   6.794  38.756   3.773
93447W        W65063   0.971  27.985   1.524
93448W        W65064  19.528  20.289  11.165
93449W        W65065   2.505  14.265   3.383
93450W        W65066  36.889  11.717  13.543
93451W        W65067  40.876  25.721   2.178
93452W        W65068   0.929  12.574  12.907
93453W        W65069  11.326  15.537   0.438
93454W        W65070  12.047   4.939  11.990
93455W        W65071   1.876  19.828  14.893
93456W        W65072  43.272   7.974  11.575
93457W        W65073  35.426  28.431   1.255
93458W        W65074   5.741  43.298  14.334
93459W        W65075  41.565  41.711   2.778
93460W        W65076  32.004  30.392   4.639
93461W        W65077   4.159   7.590   2.639
93462W        W65078  36.534  25.443  12.912
93463W        W65079  36.371   3.034   2.484
93464W        W65080   7.384  33.465  12.594
93465W        W65081  10.667  44.065  14.420
93466W        W65082  17.637  39.768   3.371
93467W        W65083  12.784  39.441  10.499
93468W        W65084  15.722  11.404   4.522
93469W        W65085  34.868  16.225  11.246
93470W        W65086  12.359  44.458   2.169
93471W        W65087  44.272  13.145  13.275
93472W        W65088  25.058  15.296  14.701
93473W        W65089  44.359  38.334  12.805
93474W        W65090   3.521  21.583   0.405
93475W        W65091  17.630   1.974   4.137
93476W        W65092   1.434  30.362  14.827
93477W        W65093  23.919  32.067   2.360
93478W        W65094   7.839   9.156  12.420
93479W        W65095  27.009   8.288   4.873
93480W        W65096  40.841   8.624  12.632
93481W        W65097   8.158   4.102   0.065
93482W        W65098  36.910   4.173  12.438
93483W        W65099   4.745   3.964   1.814
93484W        W65100  40.084  29.501  14.415
93485W        W65101  14.829   3.276  13.578
93486W        W65102  35.821  10.331  12.981
93487W        W65103  10.921  37.336  11.225
93488W        W65104  37.961  26.237   4.625
93489W        W65105  28.916  34.859   2.127
93490W        W65106  20.034  31.789   0.408
93491W        W65107  21.213  20.256   2.764
93492W        W65108  43.040  10.605  12.930
93493W        W65109  27.110  25.395   2.682
93494W        W65110  27.004  30.903  13.160
93495W        W65111  11.321  44.833  12.452
93496W        W65112  20.654  34.976   2.066
93497W        W65113  37.963  25.215  11.405
93498W        W65114  12.998  23.955   2.016
93499W        W65115  41.199  10.258  13.182
93500W        W65116   0.404   7.346   2.702
93501W        W65117  12.874  44.916   2.699
93502W        W65118  13.056  40.247  11.581
93503W        W65119  44.071   5.993   0.916
93504W        W65120   5.350  43.827   1.813
93505W        W65121  27.050  30.665   4.185
93506W        W65122   5.198  43.543  13.471
93507W        W65123  42.975  33.562  13.049
93508W        W65124   8.193  11.180  13.560
93509W        W65125  13.313  17.314  10.590
93510W        W65126  19.648  41.270   0.754
93511W        W65127  41.971  44.444  14.930
93512W        W65128  28.665  17.124   4.120
93513W        W65129   1.186   1.766  12.523
93514W        W65130  18.174  31.735   2.661
93515W        W65131  30.028  14.050   4.565
93516W        W65132   4.737  19.597  11.582
93517W        W65133  30.124  28.126   2.724
93518W        W65134  40.253  11.763  10.393
93519W        W65135   0.532  26.093  14.409
93520W        W65136  35.237  12.604  11.431
93521W        W65137  41.210  31.963   1.668
93522W        W65138  27.568  21.099  13.981
93523W        W65139  28.105  37.099   1.451
93524W        W65140  39.488   6.368   2.357
93525W        W65141  13.321  14.583   3.559
93526W        W65142  12.752  28.322  14.875
93527W        W65143  17.285   9.332  14.973
93528W        W65144   8.122  33.526  11.983
93529W        W65145   4.204  14.591  12.110
93530W        W65146   6.438  25.653   1.552
93531W        W65147  42.713  11.980  11.187
93532W        W65148  33.575  28.677   1.382
93533W        W65149  15.601  23.199   4.245
93534W        W65150   1.634  44.279   0.789
93535W        W65151  34.156   7.906  11.546
93536W        W65152  11.702   3.615   1.458
93537W        W65153  31.404  20.558  10.779
93538W        W65154  23.875  10.229  12.502
93539W        W65155  27.242   4.349   0.429
93540W        W65156  36.028  25.933  13.441
93541W        W65157  18.574   1.823   3.130
93542W        W65158   9.020  25.037   4.401
93543W        W65159  27.162  23.054  11.293
93544W        W65160  19.260  15.296  10.441
93545W        W65161  23.715  40.550   2.767
93546W        W65162  18.372  14.750   4.868
93547W        W65163  24.131   8.668  14.874
93548W        W65164  11.563  23.759  14.937
93549W        W65165  35.660  43.125   2.848
93550W        W65166  11.527  38.110   9.932
93551W        W65167   0.535  44.011   1.704
93552W        W65168  28.217   0.660   3.966
93553W        W65169  37.670  41.113   1.771
93554W        W65170  25.153  21.673  10.737
93555W        W65171  25.481  11.714  13.427
93556W        W65172  20.656  11.394  14.419
93557W        W65173  16.687  17.111   3.297
93558W        W65174  12.395  15.325  11.615
93559W        W65175   3.856  26.848   2.142
93560W        W65176   8.773   4.359  13.959
93561W        W65177  22.231  31.482  14.895
93562W        W65178  42.846  29.112   4.321
93563W        W65179  21.718   6.863  11.058
93564W        W65180  40.584  39.961  12.492
93565W        W65181   4.211  12.126   0.490
93566W        W65182  37.831  40.128  12.140
93567W        W65183  19.939   1.262  12.032
93568W        W65184  36.646   1.870   0.474
93569W        W65185  43.437  33.105  13.441
93570W        W65186  12.834  40.206   0.840
93571W        W65187  35.848  33.934  11.169
93572W        W65188  27.200  23.078  13.463
93573W        W65189  42.998   4.518  14.788
93574W        W65190   2.615  39.877  11.010
93575W        W65191  35.935  34.120   1.381
93576W        W65192   8.946  29.359   1.892
93577W        W65193   2.252   2.905   3.157
93578W        W65194  15.556  14.219   1.239
93579W        W65195  36.734   0.827   3.150
93580W        W65196  36.014  36.092  12.920
93581W        W65197  17.127  20.825   4.411
93582W        W65198  43.194  20.846  12.018
93583W        W65199   7.202  32.874   4.667
93584W        W65200  44.309   4.827   3.332
93585W        W65201  15.800   2.423  14.382
93586W        W65202  20.014  19.978   1.822
93587W        W65203   7.961  17.105   0.306
93588W        W65204  30.383  11.604  11.987
93589W        W65205  28.742  30.919   0.009
93590W        W65206  36.626  26.275  12.626
93591W        W65207  32.417  20.840  11.029
93592W        W65208  19.212  40.116   1.212
93593W        W65209  28.629  26.102  11.908
93594W        W65210   6.104  20.058  14.337
93595W        W65211  10.770  33.120  13.646
93596W        W65212  41.765  15.620   4.182
93597W        W65213  38.125  19.393  10.782
93598W        W65214  17.077   4.966   3.690
93599W        W65215   0.941  18.495   0.735
93600W        W65216  42.000   4.413   4.854
93601W        W65217   7.894   0.650   1.305
93602W        W65218   9.416  22.938  11.685
93603W        W65219  44.830  21.109  11.781
93604W        W65220  40.580   2.900  13.942
93605W        W65221  21.858  24.604   1.855
93606W        W65222  24.111  12.098   0.862
93607W        W65223  43.001   9.166  12.011
93608W        W65224  20.339  40.528   4.679
93609W        W65225  30.455  19.224   4.375
93610W        W65226  38.817   2.318   3.661
93611W        W65227  15.915  24.466  11.092
93612W        W65228  13.778  44.322   4.929
93613W        W65229   2.609  15.647  13.270
93614W        W65230  11.314  44.504  13.095
93615W        W65231   5.272   9.374   2.899
93616W        W65232  10.422  25.549  11.712
93617W        W65233   0.443  32.956  13.326
93618W        W65234   4.443  35.499   3.166
93619W        W65235  29.311  29.958   5.066
93620W        W65236  39.021  11.141   0.225
93621W        W65237  27.025  35.332  14.380
93622W        W65238  10.792  41.614   1.069
93623W        W65239  14.784   1.326   4.090
93624W        W65240   4.757  31.026  13.929
93625W        W65241  25.014   6.416   1.734
93626W        W65242  23.573  27.099   0.086
93627W        W65243  28.592  30.323   0.996
93628W        W65244  15.907   3.158   3.425
93629W        W65245  36.043  10.599   3.284
93630W        W65246  19.089  10.871  14.879
93631W        W65247  30.479  43.377   3.373
93632W        W65248  32.044  39.310  14.499
93633W        W65249  15.714  10.350   4.537
93634W        W65250   2.614  26.735  12.024
93635W        W65251  39.459  30.458   0.034
93636W        W65252  16.352  41.580  14.868
93637W        W65253  34.181  33.460   2.824
93638W        W65254  12.751  23.512   4.298
93639W        W65255  12.951  35.832  13.012
93640W        W65256   3.379  24.387   1.863
93641W        W65257  13.192  33.652   1.530
93642W        W65258  22.498  19.720   3.657
93643W        W65259  14.903  32.049   3.686
93644W        W65260   7.053   3.643   2.322
93645W        W65261   7.632  32.591  10.912
93646W        W65262   0.706  16.290   3.764
93647W        W65263  17.199  29.491  10.004
93648W        W65264  18.086  39.957   3.151
93649W        W65265   2.380  14.260   0.849
93650W        W65266  22.013  30.752  14.262
93651W        W65267  36.013  31.452   0.354
93652W        W65268  12.309  32.386   5.003
93653W        W65269  41.374  44.455   1.870
93654W        W65270   7.041  17.861  11.884
93655W        W65271  15.134  17.694   1.608
93656W        W65272  42.684   6.277   2.467
93657W        W65273   0.481  16.684  11.193
93658W        W65274  13.078  14.147   4.292
93659W        W65275  38.251  27.627  10.593
93660W        W65276  27.657  22.210  13.001
93661W        W65277  25.461   2.808   1.947
93662W        W65278  44.408  21.025   5.146
93663W        W65279  22.919  44.440  12.014
93664W        W65280  34.808  37.034  13.998
93665W        W65281  41.569   3.841  11.851
93666W        W65282  17.914  15.995  13.465
93667W        W65283  12.028   0.526   4.287
93668W        W65284  14.358  15.032  10.898
93669W        W65285  38.054  15.204   1.700
93670W        W65286  35.950   3.946   4.662
93671W        W65287  27.259  28.125   0.050
93672W        W65288  38.509   9.139  13.063
93673W        W65289   5.427  17.086  10.458
93674W        W65290  12.587  21.537  12.082
93675W        W65291   4.361  16.618  11.649
93676W        W65292  17.729  28.140   3.218
93677W        W65293  30.506   8.975  14.190
93678W        W65294  42.064  26.718   5.060
93679W        W65295  30.916  31.094   3.887
93680W        W65296  13.744  25.232   0.815
93681W        W65297  28.600   2.368  12.423
93682W        W65298  29.931  15.941  13.510
93683W        W65299  20.541  11.133   0.314
93684W        W65300  42.522  13.174  12.771
93685W        W65301  21.312  33.519  13.348
93686W        W65302  30.005  10.336   2.192
93687W        W65303  19.604   9.850  12.400
93688W        W65304  22.257   2.251   4.106
93689W        W65305  31.188  26.045   2.780
93690W        W65306   9.074   2.271  14.391
93691W        W65307  13.652  21.251   0.915
93692W        W65308  23.298   3.239   1.742
93693W        W65309  44.867  12.432   0.473
93694W        W65310  34.609  29.636   4.933
93695W        W65311   8.313   2.947   4.626
93696W        W65312  13.258   8.654   0.222
93697W        W65313  27.164  31.439  11.101
93698W        W65314  32.493   5.406   3.711
93699W        W65315   1.566  36.190   0.578
93700W        W65316  38.400  10.357  10.717
93701W        W65317   8.325   0.893  13.412
93702W        W65318  34.375  36.732   1.429
93703W        W65319  37.024   4.399   0.597
93704W        W65320  11.207  26.606  12.461
93705W        W65321  44.507   3.755   3.785
93706W        W65322   0.265  12.261  12.442
93707W        W65323  32.661  35.039  11.857
93708W        W65324  32.891  18.994   1.958
93709W        W65325  10.503   0.402   2.231
93710W        W65326  11.988  42.757   2.384
93711W        W65327  39.858  34.873   3.138
93712W        W65328  18.463  28.180  14.561
93713W        W65329  36.895  20.932   2.667
93714W        W65330  27.142  21.869  12.145
93715W        W65331  40.107   6.358  13.099
93716W        W65332  43.202  10.427  11.638
93717W        W65333  18.795  12.528   1.412
93718W        W65334  22.499   7.638   2.307
93719W        W65335  41.767  26.139   1.211
93720W        W65336  31.881  10.281   4.924
93721W        W65337  17.198  40.716  11.085
93722W        W65338  21.591  16.077  14.771
93723W        W65339  40.340  36.565   0.275
93724W        W65340  25.330  41.907   2.183
93725W        W65341  40.435  32.644  13.836
93726W        W65342   7.266   3.875  11.146
93727W        W65343   9.541  39.228  14.054
93728W        W65344  27.949  22.561  10.919
93729W        W65345  23.444   4.147  11.885
93730W        W65346  33.396  23.519   2.226
93731W        W65347  14.674  22.005   2.829
93732W        W65348   4.875  37.354   4.196
93733W        W65349  21.295  16.686  13.549
93734W        W65350  40.519  21.128   5.051
93735W        W65351  24.622  26.429  11.676
93736W        W65352  32.468   3.200  13.940
93737W        W65353  37.535  36.771   4.203
93738W        W65354   3.897   6.238   3.257
93739W        W65355  18.182  13.849   4.320
93740W        W65356  21.854  24.349   0.480
93741W        W65357  11.792  22.745  10.626
93742W        W65358   1.405  35.672  12.560
93743W        W65359   8.133  13.617   3.496
93744W        W65360  29.140  40.938  13.525
93745W        W65361  21.669   3.213   1.802
93746W        W65362  26.987   5.491  12.913
93747W        W65363  44.000  38.877   2.452
93748W        W65364  41.591  40.985   2.285
93749W        W65365  17.675  33.447  13.178
93750W        W65366  16.015   1.501   2.717
93751W        W65367  20.619   9.300   3.108
93752W        W65368  32.065  22.761   2.813
93753W        W65369  21.561  30.415   2.015
93754W        W65370  36.956  37.502  13.437
93755W        W65371  20.880  11.376   3.671
93756W        W65372  30.927  39.358   4.230
93757W        W65373  31.864   3.711  12.465
93758W        W65374   5.220  23.724   0.974
93759W        W65375  12.866  11.191   4.280
93760W        W65376   9.899  43.718  11.647
93761W        W65377  23.436  43.023   4.981
93762W        W65378  41.571   7.177   2.182
93763W        W65379  43.381  14.054   0.744
93764W        W65380  43.847   8.749   0.348
93765W        W65381  27.711  38.052  11.583
93766W        W65382   7.399  10.603  11.953
93767W        W65383  18.095  42.148  12.878
93768W        W65384   3.527  25.158   4.125
93769W        W65385  31.483  31.640   2.182
93770W        W65386  21.107  36.880   0.549
93771W        W65387   0.040  29.591  13.109
93772W        W65388  26.985  23.683  10.519
93773W        W65389  17.873  31.161  14.041
93774W        W65390  22.190  21.995  13.054
93775W        W65391  31.336   6.795   0.487
93776W        W65392  21.223   6.438   1.023
93777W        W65393   1.512  27.465   2.095
93778W        W65394  26.445  13.514  13.594
93779W        W65395  15.201  39.228  13.925
93780W        W65396   8.956  37.294   0.432
93781W        W65397   4.934  13.960   0.999
93782W        W65398   5.007  32.593   1.354
93783W        W65399  36.478   2.781  14.843
93784W        W65400   2.279  28.063  10.722
93785W        W65401  12.472   2.037  14.731
93786W        W65402  30.929  38.284   3.119
93787W        W65403  12.314  16.256   4.640
93788W        W65404  15.571  37.660  13.446
93789W        W65405  32.857   7.783  12.115
93790W        W65406   6.905  26.547   2.451
93791W        W65407  19.746  43.273   2.633
93792W        W65408  22.207  43.040  11.124
93793W        W65409  31.937   8.935   4.009
93794W        W65410  24.762  24.212  12.631
93795W        W65411  28.244  21.682  11.210
93796W        W65412  37.189  34.464   1.223
93797W        W65413  29.182  20.241   2.771
93798W        W65414  42.802  10.813   0.731
93799W        W65415   0.862  27.698   0.411
93800W        W65416  23.914  35.960  13.753
93801W        W65417  21.124   5.820  12.929
93802W        W65418  41.279  26.440   2.281
93803W        W65419  25.217  18.208   2.948
93804W        W65420  16.124  40.998  13.275
93805W        W65421  16.703  18.186  10.897
93806W        W65422  20.178  36.323  11.972
93807W        W65423   9.748  38.406   0.760
93808W        W65424   3.836  43.452   5.372
93809W        W65425   7.968  30.799  12.056
93810W        W65426  21.977  18.750   1.326
93811W        W65427  40.459  15.635   2.756
93812W        W65428   2.158   2.766  12.184
93813W        W65429  12.423  14.065  12.359
93814W        W65430  12.515   0.485   4.138
93815W        W65431   5.137  17.285  14.442
93816W        W65432  24.005  12.172  11.602
93817W        W65433  26.417  14.518   5.005
93818W        W65434   0.018  43.463  11.584
93819W        W65435   0.198  37.976  14.712
93820W        W65436  30.515   7.384   0.404
93821W        W65437  33.953   4.982  10.632
93822W        W65438   9.236  39.801  10.660
93823W        W65439  20.061  31.117   2.401
93824W        W65440  15.552  19.342  12.500
93825W        W65441  17.011  41.242   0.473
93826W        W65442  11.155  12.419   1.754
93827W        W65443  12.231  20.792   1.930
93828W        W65444  21.247  37.897   3.713
93829W        W65445   5.152   6.661   1.113
93830W        W65446   8.674  27.248   1.271
93831W        W65447   4.772   9.189   1.992
93832W        W65448  34.051  10.709   1.027
93833W        W65449   4.265  22.247   4.644
93834W        W65450  42.199  19.630  10.848
93835W        W65451   0.808  13.474   1.617
93836W        W65452  31.586  31.091  12.472
93837W        W65453  22.022  16.530   0.384
93838W        W65454  32.864   2.839   3.760
93839W        W65455  11.379  10.316  14.487
93840W        W65456  15.148  31.425   2.656
93841W        W65457  38.054  19.979  11.684
93842W        W65458  38.756  36.814  14.853
93843W        W65459  36.071  24.777  10.667
93844W        W65460  21.990   7.446   2.244
93845W        W65461  36.366  39.992   1.655
93846W        W65462  41.361  15.796   1.879
93847W        W65463   1.658  40.203  11.147
93848W        W65464  33.572   5.442  11.703
93849W        W65465  21.745  21.210  14.902
93850W        W65466  26.973  24.199  13.330
93851W        W65467  26.432  27.032  11.340
93852W        W65468   9.655  18.666  14.269
93853W        W65469  36.291  41.111   4.502
93854W        W65470  32.857  27.914   2.718
93855W        W65471   2.754  40.864   0.532
93856W        W65472  36.776  27.438  11.850
93857W        W65473  24.070   1.485  10.549
93858W        W65474   4.466  14.297  14.832
93859W        W65475   2.516  18.176  11.961
93860W        W65476  44.231  28.900   1.655
93861W        W65477  40.316  14.269  12.112
93862W        W65478   2.452  36.892   1.709
93863W        W65479  30.435  38.087   3.091
93864W        W65480  43.537   7.472   1.436
93865W        W65481  19.218   1.671   1.978
93866W        W65482  13.442  23.741   9.811
93867W        W65483  35.223  29.439   5.182
93868W        W65484  38.675   9.633  13.515
93869W        W65485   6.122  42.373   4.261
93870W        W65486  43.860  27.386   2.081
93871W        W65487  14.642  18.065   2.698
93872W        W65488  42.976  31.899   0.093
93873W        W65489   0.047  22.933  12.026
93874W        W65490  40.044  12.668   1.788
93875W        W65491  15.786  39.910  11.820
93876W        W65492   3.716  22.753   0.847
93877W        W65493  44.424  11.220   1.157
93878W        W65494  34.167  23.953   2.174
93879W        W65495  31.327   2.410   5.148
93880W        W65496   2.772  37.021   0.136
93881W        W65497  41.891  35.541   0.434
93882W        W65498  19.045  42.322   2.830
93883W        W65499  39.960  43.974   1.358
93884W        W65500  32.880  36.804   4.320
93885W        W65501  30.485  37.005  11.591
93886W        W65502  27.145  23.147  12.668
93887W        W65503  32.185  38.607  11.523
93888W        W65504  29.533  43.226  13.791
93889W        W65505   7.784  30.021  11.697
93890W        W65506  17.246   6.865   0.472
93891W        W65507   9.441  20.229  11.058
93892W        W65508   3.471  32.916   0.833
93893W        W65509  38.437  29.437  13.887
93894W        W65510  12.610  33.172   4.395
93895W        W65511  37.366  21.789   0.242
93896W        W65512  18.665  14.331  11.091
93897W        W65513  22.242  15.200  11.690
93898W        W65514   3.359  37.584  10.038
93899W        W65515  24.706   9.836   1.462
93900W        W65516   9.222  23.202   4.628
93901W        W65517  25.890   4.366  14.933
93902W        W65518  34.460  33.883   5.006
93903W        W65519  41.943  22.611   4.364
93904W        W65520  28.386  12.764  12.027
93905W        W65521  38.885  19.378  10.680
93906W        W65522   7.892  17.457  11.966
93907W        W65523  30.846  15.482  13.528
93908W        W65524  29.527   9.635   0.822
93909W        W65525  19.035  41.535   2.171
93910W        W65526  30.119  21.458   1.235
93911W        W65527  17.036  43.582   4.844
93912W        W65528  12.866  23.664   2.937
93913W        W65529  16.166  31.772   3.712
93914W        W65530  43.327  27.840  12.401
93915W        W65531  21.662  29.620  13.972
93916W        W65532  34.548   8.631   4.496
93917W        W65533  42.800   8.080   3.163
93918W        W65534  36.101  19.308   2.637
93919W        W65535  29.865  13.461  11.584
93920W        W65536  25.179  13.761  12.386
93921W        W65537  10.685   7.858   1.873
93922W        W65538   1.985  18.823  11.642
93923W        W65539  30.700  15.698   4.583
93924W        W65540  11.685  29.615  14.680
93925W        W65541  25.606   8.679  14.751
93926W        W65542  31.405  17.865   4.557
93927W        W65543  30.859  24.474  11.657
93928W        W65544  14.214  16.339   1.964
93929W        W65545  29.910  10.695  11.869
93930W        W65546   7.700  25.588  10.751
93931W        W65547   9.246  10.760   4.335
93932W        W65548   4.895   3.916  13.057
93933W        W65549  41.269  25.183   4.279
93934W        W65550   3.791  15.107   0.892
93935W        W65551  16.201  18.873   0.744
93936W        W65552  25.983   7.144  13.314
93937W        W65553  44.022  38.585  12.112
93938W        W65554  10.650  14.453  14.932
93939W        W65555  10.857   0.212  13.283
93940W        W65556  24.067  35.890  11.493
93941W        W65557  18.226  15.191  14.300
93942W        W65558   8.785   7.362  12.182
93943W        W65559  29.486  17.428   4.633
93944W        W65560  33.014  17.396  11.485
93945W        W65561  14.040  10.386   4.132
93946W        W65562  42.281   4.257  10.595
93947W        W65563  31.951  40.347  11.403
93948W        W65564  10.265  16.529  14.702
93949W        W65565  21.598  13.047   0.817
93950W        W65566  22.472  18.642  11.629
93951W        W65567  40.285  29.884   2.387
93952W        W65568  21.062  40.607  11.958
93953W        W65569  28.918   4.626  14.045
93954W        W65570  12.522  39.844  10.723
93955W        W65571   3.914  30.892  12.029
93956W        W65572   2.890  17.724  14.367
93957W        W65573  22.752   2.366  13.268
93958W        W65574   8.303  15.959  12.046
93959W        W65575  29.743  38.704   3.747
93960W        W65576  22.131  21.138   4.264
93961W        W65577  17.988  33.180  14.960
93962W        W65578  28.602   4.960   3.332
93963W        W65579  27.893  14.805   0.348
93964W        W65580  11.210  28.549   2.875
93965W        W65581  27.959   3.827  12.511
93966W        W65582  37.593  18.342  12.524
93967W        W65583  11.363  39.832   2.991
93968W        W65584   4.895  15.098  12.445
93969W        W65585   4.317  15.493  13.495
93970W        W65586  27.726  10.266   4.699
93971W        W65587  25.745  42.021  12.866
93972W        W65588  44.802  28.009   1.117
93973W        W65589  15.151  44.565  11.023
93974W        W65590  16.858  25.664  13.567
93975W        W65591  33.586  40.557  13.544
93976W        W65592  18.051   5.208   3.142
93977W        W65593  43.277  19.617  13.353
93978W        W65594  43.844  32.699  13.975
93979W        W65595  26.651   2.940   2.170
93980W        W65596  14.770   6.005  13.075
93981W        W65597   8.789  27.570  12.350
93982W        W65598   0.891  35.149   2.765
93983W        W65599  16.720  19.625   4.271
93984W        W65600  10.500   1.876   1.369
93985W        W65601   3.213  42.832   4.916
93986W        W65602  39.480  24.902   2.217
93987W        W65603   2.983  32.630   4.763
93988W        W65604  26.694  28.527   2.946
93989W        W65605   0.409   7.804  13.009
93990W        W65606   7.643  34.809  12.609
93991W        W65607  44.739  22.762  13.467
93992W        W65608  17.737  27.066   3.838
93993W        W65609  30.953  44.760  13.304
93994W        W65610  31.406  36.295  12.878
93995W        W65611  36.090   2.538   4.363
93996W        W65612  25.297  33.542  11.115
93997W        W65613  17.726   4.841  11.720
93998W        W65614  43.495  14.195   3.811
93999W        W65615  15.194  38.425   2.198
94000W        W65616   2.376  24.983   4.059
94001W        W65617  29.926   8.273   2.559
94002W        W65618  16.330  11.378  12.541
94003W        W65619  34.161  13.466  10.734
94004W        W65620  34.421  38.555  13.603
94005W        W65621  14.255   9.157   2.093
94006W        W65622  27.013  18.774   0.357
94007W        W65623  24.784  36.843   0.288
94008W        W65624   9.078  21.210  10.099
94009W        W65625  32.484  42.091  10.743
94010W        W65626  39.523   7.872   1.242
94011W        W65627  18.815   1.352   1.885
94012W        W65628  41.884   2.709   1.805
94013W        W65629  38.136  24.258   4.610
94014W        W65630   3.782  34.130  12.125
94015W        W65631  35.871  14.221  12.345
94016W        W65632  32.509   1.208   3.581
94017W        W65633  20.416  32.645   4.076
94018W        W65634  39.521  17.516  13.365
94019W        W65635  10.111  11.713   3.684
94020W        W65636  21.836  23.182  14.059
94021W        W65637   9.751  22.811   3.840
94022W        W65638  24.120  44.930   3.487
94023W        W65639  40.871   8.723  14.023
94024W        W65640  34.834   4.442   1.372
94025W        W65641  35.419   7.319  14.201
94026W        W65642  35.662  22.523  11.133
94027W        W65643  35.856  34.348  13.576
94028W        W65644  30.923  29.487   1.889
94029W        W65645  43.457  27.686  11.931
94030W        W65646  41.831  19.776   0.256
94031W        W65647  33.113  29.929   0.273
94032W        W65648   6.680  43.919  12.379
94033W        W65649   2.524  23.123   5.003
94034W        W65650  30.355  17.147   4.256
94035W        W65651  31.475  21.035   2.511
94036W        W65652  22.686  15.909  11.480
94037W        W65653   4.012  30.097   3.200
94038W        W65654  20.815  18.515   3.865
94039W        W65655   0.510  20.662   4.486
94040W        W65656  36.612  10.649   0.360
94041W        W65657   1.202  28.666   0.430
94042W        W65658  34.541  27.482  12.551
94043W        W65659  11.377   3.054  12.334
94044W        W65660  24.349  21.060   3.273
94045W        W65661   3.066  24.955  13.593
94046W        W65662  41.413  34.412  10.624
94047W        W65663  18.642  22.720   0.558
94048W        W65664  31.486  31.148   3.190
94049W        W65665  10.653   6.616  11.067
94050W        W65666  37.530   3.495  11.309
94051W        W65667  41.754  39.369  14.855
94052W        W65668  20.211  21.327   0.510
94053W        W65669  20.301  18.311   1.816
94054W        W65670  12.793  21.686   3.174
94055W        W65671  32.880  23.996  12.374
94056W        W65672  27.519   1.893  13.563
94057W        W65673  27.241   5.400  12.476
94058W        W65674  39.600  41.411  14.555
94059W        W65675  41.056   2.128  13.089
94060W        W65676  21.702   1.332   3.430
94061W        W65677  21.606  40.331   4.412
94062W        W65678  32.028  13.474   3.676
94063W        W65679  11.498  40.481   5.070
94064W        W65680  17.097   2.682  10.509
94065W        W65681  42.827   3.067  12.111
94066W        W65682   5.276  26.708  13.279
94067W        W65683  16.854  40.030   2.474
94068W        W65684  39.859   6.184  11.865
94069W        W65685  23.919  41.775   2.247
94070W        W65686   9.405  28.306   3.871
94071W        W65687  22.760  31.964   3.678
94072W        W65688  14.351   9.475  12.034
94073W        W65689  25.128  16.287   3.762
94074W        W65690  14.589   8.937  11.625
94075W        W65691  34.875  31.004  12.677
94076W        W65692  22.995  12.179   3.576
94077W        W65693  19.729  14.557  14.358
94078W        W65694  43.355  26.675  11.922
94079W        W65695  40.493   8.148  12.781
94080W        W65696  24.702   7.337  10.747
94081W        W65697   2.035  18.783   4.700
94082W        W65698   5.025  35.619   0.217
94083W        W65699  24.451  41.715  14.863
94084W        W65700  28.568  30.226   4.542
94085W        W65701  31.591  40.564   4.647
94086W        W65702  17.055   5.146  10.551
94087W        W65703  34.023  35.061  12.861
94088W        W65704  12.696  14.335  13.355
94089W        W65705  25.208  43.021  10.382
94090W        W65706  18.136  30.894   1.401
94091W        W65707   2.427  25.979  10.775
94092W        W65708  41.928  44.977  13.631
94093W        W65709  42.239   6.904  12.392
94094W        W65710  18.956  27.553  11.857
94095W        W65711  12.119  38.110   4.109
94096W        W65712   8.685  21.004   0.392
94097W        W65713   0.888  34.565   3.658
94098W        W65714  25.172  18.369  11.568
94099W        W65715  10.571  10.159  12.489
94100W        W65716  41.308   0.362   3.428
94101W        W65717  28.057   6.887   2.703
94102W        W65718  10.361  37.793   1.366
94103W        W65719  26.688  35.678   0.599
94104W        W65720  12.873   0.305  13.601
94105W        W65721  20.132   2.507  13.440
94106W        W65722   3.649   3.151   0.937
94107W        W65723  24.251   0.953  11.725
94108W        W65724   5.166  17.435  10.073
94109W        W65725  24.993  39.414  10.550
94110W        W65726  43.973  26.786  12.920
94111W        W65727  31.485  27.365   0.851
94112W        W65728  26.091  37.883   2.936
94113W        W65729  29.325  23.997   0.959
94114W        W65730  29.646  40.876  13.415
94115W        W65731  27.662  35.907  12.333
94116W        W65732  36.618  28.115  12.111
94117W        W65733  27.501  41.033   0.907
94118W        W65734   3.777  33.931   1.339
94119W        W65735  20.963   6.374  11.161
94120W        W65736   7.818  44.603  12.912
94121W        W65737  31.946  34.042  10.418
94122W        W65738  35.582  33.539  13.024
94123W        W65739  12.401   8.892   4.718
94124W        W65740  12.119  13.377   0.731
94125W        W65741  20.226  13.836  12.011
94126W        W65742  11.646  26.532  10.250
94127W        W65743  33.620   8.675   4.609
94128W        W65744  26.106  43.429   0.684
94129W        W65745   7.268  12.586   3.210
94130W        W65746  19.676  30.891   1.285
94131W        W65747  17.113  29.998  13.523
94132W        W65748  39.777  37.235  10.782
94133W        W65749  38.314  11.421  14.741
94134W        W65750  39.918  23.207   4.205
94135W        W65751  14.825  13.127  11.560
94136W        W65752   8.652  26.495  13.025
94137W        W65753  35.981   0.706  11.053
94138W        W65754  33.838  31.716   0.338
94139W        W65755   4.924  38.600   0.382
94140W        W65756  17.043  27.420  13.410
94141W        W65757  37.276  22.648  14.371
94142W        W65758   0.561  40.411   3.244
94143W        W65759   4.993  11.891  12.914
94144W        W65760   5.365   7.435   4.169
94145W        W65761   2.755   3.444   4.170
94146W        W65762  19.023  23.173   1.052
94147W        W65763  36.345  35.864  12.401
94148W        W65764  16.730  43.399  12.828
94149W        W65765   9.844  10.203   2.905
94150W        W65766  20.825  17.527  12.513
94151W        W65767  34.102  23.678  14.319
94152W        W65768   2.615  35.660  13.276
94153W        W65769  36.934  12.380   0.738
94154W        W65770  28.875  38.967  12.071
94155W        W65771  20.742  25.906   4.814
94156W        W65772  33.776  19.096  13.448
94157W        W65773  10.202  12.120   1.658
94158W        W65774   3.205  42.869   3.384
94159W        W65775   2.683  16.797  14.443
94160W        W65776   8.986  17.308   3.904
94161W        W65777  20.702  11.382   2.341
94162W        W65778   3.449  27.256  12.535
94163W        W65779  29.764  23.142   2.943
94164W        W65780  10.841  10.059  11.721
94165W        W65781  14.694  16.116   1.763
94166W        W65782   4.004  30.948  14.642
94167W        W65783  20.526  16.350   3.417
94168W        W65784  13.818  25.069  10.470
94169W        W65785  31.999   7.099  12.026
94170W        W65786  37.396   4.516   3.604
94171W        W65787  15.839  21.620  11.717
94172W        W65788   7.925  20.471  11.227
94173W        W65789  14.049  10.808   0.900
94174W        W65790  24.086  19.277   3.783
94175W        W65791  14.278  26.428   4.169
94176W        W65792   2.229  26.629   0.489
94177W        W65793   0.693  15.641   0.327
94178W        W65794   0.338  27.021   4.671
94179W        W65795   4.459   4.339  12.647
94180W        W65796   3.399  10.217  11.157
94181W        W65797   0.389  12.556   0.708
94182W        W65798  39.810  18.781   1.816
94183W        W65799  22.867  23.144  13.999
94184W        W65800  14.760  38.993  14.827
94185W        W65801   0.056  14.750   2.721
94186W        W65802  32.383   5.214  11.667
94187W        W65803  39.135   7.636   0.385
94188W        W65804  27.500  38.860   1.187
94189W        W65805   9.585  44.432   1.230
94190W        W65806  29.654   1.985  12.917
94191W        W65807  16.587   4.403   0.249
94192W        W65808  24.178   3.788  11.207
94193W        W65809  17.107  39.001   3.777
94194W        W65810  36.868  25.174  11.660
94195W        W65811  44.281  27.444   0.392
94196W        W65812   4.729  13.611   2.304
94197W        W65813  23.971  23.022   0.001
94198W        W65814  40.334   2.671   3.758
94199W        W65815  28.019  31.600  10.681
94200W        W65816  43.800  25.216  11.072
94201W        W65817   1.185   5.355   1.981
94202W        W65818  13.703   7.813   1.938
94203W        W65819  34.394   5.135  11.860
94204W        W65820   8.625  28.146  11.604
94205W        W65821  22.046  32.568   4.112
94206W        W65822  41.958  32.925  13.402
94207W        W65823  22.583   3.020  14.994
94208W        W65824  24.239  11.845   4.111
94209W        W65825  17.001  22.273  11.980
94210W        W65826  42.819  24.703  11.594
94211W        W65827  40.769  33.455  14.074
94212W        W65828  25.097  11.372  13.411
94213W        W65829   0.180  12.880  13.431
94214W        W65830   6.061   5.687   2.248
94215W        W65831  17.260  44.949   4.009
94216W        W65832  41.398  33.183   0.811
94217W        W65833  38.311   6.867  12.926
94218W        W65834  10.339   4.952   3.562
94219W        W65835  18.366   3.464  12.417
94220W        W65836  25.234  42.903   2.771
94221W        W65837  33.493  35.998  14.740
94222W        W65838  17.250  12.874   2.833
94223W        W65839   6.181   6.291  12.089
94224W        W65840  30.948   5.581  10.939
94225W        W65841  21.663  38.805   2.307
94226W        W65842  14.503   5.810   5.042
94227W        W65843  22.824  35.306  14.595
94228W        W65844  36.439  23.108   1.849
94229W        W65845   1.195  19.665   3.996
94230W        W65846  12.750   7.380   2.839
94231W        W65847  41.858  43.940  12.863
94232W        W65848  41.328  25.136  12.590
94233W        W65849   2.198  41.457  12.498
94234W        W65850  16.192  33.087   0.320
94235W        W65851   1.952  41.956  12.560
94236W        W65852  30.636  18.543  14.706
94237W        W65853  33.178  15.486   2.291
94238W        W65854  18.634  17.104  10.709
94239W        W65855  11.672  38.983  12.865
94240W        W65856  35.325  14.702  14.329
94241W        W65857  26.939   0.828   1.753
94242W        W65858   3.443  43.243   1.198
94243W        W65859  23.787   8.411  12.772
94244W        W65860  42.925   1.338   0.205
94245W        W65861  23.540  20.591   3.632
94246W        W65862   3.529   0.962  10.681
94247W        W65863  17.738  13.188  12.059
94248W        W65864  35.476  16.732  14.763
94249W        W65865   5.949  11.265  12.083
94250W        W65866   1.863   0.373   5.038
94251W        W65867  33.578  13.571   1.546
94252W        W65868  22.091  13.884  13.129
94253W        W65869  10.129  36.275   2.810
94254W        W65870  19.364   3.680   4.388
94255W        W65871  31.136  40.988  13.401
94256W        W65872  27.048  43.511  10.928
94257W        W65873  38.481  29.096   3.884
94258W        W65874  37.597  27.172   4.388
94259W        W65875  38.827  31.052   4.026
94260W        W65876  40.343  24.656   1.754
94261W        W65877  35.894  39.405  14.480
94262W        W65878  23.198   9.837  11.257
94263W        W65879  40.651  43.082   9.899
94264W        W65880  17.642  14.963  13.051
94265W        W65881  25.561   6.278   0.772
94266W        W65882  26.717  34.631   0.741
94267W        W65883  27.428   5.938  14.815
94268W        W65884  28.599   3.623  10.090
94269W        W65885  30.481  10.639   3.384
94270W        W65886  16.587   0.374   1.324
94271W        W65887  23.266  33.914  13.119
94272W        W65888   4.357  15.593   3.668
94273W        W65889  31.092  18.683   2.707
94274W        W65890   2.764  18.046   1.475
94275W        W65891  10.358   3.209   4.079
94276W        W65892   8.875  22.045   4.521
94277W        W65893  28.180  10.098  14.989
94278W        W65894  25.028  44.128  12.774
94279W        W65895  40.925  24.777   2.396
94280W        W65896  27.414  25.386   2.260
94281W        W65897  35.150  14.607   0.951
94282W        W65898  31.894  11.836  10.759
94283W        W65899  20.651  12.174  10.972
94284W        W65900  37.461  37.139  12.090
94285W        W65901  21.086  20.393   3.583
94286W        W65902   6.719  41.413  11.080
94287W        W65903  34.070  43.479  13.167
94288W        W65904  34.974  19.010  11.197
94289W        W65905  42.513   3.594   3.657
94290W        W65906  43.028  22.937  14.033
94291W        W65907  33.017  19.693   1.425
94292W        W65908  40.310  22.970   1.015
94293W        W65909  25.510  35.995   3.541
94294W        W65910  42.746  10.989  14.062
94295W        W65911  29.214  36.714  12.732
94296W        W65912  14.547  10.217  11.700
94297W        W65913  21.080  19.119  12.616
94298W        W65914  20.164   0.887   1.616
94299W        W65915  24.364  19.560  14.450
94300W        W65916  15.907  16.550  10.220
94301W        W65917   5.918  27.604   3.563
94302W        W65918  29.562  30.646   3.769
94303W        W65919  44.230  11.485   4.568
94304W        W65920  43.938  14.697  10.639
94305W        W65921  28.437  37.955   4.023
94306W        W65922   1.843   3.159   0.850
94307W        W65923  33.146  10.342   2.649
94308W        W65924  22.696  21.296   0.971
94309W        W65925  32.450  31.980  10.755
94310W        W65926  39.509   6.969  12.268
94311W        W65927  25.176  43.788  12.202
94312W        W65928  34.586  12.230   2.259
94313W        W65929  12.081  39.418  10.681
94314W        W65930  42.097  35.902   4.184
94315W        W65931  40.697  43.868   3.750
94316W        W65932   4.403   0.199   4.230
94317W        W65933   8.774  44.789  14.428
94318W        W65934   1.778  25.925   2.528
94319W        W65935  19.194  13.230  12.834
94320W        W65936   8.930  42.182   1.927
94321W        W65937  32.434  17.007  11.982
94322W        W65938  38.328  38.536  14.620
94323W        W65939  40.412  16.964  14.432
94324W        W65940  16.155  12.670  13.294
94325W        W65941  16.023  22.168  12.891
94326W        W65942   7.927  30.508  13.477
94327W        W65943  31.803   2.498   4.964
94328W        W65944  28.154  34.648  11.103
94329W        W65945  24.473  40.780   2.038
94330W        W65946  18.544  19.727  12.756
94331W        W65947  17.757  33.554  14.659
94332W        W65948   3.802  15.174  14.299
94333W        W65949  36.824   4.259   4.894
94334W        W65950  14.648  17.508  10.279
94335W        W65951  43.086  37.110   0.601
94336W        W65952  22.187  12.556  14.539
94337W        W65953  32.867  22.061  11.204
94338W        W65954  43.555  25.893  14.504
94339W        W65955   7.889  17.598  11.449
94340W        W65956  22.104  21.896   2.906
94341W        W65957   6.137  44.251  13.056
94342W        W65958  22.964  34.132  14.078
94343W        W65959   2.669  42.611  10.583
94344W        W65960  44.394  17.133   4.162
94345W        W65961  39.045  29.161   1.206
94346W        W65962   9.043  21.953   1.409
94347W        W65963  23.209   9.030  13.861
94348W        W65964   8.192  22.251   3.329
94349W        W65965   8.793   4.200  14.451
94350W        W65966  36.408  11.760   3.858
94351W        W65967  18.524  44.208   5.060
94352W        W65968  20.600  32.634  10.636
94353W        W65969  13.314   7.151  13.766
94354W        W65970  14.154  44.563  11.056
94355W        W65971   5.219  16.337   4.899
94356W        W65972   1.529   7.267  14.445
94357W        W65973  23.033  13.347  11.653
94358W        W65974  41.540   9.573  12.469
94359W        W65975  40.864  34.519   1.573
94360W        W65976  43.867  19.874   1.090
94361W        W65977  38.681  25.542  12.075
94362W        W65978  20.478   9.070  12.960
94363W        W65979  16.861   1.948  13.975
94364W        W65980  22.785  32.850  13.820
94365W        W65981  39.943  26.576  11.720
94366W        W65982  42.220   9.322  12.984
94367W        W65983   8.909   5.928  10.983
94368W        W65984  36.105   4.461  14.389
94369W        W65985  15.261  35.381   1.016
94370W        W65986  22.221   4.735  13.286
94371W        W65987  14.806   0.586   2.852
94372W        W65988   1.438  28.551  11.649
94373W        W65989  32.060  31.533  14.075
94374W        W65990  35.550  16.766  14.263
94375W        W65991  42.930  22.750  13.470
94376W        W65992  32.408   6.411  13.389
94377W        W65993  28.145  11.664  12.473
94378W        W65994  32.346  31.623   2.311
94379W        W65995  26.668  23.573  11.243
94380W        W65996  40.452  11.764   3.840
94381W        W65997   9.868  36.573   3.173
94382W        W65998  37.526  26.219   1.307
94383W        W65999  37.258  10.829  11.291
94384W        W66000   3.406  33.645  11.171
94385W        W66001   3.039  39.769   3.715
94386W        W66002   6.012   7.105  12.164
94387W        W66003  11.198  29.803  12.625
94388W        W66004  36.831  11.932   2.703
94389W        W66005   9.380  29.434  14.827
94390W        W66006  26.769  14.882   3.154
94391W        W66007  35.825  28.553   3.870
94392W        W66008  38.908   1.520  14.830
94393W        W66009  35.946  44.922   0.910
94394W        W66010  34.137  34.026   0.229
94395W        W66011  15.786  43.269   2.258
94396W        W66012  40.758   0.718   1.799
94397W        W66013  40.886  37.391  12.347
94398W        W66014  20.677  19.715   2.200
94399W        W66015  30.322  18.007   4.178
94400W        W66016  20.172  40.312  14.890
94401W        W66017  25.605  38.613  14.439
94402W        W66018  15.873   6.444   0.851
94403W        W66019  39.638  11.889   4.935
94404W        W66020  12.791  22.643   4.884
94405W        W66021  14.774  26.990   1.164
94406W        W66022  32.461   1.473   5.374
94407W        W66023  39.041  44.496   3.336
94408W        W66024  34.600  39.125   4.031
94409W        W66025  11.360  42.021   1.760
94410W        W66026   2.927   7.889   3.137
94411W        W66027   6.770  23.718  11.927
94412W        W66028  26.622  32.089  12.783
94413W        W66029   6.090  27.604   0.054
94414W        W66030  20.354   4.488  13.330
94415W        W66031  40.537  13.396  12.474
94416W        W66032  31.874  31.082   1.697
94417W        W66033  39.523   1.884   1.701
94418W        W66034  21.101  36.597   2.975
94419W        W66035  42.520  26.978  12.212
94420W        W66036  11.163  15.723  11.556
94421W        W66037   0.262  39.920  10.595
94422W        W66038  16.225   6.309   1.866
94423W        W66039  13.578  19.240  13.386
94424W        W66040  38.123  33.948  13.966
94425W        W66041  41.765  38.088   1.479
94426W        W66042  13.232  40.347   3.951
94427W        W66043  18.409  29.769   0.341
94428W        W66044  24.501   4.260  14.370
94429W        W66045   9.624  25.468  14.260
94430W        W66046   3.594  29.384  11.034
94431W        W66047   1.387  40.386   1.284
94432W        W66048  21.716  40.002  13.017
94433W        W66049  10.583  18.214  12.542
94434W        W66050  40.551  18.087   3.300
94435W        W66051   5.247  41.443   1.387
94436W        W66052  17.608   9.783  12.012
94437W        W66053  40.115  30.463  11.989
94438W        W66054  36.033  43.492   2.477
94439W        W66055  41.744  39.402   4.177
94440W        W66056  34.682   8.694   5.009
94441W        W66057  43.990  27.032   5.047
94442W        W66058   2.361  25.781   1.913
94443W        W66059   2.335   0.151   9.786
94444W        W66060  25.694  34.946  13.411
94445W        W66061  25.934  20.197   2.697
94446W        W66062  13.526  42.141  13.952
94447W        W66063   4.201  18.162   1.362
94448W        W66064   0.412  40.372   4.116
94449W        W66065  32.196   1.062  10.363
94450W        W66066   3.217  16.328  10.770
94451W        W66067  17.573   8.755  13.482
94452W        W66068   9.376   2.537  12.213
94453W        W66069  36.723  14.605  13.875
94454W        W66070  12.867  43.253  11.566
94455W        W66071  40.952  37.142   3.667
94456W        W66072  15.043  24.712  11.949
94457W        W66073  44.876   3.578  10.805
94458W        W66074  33.365  41.164   5.213
94459W        W66075  14.307  18.457   2.698
94460W        W66076  44.425  20.791  14.071
94461W        W66077  31.424  37.837   2.783
94462W        W66078  13.733  22.033  10.727
94463W        W66079  19.642  39.080   0.291
94464W        W66080  36.046  38.362   1.572
94465W        W66081  39.200  43.427  12.795
94466W        W66082  24.058   3.680   0.414
94467W        W66083  20.547  38.746  11.120
94468W        W66084  36.442  29.199   4.034
94469W        W66085   9.943  40.352  11.976
94470W        W66086   0.882  36.076   1.280
94471W        W66087   4.780   9.583   1.668
94472W        W66088  13.794  30.685   3.737
94473W        W66089  12.767  27.615   2.361
94474W        W66090  21.300  42.051  11.993
94475W        W66091  25.948  27.215  14.027
94476W        W66092  33.935   2.794   4.557
94477W        W66093   4.213   0.962  11.806
94478W        W66094  20.815  23.977  11.692
94479W        W66095   6.388   8.752   4.710
94480W        W66096  13.169   4.449   3.712
94481W        W66097  28.043  27.409   3.622
94482W        W66098  16.627  35.997   2.826
94483W        W66099  38.340  21.747  10.749
94484W        W66100  31.879  40.186  12.237
94485W        W66101  43.738  28.884   1.764
94486W        W66102  44.598  14.323   5.319
94487W        W66103  10.691  13.221   1.710
94488W        W66104   5.887  22.956  11.116
94489W        W66105  37.023  34.983   2.802
94490W        W66106  24.623  23.386   4.074
94491W        W66107   6.890  16.614   2.850
94492W        W66108  37.341  13.742   1.715
94493W        W66109  17.074  44.961   3.515
94494W        W66110  12.385  20.019   1.263
94495W        W66111   7.152  21.092  11.577
94496W        W66112  38.730  44.958   3.781
94497W        W66113  43.302  28.039  13.785
94498W        W66114  28.463   6.355   2.523
94499W        W66115  18.507  33.928  13.851
94500W        W66116  13.411  17.177   1.929
94501W        W66117  17.758  14.541   1.473
94502W        W66118  29.719  11.809  13.901
94503W        W66119  30.608  29.466   2.847
94504W        W66120  20.478  31.339   2.186
94505W        W66121  37.279  14.722   0.630
94506W        W66122   0.295  33.864   1.197
94507W        W66123  40.333  20.176   2.245
94508W        W66124  16.732  23.784  13.992
94509W        W66125  28.861  18.819  12.463
94510W        W66126  27.154  11.873   0.035
94511W        W66127  37.366  23.145   3.155
94512W        W66128  16.794   2.099   0.303
94513W        W66129  25.568  11.700   2.595
94514W        W66130   0.669  12.737  13.317
94515W        W66131  17.631  27.877  13.988
94516W        W66132  31.398  30.602  12.412
94517W        W66133  23.501  38.862   4.101
94518W        W66134  32.820   2.061   3.690
94519W        W66135  14.128  18.265  10.221
94520W        W66136  28.226  21.654  12.545
94521W        W66137  12.167  29.631   1.546
94522W        W66138  17.603   2.722  10.640
94523W        W66139   1.570  44.759  10.620
94524W        W66140  23.253  30.373  12.517
94525W        W66141  16.593   7.000   0.648
94526W        W66142  36.339  10.145  12.925
94527W        W66143   7.475   4.351  14.458
94528W        W66144  28.418   5.215  14.381
94529W        W66145  18.348   0.711   2.626
94530W        W66146  29.048  36.938   4.389
94531W        W66147  29.589   2.227   1.671
94532W        W66148  42.505  34.090  11.978
94533W        W66149  11.300   9.248   4.068
94534W        W66150   3.686   3.498  11.502
94535W        W66151   3.264   8.437  13.994
94536W        W66152  27.526  39.861  14.975
94537W        W66153  27.111   8.152  10.814
94538W        W66154  36.368  40.437  14.432
94539W        W66155  30.353  43.732  11.483
94540W        W66156   8.711  10.551  10.734
94541W        W66157  39.294   1.078  14.032
94542W        W66158  16.084   5.851   5.114
94543W        W66159  42.000  12.307   0.782
94544W        W66160  33.922  14.095   0.373
94545W        W66161  20.483  18.745   2.014
94546W        W66162   4.903   2.133  12.961
94547W        W66163  25.520  22.593  10.649
94548W        W66164  32.191  23.153  13.075
94549W        W66165   9.908  20.467   0.510
94550W        W66166  40.909  35.425   4.667
94551W        W66167  31.479   7.939  11.060
94552W        W66168  22.428  30.637   2.782
94553W        W66169  32.068  28.476  12.011
94554W        W66170   0.690  24.532  13.493
94555W        W66171   1.710  39.173  13.761
94556W        W66172  30.884  26.352  14.184
94557W        W66173   2.927  14.410  12.911
94558W        W66174  34.305   2.450   0.384
94559W        W66175  25.413  36.621  14.918
94560W        W66176  19.677  11.200  11.902
94561W        W66177   5.770  40.306  14.290
94562W        W66178  30.684  36.467   1.973
94563W        W66179  22.817  32.928  12.850
94564W        W66180  34.932  15.842  10.333
94565W        W66181  41.948   3.973   3.875
94566W        W66182   1.415  11.848  11.066
94567W        W66183  10.821  29.140   3.058
94568W        W66184   7.891  11.748  13.351
94569W        W66185  31.197  16.602  12.461
94570W        W66186  40.860  11.708  14.895
94571W        W66187   6.390  27.889  12.949
94572W        W66188  16.950   9.195   1.390
94573W        W66189  36.325  37.542  11.591
94574W        W66190  20.988  39.938   1.057
94575W        W66191  15.669  40.046  13.048
94576W        W66192   8.347  14.346   4.209
94577W        W66193  29.882   9.233  12.465
94578W        W66194  16.111  15.791  12.757
94579W        W66195   6.192  40.132   0.381
94580W        W66196   3.266  29.542   0.984
94581W        W66197  13.201   1.383  12.884
94582W        W66198  40.784  38.518  14.509
94583W        W66199  42.725   9.693  12.001
94584W        W66200  28.603  44.843   2.610
94585W        W66201  14.783  12.673   2.328
94586W        W66202  18.085   1.147   4.225
94587W        W66203   2.777   7.841  12.485
94588W        W66204  22.470  41.467  14.836
94589W        W66205  27.162  44.882   1.402
94590W        W66206  16.549  16.165   3.722
94591W        W66207  18.210  41.116  10.701
94592W        W66208  12.041   7.118   2.232
94593W        W66209  29.926  14.918  11.512
94594W        W66210  21.868  35.614  11.873
94595W        W66211  19.764  26.501  10.717
94596W        W66212  31.944   6.313  12.834
94597W        W66213  32.243  28.716  13.214
94598W        W66214   6.459   2.841   3.762
94599W        W66215  15.792  37.025   5.079
94600W        W66216   5.068  18.558   3.196
94601W        W66217   8.709  43.229  12.437
94602W        W66218  14.572  31.542   4.567
94603W        W66219  41.838  40.966  14.948
94604W        W66220   4.428  41.317   3.220
94605W        W66221  25.007  42.377   0.317
94606W        W66222  34.727   5.361   1.952
94607W        W66223   0.998  30.504  10.196
94608W        W66224  29.173   9.822  11.555
94609W        W66225   0.683  11.407  12.733
94610W        W66226  14.552  15.705   0.334
94611W        W66227   8.171  17.033  13.425
94612W        W66228  44.005  32.620  14.492
94613W        W66229  38.923   7.445   3.660
94614W        W66230   9.213  17.114   1.869
94615W        W66231   8.702  35.910  11.863
94616W        W66232  13.047  36.928  11.732
94617W        W66233  19.905  12.135   4.643
94618W        W66234  19.660  18.666   1.332
94619W        W66235  42.868  34.034   0.071
94620W        W66236  13.319   3.478  12.386
94621W        W66237  35.013   9.402  13.905
94622W        W66238   9.915  20.138   1.191
94623W        W66239  21.126  30.411   1.698
94624W        W66240   3.895  16.236  14.068
94625W        W66241   9.627  15.337   1.853
94626W        W66242   0.460  35.894  11.476
94627W        W66243   3.283  14.613   3.504
94628W        W66244  40.971  17.703  13.728
94629W        W66245   6.285   8.323   3.201
94630W        W66246  12.248  38.629  13.403
94631W        W66247  20.450  25.205   0.380
94632W        W66248  35.047  13.774  14.906
94633W        W66249  37.817  17.998  11.637
94634W        W66250  37.375  14.796   3.694
94635W        W66251  10.316  44.837   2.731
94636W        W66252   4.559  39.389   3.181
94637W        W66253  43.735  40.265   3.670
94638W        W66254  12.694   4.245   0.805
94639W        W66255  30.863  34.897  11.606
94640W        W66256  38.800  27.202  14.908
94641W        W66257  44.404  40.390  10.234
94642W        W66258  44.749  36.260  11.079
94643W        W66259  20.516   9.694   0.490
94644W        W66260  38.604  20.140  14.407
94645W        W66261  40.572  35.475  12.169
94646W        W66262  15.025  14.219  13.289
94647W        W66263   4.530  30.083   1.920
94648W        W66264   4.168  43.504  14.517
94649W        W66265  39.992  32.865  11.693
94650W        W66266   3.667  44.270   2.539
94651W        W66267  41.298  13.616  14.928
94652W        W66268  28.736  26.506   0.837
94653W        W66269  31.934  32.395   2.124
94654W        W66270  28.061  26.123   2.336
94655W        W66271  28.906  10.452   0.625
94656W        W66272  42.024  36.319   2.446
94657W        W66273  15.037  13.456  12.018
94658W        W66274  21.196  23.935   4.488
94659W        W66275  39.606  17.360  14.863
94660W        W66276   5.172  21.113   1.304
94661W        W66277  28.083   9.449  11.429
94662W        W66278  44.326   2.604   1.752
94663W        W66279  18.318  18.587   4.130
94664W        W66280  38.443  30.315  14.226
94665W        W66281  17.511   2.861   4.700
94666W        W66282  11.812  33.982   1.330
94667W        W66283  35.234  24.696  12.472
94668W        W66284  31.951   2.804  13.528
94669W        W66285   6.793  37.982   4.471
94670W        W66286  23.191  25.746   4.176
94671W        W66287  28.989  20.962   3.736
94672W        W66288   1.344  37.342   1.400
94673W        W66289  19.471  16.420  14.409
94674W        W66290  14.582  22.207   2.372
94675W        W66291  33.023   6.718   3.690
94676W        W66292   6.003  15.361   0.859
94677W        W66293  40.767  14.276  10.776
94678W        W66294  27.593  30.289   4.792
94679W        W66295  26.584  26.117  11.980
94680W        W66296  12.054   0.493  14.409
94681W        W66297  39.816  21.635   2.895
94682W        W66298  14.618  20.167   2.277
94683W        W66299   3.687  33.115   4.094
94684W        W66300  20.463   3.999   0.920
94685W        W66301  29.539   0.468   2.646
94686W        W66302  30.235   0.987   4.105
94687W        W66303  35.000  32.121   2.278
94688W        W66304  25.522  29.666   2.416
94689W        W66305  39.498   2.207  10.747
94690W        W66306  37.964  44.293   0.002
94691W        W66307  22.008   1.292  12.533
94692W        W66308   2.852   8.035  13.485
94693W        W66309   2.609   0.764   4.172
94694W        W66310  40.777  37.349   1.220
94695W        W66311  28.699   2.873   2.324
94696W        W66312  19.356  35.477   3.209
94697W        W66313  18.581  10.823   1.263
94698W        W66314   2.500   5.824   1.194
94699W        W66315  36.508  39.779   0.834
94700W        W66316  25.881  41.787   0.405
94701W        W66317  20.351   4.097  11.119
94702W        W66318  35.090  43.843  10.910
94703W        W66319  17.095  32.113   3.668
94704W        W66320   1.855  37.328   2.783
94705W        W66321  40.070  16.695  14.712
94706W        W66322   0.879  13.965   2.887
94707W        W66323  16.900  38.958  12.060
94708W        W66324  24.135  35.293  14.579
94709W        W66325  22.246  39.099  11.806
94710W        W66326  18.136  32.368  14.453
94711W        W66327   2.176  12.272   1.757
94712W        W66328  24.893  33.614  12.017
94713W        W66329   3.496  11.542   4.274
94714W        W66330  18.168  11.334  12.995
94715W        W66331  40.844  34.014  12.915
94716W        W66332  15.826   1.959  13.985
94717W        W66333  34.021  14.997   3.179
94718W        W66334  30.640  38.383  11.913
94719W        W66335  30.408  36.199   2.802
94720W        W66336  26.296  30.596  14.707
94721W        W66337  17.027  35.465  12.580
94722W        W66338   2.477  15.706   4.653
94723W        W66339  17.040  18.280   4.859
94724W        W66340  36.411   1.272  12.068
94725W        W66341  43.239  14.194   2.832
94726W        W66342   4.298   6.606   1.329
94727W        W66343  30.485  24.199   0.071
94728W        W66344  34.893  17.988   2.319
94729W        W66345  40.854  31.409  12.929
94730W        W66346  41.519  18.087   2.176
94731W        W66347  26.091  28.586   2.328
94732W        W66348   6.173  30.153   3.707
94733W        W66349  32.161  24.258  11.219
94734W        W66350  41.902  13.774   2.894
94735W        W66351  40.102  27.572  11.666
94736W        W66352  15.324  39.083   0.419
94737W        W66353  26.024  23.613  12.543
94738W        W66354  19.979  20.555  11.946
94739W        W66355   4.454  44.476  10.900
94740W        W66356  42.042  12.673  12.097
94741W        W66357  31.408  15.073   1.148
94742W        W66358  43.984   9.594  12.030
94743W        W66359  43.959  41.942   4.149
94744W        W66360  33.004  17.617   1.314
94745W        W66361   3.299  41.989   0.785
94746W        W66362  33.466  44.710  14.510
94747W        W66363   3.346  13.937  11.945
94748W        W66364   1.015   4.684  14.383
94749W        W66365   4.728  25.508  13.563
94750W        W66366  25.151  38.468   4.597
94751W        W66367  19.281  39.403   3.783
94752W        W66368  44.248  18.743   2.166
94753W        W66369   1.983  43.223   3.633
94754W        W66370  39.146   1.539   0.311
94755W        W66371  19.749  26.961   2.115
94756W        W66372  42.127  13.182   1.195
94757W        W66373   9.266  22.983  11.202
94758W        W66374  39.819   6.001   3.633
94759W        W66375   2.244  27.117  12.158
94760W        W66376  29.878  18.359  11.109
94761W        W66377  40.971  42.856  11.131
94762W        W66378  11.767  32.129   1.803
94763W        W66379  12.139  25.643  13.340
94764W        W66380   1.024  10.941  13.421
94765W        W66381  30.129  18.672   4.628
94766W        W66382   2.906  21.470   5.468
94767W        W66383  18.542  21.521   4.887
94768W        W66384   8.700  27.941   2.401
94769W        W66385  13.262  34.630  12.013
94770W        W66386  22.462  28.984  14.611
94771W        W66387  37.453  41.235   3.063
94772W        W66388  25.432  29.751   4.657
94773W        W66389  16.332   1.303  13.522
94774W        W66390   7.963   2.488  12.467
94775W        W66391  31.704   1.012   3.644
94776W        W66392   3.724  24.102  12.394
94777W        W66393  36.583  39.274   4.169
94778W        W66394  40.603  14.168   4.028
94779W        W66395  11.616  42.105   3.729
94780W        W66396  13.115  28.643  10.413
94781W        W66397  39.063  16.721  11.619
94782W        W66398  26.658  18.390   0.421
94783W        W66399  10.670  37.818  14.719
94784W        W66400  39.874  15.640   4.532
94785W        W66401   0.875  33.118  10.674
94786W        W66402   3.983   5.541   3.754
94787W        W66403  13.134  38.680   1.206
94788W        W66404  29.440   4.719  10.707
94789W        W66405  16.563  39.651   1.693
94790W        W66406  16.864  22.980  12.473
94791W        W66407  31.011  40.049   3.726
94792W        W66408   2.470  13.043  14.930
94793W        W66409  27.961  40.201  10.647
94794W        W66410  22.448  39.754  13.785
94795W        W66411   8.335  10.283  11.038
94796W        W66412  34.605  17.322  12.308
94797W        W66413  30.380  16.522  13.483
94798W        W66414  30.366  41.359   4.230
94799W        W66415   1.439   5.849  14.095
94800W        W66416   5.267  39.076   4.724
94801W        W66417  31.014  32.709  14.981
94802W        W66418  28.134  38.865  11.670
94803W        W66419   1.354  17.297   0.831
94804W        W66420  18.600   0.384   1.176
94805W        W66421   4.881   5.807  12.648
94806W        W66422  17.602  35.919   3.673
94807W        W66423  28.950   5.639  13.263
94808W        W66424  16.021  23.124  11.358
94809W        W66425  17.316  31.993  13.425
94810W        W66426  41.910  11.136  14.395
94811W        W66427  10.297   6.171   2.122
94812W        W66428  36.968  26.596  12.412
94813W        W66429   1.658  43.942  12.400
94814W        W66430  12.677  24.219  11.548
94815W        W66431  23.502   3.471   0.928
94816W        W66432  15.121  11.112  13.507
94817W        W66433  31.137   7.172  11.093
94818W        W66434  23.424  39.962  12.361
94819W        W66435   2.546  16.808  12.085
94820W        W66436  29.863   1.783   3.358
94821W        W66437   9.222  34.147   4.718
94822W        W66438   8.184  16.522  11.949
94823W        W66439  29.506  26.688  14.387
94824W        W66440  26.107  12.745   3.781
94825W        W66441  30.522  27.587   1.415
94826W        W66442  35.098  10.659   4.077
94827W        W66443  12.071  24.688  12.879
94828W        W66444  16.811  43.458   9.883
94829W        W66445   2.083  37.876  12.559
94830W        W66446  43.680  39.598  10.981
94831W        W66447  42.324  23.346   0.214
94832W        W66448  11.607  35.651  12.983
94833W        W66449  26.708  36.389   4.085
94834W        W66450   4.090   0.573  10.175
94835W        W66451   0.336   4.376   1.186
94836W        W66452   3.263  33.438  12.585
94837W        W66453   3.671  15.038   2.281
94838W        W66454  11.804  16.814   0.851
94839W        W66455  15.265   5.898   2.339
94840W        W66456  25.109  28.454   2.387
94841W        W66457  37.980   3.405   2.805
94842W        W66458   4.003   7.307  14.026
94843W        W66459  37.113  38.742  12.441
94844W        W66460  30.167  12.986   4.814
94845W        W66461  44.950  32.036  13.394
94846W        W66462  17.328   9.555  12.639
94847W        W66463   2.767   9.708  10.724
94848W        W66464  31.443   6.166   0.955
94849W        W66465   4.762  31.431  11.887
94850W        W66466  28.771  19.105   2.282
94851W        W66467  43.544  30.523  10.677
94852W        W66468  41.354  30.786   3.176
94853W        W66469  30.603  19.201   3.436
94854W        W66470  39.908   6.291  13.967
94855W        W66471  29.545  37.631   0.405
94856W        W66472  13.238  29.608  10.963
94857W        W66473   3.624  29.066   2.663
94858W        W66474   2.435  13.582   1.243
94859W        W66475  40.453  20.002   3.302
94860W        W66476  43.068  13.268  10.492
94861W        W66477  41.694   7.811   1.583
94862W        W66478  31.380  28.990  12.392
94863W        W66479  15.514  23.121  11.465
94864W        W66480  40.548   8.447   1.790
94865W        W66481  42.839  12.835   4.595
94866W        W66482   1.500  39.017  14.467
94867W        W66483  30.594  38.354  10.860
94868W        W66484   2.517  13.232   0.853
94869W        W66485   5.403  22.209  12.055
94870W        W66486  25.205  43.652  12.684
94871W        W66487   4.632  15.734  11.645
94872W        W66488  20.979  13.290   3.886
94873W        W66489  10.455  13.659   4.457
94874W        W66490  39.531  16.483  11.638
94875W        W66491  15.654   3.734  11.315
94876W        W66492  19.148  19.630  10.759
94877W        W66493   1.122  33.543   5.112
94878W        W66494  37.979  27.693  12.118
94879W        W66495  17.263  40.101  13.512
94880W        W66496  24.458  29.038   3.590
94881W        W66497  40.307   6.333  10.731
94882W        W66498  10.144  22.600  12.991
94883W        W66499  41.573  13.865   4.234
94884W        W66500  10.400  42.429  14.851
94885W        W66501  29.241   8.058  14.427
94886W        W66502  37.050  16.994  12.336
94887W        W66503   1.453  27.527   4.078
94888W        W66504  38.833  10.375   0.848
94889W        W66505  35.565  40.919   3.877
94890W        W66506  37.316  27.475  12.961
94891W        W66507  24.043  24.491  14.416
94892W        W66508  32.780  44.687   0.760
94893W        W66509  34.595   8.664  10.681
94894W        W66510  43.262  29.705   2.351
94895W        W66511  16.779  28.192   1.070
94896W        W66512  29.924  35.704  12.568
94897W        W66513  18.071  25.988   2.045
94898W        W66514  26.150  20.778  11.158
94899W        W66515  27.440   3.619  11.439
94900W        W66516  27.981  22.717   5.061
94901W        W66517  30.612   0.217   3.670
94902W        W66518  27.004  33.821  11.924
94903W        W66519  42.652  40.451  13.808
94904W        W66520   4.177  12.050  12.871
94905W        W66521  13.054  16.120  10.984
94906W        W66522  37.657  16.293   1.268
94907W        W66523   3.189  27.512   0.782
94908W        W66524  31.496  40.900   2.820
94909W        W66525  35.347   9.030  14.625
94910W        W66526  40.295  17.260  14.830
94911W        W66527   2.047  16.671   1.029
94912W        W66528  27.246  12.375  11.021
94913W        W66529  14.207  16.752   3.126
94914W        W66530  17.615  39.248   3.441
94915W        W66531   7.857  24.624   4.265
94916W        W66532   4.211  14.084  11.480
94917W        W66533   4.185  22.260   1.442
94918W        W66534   6.713  19.786   4.643
94919W        W66535  42.796   1.987  13.966
94920W        W66536  26.062  28.384   4.564
94921W        W66537  25.515  15.346  11.924
94922W        W66538  43.002  35.358  10.434
94923W        W66539  15.350  38.371  13.451
94924W        W66540   2.430  43.026   3.453
94925W        W66541   1.445  32.063  12.488
94926W        W66542  33.651  38.989  11.320
94927W        W66543   0.700  22.480   1.809
94928W        W66544  44.817   1.664   2.768
94929W        W66545  14.243  18.867   3.597
94930W        W66546  29.328  16.823   1.378
94931W        W66547  16.751   3.956   4.165
94932W        W66548  42.966  35.969   2.252
94933W        W66549  40.253  31.976   0.465
94934W        W66550  33.149  35.081   0.339
94935W        W66551  29.505  35.520   1.025
94936W        W66552   6.455  23.479  12.623
94937W        W66553  24.942  42.887   0.364
94938W        W66554  16.353  16.150   5.003
94939W        W66555   4.732  21.745   1.258
94940W        W66556  26.907  19.697  10.400
94941W        W66557  25.802  19.707   1.685
94942W        W66558  28.935   3.760   3.342
94943W        W66559  18.609  31.410   1.079
94944W        W66560  35.393  33.020  10.581
94945W        W66561   1.790   2.742   1.703
94946W        W66562   0.311  32.307   3.346
94947W        W66563  41.061  14.401  11.638
94948W        W66564   4.298   8.411  10.618
94949W        W66565  30.474  25.123  14.250
94950W        W66566  19.582  44.804   4.327
94951W        W66567  25.452  32.482   1.350
94952W        W66568   4.752  28.638  12.094
94953W        W66569   7.657  42.485  12.505
94954W        W66570  44.747  27.049  11.866
94955W        W66571  20.547   3.281  13.062
94956W        W66572   5.205   9.465   0.883
94957W        W66573   9.351  12.926   1.858
94958W        W66574  17.772   8.893   2.215
94959W        W66575  32.524  22.272  13.896
94960W        W66576  19.132  24.213  14.402
94961W        W66577  41.527   2.007  14.353
94962W        W66578   5.918  42.339  14.004
94963W        W66579   1.545  19.330   0.996
94964W        W66580  10.739   7.335   2.370
94965W        W66581   3.459   4.654  14.951
94966W        W66582  23.072  11.954  12.484
94967W        W66583  43.765  18.698   3.073
94968W        W66584  13.641  25.721   0.938
94969W        W66585  35.018   8.236   1.091
94970W        W66586  42.415   7.171   0.915
94971W        W66587  13.544   5.952   2.699
94972W        W66588  29.987  28.987   4.720
94973W        W66589  32.061  14.255  13.043
94974W        W66590  19.750  40.769  13.847
94975W        W66591  39.469  43.834   2.820
94976W        W66592  16.222  15.321  10.563
94977W        W66593   0.900   4.422   4.062
94978W        W66594  41.173   0.031   0.148
94979W        W66595  13.615  41.319   3.168
94980W        W66596  42.445   6.140  11.496
94981W        W66597  14.913  36.943  14.227
94982W        W66598  42.108  25.360   1.771
94983W        W66599  33.121  19.165  10.217
94984W        W66600  43.987   6.298  13.753
94985W        W66601  15.563  41.354   2.632
94986W        W66602  18.003  29.608  14.221
94987W        W66603  23.567  38.727  14.906
94988W        W66604  24.911  29.257   4.043
94989W        W66605  24.979  35.374  10.682
94990W        W66606  34.977  27.105  12.403
94991W        W66607  14.096  24.934   2.011
94992W        W66608  15.631  25.763   1.792
94993W        W66609  35.996   5.869  10.727
94994W        W66610   0.777  27.696   2.392
94995W        W66611  21.945   4.710   4.778
94996W        W66612  23.028  11.236   3.626
94997W        W66613  36.877   9.910   3.745
94998W        W66614   0.173   7.367  13.205
94999W        W66615   6.918   8.366   2.721
95000W        W66616  33.036   2.735   0.802
95001W        W66617  23.817  27.163   2.326
95002W        W66618  12.317   9.910   3.652
95003W        W66619  34.609  31.553   4.134
95004W        W66620  20.574  33.120  11.601
95005W        W66621  29.388  12.575   1.963
95006W        W66622  33.321   7.114   9.924
95007W        W66623  38.375  36.073  11.925
95008W        W66624  38.968  15.542   4.232
95009W        W66625  24.550   0.747  12.480
95010W        W66626   9.105  18.302   1.420
95011W        W66627  20.974   1.745   2.316
95012W        W66628  29.657   3.838  13.308
95013W        W66629   0.186  32.636   3.754
95014W        W66630  28.728  34.003  11.649
95015W        W66631   1.921  12.065  14.154
95016W        W66632   8.120  44.431   2.859
95017W        W66633   8.293  41.402  13.487
95018W        W66634   7.371  15.817   2.419
95019W        W66635  41.335   5.701   0.050
95020W        W66636  18.513   7.960   4.036
95021W        W66637  44.984  29.904   5.043
95022W        W66638  34.631   3.569  11.072
95023W        W66639  38.922  41.580  12.756
95024W        W66640  23.669  36.500   0.312
95025W        W66641   3.400  13.674   3.354
95026W        W66642  14.606  13.683  10.931
95027W        W66643   6.245  20.721  12.507
95028W        W66644  22.496  27.707  12.287
95029W        W66645  21.734  25.751   0.401
95030W        W66646  35.948  17.299   3.685
95031W        W66647  20.520  13.647   4.217
95032W        W66648  41.298  36.453   1.247
95033W        W66649   6.690   8.335   4.784
95034W        W66650  35.667  31.372   3.186
95035W        W66651  37.386   9.555  13.576
95036W        W66652  18.305  42.971   3.665
95037W        W66653   4.932  15.326  11.599
95038W        W66654  17.260  10.811   3.659
95039W        W66655  32.812  25.674  12.847
95040W        W66656   9.271  21.544   0.112
95041W        W66657   9.153   2.155  11.690
95042W        W66658  42.592   5.128  11.533
95043W        W66659   0.780  28.800  14.317
95044W        W66660  33.951  21.707  13.091
95045W        W66661  36.493  39.377   2.279
95046W        W66662  40.857  13.581  12.070
95047W        W66663   6.945  23.749   4.496
95048W        W66664  22.472   7.295  10.971
95049W        W66665   8.869  39.404  12.574
95050W        W66666  15.711   8.885  11.908
95051W        W66667  27.087  15.805   4.092
95052W        W66668  15.068   6.833   0.867
95053W        W66669  36.808  22.481   2.751
95054W        W66670  34.469  36.439   0.714
95055W        W66671  39.344  25.194   1.226
95056W        W66672  32.905  44.067  13.403
95057W        W66673  27.443  19.317  11.164
95058W        W66674  43.014  13.109   3.413
95059W        W66675  42.296   0.531  12.001
95060W        W66676  35.607  26.154  10.798
95061W        W66677  41.857   8.277   1.350
95062W        W66678  40.955  10.417  11.856
95063W        W66679  25.020  34.009  12.423
95064W        W66680  35.837   6.041   3.201
95065W        W66681   3.040   4.142  13.067
95066W        W66682  34.723  41.941  11.676
95067W        W66683  14.309  26.577  13.352
95068W        W66684  17.027  25.295   4.145
95069W        W66685  18.094  26.222   4.225
95070W        W66686  14.111  11.272  10.970
95071W        W66687   4.522  11.775   0.170
95072W        W66688  19.068  13.545  12.442
95073W        W66689   8.141  16.779  14.934
95074W        W66690  42.453   4.443   1.322
95075W        W66691  41.368   7.915  13.950
95076W        W66692  43.279  39.017   3.764
95077W        W66693   5.557  20.522  11.207
95078W        W66694  38.774  12.140   3.823
95079W        W66695  16.112   5.261  14.017
95080W        W66696  14.727  17.806  13.057
95081W        W66697  28.969  16.076   2.365
95082W        W66698  36.879  11.687   3.159
95083W        W66699   9.826  18.061   0.049
95084W        W66700  30.900  16.171  12.414
95085W        W66701  26.697  12.260   2.818
95086W        W66702  38.285   7.605   0.859
95087W        W66703  18.525  27.459  12.457
95088W        W66704   8.372  16.827   0.413
95089W        W66705  37.569  12.598  12.909
95090W        W66706  32.087   1.412   4.412
95091W        W66707  28.515   8.504   0.379
95092W        W66708  38.100  43.428  13.940
95093W        W66709  24.649  44.789  13.583
95094W        W66710   2.467  26.178   3.666
95095W        W66711  21.788  26.975  13.780
95096W        W66712  25.684  30.160  11.266
95097W        W66713  17.096  41.977  11.142
95098W        W66714  41.990  44.524   2.768
95099W        W66715  43.738  19.592   4.255
95100W        W66716  26.523  26.152  12.519
95101W        W66717  29.319  43.290  14.263
95102W        W66718  28.961  37.978   3.806
95103W        W66719  41.903  30.703  14.519
95104W        W66720  22.556  23.182   2.818
95105W        W66721   3.357  34.917   3.716
95106W        W66722  36.629  10.188  13.330
95107W        W66723   6.306  21.095  12.171
95108W        W66724  27.229  19.521  10.763
95109W        W66725  28.470   2.483   0.208
95110W        W66726  15.708  28.004   1.944
95111W        W66727  23.454  10.130  13.410
95112W        W66728  34.850  25.722  11.155
95113W        W66729  29.668  28.166  12.468
95114W        W66730  10.622  37.329  12.962
95115W        W66731   2.945  41.577   3.795
95116W        W66732  38.885  32.917   0.984
95117W        W66733  26.544  17.835   1.710
95118W        W66734  21.295  32.100   0.803
95119W        W66735   8.848  31.625   0.358
95120W        W66736  22.630   4.762   0.745
95121W        W66737  27.123   1.622   2.616
95122W        W66738   4.513   8.192  12.578
95123W        W66739  22.123  31.763   4.560
95124W        W66740  19.804  33.070   4.768
95125W        W66741  38.382  42.024   4.755
95126W        W66742  38.754  10.270  10.342
95127W        W66743  30.892   3.841   0.853
95128W        W66744   6.954   1.340  13.530
95129W        W66745  38.299  37.529   0.820
95130W        W66746  30.592  12.766   4.023
95131W        W66747   8.715  30.657  10.606
95132W        W66748  40.108  35.398  12.464
95133W        W66749   0.384  33.675   3.735
95134W        W66750  10.239  28.662  14.443
95135W        W66751  20.248  44.120  10.464
95136W        W66752   1.476  20.147  14.973
95137W        W66753   0.470  31.162   2.655
95138W        W66754  40.256  39.353  10.947
95139W        W66755   6.995  42.840  12.071
95140W        W66756  28.582  38.900   1.435
95141W        W66757   4.373  31.684   0.889
95142W        W66758  25.978  14.579   0.998
95143W        W66759  42.975  30.700  14.393
95144W        W66760   6.252   7.954  12.606
95145W        W66761   1.024   9.263  14.857
95146W        W66762  36.759   8.315   1.250
95147W        W66763  16.534  44.292  12.661
95148W        W66764  37.425  17.533   0.807
95149W        W66765  30.118  38.352   2.785
95150W        W66766  26.081  20.673  10.670
95151W        W66767  41.323  11.350  11.105
95152W        W66768  12.039  16.000  13.201
95153W        W66769  44.977  25.705  10.592
95154W        W66770  31.195  22.295  13.537
95155W        W66771  23.618   5.636  14.952
95156W        W66772  16.631  34.483   3.331
95157W        W66773  27.644  32.855  11.040
95158W        W66774  16.654   8.339  12.150
95159W        W66775  41.068  13.179   3.340
95160W        W66776  36.809  27.281  14.376
95161W        W66777  27.978   2.828   4.662
95162W        W66778  34.305  24.815   1.243
95163W        W66779   5.464  31.934   3.734
95164W        W66780   1.851  20.118   4.465
95165W        W66781  22.590   5.431   0.444
95166W        W66782  11.700  16.275   2.426
95167W        W66783  19.356   1.175   1.739
95168W        W66784  20.585  15.056  14.880
95169W        W66785   8.572  24.490   0.529
95170W        W66786  19.198  41.422   3.213
95171W        W66787  13.638   9.742   4.924
95172W        W66788  15.046  41.443   1.289
95173W        W66789  23.680  11.992  14.301
95174W        W66790  15.235   7.346   2.753
95175W        W66791  28.962  18.378  11.542
95176W        W66792  40.304  35.990  11.070
95177W        W66793  26.079  15.477  14.846
95178W        W66794   0.114   0.983  14.916
95179W        W66795  31.418  33.993  11.667
95180W        W66796  31.906  16.311  13.057
95181W        W66797  39.966  41.258   1.810
95182W        W66798  21.986  35.915  13.298
95183W        W66799  16.543  42.191   4.670
95184W        W66800   0.225  19.234   2.663
95185W        W66801  33.127   7.790  12.563
95186W        W66802  38.476  12.943  10.734
95187W        W66803  32.870  39.748   1.239
95188W        W66804  19.173  44.917   5.099
95189W        W66805  17.814  38.235   4.592
95190W        W66806  10.401  29.632   0.894
95191W        W66807   1.356  21.738  14.013
95192W        W66808  32.455   1.435   4.048
95193W        W66809  31.982  44.258  11.892
95194W        W66810  36.477  18.281  14.075
95195W        W66811   1.753  24.456   5.273
95196W        W66812  33.589  19.689  14.432
95197W        W66813  17.102  27.536  12.487
95198W        W66814  15.044  38.938  12.505
95199W        W66815  28.718  27.693   5.487
95200W        W66816  18.202  14.762   0.063
95201W        W66817  21.517  10.805   0.205
95202W        W66818  31.588  31.455  12.878
95203W        W66819  44.865  37.717   5.635
95204W        W66820  24.875   9.218   4.553
95205W        W66821  28.069  13.824   3.364
95206W        W66822  30.668  10.289  12.828
95207W        W66823  28.694   9.370  10.699
95208W        W66824  33.086  29.600   2.944
95209W        W66825  37.040  33.267  12.912
95210W        W66826   6.653   7.784   0.274
95211W        W66827   9.391  17.097  12.038
95212W        W66828  36.560  37.728   0.983
95213W        W66829  12.939  16.074   1.816
95214W        W66830  22.966  36.281  11.481
95215W        W66831  32.595  16.131  10.780
95216W        W66832  31.202   2.799  14.343
95217W        W66833  18.679   1.246  11.529
95218W        W66834  10.588   0.439   1.211
95219W        W66835   6.689  41.896  10.879
95220W        W66836  24.238   7.663   0.020
95221W        W66837  31.458   6.251  13.131
95222W        W66838  35.059  23.207  13.885
95223W        W66839  26.545  32.722   0.495
95224W        W66840   5.323  25.866  11.567
95225W        W66841  30.105   2.155   2.712
95226W        W66842  12.746  17.180  11.655
95227W        W66843   2.673  22.241   3.781
95228W        W66844   4.250   3.870  12.711
95229W        W66845  35.152  32.122  14.574
95230W        W66846  25.052   4.839  11.945
95231W        W66847  43.939  26.128   2.078
95232W        W66848  32.048  44.849  12.929
95233W        W66849  20.119   5.585   1.165
95234W        W66850  39.538   4.356   4.328
95235W        W66851  41.462  30.751   1.859
95236W        W66852  13.824  43.186   2.439
95237W        W66853  15.637  20.810   0.955
95238W        W66854  23.656   0.372   1.552
95239W        W66855   5.962   8.253   4.075
95240W        W66856  28.380  21.769  14.002
95241W        W66857  10.488  36.896   0.497
95242W        W66858  22.570  32.459   2.394
95243W        W66859  12.410  35.992   1.835
95244W        W66860  24.488  40.994   4.836
95245W        W66861  41.329  44.468  11.536
95246W        W66862  34.102  26.751  14.987
95247W        W66863  29.538  18.021  12.122
95248W        W66864  27.134   5.418   4.933
95249W        W66865  44.360  36.095   0.030
95250W        W66866   4.877   9.659  10.224
95251W        W66867  30.119  34.332  13.057
95252W        W66868  26.224  39.433  13.313
95253W        W66869  43.484   3.884   3.643
95254W        W66870  30.139  42.743   3.221
95255W        W66871  32.276   9.726   0.399
95256W        W66872  38.357   5.952   1.382
95257W        W66873  40.942  41.508   0.783
95258W        W66874  32.095  15.035  13.869
95259W        W66875  38.387  24.078   3.149
95260W        W66876   0.244  28.472   0.470
95261W        W66877  29.447  28.635  12.530
95262W        W66878  34.413  33.023   1.711
95263W        W66879  13.152  20.880   4.898
95264W        W66880  22.767  44.438   2.672
95265W        W66881   3.949  42.366  11.951
95266W        W66882   7.817  17.122   2.544
95267W        W66883   5.773  11.890  14.496
95268W        W66884  15.335   7.601   1.162
95269W        W66885  34.587  17.210   2.496
95270W        W66886  29.708  33.993  12.506
95271W        W66887  23.030  16.839  12.915
95272W        W66888  42.843  34.534   4.301
95273W        W66889  17.583   2.336  14.762
95274W        W66890   6.687  44.990  13.510
95275W        W66891  37.907  10.214  10.546
95276W        W66892  39.773  15.433  14.922
95277W        W66893  17.175  38.589   1.283
95278W        W66894  38.081   2.686   0.926
95279W        W66895  21.936  17.799   4.410
95280W        W66896  30.887  44.437  11.031
95281W        W66897  30.938  42.291   2.203
95282W        W66898   0.843  11.594  14.438
95283W        W66899  22.041  30.714  10.745
95284W        W66900   3.894  37.793   4.192
95285W        W66901  14.521  24.041   1.458
95286W        W66902  22.311  21.957   4.174
95287W        W66903  19.678  24.111   2.808
95288W        W66904  17.328   1.716  10.596
95289W        W66905  39.017  44.795   1.901
95290W        W66906  44.997  35.631   2.646
95291W        W66907  27.946   8.899  12.474
95292W        W66908  29.904  36.564  14.727
95293W        W66909  39.757  31.694   2.407
95294W        W66910  30.159  43.890   2.621
95295W        W66911  27.699  28.553   2.675
95296W        W66912   6.134  20.833  13.515
95297W        W66913  19.589  28.983   1.524
95298W        W66914  11.382  11.490   3.593
95299W        W66915   6.979  43.774  14.431
95300W        W66916  44.919  33.272  11.134
95301W        W66917  27.050  40.981   4.009
95302W        W66918   7.652  13.372   3.367
95303W        W66919  17.187  28.777  11.601
95304W        W66920   4.708  29.642  10.590
95305W        W66921  28.939  22.230  11.110
95306W        W66922  29.114  37.975   1.305
95307W        W66923  15.384  41.882  11.021
95308W        W66924  37.805  34.358  11.993
95309W        W66925  13.591  40.285   2.212
95310W        W66926  41.449  39.733   1.773
95311W        W66927  37.102  38.108  13.900
95312W        W66928   9.297  26.103   2.032
95313W        W66929  11.837  33.086  10.950
95314W        W66930  31.737   2.388   5.505
95315W        W66931  35.386  42.092   0.837
95316W        W66932  44.425  10.898  13.830
95317W        W66933  27.559  25.734  11.128
95318W        W66934  42.454  29.750  10.944
95319W        W66935  38.329  44.939  11.787
95320W        W66936   6.009   6.225  14.514
95321W        W66937   7.309  30.638  14.349
95322W        W66938  24.200  41.893   2.926
95323W        W66939  42.549  27.154  10.642
95324W        W66940  20.212  15.935  13.321
95325W        W66941  42.297  10.633  12.500
95326W        W66942  28.556  25.199  11.565
95327W        W66943   9.221  41.781   4.560
95328W        W66944   9.201   7.956   0.089
95329W        W66945  14.146  13.191   3.915
95330W        W66946  41.658  13.776   0.458
95331W        W66947  19.885   8.248   3.767
95332W        W66948  38.978  13.616  14.206
95333W        W66949  11.707  27.186   4.749
95334W        W66950   4.764  25.762  13.119
95335W        W66951  32.731  42.778   2.210
95336W        W66952  44.031   6.338  12.011
95337W        W66953   1.918  41.015  12.397
95338W        W66954  33.070  11.749   1.997
95339W        W66955   8.453  14.878  14.877
95340W        W66956  23.331   9.716   1.047
95341W        W66957   4.017   8.910   9.944
95342W        W66958  38.279  41.928  11.626
95343W        W66959  20.140   7.866   0.910
95344W        W66960  30.799  11.697   4.298
95345W        W66961  30.734   8.291  13.627
95346W        W66962   8.176  42.054  13.896
95347W        W66963  43.968  29.861  13.398
95348W        W66964  11.413  29.643  12.015
95349W        W66965  32.360  31.945  11.978
95350W        W66966  26.706   2.421  14.063
95351W        W66967  39.209   1.639   1.369
95352W        W66968   0.191  33.030   0.737
95353W        W66969  35.937  20.234  13.619
95354W        W66970  16.660  22.410  11.460
95355W        W66971  26.886   6.832  13.957
95356W        W66972   0.177  14.238  11.756
95357W        W66973  33.850  12.601  12.435
95358W        W66974   5.232  26.926   2.372
95359W        W66975   9.053   6.846  12.441
95360W        W66976  33.193  18.874  14.263
95361W        W66977  34.637   9.849  12.043
95362W        W66978  17.224   2.447  11.711
95363W        W66979  40.756   6.718   4.540
95364W        W66980  31.531  28.642   3.151
95365W        W66981  15.158  18.725  12.987
95366W        W66982  10.376  18.778  14.812
95367W        W66983  11.572  42.177   1.214
95368W        W66984  25.643  17.577  10.439
95369W        W66985  29.937  31.359   1.017
95370W        W66986  29.977  37.494  14.084
95371W        W66987  37.388   3.998   1.788
95372W        W66988  35.609  10.304   2.179
95373W        W66989  22.501  37.027  12.578
95374W        W66990  44.973   6.246   3.352
95375W        W66991  37.839  17.238  12.934
95376W        W66992  39.291  22.246  13.909
95377W        W66993  38.030  27.209   3.373
95378W        W66994  33.561   6.714  11.477
95379W        W66995   9.610  28.700  12.400
95380W        W66996  37.794  11.511  14.827
95381W        W66997   0.527   2.369  12.461
95382W        W66998  16.373  19.069  12.778
95383W        W66999  39.645   1.358   1.469
95384W        W67000  13.355   0.711   2.408
95385W        W67001   9.705   3.905   2.684
95386W        W67002  29.461  31.916  13.881
95387W        W67003  36.733  22.698  13.660
95388W        W67004   2.717  37.465   4.117
95389W        W67005  14.299   6.757  11.300
95390W        W67006  35.481  22.700   0.092
95391W        W67007  24.085  27.186   0.262
95392W        W67008  34.303  26.321  10.994
95393W        W67009  41.992  15.301  10.725
95394W        W67010  22.651  17.557   3.720
95395W        W67011  38.157  30.305   0.477
95396W        W67012   7.896  28.067   2.938
95397W        W67013   4.466  10.384   4.557
95398W        W67014  25.787  24.080   3.906
95399W        W67015  36.422  36.048   2.208
95400W        W67016  20.750  33.414  11.109
95401W        W67017   6.464  20.016  14.739
95402W        W67018  19.258  21.740   4.502
95403W        W67019  42.486  27.587   3.233
95404W        W67020   1.704  31.734   1.267
95405W        W67021  36.507  40.223  14.904
95406W        W67022  13.147  22.422  11.551
95407W        W67023  14.978   1.719  13.719
95408W        W67024  11.308  13.380   2.351
95409W        W67025  28.160  30.628   0.929
95410W        W67026  36.550  41.349  12.341
95411W        W67027  30.368  12.548   0.903
95412W        W67028  16.642  30.002   3.079
95413W        W67029  26.948  30.446   2.007
95414W        W67030  19.998   4.434  14.902
95415W        W67031   0.976   5.192  14.387
95416W        W67032  13.334  26.366  10.207
95417W        W67033  16.711  40.321   0.303
95418W        W67034  39.055  17.743  13.400
95419W        W67035   5.964  11.669   0.485
95420W        W67036   9.158   3.447  14.260
95421W        W67037  22.771  31.987  14.387
95422W        W67038   9.541  31.220  11.448
95423W        W67039  27.162  39.248   1.127
95424W        W67040   1.362  44.426   3.420
95425W        W67041  23.265  36.951   0.440
95426W        W67042   0.527   9.168   1.350
95427W        W67043  18.274  11.167   0.336
95428W        W67044   6.169  20.116   4.697
95429W        W67045  11.451   4.924  14.567
95430W        W67046  26.590  29.118   1.693
95431W        W67047  22.704  39.607  10.731
95432W        W67048  12.933  32.121   0.620
95433W        W67049  20.618  12.078   0.711
95434W        W67050  18.274  32.441   0.407
95435W        W67051  44.517  43.286  11.567
95436W        W67052  11.760   7.862  14.279
95437W        W67053   1.289   0.333  14.113
95438W        W67054  24.723  14.229  11.542
95439W        W67055  35.585  34.859  14.523
95440W        W67056  28.257  21.171   1.817
95441W        W67057  35.626  41.467  13.814
95442W        W67058   5.586  39.829  13.997
95443W        W67059  20.484  11.193  11.304
95444W        W67060   4.651  40.486   1.301
95445W        W67061  33.696  36.906  12.501
95446W        W67062  38.943  10.731   5.040
95447W        W67063  23.330  10.391   2.162
95448W        W67064  12.760  29.367   0.757
95449W        W67065  30.267  43.958   4.349
95450W        W67066   9.949   5.342  11.487
95451W        W67067   9.718  20.741  11.126
95452W        W67068  21.604   7.939   4.585
95453W        W67069  16.151   3.854  12.861
95454W        W67070   7.648   7.566  11.224
95455W        W67071  23.051   7.082   0.304
95456W        W67072  34.510  41.581   2.754
95457W        W67073  32.595  27.224  12.337
95458W        W67074  34.829  12.450  12.712
95459W        W67075  41.895  34.898   3.243
95460W        W67076  15.055  11.193  12.870
95461W        W67077   2.991  39.532  11.145
95462W        W67078  35.974   0.439   2.641
95463W        W67079  34.675   2.764   0.589
95464W        W67080  22.078  20.222  14.013
95465W        W67081  40.679  34.800   1.160
95466W        W67082  18.252  24.041   0.463
95467W        W67083  44.859  39.442   1.848
95468W        W67084  38.264  14.048  12.907
95469W        W67085  44.760   7.303   2.340
95470W        W67086  17.281  20.184  14.710
95471W        W67087   7.740  40.380  10.966
95472W        W67088  37.991  22.526   0.237
95473W        W67089   8.282  38.340   3.808
95474W        W67090  39.987  36.947   0.474
95475W        W67091  29.981  26.656   9.942
95476W        W67092  17.220  14.618  12.900
95477W        W67093  36.971   4.744   4.575
95478W        W67094  30.051  38.591  10.922
95479W        W67095   1.622   5.885  13.623
95480W        W67096  35.297  44.371  12.016
95481W        W67097  18.702  33.156  14.440
95482W        W67098  34.707  31.086   1.366
95483W        W67099  28.098  30.306  10.314
95484W        W67100   9.273  39.333  14.747
95485W        W67101   9.880  32.825   2.741
95486W        W67102  13.132  10.663  12.416
95487W        W67103  21.161   1.732   0.217
95488W        W67104  40.853   7.942  11.676
95489W        W67105  24.181  33.442  14.770
95490W        W67106  35.313  37.935   0.892
95491W        W67107  19.707  41.499  12.597
95492W        W67108  17.982  22.051  11.087
95493W        W67109  10.506  28.282   2.284
95494W        W67110  21.657  12.181   2.817
95495W        W67111  44.245   6.505   0.788
95496W        W67112  33.972  34.470   2.478
95497W        W67113  16.003  17.160  12.884
95498W        W67114  21.614  21.294   0.467
95499W        W67115   7.926  16.286   2.011
95500W        W67116  44.458  38.081  11.007
95501W        W67117  36.812  22.755   1.922
95502W        W67118  41.076  43.041  12.420
95503W        W67119  35.452   4.204   2.263
95504W        W67120  34.761  22.988   0.129
95505W        W67121  23.212   7.358  14.399
95506W        W67122  33.407  42.133  10.923
95507W        W67123  33.884  10.846  14.384
95508W        W67124  23.588  17.637  12.956
95509W        W67125  24.451  25.079  13.671
95510W        W67126  41.367   9.386   3.973
95511W        W67127  13.339  36.249   2.146
95512W        W67128  12.592  38.466   1.950
95513W        W67129  37.049  33.574   0.711
95514W        W67130  19.833  39.901  14.827
95515W        W67131  44.038  29.531  13.010
95516W        W67132  36.140   0.949  11.469
95517W        W67133   9.864   8.660  14.126
95518W        W67134  23.657  29.874  13.088
95519W        W67135  11.554  41.978  14.850
95520W        W67136  25.100  11.439   1.558
95521W        W67137  22.474  22.700  11.929
95522W        W67138  19.742  33.642  10.651
95523W        W67139  14.607  13.256  12.925
95524W        W67140   4.704  43.198   3.713
95525W        W67141  29.237  36.838  14.374
95526W        W67142  43.484   0.431   2.915
95527W        W67143  25.303  28.543   1.908
95528W        W67144  23.621  35.837  12.656
95529W        W67145   4.978  10.046   3.107
95530W        W67146  32.112  22.677  13.324
95531W        W67147  13.365   1.698   3.201
95532W        W67148  42.416  41.405  11.615
95533W        W67149   0.706  10.256   5.243
95534W        W67150   9.742   2.912   2.482
95535W        W67151   2.232  44.115  11.104
95536W        W67152  31.993   9.988  12.720
95537W        W67153  39.636   7.185   3.046
95538W        W67154  37.848  37.455   2.692
95539W        W67155   6.565  44.683   2.285
95540W        W67156  40.561  10.334  10.440
95541W        W67157  25.553   2.542   4.302
95542W        W67158   3.333  25.934  13.806
95543W        W67159  25.897   7.416   4.390
95544W        W67160  19.409  27.936  12.089
95545W        W67161  38.867  22.563  13.023
95546W        W67162  39.534  44.895   4.696
95547W        W67163   8.584  22.169  14.337
95548W        W67164  12.320  41.716   0.809
95549W        W67165  42.362  12.103  11.541
95550W        W67166  27.499  36.556  14.666
95551W        W67167  27.615   9.862  10.838
95552W        W67168  25.150  11.862   2.862
95553W        W67169  31.646   6.324  14.167
95554W        W67170  36.501  39.060  10.706
95555W        W67171  36.522  18.067   0.994
95556W        W67172  10.713  40.607   1.620
95557W        W67173  31.557  41.142   2.351
95558W        W67174  30.650  36.974   3.810
95559W        W67175   3.464  11.336   2.199
95560W        W67176  30.036  39.397   4.464
95561W        W67177  28.164  30.587  10.756
95562W        W67178  24.810  34.500  12.522
95563W        W67179   3.368  31.036   2.665
95564W        W67180  40.734  43.269  10.826
95565W        W67181  31.466   1.510  12.052
95566W        W67182   0.692  16.227  10.987
95567W        W67183  30.409  28.716   2.180
95568W        W67184  28.606  27.457  14.950
95569W        W67185   1.205  36.840  13.525
95570W        W67186  32.911  40.388   4.469
95571W        W67187  19.442  21.262  11.186
95572W        W67188   7.342  16.084  10.727
95573W        W67189  10.037   5.935   0.774
95574W        W67190   8.676  30.602   2.309
95575W        W67191  34.516  28.151  11.506
95576W        W67192  38.311  13.551   3.565
95577W        W67193  25.765   6.951   2.666
95578W        W67194   6.657  13.571   0.456
95579W        W67195   2.696  40.473  11.992
95580W        W67196   0.824  38.926   2.352
95581W        W67197  11.528   1.857   1.454
95582W        W67198  13.393  10.837  14.603
95583W        W67199  28.509   8.190  11.578
95584W        W67200  21.803  16.329   4.277
95585W        W67201  24.673  40.504   0.339
95586W        W67202  19.407   6.890  12.130
95587W        W67203  11.649   0.251   0.316
95588W        W67204  41.843  42.436  11.441
95589W        W67205   5.832  26.600   3.359
95590W        W67206  13.991   9.338  14.376
95591W        W67207  34.506  27.687   2.669
95592W        W67208   5.532  43.934  12.840
95593W        W67209  30.519  14.789   3.187
95594W        W67210  29.307  26.120   1.456
95595W        W67211  42.805   7.767  11.626
95596W        W67212   1.807  21.722   0.869
95597W        W67213  43.776  26.133  10.335
95598W        W67214   6.692  33.071  13.385
95599W        W67215  40.801   3.442   0.847
95600W        W67216   0.230  26.176  11.868
95601W        W67217  22.156  10.792  10.835
95602W        W67218   7.427   2.918   1.536
95603W        W67219   5.320  40.412   2.679
95604W        W67220  17.262  29.680  10.564
95605W        W67221  20.207   4.968  14.970
95606W        W67222  35.335  12.527  13.949
95607W        W67223  33.742  28.098  13.932
95608W        W67224  25.035  35.847   3.348
95609W        W67225  25.744  16.927  13.662
95610W        W67226  21.042   7.530   3.808
95611W        W67227  41.348  43.919   1.750
95612W        W67228  11.318   4.772   2.723
95613W        W67229  44.754  25.384  11.967
95614W        W67230  39.561   1.397  11.955
95615W        W67231  29.434   8.745  10.406
95616W        W67232  12.169   6.374  13.037
95617W        W67233  15.118  41.203  10.733
95618W        W67234  21.691   9.887   3.184
95619W        W67235  32.096   0.303   0.335
95620W        W67236  23.178   4.400   1.309
95621W        W67237  42.326  27.966   2.409
95622W        W67238   8.926  30.659  12.537
95623W        W67239  44.853  11.172   1.435
95624W        W67240  22.981  18.555  14.827
95625W        W67241  12.503  39.127  13.549
95626W        W67242   7.259  20.577   2.654
95627W        W67243  20.733  19.296   4.718
95628W        W67244   0.220  18.712  13.896
95629W        W67245  12.122  38.950  10.943
95630W        W67246  18.779   5.982  13.964
95631W        W67247  39.084   7.337   4.136
95632W        W67248  21.019  29.582   3.682
95633W        W67249  18.549  43.919   0.794
95634W        W67250   1.707  38.451   0.253
95635W        W67251  12.680   0.196  12.807
95636W        W67252  21.973  33.091  11.515
95637W        W67253  18.708   5.152   9.807
95638W        W67254  41.816  39.576   2.328
95639W        W67255  26.971  31.449  12.400
95640W        W67256   1.043  22.574  13.871
95641W        W67257  31.087  43.821  14.344
95642W        W67258  43.296  21.129  11.597
95643W        W67259  25.023  24.593  14.387
95644W        W67260  21.917  35.975   4.966
95645W        W67261  35.372  22.017   4.124
95646W        W67262  36.826   6.033  12.871
95647W        W67263  16.488   1.237   3.651
95648W        W67264  44.778   9.385  11.644
95649W        W67265  28.603  42.363  14.293
95650W        W67266   9.423   3.616  11.203
95651W        W67267  10.760  27.097   2.657
95652W        W67268   7.391  20.361   5.055
95653W        W67269  32.899  40.384   3.573
95654W        W67270  44.231   2.495  11.960
95655W        W67271  18.726   8.169   0.638
95656W        W67272  12.221  24.906  11.098
95657W        W67273  12.073  38.509   0.494
95658W        W67274  21.091  35.559   3.854
95659W        W67275  21.100  15.875   2.742
95660W        W67276  35.561  32.140  13.610
95661W        W67277  26.705  16.151  12.456
95662W        W67278  19.699  43.818  11.854
95663W        W67279  15.714   8.899  11.355
95664W        W67280  15.664  35.024  12.339
95665W        W67281  12.073  25.557  14.396
95666W        W67282  26.173  33.927   1.783
95667W        W67283  37.811  37.299   0.835
95668W        W67284   0.287  11.233  13.451
95669W        W67285  40.853  11.302  11.236
95670W        W67286  11.708  30.707  10.311
95671W        W67287  10.283  18.106  13.533
95672W        W67288   0.008  38.887  13.444
95673W        W67289  29.471  21.869   1.434
95674W        W67290  38.040  11.157   0.111
95675W        W67291  42.709  40.950  10.037
95676W        W67292  34.396   7.124  10.675
95677W        W67293  12.324  36.091   0.044
95678W        W67294  32.032  41.645  11.170
95679W        W67295  34.148  30.506  11.144
95680W        W67296  36.955  18.915   2.660
95681W        W67297  14.157  24.624   3.867
95682W        W67298  33.896  31.466   1.428
95683W        W67299  34.671  26.790  10.275
95684W        W67300  33.439  14.564   4.781
95685W        W67301  19.310  31.902   1.123
95686W        W67302  16.530  13.396   3.707
95687W        W67303  17.300   1.401  12.378
95688W        W67304   3.363  17.299   2.308
95689W        W67305   8.384  20.208   3.084
95690W        W67306  44.429  42.271   0.786
95691W        W67307  20.486  33.230  14.894
95692W        W67308  18.682  28.023  11.469
95693W        W67309   2.418  35.624  10.666
95694W        W67310  33.168   2.433   3.622
95695W        W67311   1.742  30.365   0.689
95696W        W67312   4.651  26.487   4.196
95697W        W67313  11.607  25.444   2.238
95698W        W67314  15.527  42.388   1.331
95699W        W67315  24.490  31.037   1.403
95700W        W67316  16.361  33.201  11.887
95701W        W67317  14.646  30.818   4.073
95702W        W67318  44.754  11.145  11.459
95703W        W67319  27.570   0.193   0.748
95704W        W67320  28.962  37.989  10.873
95705W        W67321  41.006   8.817  12.184
95706W        W67322  10.090  32.386  13.339
95707W        W67323  23.659   9.223   0.347
95708W        W67324  11.323  30.942   1.794
95709W        W67325  20.691  38.873   0.398
95710W        W67326  23.021  18.691   3.676
95711W        W67327  20.763  44.185   3.090
95712W        W67328   5.169  19.830   3.197
95713W        W67329   2.925  36.146  11.217
95714W        W67330   2.949  17.002   4.365
95715W        W67331   7.318  19.707   2.140
95716W        W67332  42.337  40.919  14.098
95717W        W67333   4.041  15.296  11.011
95718W        W67334  26.596  30.994   0.909
95719W        W67335  14.475   6.412  10.133
95720W        W67336  27.624  37.810  11.130
95721W        W67337  14.432  29.545  14.300
95722W        W67338  38.048  25.284   3.214
95723W        W67339  28.551  27.704  14.496
95724W        W67340  14.437  24.065   1.964
95725W        W67341  13.336  32.839   4.483
95726W        W67342   5.285  21.089   9.831
95727W        W67343  13.697  44.361  14.496
95728W        W67344   0.728  43.802   4.309
95729W        W67345   0.828   0.249   0.485
95730W        W67346   7.290  18.449  13.219
95731W        W67347  28.491  35.344  14.545
95732W        W67348  43.213   0.882   0.277
95733W        W67349  24.438  40.254  12.368
95734W        W67350  20.601  42.485  12.479
95735W        W67351  18.262  41.999   2.653
95736W        W67352  34.630   6.734   4.112
95737W        W67353  35.517  26.136  13.298
95738W        W67354  33.418  17.564  12.916
95739W        W67355   0.406  25.574  12.599
95740W        W67356   2.341  41.262   4.556
95741W        W67357   5.217  17.817  14.539
95742W        W67358  33.444  37.885   2.405
95743W        W67359  34.811  32.458   4.280
95744W        W67360  21.595  15.690   5.068
95745W        W67361  34.070  33.092   4.593
95746W        W67362  24.119  22.695   4.352
95747W        W67363  41.956  31.297   4.633
95748W        W67364  10.318   3.026  14.496
95749W        W67365   5.749  19.186   1.729
95750W        W67366  23.001  32.453   3.657
95751W        W67367  21.675  38.892   3.220
95752W        W67368  40.258  22.165   4.166
95753W        W67369   0.479  14.108  13.596
95754W        W67370  26.438  44.498  13.879
95755W        W67371  10.228  33.666   2.758
95756W        W67372  23.766  10.561  14.995
95757W        W67373  22.308  35.298  14.509
95758W        W67374  31.590  30.852   5.587
95759W        W67375  38.208   2.643  11.080
95760W        W67376  16.643  15.564   2.445
95761W        W67377  38.914  22.899  14.365
95762W        W67378  21.919  35.597   2.674
95763W        W67379   9.384  26.306  12.434
95764W        W67380  27.985  16.374   5.387
95765W        W67381  36.443   7.449  14.422
95766W        W67382   9.622   8.264   0.959
95767W        W67383  37.361  14.797  11.707
95768W        W67384   3.369  42.940  10.946
95769W        W67385  37.745   5.291  10.554
95770W        W67386  19.086  11.856   2.804
95771W        W67387  39.422   9.097   3.180
95772W        W67388  14.568   2.864   0.890
95773W        W67389  15.598  41.338  13.812
95774W        W67390  13.308  26.248   2.589
95775W        W67391  34.135  27.518   3.526
95776W        W67392   2.950   1.799   1.748
95777W        W67393  17.751   5.209   2.418
95778W        W67394   4.777   0.787   4.667
95779W        W67395  23.698  15.351   3.700
95780W        W67396  24.166  43.032  13.868
95781W        W67397   5.280  44.848   1.835
95782W        W67398  43.113  18.376  13.588
95783W        W67399  25.685   4.235   1.264
95784W        W67400   1.502  22.013  13.022
95785W        W67401  25.056  34.581   3.682
95786W        W67402  41.380  31.603   4.157
95787W        W67403   0.768  16.527   3.282
95788W        W67404  35.629  22.511  12.009
95789W        W67405  35.671  23.580   4.223
95790W        W67406   7.166  20.123   0.717
95791W        W67407  34.430  22.242  14.814
95792W        W67408   6.618  31.371   0.793
95793W        W67409  40.929  33.374  14.550
95794W        W67410  30.605  25.619   0.125
95795W        W67411  19.321  44.240  11.922
95796W        W67412   4.235  40.457   3.794
95797W        W67413  11.818  42.410   0.800
95798W        W67414  10.375  41.429   3.590
95799W        W67415   6.741  28.845   1.479
95800W        W67416   1.710  10.627  13.919
95801W        W67417   3.715  24.703  13.892
95802W        W67418  36.508  41.943  12.925
95803W        W67419   6.634  42.886  10.741
95804W        W67420  17.777  32.148   4.603
95805W        W67421  33.957   0.794  10.483
95806W        W67422  42.035  33.937   0.468
95807W        W67423  20.715  26.109   1.746
95808W        W67424  36.836   7.322   3.692
95809W        W67425  23.038  15.574  12.703
95810W        W67426  29.502  31.888  10.813
95811W        W67427  14.409   0.397  13.590
95812W        W67428  23.205  39.319   4.095
95813W        W67429  10.228  11.934   4.110
95814W        W67430  11.103  33.485   1.746
95815W        W67431  42.986  18.602   4.632
95816W        W67432  39.249  35.041   0.894
95817W        W67433  32.124  20.244   0.501
95818W        W67434  10.636   4.719  11.140
95819W        W67435  33.063  43.883   4.918
95820W        W67436  24.523  35.480   0.709
95821W        W67437  16.708  37.651  12.858
95822W        W67438   2.395  42.273  12.953
95823W        W67439  26.582  20.761   3.436
95824W        W67440   1.892  40.272  13.825
95825W        W67441   0.826  19.566  13.894
95826W        W67442  14.634   3.958  11.008
95827W        W67443  44.882  21.813  11.039
95828W        W67444  33.560   2.838   0.882
95829W        W67445  30.092   4.571   2.241
95830W        W67446  42.522   4.359   4.815
95831W        W67447  29.248  31.403  13.030
95832W        W67448   6.206  23.059  14.685
95833W        W67449  25.241  15.786   1.187
95834W        W67450   1.270  15.091   0.675
95835W        W67451  12.747  37.313  13.949
95836W        W67452  44.830   5.131   1.496
95837W        W67453  24.716  36.959   3.586
95838W        W67454  28.593  43.524   1.938
95839W        W67455   6.255  14.502  13.352
95840W        W67456  17.607  32.719  11.558
95841W        W67457  28.724  23.087   0.851
95842W        W67458  21.303  29.241  13.204
95843W        W67459  37.413  44.721   2.617
95844W        W67460  10.894  35.017   1.427
95845W        W67461  28.226  28.509   0.889
95846W        W67462  25.667   2.072   4.527
95847W        W67463  15.416  40.874  14.015
95848W        W67464  18.436  43.391   5.084
95849W        W67465   4.900  34.845   1.884
95850W        W67466  13.803   2.676  11.243
95851W        W67467  20.251  21.271   3.601
95852W        W67468  35.162  29.386   3.712
95853W        W67469  25.939  35.348   1.815
95854W        W67470  15.164   6.499   4.171
95855W        W67471   3.808  35.121  14.979
95856W        W67472  43.600  25.490  12.356
95857W        W67473  13.409   9.865   3.616
95858W        W67474  37.942  33.550  11.016
95859W        W67475  18.279  17.273  11.524
95860W        W67476  25.081  37.644   2.846
95861W        W67477  29.232  31.086  14.978
95862W        W67478  24.180  37.563   1.385
95863W        W67479  39.009  29.006  14.003
95864W        W67480   6.338  26.523  11.067
95865W        W67481  30.236  36.544   1.630
95866W        W67482  26.649  13.062   3.995
95867W        W67483  42.744   8.677   4.899
95868W        W67484  25.115   3.487  13.998
95869W        W67485  23.472  18.713   0.803
95870W        W67486  10.275  12.236  11.008
95871W        W67487  34.698  19.162  13.443
95872W        W67488  42.014  30.539  10.696
95873W        W67489   1.220  44.825  14.219
95874W        W67490  29.170  37.441   3.105
95875W        W67491  43.544  15.691  12.153
95876W        W67492  25.369  17.007   4.849
95877W        W67493  41.383  26.067   0.870
95878W        W67494   6.540  33.930  13.339
95879W        W67495  26.182  27.843  13.499
95880W        W67496   7.417  22.950   2.659
95881W        W67497  24.239  44.421  12.423
95882W        W67498  42.529  42.472  13.551
95883W        W67499   3.531   5.235  11.606
95884W        W67500  39.342  13.173  12.959
95885W        W67501  12.446   5.979  13.249
95886W        W67502   4.280   9.892  12.082
95887W        W67503   5.731  22.215  10.483
95888W        W67504  33.512  29.571   0.773
95889W        W67505   9.858  41.475  14.371
95890W        W67506  13.649  22.023  11.734
95891W        W67507  22.792  22.435  12.392
95892W        W67508  16.059   4.922   0.981
95893W        W67509  24.978  11.821  10.747
95894W        W67510  37.365   8.432  14.434
95895W        W67511  23.869  20.278  12.468
95896W        W67512  16.640  43.075   5.128
95897W        W67513  19.089  24.017  12.951
95898W        W67514  12.734  10.430   1.330
95899W        W67515   9.932  18.805   3.627
95900W        W67516  16.654  19.043  10.357
95901W        W67517  31.465   1.085  14.689
95902W        W67518  18.596  35.684   5.075
95903W        W67519  14.119  17.208  13.756
95904W        W67520  30.884  34.013  11.582
95905W        W67521  37.557  43.913  11.686
95906W        W67522  16.155   0.428  10.279
95907W        W67523  17.733  19.100   0.428
95908W        W67524   9.836  36.415  14.939
95909W        W67525   0.786  18.202  12.414
95910W        W67526  11.867  13.892  11.602
95911W        W67527  33.323   4.706   4.129
95912W        W67528   4.935  30.356   0.722
95913W        W67529  39.500  11.682  11.928
95914W        W67530  32.031  40.874   4.517
95915W        W67531  35.349  20.532   0.882
95916W        W67532   1.292  37.557   3.501
95917W        W67533  24.643  10.308  10.603
95918W        W67534  30.073   5.335   0.046
95919W        W67535  44.358  37.950  11.509
95920W        W67536  26.572  24.721  11.694
95921W        W67537  32.993  14.090   2.645
95922W        W67538  29.421  40.601  11.431
95923W        W67539  23.563  36.785  12.942
95924W        W67540   1.928   9.954  14.313
95925W        W67541   4.927  19.159   4.842
95926W        W67542  27.380  28.567  12.393
95927W        W67543  31.960  38.816   2.314
95928W        W67544   3.907  10.129  14.223
95929W        W67545  23.214  41.924  13.053
95930W        W67546  31.868  25.921  12.581
95931W        W67547  16.019  30.708   0.889
95932W        W67548  19.609  21.633  12.471
95933W        W67549   1.791  23.682   1.997
95934W        W67550  35.004  27.122   0.737
95935W        W67551   6.769  20.476   1.324
95936W        W67552  11.134  11.234   3.157
95937W        W67553  34.232   8.337  13.276
95938W        W67554  21.260  32.232  14.457
95939W        W67555  18.375  35.830  14.997
95940W        W67556  17.106  28.708  13.032
95941W        W67557  31.927  24.150   3.700
95942W        W67558  11.254  18.055   2.413
95943W        W67559  14.839  18.097  12.389
95944W        W67560  17.191  39.107  11.659
95945W        W67561   5.190  32.109  10.550
95946W        W67562  41.774  35.014  13.911
95947W        W67563  37.334  44.806  14.347
95948W        W67564  34.138  41.534   2.353
95949W        W67565  18.278   1.849   1.282
95950W        W67566  24.229   5.341   2.346
95951W        W67567   6.441   5.464   3.804
95952W        W67568  10.264  31.787  10.029
95953W        W67569  22.265  20.456   0.955
95954W        W67570  17.033  34.561  10.373
95955W        W67571  21.647  30.641  13.910
95956W        W67572  27.502  14.704  14.044
95957W        W67573   5.050  41.520  14.733
95958W        W67574  34.463  40.020  13.057
95959W        W67575  33.165  40.850  13.467
95960W        W67576   4.290  31.553  11.721
95961W        W67577  12.766  19.730   4.589
95962W        W67578  34.946  28.346   4.447
95963W        W67579  36.900  33.961   4.224
95964W        W67580   5.376  35.345  12.511
95965W        W67581  33.412  10.749   2.395
95966W        W67582  16.169  28.583   0.919
95967W        W67583  12.550  34.408   3.218
95968W        W67584   0.847  23.535  13.273
95969W        W67585  40.160  21.262   2.842
95970W        W67586   3.765   5.739   3.289
95971W        W67587  35.410  35.849   4.905
95972W        W67588  35.524  38.073   2.667
95973W        W67589  17.068  12.437  12.866
95974W        W67590  27.424  10.361  12.601
95975W        W67591  11.651   7.889  10.648
95976W        W67592   4.017  40.595  14.914
95977W        W67593   5.378  31.205  13.409
95978W        W67594  34.708  24.976   4.310
95979W        W67595  33.324  22.058   4.549
95980W        W67596   0.800   4.511   0.940
95981W        W67597  28.605   4.207   4.610
95982W        W67598  32.580  30.930  11.691
95983W        W67599  13.244   4.379  12.996
95984W        W67600  44.507   9.136   0.502
95985W        W67601   8.214  10.836  12.877
95986W        W67602  11.312  17.138  13.254
95987W        W67603  26.464   8.820   0.777
95988W        W67604  10.196   4.020  14.313
95989W        W67605  11.649   7.482  12.687
95990W        W67606  11.335  33.007   2.698
95991W        W67607   2.050   7.335  14.409
95992W        W67608  26.179  25.807   1.568
95993W        W67609  27.134  16.570   1.725
95994W        W67610  16.068  29.987  14.474
95995W        W67611  27.519  44.579   3.665
95996W        W67612  26.705  37.543  10.684
95997W        W67613  28.897  18.774   4.541
95998W        W67614  43.350  18.457  14.051
95999W        W67615  32.719  24.438  12.600
96000W        W67616  15.325  36.430  10.819
96001W        W67617   2.462  31.922  14.498
96002W        W67618   8.578  18.152   2.266
96003W        W67619  35.424   3.333   4.287
96004W        W67620  42.849  30.933   4.619
96005W        W67621  41.241  27.562   2.694
96006W        W67622   2.963  34.284  10.648
96007W        W67623  32.537   4.530  13.691
96008W        W67624  20.143  13.737   3.686
96009W        W67625   7.665  32.498   0.008
96010W        W67626  10.353  25.190  12.476
96011W        W67627  34.369  38.884   0.678
96012W        W67628  11.795  42.838  10.978
96013W        W67629  40.410  15.192  12.903
96014W        W67630  42.600   8.302  12.337
96015W        W67631   1.253   9.206  12.595
96016W        W67632  20.176  33.584   0.593
96017W        W67633  24.552  33.576   0.133
96018W        W67634  33.514  13.206  13.727
96019W        W67635  15.284  21.530   1.797
96020W        W67636   8.577  32.769  13.912
96021W        W67637  43.592   8.718  12.952
96022W        W67638  10.314   9.811  14.650
96023W        W67639   7.240  17.078  13.465
96024W        W67640   9.210  19.530  14.853
96025W        W67641   9.631  43.417  13.895
96026W        W67642  13.374  31.295   4.481
96027W        W67643  25.491  43.526   2.217
96028W        W67644  40.887  38.749  12.011
96029W        W67645  14.557  16.631  12.348
96030W        W67646  12.375  43.465   2.343
96031W        W67647  19.227   3.478  13.502
96032W        W67648  31.018  36.608   4.795
96033W        W67649  43.719   8.719   1.437
96034W        W67650   8.383  18.460  11.452
96035W        W67651  41.559  30.229  12.604
96036W        W67652  23.136  41.897  10.509
96037W        W67653  22.593   7.098   4.117
96038W        W67654  16.739   4.900  10.905
96039W        W67655   9.616  18.800  13.464
96040W        W67656  40.835  25.052  13.319
96041W        W67657  30.028  42.813  10.353
96042W        W67658  41.292  30.981  11.543
96043W        W67659  30.436  24.064   1.978
96044W        W67660  41.941   9.236   4.152
96045W        W67661  28.607  26.507   3.417
96046W        W67662  33.557   9.695  10.724
96047W        W67663  17.344   2.908  13.893
96048W        W67664   1.004   1.647   3.309
96049W        W67665  25.259  10.590  10.648
96050W        W67666  14.732  27.688   4.329
96051W        W67667  37.033  20.997  11.102
96052W        W67668  43.004  36.893   2.630
96053W        W67669  13.743  37.787   4.630
96054W        W67670  28.982  35.844   3.650
96055W        W67671   4.395  21.986   5.071
96056W        W67672  25.245  35.888  13.882
96057W        W67673  13.918  32.493  11.519
96058W        W67674  34.420  26.579   4.770
96059W        W67675   2.885  14.180   0.947
96060W        W67676   4.861  41.303  12.572
96061W        W67677   7.702  10.841  12.316
96062W        W67678  31.848  23.944  10.945
96063W        W67679  10.794  43.043  14.538
96064W        W67680  44.556  32.425  12.587
96065W        W67681   7.392   4.524  11.584
96066W        W67682  13.607   6.203  13.946
96067W        W67683  33.317  25.547  11.926
96068W        W67684  21.675  36.374   2.277
96069W        W67685   2.892   8.901   2.698
96070W        W67686  11.631  34.483   1.308
96071W        W67687  30.815  41.429   2.746
96072W        W67688  12.239  12.355   0.717
96073W        W67689  14.920  23.258  12.141
96074W        W67690  35.602  37.314  12.590
96075W        W67691  14.369  33.140  13.488
96076W        W67692  34.605   0.290   1.210
96077W        W67693  41.953  30.497   2.236
96078W        W67694  32.385  43.017   4.572
96079W        W67695  12.103  24.022  14.281
96080W        W67696  11.286  18.219  13.492
96081W        W67697  12.263  40.967   1.999
96082W        W67698  13.076  32.522  13.447
96083W        W67699   1.254  17.672  13.717
96084W        W67700  13.598  42.810   0.382
96085W        W67701   9.773  29.393  12.954
96086W        W67702   4.279  41.557  14.430
96087W        W67703  37.898  39.199   5.039
96088W        W67704  26.944  31.038   1.316
96089W        W67705  43.142   3.820  14.319
96090W        W67706  19.723  19.022   0.034
96091W        W67707  34.607  37.081  12.630
96092W        W67708   2.416  11.131  13.934
96093W        W67709  21.101  26.648  11.127
96094W        W67710  21.644  14.776   0.445
96095W        W67711  37.262  35.340   3.876
96096W        W67712  12.325  20.712   0.964
96097W        W67713  38.769  36.072  14.365
96098W        W67714  15.508  26.083  11.098
96099W        W67715  34.135  19.365  14.987
96100W        W67716   0.496  14.552  14.461
96101W        W67717  18.023   4.940  12.137
96102W        W67718   1.404  34.296  14.028
96103W        W67719  10.155  24.732  11.259
96104W        W67720  37.644   8.726  14.805
96105W        W67721  43.265  20.302   1.808
96106W        W67722  25.580  12.305   1.335
96107W        W67723   9.529  19.604  10.967
96108W        W67724   6.608   8.570  14.881
96109W        W67725  15.174  25.213  11.150
96110W        W67726  32.646  38.803   1.042
96111W        W67727   5.161  30.133  12.529
96112W        W67728  30.052  11.616   2.830
96113W        W67729  33.546  40.310  11.052
96114W        W67730  26.480  17.160   2.368
96115W        W67731  30.030  10.605   2.727
96116W        W67732  21.032   1.021   3.570
96117W        W67733   5.427  29.590   2.664
96118W        W67734   6.093   0.952  13.543
96119W        W67735  25.594  10.647   3.149
96120W        W67736   6.939   0.707  13.876
96121W        W67737  16.487  18.707  14.466
96122W        W67738  39.337  35.522  14.389
96123W        W67739  43.446  14.337   0.296
96124W        W67740  14.553  28.945  13.876
96125W        W67741  42.093  22.580   4.843
96126W        W67742   7.534  31.183   0.582
96127W        W67743   4.357  20.849  10.956
96128W        W67744  33.006  20.769   1.377
96129W        W67745  26.642  20.247   3.172
96130W        W67746  37.500  28.107   1.861
96131W        W67747  26.015  27.681   0.936
96132W        W67748  18.474  39.585  12.062
96133W        W67749   9.510  23.752   1.542
96134W        W67750  27.398  15.870  11.436
96135W        W67751  24.289  18.518  11.521
96136W        W67752  35.329  11.296  10.745
96137W        W67753  32.500   1.515   9.804
96138W        W67754  22.260  12.908  11.129
96139W        W67755   3.901  32.601  10.911
96140W        W67756  43.502  21.451   5.046
96141W        W67757  24.109   4.055   3.649
96142W        W67758   9.084   1.705   0.876
96143W        W67759  10.027   8.358  12.861
96144W        W67760   0.749  26.840   2.750
96145W        W67761   0.942  39.285  10.583
96146W        W67762  28.393  33.152   4.871
96147W        W67763  41.994  27.697  14.258
96148W        W67764   3.130   6.482   1.951
96149W        W67765  23.488  27.614   3.950
96150W        W67766  44.737  33.991  12.034
96151W        W67767  39.127  21.813  11.947
96152W        W67768  13.718   0.519   2.753
96153W        W67769   8.886  22.341   3.660
96154W        W67770  17.569  12.109   1.959
96155W        W67771  44.924   8.691   3.699
96156W        W67772  28.647  30.563  14.030
96157W        W67773  16.807  16.806   4.497
96158W        W67774   0.642  28.064  11.487
96159W        W67775   6.114  17.404   3.313
96160W        W67776   0.299  21.668  11.338
96161W        W67777  12.186  32.120  12.001
96162W        W67778  39.882  36.990  14.167
96163W        W67779   9.619  33.366  12.137
96164W        W67780  20.978  27.473   1.305
96165W        W67781  36.445  25.373   4.234
96166W        W67782  38.283   4.779  14.800
96167W        W67783  32.119   3.578  13.869
96168W        W67784  22.113  39.601  12.937
96169W        W67785  40.313  28.103   4.551
96170W        W67786   0.777   5.902   1.824
96171W        W67787  22.306  15.344   3.687
96172W        W67788  27.795   8.906  10.714
96173W        W67789  21.073  12.527   3.668
96174W        W67790  33.518  30.434   3.164
96175W        W67791  37.866   8.516  12.395
96176W        W67792  29.201   2.870  14.808
96177W        W67793  29.596  12.646  13.409
96178W        W67794  16.013  22.087   0.500
96179W        W67795  22.032  25.781  10.582
96180W        W67796   3.717   6.704  13.098
96181W        W67797   2.320   3.760   4.181
96182W        W67798  32.623  14.904   1.981
96183W        W67799  42.894  40.455  13.178
96184W        W67800  35.509  30.998   4.628
96185W        W67801  44.034  26.289   1.613
96186W        W67802  34.639   0.943   2.609
96187W        W67803  24.459  10.951   0.420
96188W        W67804   7.634  35.997  12.904
96189W        W67805   5.115  15.059  11.990
96190W        W67806  21.097  37.089  10.777
96191W        W67807  14.899   6.098  10.227
96192W        W67808  30.469  18.197  13.121
96193W        W67809  27.192   5.941   4.660
96194W        W67810   1.875  37.249   3.709
96195W        W67811  14.745  34.305   1.232
96196W        W67812  37.129   2.307   0.797
96197W        W67813  36.888  21.259   0.341
96198W        W67814  15.718  12.027  12.171
96199W        W67815  14.175   4.926   2.458
96200W        W67816   7.160  19.673   4.311
96201W        W67817  44.657  19.110   1.809
96202W        W67818  16.879   9.568  14.712
96203W        W67819  28.032  21.438   3.141
96204W        W67820   8.577   9.103  14.593
96205W        W67821  12.164  11.289  11.135
96206W        W67822  21.514  39.031  12.372
96207W        W67823  40.316  40.881   1.948
96208W        W67824  10.872   6.878   4.201
96209W        W67825  25.637  25.022  14.494
96210W        W67826  10.655  41.559   2.404
96211W        W67827  12.118   7.304  12.079
96212W        W67828   5.214  20.195  12.490
96213W        W67829  37.484  10.392  11.135
96214W        W67830  14.169  19.196  10.908
96215W        W67831   8.392  15.083  13.655
96216W        W67832   0.037  41.830   2.232
96217W        W67833  40.565  31.150   3.763
96218W        W67834   9.162  26.632   3.507
96219W        W67835  10.857  40.416   2.707
96220W        W67836  20.629  34.637   0.124
96221W        W67837  19.191  10.418  10.796
96222W        W67838  37.376  18.597  12.940
96223W        W67839  21.238  27.722  13.860
96224W        W67840  30.567  29.730  12.955
96225W        W67841  38.024  30.697   3.204
96226W        W67842  28.523   4.837  12.091
96227W        W67843  25.521   7.381  10.392
96228W        W67844  17.474  12.712  11.216
96229W        W67845   6.218  24.757   4.982
96230W        W67846  24.202  26.029  12.358
96231W        W67847  34.049   5.409   1.194
96232W        W67848  37.724   9.241   0.399
96233W        W67849   1.314  28.417  13.593
96234W        W67850   4.665  31.660   1.346
96235W        W67851   1.458   3.195   1.726
96236W        W67852  26.989  35.914  11.925
96237W        W67853  19.138  38.675  13.841
96238W        W67854  13.128  27.133   2.751
96239W        W67855   8.112   3.701  10.589
96240W        W67856  23.788  23.829  14.303
96241W        W67857  26.354  12.649  13.278
96242W        W67858  17.109  17.173   4.184
96243W        W67859  33.654  17.235  13.324
96244W        W67860  33.153  25.043   3.299
96245W        W67861  25.970  39.338  12.880
96246W        W67862  11.288  27.607   1.404
96247W        W67863  12.720  24.511   1.389
96248W        W67864  15.691  16.310   9.796
96249W        W67865  29.031  26.478  10.953
96250W        W67866  36.756   1.809   4.666
96251W        W67867  42.025  23.225   2.788
96252W        W67868  29.467  17.189   0.147
96253W        W67869  10.621   8.725   2.782
96254W        W67870  15.252  32.336  11.951
96255W        W67871  15.638  10.703  14.979
96256W        W67872  44.401   4.961  13.925
96257W        W67873  21.331  11.681  11.995
96258W        W67874   9.141   9.122   3.437
96259W        W67875  26.149  12.705   1.002
96260W        W67876   2.334  11.789  14.494
96261W        W67877  26.523   1.346  10.964
96262W        W67878  13.213  29.156   0.934
96263W        W67879  25.595  29.645   3.329
96264W        W67880  21.710  43.404  14.763
96265W        W67881  22.779  16.800  12.357
96266W        W67882   4.870  30.613  11.542
96267W        W67883  34.914  29.267   0.527
96268W        W67884   8.418  12.267  11.453
96269W        W67885  37.893  23.623   2.633
96270W        W67886  27.403  36.312   1.404
96271W        W67887  27.819  44.327   4.905
96272W        W67888  20.543  35.670   4.125
96273W        W67889   9.165  26.942  11.974
96274W        W67890   0.531  18.791   1.850
96275W        W67891  24.582   8.808   4.636
96276W        W67892   6.679  20.303   4.639
96277W        W67893   7.023  40.938   4.912
96278W        W67894  19.993  20.096   3.885
96279W        W67895  16.797  18.701  13.015
96280W        W67896  43.283  43.038   4.601
96281W        W67897  28.051   2.407   4.973
96282W        W67898  33.907  39.727   3.833
96283W        W67899  37.841  44.233   4.735
96284W        W67900   6.410  27.220  14.886
96285W        W67901  38.407  40.446  14.660
96286W        W67902   3.995  24.075  11.100
96287W        W67903  31.832  14.812  12.040
96288W        W67904  13.284  31.462  11.131
96289W        W67905  13.385  42.240  14.451
96290W        W67906   3.030  22.603  14.863
96291W        W67907  36.040  42.005   4.179
96292W        W67908  24.579   1.047   1.719
96293W        W67909  41.463  32.643   3.557
96294W        W67910  16.839  24.245  14.915
96295W        W67911  17.582  22.661  10.257
96296W        W67912  38.777  42.996  12.000
96297W        W67913  24.589  29.420   2.263
96298W        W67914  38.078  40.192   2.772
96299W        W67915  41.779  17.017   0.800
96300W        W67916  31.361   9.373   1.806
96301W        W67917  27.729  28.952   4.875
96302W        W67918  13.392   0.440  14.655
96303W        W67919  40.936  22.173  11.609
96304W        W67920  17.125  17.149   9.862
96305W        W67921  36.452  35.557   3.603
96306W        W67922   2.856   8.983   1.696
96307W        W67923  41.306  40.740   0.581
96308W        W67924  22.233  17.822  13.029
96309W        W67925  23.757  16.638  13.501
96310W        W67926  27.040  12.537  14.498
96311W        W67927  23.516  29.463   2.095
96312W        W67928  37.427   0.769   1.550
96313W        W67929  23.755  37.038  13.358
96314W        W67930  42.860  13.877  10.825
96315W        W67931  42.203  24.166  13.045
96316W        W67932  26.079  35.428   0.938
96317W        W67933  11.223  21.575  11.193
96318W        W67934   2.350  39.241   1.849
96319W        W67935  40.442   1.857   3.606
96320W        W67936  20.701  28.129  11.823
96321W        W67937  43.430  20.107   3.129
96322W        W67938  39.259  30.662   1.038
96323W        W67939  14.698  33.943   2.059
96324W        W67940  41.342  32.462   1.542
96325W        W67941  27.617   0.726  10.739
96326W        W67942   4.106  36.945  13.415
96327W        W67943  42.956  33.191  11.179
96328W        W67944   7.236  37.463  13.151
96329W        W67945  26.190   4.244   1.308
96330W        W67946  36.098  13.383   1.225
96331W        W67947  23.638   2.652   3.657
96332W        W67948  23.939  15.642   0.778
96333W        W67949  42.014   8.982  12.144
96334W        W67950  15.576  12.833  12.013
96335W        W67951  20.221  35.431   1.724
96336W        W67952   0.816  12.518   1.119
96337W        W67953  43.993  13.987  13.383
96338W        W67954  39.717  24.022  10.503
96339W        W67955  19.109  14.089  11.204
96340W        W67956  11.111  23.206   1.280
96341W        W67957  23.946   8.393  11.350
96342W        W67958  34.919   5.823   0.683
96343W        W67959   4.984   7.855   0.897
96344W        W67960   2.810  36.323   3.296
96345W        W67961  36.599  21.669   0.044
96346W        W67962  13.021  21.594   1.708
96347W        W67963   7.672  13.044   0.434
96348W        W67964  43.192  17.958  12.266
96349W        W67965  21.007   4.281   2.312
96350W        W67966  24.422  17.197  12.012
96351W        W67967  12.620  12.332  14.930
96352W        W67968   7.726  41.230   1.901
96353W        W67969  35.412  15.594  13.836
96354W        W67970  20.209   9.263   0.632
96355W        W67971  17.210  37.823   2.306
96356W        W67972  38.494  31.625  11.522
96357W        W67973  26.931  10.602   1.734
96358W        W67974  28.537  22.762  13.046
96359W        W67975  18.631   5.212   0.301
96360W        W67976  11.842  14.629   4.921
96361W        W67977  12.175  26.236  13.960
96362W        W67978  24.327  15.974   0.721
96363W        W67979  19.822  17.336   5.001
96364W        W67980   4.278   2.723   4.100
96365W        W67981   0.851   0.426  10.707
96366W        W67982  19.520  38.909  10.196
96367W        W67983  29.992  31.015   3.275
96368W        W67984  30.450   1.527   4.966
96369W        W67985  31.526  20.221   4.491
96370W        W67986  13.741  39.629  10.464
96371W        W67987  17.245  27.555  14.615
96372W        W67988  17.754  29.652  10.744
96373W        W67989   8.676   4.482   3.253
96374W        W67990   5.976  17.057  13.563
96375W        W67991  10.296  10.017   0.133
96376W        W67992   6.790   4.977   1.810
96377W        W67993  30.966  31.618   2.775
96378W        W67994  13.818  13.255  14.032
96379W        W67995   7.855  27.424  14.283
96380W        W67996   0.613  21.180  13.327
96381W        W67997  28.959  13.854   5.307
96382W        W67998   8.199  23.072  12.397
96383W        W67999  19.773   1.328   3.311
96384W        W68000  42.193  16.534  12.048
96385W        W68001  16.174   1.841  12.439
96386W        W68002   6.806  16.591  10.728
96387W        W68003  39.002  23.173  11.905
96388W        W68004  29.109   9.879   2.019
96389W        W68005  41.376  44.841  12.609
96390W        W68006  37.917  13.677   0.035
96391W        W68007  20.880  11.891   4.559
96392W        W68008  35.557  33.829   2.767
96393W        W68009  31.120  30.147  12.659
96394W        W68010  17.733  25.779   1.446
96395W        W68011   2.952  26.746   3.013
96396W        W68012  11.780  19.315  10.967
96397W        W68013   0.716  33.343  12.462
96398W        W68014  32.449  44.772  12.030
96399W        W68015  23.726  21.627  13.117
96400W        W68016  37.115  23.668   2.299
96401W        W68017  44.333  15.866   2.154
96402W        W68018  23.389  24.409  11.099
96403W        W68019  15.373   9.207  14.777
96404W        W68020  20.262  33.109  12.901
96405W        W68021  24.477  30.768  10.473
96406W        W68022  10.161  41.007   3.841
96407W        W68023  29.429  11.942  13.094
96408W        W68024  41.432  41.603   3.802
96409W        W68025  31.505   9.218   4.121
96410W        W68026   0.687   7.288  10.582
96411W        W68027  36.623  24.900   4.091
96412W        W68028  24.797  42.252  14.800
96413W        W68029  32.057  12.395  14.863
96414W        W68030  39.494  15.687   4.177
96415W        W68031   6.680  29.708  11.094
96416W        W68032  23.570   6.264  12.537
96417W        W68033  29.195  33.915  14.955
96418W        W68034  35.710  23.414   0.458
96419W        W68035  40.060  19.792  14.279
96420W        W68036  32.337  36.399   3.716
96421W        W68037   3.285  26.388   4.672
96422W        W68038  23.545  43.932  12.584
96423W        W68039  34.508   0.446  13.917
96424W        W68040   6.995  41.482  10.662
96425W        W68041  32.253  44.889   0.081
96426W        W68042  32.054  34.273   1.793
96427W        W68043  43.208   7.296   4.102
96428W        W68044   1.294  10.161   4.900
96429W        W68045   7.925   3.542  12.500
96430W        W68046   4.400  19.557   2.800
96431W        W68047  17.363  21.096   3.649
96432W        W68048   8.208  10.669   3.746
96433W        W68049  44.295  29.701   0.465
96434W        W68050  32.331  42.336  12.963
96435W        W68051  24.416  13.335  12.893
96436W        W68052  16.601  44.771   0.198
96437W        W68053  18.639  37.673  12.109
96438W        W68054  35.397  14.767   1.946
96439W        W68055  16.693  34.104   3.660
96440W        W68056  27.913  41.932   2.352
96441W        W68057   0.501  23.007   5.053
96442W        W68058  27.683  10.153   3.112
96443W        W68059  44.100  23.677   3.194
96444W        W68060  16.554  37.527   3.521
96445W        W68061  24.518   2.637   4.199
96446W        W68062  25.674  16.654  14.488
96447W        W68063  31.426   9.862  14.955
96448W        W68064  15.793  31.904   4.902
96449W        W68065  39.266  41.263   4.532
96450W        W68066  24.081  40.351  14.994
96451W        W68067  42.805  27.458   1.296
96452W        W68068   1.319  12.378   3.330
96453W        W68069  40.969  21.524   3.774
96454W        W68070  42.009  21.116  14.794
96455W        W68071  32.641   2.220  11.392
96456W        W68072   4.833   8.867  13.573
96457W        W68073  16.048  11.975  13.945
96458W        W68074  10.613   8.904  11.233
96459W        W68075  31.419  29.000   1.381
96460W        W68076  23.667  38.584  13.422
96461W        W68077   8.359  33.287   2.153
96462W        W68078  41.989  38.965   4.019
96463W        W68079  32.664  30.587  13.067
96464W        W68080  44.593   6.511   2.426
96465W        W68081  35.123  22.731  12.916
96466W        W68082  25.377  15.446  11.429
96467W        W68083  33.868  21.493   0.883
96468W        W68084  41.751  44.268   3.335
96469W        W68085  15.076  11.611  14.846
96470W        W68086  18.035  29.138  12.390
96471W        W68087  21.779  31.569  11.523
96472W        W68088  34.992   2.898  10.664
96473W        W68089  40.804  13.157   2.472
96474W        W68090  23.587   7.072  13.587
96475W        W68091   9.764  11.830  11.741
96476W        W68092  19.577  10.712  13.353
96477W        W68093  44.499   0.149   3.715
96478W        W68094  33.660  44.319   9.852
96479W        W68095  40.552  38.994  14.501
96480W        W68096  17.661   1.857   2.180
96481W        W68097  35.465  28.110   0.830
96482W        W68098  14.866  41.036   1.994
96483W        W68099  20.935   7.903   5.137
96484W        W68100  17.596  21.239  13.082
96485W        W68101   9.694  33.342   2.038
96486W        W68102   3.762   0.422   0.630
96487W        W68103  16.384  39.352  11.582
96488W        W68104  39.026  35.686   2.168
96489W        W68105  44.175  11.841   4.177
96490W        W68106  28.194   8.698  14.929
96491W        W68107  39.765  31.292   0.076
96492W        W68108  33.581  38.883  10.809
96493W        W68109   0.775  18.303   3.635
96494W        W68110  21.882  32.138  11.527
96495W        W68111   5.133  27.091   1.274
96496W        W68112  31.731   1.245  10.347
96497W        W68113  30.534  31.086   3.206
96498W        W68114  37.976  29.951   4.335
96499W        W68115   2.884  16.140   3.684
96500W        W68116  22.109  28.310   3.642
96501W        W68117  17.318  21.556  13.435
96502W        W68118  11.854  16.328  11.542
96503W        W68119   3.270  15.252   4.695
96504W        W68120  44.472  18.225  13.913
96505W        W68121  27.743  41.546  11.999
96506W        W68122  44.751  34.129   0.878
96507W        W68123  33.935  21.329   0.347
96508W        W68124  37.322  19.944  13.924
96509W        W68125  18.155  22.942   0.578
96510W        W68126  18.410  42.579  12.022
96511W        W68127  15.541  22.604   1.335
96512W        W68128  26.656   6.381   2.577
96513W        W68129  22.941  20.230  12.208
96514W        W68130   0.351  12.372  10.496
96515W        W68131  31.575  10.333  12.729
96516W        W68132  21.599  19.329   2.949
96517W        W68133  21.445  23.474  12.183
96518W        W68134  25.950  42.357  13.605
96519W        W68135  40.654  17.513   0.135
96520W        W68136  31.141   0.393  10.642
96521W        W68137   3.232  43.597   9.859
96522W        W68138  26.572  43.312  11.165
96523W        W68139   7.719  19.790   1.789
96524W        W68140   0.502   5.556   3.118
96525W        W68141   8.806   8.818   3.171
96526W        W68142   3.236  29.169  11.348
96527W        W68143  39.395  29.034   1.911
96528W        W68144   6.940  34.322   3.354
96529W        W68145   2.351  13.315  10.756
96530W        W68146  37.250   9.611  10.005
96531W        W68147   3.334  16.719  12.471
96532W        W68148  16.376   8.140  12.558
96533W        W68149  10.194  41.898   3.746
96534W        W68150  14.848  25.713  11.588
96535W        W68151   1.035  35.107  14.797
96536W        W68152  23.257   2.956   2.778
96537W        W68153  12.333  31.983  13.559
96538W        W68154  22.484  27.139  12.041
96539W        W68155  38.889  28.675  14.411
96540W        W68156   9.833  40.941  12.901
96541W        W68157  15.727  22.263   0.903
96542W        W68158   5.260  39.010  14.318
96543W        W68159  18.594   8.940  12.523
96544W        W68160  33.324   8.082   4.107
96545W        W68161  29.501  25.177   1.857
96546W        W68162  30.899  37.036  14.814
96547W        W68163  26.220  37.808  12.688
96548W        W68164   5.959  23.960  14.828
96549W        W68165  36.452   5.962   0.407
96550W        W68166  43.350  28.930  10.877
96551W        W68167  28.622  19.708  10.506
96552W        W68168  23.828  17.873   9.642
96553W        W68169  31.360  16.676  13.613
96554W        W68170  18.844  39.505  13.754
96555W        W68171  29.924  27.951   1.382
96556W        W68172  13.850  38.601   4.268
96557W        W68173   5.692   7.322   1.000
96558W        W68174  10.832  39.521   1.376
96559W        W68175  23.178  25.703   3.289
96560W        W68176  31.485  34.887   4.169
96561W        W68177  18.887  30.998  10.788
96562W        W68178  16.631  34.556  14.748
96563W        W68179  30.698  27.479   0.401
96564W        W68180  36.909  36.148  12.937
96565W        W68181  26.471  10.872   2.396
96566W        W68182   8.640  16.097   0.719
96567W        W68183  15.009  40.778  12.525
96568W        W68184   8.864  41.280   2.262
96569W        W68185  16.957   8.609  11.810
96570W        W68186   8.839  21.516  14.237
96571W        W68187  42.826  30.178   0.618
96572W        W68188   3.307  31.702  12.010
96573W        W68189  10.782  41.293  12.130
96574W        W68190   0.015  31.564  10.398
96575W        W68191  26.564  11.758   2.254
96576W        W68192  25.560  14.640   5.483
96577W        W68193  22.486  33.972  14.552
96578W        W68194   4.414   7.945  10.421
96579W        W68195  19.873  23.706   3.591
96580W        W68196   1.685  20.652  11.073
96581W        W68197   5.962  16.751   4.230
96582W        W68198  40.526  34.321   0.417
96583W        W68199   8.166  39.889  12.149
96584W        W68200   7.301  25.779  12.831
96585W        W68201  35.625  44.169  14.028
96586W        W68202  19.184   8.588  14.323
96587W        W68203  23.963   6.353  14.549
96588W        W68204   2.718  37.291  12.537
96589W        W68205  43.561  28.412   1.953
96590W        W68206  28.542  15.778   2.308
96591W        W68207  32.883  12.247   2.740
96592W        W68208  18.151  14.089  11.173
96593W        W68209  26.890  15.793  13.313
96594W        W68210  35.595  33.443  11.209
96595W        W68211  42.580  13.623   1.348
96596W        W68212  15.661  39.323   3.624
96597W        W68213  12.250  26.214  13.067
96598W        W68214  12.816  16.250   0.865
96599W        W68215   3.608  30.415   3.288
96600W        W68216   2.292   1.529  11.502
96601W        W68217  29.911   9.649   3.380
96602W        W68218  41.448  43.495  11.471
96603W        W68219  38.789   5.127   2.694
96604W        W68220  10.771   5.107  14.000
96605W        W68221  39.237   0.253   0.096
96606W        W68222  39.328  33.079  12.161
96607W        W68223   2.037  30.849  10.757
96608W        W68224  23.156  36.068   1.383
96609W        W68225   3.998  23.220   4.577
96610W        W68226  38.992  33.389  14.020
96611W        W68227  28.260   0.698  14.810
96612W        W68228  25.481  22.457   4.596
96613W        W68229   0.992   0.096   4.487
96614W        W68230  30.999  35.425  11.894
96615W        W68231   4.416  17.669   1.426
96616W        W68232  28.691  20.510   3.392
96617W        W68233  21.266  22.799  13.283
96618W        W68234   0.793  41.511   3.820
96619W        W68235  43.468  44.803  13.039
96620W        W68236  13.039  11.158  11.542
96621W        W68237  15.228  36.697  11.656
96622W        W68238  27.943  30.581   3.743
96623W        W68239   6.754  33.626   2.770
96624W        W68240  28.573   0.957   1.839
96625W        W68241  32.965   2.205   2.173
96626W        W68242  24.330  36.531   3.449
96627W        W68243  23.570  42.407   2.938
96628W        W68244  15.720  19.023  12.112
96629W        W68245  21.000  28.951   0.855
96630W        W68246  33.985  40.036   0.726
96631W        W68247  19.700  30.684   1.772
96632W        W68248  15.791   7.863   4.298
96633W        W68249  30.698   3.392   4.560
96634W        W68250  35.870  43.487   0.005
96635W        W68251   8.133  23.043  11.900
96636W        W68252  42.921  27.463  12.558
96637W        W68253  30.955  40.732  12.173
96638W        W68254  10.306   6.078   1.609
96639W        W68255  42.616  25.653   0.956
96640W        W68256  26.201  44.854  11.216
96641W        W68257  35.054  42.505  10.882
96642W        W68258  35.086  18.712  12.675
96643W        W68259  14.779  35.080   3.060
96644W        W68260  18.843  29.459   0.374
96645W        W68261  21.620  19.287  12.464
96646W        W68262   7.894  33.913  11.160
96647W        W68263  12.585  23.473   3.811
96648W        W68264  15.714   5.141  13.239
96649W        W68265  23.062  29.578  11.932
96650W        W68266   0.923   7.818   4.666
96651W        W68267  19.833  34.680   2.320
96652W        W68268  31.541   2.790  11.442
96653W        W68269  13.002  29.176  11.600
96654W        W68270  22.998  21.536   4.688
96655W        W68271  25.769  38.312   2.822
96656W        W68272  10.250   3.877   1.452
96657W        W68273  33.077  43.943   2.121
96658W        W68274  11.841  31.057   1.892
96659W        W68275  28.669   9.875  11.388
96660W        W68276  43.250  20.054   3.602
96661W        W68277  11.402  28.055   0.641
96662W        W68278  20.982  38.993  13.425
96663W        W68279  27.062  43.718  13.846
96664W        W68280   8.873   1.680  10.827
96665W        W68281  40.791   5.472  12.483
96666W        W68282   1.378  31.149   2.831
96667W        W68283  31.452  44.442  11.105
96668W        W68284   6.086  15.136   3.216
96669W        W68285  21.075   1.943  10.994
96670W        W68286  27.517  40.770  13.369
96671W        W68287  17.159  22.730   3.599
96672W        W68288  17.326  42.488   0.854
96673W        W68289  20.321  33.541   1.604
96674W        W68290   2.365   1.185   5.044
96675W        W68291  11.879   6.823  14.584
96676W        W68292  28.460  11.243  13.781
96677W        W68293  34.421  22.591  10.548
96678W        W68294  11.688  36.437  13.084
96679W        W68295  30.395  44.445   1.785
96680W        W68296  34.642  29.606   3.836
96681W        W68297  13.071   7.178  10.775
96682W        W68298  26.270  31.609   4.489
96683W        W68299  11.664   5.702  11.439
96684W        W68300  43.776  16.491  11.016
96685W        W68301  15.232  30.253  11.502
96686W        W68302  34.094  17.569  11.182
96687W        W68303  33.821  19.797  11.164
96688W        W68304  24.150  28.424  13.505
96689W        W68305  41.714  32.441  10.589
96690W        W68306  17.375   6.199  13.071
96691W        W68307  37.350  36.462   2.230
96692W        W68308  33.380   1.334  14.305
96693W        W68309   6.568  35.903  11.508
96694W        W68310  35.587  19.101   4.100
96695W        W68311  42.347  22.636  12.058
96696W        W68312   4.288  24.503   4.202
96697W        W68313  26.373  15.170  11.536
96698W        W68314  36.354  21.082   0.821
96699W        W68315   5.752   2.041  12.526
96700W        W68316  11.297  24.496   2.846
96701W        W68317  21.743  22.833  13.011
96702W        W68318  36.059  15.035   0.817
96703W        W68319  19.673   1.758  11.576
96704W        W68320  17.835  21.707  13.085
96705W        W68321  32.420   2.617  11.631
96706W        W68322  14.850  16.059   2.713
96707W        W68323  10.907  14.071   1.299
96708W        W68324  35.591  37.895  11.368
96709W        W68325   0.861  17.150   0.718
96710W        W68326   6.685  28.348   1.619
96711W        W68327  19.111  10.735  12.624
96712W        W68328  24.229  32.387   2.746
96713W        W68329  32.186  20.239  13.031
96714W        W68330  42.774  21.090   0.254
96715W        W68331   0.752  31.031  11.901
96716W        W68332  11.276  44.209  11.072
96717W        W68333   4.216   9.237  10.739
96718W        W68334  26.581  14.376   0.849
96719W        W68335   1.995  31.987   4.598
96720W        W68336  13.846  33.100  14.372
96721W        W68337  27.134  14.013  14.746
96722W        W68338   3.884  23.988  12.861
96723W        W68339  11.682  34.480  11.193
96724W        W68340  20.407  31.418   1.679
96725W        W68341   5.331  42.275  12.907
96726W        W68342   4.634  11.407  10.256
96727W        W68343  13.684  20.982  12.952
96728W        W68344  23.090  34.041  11.831
96729W        W68345  28.580  31.641   2.354
96730W        W68346  42.824  36.466   3.349
96731W        W68347  36.773   9.292  13.446
96732W        W68348  11.355  35.127  12.925
96733W        W68349  28.175  41.563  12.872
96734W        W68350  44.061   8.291   0.488
96735W        W68351  18.824   9.143  14.062
96736W        W68352  13.626  14.335   1.875
96737W        W68353   3.280  29.439  13.897
96738W        W68354  27.636  18.834  13.804
96739W        W68355  32.469  38.402  12.352
96740W        W68356  44.819  22.579   0.244
96741W        W68357   2.380   0.541   0.076
96742W        W68358  38.454  28.450   3.056
96743W        W68359   6.778   7.637  11.310
96744W        W68360  17.112   7.179  11.520
96745W        W68361  33.096  11.905  11.437
96746W        W68362  25.493  20.508  14.910
96747W        W68363  33.128  41.697  11.082
96748W        W68364   1.913  14.310  13.654
96749W        W68365   2.322   7.781  14.304
96750W        W68366  26.645   9.291   3.812
96751W        W68367  16.127  25.631   3.915
96752W        W68368   7.911  30.455   4.645
96753W        W68369  17.262  16.158  11.251
96754W        W68370  17.306  19.687  13.817
96755W        W68371  14.786  11.377   3.600
96756W        W68372   0.911  37.167   2.780
96757W        W68373  38.490   4.010  12.077
96758W        W68374   0.505  26.315   4.898
96759W        W68375  43.503   2.483  10.726
96760W        W68376   8.610   6.866   2.312
96761W        W68377  41.471  31.414   2.440
96762W        W68378   6.337  15.132  13.943
96763W        W68379  21.102  15.885   5.021
96764W        W68380  13.958  33.160  11.084
96765W        W68381  44.019  23.948  10.713
96766W        W68382  31.119   2.861   3.168
96767W        W68383  36.302   7.411  10.096
96768W        W68384  31.815  33.505   0.233
96769W        W68385  14.339  41.988   3.348
96770W        W68386  41.715  37.300  12.827
96771W        W68387  26.210   2.922  13.869
96772W        W68388  18.225  21.718  11.425
96773W        W68389  11.148  11.241  13.860
96774W        W68390  38.988  23.623   0.476
96775W        W68391  38.231   4.385  10.708
96776W        W68392  22.921  44.308  13.934
96777W        W68393  23.924   9.817   0.377
96778W        W68394  20.748  13.606   0.819
96779W        W68395  26.236  23.473   0.651
96780W        W68396  32.057   6.334  13.837
96781W        W68397  29.168   7.458  13.047
96782W        W68398  20.470  22.093   0.937
96783W        W68399  15.153  36.491   1.274
96784W        W68400  43.925  20.131   3.023
96785W        W68401   6.227  11.242   0.290
96786W        W68402  42.973  37.698  10.025
96787W        W68403  16.872  38.120  13.077
96788W        W68404  21.411  21.595  12.015
96789W        W68405  19.137  41.010  14.035
96790W        W68406  29.587  22.684   4.114
96791W        W68407   1.667  13.358   2.413
96792W        W68408  11.402  22.221  13.115
96793W        W68409   3.331   1.009   2.700
96794W        W68410  33.691  16.781   2.346
96795W        W68411  20.751  19.538  13.485
96796W        W68412  33.982  18.813   4.592
96797W        W68413  36.553  33.028  12.488
96798W        W68414  24.523  13.812  13.320
96799W        W68415  12.544  16.682  11.531
96800W        W68416   8.389  26.060   1.998
96801W        W68417  15.888   2.927   0.572
96802W        W68418  26.598  13.507   0.483
96803W        W68419  14.725  10.091   1.780
96804W        W68420  14.436  40.901   1.165
96805W        W68421  17.166  18.151   5.350
96806W        W68422  32.076  23.780  11.368
96807W        W68423  41.001  13.498   2.917
96808W        W68424  41.417  10.918   1.217
96809W        W68425   4.457  35.524   2.255
96810W        W68426   5.999  30.488  11.003
96811W        W68427  22.149  44.756   1.794
96812W        W68428  28.847  27.005  14.957
96813W        W68429  30.052  15.630   2.216
96814W        W68430   6.255  12.625   4.915
96815W        W68431  40.638   8.616   2.263
96816W        W68432   4.255  15.123   0.254
96817W        W68433   1.133  25.155  12.430
96818W        W68434  24.909  22.575  11.128
96819W        W68435  28.571  23.625   4.391
96820W        W68436  31.615  29.563   2.651
96821W        W68437  38.891  28.709   2.159
96822W        W68438  38.987  42.237   1.691
96823W        W68439  24.311  24.062  12.389
96824W        W68440  17.195   7.949   0.209
96825W        W68441  42.733  10.912   1.864
96826W        W68442  42.755   0.338   4.837
96827W        W68443  20.029  29.237  11.984
96828W        W68444  20.838   2.497   3.691
96829W        W68445  39.478  38.444  10.906
96830W        W68446  10.780  32.649  13.840
96831W        W68447  14.410   8.374  12.538
96832W        W68448  28.299   1.968  12.589
96833W        W68449  27.664  12.280   0.482
96834W        W68450  16.449  22.232   1.886
96835W        W68451   1.388  27.984  14.788
96836W        W68452   2.394  18.618   3.602
96837W        W68453   1.979  29.628   3.726
96838W        W68454  41.750  13.212   0.746
96839W        W68455  11.051  15.852   2.711
96840W        W68456  34.430  25.370  13.414
96841W        W68457  27.043  21.691  13.456
96842W        W68458  26.050  29.923   0.359
96843W        W68459  24.597  13.498   1.710
96844W        W68460   9.383  16.925   4.636
96845W        W68461  44.717   0.734  14.723
96846W        W68462  15.390  18.431   5.240
96847W        W68463  25.147  13.058   3.746
96848W        W68464   1.050   8.814  14.325
96849W        W68465  35.419  30.143   4.439
96850W        W68466  27.614  34.575   0.814
96851W        W68467   6.677  18.065   1.336
96852W        W68468   4.790  24.385   1.267
96853W        W68469  38.092  30.812   0.465
96854W        W68470  33.146  41.552   2.000
96855W        W68471  39.709  14.726   2.254
96856W        W68472  25.388   5.725   2.138
96857W        W68473  24.219  33.943   3.604
96858W        W68474  21.544  41.743   3.641
96859W        W68475  38.149  13.735  14.578
96860W        W68476  26.681   4.243  12.002
96861W        W68477  24.080  33.405   0.299
96862W        W68478  30.857  16.121   2.158
96863W        W68479  31.464  21.643  14.488
96864W        W68480  18.432  35.424  10.491
96865W        W68481  22.354  15.268  12.179
96866W        W68482   5.266  16.801  11.697
96867W        W68483   4.229  15.508  14.293
96868W        W68484  22.952  38.923   2.813
96869W        W68485   9.681  25.562   3.357
96870W        W68486  13.758  34.535  14.759
96871W        W68487  38.939   9.226  14.389
96872W        W68488  31.101  29.026   0.464
96873W        W68489  13.382   4.931   3.724
96874W        W68490  22.814   3.415   1.736
96875W        W68491  16.793  14.133   4.270
96876W        W68492   7.109  42.028  11.551
96877W        W68493  40.570  24.753  14.401
96878W        W68494  17.318  39.798   2.562
96879W        W68495  29.557  29.966   9.900
96880W        W68496  38.419  12.623   0.889
96881W        W68497   7.198  22.735  14.458
96882W        W68498  32.822  37.432  14.965
96883W        W68499   8.357  11.721   1.374
96884W        W68500  25.940  44.591  13.995
96885W        W68501  31.423  41.130  12.976
96886W        W68502  42.596   0.841  13.849
96887W        W68503  38.434  28.052  14.832
96888W        W68504   9.252  39.359   0.736
96889W        W68505  32.825   6.200  13.150
96890W        W68506  38.172  25.575  12.131
96891W        W68507  34.177  33.597  11.051
96892W        W68508  24.003  41.364  12.124
96893W        W68509  14.256  23.762   0.702
96894W        W68510  17.118  25.439  12.808
96895W        W68511  30.651  20.028   2.899
96896W        W68512  40.602   6.476   1.832
96897W        W68513  35.372  43.412   3.763
96898W        W68514  14.856   6.161  14.467
96899W        W68515  17.766   4.677   4.171
96900W        W68516   7.949  10.515   4.965
96901W        W68517  24.494   6.483   1.721
96902W        W68518  26.267  30.945  13.754
96903W        W68519  14.103   3.840   2.375
96904W        W68520  43.905   5.498   0.852
96905W        W68521  24.096   9.283   1.296
96906W        W68522   8.641  14.667  13.496
96907W        W68523  40.496  31.513  13.800
96908W        W68524  10.504  10.014   5.174
96909W        W68525  19.686   2.807  13.462
96910W        W68526  11.744  43.973   4.777
96911W        W68527  30.480  26.194  14.489
96912W        W68528   7.910  20.646   3.867
96913W        W68529  39.431   4.366   3.361
96914W        W68530  43.330   1.948  10.732
96915W        W68531   2.700   0.820   3.157
96916W        W68532  29.195  14.076   2.856
96917W        W68533  24.731  31.616  12.304
96918W        W68534   7.291   9.881   3.184
96919W        W68535  13.275   1.861   2.711
96920W        W68536  15.920  25.923   1.377
96921W        W68537  21.805  11.911  12.018
96922W        W68538  17.000  15.797  10.555
96923W        W68539  41.926  35.555   1.796
96924W        W68540   6.415  22.999  11.835
96925W        W68541   5.184  39.167  12.835
96926W        W68542  29.542   5.771   3.224
96927W        W68543  35.960  33.483   0.533
96928W        W68544  35.474   7.079  13.262
96929W        W68545  34.427  43.733   2.313
96930W        W68546   2.315  41.082  14.261
96931W        W68547   9.338  15.617  14.543
96932W        W68548   3.224  37.931  15.000
96933W        W68549  18.698  11.381   2.305
96934W        W68550   5.125  17.205   2.525
96935W        W68551  11.895   3.003  10.716
96936W        W68552  38.189  25.658   0.409
96937W        W68553  40.470  15.653   0.863
96938W        W68554  12.771   1.735   2.471
96939W        W68555   9.854  37.474  13.951
96940W        W68556  29.040  26.417  10.434
96941W        W68557  43.160   1.053   3.303
96942W        W68558  38.814  10.655  11.034
96943W        W68559  22.622  28.515  14.410
96944W        W68560  36.166  16.233  11.742
96945W        W68561  35.482  13.464   4.554
96946W        W68562  23.477  18.201   2.306
96947W        W68563  10.846  17.501   1.288
96948W        W68564  38.696   6.115  13.837
96949W        W68565  41.749  17.612  13.042
96950W        W68566  11.658  30.164  12.882
96951W        W68567   0.538  36.968   2.136
96952W        W68568   6.447  44.318  14.765
96953W        W68569  32.331  13.675   3.290
96954W        W68570  27.820   5.715  13.932
96955W        W68571  36.009   7.320   4.513
96956W        W68572  20.301   8.095  14.953
96957W        W68573  43.638  26.446  13.374
96958W        W68574  16.798  27.943  13.874
96959W        W68575   6.702  40.348  14.363
96960W        W68576  39.024  44.033   3.098
96961W        W68577  17.370   9.320  13.912
96962W        W68578  44.027  43.436  11.603
96963W        W68579  19.571   0.518  14.837
96964W        W68580  36.613  32.077  11.147
96965W        W68581   7.241  32.037  11.981
96966W        W68582  44.981   1.032  12.544
96967W        W68583  18.029  44.917   2.295
96968W        W68584  43.334  10.858   1.185
96969W        W68585   9.267  22.732  12.996
96970W        W68586   5.067  34.548  10.643
96971W        W68587  37.440  33.087   3.232
96972W        W68588  25.568  21.070  12.391
96973W        W68589  42.520   6.415  13.829
96974W        W68590  24.822  22.787  14.902
96975W        W68591  37.372  37.289  10.889
96976W        W68592  43.684   6.898  11.956
96977W        W68593  22.201  42.373  10.507
96978W        W68594   8.308   8.693  14.384
96979W        W68595   5.479  10.376  13.416
96980W        W68596  40.443  26.486  13.380
96981W        W68597  23.051  20.248  10.818
96982W        W68598  25.906   9.294  11.055
96983W        W68599  35.833  32.083   4.104
96984W        W68600  36.503  14.820  14.867
96985W        W68601  12.254  38.324  12.521
96986W        W68602   0.199  22.048  13.123
96987W        W68603   7.192   2.912   0.513
96988W        W68604  30.066  30.846   0.931
96989W        W68605  41.503  29.503   3.285
96990W        W68606  22.460  18.612  14.844
96991W        W68607  28.007  25.713   2.693
96992W        W68608  12.731   1.342   2.827
96993W        W68609  24.647  29.364   4.869
96994W        W68610  12.611  34.169  11.531
96995W        W68611   5.276  33.222   4.058
96996W        W68612  36.525   6.885  13.499
96997W        W68613   6.505   5.767   2.664
96998W        W68614  20.699  30.866  12.159
96999W        W68615   8.504  20.058  10.697
97000W        W68616  43.545  23.710  12.893
97001W        W68617  35.317  25.648  14.242
97002W        W68618  25.061  26.562  11.401
97003W        W68619  43.573  13.139  11.124
97004W        W68620   4.442  38.021  12.431
97005W        W68621   3.738  16.648   4.669
97006W        W68622  39.938   0.050   3.331
97007W        W68623  13.116   4.248   9.895
97008W        W68624   1.483  31.347   3.306
97009W        W68625  22.988  20.002   3.223
97010W        W68626  23.062  19.517  11.690
97011W        W68627  34.498   1.346  14.731
97012W        W68628  16.961   4.495   0.990
97013W        W68629  26.448  21.404   1.260
97014W        W68630  39.484  22.836   0.684
97015W        W68631  21.768  18.082   2.254
97016W        W68632  25.002  28.750  13.011
97017W        W68633  16.849  14.252   0.840
97018W        W68634  40.128  11.979   9.936
97019W        W68635  39.883  39.585   2.805
97020W        W68636  39.029  18.733   2.211
97021W        W68637  23.484  28.983  12.900
97022W        W68638  40.050  40.919  13.901
97023W        W68639  26.503   5.259  12.864
97024W        W68640  16.819  14.148  11.427
97025W        W68641   9.479  10.152   4.495
97026W        W68642  22.567  17.824   1.253
97027W        W68643  30.013  21.749  12.062
97028W        W68644  31.104  29.933   2.181
97029W        W68645  30.503  25.495  12.441
97030W        W68646  39.372  41.313   2.686
97031W        W68647   5.847   7.093  14.630
97032W        W68648  11.098  22.169  12.490
97033W        W68649   3.933   9.629   0.325
97034W        W68650  25.996  24.151  14.310
97035W        W68651  38.528  28.920   4.818
97036W        W68652   2.227  30.853   3.836
97037W        W68653   7.567  20.130   2.694
97038W        W68654   4.035  26.830  13.746
97039W        W68655  23.522  33.066  11.482
97040W        W68656   0.609  27.996   4.625
97041W        W68657   4.845  25.714  14.015
97042W        W68658  20.996   1.957  10.474
97043W        W68659  42.514  32.988  10.954
97044W        W68660   9.414   4.901   3.427
97045W        W68661   3.830  20.872   2.677
97046W        W68662  10.905  12.688   2.443
97047W        W68663  40.864  40.273   4.706
97048W        W68664  35.572   2.961  13.851
97049W        W68665  23.223  40.283   3.257
97050W        W68666  16.159  10.315  14.407
97051W        W68667  15.304  22.446   1.781
97052W        W68668  37.825  25.589  11.751
97053W        W68669  18.654  29.422   2.266
97054W        W68670  36.032   2.941   4.777
97055W        W68671  36.111  37.355  14.571
97056W        W68672  25.314  35.396   0.313
97057W        W68673  44.860  38.527  10.630
97058W        W68674  30.338   2.408   4.621
97059W        W68675  38.794  30.053  12.925
97060W        W68676  39.251  10.766   1.806
97061W        W68677  17.207  38.074  10.693
97062W        W68678  16.606  33.395  11.102
97063W        W68679   2.229  17.509   0.209
97064W        W68680  27.393  40.519   4.699
97065W        W68681   9.777  42.925  11.985
97066W        W68682  25.679   7.253  12.889
97067W        W68683  25.454  38.704   4.220
97068W        W68684  35.656  15.760   3.744
97069W        W68685  18.581  16.582  14.394
97070W        W68686  16.679  29.633   1.188
97071W        W68687  23.156  40.872  12.426
97072W        W68688  25.274  34.523  13.499
97073W        W68689  22.248  30.158  13.380
97074W        W68690  43.114  44.884  11.949
97075W        W68691  31.395  35.682  14.123
97076W        W68692  28.663   9.816  13.102
97077W        W68693  12.327  34.601   1.823
97078W        W68694   4.334  34.438   2.483
97079W        W68695  31.015  13.373  12.058
97080W        W68696   8.991   2.557  12.558
97081W        W68697  24.716   8.108   2.859
97082W        W68698  38.768  32.477  13.420
97083W        W68699  39.095  31.004   0.622
97084W        W68700  14.397  31.465   2.195
97085W        W68701  41.244  19.285  10.644
97086W        W68702  11.366  20.784  12.955
97087W        W68703  20.838  42.027  11.679
97088W        W68704  36.338  11.277  12.963
97089W        W68705  16.683  44.779   0.683
97090W        W68706  29.751  10.062  12.064
97091W        W68707  14.043  35.534  12.043
97092W        W68708  41.817  39.824   2.814
97093W        W68709  33.605  44.248   0.443
97094W        W68710   3.669  20.632  10.947
97095W        W68711  19.748  28.789   4.234
97096W        W68712  36.494   1.537   1.426
97097W        W68713  17.308  30.650   4.575
97098W        W68714   0.040  23.633  11.538
97099W        W68715   5.220  16.610   3.723
97100W        W68716  11.382  42.335  10.514
97101W        W68717  17.111  14.593   4.253
97102W        W68718  15.537   2.241   3.774
97103W        W68719  29.496  13.047   0.657
97104W        W68720  39.476  20.042   0.088
97105W        W68721  27.502  21.204  10.670
97106W        W68722   8.892   2.891   2.728
97107W        W68723  17.765  34.983  12.441
97108W        W68724  22.275  27.519   0.972
97109W        W68725  21.180   2.496  14.468
97110W        W68726  40.791  24.033  14.061
97111W        W68727  39.012  34.625  11.455
97112W        W68728  44.349  37.618  13.989
97113W        W68729  44.206   4.688   0.538
97114W        W68730  15.297   0.809  14.069
97115W        W68731  15.784  31.064   1.186
97116W        W68732  15.627  12.626   1.710
97117W        W68733  35.215  31.178  11.514
97118W        W68734  39.804  13.141   1.750
97119W        W68735  40.560   8.798  10.886
97120W        W68736  28.871  36.895   1.837
97121W        W68737  28.595   7.354  10.745
97122W        W68738  28.547  22.540  12.584
97123W        W68739  36.368  39.288   3.235
97124W        W68740   4.864  37.435   9.836
97125W        W68741   9.906  39.787   4.129
97126W        W68742  15.817  43.764  13.891
97127W        W68743  27.236  14.510  11.205
97128W        W68744   0.329   4.429   2.627
97129W        W68745  43.171  28.894  11.597
97130W        W68746   2.874  23.281   0.951
97131W        W68747  21.101  26.483  13.377
97132W        W68748  22.445  24.011   0.015
97133W        W68749  36.805   7.931  14.986
97134W        W68750  39.548   4.890   2.472
97135W        W68751  11.321  24.118   4.796
97136W        W68752   8.459   3.872   0.865
97137W        W68753  19.043  20.667  10.480
97138W        W68754   3.430  18.395   0.929
97139W        W68755  44.867  31.824   4.612
97140W        W68756  13.613   2.471  12.018
97141W        W68757  12.850  15.266   0.991
97142W        W68758   3.551  33.430   1.505
97143W        W68759  13.250   0.498  10.656
97144W        W68760  28.587  11.591   1.360
97145W        W68761  44.301  30.828  14.973
97146W        W68762  32.974  23.584  14.519
97147W        W68763  34.956  14.541   0.411
97148W        W68764  28.659   3.167   3.906
97149W        W68765  14.042  13.236  11.560
97150W        W68766  36.795   2.988   3.729
97151W        W68767  24.481  22.017   4.410
97152W        W68768  15.223  32.231   4.512
97153W        W68769   0.052  30.026  13.855
97154W        W68770  34.595  41.713  14.465
97155W        W68771   5.397  20.683   3.651
97156W        W68772  29.046   7.393  12.536
97157W        W68773  28.421  17.362  13.502
97158W        W68774   8.861  28.045  12.534
97159W        W68775   3.293  21.725  13.949
97160W        W68776   5.299  30.359  13.904
97161W        W68777  37.572  36.438   0.314
97162W        W68778   4.810  33.585   3.238
97163W        W68779  16.085  14.883  11.485
97164W        W68780  12.978  12.286   2.729
97165W        W68781  27.545  18.572  11.969
97166W        W68782  11.345   1.967   4.831
97167W        W68783  41.385  37.269  14.865
97168W        W68784  21.714  34.167   0.378
97169W        W68785  26.587  25.981   4.512
97170W        W68786  36.635   2.818  14.020
97171W        W68787  27.739  16.042  12.374
97172W        W68788  28.008  39.028   1.298
97173W        W68789   8.982  36.029   0.876
97174W        W68790  10.139  22.082  12.886
97175W        W68791  12.152  17.996  13.548
97176W        W68792  35.152  33.965  14.239
97177W        W68793  37.533   6.003   1.910
97178W        W68794  21.172  31.755  14.319
97179W        W68795  13.144  39.939   3.145
97180W        W68796  43.241  40.430  11.389
97181W        W68797   9.129   5.127   2.174
97182W        W68798  41.262  27.578   3.638
97183W        W68799  13.249   9.362   1.853
97184W        W68800  13.458  15.940  14.782
97185W        W68801   0.346  43.479   0.797
97186W        W68802  44.744  15.583   3.834
97187W        W68803  39.033  44.199  12.027
97188W        W68804  29.102  36.395   1.050
97189W        W68805  39.874   8.582   4.477
97190W        W68806   6.671   7.099   0.740
97191W        W68807  18.779  12.461  12.465
97192W        W68808  17.774  36.365   2.200
97193W        W68809   0.930  43.201   3.576
97194W        W68810  21.201  43.896  13.050
97195W        W68811  37.205  31.521  13.906
97196W        W68812  31.452   5.751  10.870
97197W        W68813  14.153  28.005  14.929
97198W        W68814  20.558  29.926  13.374
97199W        W68815  12.441  33.050  11.121
97200W        W68816  35.016  38.397   4.331
97201W        W68817  33.976  30.398   1.487
97202W        W68818  34.062  29.402  11.480
97203W        W68819  31.971  26.872  10.698
97204W        W68820   9.727  39.879   0.805
97205W        W68821   0.322  42.744  12.510
97206W        W68822  42.322  33.511   4.182
97207W        W68823  19.461  25.980  14.914
97208W        W68824  28.281  38.617   1.152
97209W        W68825   9.461  31.503  11.023
97210W        W68826  36.032  35.127  10.636
97211W        W68827  32.222   4.136   3.617
97212W        W68828  26.034  18.335   4.715
97213W        W68829  39.963   3.312   4.603
97214W        W68830  32.888  44.891   2.103
97215W        W68831  42.271  41.927   4.323
97216W        W68832   4.578  31.443  14.149
97217W        W68833  26.070   8.853   4.363
97218W        W68834  11.613  20.584   1.309
97219W        W68835  19.638  11.897   0.428
97220W        W68836  17.895  32.528  14.011
97221W        W68837  18.459   9.086   0.144
97222W        W68838  26.663  17.956  13.283
97223W        W68839  22.883   9.114   5.005
97224W        W68840  35.868  23.657  10.959
97225W        W68841  25.934  43.568   4.174
97226W        W68842  18.838  40.561   1.920
97227W        W68843  38.898   5.833   3.129
97228W        W68844   4.391  25.112  12.578
97229W        W68845   7.499   1.903  11.134
97230W        W68846  11.895  30.600   3.122
97231W        W68847  35.522  33.048   1.244
97232W        W68848   6.707  13.822  13.208
97233W        W68849  42.457   4.265   2.962
97234W        W68850  18.026  28.488   1.978
97235W        W68851  11.333  17.890   1.913
97236W        W68852  41.522  21.267  10.867
97237W        W68853  29.513  13.732  14.953
97238W        W68854  11.567  44.239   0.263
97239W        W68855  16.338  22.635  10.221
97240W        W68856   3.220  18.855   1.823
97241W        W68857  33.678  32.172  13.363
97242W        W68858   6.077  43.058   3.674
97243W        W68859  25.260  34.079   2.189
97244W        W68860  30.546   1.393   2.383
97245W        W68861  31.725  31.894   4.877
97246W        W68862  30.034  36.386   2.098
97247W        W68863   2.549  21.267   5.136
97248W        W68864  32.056  44.675  12.360
97249W        W68865  23.663   8.330  10.685
97250W        W68866   2.456  30.569  11.652
97251W        W68867   7.454  12.253  13.886
97252W        W68868  24.214  12.832   0.353
97253W        W68869   3.241  40.732  14.301
97254W        W68870  22.711  27.507   4.530
97255W        W68871  31.722   0.339  12.984
97256W        W68872  25.621   9.765  12.426
97257W        W68873  25.293  34.865   4.098
97258W        W68874  39.968  16.775  11.721
97259W        W68875   1.684  31.935   2.614
97260W        W68876  34.543   7.770  11.235
97261W        W68877  20.327  36.864  11.134
97262W        W68878  37.907  44.732   4.537
97263W        W68879   8.136   0.434   1.719
97264W        W68880  18.590  43.961   3.996
97265W        W68881  26.203   6.363  12.835
97266W        W68882  27.922  25.368  11.197
97267W        W68883  28.879  42.327  10.988
97268W        W68884  26.640  21.721  12.099
97269W        W68885  27.111  24.915   4.071
97270W        W68886  35.596  10.431   0.759
97271W        W68887  40.450   8.829   4.107
97272W        W68888  26.534  31.646   0.247
97273W        W68889  39.375  36.543   3.170
97274W        W68890  33.348  13.077   2.399
97275W        W68891  44.818  32.379  11.037
97276W        W68892  11.135  27.080   0.832
97277W        W68893  33.908  20.980  14.312
97278W        W68894  21.235  30.925  13.971
97279W        W68895  41.513  17.201   2.248
97280W        W68896   1.294  26.999  12.553
97281W        W68897  27.575  19.321   1.778
97282W        W68898  21.034  33.746   0.842
97283W        W68899   2.616  27.977  13.376
97284W        W68900  37.099  36.636   1.199
97285W        W68901  32.062   4.928   1.438
97286W        W68902   4.202  41.025   0.735
97287W        W68903  29.414  22.763  12.683
97288W        W68904  29.576  39.817   2.344
97289W        W68905  20.226  35.876   0.410
97290W        W68906  34.497   9.136  13.432
97291W        W68907  27.127  20.001  10.793
97292W        W68908  41.080  44.262  11.934
97293W        W68909   6.145  30.565   4.153
97294W        W68910  10.735   2.732   0.530
97295W        W68911  22.068  15.039   0.291
97296W        W68912   2.234   0.319  11.512
97297W        W68913  32.894  36.661  11.984
97298W        W68914   8.647  36.356   1.531
97299W        W68915  43.378  14.598   0.741
97300W        W68916  13.205  18.553   3.447
97301W        W68917   3.579  38.461   2.421
97302W        W68918  36.993  19.103  13.209
97303W        W68919  44.741   2.317  14.805
97304W        W68920  22.539   3.545  14.655
97305W        W68921   7.893   0.069   3.320
97306W        W68922  20.589   2.350   0.513
97307W        W68923   6.686  43.338  14.328
97308W        W68924  10.889   9.218   1.401
97309W        W68925   6.079  14.304   1.201
97310W        W68926  22.907  13.259   2.738
97311W        W68927  26.819  20.505   1.234
97312W        W68928   0.492  25.203   3.674
97313W        W68929  26.979   0.903   1.228
97314W        W68930  17.789  12.397  13.465
97315W        W68931  32.141   4.961   3.227
97316W        W68932  10.332  27.049   1.937
97317W        W68933   5.023  20.221  11.985
97318W        W68934  23.443   9.106   1.912
97319W        W68935   6.223  17.149   2.686
97320W        W68936  42.469  42.729  11.910
97321W        W68937  34.443  15.120   2.160
97322W        W68938  41.298   0.564   0.077
97323W        W68939   4.557  22.352  12.911
97324W        W68940   2.828  35.724   4.129
97325W        W68941  28.390  15.778   5.043
97326W        W68942  13.197  11.413   2.708
97327W        W68943  32.873  43.274  14.355
97328W        W68944  32.418  21.709   1.981
97329W        W68945  26.581  31.693  13.781
97330W        W68946  21.781   8.741   2.680
97331W        W68947  14.997   8.407   4.187
97332W        W68948  15.823  21.045   1.425
97333W        W68949  29.167  23.982   0.077
97334W        W68950  34.007  12.795  14.926
97335W        W68951   9.917  29.151  12.478
97336W        W68952  36.461  34.877   0.267
97337W        W68953   5.813  42.504  14.906
97338W        W68954  26.013  39.439  11.161
97339W        W68955  22.616  29.401  11.245
97340W        W68956   4.183  31.857   1.812
97341W        W68957  40.334  26.433   0.319
97342W        W68958  10.169  41.558   2.228
97343W        W68959  28.148  16.253  14.351
97344W        W68960  39.525  20.802   4.195
97345W        W68961  42.694  30.534   1.411
97346W        W68962  27.417  13.763   2.920
97347W        W68963  34.564  10.694  11.424
97348W        W68964  34.823  36.803   2.675
97349W        W68965   4.302  18.159  12.962
97350W        W68966   3.031  39.161  12.191
97351W        W68967  35.353   7.597  10.705
97352W        W68968  32.853  42.331   3.967
97353W        W68969  25.061   9.641   3.806
97354W        W68970  43.832  37.389  11.139
97355W        W68971  11.545   1.779  14.381
97356W        W68972  41.337  31.728   0.365
97357W        W68973  44.459  21.202  10.807
97358W        W68974  10.731  23.525  11.451
97359W        W68975  25.713  32.950   4.256
97360W        W68976  10.290  44.378  12.458
97361W        W68977  42.711   2.156  12.502
97362W        W68978  29.640  17.594  11.573
97363W        W68979   0.273  25.070  11.151
97364W        W68980  21.668  14.122  13.843
97365W        W68981  28.878  29.185   5.104
97366W        W68982  31.977  20.572   3.845
97367W        W68983  38.927  29.514  10.198
97368W        W68984  42.581  30.447  14.601
97369W        W68985  13.070  34.832   1.949
97370W        W68986   0.197  19.160   1.696
97371W        W68987  36.906   6.297   4.542
97372W        W68988  41.491  39.854  13.978
97373W        W68989   0.777  41.043  13.476
97374W        W68990   4.772  12.187   3.931
97375W        W68991  37.614  38.684  12.584
97376W        W68992  23.811  33.887  12.989
97377W        W68993   3.757  18.323   3.679
97378W        W68994   9.395  12.616  13.017
97379W        W68995  43.267   3.751   4.352
97380W        W68996  43.944   8.893  14.286
97381W        W68997   0.181  19.972   3.162
97382W        W68998  44.502  13.927   0.267
97383W        W68999   4.706  27.171   4.524
97384W        W69000  21.051  43.397   4.196
97385W        W69001   1.998  22.970   2.717
97386W        W69002  20.370  11.873   4.690
97387W        W69003  43.508  30.446   0.924
97388W        W69004  26.133  44.844   1.350
97389W        W69005  12.916  30.942   1.810
97390W        W69006  11.594  17.124  10.120
97391W        W69007   4.766  43.833   2.422
97392W        W69008  38.610  18.207   4.285
97393W        W69009   9.823  26.728  14.417
97394W        W69010   9.132  15.870   2.641
97395W        W69011   1.182  19.227  10.663
97396W        W69012  44.061   9.935   1.846
97397W        W69013  25.101   0.960   0.496
97398W        W69014  39.627   8.017   2.754
97399W        W69015  22.860  29.943  13.468
97400W        W69016   4.616   0.723  13.005
97401W        W69017  28.654   3.459   1.155
97402W        W69018   2.294  14.661  11.661
97403W        W69019  34.903   9.727   2.351
97404W        W69020  29.188   4.043  11.162
97405W        W69021  10.453  35.418   1.856
97406W        W69022   5.764  19.824  13.970
97407W        W69023  13.227   5.809  14.885
97408W        W69024  44.786  26.829  12.529
97409W        W69025   9.920  20.771  14.062
97410W        W69026  33.178  28.601  13.470
97411W        W69027  27.174   4.687  13.333
97412W        W69028   2.778  38.961   0.961
97413W        W69029   1.367  32.953  12.021
97414W        W69030  26.825  14.087  12.806
97415W        W69031  41.845  20.540  13.635
97416W        W69032   5.352   7.314   3.169
97417W        W69033  27.025  10.233   0.769
97418W        W69034  42.335  30.857  14.880
97419W        W69035  29.139  43.214  12.898
97420W        W69036  28.001   6.795   0.469
97421W        W69037  27.970  29.594   0.044
97422W        W69038  37.567  33.511   1.292
97423W        W69039   1.966   4.368  10.306
97424W        W69040  38.675  15.918  13.498
97425W        W69041  18.182  10.385  14.828
97426W        W69042  34.043  36.640   2.224
97427W        W69043  37.453  42.947  11.620
97428W        W69044  40.720  34.948   4.599
97429W        W69045  13.844   9.280  14.871
97430W        W69046   8.063  28.193  12.453
97431W        W69047  41.747  35.608   1.269
97432W        W69048  24.464  12.093  12.421
97433W        W69049  29.109  29.891   1.759
97434W        W69050  19.421  31.198  13.992
97435W        W69051  22.222  33.554  11.606
97436W        W69052   3.236  42.771   2.204
97437W        W69053  42.403  38.810  12.488
97438W        W69054  12.195  19.003   2.299
97439W        W69055  39.574  19.327   2.727
97440W        W69056  14.160   0.456  10.635
97441W        W69057  32.501  11.471  11.656
97442W        W69058  10.878  18.319   2.652
97443W        W69059   7.302  20.727   3.176
97444W        W69060  15.789  27.441  11.631
97445W        W69061   1.369   0.732   1.820
97446W        W69062  35.404  13.753   3.712
97447W        W69063  39.248  27.587  10.664
97448W        W69064  29.316  37.230   1.334
97449W        W69065  24.423   7.797   3.727
97450W        W69066  20.186  10.381   3.755
97451W        W69067   7.355  23.956   2.751
97452W        W69068   9.554  22.002  14.391
97453W        W69069   9.781   8.261   2.385
97454W        W69070  10.170  16.654   4.556
97455W        W69071  41.070  32.510  12.201
97456W        W69072  21.269  40.400  12.397
97457W        W69073   0.409  17.231   4.397
97458W        W69074  16.759  32.013   4.765
97459W        W69075  10.421   7.448  11.173
97460W        W69076  14.692   6.327  14.000
97461W        W69077  25.793  24.436  12.087
97462W        W69078  24.139  41.473   1.120
97463W        W69079  10.694   4.756   3.268
97464W        W69080  22.231  14.613   1.228
97465W        W69081   2.958   4.500   4.094
97466W        W69082  31.483  36.933  10.609
97467W        W69083   7.723  38.820   3.593
97468W        W69084  29.449  19.647   4.044
97469W        W69085  33.075  37.071   0.749
97470W        W69086  14.845  17.539  11.151
97471W        W69087  15.384  35.804  12.158
97472W        W69088  11.442  21.622   3.797
97473W        W69089  23.917  14.105  11.065
97474W        W69090  24.018  33.510   2.389
97475W        W69091  18.083  41.091   0.538
97476W        W69092  34.360   7.644  12.045
97477W        W69093  32.224  38.912   4.338
97478W        W69094  37.092  11.153  10.245
97479W        W69095  31.956  32.516  11.256
97480W        W69096  26.467  16.610   4.154
97481W        W69097   2.328   7.723   4.988
97482W        W69098  35.439   5.135  10.603
97483W        W69099  13.351  29.047   5.159
97484W        W69100  27.215  34.186  12.818
97485W        W69101  28.392  34.140   4.589
97486W        W69102   3.405  25.616   2.278
97487W        W69103  10.580  38.055   2.390
97488W        W69104  17.652  26.113   2.329
97489W        W69105   0.263  39.868   1.253
97490W        W69106  31.046   9.881  12.965
97491W        W69107  34.083  14.870  13.917
97492W        W69108  17.017   0.718  14.375
97493W        W69109   2.499  23.725  14.434
97494W        W69110  19.046  43.688   0.230
97495W        W69111  35.935  36.884   3.932
97496W        W69112  21.505  43.075   4.388
97497W        W69113  44.879   5.433  12.882
97498W        W69114  26.787   1.071   4.023
97499W        W69115  10.371  32.462  14.762
97500W        W69116  29.444  16.528  12.332
97501W        W69117  36.598  32.675   1.904
97502W        W69118  12.115  26.000   3.636
97503W        W69119  10.393   6.360  14.528
97504W        W69120  31.013  24.959  14.092
97505W        W69121  12.688  20.648   0.267
97506W        W69122  24.662  37.517   0.782
97507W        W69123  40.551   4.789   2.818
97508W        W69124  34.950  31.155   0.890
97509W        W69125  14.848  15.464   2.162
97510W        W69126  13.832  34.518   1.766
97511W        W69127  16.175  28.339  12.905
97512W        W69128  37.315  19.254  14.491
97513W        W69129  32.386  15.683  13.390
97514W        W69130   6.898  41.346  13.094
97515W        W69131   1.214  33.183   3.627
97516W        W69132  29.217  18.397   0.841
97517W        W69133  43.203  20.091   2.276
97518W        W69134  36.628   7.797   3.300
97519W        W69135   8.330   8.758  13.378
97520W        W69136   2.904  20.225   4.761
97521W        W69137  20.179  24.353  12.379
97522W        W69138  32.420  18.297  14.848
97523W        W69139  15.989  19.769   0.899
97524W        W69140  26.783  28.270   0.171
97525W        W69141  22.716  44.072  12.328
97526W        W69142   1.826  14.427  10.485
97527W        W69143  39.142  43.038   2.199
97528W        W69144   9.853  38.131  10.610
97529W        W69145  10.125  33.923  10.711
97530W        W69146  16.116  17.199  11.994
97531W        W69147  28.628  14.309   1.303
97532W        W69148   1.846  16.196   2.122
97533W        W69149  23.102  37.598  11.104
97534W        W69150  23.770  21.178  12.870
97535W        W69151   7.227  35.422  11.201
97536W        W69152  17.047  24.499   2.755
97537W        W69153  41.771   0.954   5.085
97538W        W69154  16.030  37.506  10.583
97539W        W69155  42.990   6.455  14.046
97540W        W69156  26.061  42.364  14.564
97541W        W69157   4.803  33.576   2.339
97542W        W69158  18.085  31.977   3.458
97543W        W69159  23.538   9.304   2.849
97544W        W69160  31.578  28.677  11.981
97545W        W69161  27.902  27.660   2.736
97546W        W69162  15.822   3.827   4.071
97547W        W69163  10.662  13.407  14.934
97548W        W69164  40.912  38.488   1.900
97549W        W69165   5.448  25.453   3.365
97550W        W69166  26.512  23.787  12.515
97551W        W69167  32.596  16.756  11.103
97552W        W69168   0.748  18.729  12.151
97553W        W69169  27.014   0.403   0.410
97554W        W69170  39.131  26.418  12.103
97555W        W69171  37.317  42.239   3.330
97556W        W69172  33.610  21.772   1.745
97557W        W69173  25.012  12.138  12.994
97558W        W69174  21.345   6.701  10.395
97559W        W69175  40.781  26.635  14.362
97560W        W69176  24.452  39.157  14.760
97561W        W69177  37.874  35.694   5.078
97562W        W69178   2.974  26.358   2.168
97563W        W69179   5.186  29.669  12.824
97564W        W69180  37.619   3.968  11.928
97565W        W69181  36.104   5.683   0.119
97566W        W69182   0.940  20.253  12.089
97567W        W69183   9.396   2.745   2.880
97568W        W69184  40.270  36.169  10.167
97569W        W69185  43.787  33.563  10.675
97570W        W69186  12.621  20.797   2.610
97571W        W69187   2.342  33.388   2.289
97572W        W69188  33.139  13.185  14.965
97573W        W69189  39.794  23.161  10.795
97574W        W69190  34.950   2.140  11.988
97575W        W69191  28.461  28.981   3.272
97576W        W69192  29.906   7.155   1.792
97577W        W69193  19.715  23.243   1.209
97578W        W69194  33.911  22.506  12.544
97579W        W69195   9.005  17.933   4.997
97580W        W69196  11.569  13.804  12.483
97581W        W69197  12.110  14.834  14.372
97582W        W69198   9.471   9.405  13.016
97583W        W69199  29.240  28.581  11.167
97584W        W69200  11.950   0.454   3.394
97585W        W69201   3.906  30.494   3.707
97586W        W69202  21.436  18.985   3.357
97587W        W69203  17.409   3.390  11.493
97588W        W69204  22.698   3.788   4.445
97589W        W69205  12.253  36.304  10.961
97590W        W69206   9.948  42.484   4.657
97591W        W69207   2.938  24.245   2.116
97592W        W69208  15.388   7.284  12.412
97593W        W69209  41.541   6.627   3.749
97594W        W69210  37.721  41.133  11.796
97595W        W69211  37.307   7.795  11.555
97596W        W69212  18.135  39.132  14.043
97597W        W69213  18.921   3.916   2.516
97598W        W69214  29.446   0.928  11.949
97599W        W69215  19.927   6.183  11.103
97600W        W69216  18.598  37.959  11.657
97601W        W69217  21.688  28.922  13.279
97602W        W69218  17.824   5.434   0.874
97603W        W69219  21.741  16.107  11.966
97604W        W69220  14.786  41.255   3.829
97605W        W69221  20.307  26.308   0.959
97606W        W69222  37.917  28.705   3.049
97607W        W69223   1.281  35.991  14.726
97608W        W69224  41.953  26.975   2.817
97609W        W69225  14.621  32.540   2.815
97610W        W69226  38.925  11.195  14.252
97611W        W69227  27.449  31.939   0.819
97612W        W69228  12.628  35.066  10.986
97613W        W69229   3.972   3.518  12.493
97614W        W69230   1.738  33.573  12.538
97615W        W69231  39.260   0.463  11.233
97616W        W69232  38.355  38.665   3.795
97617W        W69233   6.751  18.972   2.759
97618W        W69234  44.096  17.176   5.013
97619W        W69235   8.846  20.159  13.943
97620W        W69236   0.493   4.729  14.460
97621W        W69237  30.391  27.659   9.780
97622W        W69238  11.283  21.800  12.813
97623W        W69239  22.804  43.918   2.323
97624W        W69240  39.361   8.157   3.316
97625W        W69241  42.107  21.708   2.940
97626W        W69242  32.949  16.351  13.809
97627W        W69243  32.420  42.410   1.279
97628W        W69244  26.569  19.541  14.933
97629W        W69245   6.844  33.289  10.796
97630W        W69246  37.897   6.715  10.748
97631W        W69247  27.729   7.710  12.127
97632W        W69248  31.161  44.318  12.023
97633W        W69249   1.980  44.573  11.097
97634W        W69250  10.216   4.853   0.219
97635W        W69251  35.362  41.286   0.408
97636W        W69252   1.787  39.850  11.540
97637W        W69253  41.258  39.389   0.949
97638W        W69254  26.551   5.205   2.627
97639W        W69255  39.077  37.315   3.753
97640W        W69256  34.431  27.135  14.271
97641W        W69257  25.712  13.943   3.434
97642W        W69258  42.058  12.809   0.832
97643W        W69259  29.164   6.334  14.688
97644W        W69260  29.867  13.716  14.438
97645W        W69261  14.149  18.095  14.237
97646W        W69262   4.642  37.084  12.580
97647W        W69263   0.685  14.313  10.211
97648W        W69264  16.742  37.427   4.515
97649W        W69265  13.727   3.871  11.731
97650W        W69266  35.658  15.646  10.824
97651W        W69267  17.202  24.594   1.688
97652W        W69268  34.336  22.032   4.527
97653W        W69269  43.082  41.872   4.065
97654W        W69270  28.030  28.679   1.353
97655W        W69271  17.806  33.375   2.279
97656W        W69272  17.753  34.479  14.232
97657W        W69273  14.757  31.304   4.141
97658W        W69274  19.758  39.868  12.032
97659W        W69275  44.710  39.006   1.293
97660W        W69276  37.547  43.880   4.089
97661W        W69277  29.059  33.281   0.874
97662W        W69278  18.213  20.121  10.736
97663W        W69279  17.820  35.347  11.558
97664W        W69280  22.758  21.950  11.528
97665W        W69281  13.187   5.410   4.678
97666W        W69282   3.471   1.989   4.516
97667W        W69283  40.313  31.808   4.308
97668W        W69284  40.247   4.678  14.882
97669W        W69285  40.119  30.970   0.265
97670W        W69286  19.797   7.748   3.679
97671W        W69287  43.521  24.021  13.440
97672W        W69288  39.803   2.729   4.625
97673W        W69289  41.416  30.896  12.055
97674W        W69290  43.491   5.851   1.415
97675W        W69291   6.222  36.590  14.584
97676W        W69292  13.898  24.092  12.871
97677W        W69293  14.717  32.955   0.610
97678W        W69294   4.302  22.863   9.917
97679W        W69295  32.991  11.356  14.342
97680W        W69296  35.563  27.530  11.733
97681W        W69297  34.792  31.933   0.481
97682W        W69298  29.321  37.230  13.083
97683W        W69299  14.394   4.830   3.723
97684W        W69300  37.334  17.152   2.586
97685W        W69301  22.743  21.565  12.566
97686W        W69302   8.199  18.848   2.626
97687W        W69303  26.172  34.925  14.250
97688W        W69304  38.438  30.505   4.520
97689W        W69305  44.484  15.329   2.278
97690W        W69306  16.332  19.241  11.989
97691W        W69307  15.295  13.648   4.572
97692W        W69308   7.056  35.707  11.577
97693W        W69309  18.813  37.615   3.106
97694W        W69310  21.877  15.117  10.763
97695W        W69311   5.330  22.527  14.320
97696W        W69312   1.242  43.172  11.324
97697W        W69313  33.535  20.465  13.870
97698W        W69314  19.090  39.837   2.121
97699W        W69315   9.943  20.969  14.849
97700W        W69316  30.440   3.604   1.825
97701W        W69317  17.870  21.294  12.603
97702W        W69318  24.964   5.322   0.810
97703W        W69319  33.668  13.358  12.910
97704W        W69320  40.278  22.749  11.976
97705W        W69321   9.342   7.062  12.828
97706W        W69322  14.610  32.940   1.695
97707W        W69323  12.188  28.385  10.933
97708W        W69324  12.396  21.099  11.947
97709W        W69325   0.168  31.237   4.126
97710W        W69326  17.624  14.513   2.863
97711W        W69327   8.684  14.347  13.910
97712W        W69328   7.787  18.788   3.762
97713W        W69329  20.332  32.537  14.906
97714W        W69330  32.549  25.963  11.634
97715W        W69331  38.956   3.536   0.034
97716W        W69332  43.910  23.247  11.285
97717W        W69333  38.946  23.571   4.096
97718W        W69334  12.338  43.700  13.007
97719W        W69335  24.511  26.904  13.914
97720W        W69336  14.344  12.563  13.394
97721W        W69337  17.229  24.630   1.167
97722W        W69338  25.601  15.570   4.610
97723W        W69339  42.324  40.034   0.483
97724W        W69340  33.049  34.310   0.781
97725W        W69341  31.606  15.900  12.944
97726W        W69342  37.239  14.694  13.902
97727W        W69343  32.147  16.311  13.536
97728W        W69344  17.614  17.250   5.425
97729W        W69345  10.244  19.319  12.485
97730W        W69346  20.835   6.479  14.395
97731W        W69347  28.132   8.165  10.613
97732W        W69348  20.580  43.849   3.435
97733W        W69349   8.415  40.570  13.865
97734W        W69350  36.055  38.980  14.764
97735W        W69351  10.441  17.699  10.800
97736W        W69352   5.141  21.104  13.987
97737W        W69353   7.108  27.466  14.981
97738W        W69354  28.428  19.618   4.141
97739W        W69355  36.760  29.951  12.352
97740W        W69356  22.121  38.677  11.305
97741W        W69357  33.249  23.338   1.759
97742W        W69358  23.584  10.772  13.978
97743W        W69359  31.682  33.847  10.836
97744W        W69360  36.929   5.761   1.692
97745W        W69361  12.847  19.771  13.603
97746W        W69362  14.017   4.864  13.492
97747W        W69363   2.324   7.032  11.101
97748W        W69364  44.267  31.119   1.745
97749W        W69365  44.223  43.265  11.118
97750W        W69366  24.413  43.330  11.574
97751W        W69367  40.302  28.129   3.039
97752W        W69368  15.743  21.171   3.707
97753W        W69369  30.368  22.152  12.006
97754W        W69370  14.058   2.545   4.165
97755W        W69371  24.966  27.568   2.314
97756W        W69372   8.323   8.153  12.125
97757W        W69373  42.854   6.182  10.796
97758W        W69374  37.470  36.813  10.671
97759W        W69375  43.206   7.160  12.339
97760W        W69376  39.128  36.862  13.617
97761W        W69377  32.447  11.105  11.307
97762W        W69378  20.386  28.667   3.751
97763W        W69379  35.368  38.052   0.019
97764W        W69380   3.767  33.532   4.417
97765W        W69381  43.028  25.524  11.843
97766W        W69382  13.564  24.458  12.656
97767W        W69383  24.962  34.144  14.844
97768W        W69384   5.834  37.025  14.801
97769W        W69385  29.931  28.398  11.663
97770W        W69386  30.634  28.517  13.435
97771W        W69387  39.051   7.439  13.305
97772W        W69388   9.312  24.493   1.146
97773W        W69389  25.595  15.613  13.145
97774W        W69390  38.951   8.944   4.734
97775W        W69391  20.355  44.498   1.781
97776W        W69392  42.598  15.205   3.754
97777W        W69393  28.704  15.414  11.165
97778W        W69394  44.381  43.111   0.458
97779W        W69395  32.932   9.340   1.660
97780W        W69396  21.272  25.698   0.039
97781W        W69397  21.756  26.426   3.750
97782W        W69398  33.462   5.744   2.399
97783W        W69399  35.115  44.195   3.400
97784W        W69400  44.426  19.664   2.614
97785W        W69401  16.158   8.077   0.297
97786W        W69402  42.984   7.998   5.123
97787W        W69403  26.280  18.821  13.695
97788W        W69404  22.632  23.873   9.775
97789W        W69405  20.445  41.338  11.245
97790W        W69406  14.063  25.748   1.234
97791W        W69407  39.400  15.304  13.823
97792W        W69408  43.048  35.446  11.892
97793W        W69409   4.383   2.243  12.863
97794W        W69410  22.179  20.464  11.539
97795W        W69411  38.528   3.689   0.915
97796W        W69412  21.127   0.048  14.360
97797W        W69413  15.540  12.742   3.088
97798W        W69414  30.933  29.688  13.916
97799W        W69415  33.337  39.031   3.339
97800W        W69416  25.522  32.394  12.557
97801W        W69417   9.860  14.297  13.572
97802W        W69418  43.759  44.958   2.792
97803W        W69419  15.211  41.632  14.461
97804W        W69420  10.763  37.811  11.831
97805W        W69421  26.735  28.994   4.608
97806W        W69422  35.124  38.356   2.802
97807W        W69423   0.679  25.267   4.174
97808W        W69424  16.637  14.347   1.958
97809W        W69425  32.929   4.543  12.745
97810W        W69426  13.810  11.349   4.361
97811W        W69427   7.158   4.258  13.489
97812W        W69428  21.975  41.846   1.908
97813W        W69429  36.979   3.882  13.409
97814W        W69430   9.260   9.332   4.184
97815W        W69431   6.989  10.245   1.181
97816W        W69432  27.429  20.641  12.852
97817W        W69433  44.470  17.830  11.168
97818W        W69434  40.882   0.676  13.552
97819W        W69435  20.697  14.922   2.179
97820W        W69436   6.341  10.351  11.100
97821W        W69437   9.831  31.972   0.930
97822W        W69438   3.337  43.274   5.447
97823W        W69439  11.133  28.979   0.808
97824W        W69440  41.922  10.195   4.249
97825W        W69441  17.488  12.284   0.492
97826W        W69442  30.550  10.632   0.553
97827W        W69443  20.567   3.411   3.807
97828W        W69444  27.613   0.981  11.185
97829W        W69445   1.476  27.966  13.794
97830W        W69446  21.978  33.981   4.195
97831W        W69447  37.427   7.309  14.914
97832W        W69448  32.124  19.695   1.740
97833W        W69449  39.532  23.602   1.987
97834W        W69450   0.700  20.050   3.175
97835W        W69451   8.616  44.275   0.265
97836W        W69452  27.124  18.090  13.066
97837W        W69453  41.424  24.078  12.476
97838W        W69454   8.309  34.270   0.580
97839W        W69455  17.974  32.975  13.517
97840W        W69456  35.219  28.936   4.357
97841W        W69457   8.263   4.314  13.800
97842W        W69458  10.087  10.608  12.507
97843W        W69459  14.237   1.457  10.642
97844W        W69460   6.175  39.052  10.140
97845W        W69461  20.635  42.982  11.614
97846W        W69462  43.456  13.629  11.365
97847W        W69463   0.441  26.367  10.721
97848W        W69464  14.499  11.569  14.864
97849W        W69465  33.636  31.037   1.273
97850W        W69466  12.857  32.148   3.115
97851W        W69467   5.485  41.545   0.899
97852W        W69468  17.767  26.229  12.281
97853W        W69469   6.034  12.698   3.926
97854W        W69470  29.672  14.743  14.872
97855W        W69471   7.636  35.800   1.780
97856W        W69472  30.670  32.454  14.228
97857W        W69473  10.137   2.805  14.025
97858W        W69474   2.335  35.575   2.299
97859W        W69475  18.754   6.671  12.965
97860W        W69476  37.975  15.703   4.150
97861W        W69477  37.279  10.610   5.120
97862W        W69478  20.205   7.114  14.987
97863W        W69479   9.493  30.564   2.572
97864W        W69480   8.579  10.339   3.634
97865W        W69481  30.589   9.834   4.570
97866W        W69482  11.599   0.273  13.157
97867W        W69483  43.008  36.212   0.888
97868W        W69484  21.911  43.277  11.575
97869W        W69485  33.034  12.721   2.588
97870W        W69486   0.190  42.559   4.330
97871W        W69487  36.873  23.150   3.655
97872W        W69488  16.496   0.764  13.632
97873W        W69489   2.932  20.873   0.955
97874W        W69490  15.108  39.896  11.646
97875W        W69491  21.168  39.254  12.982
97876W        W69492  26.710  44.099   0.153
97877W        W69493  44.340  15.637  12.149
97878W        W69494  19.341  38.926   2.448
97879W        W69495  35.798  38.818   3.201
97880W        W69496  23.842  26.567   4.507
97881W        W69497  13.476  32.131   4.056
97882W        W69498  30.616  41.518   4.687
97883W        W69499   2.702  41.305   1.715
97884W        W69500  27.270  35.398   2.425
97885W        W69501  11.114  40.630  14.960
97886W        W69502   4.792  19.372  14.432
97887W        W69503  30.896  10.257   4.602
97888W        W69504  20.149  34.940   0.492
97889W        W69505  27.671   2.349  10.983
97890W        W69506  19.652  12.099  10.684
97891W        W69507  25.741  22.058   3.152
97892W        W69508  12.632  13.251  11.389
97893W        W69509   1.238  38.359   1.853
97894W        W69510  22.655  26.567   0.788
97895W        W69511  37.227   6.754  12.042
97896W        W69512  41.928  37.107   2.222
97897W        W69513  36.400  22.471  13.290
97898W        W69514   5.744  20.561   1.798
97899W        W69515  43.972   8.461   0.995
97900W        W69516  38.837  32.431   0.792
97901W        W69517  14.589  16.136   3.706
97902W        W69518  44.530  43.840   1.564
97903W        W69519  18.673  43.905  11.504
97904W        W69520  20.044   7.416  10.547
97905W        W69521  38.339  27.559   2.559
97906W        W69522  10.905  36.904   1.369
97907W        W69523  40.424  42.578  13.017
97908W        W69524   2.397  31.067   1.863
97909W        W69525  44.246  35.198  10.272
97910W        W69526  39.352  11.236   5.396
97911W        W69527  19.701  16.248   0.335
97912W        W69528  35.993  10.404   3.803
97913W        W69529  37.366  11.236  13.790
97914W        W69530  28.033  40.117   3.180
97915W        W69531  12.239  35.407  12.302
97916W        W69532  36.143   8.800   2.368
97917W        W69533  35.876  38.881   0.265
97918W        W69534   2.551  14.508   2.830
97919W        W69535   6.888  12.839   2.530
97920W        W69536  43.797  17.679   4.141
97921W        W69537  39.536   6.160   0.787
97922W        W69538   4.120  17.354   0.244
97923W        W69539  41.595  25.454   3.639
97924W        W69540  36.645  15.687  11.168
97925W        W69541  13.129  22.100   1.876
97926W        W69542   7.554   2.415  12.165
97927W        W69543  35.835  37.580   5.349
97928W        W69544  20.935   5.185  10.161
97929W        W69545  28.668  30.020  12.499
97930W        W69546   2.799  34.879   4.606
97931W        W69547   0.958  23.438   1.491
97932W        W69548   6.400  16.772  12.325
97933W        W69549  33.724  41.086  12.026
97934W        W69550  28.753  37.823   4.888
97935W        W69551  17.943   4.764   0.773
97936W        W69552  36.203  18.582  14.738
97937W        W69553  13.552   8.567  14.796
97938W        W69554  15.557  36.359  12.931
97939W        W69555  13.117  42.771   3.690
97940W        W69556  25.939   3.217   1.506
97941W        W69557  15.831  16.031   5.046
97942W        W69558   7.468  42.475  13.832
97943W        W69559   2.227  27.068  13.514
97944W        W69560  15.126  43.352   3.579
97945W        W69561  37.408   4.004  10.535
97946W        W69562  21.524  42.587   4.221
97947W        W69563   9.918  13.290  14.306
97948W        W69564   9.551   8.657  13.713
97949W        W69565   8.610  26.119  12.019
97950W        W69566   7.708  35.967   0.375
97951W        W69567  33.978  36.386   3.577
97952W        W69568   2.898  44.226   3.599
97953W        W69569  14.262  22.232   4.517
97954W        W69570  22.607  24.563  10.725
97955W        W69571  28.942  36.457  14.181
97956W        W69572  36.082  43.056  10.183
97957W        W69573   5.202   3.737   1.916
97958W        W69574  24.474  30.665   4.160
97959W        W69575  21.210  34.868   5.123
97960W        W69576  32.589  32.854   4.458
97961W        W69577   3.507  44.376  11.460
97962W        W69578   9.844  44.350   0.711
97963W        W69579   8.765  27.928  13.567
97964W        W69580   1.533   6.912  10.827
97965W        W69581  38.291  30.043  12.077
97966W        W69582  42.346  22.087  13.896
97967W        W69583  21.174  41.276  14.749
97968W        W69584  43.578  10.732  13.875
97969W        W69585  27.942  38.827   4.599
97970W        W69586  41.934   9.638   2.227
97971W        W69587  26.222  26.014  12.929
97972W        W69588  41.805  11.904   3.714
97973W        W69589  41.237   1.893  10.416
97974W        W69590   2.402  33.592   1.791
97975W        W69591  14.850  31.108  11.006
97976W        W69592  24.450   0.784   3.838
97977W        W69593  37.450  19.069   2.505
97978W        W69594  11.125  34.897  12.484
97979W        W69595   5.414   2.259  13.499
97980W        W69596  11.367  30.628  13.537
97981W        W69597  36.813  13.752   3.548
97982W        W69598   3.999   7.726  11.597
97983W        W69599  26.564  32.189  12.264
97984W        W69600   8.292   3.229   0.211
97985W        W69601   6.408   8.322  12.148
97986W        W69602  31.048  18.104   3.212
97987W        W69603  22.753  13.687   4.593
97988W        W69604  29.933  34.511   3.093
97989W        W69605  22.168  29.472  10.445
97990W        W69606  21.060  24.454   1.166
97991W        W69607   4.257  16.868   0.433
97992W        W69608   8.538  20.065   4.778
97993W        W69609  30.651  36.602   3.094
97994W        W69610  11.460  10.379  10.493
97995W        W69611  32.094  19.120  10.903
97996W        W69612  43.466  44.437  11.005
97997W        W69613  33.102  29.662  14.332
97998W        W69614   8.178  12.963  12.926
97999W        W69615  29.937  11.673  13.272
98000W        W69616  42.223  37.312   3.323
98001W        W69617  12.707  35.350   1.452
98002W        W69618  14.148   3.683  14.094
98003W        W69619  35.140  25.621   2.221
98004W        W69620  25.284  35.937  10.729
98005W        W69621  13.257   6.633   3.176
98006W        W69622  41.071  24.846  14.448
98007W        W69623   2.011   4.784  10.944
98008W        W69624  36.626  29.023  12.791
98009W        W69625  42.021  29.533   1.759
98010W        W69626   0.558  29.555   3.886
98011W        W69627  19.161   5.896   1.201
98012W        W69628   8.121  30.742   2.973
98013W        W69629   2.694   5.373  11.874
98014W        W69630   5.543  26.819  11.463
98015W        W69631  37.761   5.619  12.785
98016W        W69632  19.092  26.058  13.384
98017W        W69633  24.266  18.588   2.102
98018W        W69634  36.884  30.644  14.421
98019W        W69635   3.211  35.022   3.219
98020W        W69636  15.633   2.313  13.384
98021W        W69637  30.873  35.053   0.818
98022W        W69638  20.012  21.577   0.105
98023W        W69639  14.102  13.156   4.417
98024W        W69640  34.780  33.590   3.646
98025W        W69641  28.711  12.358   0.403
98026W        W69642   0.913  17.797  14.096
98027W        W69643   3.894  12.285  11.396
98028W        W69644  11.766   4.540   0.406
98029W        W69645  22.251  34.545   3.801
98030W        W69646  33.100  43.308   0.765
98031W        W69647  33.975  39.549   0.577
98032W        W69648  42.367  19.788  13.509
98033W        W69649  35.341  10.866   4.910
98034W        W69650  21.402   7.867   3.688
98035W        W69651  32.419  29.909   4.170
98036W        W69652   2.719  27.415   0.538
98037W        W69653   3.817  38.486  10.637
98038W        W69654  44.291   3.874   2.371
98039W        W69655  18.990  12.453  13.762
98040W        W69656  23.841  31.539   2.317
98041W        W69657  18.297  11.388   3.628
98042W        W69658  32.545  23.827  14.812
98043W        W69659  40.680   5.021   1.973
98044W        W69660  30.359  42.447  14.045
98045W        W69661   0.859  25.007  14.245
98046W        W69662  13.206  19.050   4.199
98047W        W69663  19.049  23.643   3.234
98048W        W69664  18.827  34.864   1.951
98049W        W69665  16.779  12.074  12.680
98050W        W69666  24.294  40.002  12.772
98051W        W69667  34.643  37.917   1.231
98052W        W69668   0.227  17.624   4.700
98053W        W69669  38.145  15.700   3.635
98054W        W69670  30.936  39.880  12.800
98055W        W69671   8.163  40.995   1.805
98056W        W69672  28.682  15.603   1.467
98057W        W69673  20.774  13.130   1.732
98058W        W69674  35.588  43.707  14.285
98059W        W69675   8.151   5.719   1.263
98060W        W69676  13.573  16.242   2.666
98061W        W69677  31.464  12.568  10.650
98062W        W69678   8.271  13.337   1.605
98063W        W69679  25.575   9.881   2.366
98064W        W69680  36.891   0.405   1.235
98065W        W69681   7.434  14.777   4.127
98066W        W69682  23.673  27.247  11.004
98067W        W69683   2.711   7.386  11.774
98068W        W69684  24.679   2.231   2.401
98069W        W69685  20.002  30.922  14.867
98070W        W69686  13.709  10.819   0.503
98071W        W69687  21.993  16.115   1.838
98072W        W69688  16.582  26.649   1.175
98073W        W69689  29.509  16.340   1.279
98074W        W69690  30.632  17.380  11.631
98075W        W69691  19.659  19.539   0.019
98076W        W69692  38.760  23.231   0.208
98077W        W69693   1.612  43.829  14.209
98078W        W69694  32.134  23.561   0.010
98079W        W69695  30.040  39.796   1.716
98080W        W69696   2.024   8.611   2.938
98081W        W69697  19.541  24.618   3.614
98082W        W69698  25.208  42.254   3.685
98083W        W69699  34.496  22.186   2.813
98084W        W69700  33.423  39.765   0.450
98085W        W69701  34.870  24.874  10.262
98086W        W69702  21.015  44.589  11.814
98087W        W69703   3.496  23.209   4.760
98088W        W69704  18.927  41.047   2.080
98089W        W69705   4.802  25.415  14.469
98090W        W69706  42.774  29.170  12.938
98091W        W69707  43.427  43.841   2.935
98092W        W69708  41.206   7.441   3.979
98093W        W69709   8.147   7.180  12.070
98094W        W69710   9.061  42.323  14.077
98095W        W69711  38.780  41.998  11.779
98096W        W69712  15.857   1.736  11.108
98097W        W69713   1.383  28.725   3.760
98098W        W69714  19.294  32.022  12.304
98099W        W69715  19.010  11.222   1.869
98100W        W69716  13.777  23.620  11.153
98101W        W69717  22.748  20.519   1.686
98102W        W69718  10.172  24.155   4.494
98103W        W69719  41.989  16.234  14.271
98104W        W69720   8.442   5.282  14.584
98105W        W69721  35.922  34.045   4.346
98106W        W69722  28.891   8.656   2.568
98107W        W69723   0.044  38.021  11.530
98108W        W69724  38.110  44.509  11.252
98109W        W69725  23.470  10.175   3.901
98110W        W69726   9.359  33.469  13.874
98111W        W69727  12.161  34.092   3.055
98112W        W69728  12.058  31.143  12.896
98113W        W69729  31.622  39.904  11.460
98114W        W69730   3.148  10.257  12.911
98115W        W69731  41.808  21.567  14.908
98116W        W69732   8.866  42.030  14.484
98117W        W69733   4.018  24.989   4.177
98118W        W69734  23.947  18.404  11.169
98119W        W69735   1.304  25.148  11.028
98120W        W69736  19.571   3.491   1.809
98121W        W69737  24.753  24.997   3.725
98122W        W69738   8.222  36.336  11.150
98123W        W69739  19.727  43.288  11.158
98124W        W69740   2.909  37.921   4.406
98125W        W69741   3.822  44.200   1.136
98126W        W69742  26.997  38.940  13.485
98127W        W69743   2.775   8.384  14.893
98128W        W69744  23.615  42.541   4.886
98129W        W69745   8.206   5.253   3.586
98130W        W69746  22.238  27.488  13.152
98131W        W69747  27.310  42.282  12.912
98132W        W69748  41.833  29.553  13.917
98133W        W69749   6.720   0.868  12.566
98134W        W69750   1.002  35.112  13.008
98135W        W69751  28.672  29.524   2.520
98136W        W69752  27.183  16.178   2.155
98137W        W69753  30.397   8.711  14.952
98138W        W69754   2.941   7.047   0.892
98139W        W69755  23.344   0.399   4.976
98140W        W69756  38.391  42.891   1.725
98141W        W69757  35.179   2.128   2.821
98142W        W69758   4.692   9.352   3.600
98143W        W69759   0.811   3.885   3.849
98144W        W69760  15.637  19.563  10.051
98145W        W69761  20.191   6.409  12.886
98146W        W69762   4.192  41.770   3.392
98147W        W69763  12.417   5.279   3.165
98148W        W69764  11.621  37.541   0.374
98149W        W69765  39.665   4.037  10.394
98150W        W69766  34.851  23.074   3.543
98151W        W69767  37.393  12.256   4.644
98152W        W69768  15.255  16.066   4.167
98153W        W69769   2.413  41.560  11.555
98154W        W69770   4.554  43.446   1.943
98155W        W69771  29.709  23.784   1.871
98156W        W69772  13.581  34.145   2.783
98157W        W69773  28.966  34.709  10.626
98158W        W69774  42.532  37.065   0.954
98159W        W69775   7.593  44.460  14.369
98160W        W69776  37.632  38.895   3.587
98161W        W69777   2.201  10.222  11.050
98162W        W69778  31.743  41.254   0.664
98163W        W69779  43.455   8.610  14.281
98164W        W69780   7.241   5.241   1.737
98165W        W69781  14.137  24.695   4.855
98166W        W69782  21.345  31.193   1.286
98167W        W69783  39.604  18.657  11.672
98168W        W69784  41.372  33.966  12.622
98169W        W69785  37.504  16.050   0.790
98170W        W69786  32.994   8.332  14.320
98171W        W69787  25.965  10.892   2.255
98172W        W69788  37.527   3.040  11.575
98173W        W69789  33.857  11.555   0.474
98174W        W69790  40.355  32.930  14.854
98175W        W69791  34.455  20.643  12.671
98176W        W69792  37.467   4.557   1.808
98177W        W69793  23.882  26.978   0.690
98178W        W69794   7.863  32.309  14.549
98179W        W69795  27.001  33.486   0.510
98180W        W69796  36.455  20.714  13.489
98181W        W69797  16.147  23.807   4.139
98182W        W69798  26.692  32.174   2.719
98183W        W69799  40.114  32.451  10.422
98184W        W69800  21.596   8.349   3.599
98185W        W69801  12.657  32.970   2.194
98186W        W69802   0.422  30.487   1.301
98187W        W69803  15.227  36.293   1.749
98188W        W69804   7.702  43.837  13.775
98189W        W69805  35.124   1.734   1.664
98190W        W69806  34.979  30.489  14.361
98191W        W69807   8.480   3.952  14.103
98192W        W69808  26.960   5.035   4.139
98193W        W69809  27.906  18.723   0.175
98194W        W69810  39.066  26.974  10.238
98195W        W69811  37.844  43.699  13.530
98196W        W69812  26.478  12.283   3.279
98197W        W69813   3.978   9.144  11.564
98198W        W69814  34.138  32.250   2.236
98199W        W69815  24.493  13.285  11.497
98200W        W69816  40.820   2.778   4.586
98201W        W69817  25.975  34.070   4.485
98202W        W69818  20.102   4.268  11.841
98203W        W69819  21.491  12.211  12.860
98204W        W69820  15.850  39.367   4.481
98205W        W69821  24.500   1.399   4.696
98206W        W69822  13.618   2.268   2.125
98207W        W69823  31.401  13.047   2.228
98208W        W69824  17.276  35.862   4.084
98209W        W69825  36.040  36.370   3.809
98210W        W69826  27.401  16.796   9.920
98211W        W69827  33.423  24.790  10.159
98212W        W69828  22.292  43.812  12.284
98213W        W69829  10.927   0.797  14.560
98214W        W69830  36.945  24.248  10.986
98215W        W69831   5.027  15.554  11.149
98216W        W69832  18.991  34.215  10.730
98217W        W69833  14.136  37.124   0.277
98218W        W69834  34.845   2.389  14.475
98219W        W69835  19.793  13.644   2.078
98220W        W69836  34.067  30.035  11.342
98221W        W69837   5.052   4.260   0.254
98222W        W69838  28.610   1.493   1.794
98223W        W69839  29.211  19.641   3.160
98224W        W69840  44.176   7.738   1.414
98225W        W69841  31.362  19.016  14.002
98226W        W69842  17.242  27.400   2.232
98227W        W69843  43.334   3.809   3.157
98228W        W69844  30.494   4.981   3.649
98229W        W69845  31.026  16.790   3.339
98230W        W69846  35.827   7.945  12.377
98231W        W69847  19.896  19.605   2.686
98232W        W69848   6.494  37.993   1.954
98233W        W69849  19.207  30.632  10.524
98234W        W69850  16.657  28.603   0.748
98235W        W69851  38.522  19.157  11.040
98236W        W69852  29.487  41.065   1.828
98237W        W69853  26.873   5.172  10.949
98238W        W69854   7.390   0.926  13.904
98239W        W69855  14.844  32.182   2.247
98240W        W69856  20.210  43.634  10.631
98241W        W69857  13.795   7.338   1.001
98242W        W69858  23.139  41.240   3.648
98243W        W69859  33.665  15.291  12.036
98244W        W69860  37.976  33.867   1.737
98245W        W69861  15.294  23.952   4.532
98246W        W69862  16.777  20.572  10.726
98247W        W69863  25.128   6.671   0.425
98248W        W69864  29.761  31.625  14.238
98249W        W69865  27.349  27.635  11.127
98250W        W69866  32.106  35.289   1.062
98251W        W69867  16.700  33.561   0.898
98252W        W69868  18.614  37.870   4.427
98253W        W69869  19.267   9.337   1.882
98254W        W69870  18.103   9.706   3.329
98255W        W69871   4.772  41.328   2.761
98256W        W69872  15.939  18.646   0.361
98257W        W69873  35.619  23.107   3.182
98258W        W69874  44.268  42.850  10.779
98259W        W69875  29.040  11.309   4.372
98260W        W69876  25.171  44.103   3.444
98261W        W69877  15.285  28.197  13.055
98262W        W69878  34.590  40.147   2.357
98263W        W69879  19.031  28.108  13.791
98264W        W69880   5.903  22.464  14.935
98265W        W69881  43.139   8.666  14.710
98266W        W69882  39.339  20.553   0.101
98267W        W69883   7.924  38.780   2.185
98268W        W69884   1.273   7.557  11.170
98269W        W69885  17.568  11.259  14.511
98270W        W69886  25.898  18.064   2.241
98271W        W69887  40.132  41.924  14.106
98272W        W69888  10.959  38.420   1.310
98273W        W69889  31.861  24.232   1.022
98274W        W69890  18.420  30.633  13.080
98275W        W69891  43.562  36.171  11.500
98276W        W69892  28.053  44.475   0.342
98277W        W69893   4.872  29.965   2.935
98278W        W69894  25.867  29.704  13.010
98279W        W69895  29.455   4.697  13.999
98280W        W69896   9.348  14.356   1.304
98281W        W69897  26.426  22.823  12.859
98282W        W69898  32.125  30.606   1.898
98283W        W69899   7.979  10.417   4.143
98284W        W69900  21.785  12.726  11.662
98285W        W69901  19.628  34.879  12.762
98286W        W69902  34.954   5.935   3.323
98287W        W69903  37.581  25.435  14.869
98288W        W69904  38.534  32.940   1.797
98289W        W69905  27.182  31.671   4.180
98290W        W69906  25.639  26.043   2.925
98291W        W69907   9.652  14.761  11.652
98292W        W69908  19.425  17.040  12.484
98293W        W69909  35.130  23.098   2.151
98294W        W69910  32.244  18.165   0.332
98295W        W69911  14.322  41.750   4.750
98296W        W69912  40.046  12.412  11.951
98297W        W69913  27.719  25.532   4.290
98298W        W69914  15.250  24.647   0.260
98299W        W69915   3.988  22.233  13.763
98300W        W69916  39.774  30.071  11.117
98301W        W69917   0.263  12.089   0.478
98302W        W69918  17.515  44.877   2.224
98303W        W69919  37.459  42.746  11.129
98304W        W69920  30.367  23.342  13.341
98305W        W69921  42.413  27.421   2.418
98306W        W69922  20.857  44.217  14.010
98307W        W69923  18.915  21.197  11.270
98308W        W69924  14.790  25.071   4.155
98309W        W69925  10.480  24.550  13.840
98310W        W69926  31.873  13.724   4.662
98311W        W69927   4.718  13.733  13.993
98312W        W69928  18.046  25.649   0.239
98313W        W69929  42.319  31.439  12.809
98314W        W69930   8.347  23.196   4.501
98315W        W69931  22.039  32.540   0.966
98316W        W69932  16.292  36.157   0.929
98317W        W69933  33.080   5.247  14.445
98318W        W69934  32.533  18.165   0.802
98319W        W69935  31.008  16.547   2.875
98320W        W69936  16.593  43.097   1.652
98321W        W69937  15.858  18.493   5.484
98322W        W69938   9.173   1.844   0.383
98323W        W69939  24.575  35.004   0.953
98324W        W69940  35.493   3.146   4.773
98325W        W69941  12.733  42.275   4.176
98326W        W69942   7.920  19.227   0.038
98327W        W69943  39.374  26.778  12.473
98328W        W69944  21.069  41.758   2.260
98329W        W69945  31.440  26.540   1.212
98330W        W69946   5.365   2.726  10.535
98331W        W69947  29.344   5.247  10.743
98332W        W69948  38.327  11.730  12.530
98333W        W69949  33.203  19.294  12.586
98334W        W69950  19.720  32.695  10.759
98335W        W69951   7.947  43.817  11.081
98336W        W69952  30.914  36.914   1.865
98337W        W69953  13.363  14.178   0.305
98338W        W69954  29.017  19.628  12.979
98339W        W69955   0.097   1.277   3.959
98340W        W69956  26.457  15.368   0.464
98341W        W69957  21.608  26.601  13.352
98342W        W69958  43.321  23.120   0.272
98343W        W69959   0.468  19.680   2.817
98344W        W69960   9.639  32.399   4.448
98345W        W69961   4.854  44.337   0.633
98346W        W69962  23.107  24.768   3.160
98347W        W69963  20.423  32.443  14.051
98348W        W69964  18.251  24.249   3.271
98349W        W69965  28.229   8.652  10.751
98350W        W69966   6.749   4.435  13.860
98351W        W69967  15.794  42.120   1.717
98352W        W69968  17.829  28.200  12.588
98353W        W69969  25.175   3.911   0.778
98354W        W69970  36.426  23.110   1.285
98355W        W69971  42.735  32.544  10.936
98356W        W69972   2.367   6.369   1.451
98357W        W69973  33.991  26.511  13.817
98358W        W69974   2.182  13.811  14.394
98359W        W69975  26.364   8.719   1.738
98360W        W69976  20.057  28.530  12.469
98361W        W69977   4.340  15.096   3.555
98362W        W69978  28.346  18.524   1.767
98363W        W69979  13.055  32.897  12.504
98364W        W69980  31.195  17.275  12.912
98365W        W69981  29.420  26.159  11.108
98366W        W69982  28.597   4.748   0.444
98367W        W69983  15.638  31.497   1.502
98368W        W69984  35.024  14.910  11.329
98369W        W69985  11.664  28.473  12.469
98370W        W69986   2.641  33.478  13.936
98371W        W69987  22.670   9.841   2.717
98372W        W69988   5.178   6.836  11.989
98373W        W69989  12.070   9.558   3.380
98374W        W69990   8.237  42.884  13.866
98375W        W69991   6.503   2.621   4.228
98376W        W69992  25.979   4.664   4.073
98377W        W69993  42.038  21.690   3.918
98378W        W69994   1.368  17.598  14.210
98379W        W69995  36.580  30.414  10.692
98380W        W69996  27.397   9.630  13.330
98381W        W69997  34.027  27.049   3.350
98382W        W69998  27.718  41.325   3.627
98383W        W69999  15.650  21.916   4.095
98384W        W70000  20.862  38.513   0.813
98385W        W70001  28.248  12.675   0.836
98386W        W70002  26.665  34.951  14.403
98387W        W70003   2.044  27.195  13.036
98388W        W70004  19.733  14.552  11.573
98389W        W70005  20.540  29.665   1.244
98390W        W70006   2.768  32.721  14.421
98391W        W70007   7.047   6.383  12.829
98392W        W70008  33.500  34.524   2.731
98393W        W70009   6.765  20.472  14.732
98394W        W70010  38.860  23.081  10.915
98395W        W70011   3.390  31.417  14.399
98396W        W70012  34.545  38.354   4.514
98397W        W70013  30.612  11.283  14.237
98398W        W70014   5.472   8.587  14.055
98399W        W70015  17.522  14.597   1.946
98400W        W70016  42.669   9.000  10.822
98401W        W70017  24.119  42.664   4.162
98402W        W70018  27.252  20.515   2.644
98403W        W70019  36.512   9.405   3.359
98404W        W70020  34.981  18.309  13.002
98405W        W70021   8.268  26.141  13.606
98406W        W70022  11.662   9.073  11.564
98407W        W70023  18.095  10.659  12.547
98408W        W70024   6.705  23.289   4.564
98409W        W70025  17.280  23.610  13.125
98410W        W70026  23.027  12.587   0.900
98411W        W70027  24.902   9.392  14.944
98412W        W70028  41.920  34.511  11.458
98413W        W70029  30.386   6.740  14.320
98414W        W70030   9.106   6.345   3.092
98415W        W70031   1.839  34.034  14.117
98416W        W70032  11.979  14.272  10.287
98417W        W70033  20.966  36.354  11.397
98418W        W70034  27.600  40.053   0.479
98419W        W70035  25.042  25.268   2.210
98420W        W70036  43.018  24.656  12.064
98421W        W70037  20.486  33.567  12.078
98422W        W70038   6.209  20.419   2.015
98423W        W70039  22.197  40.878   4.866
98424W        W70040  32.346   7.806  13.874
98425W        W70041   4.248  40.166   0.069
98426W        W70042  30.000  23.586  13.622
98427W        W70043  10.245  21.854   1.846
98428W        W70044  24.165  19.402   2.792
98429W        W70045  27.485  33.615  14.352
98430W        W70046   3.768   5.700   4.254
98431W        W70047  38.333   5.945  13.069
98432W        W70048  11.271  42.891  14.664
98433W        W70049   1.291  16.236  11.969
98434W        W70050  31.538  20.654  14.010
98435W        W70051  13.650   4.741  10.379
98436W        W70052  43.764   8.725   5.035
98437W        W70053  18.554  40.992   0.789
98438W        W70054  17.764  37.053  11.982
98439W        W70055   2.154   6.935   3.707
98440W        W70056  14.197  36.034   1.305
98441W        W70057  16.796   6.851   3.285
98442W        W70058  18.712  17.263   3.667
98443W        W70059  37.539  30.600  14.860
98444W        W70060  26.185  23.424  11.115
98445W        W70061   8.675  17.847  13.456
98446W        W70062  41.015  40.551  11.579
98447W        W70063  23.734  39.956  11.907
98448W        W70064   2.898  17.917  13.874
98449W        W70065  30.737   2.579   0.924
98450W        W70066  27.207  23.617  14.422
98451W        W70067  29.472   2.453   4.073
98452W        W70068  17.145  12.242  14.049
98453W        W70069  17.857  36.054  13.439
98454W        W70070  42.364  25.303   1.290
98455W        W70071  30.503  41.739  13.570
98456W        W70072  29.827  16.977  10.415
98457W        W70073  11.424  10.171   0.436
98458W        W70074  19.702  11.780   2.270
98459W        W70075  27.086  20.626  12.466
98460W        W70076  21.256  13.928  13.508
98461W        W70077  35.757  36.086  11.457
98462W        W70078  31.895  42.808  13.343
98463W        W70079   9.203  11.237  14.031
98464W        W70080  38.264  14.848   4.884
98465W        W70081  30.307  12.894  14.834
98466W        W70082  39.879   5.245   3.188
98467W        W70083  12.407   9.610  10.838
98468W        W70084   8.265  29.566  12.061
98469W        W70085  11.091   5.193   1.378
98470W        W70086  12.723   1.743  14.404
98471W        W70087  31.861  26.535   2.631
98472W        W70088  32.961  17.555   4.607
98473W        W70089  12.814   7.940   0.262
98474W        W70090  24.160  23.150   4.637
98475W        W70091  29.063  17.857  10.586
98476W        W70092   5.920  41.681   2.188
98477W        W70093  19.102  19.214   3.067
98478W        W70094  33.316  13.793   3.668
98479W        W70095   5.118  38.419  13.872
98480W        W70096  40.593  18.571  12.605
98481W        W70097  16.589  35.112   4.281
98482W        W70098  42.136   4.830  11.504
98483W        W70099  10.605  22.594   4.944
98484W        W70100  17.193   4.847  14.964
98485W        W70101  14.401  13.225   2.947
98486W        W70102   4.415  38.886   2.116
98487W        W70103  34.646  26.699   2.668
98488W        W70104  32.308  22.994   4.987
98489W        W70105  38.951  37.935   3.178
98490W        W70106  14.351   6.433  14.891
98491W        W70107   9.409  17.802   0.242
98492W        W70108   8.286  26.699  13.886
98493W        W70109  34.045  30.889   3.698
98494W        W70110  33.594  34.502   4.231
98495W        W70111   4.270  37.572  14.279
98496W        W70112  15.643   5.197  14.233
98497W        W70113  31.180  44.510  12.913
98498W        W70114  30.947   9.753  14.432
98499W        W70115  19.211  10.253  13.547
98500W        W70116  15.246  21.251   4.490
98501W        W70117  23.048  38.098  11.145
98502W        W70118  11.453  41.215   3.729
98503W        W70119  44.962  14.192   3.289
98504W        W70120  27.787  11.742   1.811
98505W        W70121  27.414  38.943   4.655
98506W        W70122   1.204   6.217  14.899
98507W        W70123   3.824   8.169   2.328
98508W        W70124  28.606  35.043  13.915
98509W        W70125   4.211  42.227   4.148
98510W        W70126  35.389  14.276   2.674
98511W        W70127  30.112  44.829  11.021
98512W        W70128  33.967   5.565   4.069
98513W        W70129  43.094  35.040   2.756
98514W        W70130   5.185   5.257   4.171
98515W        W70131  19.062  44.545  11.056
98516W        W70132  27.578  31.159   3.798
98517W        W70133   5.680  39.978   3.869
98518W        W70134  11.647  26.218   3.775
98519W        W70135  24.237  14.727  13.928
98520W        W70136  12.867  28.737   3.478
98521W        W70137  25.953   8.764  14.371
98522W        W70138  25.322  17.188  11.508
98523W        W70139  33.409  13.294  11.954
98524W        W70140  43.830  30.033  10.776
98525W        W70141  27.676  27.476   0.897
98526W        W70142  19.654  34.653   0.573
98527W        W70143  41.882   4.465   1.545
98528W        W70144  11.562  18.109   4.687
98529W        W70145   4.460  29.028   0.904
98530W        W70146  40.678  31.959   4.682
98531W        W70147  28.504   5.360  12.068
98532W        W70148   6.234  11.874  14.785
98533W        W70149  18.822  29.562  10.810
98534W        W70150   8.538  17.088   3.763
98535W        W70151  20.734   2.200   3.275
98536W        W70152  22.277  38.720  12.688
98537W        W70153  20.002  20.618   0.976
98538W        W70154   7.280  20.991  12.465
98539W        W70155  15.114  32.996   4.127
98540W        W70156  19.710  15.628   3.741
98541W        W70157  25.545  24.525   3.680
98542W        W70158  43.460  11.403   0.640
98543W        W70159   1.770  14.160  13.152
98544W        W70160   2.322  40.227   0.360
98545W        W70161   8.226  41.079   0.309
98546W        W70162   2.265  26.068   1.361
98547W        W70163   8.809  41.965   4.303
98548W        W70164  34.487  29.618   2.687
98549W        W70165  35.001   1.714   2.172
98550W        W70166  43.065  39.491   3.712
98551W        W70167  32.522  23.473   0.847
98552W        W70168  13.381  18.951   1.692
98553W        W70169   9.091  20.239   2.711
98554W        W70170   5.704  16.192  13.697
98555W        W70171  17.885   3.192  11.508
98556W        W70172   7.974  10.051  12.641
98557W        W70173  20.067  39.313   4.552
98558W        W70174  15.332  43.751  14.044
98559W        W70175   5.100  38.061  13.355
98560W        W70176   4.232  23.818  10.121
98561W        W70177  41.216  25.119   3.348
98562W        W70178   1.347  24.014   0.905
98563W        W70179  31.147  10.317  14.945
98564W        W70180  39.333  34.990  12.194
98565W        W70181  29.586  21.889  14.062
98566W        W70182  25.677   8.371   0.693
98567W        W70183   8.017  37.326  13.386
98568W        W70184  36.485   3.840   0.193
98569W        W70185   9.720  25.947   1.804
98570W        W70186   7.072   1.819   4.638
98571W        W70187  27.732   0.371   3.267
98572W        W70188  27.316   1.320   2.227
98573W        W70189  17.569  33.458   4.133
98574W        W70190  39.533   0.679   2.328
98575W        W70191  15.863  33.520   2.695
98576W        W70192  28.353  24.294   0.470
98577W        W70193  33.705   7.247   4.349
98578W        W70194  10.770  14.021   4.228
98579W        W70195  12.210  42.838  11.962
98580W        W70196  19.694  40.277   0.685
98581W        W70197  41.807  40.005  13.591
98582W        W70198  20.443  25.599   4.490
98583W        W70199  41.235  39.096  11.879
98584W        W70200  16.024  12.224  14.482
98585W        W70201  38.668   4.689   4.922
98586W        W70202  23.159  15.060   0.863
98587W        W70203  13.378  15.779   2.320
98588W        W70204  35.459  31.862   2.970
98589W        W70205  25.443  39.358  12.877
98590W        W70206  17.736  36.162  12.447
98591W        W70207   6.622  23.988  12.597
98592W        W70208  20.775  21.485   1.232
98593W        W70209  38.923  13.133  10.587
98594W        W70210   0.261   2.001  13.051
98595W        W70211  43.442   6.414   4.634
98596W        W70212  33.453  38.878  13.996
98597W        W70213  41.989  18.722  13.065
98598W        W70214  20.173   5.248  10.699
98599W        W70215  41.899  42.011  11.178
98600W        W70216  32.034  15.428   3.664
98601W        W70217  16.672  39.046  14.896
98602W        W70218  44.057  12.239  12.469
98603W        W70219  27.431   9.316  14.979
98604W        W70220  13.139  25.305   1.678
98605W        W70221  27.179  38.096  13.911
98606W        W70222  24.755  28.054  11.623
98607W        W70223  24.703  34.900  13.371
98608W        W70224  19.135  29.862  13.484
98609W        W70225   4.442  11.944  11.055
98610W        W70226  15.821  39.954  14.021
98611W        W70227  25.624   4.185  13.805
98612W        W70228  16.413  37.699   1.715
98613W        W70229  32.499  20.653   3.357
98614W        W70230  40.111   5.672   2.394
98615W        W70231   3.537  42.466  13.034
98616W        W70232  29.448  44.150  14.014
98617W        W70233  10.240  42.819   2.705
98618W        W70234  15.108  38.432  10.781
98619W        W70235  10.222  28.651   3.439
98620W        W70236  30.617  29.399   0.102
98621W        W70237  20.794  38.997  11.495
98622W        W70238  22.786   8.154  13.648
98623W        W70239  14.811  35.514  11.539
98624W        W70240   1.539  36.479   1.898
98625W        W70241  43.547  23.048   2.671
98626W        W70242  35.041  41.345   1.255
98627W        W70243   7.309   3.199  10.630
98628W        W70244  19.569  38.114   2.284
98629W        W70245  15.027   0.455  10.777
98630W        W70246  19.466  41.901  13.412
98631W        W70247   5.627  31.110   4.709
98632W        W70248  19.598  35.579  11.998
98633W        W70249  24.922   6.654   2.977
98634W        W70250  33.128  15.996   2.259
98635W        W70251  15.374  39.022   0.922
98636W        W70252  21.403  12.718  14.887
98637W        W70253  37.321  26.938   3.139
98638W        W70254  25.342  19.721   4.098
98639W        W70255  35.381  17.466   1.882
98640W        W70256  27.788  26.709  13.512
98641W        W70257  13.306  34.697   2.396
98642W        W70258  35.369   1.506   0.278
98643W        W70259  33.193   7.715  13.970
98644W        W70260  42.554  18.091   1.402
98645W        W70261  10.821  44.757   0.837
98646W        W70262  14.955  43.226   4.457
98647W        W70263  26.513  38.411   3.558
98648W        W70264  34.966  28.006   0.959
98649W        W70265  11.683  25.460  12.982
98650W        W70266  21.201  21.950   0.335
98651W        W70267  20.335  37.003   1.288
98652W        W70268  18.018  21.118   3.245
98653W        W70269  10.629  13.831  13.389
98654W        W70270   6.336  25.682  12.826
98655W        W70271  32.467  32.799   1.707
98656W        W70272   8.196  35.393   0.853
98657W        W70273  44.778  29.016   3.533
98658W        W70274   6.667  12.784  11.498
98659W        W70275  43.801   2.756  11.136
98660W        W70276  18.099  44.774   0.416
98661W        W70277  31.812  12.824  14.953
98662W        W70278  31.362  42.745  12.432
98663W        W70279  43.825   5.701  13.577
98664W        W70280   2.011  11.853   0.938
98665W        W70281  18.080  36.854  13.584
98666W        W70282  36.505  28.898  14.844
98667W        W70283  32.081  16.709  11.141
98668W        W70284   8.944   5.301  12.971
98669W        W70285   2.272  13.964   2.138
98670W        W70286  36.890  36.069   4.304
98671W        W70287  43.291  36.074   2.641
98672W        W70288   0.892  15.076   4.175
98673W        W70289  34.949  15.669   1.464
98674W        W70290  11.202  42.494   1.417
98675W        W70291  36.985  34.361   3.629
98676W        W70292  43.181   9.722  13.834
98677W        W70293   6.992  25.527  14.380
98678W        W70294  43.322  35.643  13.112
98679W        W70295  39.855  13.661   1.815
98680W        W70296  11.266   6.006   0.942
98681W        W70297  12.927  12.755   0.033
98682W        W70298   5.222  16.356  11.954
98683W        W70299  16.732  26.058  12.833
98684W        W70300   2.389  19.110   4.532
98685W        W70301  15.208  31.951   2.630
98686W        W70302  14.933  23.195   2.851
98687W        W70303   2.766   2.626  11.083
98688W        W70304  14.379  29.578   4.987
98689W        W70305  33.654  20.700   4.895
98690W        W70306  31.160   3.417  13.915
98691W        W70307  41.093  26.495   2.750
98692W        W70308  29.928  36.453   2.611
98693W        W70309  35.936  27.149  10.638
98694W        W70310   5.613  15.188  11.997
98695W        W70311   1.496  41.460   4.782
98696W        W70312  30.246   8.335  12.802
98697W        W70313  22.519  16.918  11.595
98698W        W70314  21.317   4.435  14.078
98699W        W70315  39.481   3.817   5.198
98700W        W70316  17.159  44.979  11.137
98701W        W70317   1.355  23.235  14.985
98702W        W70318  44.759  26.165  10.779
98703W        W70319   2.333  25.175   2.345
98704W        W70320  13.831  34.884  11.644
98705W        W70321  20.776  22.938   1.180
98706W        W70322  40.202   0.400   0.424
98707W        W70323  39.528  29.594  11.968
98708W        W70324  10.387  18.614  13.406
98709W        W70325  22.661  17.082   2.553
98710W        W70326  36.498  19.203  13.019
98711W        W70327  26.001  40.047  11.973
98712W        W70328  22.698  23.106  13.484
98713W        W70329  34.552  35.646   2.899
98714W        W70330  22.231  44.482  11.551
98715W        W70331  38.071  35.895   0.923
98716W        W70332   3.807  42.368   1.849
98717W        W70333  40.562   7.499   4.143
98718W        W70334  44.260  14.916   0.307
98719W        W70335  36.626  28.025   4.563
98720W        W70336  37.482   3.774   0.755
98721W        W70337  38.858  10.374  13.981
98722W        W70338  33.476  26.927   0.704
98723W        W70339  10.664   8.188   2.867
98724W        W70340  11.546  27.484  12.855
98725W        W70341  23.730  24.403   1.394
98726W        W70342  43.851  31.438   0.983
98727W        W70343  21.578  35.788  14.351
98728W        W70344   2.168  17.950  12.909
98729W        W70345  19.247  22.266   0.585
98730W        W70346  38.155  31.047  12.081
98731W        W70347  20.142  43.159  10.857
98732W        W70348  18.045  35.511  13.281
98733W        W70349  21.263  17.231  14.470
98734W        W70350  20.512  39.920   0.459
98735W        W70351   3.135   5.721   0.487
98736W        W70352  38.122  15.714  12.568
98737W        W70353  31.090   8.566   4.502
98738W        W70354  41.400  20.082   0.298
98739W        W70355   1.770   2.721   3.080
98740W        W70356   6.235   4.673  10.276
98741W        W70357  28.937  41.302   0.686
98742W        W70358  20.992  42.320  14.563
98743W        W70359   6.554  17.331   3.581
98744W        W70360   3.099  25.637   4.952
98745W        W70361   0.730  22.400  12.290
98746W        W70362  30.463  16.316   0.304
98747W        W70363   0.345  16.926   2.151
98748W        W70364  25.649  38.512  12.575
98749W        W70365   5.646  44.934  11.004
98750W        W70366  39.858  12.106  12.414
98751W        W70367   2.285   1.486  12.699
98752W        W70368  39.575  23.711  14.501
98753W        W70369  19.743  16.211   1.237
98754W        W70370  18.177   9.563   0.254
98755W        W70371  10.925   6.838   0.619
98756W        W70372  18.535  41.262   0.337
98757W        W70373  24.902   9.402   1.686
98758W        W70374  23.698  16.593   1.463
98759W        W70375  10.178  23.222  14.333
98760W        W70376  14.489  33.526   3.293
98761W        W70377  20.619  26.519  12.371
98762W        W70378  21.038  34.646   2.834
98763W        W70379  22.658  44.649   1.851
98764W        W70380  26.159   6.518   2.074
98765W        W70381  30.735  13.183   5.300
98766W        W70382   7.981   4.009  13.398
98767W        W70383  44.304  39.055   5.107
98768W        W70384  18.125  10.851   0.956
98769W        W70385  23.294  41.147   0.848
98770W        W70386  14.560  37.912  12.604
98771W        W70387  37.870  25.004   3.811
98772W        W70388   8.385  24.738  10.732
98773W        W70389  19.234  18.965  12.460
98774W        W70390  24.122  27.868  12.542
98775W        W70391  32.986  16.890  11.498
98776W        W70392  11.666  29.023   0.828
98777W        W70393   1.025  41.017   4.146
98778W        W70394   9.138  35.570   1.106
98779W        W70395  11.618   5.098   1.278
98780W        W70396  30.885  22.631   0.817
98781W        W70397  13.643  23.135  14.207
98782W        W70398  39.979  11.583   3.830
98783W        W70399   4.097  36.409   0.360
98784W        W70400  21.507   4.282  11.599
98785W        W70401  25.698  39.488  13.315
98786W        W70402  26.545  28.068   2.720
98787W        W70403  17.738  25.622   2.447
98788W        W70404  31.107  42.280   4.557
98789W        W70405   3.474  12.803   2.394
98790W        W70406  18.660  13.546   4.197
98791W        W70407   2.660  41.493   2.653
98792W        W70408  27.998  35.667   3.646
98793W        W70409  25.256  31.872  13.914
98794W        W70410   2.300  21.141   0.465
98795W        W70411  14.308  21.027  11.336
98796W        W70412  35.704  38.925  14.379
98797W        W70413  34.744  34.627   2.412
98798W        W70414  35.520  27.110   1.480
98799W        W70415  21.041  24.102  12.546
98800W        W70416  32.871  31.057  13.005
98801W        W70417  44.365  42.781  13.811
98802W        W70418  11.274  32.562  10.715
98803W        W70419  11.255  23.539   0.352
98804W        W70420  39.554  15.147  12.466
98805W        W70421  18.738  30.592   4.974
98806W        W70422  22.970  22.988   2.628
98807W        W70423   5.395   4.689   1.862
98808W        W70424  26.230   7.137   2.850
98809W        W70425   1.208  13.621  11.006
98810W        W70426  28.090   7.385  12.342
98811W        W70427  32.132  31.150   5.055
98812W        W70428  27.362  40.344  13.931
98813W        W70429  12.277  35.298   1.145
98814W        W70430  30.487  37.905   4.567
98815W        W70431  36.026  17.015   3.259
98816W        W70432   2.163  10.644   1.344
98817W        W70433  34.049  30.935  14.548
98818W        W70434  17.788  14.710   0.941
98819W        W70435  32.359  27.033  11.919
98820W        W70436  19.407   7.212   1.244
98821W        W70437  40.971  41.013  13.731
98822W        W70438   8.560  19.800   0.101
98823W        W70439  12.065  34.538   3.357
98824W        W70440  10.708  28.647   3.232
98825W        W70441  14.493   9.294  12.473
98826W        W70442  32.393  19.778  10.946
98827W        W70443  26.616  25.005   1.344
98828W        W70444  43.338  38.583  12.861
98829W        W70445  37.879  11.284  13.851
98830W        W70446  25.649   3.905   3.256
98831W        W70447  35.884  37.226   0.843
98832W        W70448  19.674   7.687   3.167
98833W        W70449  39.162  39.037   2.702
98834W        W70450   7.701  35.682  10.457
98835W        W70451   1.987  14.937   3.595
98836W        W70452  18.883  36.487  12.449
98837W        W70453  11.150  21.660   2.425
98838W        W70454   7.250  43.490   2.887
98839W        W70455  31.053   5.400  11.640
98840W        W70456  29.676   1.345   3.162
98841W        W70457  33.745  20.204   3.589
98842W        W70458  12.589  18.427  11.988
98843W        W70459  10.288  15.188   3.995
98844W        W70460  21.540  32.446   3.324
98845W        W70461  34.988  39.856  13.866
98846W        W70462  17.189   8.236   4.438
98847W        W70463  14.980  32.927  14.586
98848W        W70464  28.075  27.770  11.560
98849W        W70465  43.458  30.840  11.603
98850W        W70466  37.425   2.398  14.961
98851W        W70467  20.741  25.953   4.215
98852W        W70468  18.471  21.655  12.477
98853W        W70469  39.844   2.963  11.159
98854W        W70470  36.800  14.554  11.281
98855W        W70471  42.762   2.148   3.643
98856W        W70472  15.137  20.995   0.963
98857W        W70473  22.135  42.226   3.078
98858W        W70474  33.981  10.468   2.797
98859W        W70475  28.706  35.363   2.291
98860W        W70476  21.048  26.977   4.080
98861W        W70477   5.335  27.432   2.281
98862W        W70478  41.958   2.665  14.755
98863W        W70479  18.624   1.193   0.479
98864W        W70480  43.684  34.534  13.505
98865W        W70481   6.202  22.266   0.348
98866W        W70482  36.691  24.633  14.334
98867W        W70483  37.723  44.426   1.010
98868W        W70484  28.273   3.224   0.887
98869W        W70485  18.093  15.735   1.778
98870W        W70486  20.527  40.803  13.499
98871W        W70487  39.398  19.724  11.203
98872W        W70488  43.577  17.698  12.526
98873W        W70489  35.891  19.900  10.583
98874W        W70490  26.553  11.034   3.547
98875W        W70491  38.566  42.718  13.111
98876W        W70492  36.588  16.662  13.991
98877W        W70493  32.381  44.379  14.936
98878W        W70494   3.424  30.521   2.817
98879W        W70495  37.038  31.978   3.781
98880W        W70496  21.268   7.754   1.815
98881W        W70497  18.378  25.786   4.086
98882W        W70498   5.200   3.813  13.494
98883W        W70499  28.812   1.681   3.590
98884W        W70500  39.184  22.077   4.077
98885W        W70501  15.589   4.698  14.333
98886W        W70502  37.422  28.261  12.474
98887W        W70503  33.052  43.060  13.052
98888W        W70504  27.679   2.251   2.780
98889W        W70505  24.746  15.766   1.407
98890W        W70506  20.728  29.040  14.922
98891W        W70507  19.759  38.978  12.231
98892W        W70508  33.638  25.003   4.543
98893W        W70509  29.893  29.778  11.123
98894W        W70510  41.528   0.356  11.560
98895W        W70511  38.690  10.834  12.947
98896W        W70512  42.049  21.649   3.428
98897W        W70513   6.637   1.357   3.873
98898W        W70514   6.313  18.444   2.230
98899W        W70515  10.513  21.790  13.116
98900W        W70516   1.950   2.479   1.279
98901W        W70517   9.121   6.155  13.067
98902W        W70518  28.634   0.927   4.164
98903W        W70519  15.060  15.362  12.013
98904W        W70520  24.100  19.747   1.321
98905W        W70521  11.703  38.371  13.611
98906W        W70522  40.736  40.375  14.429
98907W        W70523  25.132   3.143  11.630
98908W        W70524   7.764  13.348   1.808
98909W        W70525  35.274  44.053   2.938
98910W        W70526   7.281  28.143   3.771
98911W        W70527  12.703   8.860   3.363
98912W        W70528  43.477   9.141  11.228
98913W        W70529  29.949  15.915  11.188
98914W        W70530   7.667  16.138   1.304
98915W        W70531  36.102   5.261  13.890
98916W        W70532  21.235  12.659  14.408
98917W        W70533   5.997  24.775   4.252
98918W        W70534  33.807  14.315  11.209
98919W        W70535  29.712  43.793   2.391
98920W        W70536  28.622  15.256  13.033
98921W        W70537  31.064  30.959  12.314
98922W        W70538  42.043  17.663   2.813
98923W        W70539  12.856   0.503  11.498
98924W        W70540  44.829   6.957   1.751
98925W        W70541   6.046  41.828  12.990
98926W        W70542  44.816  31.001   0.785
98927W        W70543  18.889  41.345   4.562
98928W        W70544  12.268  42.125  14.536
98929W        W70545  41.907  44.706  11.088
98930W        W70546  22.531  12.118   3.830
98931W        W70547   6.250  13.343  14.750
98932W        W70548  31.926  33.333   1.687
98933W        W70549  43.381  13.071  14.755
98934W        W70550  15.685  23.717   0.597
98935W        W70551  20.578  19.244  14.891
98936W        W70552  21.728  14.063   3.723
98937W        W70553   5.704   2.356  10.684
98938W        W70554  42.949  26.157  12.489
98939W        W70555  14.235  18.051  13.595
98940W        W70556  21.771  37.310  13.578
98941W        W70557  20.485  10.899   1.376
98942W        W70558  19.194  20.586   0.784
98943W        W70559   0.576  31.202   0.317
98944W        W70560  26.297  44.278  13.427
98945W        W70561  21.963  16.067   0.134
98946W        W70562   6.210  25.358   4.961
98947W        W70563   1.025  21.549   3.680
98948W        W70564  41.071  11.738  11.446
98949W        W70565  18.109  18.505  14.354
98950W        W70566  36.674  24.409   1.906
98951W        W70567  39.845  36.769   2.316
98952W        W70568  43.232  33.774  12.467
98953W        W70569  14.234   2.054   4.195
98954W        W70570   5.913  25.006  11.518
98955W        W70571  18.807   3.428  12.149
98956W        W70572  21.408  29.047  11.843
98957W        W70573  12.603  35.537  13.399
98958W        W70574   6.455  21.499  13.063
98959W        W70575  16.306  22.613   0.894
98960W        W70576  35.368  38.820  10.166
98961W        W70577  20.120   9.436   2.258
98962W        W70578  36.579   2.521   3.620
98963W        W70579  20.925   8.691  12.858
98964W        W70580  36.608  19.025  13.528
98965W        W70581  39.117  25.670  10.637
98966W        W70582  26.032   4.446   2.672
98967W        W70583  32.639  22.806  14.804
98968W        W70584  18.774  18.468  14.475
98969W        W70585  34.485   8.834   2.502
98970W        W70586  31.921  10.817   4.169
98971W        W70587  22.340  32.087  13.435
98972W        W70588  30.103  27.071  13.239
98973W        W70589  24.612  21.789   2.948
98974W        W70590  32.521  43.565   1.571
98975W        W70591   8.282  13.059   1.127
98976W        W70592  31.010  36.768  10.767
98977W        W70593  21.763  16.246  12.877
98978W        W70594  40.897  32.402  11.692
98979W        W70595  28.837  40.787   0.682
98980W        W70596  26.339  27.011  14.909
98981W        W70597  26.455   2.817  14.309
98982W        W70598  41.545  35.304   4.740
98983W        W70599  35.996  44.003   2.417
98984W        W70600   9.657  16.691  11.182
98985W        W70601  35.268  13.046   4.873
98986W        W70602   2.500   1.371  11.058
98987W        W70603  39.487   5.790  11.901
98988W        W70604  26.060  28.167  12.129
98989W        W70605  23.012  19.088  13.434
98990W        W70606  38.271   8.210   3.659
98991W        W70607  42.366  11.795   2.659
98992W        W70608  40.698  42.788  12.072
98993W        W70609  10.797   3.340   1.534
98994W        W70610  33.197  17.690  13.911
98995W        W70611   6.179   4.879  12.943
98996W        W70612  36.885   7.719   4.399
98997W        W70613  35.388  23.638  12.540
98998W        W70614  12.427  17.651  13.874
98999W        W70615  36.033  42.919   1.240
99000W        W70616  29.160  29.729  10.541
99001W        W70617  32.875  41.945  13.690
99002W        W70618  14.723  43.503   0.611
99003W        W70619  37.313   7.252  13.975
99004W        W70620  29.862  42.397   4.286
99005W        W70621  32.815  41.036   0.980
99006W        W70622  39.012  21.690   0.934
99007W        W70623  44.106  38.874  10.350
99008W        W70624   1.110   4.142  13.002
99009W        W70625   6.786   2.725  13.576
99010W        W70626  24.310  11.855   2.581
99011W        W70627  37.356  26.021   3.016
99012W        W70628  42.048   9.304   0.274
99013W        W70629  34.503  12.871   1.948
99014W        W70630   1.121  40.946  11.085
99015W        W70631  28.618   7.149   4.167
99016W        W70632  28.605  37.845  12.435
99017W        W70633  12.739  30.975   3.748
99018W        W70634  19.501  40.090   0.242
99019W        W70635  18.024  22.643   2.253
99020W        W70636   3.000  20.041   2.846
99021W        W70637  43.488  33.066  11.125
99022W        W70638  14.358  35.031   3.360
99023W        W70639  41.397  32.207   2.836
99024W        W70640  24.270  18.991   3.142
99025W        W70641  39.347  20.925   4.688
99026W        W70642  29.493  26.462  10.700
99027W        W70643  30.526  41.948  10.964
99028W        W70644   8.412   6.245  11.187
99029W        W70645  38.503  43.097   3.832
99030W        W70646   6.951  36.257   3.683
99031W        W70647  10.865  32.386  11.011
99032W        W70648  17.595  28.687   0.297
99033W        W70649  41.864  16.163  14.800
99034W        W70650  33.539   0.383  14.791
99035W        W70651  24.272  33.980   2.261
99036W        W70652  16.687   7.969   0.379
99037W        W70653   4.246  25.957  11.979
99038W        W70654  17.736   2.949   2.746
99039W        W70655  28.716  27.028  11.531
99040W        W70656  40.469   4.355   4.220
99041W        W70657  20.573  28.057   1.692
99042W        W70658   3.116  14.200  14.073
99043W        W70659  24.500  37.128  12.969
99044W        W70660  34.053  23.268   4.705
99045W        W70661  44.509   3.700  13.327
99046W        W70662  18.766  42.733  11.123
99047W        W70663   5.385  36.481  11.112
99048W        W70664  28.679  12.464  13.320
99049W        W70665  14.251  19.788  14.035
99050W        W70666  28.565  21.205  10.532
99051W        W70667  25.962  21.545  11.482
99052W        W70668  24.669   7.276   3.762
99053W        W70669  26.828   2.726   1.756
99054W        W70670  14.624  12.209   4.699
99055W        W70671  17.252  16.244   0.293
99056W        W70672   2.718  17.995   4.233
99057W        W70673   9.844  22.757  11.929
99058W        W70674  23.982  16.904   3.252
99059W        W70675  42.029  10.612   0.275
99060W        W70676  10.682  42.267  12.062
99061W        W70677  11.289  43.949   3.715
99062W        W70678   5.744  10.537  12.956
99063W        W70679  44.725  19.253   2.591
99064W        W70680   6.631  28.201  10.639
99065W        W70681   2.392  31.351  12.991
99066W        W70682   3.090   7.933   1.288
99067W        W70683  28.751  24.058  10.540
99068W        W70684  23.740  15.204  13.435
99069W        W70685  31.750   6.579   2.889
99070W        W70686  40.319  22.604   1.877
99071W        W70687  21.216  18.518  14.881
99072W        W70688  43.298  38.301  12.418
99073W        W70689  14.505  30.316   4.023
99074W        W70690   0.026  19.532  13.437
99075W        W70691   9.852  37.620   1.254
99076W        W70692  42.314   1.853  12.459
99077W        W70693  34.362  35.458   0.968
99078W        W70694  33.049  23.590  12.084
99079W        W70695  31.421  17.205   4.174
99080W        W70696   6.311  22.986   4.810
99081W        W70697   5.616  19.193  11.201
99082W        W70698   4.786  32.591  14.845
99083W        W70699  25.496  35.267   0.798
99084W        W70700  21.855  18.974  10.465
99085W        W70701  41.424  14.543   3.123
99086W        W70702  11.229  14.885   4.136
99087W        W70703  36.272  31.135  11.624
99088W        W70704   3.406   3.167   0.479
99089W        W70705  15.526  27.129   1.860
99090W        W70706  32.424  39.572   3.200
99091W        W70707  31.176   6.286   0.473
99092W        W70708  38.056  32.093   4.585
99093W        W70709   4.613   1.965  13.369
99094W        W70710  15.547  34.533   4.493
99095W        W70711  24.091  36.827  13.043
99096W        W70712   5.655  23.953  13.947
99097W        W70713  11.094  33.033   3.158
99098W        W70714   2.876  13.627   2.598
99099W        W70715  20.397   0.029  13.374
99100W        W70716  13.079  41.775  10.227
99101W        W70717   1.928  34.081  10.705
99102W        W70718  15.360  15.547   5.440
99103W        W70719  22.606  29.756  10.302
99104W        W70720   1.406  39.417   2.835
99105W        W70721  13.604  24.413   2.770
99106W        W70722  15.057   0.376  14.890
99107W        W70723  10.004  44.263  11.624
99108W        W70724   4.787  22.717  12.613
99109W        W70725  18.500  32.711  14.332
99110W        W70726  37.811  36.098   4.161
99111W        W70727  10.569   2.702  10.655
99112W        W70728  15.228  12.561  14.452
99113W        W70729  12.291  21.202   4.130
99114W        W70730   0.432  16.887  12.011
99115W        W70731  17.061  43.513   3.629
99116W        W70732  16.073   2.763   3.126
99117W        W70733  39.388   7.137   4.519
99118W        W70734  11.823  40.876   4.952
99119W        W70735  39.671   3.805   1.729
99120W        W70736  30.430  19.994  13.421
99121W        W70737  36.157  43.734   3.332
99122W        W70738  27.901   7.890   4.915
99123W        W70739  20.015  21.521   1.888
99124W        W70740  21.127  13.786  12.108
99125W        W70741  44.714   2.781  12.439
99126W        W70742  36.464  17.695   4.764
99127W        W70743   1.863  25.068  12.937
99128W        W70744   7.070   7.375  12.871
99129W        W70745   9.316   7.171   3.156
99130W        W70746   8.302   5.308   4.553
99131W        W70747   5.214  35.568  11.649
99132W        W70748  21.085  11.257  12.941
99133W        W70749  28.692  14.628  14.753
99134W        W70750   6.269   5.310   0.673
99135W        W70751   9.087   2.778  11.108
99136W        W70752  22.903   2.462   1.028
99137W        W70753   8.403  44.704   0.445
99138W        W70754  19.537  32.408  14.348
99139W        W70755  36.742  25.593   0.281
99140W        W70756  24.512  42.982  12.559
99141W        W70757  18.733  19.519   3.299
99142W        W70758  17.631  41.426   1.434
99143W        W70759  19.149  43.268   0.598
99144W        W70760   7.303   1.397  12.152
99145W        W70761  16.521  10.480   3.566
99146W        W70762  22.798  20.484   2.203
99147W        W70763  42.727  22.088   1.379
99148W        W70764  44.011   6.235   0.449
99149W        W70765   8.724  27.681  11.839
99150W        W70766  23.664  25.002  13.700
99151W        W70767  12.433  35.094   0.322
99152W        W70768  34.477  32.870   4.338
99153W        W70769  10.706  33.475   2.895
99154W        W70770  42.313  17.555  11.491
99155W        W70771  29.727  29.479   0.369
99156W        W70772   4.740  10.271  11.422
99157W        W70773  14.762   4.322   1.404
99158W        W70774  21.974  38.181  13.989
99159W        W70775  20.042   0.144   3.704
99160W        W70776  20.177  37.835   2.848
99161W        W70777  16.940  34.988   1.938
99162W        W70778   1.417  31.313  12.006
99163W        W70779  12.773  34.133   4.324
99164W        W70780  16.278  40.700   0.956
99165W        W70781  16.861  34.457  12.464
99166W        W70782  44.501  43.604   0.386
99167W        W70783  26.456   3.765   0.157
99168W        W70784  20.029  39.642  11.647
99169W        W70785  24.586  29.983   3.631
99170W        W70786   6.167   5.211   0.185
99171W        W70787   9.921  29.151   2.863
99172W        W70788   8.454   0.200  11.493
99173W        W70789  38.036   4.293  14.779
99174W        W70790   8.385  16.176  11.580
99175W        W70791  31.951   5.878   0.237
99176W        W70792  34.173   2.663  11.833
99177W        W70793   9.802  33.525  10.632
99178W        W70794  44.885  35.065  11.664
99179W        W70795   0.027   9.266   1.340
99180W        W70796  37.734  13.923   3.410
99181W        W70797  21.739   9.310   0.174
99182W        W70798  34.010  16.045  13.277
99183W        W70799  44.890   1.030  10.720
99184W        W70800  35.607  42.406   4.822
99185W        W70801  22.918  10.851   0.399
99186W        W70802  17.109  11.280   4.500
99187W        W70803  14.287  11.765   4.646
99188W        W70804  16.692  40.259   4.749
99189W        W70805   8.206  27.534  13.046
99190W        W70806  31.686   1.463  13.886
99191W        W70807  43.993  43.898   2.230
99192W        W70808  38.550  32.031  12.902
99193W        W70809  34.073  16.882  14.836
99194W        W70810  21.688  16.328  14.306
99195W        W70811  13.183  21.337   3.167
99196W        W70812  37.367  27.013  10.678
99197W        W70813  33.445  23.433   0.800
99198W        W70814  30.986  38.726  11.113
99199W        W70815  18.675   5.254   4.726
99200W        W70816  42.816   5.318   1.027
99201W        W70817  36.060  23.745   0.278
99202W        W70818  20.275  22.900  14.894
99203W        W70819  30.875   1.789   1.612
99204W        W70820  26.595  30.094  12.453
99205W        W70821  32.030  17.233   5.432
99206W        W70822   8.642  42.234  12.718
99207W        W70823  23.592  40.252  14.850
99208W        W70824   3.456  13.968  10.991
99209W        W70825  33.562  16.082  12.512
99210W        W70826  43.404  39.874   3.629
99211W        W70827  26.268  31.013  11.980
99212W        W70828  28.596   1.830  11.652
99213W        W70829  43.757  16.540  11.874
99214W        W70830  20.816   5.495   0.930
99215W        W70831  17.766  38.552  13.626
99216W        W70832  14.115  18.863  13.892
99217W        W70833  33.364   8.417   1.370
99218W        W70834  38.851  30.477  11.582
99219W        W70835  40.627  29.081  10.666
99220W        W70836  41.841  41.479  11.972
99221W        W70837  19.622  25.093  11.645
99222W        W70838   7.550   6.311   5.231
99223W        W70839  26.770  35.722   4.587
99224W        W70840  38.018  21.355  14.482
99225W        W70841  16.801  35.469   2.791
99226W        W70842   2.977  34.032   3.329
99227W        W70843  22.231  36.456   0.562
99228W        W70844  44.596  21.152  13.039
99229W        W70845  29.476  43.027  14.670
99230W        W70846  16.662  10.111  12.970
99231W        W70847   4.891  13.724  13.040
99232W        W70848  41.609   7.137   0.484
99233W        W70849  29.061  16.566   4.898
99234W        W70850  30.116  18.587  14.820
99235W        W70851  11.377  10.811  14.766
99236W        W70852  15.171  20.794   0.032
99237W        W70853  29.630  36.803  13.039
99238W        W70854   3.763  18.871  12.900
99239W        W70855  15.578  27.093   4.179
99240W        W70856  26.746   9.199  13.100
99241W        W70857   2.675  17.279   0.128
99242W        W70858  31.094  22.963   5.025
99243W        W70859  22.795  42.018   2.452
99244W        W70860  16.837  43.878   2.865
99245W        W70861  40.969  42.349   2.796
99246W        W70862  19.295  21.747  11.933
99247W        W70863   4.887   0.647  14.528
99248W        W70864   8.231  40.069  11.671
99249W        W70865  35.450  20.030   3.612
99250W        W70866   3.510   7.606  11.601
99251W        W70867  13.003  20.638  13.386
99252W        W70868  18.713  44.303   5.535
99253W        W70869  31.165  18.802  11.206
99254W        W70870  30.647  12.733  12.403
99255W        W70871  33.446  26.116   4.090
99256W        W70872  25.721  41.288   0.336
99257W        W70873  22.462  31.545   1.758
99258W        W70874   6.730  14.788  12.168
99259W        W70875  17.342  11.627   3.249
99260W        W70876  13.429  43.550  12.053
99261W        W70877  40.131   4.583   4.544
99262W        W70878  26.577   8.146   3.307
99263W        W70879  41.474  11.167   3.606
99264W        W70880   8.524  25.253  14.993
99265W        W70881  19.638  37.964  10.685
99266W        W70882  33.870  16.408   4.384
99267W        W70883  22.772   9.813  12.439
99268W        W70884  15.344  27.433  10.943
99269W        W70885  15.612   1.865   2.787
99270W        W70886   6.019  17.144  14.076
99271W        W70887   0.896   4.269   0.463
99272W        W70888  29.128  42.387  12.573
99273W        W70889  40.801  32.074   0.434
99274W        W70890   3.832  10.213   1.289
99275W        W70891  28.750   3.245   0.685
99276W        W70892  43.463  21.565  12.409
99277W        W70893  27.525  41.012  11.068
99278W        W70894  10.357  17.733  11.659
99279W        W70895  19.112  44.945   2.769
99280W        W70896  41.021  31.510   3.309
99281W        W70897  26.510  38.514  10.740
99282W        W70898  27.685  39.278  13.588
99283W        W70899  11.676  27.967  12.668
99284W        W70900  12.922   1.091  10.645
99285W        W70901   5.820   7.812  11.497
99286W        W70902  39.011  27.629   1.455
99287W        W70903   6.114  29.489   4.226
99288W        W70904  20.621  35.919  14.060
99289W        W70905  25.121  25.448   2.689
99290W        W70906   5.300  28.421  10.748
99291W        W70907  13.112  25.821  11.152
99292W        W70908  19.407  12.700  13.593
99293W        W70909  16.300  39.891   4.096
99294W        W70910  24.702  38.124  12.863
99295W        W70911  31.378   8.213   4.194
99296W        W70912  41.981   8.372  14.286
99297W        W70913  43.938  10.358   4.097
99298W        W70914  11.703   0.538   3.842
99299W        W70915  31.618  21.689  12.163
99300W        W70916   8.637  23.654   3.221
99301W        W70917  16.131  40.742  12.827
99302W        W70918  11.256  30.703  11.649
99303W        W70919   8.450  17.660   1.487
99304W        W70920  19.271  16.038  12.475
99305W        W70921   1.023   0.677  10.220
99306W        W70922  43.212  24.230   5.193
99307W        W70923  32.813   7.799   2.832
99308W        W70924  35.738  34.001   0.502
99309W        W70925  14.840  17.793  10.687
99310W        W70926  32.543  42.564  11.080
99311W        W70927  30.058   6.347   3.764
99312W        W70928  12.189  24.496  14.487
99313W        W70929  42.270  43.014  14.420
99314W        W70930  42.104   4.264   2.537
99315W        W70931  38.539   6.739   4.039
99316W        W70932   6.843  16.731  13.880
99317W        W70933   7.259   0.446   4.112
99318W        W70934  14.157  43.498  13.978
99319W        W70935  25.190   9.882   4.693
99320W        W70936  19.312  32.502   1.821
99321W        W70937   1.578   9.885   0.940
99322W        W70938  43.821  10.962  13.326
99323W        W70939  15.309  17.594   1.122
99324W        W70940  23.500  35.919   3.284
99325W        W70941  36.541  34.319   2.872
99326W        W70942  33.867   5.483  10.589
99327W        W70943  39.056   5.491   2.099
99328W        W70944   1.334  35.576   2.268
99329W        W70945  21.302  19.748   0.767
99330W        W70946  31.369   1.085  13.751
99331W        W70947  37.657  27.670   1.167
99332W        W70948  18.068  35.366   2.203
99333W        W70949  33.008  33.862  10.627
99334W        W70950  42.606  44.841  14.268
99335W        W70951  22.043  12.592   2.878
99336W        W70952   8.308  31.330  13.755
99337W        W70953  32.944  40.752   1.419
99338W        W70954   3.844   4.312   3.633
99339W        W70955  44.201  38.933   1.299
99340W        W70956  33.337   1.311  13.254
99341W        W70957  10.883  44.252   0.788
99342W        W70958   1.040  24.381   2.749
99343W        W70959   5.844  24.857   2.382
99344W        W70960  11.208  32.601   1.511
99345W        W70961  24.997  15.565   2.327
99346W        W70962  27.981  18.661   3.701
99347W        W70963  22.537  44.045  11.463
99348W        W70964  32.519  24.583   1.600
99349W        W70965   7.813  21.701   3.726
99350W        W70966  24.093  32.375  11.295
99351W        W70967  33.371  38.862  12.887
99352W        W70968   9.645  10.674   2.730
99353W        W70969  33.349   1.491   1.278
99354W        W70970  14.916   7.181   1.754
99355W        W70971  14.327  40.077   3.961
99356W        W70972   6.128  33.726  13.874
99357W        W70973   9.546  26.553  13.302
99358W        W70974   6.861   8.884   2.669
99359W        W70975  20.266  21.592   2.343
99360W        W70976  23.465   5.260  13.544
99361W        W70977   8.023   4.750  12.460
99362W        W70978  25.160   8.706   4.855
99363W        W70979  13.966  15.692   0.483
99364W        W70980  10.195  23.741  14.375
99365W        W70981  24.259  42.594   3.672
99366W        W70982  31.450  44.917  13.109
99367W        W70983  14.542   0.280  11.830
99368W        W70984  16.950  44.099  10.666
99369W        W70985  27.941  30.518   0.480
99370W        W70986  16.790  10.445  12.073
99371W        W70987   3.347  36.400   2.160
99372W        W70988  44.436  40.761  12.405
99373W        W70989   4.407  44.687   1.510
99374W        W70990  16.225  38.826  13.806
99375W        W70991   7.324  24.015   1.888
99376W        W70992  10.132  39.454   3.143
99377W        W70993  20.174   1.483  10.738
99378W        W70994   4.486   9.265  13.963
99379W        W70995  10.791  30.011   2.195
99380W        W70996  14.752  41.682   0.019
99381W        W70997  33.831   7.229   3.835
99382W        W70998  38.553  34.798  11.234
99383W        W70999  26.616   3.870  10.536
99384W        W71000  29.527  23.963   2.328
99385W        W71001  39.467   4.843   0.563
99386W        W71002   4.309   4.175   2.889
99387W        W71003   8.396  11.404  14.686
99388W        W71004  15.859  12.323  11.333
99389W        W71005  19.731  29.641  12.856
99390W        W71006  44.896  29.572   4.639
99391W        W71007  19.998   1.977   3.751
99392W        W71008  21.904  16.616  13.411
99393W        W71009  21.681   7.062  11.529
99394W        W71010  25.506  28.899  11.747
99395W        W71011  27.085  20.082   3.927
99396W        W71012  27.038  34.419   0.369
99397W        W71013  13.331   0.463  11.691
99398W        W71014  11.692  19.102  14.739
99399W        W71015  28.134   6.803   2.183
99400W        W71016   6.656  19.634   3.302
99401W        W71017   7.805   1.950  14.186
99402W        W71018  19.278  16.845   0.810
99403W        W71019  11.719  11.454   2.311
99404W        W71020  16.246  33.338   0.792
99405W        W71021  12.283  24.539  11.543
99406W        W71022  27.975  33.849  10.701
99407W        W71023  10.885  20.504  13.766
99408W        W71024  26.334  13.052   0.087
99409W        W71025  21.697  33.785  13.961
99410W        W71026   1.786  38.896   3.823
99411W        W71027  38.463  40.488   0.169
99412W        W71028  11.769  14.247  14.046
99413W        W71029  14.584  35.544   0.761
99414W        W71030   6.749  19.177   1.921
99415W        W71031  14.651  19.069  11.038
99416W        W71032   2.815  24.260  14.786
99417W        W71033  12.512  28.144   3.144
99418W        W71034   6.670  15.606  11.532
99419W        W71035  39.005   7.271   3.168
99420W        W71036  10.917  39.884  12.749
99421W        W71037  42.700  17.855   0.932
99422W        W71038   0.376  26.674  10.278
99423W        W71039   3.127  23.413  11.099
99424W        W71040   8.259   1.462   0.795
99425W        W71041  36.582  26.225   1.382
99426W        W71042  39.278  33.454   2.816
99427W        W71043  23.905  35.958  11.962
99428W        W71044   7.195  40.038  12.517
99429W        W71045  41.998  30.202  11.611
99430W        W71046  21.554  31.041   4.594
99431W        W71047  10.588   2.623   0.045
99432W        W71048  31.158   6.160  10.955
99433W        W71049  29.498  26.669  10.220
99434W        W71050  18.425  16.185  13.472
99435W        W71051  27.410  28.508   3.685
99436W        W71052  44.865  43.788   0.710
99437W        W71053  11.139   9.376   1.845
99438W        W71054  17.258  20.106   1.143
99439W        W71055  32.455  14.564  10.710
99440W        W71056  15.738   0.808  12.945
99441W        W71057  40.364  13.642   0.054
99442W        W71058  11.614  37.958  10.843
99443W        W71059  38.717  13.020   3.024
99444W        W71060  40.774  40.587   4.223
99445W        W71061  42.508  34.342  11.437
99446W        W71062  17.158  20.283  11.449
99447W        W71063   3.462  10.683   2.944
99448W        W71064  32.545  17.186  11.450
99449W        W71065   9.738  23.486  14.771
99450W        W71066   2.029  29.741  11.752
99451W        W71067  37.476  35.820  13.589
99452W        W71068  44.832  15.620  12.968
99453W        W71069  11.712  14.197   1.776
99454W        W71070   3.205  42.775   0.302
99455W        W71071  37.886  28.029  12.581
99456W        W71072  35.384   5.746  13.335
99457W        W71073  28.476  21.666  13.448
99458W        W71074  36.060  21.120   2.737
99459W        W71075  16.016  32.932  12.382
99460W        W71076  30.632   8.578  14.516
99461W        W71077  29.707  42.257  13.499
99462W        W71078  20.554  13.862   3.365
99463W        W71079  14.168  11.722   0.895
99464W        W71080  44.035  11.640  11.702
99465W        W71081  31.895   9.946  12.192
99466W        W71082  23.983   1.416   4.236
99467W        W71083   1.605   4.352   2.267
99468W        W71084  43.573  22.854  13.983
99469W        W71085  21.433  40.791   0.508
99470W        W71086  12.386  30.075   2.692
99471W        W71087  44.003  36.438  11.407
99472W        W71088  44.409  20.827  14.794
99473W        W71089   5.849  26.940  14.310
99474W        W71090  39.651  13.827   4.093
99475W        W71091  24.724  38.728  10.790
99476W        W71092  34.564  41.808   4.472
99477W        W71093  26.212  14.962   3.173
99478W        W71094   2.048   6.688   2.755
99479W        W71095  28.896   6.409  11.425
99480W        W71096  15.268  21.775  12.977
99481W        W71097  42.264  27.622  10.758
99482W        W71098   4.682  43.801  11.064
99483W        W71099   1.226  20.636  13.428
99484W        W71100   5.855   5.209   2.414
99485W        W71101  32.482   2.659   0.282
99486W        W71102  11.690  10.278   2.905
99487W        W71103  16.784   7.368   0.964
99488W        W71104  17.345  34.156   0.653
99489W        W71105  15.736  34.085  11.021
99490W        W71106  37.101  13.808  13.485
99491W        W71107  25.576  18.207   1.794
99492W        W71108  22.358  36.256   5.023
99493W        W71109   7.345  39.002   2.239
99494W        W71110  12.302  11.589   0.289
99495W        W71111  37.835  19.519  11.607
99496W        W71112  38.959   6.471   2.319
99497W        W71113  28.146  25.189   2.600
99498W        W71114  39.888  28.949   3.169
99499W        W71115   7.738   4.221   3.282
99500W        W71116   7.916   9.549   0.212
99501W        W71117  22.992  12.731   2.802
99502W        W71118  15.162  26.621   1.227
99503W        W71119  36.461  19.268  10.431
99504W        W71120  34.971   8.238   3.116
99505W        W71121  20.897   2.805  11.967
99506W        W71122  42.502  28.867   0.424
99507W        W71123  22.782  41.047   0.762
99508W        W71124  18.656  31.703  10.514
99509W        W71125  36.382  27.034   0.453
99510W        W71126   4.900  31.186   3.342
99511W        W71127  31.233  17.556  12.470
99512W        W71128  36.091  31.638   3.977
99513W        W71129   1.987   0.795  10.636
99514W        W71130  17.792  18.987  14.907
99515W        W71131   8.666  42.708  12.485
99516W        W71132   1.877  10.352   2.226
99517W        W71133  13.578  39.077   4.144
99518W        W71134  15.306  30.131   3.657
99519W        W71135   8.291  20.714   2.816
99520W        W71136  27.932   8.982   4.266
99521W        W71137  17.593  33.905  12.964
99522W        W71138   5.165  40.538  10.753
99523W        W71139  44.984  34.451   3.283
99524W        W71140   5.814  19.770   4.890
99525W        W71141  26.021  25.784  11.101
99526W        W71142  14.504  14.448  12.058
99527W        W71143  26.658  23.719  13.350
99528W        W71144  41.078  37.867  11.058
99529W        W71145  39.065   9.389  14.861
99530W        W71146  16.013  13.292   3.706
99531W        W71147   4.126  10.641   1.219
99532W        W71148  22.239  16.696  13.817
99533W        W71149  11.600  16.430   0.536
99534W        W71150  14.822  17.245   3.645
99535W        W71151   5.355  40.016   4.765
99536W        W71152  37.112  24.311   1.629
99537W        W71153  35.332  44.040  14.931
99538W        W71154   2.294   1.813  14.249
99539W        W71155  37.030  35.854  13.340
99540W        W71156   1.305  28.504  10.629
99541W        W71157   4.186   7.447  12.665
99542W        W71158  22.137   0.876  14.317
99543W        W71159   7.438  43.483  12.530
99544W        W71160  37.923  13.647  10.105
99545W        W71161  32.059   6.842  11.543
99546W        W71162  30.155  21.376  12.422
99547W        W71163  34.961  12.348  14.722
99548W        W71164  38.500  37.363   0.377
99549W        W71165  16.243  16.516  13.865
99550W        W71166  39.496  41.927  14.321
99551W        W71167  33.464   6.599  12.027
99552W        W71168  26.951  31.680   3.711
99553W        W71169   3.322  23.371   2.881
99554W        W71170  20.514  11.582  11.658
99555W        W71171   0.795  42.504   0.652
99556W        W71172  25.016   5.864  11.074
99557W        W71173  31.313  12.924  11.589
99558W        W71174  36.459  17.194   3.603
99559W        W71175  37.429   3.066   3.588
99560W        W71176  15.250  16.377  14.992
99561W        W71177  36.633  14.116   3.210
99562W        W71178  36.604  32.099  14.797
99563W        W71179  17.538  24.156  10.770
99564W        W71180  16.665  12.325   2.431
99565W        W71181  19.722   2.322  14.194
99566W        W71182  38.575  35.128  14.727
99567W        W71183   0.399  21.271   0.856
99568W        W71184  33.103   0.290   0.025
99569W        W71185  15.963  29.746   0.299
99570W        W71186  31.976  40.456   4.050
99571W        W71187  15.521  15.136  13.550
99572W        W71188  42.893  41.959   2.135
99573W        W71189  33.372  12.332  11.541
99574W        W71190  17.051  42.047   0.857
99575W        W71191  41.223  18.070  12.067
99576W        W71192  35.128  16.282   0.848
99577W        W71193   4.236  28.806  12.531
99578W        W71194  37.118  37.915  12.167
99579W        W71195  24.022  36.842   4.186
99580W        W71196  10.245  12.027  11.522
99581W        W71197  32.883  26.046  14.801
99582W        W71198  11.831   9.137   4.230
99583W        W71199   8.518  37.256  13.541
99584W        W71200  35.563   4.912  12.327
99585W        W71201  13.359   4.653   1.873
99586W        W71202  31.628  21.283   4.520
99587W        W71203  44.487  33.581   0.925
99588W        W71204  36.534  17.764  14.470
99589W        W71205  24.020  30.105   3.264
99590W        W71206   4.075  35.512  12.244
99591W        W71207  19.071  24.769  13.976
99592W        W71208  38.870   0.045   2.423
99593W        W71209   0.479  33.252   2.841
99594W        W71210  15.752   0.097  11.894
99595W        W71211   4.382  19.224  14.740
99596W        W71212  35.325  15.076  12.457
99597W        W71213  39.725  10.795  11.167
99598W        W71214   3.922  37.951   4.812
99599W        W71215  22.085  31.161   4.517
99600W        W71216   0.013  19.244   2.163
99601W        W71217   2.495   8.142   3.126
99602W        W71218   9.379  22.398  13.940
99603W        W71219   5.385  26.701   3.685
99604W        W71220  39.159  20.697  10.693
99605W        W71221   0.845  12.333   3.081
99606W        W71222  42.810   3.656  11.250
99607W        W71223   3.919  27.583   4.667
99608W        W71224  23.114  36.518  13.035
99609W        W71225  12.659  42.512   3.704
99610W        W71226   7.860   4.344  14.112
99611W        W71227  18.125  38.546   1.370
99612W        W71228  21.768  15.603  14.911
99613W        W71229  25.889   0.064   1.748
99614W        W71230  10.194  23.185  10.783
99615W        W71231  11.515  41.931  13.966
99616W        W71232   6.514  28.099  13.407
99617W        W71233   7.732  43.849   1.143
99618W        W71234  27.937  32.986  10.579
99619W        W71235  11.256  39.437  11.423
99620W        W71236   4.563   4.852  12.067
99621W        W71237   3.402   8.812   2.782
99622W        W71238   8.363  40.938  11.659
99623W        W71239  42.969  14.521   0.419
99624W        W71240  30.147  21.265  11.914
99625W        W71241  35.083  32.853  13.738
99626W        W71242  21.466   7.112  14.745
99627W        W71243   8.107  10.149  14.834
99628W        W71244   0.710  30.103   3.325
99629W        W71245   7.595   0.076   2.421
99630W        W71246  28.225  30.440   4.176
99631W        W71247  28.684   6.240   3.716
99632W        W71248  32.691  34.364  12.511
99633W        W71249  42.435  34.657   4.003
99634W        W71250  25.203  20.592   0.344
99635W        W71251  43.568   7.834  14.769
99636W        W71252  44.073  17.797  12.495
99637W        W71253  43.530   5.345   1.624
99638W        W71254  22.879  18.673   1.829
99639W        W71255  14.707  14.259  12.835
99640W        W71256  10.169  22.777   4.136
99641W        W71257  38.800  39.865  11.227
99642W        W71258  13.717  13.383   4.672
99643W        W71259  37.624  42.338   1.476
99644W        W71260  32.131  25.455  13.473
99645W        W71261   5.212  42.326   4.242
99646W        W71262   8.353   9.425  11.834
99647W        W71263   0.306  15.750  13.298
99648W        W71264   3.704  26.741   3.959
99649W        W71265   1.966   0.403   0.457
99650W        W71266  38.490   5.220  12.422
99651W        W71267  30.130  14.622   1.978
99652W        W71268  11.328   4.768   3.580
99653W        W71269  14.339  23.356  12.590
99654W        W71270  21.601  28.552   4.508
99655W        W71271  31.204  14.316  11.161
99656W        W71272  38.590  11.795  12.074
99657W        W71273  33.249  19.990  13.525
99658W        W71274  13.603  44.993  11.659
99659W        W71275  38.457   1.714   0.779
99660W        W71276  44.531  15.123   3.178
99661W        W71277  28.999  35.450  12.593
99662W        W71278   1.731   3.442  13.093
99663W        W71279   7.198  11.147   1.638
99664W        W71280  11.871  42.438  10.635
99665W        W71281  25.139   7.171   1.428
99666W        W71282   8.833   9.823   0.813
99667W        W71283   6.384   5.677  13.342
99668W        W71284  41.021  13.285  10.696
99669W        W71285  12.061   6.438  11.044
99670W        W71286  43.330   6.322   3.710
99671W        W71287  41.514   1.447   1.805
99672W        W71288  16.065   6.399   3.313
99673W        W71289  31.868  36.068  13.197
99674W        W71290  23.999  25.291  13.456
99675W        W71291  35.536  18.607   1.895
99676W        W71292   5.320  27.591   1.285
99677W        W71293  20.093  42.573  12.353
99678W        W71294  42.536   5.526   0.281
99679W        W71295  41.053  42.939  10.608
99680W        W71296   2.175   8.271   1.308
99681W        W71297   3.278  24.613  14.927
99682W        W71298  37.284   2.258  11.516
99683W        W71299   3.427  12.332   2.626
99684W        W71300  17.794   6.873  13.676
99685W        W71301  22.173  40.972  11.677
99686W        W71302  11.783  37.478   1.943
99687W        W71303  24.964   6.837   3.888
99688W        W71304  25.003  42.087  13.502
99689W        W71305  38.287   0.730  14.037
99690W        W71306  41.167  23.438  11.007
99691W        W71307   0.473   1.269   4.315
99692W        W71308  15.630  12.764  11.122
99693W        W71309  38.942  24.077   4.496
99694W        W71310  20.240  15.556   4.157
99695W        W71311  22.012  32.992  12.439
99696W        W71312  36.484  24.934  12.902
99697W        W71313  22.583   3.597  10.827
99698W        W71314  40.708  18.952  14.376
99699W        W71315  31.053  43.353  13.227
99700W        W71316  25.910  10.363  12.430
99701W        W71317   5.745  28.042  12.310
99702W        W71318  27.674   4.722   4.580
99703W        W71319  13.746   2.772  10.735
99704W        W71320  21.478   6.117   4.179
99705W        W71321  36.602  24.717  14.866
99706W        W71322  28.577  20.838  13.975
99707W        W71323  12.723  34.442  14.303
99708W        W71324  12.765  18.102   4.414
99709W        W71325  10.124  40.335  14.791
99710W        W71326  31.104  34.192  14.965
99711W        W71327   3.275  10.271   2.695
99712W        W71328   9.248  16.118  10.617
99713W        W71329  19.015  12.760   1.876
99714W        W71330  17.241  34.479  14.377
99715W        W71331  25.149  40.257   0.391
99716W        W71332  43.320  28.757   0.515
99717W        W71333  35.440   0.842  11.104
99718W        W71334  35.311   2.030  12.377
99719W        W71335  33.504  15.585  10.732
99720W        W71336   9.002  12.400  11.449
99721W        W71337  35.896  40.273   1.689
99722W        W71338   2.751  21.723   5.041
99723W        W71339  19.498  19.946   3.741
99724W        W71340  34.436  13.123  14.242
99725W        W71341  30.977  43.672   1.803
99726W        W71342  44.721  34.453   1.872
99727W        W71343  29.649  43.998  13.220
99728W        W71344   7.399  44.103  13.424
99729W        W71345  32.370  11.048   1.192
99730W        W71346  30.561   0.764  13.963
99731W        W71347  33.634   5.693  10.101
99732W        W71348  32.853  24.597  11.497
99733W        W71349  44.826  16.038   3.486
99734W        W71350  36.329   9.158   0.798
99735W        W71351  31.066   2.637   1.332
99736W        W71352  12.114  32.433   2.806
99737W        W71353   4.545  33.291   1.428
99738W        W71354  38.107  39.936   3.787
99739W        W71355  12.822  31.649   0.416
99740W        W71356  22.088  43.168  13.479
99741W        W71357  23.440  30.519  14.004
99742W        W71358  21.007  35.182  14.571
99743W        W71359  41.006  31.585   2.231
99744W        W71360   3.952  23.578   0.042
99745W        W71361  21.364  14.951   3.605
99746W        W71362  27.733  12.620   4.475
99747W        W71363  19.193  10.615   0.320
99748W        W71364  20.527  22.271  12.428
99749W        W71365   4.906  10.155  10.397
99750W        W71366  15.655  43.780   4.172
99751W        W71367  13.116  31.326  13.959
99752W        W71368  10.477  25.103  11.456
99753W        W71369  26.521  16.776   0.163
99754W        W71370  33.070  44.392   1.381
99755W        W71371  14.757  20.672   2.156
99756W        W71372  19.626  41.422   3.806
99757W        W71373  11.859  14.610  12.810
99758W        W71374  34.921  30.072  11.985
99759W        W71375  35.259  23.850   3.105
99760W        W71376   0.266  21.123  13.700
99761W        W71377  17.634  19.756   1.755
99762W        W71378  30.652  30.997   5.100
99763W        W71379  27.583  26.255  11.080
99764W        W71380  24.659   6.435   0.335
99765W        W71381  43.149  12.211   0.060
99766W        W71382   1.583   0.387   5.486
99767W        W71383  31.772   6.608  14.594
99768W        W71384   2.337   6.926   2.392
99769W        W71385  28.728  29.631   0.267
99770W        W71386   4.306  40.785   3.362
99771W        W71387   0.249  38.805  11.307
99772W        W71388  10.179  23.130   0.415
99773W        W71389  34.208  42.466   3.751
99774W        W71390  12.142  38.725  12.859
99775W        W71391  27.760  21.148  13.420
99776W        W71392  27.511  15.050   4.244
99777W        W71393   9.014   0.313  10.670
99778W        W71394  24.190  29.370   0.940
99779W        W71395  12.681  27.175  14.089
99780W        W71396  43.455  12.818  13.766
99781W        W71397  25.354   9.387   1.898
99782W        W71398  31.709  39.013   4.237
99783W        W71399  36.144   1.439   2.594
99784W        W71400  20.740  28.005   4.638
99785W        W71401  28.531  21.237   4.498
99786W        W71402  10.737  35.805  11.538
99787W        W71403   8.989   2.403   3.223
99788W        W71404  31.398   1.786   1.505
99789W        W71405  36.121  35.240   2.799
99790W        W71406  11.687  13.068   4.119
99791W        W71407   7.530   9.418  14.908
99792W        W71408  26.939  41.397   1.186
99793W        W71409  21.259  10.914  11.413
99794W        W71410  15.792  40.237  14.893
99795W        W71411  26.626  44.278  12.032
99796W        W71412  16.799  20.662   2.350
99797W        W71413  25.558  13.414  12.597
99798W        W71414   3.934   1.011   5.063
99799W        W71415   9.596  33.875  10.280
99800W        W71416  22.723   7.913   1.904
99801W        W71417  44.518   3.741  14.712
99802W        W71418  22.023  24.091   2.189
99803W        W71419  30.101  39.459   0.398
99804W        W71420   8.117  24.741   0.461
99805W        W71421   8.164  15.644   3.460
99806W        W71422  26.935  21.708   1.524
99807W        W71423   8.666  44.075  12.841
99808W        W71424  31.495  44.203   2.279
99809W        W71425  39.934  37.554  14.185
99810W        W71426  38.420  33.434  10.871
99811W        W71427  38.007  26.389  11.111
99812W        W71428  11.057   7.843  14.818
99813W        W71429  18.601   0.348   3.612
99814W        W71430  10.451  26.105   2.830
99815W        W71431  22.501  41.536  10.662
99816W        W71432  29.170  14.833   3.214
99817W        W71433  14.994  26.151  14.930
99818W        W71434  36.639  42.845   4.146
99819W        W71435  26.712  17.647  10.539
99820W        W71436  20.086  33.901   4.639
99821W        W71437  19.906  16.748  12.100
99822W        W71438   3.267  18.719  13.048
99823W        W71439  36.759   9.342  11.044
99824W        W71440   4.280  27.518   3.195
99825W        W71441  43.279  10.128   2.810
99826W        W71442   9.390  10.748   2.260
99827W        W71443   7.383  41.479   0.772
99828W        W71444  29.183  28.947   2.426
99829W        W71445  10.037  29.620   4.560
99830W        W71446  15.674  16.771  10.613
99831W        W71447  27.204  10.138   2.300
99832W        W71448  18.156  22.074   1.123
99833W        W71449  31.096  39.802   3.279
99834W        W71450  24.528  39.377  12.050
99835W        W71451   1.643  24.332  14.423
99836W        W71452  41.613  23.462   4.561
99837W        W71453  27.745  40.043  13.837
99838W        W71454  32.661   0.868   0.772
99839W        W71455   4.169  31.470  13.844
99840W        W71456  30.561   5.305  14.880
99841W        W71457  34.980  14.372  13.923
99842W        W71458  25.370  33.937  10.755
99843W        W71459  23.176   6.911   1.309
99844W        W71460  20.236  21.708  14.270
99845W        W71461  37.068  20.676   1.195
99846W        W71462  18.162  27.458  14.229
99847W        W71463  38.404  27.929   4.972
99848W        W71464  27.093  38.555   4.392
99849W        W71465  41.913  38.697  12.888
99850W        W71466  40.912  29.035  11.141
99851W        W71467  21.756  28.960   2.308
99852W        W71468  27.495  14.438  14.480
99853W        W71469  12.676  11.178  11.153
99854W        W71470  33.492  19.516   2.737
99855W        W71471  19.155  28.137  12.526
99856W        W71472  12.220  35.019   3.199
99857W        W71473   4.369  29.614  12.094
99858W        W71474  44.850  34.553  10.759
99859W        W71475  44.792  29.346   0.084
99860W        W71476  19.550  20.793  12.100
99861W        W71477  39.051   1.441  11.974
99862W        W71478  38.191  31.639   1.410
99863W        W71479  27.618  24.993   4.834
99864W        W71480  41.567  24.421   4.699
99865W        W71481  27.566  16.371  10.197
99866W        W71482  29.143  20.781   2.684
99867W        W71483  43.757  40.350  11.425
99868W        W71484  34.098  28.907  12.920
99869W        W71485  22.614  22.711  14.139
99870W        W71486   6.412  13.764   0.026
99871W        W71487  41.790  38.374   4.151
99872W        W71488   1.888  27.703  10.687
99873W        W71489  44.357  41.952  14.936
99874W        W71490  43.042  10.028   1.171
99875W        W71491  28.737  25.108  12.872
99876W        W71492  37.793  29.156  10.064
99877W        W71493   2.940  33.817  12.741
99878W        W71494  34.498  39.571   3.102
99879W        W71495  41.336  41.252   2.672
99880W        W71496  35.836  24.208   3.718
99881W        W71497   4.452  41.899   3.830
99882W        W71498   6.979  16.442   0.306
99883W        W71499  42.524  27.472   4.146
99884W        W71500  41.956  23.541  14.005
99885W        W71501  44.467  13.642   1.300
99886W        W71502  16.311  32.892   2.332
99887W        W71503  19.138  44.192   0.019
99888W        W71504  13.536  20.791   2.667
99889W        W71505   7.876  10.041   1.978
99890W        W71506  13.053  20.509   1.925
99891W        W71507  31.261  40.680   0.034
99892W        W71508  35.011   9.357  11.670
99893W        W71509   5.803  14.640   2.610
99894W        W71510  16.510   0.886   3.257
99895W        W71511  30.525  15.662  13.006
99896W        W71512  36.108  32.240  12.526
99897W        W71513  20.393  21.691  14.759
99898W        W71514  29.690  28.598   0.701
99899W        W71515  43.042  32.168  11.087
99900W        W71516  27.665   5.181  14.928
99901W        W71517  27.106   8.101  14.124
99902W        W71518   8.242  29.115  14.312
99903W        W71519   7.725   1.858  11.594
99904W        W71520  25.212  16.551  13.060
99905W        W71521  25.497   5.092  12.989
99906W        W71522  14.508  44.089   1.245
99907W        W71523  21.667   4.331   3.552
99908W        W71524  30.289  25.532   4.217
99909W        W71525   4.889  11.943  12.136
99910W        W71526  21.431   3.346  12.564
99911W        W71527  16.236  16.604   2.870
99912W        W71528  17.110   9.306   1.868
99913W        W71529  33.057   4.913   4.531
99914W        W71530   7.679  19.947   0.518
99915W        W71531   9.217   8.285   4.186
99916W        W71532  17.153  23.688   2.136
99917W        W71533   7.664   4.945  11.607
99918W        W71534   1.304  27.201  12.025
99919W        W71535  35.308  39.772   0.318
99920W        W71536  42.827  36.937  11.903
99921W        W71537  11.454   1.341   3.605
99922W        W71538  17.720  16.337   1.771
99923W        W71539  34.508   9.364  13.893
99924W        W71540  33.440  29.908   4.108
99925W        W71541  33.761  43.296   1.713
99926W        W71542   3.957  35.559   4.544
99927W        W71543  23.646  39.255   3.130
99928W        W71544  28.565  38.966   0.728
99929W        W71545  28.670  29.926  10.856
99930W        W71546  36.820  32.002   1.690
99931W        W71547  27.942  28.095   1.911
99932W        W71548  28.035  28.350  10.744
99933W        W71549  41.186   0.996  12.644
99934W        W71550  41.053  10.466  14.352
99935W        W71551   5.430   3.681   4.156
99936W        W71552  35.107  33.133   3.685
99937W        W71553  27.009  41.874  12.113
99938W        W71554   2.870   8.371  14.387
99939W        W71555  37.809   6.169  10.746
99940W        W71556  10.134  10.646  13.519
99941W        W71557  35.792  43.802   4.498
99942W        W71558  26.238  40.631  10.705
99943W        W71559  31.920  44.190  12.444
99944W        W71560  25.026  38.726  13.194
99945W        W71561  43.499  16.839  14.544
99946W        W71562  30.397   8.375   2.746
99947W        W71563  38.421  17.108   0.928
99948W        W71564   0.138  11.704   2.681
99949W        W71565  13.117  32.447   0.287
99950W        W71566  38.386  27.952   2.900
99951W        W71567  40.791   7.309  10.381
99952W        W71568   5.634  18.291   4.125
99953W        W71569  44.931  34.023  12.508
99954W        W71570  28.914  43.382   3.394
99955W        W71571   5.292  19.323   3.330
99956W        W71572  28.762  16.134   3.721
99957W        W71573  42.372   6.657   0.721
99958W        W71574  16.623  24.300   2.218
99959W        W71575  24.924  28.693   3.885
99960W        W71576  41.498   1.944   4.945
99961W        W71577  43.824  40.303  14.395
99962W        W71578   9.136  33.394  11.961
99963W        W71579  27.574  21.190  12.925
99964W        W71580  34.316  25.680  14.472
99965W        W71581   2.092  30.856  14.298
99966W        W71582  29.098   8.317   4.337
99967W        W71583  40.424   2.142  12.457
99968W        W71584   7.507  26.067  10.682
99969W        W71585  31.211  44.271  10.652
99970W        W71586  39.350  24.762  11.006
99971W        W71587  37.408  20.798  12.508
99972W        W71588   1.880  14.095  11.428
99973W        W71589  21.032   9.990   2.338
99974W        W71590  11.229   5.352  13.882
99975W        W71591  38.773  40.947  12.620
99976W        W71592   1.602  19.577  12.397
99977W        W71593   8.255  33.136   0.024
99978W        W71594  42.987  36.279  10.709
99979W        W71595  43.860  26.653   3.325
99980W        W71596  44.319  13.764  13.928
99981W        W71597  20.445  20.731  12.085
99982W        W71598   5.009  33.033   3.166
99983W        W71599  18.630   5.192   3.179
99984W        W71600  32.662  23.231  11.126
99985W        W71601  31.374   7.815   4.579
99986W        W71602  33.236   0.261   1.316
99987W        W71603  22.015  43.791  14.956
99988W        W71604  15.708   0.479   4.972
99989W        W71605  14.830  37.539   0.823
99990W        W71606   3.763  23.585   4.286
99991W        W71607  12.142   5.211  10.595
99992W        W71608  23.139  12.187  11.141
99993W        W71609  33.233   0.925   4.982
99994W        W71610  39.497  32.627  14.925
99995W        W71611  21.999   6.156   3.312
99996W        W71612  11.209  10.415  11.729
99997W        W71613  39.044   5.829  12.937
99998W        W71614  33.499   2.018   3.142
99999W        W71615  10.666   3.280  11.886
    0W        W71616  23.017  40.306  10.876
    1W        W71617  32.033  18.065   0.971
    2W        W71618  39.728  16.218  11.044
    3W        W71619  24.031  28.624  13.046
    4W        W71620  38.494   0.982   1.827
    5W        W71621  20.611  32.903   3.685
    6W        W71622   2.387   1.305   4.094
    7W        W71623  33.098  36.577   1.178
    8W        W71624  12.077   7.502   4.663
    9W        W71625   4.279   7.229  13.564
   10W        W71626   3.667  34.850   4.178
   11W        W71627   9.639  34.813  13.534
   12W        W71628   7.251  33.799   2.755
   13W        W71629  42.964  18.057   4.561
   14W        W71630  44.717  27.981  11.671
   15W        W71631  41.760  36.350   3.299
   16W        W71632   4.409  31.810  13.359
   17W        W71633  14.558  43.949  10.657
   18W        W71634  21.173  31.912  14.860
   19W        W71635  27.964  35.889   0.974
   20W        W71636  27.817   7.484   3.874
   21W        W71637  40.364   8.909  13.811
   22W        W71638  43.568  34.922   9.704
   23W        W71639  18.198  16.875   4.049
   24W        W71640   6.817   0.943   2.102
   25W        W71641  35.095  13.114   4.377
   26W        W71642  38.496   8.835   4.478
   27W        W71643  29.485  32.197   0.167
   28W        W71644  31.787  39.225  12.082
   29W        W71645  17.274  42.212  12.713
   30W        W71646  22.707  35.325   4.957
   31W        W71647  16.613  35.638   2.350
   32W        W71648  37.100  20.210  11.468
   33W        W71649  11.598  24.442   2.169
   34W        W71650  15.531   7.300   3.227
   35W        W71651   2.054  29.135   0.180
   36W        W71652  12.362   4.031  11.495
   37W        W71653  35.964  26.304  12.048
   38W        W71654  29.506   6.785   4.365
   39W        W71655  32.009  33.679  12.058
   40W        W71656  28.067  10.162   1.794
   41W        W71657  28.441  39.870   3.385
   42W        W71658   1.447  22.057  12.108
   43W        W71659  32.843  33.437  12.439
   44W        W71660  25.467  24.203   1.962
   45W        W71661  37.204   9.851   1.841
   46W        W71662  27.595  13.936   4.136
   47W        W71663  38.419  36.418  11.515
   48W        W71664  24.227  38.335   2.687
   49W        W71665   6.746  15.187   2.694
   50W        W71666  17.808  39.363  12.602
   51W        W71667  34.423  23.614   0.742
   52W        W71668  20.105  30.922   3.806
   53W        W71669  44.384  27.155  10.806
   54W        W71670  33.601  23.841  11.439
   55W        W71671  13.279   2.361   0.364
   56W        W71672  19.018  24.243  13.899
   57W        W71673  35.953  27.436  13.415
   58W        W71674  20.694  44.861  14.576
   59W        W71675  17.516   8.199  11.630
   60W        W71676   1.410  29.783   0.648
   61W        W71677  22.681   2.871   4.122
   62W        W71678  41.234  24.746  13.556
   63W        W71679  40.889  10.572   3.899
   64W        W71680   1.867  18.600  13.448
   65W        W71681  26.613  32.967   4.961
   66W        W71682  15.413  17.573   0.569
   67W        W71683  33.395   3.836  14.397
   68W        W71684  34.008  17.316  12.949
   69W        W71685  42.828  15.641  14.351
   70W        W71686  37.923  28.192  13.586
   71W        W71687   5.053  39.509   1.401
   72W        W71688   9.878  36.290   4.686
   73W        W71689  11.390  18.529  12.505
   74W        W71690   8.790  19.572  12.581
   75W        W71691  11.206  29.622  13.696
   76W        W71692  11.265  43.334  14.340
   77W        W71693  16.676  42.575  13.944
   78W        W71694   8.219  30.014   1.184
   79W        W71695   9.811  43.546   4.652
   80W        W71696   5.530   9.067  13.822
   81W        W71697   6.688   1.038   3.064
   82W        W71698  41.038   4.434   1.383
   83W        W71699  20.997   3.243  12.828
   84W        W71700  28.061  26.573  14.966
   85W        W71701  38.045  10.750   1.315
   86W        W71702  19.764  32.414  12.567
   87W        W71703   4.870   8.799   1.032
   88W        W71704  38.097   8.803  12.772
   89W        W71705   5.436   3.246   1.858
   90W        W71706  15.494  42.879   4.816
   91W        W71707  19.737   3.976   1.704
   92W        W71708  16.030   7.604  14.348
   93W        W71709  19.158  40.816  14.908
   94W        W71710  26.550  26.469  13.019
   95W        W71711   5.970  37.563   3.665
   96W        W71712   5.431  34.233   4.213
   97W        W71713  38.044  25.792   3.220
   98W        W71714   0.133   4.855  13.250
   99W        W71715   6.259  34.614   2.264
  100W        W71716  20.094  44.796   4.090
  101W        W71717  13.776   1.214  13.537
  102W        W71718   1.224   3.293  12.624
  103W        W71719  13.615   2.311  13.858
  104W        W71720  17.959  36.308  11.135
  105W        W71721  36.829  21.125  10.643
  106W        W71722  20.122  17.604   3.349
  107W        W71723  32.506  23.566  11.469
  108W        W71724  12.624  36.388  14.248
  109W        W71725  20.929  39.805   4.189
  110W        W71726  12.065  24.966   4.132
  111W        W71727  33.943   2.396   4.089
  112W        W71728  43.271  32.110  12.078
  113W        W71729  10.347  38.510  13.446
  114W        W71730  26.003  23.144  12.354
  115W        W71731   1.409   6.526   1.262
  116W        W71732  29.379   7.811  10.575
  117W        W71733   9.422  15.055   0.890
  118W        W71734  44.444  29.762  11.029
  119W        W71735  22.339  21.716   2.234
  120W        W71736   2.727   9.276  14.369
  121W        W71737  31.744  15.097  13.473
  122W        W71738  14.686  11.110  12.039
  123W        W71739  15.336  11.815   4.634
  124W        W71740  29.082  27.650   1.153
  125W        W71741  27.637  33.131  14.426
  126W        W71742  36.274  12.237  13.061
  127W        W71743  27.481  18.991  14.285
  128W        W71744  16.400   4.709   4.577
  129W        W71745  43.443  44.201   0.758
  130W        W71746  24.123  11.459  11.009
  131W        W71747   6.428  32.828  11.509
  132W        W71748  37.577  34.833  12.061
  133W        W71749   0.764  19.884   4.252
  134W        W71750   1.348  37.981   2.616
  135W        W71751  19.450  36.935   0.962
  136W        W71752  36.790   2.439  14.358
  137W        W71753  21.833  42.706  12.332
  138W        W71754  33.458  42.329  14.823
  139W        W71755   7.467   8.743   0.294
  140W        W71756  27.932   2.652  14.704
  141W        W71757  34.760  27.556   0.820
  142W        W71758  19.241  11.229  12.583
  143W        W71759  19.857  35.944   3.850
  144W        W71760  40.645  11.636   3.403
  145W        W71761   0.839   9.562   1.292
  146W        W71762  37.565  42.826   0.335
  147W        W71763  13.271  15.109   1.865
  148W        W71764  33.059  38.109  12.960
  149W        W71765  41.733   4.946  11.954
  150W        W71766   1.951   5.822  11.790
  151W        W71767  12.919  31.457  11.501
  152W        W71768  41.897  32.120  13.919
  153W        W71769  28.033  39.401   0.313
  154W        W71770   9.396  27.993   3.032
  155W        W71771  32.068  25.963  13.200
  156W        W71772  27.671  19.498   2.299
  157W        W71773  25.751  25.715   4.140
  158W        W71774  38.319   5.137  13.829
  159W        W71775  16.554  19.673   2.631
  160W        W71776  40.272  14.428   3.034
  161W        W71777   5.483  15.354   4.559
  162W        W71778  23.983  44.302  11.948
  163W        W71779  44.791  22.239  12.524
  164W        W71780  42.362  14.081  14.055
  165W        W71781   3.400  44.607  14.822
  166W        W71782  12.832   0.831   2.341
  167W        W71783  21.044  27.331  14.182
  168W        W71784  22.553  15.541   1.979
  169W        W71785  18.153  36.763   4.287
  170W        W71786  14.741   4.219  11.438
  171W        W71787  42.460  18.961   4.007
  172W        W71788  27.056  12.785  14.969
  173W        W71789  23.176   5.155  13.991
  174W        W71790  37.579  17.614   3.679
  175W        W71791  34.907  43.316   0.817
  176W        W71792   5.291  23.151   3.966
  177W        W71793  12.440  23.626   3.343
  178W        W71794  20.759  37.883   3.167
  179W        W71795  22.557   1.284  10.070
  180W        W71796  26.424  29.636   1.822
  181W        W71797  26.248  16.782  10.560
  182W        W71798  44.940  17.136   3.271
  183W        W71799  32.852  15.637   5.030
  184W        W71800  41.461  15.539   3.162
  185W        W71801   1.734  41.777  14.826
  186W        W71802   8.170  27.107  13.387
  187W        W71803  28.521  22.063   4.130
  188W        W71804  12.912  28.117   2.718
  189W        W71805  35.328  41.359   4.068
  190W        W71806   9.385  27.559  14.073
  191W        W71807   4.007  22.058  11.067
  192W        W71808  16.477  29.546   0.209
  193W        W71809  18.214   7.920   2.321
  194W        W71810  14.273   6.376   0.807
  195W        W71811  24.030  30.269  12.984
  196W        W71812   6.065   9.074   3.043
  197W        W71813  44.766   6.885  13.911
  198W        W71814   5.826   4.353   1.349
  199W        W71815   8.595  36.809   1.253
  200W        W71816  37.484   0.775  11.386
  201W        W71817  13.517  14.761   0.442
  202W        W71818  37.355  31.772   5.078
  203W        W71819  13.723   4.354   3.092
  204W        W71820  23.666  36.556  12.448
  205W        W71821  13.307   6.782  10.577
  206W        W71822  11.038  14.247  11.092
  207W        W71823  42.839  12.612   4.133
  208W        W71824  39.520   6.181   4.653
  209W        W71825  11.144  13.721   0.203
  210W        W71826  37.230  20.525   2.554
  211W        W71827  31.051  35.157   4.201
  212W        W71828   9.206   1.897   3.271
  213W        W71829  28.335   7.700   4.607
  214W        W71830  41.558  25.617   2.681
  215W        W71831  17.639   5.908  13.424
  216W        W71832   9.802  41.993  14.426
  217W        W71833  10.214  37.732   2.777
  218W        W71834  40.227  35.910   4.605
  219W        W71835  37.296   2.237  13.497
  220W        W71836   1.794   4.387  12.537
  221W        W71837   4.362  42.380   3.662
  222W        W71838  34.948  18.226  14.029
  223W        W71839   7.726  42.003  10.771
  224W        W71840  27.561  28.480  14.672
  225W        W71841   3.826  36.361   2.389
  226W        W71842  18.171  18.305  12.126
  227W        W71843  31.469  11.843   2.636
  228W        W71844   2.707  14.986  11.532
  229W        W71845  20.835   0.482   4.259
  230W        W71846  26.636  25.737   2.706
  231W        W71847   4.047  22.667   5.548
  232W        W71848   0.447   2.645  12.006
  233W        W71849   3.139   2.001  11.884
  234W        W71850  21.178  23.471   3.742
  235W        W71851  10.566  39.452   2.818
  236W        W71852   0.304  40.403  13.548
  237W        W71853  31.102  31.451  11.569
  238W        W71854  23.654   6.359  13.028
  239W        W71855  31.691   5.743   3.269
  240W        W71856  12.750  24.232  10.614
  241W        W71857   6.848   9.343  14.546
  242W        W71858   3.467  30.815   1.605
  243W        W71859   5.296  28.635   1.443
  244W        W71860   5.001   3.984   4.230
  245W        W71861  22.238  34.839   1.449
  246W        W71862  36.659   0.864  12.275
  247W        W71863  26.856  19.211  13.003
  248W        W71864   9.725  11.119  13.862
  249W        W71865  15.111   0.071  11.116
  250W        W71866  40.986  15.813  12.849
  251W        W71867  37.832   3.718   1.774
  252W        W71868  15.223  25.555   3.411
  253W        W71869  37.657  29.557   1.685
  254W        W71870   0.465  15.635   2.348
  255W        W71871  28.169   4.344  14.408
  256W        W71872  42.623  20.320   2.908
  257W        W71873  12.680  41.296   2.063
  258W        W71874   4.056  38.261   3.403
  259W        W71875  35.422   5.368  12.607
  260W        W71876  28.924   6.133  10.513
  261W        W71877   7.489  25.441  14.459
  262W        W71878  18.209  20.211  14.919
  263W        W71879  36.293  32.644   2.334
  264W        W71880  29.468  30.902  14.574
  265W        W71881   3.806  35.028  14.450
  266W        W71882  31.174  17.042   2.229
  267W        W71883   6.602  15.200   3.220
  268W        W71884  31.079  26.996   2.861
  269W        W71885  22.158  27.611   0.440
  270W        W71886  42.330  11.104   2.123
  271W        W71887  30.498  17.319   0.318
  272W        W71888   2.530  34.249   4.117
  273W        W71889  28.503  44.885  14.501
  274W        W71890  19.627  17.192   1.374
  275W        W71891   6.988  39.109  13.892
  276W        W71892  23.931  23.804  13.475
  277W        W71893  19.628  25.248  13.606
  278W        W71894  22.339  23.651  11.196
  279W        W71895  13.802  31.570   3.237
  280W        W71896  43.785   8.408   3.197
  281W        W71897   0.675  31.961   2.401
  282W        W71898  20.489   2.746   1.478
  283W        W71899  10.329  38.543   3.189
  284W        W71900  21.697  41.024  10.685
  285W        W71901   5.224  30.857  13.773
  286W        W71902  43.215  35.660   3.820
  287W        W71903  32.853   7.234   0.447
  288W        W71904   5.762   8.289   0.484
  289W        W71905  27.831  30.572   1.362
  290W        W71906  38.613  42.435  12.470
  291W        W71907  34.086  42.832   2.852
  292W        W71908   1.299   8.579   4.865
  293W        W71909  39.572   8.831  12.406
  294W        W71910  35.782  23.587   4.742
  295W        W71911  25.863  20.082  10.792
  296W        W71912  23.951   3.623  14.855
  297W        W71913  33.658  36.032  13.771
  298W        W71914   6.340  16.688  14.092
  299W        W71915  15.278  17.103  12.540
  300W        W71916   5.301  41.424  13.350
  301W        W71917  42.481  28.456  12.801
  302W        W71918   8.080  23.674   2.322
  303W        W71919  18.694  28.550  13.715
  304W        W71920  37.183  19.707  11.367
  305W        W71921  14.244   1.077  11.223
  306W        W71922  38.998  12.775   1.747
  307W        W71923  29.966   0.886  11.989
  308W        W71924  12.672  12.202   3.165
  309W        W71925  38.346  15.921   3.215
  310W        W71926  12.171  21.662  10.710
  311W        W71927  26.118  43.338   2.620
  312W        W71928  20.266  22.040   0.101
  313W        W71929   1.267  19.624   2.634
  314W        W71930   7.921  16.692   4.280
  315W        W71931  15.507  37.528  14.380
  316W        W71932   6.696  14.275   3.098
  317W        W71933  13.634  31.979  10.593
  318W        W71934   7.309   0.395   3.580
  319W        W71935  41.632  36.528   0.413
  320W        W71936  17.394   7.398   4.681
  321W        W71937   5.253  19.477  11.556
  322W        W71938  36.647   7.132   2.826
  323W        W71939  44.792  30.866  13.791
  324W        W71940  21.789   8.919   1.413
  325W        W71941  27.197  20.254  12.083
  326W        W71942   4.516   2.694   2.705
  327W        W71943  26.150  37.069  14.851
  328W        W71944  33.383  24.317   0.428
  329W        W71945  14.744  28.029   1.742
  330W        W71946  39.382  39.312   4.127
  331W        W71947   8.675   3.813   0.395
  332W        W71948   8.660  18.821  13.103
  333W        W71949  38.012  40.498   0.405
  334W        W71950  36.980  16.032   4.245
  335W        W71951   8.596  10.873  12.509
  336W        W71952   4.698  29.094  11.863
  337W        W71953  12.879  23.629   0.866
  338W        W71954   0.867  41.395  13.060
  339W        W71955  15.731  42.185   2.720
  340W        W71956   9.875  40.292   4.147
  341W        W71957  14.712  14.835   4.450
  342W        W71958   2.409  40.330   3.217
  343W        W71959   3.723  41.406   2.703
  344W        W71960  44.396   9.664  14.589
  345W        W71961  42.601  13.468  11.053
  346W        W71962  35.154  29.874  13.378
  347W        W71963  37.158  33.896  11.556
  348W        W71964  34.277  19.257   0.481
  349W        W71965   9.326  11.674  13.651
  350W        W71966  44.678  39.050  14.832
  351W        W71967   8.089  13.051  10.906
  352W        W71968  35.415   9.028  11.650
  353W        W71969   9.385  22.543  12.010
  354W        W71970  30.792  25.459  11.081
  355W        W71971  19.504   8.804  11.408
  356W        W71972   3.837  39.262   2.209
  357W        W71973   1.555  24.268   2.662
  358W        W71974   6.837  37.449   0.405
  359W        W71975  44.811  19.104   4.297
  360W        W71976  19.501  16.693   2.224
  361W        W71977  30.448  27.347   3.761
  362W        W71978  15.613   4.673  11.584
  363W        W71979  39.921  40.253  10.746
  364W        W71980   8.202  38.454   1.873
  365W        W71981  37.750   7.885   4.116
  366W        W71982   5.962  15.478   0.132
  367W        W71983   7.784   2.908  14.331
  368W        W71984  12.373   3.286  12.606
  369W        W71985   4.174   4.803   4.728
  370W        W71986  43.945  39.891  11.364
  371W        W71987  15.280  39.271  14.918
  372W        W71988   7.844  39.934   1.557
  373W        W71989   3.263  18.328  11.493
  374W        W71990  21.848  12.355   2.077
  375W        W71991  20.461  20.557  10.699
  376W        W71992   1.072  37.317  10.082
  377W        W71993   6.791  26.467   0.401
  378W        W71994  28.596  22.083   1.735
  379W        W71995  17.587   9.851   3.560
  380W        W71996  11.816  14.193   3.613
  381W        W71997  40.563  29.602  14.582
  382W        W71998  29.288  41.906  12.543
  383W        W71999   1.846  41.442   4.349
  384W        W72000   6.898  29.154  12.473
  385W        W72001  40.202  43.093  12.914
  386W        W72002   5.969  26.052   2.766
  387W        W72003   2.613  35.419   1.893
  388W        W72004  43.216   6.569   4.188
  389W        W72005  12.790  39.461   4.048
  390W        W72006  33.194   1.676   2.818
  391W        W72007  30.394  19.720   1.845
  392W        W72008  21.500  26.286   2.399
  393W        W72009  34.048   5.497   3.270
  394W        W72010  20.937  23.109   4.441
  395W        W72011   4.923  15.032  11.186
  396W        W72012  27.382  25.471   1.393
  397W        W72013  27.081   5.101  12.089
  398W        W72014  42.537  38.889  13.345
  399W        W72015   5.361  16.270   2.256
  400W        W72016  19.704  28.597  10.718
  401W        W72017  35.061  10.545  12.573
  402W        W72018   2.368  24.728   1.767
  403W        W72019  11.793  16.474  10.678
  404W        W72020  42.435  20.902  11.452
  405W        W72021   4.397  36.771  13.843
  406W        W72022  33.476  28.996  13.548
  407W        W72023   9.054  40.054  12.321
  408W        W72024   8.208  30.485  14.867
  409W        W72025  26.651  37.776  12.074
  410W        W72026   7.759  10.629   1.735
  411W        W72027  15.262  17.180   3.237
  412W        W72028  11.718  32.103  11.484
  413W        W72029   1.011  22.163  13.195
  414W        W72030   0.339   5.749   4.556
  415W        W72031   5.466  27.563  13.921
  416W        W72032   1.531  14.233   1.741
  417W        W72033   7.650   4.201  10.824
  418W        W72034  43.680  38.484   1.772
  419W        W72035   5.366  19.214  14.956
  420W        W72036  16.323  18.722  12.067
  421W        W72037  10.304  11.751  14.290
  422W        W72038   8.584  12.820   1.511
  423W        W72039   0.280  37.393  12.496
  424W        W72040  16.181  24.041   2.102
  425W        W72041   0.052  21.782  14.303
  426W        W72042  19.079  42.995   2.370
  427W        W72043  40.545  42.948  10.459
  428W        W72044  38.549   3.409   1.401
  429W        W72045   9.680  42.695   3.683
  430W        W72046  40.710  41.255   2.205
  431W        W72047  37.355  22.143   4.805
  432W        W72048  30.097  42.412   0.989
  433W        W72049  30.487  33.555  12.005
  434W        W72050  13.231  16.277  13.015
  435W        W72051   7.300  15.729   2.927
  436W        W72052  12.785  11.897  14.243
  437W        W72053  35.049  31.821  13.827
  438W        W72054  30.105   2.823  14.459
  439W        W72055   0.522  35.819  13.491
  440W        W72056  12.957  33.068  11.081
  441W        W72057   7.022  28.546   2.850
  442W        W72058   3.225  23.596   4.400
  443W        W72059  42.858  36.111   0.393
  444W        W72060  12.849  33.988   3.406
  445W        W72061  21.479  12.933   2.796
  446W        W72062   4.301  25.363  13.037
  447W        W72063  25.036   2.853   3.894
  448W        W72064  13.767   5.703  13.961
  449W        W72065  30.280   4.554   0.382
  450W        W72066  17.130  21.688   3.352
  451W        W72067   6.861  25.014   0.827
  452W        W72068  11.100  37.569   4.424
  453W        W72069  12.662  19.813  12.017
  454W        W72070  23.020  40.866   1.885
  455W        W72071  18.182  16.103  13.910
  456W        W72072  10.501   7.746  12.428
  457W        W72073  40.397  27.668  10.793
  458W        W72074  30.163  31.671  12.572
  459W        W72075   7.353  40.696   0.338
  460W        W72076   2.465  30.754  12.665
  461W        W72077   0.600  12.178   4.866
  462W        W72078  30.053  38.988   1.327
  463W        W72079  34.981  18.083  11.994
  464W        W72080  27.119  16.665  13.802
  465W        W72081  34.364  14.990  14.368
  466W        W72082  13.852  25.129  14.073
  467W        W72083   0.932  13.174  12.456
  468W        W72084  14.147  39.728  14.441
  469W        W72085  30.098   7.639   1.762
  470W        W72086  29.891  40.817   3.417
  471W        W72087  35.905  29.597   0.984
  472W        W72088  42.874   1.508  13.808
  473W        W72089   2.997  15.280  14.821
  474W        W72090   2.858  43.900  11.931
  475W        W72091   1.051   5.959  11.071
  476W        W72092  21.432  26.578   0.055
  477W        W72093  26.052  44.096  11.634
  478W        W72094  33.948   3.607  11.496
  479W        W72095  27.551  13.788   0.457
  480W        W72096   6.437   9.627   4.529
  481W        W72097   6.356  29.397   2.332
  482W        W72098   1.345  15.367  13.768
  483W        W72099   7.612   4.257   2.777
  484W        W72100  12.019  33.017  11.419
  485W        W72101  21.272  44.086  14.415
  486W        W72102  23.965  24.201  13.974
  487W        W72103  31.555  44.452  13.829
  488W        W72104  33.322  29.027   1.821
  489W        W72105   2.233  10.074  11.553
  490W        W72106  32.847  23.946   4.190
  491W        W72107   4.964  35.557  10.663
  492W        W72108   6.094  12.172   0.389
  493W        W72109  12.071   0.732   2.705
  494W        W72110  34.077   4.954   3.246
  495W        W72111   1.025   9.048   1.403
  496W        W72112  20.102  16.441  13.430
  497W        W72113  35.816  17.617   1.641
  498W        W72114  33.037   0.545   0.473
  499W        W72115   0.896  11.023   1.421
  500W        W72116   4.737  26.174   3.310
  501W        W72117  26.132  12.091  11.652
  502W        W72118  10.623  36.392   2.934
  503W        W72119  36.350  19.932  12.389
  504W        W72120  33.441  21.546   3.433
  505W        W72121  21.626  38.457  13.046
  506W        W72122  11.845  22.474  13.846
  507W        W72123  28.412  27.958  14.085
  508W        W72124   4.443  11.396   4.801
  509W        W72125   4.223   3.227   4.056
  510W        W72126  23.992  27.219  12.861
  511W        W72127  43.427  22.578   2.004
  512W        W72128  33.962  25.900  13.019
  513W        W72129  43.966  22.161   3.652
  514W        W72130  36.861  42.867   0.522
  515W        W72131  20.272  37.466   0.470
  516W        W72132  29.546  11.083   2.333
  517W        W72133  36.870  17.806  12.848
  518W        W72134  17.407  38.495  14.897
  519W        W72135  19.683  23.129   2.633
  520W        W72136  39.526  10.377  11.414
  521W        W72137  15.530  24.290   4.171
  522W        W72138  28.992   2.017  11.129
  523W        W72139  17.530   8.712   1.776
  524W        W72140  33.511  39.820  11.276
  525W        W72141  18.776   4.974   1.841
  526W        W72142  13.474  26.371  13.019
  527W        W72143   1.523  35.462   4.588
  528W        W72144  34.296   3.726   4.418
  529W        W72145  31.501   7.582   2.848
  530W        W72146  24.419  41.408   4.529
  531W        W72147  36.399   0.037   0.537
  532W        W72148  15.094  30.579  14.842
  533W        W72149  43.427  21.515   4.556
  534W        W72150  27.363   4.198  13.095
  535W        W72151  34.138   1.165   5.423
  536W        W72152  25.608  14.788   1.342
  537W        W72153  27.982  14.788  10.591
  538W        W72154   1.505   6.255   4.597
  539W        W72155   8.292  36.673  12.118
  540W        W72156  41.913  35.513  13.874
  541W        W72157  32.542  12.653  12.617
  542W        W72158  42.002  33.487   4.569
  543W        W72159  24.638  15.260   4.591
  544W        W72160  17.824   6.467   0.809
  545W        W72161  41.547  19.471  11.856
  546W        W72162  28.625  31.926  11.001
  547W        W72163  12.863  14.792  13.756
  548W        W72164  38.997  39.571   1.337
  549W        W72165  14.646  34.327  10.731
  550W        W72166  11.352  13.723  10.442
  551W        W72167  40.356  34.010   1.263
  552W        W72168  25.674  38.164  13.548
  553W        W72169  36.595  43.985   4.322
  554W        W72170  25.119  11.640  11.553
  555W        W72171  18.557  27.722  10.998
  556W        W72172  16.878  38.053   1.833
  557W        W72173  13.221  44.437  10.887
  558W        W72174  24.093   0.393   3.737
  559W        W72175  23.305   2.936   0.802
  560W        W72176  26.451  14.150  11.294
  561W        W72177   1.648  43.342   4.012
  562W        W72178   8.315   1.374   1.878
  563W        W72179  24.187  34.607   4.784
  564W        W72180  39.843  10.610   1.057
  565W        W72181  37.243  22.237  14.977
  566W        W72182  10.276  35.096  11.147
  567W        W72183  12.679  10.977   2.238
  568W        W72184   7.776  13.601   4.242
  569W        W72185  31.605   8.370   2.410
  570W        W72186  39.733  20.088  13.004
  571W        W72187  33.774  39.341  11.719
  572W        W72188  13.445  31.059   4.942
  573W        W72189  41.053   7.160   1.352
  574W        W72190  28.339   0.669   1.439
  575W        W72191  32.467   2.044  13.427
  576W        W72192   9.357  23.992  11.090
  577W        W72193  39.416  14.063   4.508
  578W        W72194   6.889  36.234  13.285
  579W        W72195  37.365  37.969   1.604
  580W        W72196  33.161  17.187   1.869
  581W        W72197   3.749   6.273   4.901
  582W        W72198  32.424  25.915  13.627
  583W        W72199   6.265  41.089  14.776
  584W        W72200   5.087  26.169  12.097
  585W        W72201  25.573  29.893  11.703
  586W        W72202  26.457   5.436  13.811
  587W        W72203   9.959   6.152  13.839
  588W        W72204  27.242  21.677  10.734
  589W        W72205   8.827  11.743  12.959
  590W        W72206  26.192   3.392   4.667
  591W        W72207  39.804  32.045  14.405
  592W        W72208  29.937  27.533  11.922
  593W        W72209  36.837  10.548   5.618
  594W        W72210  15.247   5.418   3.655
  595W        W72211   3.879  37.436  13.775
  596W        W72212  25.622  22.277   0.893
  597W        W72213  18.206  42.455   3.603
  598W        W72214  12.899  15.962  10.262
  599W        W72215  18.664   9.681   3.243
  600W        W72216   3.395  13.261  11.518
  601W        W72217   5.280  14.633  14.113
  602W        W72218  34.619  42.194   3.611
  603W        W72219  36.497  37.077  14.825
  604W        W72220  41.839  24.558  14.806
  605W        W72221  32.035  20.048  11.201
  606W        W72222  10.362  31.474  13.386
  607W        W72223  15.399  30.378  13.857
  608W        W72224  26.887  12.064  12.441
  609W        W72225   1.976   7.293  13.457
  610W        W72226   7.109  31.837   3.198
  611W        W72227  27.416  14.701   2.585
  612W        W72228  38.040   5.865  14.055
  613W        W72229  10.265  32.169   2.680
  614W        W72230  16.356  28.471  14.446
  615W        W72231   4.990  26.717   4.518
  616W        W72232  29.266   5.294   3.339
  617W        W72233  18.237  42.475   4.136
  618W        W72234  32.326   8.207   0.473
  619W        W72235  29.621  17.234   1.280
  620W        W72236  37.741   5.268   2.643
  621W        W72237  40.419  24.226  11.627
  622W        W72238  32.461  15.667  14.227
  623W        W72239  39.300  34.536  11.018
  624W        W72240  30.856  20.637  10.764
  625W        W72241  16.278  32.336  15.000
  626W        W72242  25.051  26.159   0.866
  627W        W72243  25.190  37.440  10.693
  628W        W72244  15.734  29.174  12.565
  629W        W72245   7.256  12.492   2.715
  630W        W72246   0.354  44.826  12.528
  631W        W72247   9.815  36.814   4.601
  632W        W72248   3.178   2.036   3.569
  633W        W72249  34.408   2.142  14.425
  634W        W72250  39.000  40.251   4.758
  635W        W72251  43.461  40.905  14.286
  636W        W72252  21.979  13.085   2.730
  637W        W72253  25.705  43.021  12.038
  638W        W72254  19.192  16.518   4.530
  639W        W72255  36.668  44.205   0.926
  640W        W72256  29.260   2.892   2.249
  641W        W72257  25.581  25.458   3.700
  642W        W72258   6.233  31.599  12.894
  643W        W72259  39.899  30.778   2.237
  644W        W72260   3.681  21.816   0.900
  645W        W72261  41.258  41.834  12.559
  646W        W72262  31.084   0.922   4.371
  647W        W72263  21.995   0.022   3.697
  648W        W72264  23.542  34.183   2.784
  649W        W72265   9.912  44.711   1.915
  650W        W72266   5.787   2.500  14.853
  651W        W72267  41.444  31.447   4.682
  652W        W72268  18.602  35.617  13.928
  653W        W72269   2.063  21.984   3.036
  654W        W72270   5.779  30.116  10.724
  655W        W72271  26.723  12.355   4.686
  656W        W72272  42.033   4.554  13.798
  657W        W72273  35.106  35.547   4.610
  658W        W72274  19.688   3.705   3.110
  659W        W72275  34.555   2.647   3.347
  660W        W72276  36.869  22.283  13.358
  661W        W72277  27.387  32.216   0.378
  662W        W72278  18.616  30.015  10.668
  663W        W72279  17.244  30.319   0.265
  664W        W72280  12.548  33.586   1.686
  665W        W72281  38.551  29.006   2.409
  666W        W72282   3.775  15.714   1.730
  667W        W72283  31.213  21.130  13.117
  668W        W72284  31.822  38.769   5.292
  669W        W72285   6.294  34.990   1.421
  670W        W72286  18.813   1.355   2.916
  671W        W72287   8.035  22.109   2.199
  672W        W72288  17.646   9.622   3.094
  673W        W72289   4.121  41.763   1.863
  674W        W72290  12.584   8.133   1.805
  675W        W72291  42.085  37.429   0.997
  676W        W72292   7.668  42.043  13.995
  677W        W72293   0.320  34.125   4.000
  678W        W72294   6.358  42.059   2.943
  679W        W72295  37.558  15.655  14.007
  680W        W72296  40.831  39.408   3.415
  681W        W72297  13.868  38.511   2.457
  682W        W72298  29.527   5.295  13.350
  683W        W72299  17.526   7.060  12.878
  684W        W72300  17.878  17.389   3.746
  685W        W72301  32.346  14.333   1.332
  686W        W72302  30.510  20.692   0.673
  687W        W72303  27.778  12.297  13.446
  688W        W72304  14.305   9.208   1.160
  689W        W72305  40.509   7.947   1.752
  690W        W72306   5.727  39.142   2.342
  691W        W72307  37.958   5.759   0.331
  692W        W72308  36.348  11.778   2.805
  693W        W72309  12.768  29.045  11.164
  694W        W72310  16.349   9.779  12.545
  695W        W72311   9.304  11.159  13.541
  696W        W72312  34.808  33.571  12.558
  697W        W72313  29.929  40.898  11.115
  698W        W72314  17.575  39.298  12.153
  699W        W72315  38.995  33.446  13.510
  700W        W72316  40.397  44.651   4.984
  701W        W72317  23.866  30.918   3.685
  702W        W72318  24.523  35.369  13.516
  703W        W72319   5.518   1.077   3.209
  704W        W72320  34.192   0.328  12.002
  705W        W72321   0.338  21.601  13.346
  706W        W72322  14.860  11.837  11.002
  707W        W72323   9.291  30.160   1.916
  708W        W72324  23.966  39.992  12.371
  709W        W72325  39.605   7.911  12.454
  710W        W72326   0.511  34.189  13.899
  711W        W72327  21.619  24.624   4.150
  712W        W72328   8.839   5.466   3.362
  713W        W72329  13.244  11.791   1.498
  714W        W72330   1.699  14.578   0.855
  715W        W72331  28.413  41.930  13.563
  716W        W72332  28.130  42.880  13.015
  717W        W72333  37.921  27.259   4.779
  718W        W72334   1.392  10.703   2.654
  719W        W72335  35.551   7.878   0.396
  720W        W72336   9.766   1.453  10.945
  721W        W72337  31.192  29.434  13.568
  722W        W72338   6.971  28.054  11.001
  723W        W72339  28.602  26.756   5.126
  724W        W72340  15.597  16.580   2.326
  725W        W72341  15.555  24.205   0.384
  726W        W72342  32.171   2.407  12.493
  727W        W72343  20.215  32.753  10.970
  728W        W72344  42.417  20.667   0.409
  729W        W72345  29.524  23.768  11.559
  730W        W72346   7.173   4.191   1.896
  731W        W72347  30.403  14.333   1.305
  732W        W72348   7.892  30.087   2.420
  733W        W72349  11.707  44.884  12.817
  734W        W72350  37.550  38.304   1.180
  735W        W72351  26.100   1.716  11.654
  736W        W72352  32.354  12.410  11.412
  737W        W72353  44.305  11.436   3.708
  738W        W72354  39.757  41.384   4.512
  739W        W72355   8.194  42.856   1.646
  740W        W72356  37.029  35.481  12.990
  741W        W72357  44.117  44.651  13.848
  742W        W72358  14.212   8.895   4.269
  743W        W72359   4.785  19.467  10.689
  744W        W72360  32.861  21.174  11.093
  745W        W72361  29.757  37.628  10.258
  746W        W72362  22.736  22.269  13.869
  747W        W72363   2.743  44.377  14.083
  748W        W72364   9.169  33.475   1.289
  749W        W72365  34.441  43.505   2.776
  750W        W72366   0.157   0.146  11.050
  751W        W72367   5.647  42.307  14.451
  752W        W72368   7.359  20.000  13.910
  753W        W72369   2.403  12.250  12.720
  754W        W72370  27.537  13.123   1.156
  755W        W72371  19.902  28.274  12.873
  756W        W72372  14.102  35.045   3.805
  757W        W72373   6.014  32.708   2.206
  758W        W72374   8.863   5.007   2.669
  759W        W72375  30.546  37.818   0.144
  760W        W72376   0.289   8.371  14.250
  761W        W72377  12.062  32.564  14.346
  762W        W72378   9.230  42.930   2.776
  763W        W72379  36.291  11.782  14.856
  764W        W72380  28.994  25.708   3.842
  765W        W72381  36.012  39.895  13.022
  766W        W72382  44.870  28.899  14.801
  767W        W72383  19.810  12.732   3.822
  768W        W72384  30.645   7.322   2.982
  769W        W72385  26.493  29.455   0.810
  770W        W72386   5.403  18.765  14.715
  771W        W72387  13.847  37.062   1.952
  772W        W72388  38.463  20.500   3.112
  773W        W72389   2.059   1.853  12.985
  774W        W72390  18.710  42.165  13.348
  775W        W72391   6.936  42.445   1.392
  776W        W72392  33.169  14.536  11.335
  777W        W72393  43.470  15.118  13.297
  778W        W72394  23.301   6.815  14.434
  779W        W72395  34.159   2.067   3.641
  780W        W72396  28.014  17.674  11.515
  781W        W72397   6.211  40.343   0.949
  782W        W72398  42.244  32.589  11.167
  783W        W72399  16.099  29.028  12.243
  784W        W72400  44.225   3.241  13.346
  785W        W72401   6.149  29.080  13.562
  786W        W72402  40.935  43.074   3.283
  787W        W72403  21.607  15.326   4.319
  788W        W72404  12.177  43.802   1.995
  789W        W72405  16.079  39.981  10.555
  790W        W72406  22.510   2.169   0.390
  791W        W72407  20.701  27.011   1.983
  792W        W72408  10.241  40.964   2.935
  793W        W72409  40.481  26.700   0.750
  794W        W72410  20.621   8.301  14.580
  795W        W72411  39.436  24.535   2.776
  796W        W72412  24.061   1.869  11.751
  797W        W72413  26.552  40.678   4.285
  798W        W72414  40.595  13.746  11.157
  799W        W72415   0.827  19.006   0.637
  800W        W72416  22.529   8.334  12.658
  801W        W72417   6.951  18.687  11.539
  802W        W72418  23.317  25.556  14.987
  803W        W72419  19.017  28.388   3.126
  804W        W72420   2.482   7.336   3.727
  805W        W72421  31.080  23.044   4.223
  806W        W72422   9.157   8.668  11.142
  807W        W72423  41.117  30.987   4.685
  808W        W72424  11.481  11.466   1.857
  809W        W72425  22.073   4.768  11.082
  810W        W72426  44.291  18.788  11.170
  811W        W72427  21.603  22.097  12.011
  812W        W72428   7.221  10.659   2.446
  813W        W72429  22.708  20.956   1.970
  814W        W72430  17.786  42.119  13.944
  815W        W72431  27.971   4.705   2.357
  816W        W72432  12.819   7.590  10.599
  817W        W72433   1.344  28.439   0.878
  818W        W72434  15.207  36.796   4.387
  819W        W72435  26.986  20.474  14.983
  820W        W72436  33.877  10.263  11.569
  821W        W72437  44.842  10.395   0.666
  822W        W72438  24.031   2.222   1.746
  823W        W72439  15.034  14.384  11.975
  824W        W72440  13.878  35.865  11.395
  825W        W72441  25.454  24.213   4.300
  826W        W72442  21.904  36.025   0.086
  827W        W72443  41.531  27.201   1.218
  828W        W72444  18.993   4.920   0.929
  829W        W72445  18.547   3.255   0.508
  830W        W72446  18.213   9.812   0.701
  831W        W72447   2.430  12.439   3.654
  832W        W72448  28.535  21.093   4.001
  833W        W72449  28.344  21.143   0.941
  834W        W72450   8.835  33.541   2.133
  835W        W72451  26.778  42.063   1.501
  836W        W72452  19.182  35.867  12.121
  837W        W72453  41.213   4.162  11.654
  838W        W72454   2.334   2.310  12.037
  839W        W72455  14.181  27.247  12.533
  840W        W72456  16.444  31.356  12.093
  841W        W72457  28.097  30.179   1.171
  842W        W72458  30.087   9.252   4.134
  843W        W72459   0.316   5.989  11.422
  844W        W72460  29.254  40.381  14.861
  845W        W72461  39.845  15.392   2.660
  846W        W72462  18.106  22.674   3.149
  847W        W72463  43.831  25.199   4.437
  848W        W72464   7.668  41.664   0.075
  849W        W72465  14.387  18.432  13.944
  850W        W72466  13.093  39.546   0.860
  851W        W72467  26.728  36.310  13.982
  852W        W72468  11.761  32.759  13.787
  853W        W72469  24.717   1.881   2.910
  854W        W72470  24.644   7.437  12.907
  855W        W72471  22.612  43.017   4.959
  856W        W72472  27.071   5.907  14.423
  857W        W72473  27.051  22.644   2.210
  858W        W72474   2.386   4.475  14.260
  859W        W72475  13.854  10.805  11.557
  860W        W72476  37.937  39.772   4.249
  861W        W72477  34.976  16.798  14.939
  862W        W72478  32.271   1.339   1.215
  863W        W72479   4.793   5.954   1.333
  864W        W72480   5.271  21.492  11.107
  865W        W72481  42.326  29.877   0.168
  866W        W72482   4.969  39.625  12.100
  867W        W72483  14.544  25.460   0.315
  868W        W72484   4.284  25.213   4.567
  869W        W72485  28.588  20.581   3.899
  870W        W72486   9.552   6.709  12.500
  871W        W72487  43.277  38.969  11.406
  872W        W72488   0.722  31.584  13.550
  873W        W72489  40.795  14.706  13.941
  874W        W72490  16.068  31.124  14.289
  875W        W72491  40.907   7.355  12.705
  876W        W72492  15.312   5.766   0.423
  877W        W72493  35.427   8.606   4.521
  878W        W72494  36.319  20.736  12.974
  879W        W72495   1.901   4.985   1.484
  880W        W72496  20.095  14.179   0.188
  881W        W72497  18.089  19.941   3.254
  882W        W72498  43.281   4.503  12.066
  883W        W72499   8.371   7.859   4.409
  884W        W72500  16.985  12.279   0.358
  885W        W72501  22.000  42.384   0.777
  886W        W72502  34.866  13.377  13.110
  887W        W72503  15.193  43.038  13.464
  888W        W72504   0.540  10.398  11.856
  889W        W72505  39.111  27.225  13.141
  890W        W72506  31.675  29.176   4.668
  891W        W72507  11.367  33.838  11.988
  892W        W72508   9.371  41.360  10.721
  893W        W72509  21.957   1.881   4.628
  894W        W72510   2.444  14.944   1.318
  895W        W72511   6.691   6.953   3.677
  896W        W72512  16.114  36.774  12.169
  897W        W72513   6.865  34.990   4.099
  898W        W72514   8.300  30.830  11.668
  899W        W72515  34.613   5.868  12.512
  900W        W72516  34.558  29.104   2.671
  901W        W72517  20.026   5.297   2.811
  902W        W72518  35.019  21.198  14.045
  903W        W72519  15.619  25.522  12.856
  904W        W72520  37.829  23.167   1.898
  905W        W72521  21.253  30.210   1.238
  906W        W72522   8.949  16.682   2.122
  907W        W72523   3.758  33.608   3.283
  908W        W72524  14.385  36.147   2.386
  909W        W72525   5.160  12.612   4.199
  910W        W72526  13.715  20.517  12.099
  911W        W72527  43.558  37.044   1.823
  912W        W72528  18.754  21.285  12.725
  913W        W72529  27.333  23.825  13.969
  914W        W72530   9.713   1.085  12.902
  915W        W72531   4.743  41.876   0.348
  916W        W72532  26.642  23.987   1.399
  917W        W72533   9.569  15.799  10.070
  918W        W72534  15.360  43.528   4.561
  919W        W72535  32.873  13.808  12.988
  920W        W72536  17.789  11.862  13.448
  921W        W72537  25.721  32.332  13.112
  922W        W72538  32.338  12.586   4.040
  923W        W72539  19.629  43.046  13.572
  924W        W72540  40.555  19.747  12.939
  925W        W72541  31.607  23.848   0.708
  926W        W72542  39.942  37.962   2.551
  927W        W72543  20.035  11.850   1.448
  928W        W72544  31.416  16.356   4.490
  929W        W72545  23.733  15.677  10.747
  930W        W72546  40.934  14.278  14.226
  931W        W72547   5.215   3.436  12.331
  932W        W72548  25.041  24.244  13.425
  933W        W72549  11.452  43.647  13.614
  934W        W72550  17.313  41.428   0.084
  935W        W72551   0.471   3.824  13.393
  936W        W72552  40.287   9.714  11.958
  937W        W72553  34.750  19.155   0.245
  938W        W72554   9.864  41.268  12.102
  939W        W72555  22.559  43.780   1.698
  940W        W72556  32.131  10.795  11.600
  941W        W72557  27.528  33.565   1.688
  942W        W72558  13.604   4.057   4.489
  943W        W72559  18.837  37.822  13.461
  944W        W72560  27.474  31.488  11.540
  945W        W72561  39.791   8.888  11.947
  946W        W72562  20.796  26.746  13.025
  947W        W72563  11.620  28.740   1.775
  948W        W72564  12.265  32.301  13.959
  949W        W72565  13.213  17.779   1.373
  950W        W72566  15.788  20.062   5.210
  951W        W72567  33.575  16.276   2.205
  952W        W72568  43.374  24.891  14.506
  953W        W72569   4.381  40.779   1.689
  954W        W72570  34.693  26.713   1.271
  955W        W72571  28.248  10.878   4.034
  956W        W72572  34.601  29.557  12.517
  957W        W72573  38.097  16.188  12.095
  958W        W72574  43.416  24.263   4.324
  959W        W72575   2.407  17.603  11.192
  960W        W72576  19.537  43.375  13.138
  961W        W72577  32.340  31.782  12.817
  962W        W72578  10.265  20.001  11.937
  963W        W72579   4.490  24.989   2.843
  964W        W72580   2.425  15.131   2.775
  965W        W72581  32.506  17.293   4.489
  966W        W72582  24.190  40.438  13.605
  967W        W72583  36.522  28.713  13.513
  968W        W72584   2.513  33.560  12.158
  969W        W72585  40.749   6.709   1.377
  970W        W72586  33.959  22.490  14.726
  971W        W72587  20.982  23.010   3.413
  972W        W72588  39.803  22.345   2.536
  973W        W72589   7.963  29.517  13.439
  974W        W72590  40.357  42.108  14.532
  975W        W72591  23.224  43.050   0.019
  976W        W72592  26.483   5.759  10.608
  977W        W72593  14.732  40.491   3.354
  978W        W72594   4.039  32.889  13.565
  979W        W72595  15.352  15.837   4.997
  980W        W72596   8.189  43.761  11.537
  981W        W72597   4.789  22.222  10.902
  982W        W72598  19.646  10.626   2.655
  983W        W72599  16.280  20.112  13.047
  984W        W72600   0.019  34.020   3.600
  985W        W72601  35.929   8.195   0.832
  986W        W72602  19.034  29.547  14.743
  987W        W72603  13.824  40.753  13.811
  988W        W72604  19.303  16.593   0.360
  989W        W72605  15.079  18.989  12.369
  990W        W72606  14.836  39.149  10.732
  991W        W72607  40.382   1.519  11.660
  992W        W72608  16.194  23.998  10.715
  993W        W72609  17.796  17.313   2.158
  994W        W72610  44.027  14.234  10.910
  995W        W72611  25.096  13.272  14.154
  996W        W72612  44.745   9.159  13.382
  997W        W72613   8.946  11.425   4.185
  998W        W72614  37.041   9.312  12.028
  999W        W72615  18.711  33.411   5.100
 1000W        W72616   9.445  32.540   2.919
 1001W        W72617  19.303  13.662   0.927
 1002W        W72618  35.504  18.533  13.541
 1003W        W72619   1.160  33.910   3.948
 1004W        W72620  16.710   4.374  10.682
 1005W        W72621   1.319   9.763   1.383
 1006W        W72622  14.659  12.329   4.128
 1007W        W72623  41.000  15.259   2.270
 1008W        W72624  10.542  38.565   2.719
 1009W        W72625  44.276   7.773   4.590
 1010W        W72626   2.717   4.908  11.623
 1011W        W72627  12.562   5.814  12.020
 1012W        W72628  26.681  21.290  11.814
 1013W        W72629  28.048  21.726  14.406
 1014W        W72630  32.315  22.145   0.176
 1015W        W72631   4.079  43.375  12.079
 1016W        W72632  24.735   6.345   2.168
 1017W        W72633   2.347  14.573  13.492
 1018W        W72634  24.980  24.077   1.846
 1019W        W72635  13.756  33.384   0.217
 1020W        W72636  22.970  29.111  12.789
 1021W        W72637  30.381  18.076  13.619
 1022W        W72638  12.327  15.821   2.274
 1023W        W72639  30.400   6.925   4.328
 1024W        W72640  31.187  44.985  10.310
 1025W        W72641  36.078  29.826  11.134
 1026W        W72642  36.922  38.039   1.284
 1027W        W72643   4.651  25.129   2.330
 1028W        W72644  21.495  21.625   0.069
 1029W        W72645  30.540   7.674   2.143
 1030W        W72646  13.391  24.419   0.658
 1031W        W72647  31.138  13.354  14.022
 1032W        W72648  38.020  29.757  10.750
 1033W        W72649  18.304  24.243   0.007
 1034W        W72650   0.911  11.118   3.342
 1035W        W72651  28.928   7.769   2.961
 1036W        W72652  33.334  24.391  11.623
 1037W        W72653   5.984   4.999  12.482
 1038W        W72654  42.998  30.121   1.614
 1039W        W72655  10.188  22.715  14.323
 1040W        W72656  23.229  12.295  10.637
 1041W        W72657  31.812   5.836  13.000
 1042W        W72658   7.737   2.335   4.544
 1043W        W72659  13.697  42.482   0.762
 1044W        W72660   8.036  17.301   5.090
 1045W        W72661  19.683  24.968  12.685
 1046W        W72662   9.057  15.579   3.133
 1047W        W72663  41.461   4.322   4.905
 1048W        W72664  19.644   2.809   0.409
 1049W        W72665  28.883  37.548  12.064
 1050W        W72666   1.289  39.649   3.291
 1051W        W72667  18.221  28.989   0.757
 1052W        W72668  40.974  42.836  12.899
 1053W        W72669  36.087   9.439  10.621
 1054W        W72670  25.907  11.351   4.185
 1055W        W72671  34.199  24.623   1.896
 1056W        W72672  39.397  25.184   0.673
 1057W        W72673  11.516  17.595  11.232
 1058W        W72674  32.086  38.594   1.870
 1059W        W72675  36.930  24.100   4.580
 1060W        W72676   5.473  33.613  14.788
 1061W        W72677  41.475  43.978   4.173
 1062W        W72678  42.071  14.897  12.518
 1063W        W72679   6.782  41.213   3.770
 1064W        W72680  11.515  41.932  12.903
 1065W        W72681  40.169  27.056  11.568
 1066W        W72682  16.706  38.666   2.203
 1067W        W72683  35.280  24.683   0.740
 1068W        W72684   4.810  15.614  13.479
 1069W        W72685  43.750  29.605   2.207
 1070W        W72686  36.419  41.503  11.440
 1071W        W72687  38.570   7.430  13.503
 1072W        W72688   9.812  26.867   2.995
 1073W        W72689  26.083  27.430  14.607
 1074W        W72690  23.225  36.577   1.203
 1075W        W72691  28.693  38.492  13.019
 1076W        W72692  36.522  27.151  13.952
 1077W        W72693  23.370  28.079   4.158
 1078W        W72694   2.634  23.431  11.028
 1079W        W72695   3.279  41.574   4.551
 1080W        W72696  43.340  25.397   1.331
 1081W        W72697  24.526  36.340  12.370
 1082W        W72698  15.440  27.784  14.410
 1083W        W72699  43.354  42.556   4.794
 1084W        W72700  25.059  23.465  10.778
 1085W        W72701   8.448  31.919  11.631
 1086W        W72702  43.435  37.693   5.027
 1087W        W72703  17.107  15.259  11.998
 1088W        W72704  25.028   1.480   2.707
 1089W        W72705  25.600  30.965  12.975
 1090W        W72706  18.770  39.969  11.852
 1091W        W72707   2.947  39.316  11.672
 1092W        W72708  21.070  10.827  14.855
 1093W        W72709  22.007  32.275   4.619
 1094W        W72710  35.632  44.183   2.102
 1095W        W72711  35.857   1.773   2.340
 1096W        W72712  12.655  20.077   3.760
 1097W        W72713  32.123  20.901  10.597
 1098W        W72714  33.896  44.188   3.474
 1099W        W72715   6.994  32.813  14.359
 1100W        W72716  44.756  36.787  11.017
 1101W        W72717   7.632  26.768  13.999
 1102W        W72718  15.337  16.554  13.883
 1103W        W72719  32.370   7.346   0.576
 1104W        W72720  15.293  41.604  13.503
 1105W        W72721  24.019  31.084  11.348
 1106W        W72722  31.678  42.656  14.344
 1107W        W72723  10.904  19.520   0.786
 1108W        W72724   6.387  27.180  12.445
 1109W        W72725  16.876   8.006   4.061
 1110W        W72726   6.197  25.483   1.092
 1111W        W72727  41.706   1.377  12.161
 1112W        W72728   5.114  25.514   3.752
 1113W        W72729   6.365  17.360   0.906
 1114W        W72730  32.961  19.295   2.414
 1115W        W72731  22.054  31.762   2.968
 1116W        W72732   3.395  34.655  11.458
 1117W        W72733   9.353  24.500   4.025
 1118W        W72734  37.304  31.603   4.021
 1119W        W72735  21.597   1.443   0.224
 1120W        W72736   7.457  34.393  13.926
 1121W        W72737  44.376  33.374  12.844
 1122W        W72738  16.117  29.479  14.330
 1123W        W72739   7.287  11.166  10.686
 1124W        W72740  34.178  32.582   2.668
 1125W        W72741  13.644   4.219   1.830
 1126W        W72742  38.338   9.722   3.821
 1127W        W72743  44.550   8.847  12.044
 1128W        W72744   7.755   7.563  13.832
 1129W        W72745   2.730  40.038   4.094
 1130W        W72746   0.430  43.980   2.584
 1131W        W72747   0.959  26.172  10.606
 1132W        W72748  26.920  32.497  10.852
 1133W        W72749  10.840  17.774  11.532
 1134W        W72750  21.262   0.409  11.297
 1135W        W72751  40.051  11.834  13.065
 1136W        W72752  35.619  35.319   4.531
 1137W        W72753  44.804  40.924  12.066
 1138W        W72754  40.136  28.294  14.777
 1139W        W72755  41.969  12.405  10.525
 1140W        W72756  29.802  15.775   0.316
 1141W        W72757   8.285  29.085  11.395
 1142W        W72758   4.282  42.884   1.252
 1143W        W72759  11.092   8.422   0.972
 1144W        W72760   7.884  27.078  11.072
 1145W        W72761   3.601  14.965  13.539
 1146W        W72762  16.809  37.313  12.431
 1147W        W72763  23.971  13.149   4.183
 1148W        W72764  21.012  37.982   2.294
 1149W        W72765  22.774  38.511   1.328
 1150W        W72766  35.891  28.590  11.561
 1151W        W72767  21.943  38.990   2.778
 1152W        W72768   0.943  12.848  14.834
 1153W        W72769  43.392   0.843  10.294
 1154W        W72770  43.724  12.247  13.889
 1155W        W72771  23.687  15.522  14.921
 1156W        W72772   3.375  17.937  14.980
 1157W        W72773   1.389   7.569   4.586
 1158W        W72774  40.331  35.056  12.016
 1159W        W72775  17.100  14.209  14.417
 1160W        W72776  18.868  14.340  11.578
 1161W        W72777  43.809   9.151   4.756
 1162W        W72778  32.534  42.802   3.479
 1163W        W72779   2.732  36.097  13.800
 1164W        W72780  18.738  43.196  12.550
 1165W        W72781  43.047   2.873  14.398
 1166W        W72782  14.814   9.954  13.416
 1167W        W72783  31.069  28.604   0.739
 1168W        W72784  16.140  18.271  11.012
 1169W        W72785   4.801  33.671  11.716
 1170W        W72786  12.265  21.262  13.072
 1171W        W72787   6.928  39.531   2.742
 1172W        W72788  39.560  28.110  13.082
 1173W        W72789  41.557  11.239  12.119
 1174W        W72790  13.892  20.748  11.147
 1175W        W72791   3.835   4.238   1.693
 1176W        W72792  19.085  43.919   4.108
 1177W        W72793  13.448  10.493   3.053
 1178W        W72794  31.118   5.880  10.498
 1179W        W72795  24.041  16.102   2.425
 1180W        W72796  18.348  15.154  11.500
 1181W        W72797  22.796  34.454   4.187
 1182W        W72798  37.403  13.586   4.154
 1183W        W72799  39.404  14.415  14.315
 1184W        W72800   7.159  33.405   4.708
 1185W        W72801   4.755  12.725   4.666
 1186W        W72802  40.419  18.919  13.913
 1187W        W72803  14.327  37.086  11.099
 1188W        W72804  38.098   1.200  12.103
 1189W        W72805  30.551  27.563  10.253
 1190W        W72806  32.129   7.975   3.597
 1191W        W72807  37.429   1.271   0.316
 1192W        W72808  40.971   3.310   4.592
 1193W        W72809   3.760   8.190   4.307
 1194W        W72810  30.614  34.420   1.743
 1195W        W72811  30.133  18.566  13.008
 1196W        W72812  31.045   4.507   4.577
 1197W        W72813   5.323  12.507   0.749
 1198W        W72814  34.226   6.537  11.962
 1199W        W72815  25.163  29.575   3.708
 1200W        W72816   7.225  31.108   1.875
 1201W        W72817  41.410   3.225  14.022
 1202W        W72818  17.304  24.073   2.869
 1203W        W72819  22.751  40.255   0.252
 1204W        W72820  31.040   0.023   1.332
 1205W        W72821  23.616  23.087   4.510
 1206W        W72822   4.940  32.130  13.595
 1207W        W72823  29.770  21.711   2.771
 1208W        W72824  27.127  21.372  12.034
 1209W        W72825  29.775  30.758   2.853
 1210W        W72826  22.018  16.726  14.300
 1211W        W72827   8.204  36.827  13.423
 1212W        W72828  10.726  42.980   2.646
 1213W        W72829  13.344  13.275   2.663
 1214W        W72830  33.385  44.481   0.899
 1215W        W72831  36.758  44.728   0.778
 1216W        W72832   4.213  24.095  13.460
 1217W        W72833  35.918   0.638   3.531
 1218W        W72834  22.178  33.556  13.104
 1219W        W72835  21.054   4.613  12.901
 1220W        W72836  11.792  35.180   0.388
 1221W        W72837   3.136  44.980  10.638
 1222W        W72838  24.185   2.883  11.863
 1223W        W72839   3.986  29.585  11.298
 1224W        W72840  40.505   1.412   2.852
 1225W        W72841   6.851   1.362   4.773
 1226W        W72842  27.934  31.993   0.676
 1227W        W72843   2.700  31.027  11.972
 1228W        W72844  21.898   2.198  12.475
 1229W        W72845   6.390   7.964   3.876
 1230W        W72846  26.968  28.048  12.147
 1231W        W72847  20.538  25.128  11.517
 1232W        W72848  39.976  11.058   2.919
 1233W        W72849  18.618   7.190  14.325
 1234W        W72850  40.412  23.041   4.102
 1235W        W72851  34.840  36.445  10.779
 1236W        W72852  33.122  25.128  10.980
 1237W        W72853   6.311  29.422  13.956
 1238W        W72854  19.791  14.177   3.800
 1239W        W72855  18.273  38.234  14.968
 1240W        W72856  28.117  16.384  12.437
 1241W        W72857   3.371  18.789   1.324
 1242W        W72858   2.923   7.919   0.620
 1243W        W72859  26.612  16.698   3.115
 1244W        W72860  38.086  11.271   1.161
 1245W        W72861   9.507  23.430  13.615
 1246W        W72862   3.420  34.289  11.788
 1247W        W72863  38.960  39.302   1.868
 1248W        W72864  33.640   5.550  11.130
 1249W        W72865  26.027  41.458  11.992
 1250W        W72866  38.924  29.742   2.247
 1251W        W72867  26.807  13.035   0.375
 1252W        W72868  22.292   9.202  11.087
 1253W        W72869  34.909  35.816  13.741
 1254W        W72870  21.025  31.569   1.413
 1255W        W72871  31.904  12.328  10.570
 1256W        W72872  42.001  38.543   4.582
 1257W        W72873  39.433  15.096  14.732
 1258W        W72874  20.457  19.170   0.717
 1259W        W72875  15.609  34.407  10.590
 1260W        W72876  39.749  13.253  11.058
 1261W        W72877  31.666  43.261   3.804
 1262W        W72878  33.298  30.200   2.767
 1263W        W72879   4.543  17.238   3.270
 1264W        W72880  24.373  38.632  13.875
 1265W        W72881  44.953   4.185   0.871
 1266W        W72882  16.934   5.271  11.641
 1267W        W72883  28.040   2.175  13.532
 1268W        W72884   4.683  43.711   3.792
 1269W        W72885  12.043  32.638   4.137
 1270W        W72886   0.427  16.707   4.097
 1271W        W72887  24.700   7.327   1.743
 1272W        W72888  22.071  15.729  13.815
 1273W        W72889   2.719  29.607   3.232
 1274W        W72890  36.755  12.707  11.638
 1275W        W72891  43.420   4.769   3.708
 1276W        W72892  28.589  23.627   2.513
 1277W        W72893  37.414  29.686  13.846
 1278W        W72894   2.392  40.354  14.855
 1279W        W72895  41.391  28.705  10.748
 1280W        W72896  38.892   9.716   3.145
 1281W        W72897  42.818  19.939  13.036
 1282W        W72898  37.581   5.220   0.375
 1283W        W72899  20.640   0.187  10.691
 1284W        W72900  31.105  21.298   1.225
 1285W        W72901  24.066  13.117  14.930
 1286W        W72902  38.871  10.140  13.525
 1287W        W72903  14.827  21.221  14.864
 1288W        W72904  21.549  38.660  13.872
 1289W        W72905  31.687  28.823  14.914
 1290W        W72906  14.196  41.760   0.877
 1291W        W72907  26.040   9.290   5.107
 1292W        W72908  28.631  32.928  12.908
 1293W        W72909  43.532  24.051   2.688
 1294W        W72910  10.559  37.099  10.994
 1295W        W72911   6.680  26.637  13.370
 1296W        W72912   2.724  33.034  12.012
 1297W        W72913  31.164  41.475  14.007
 1298W        W72914   9.847  35.102  12.962
 1299W        W72915  21.492  28.075   2.155
 1300W        W72916  20.796  43.481   1.354
 1301W        W72917  15.079   6.435  10.585
 1302W        W72918  25.086   7.424  12.005
 1303W        W72919  33.639  10.153   9.902
 1304W        W72920  25.651  10.332  11.547
 1305W        W72921  36.110  40.956   0.950
 1306W        W72922  33.591   6.891  12.912
 1307W        W72923  42.346   5.812  13.325
 1308W        W72924  25.243  12.201   4.111
 1309W        W72925  16.664  23.749  14.930
 1310W        W72926  31.620  21.055  10.641
 1311W        W72927  16.489  21.055  11.530
 1312W        W72928  42.567  33.422   2.336
 1313W        W72929   5.522  44.975   2.313
 1314W        W72930  17.980  33.502   0.399
 1315W        W72931  19.802  24.516   2.184
 1316W        W72932  17.569  27.878   2.761
 1317W        W72933  18.734  10.162   3.999
 1318W        W72934  37.780   9.058  12.438
 1319W        W72935  34.340   0.596   2.829
 1320W        W72936  34.829  11.820   4.974
 1321W        W72937  26.420  14.253   1.695
 1322W        W72938  13.305  44.439   0.884
 1323W        W72939  37.923  18.590  11.109
 1324W        W72940  21.467  40.860   3.171
 1325W        W72941  22.621  44.443   5.069
 1326W        W72942  27.035  43.558   4.336
 1327W        W72943  17.273  30.014   0.719
 1328W        W72944  28.009   1.757   3.142
 1329W        W72945  21.935  18.588  13.934
 1330W        W72946  37.401  11.802   3.797
 1331W        W72947  25.064  41.751  13.903
 1332W        W72948  29.656  42.939   3.218
 1333W        W72949  19.748  37.049   4.171
 1334W        W72950   7.468  27.141   1.870
 1335W        W72951  37.483  35.331  12.043
 1336W        W72952  16.982  32.510   4.629
 1337W        W72953   2.871  43.566  12.621
 1338W        W72954  37.529  38.799   4.410
 1339W        W72955  27.245  11.285   0.472
 1340W        W72956  39.438  22.203  13.403
 1341W        W72957  23.604  33.556   0.432
 1342W        W72958  27.984   3.863   0.322
 1343W        W72959   6.863  28.453   1.124
 1344W        W72960  18.071  38.336   3.267
 1345W        W72961  23.499  42.692  11.566
 1346W        W72962  17.073   0.733   4.511
 1347W        W72963   1.480  44.907  12.873
 1348W        W72964  44.913  11.870   2.258
 1349W        W72965  10.412  13.404  14.140
 1350W        W72966  40.562  29.758   0.323
 1351W        W72967  41.380   8.931   4.202
 1352W        W72968  32.473  21.130   0.760
 1353W        W72969   5.667  36.444   2.971
 1354W        W72970  14.096  23.490   4.780
 1355W        W72971  17.218  18.723   2.697
 1356W        W72972  15.216  34.025   1.893
 1357W        W72973  23.762  43.303   2.726
 1358W        W72974  18.901  38.764   3.254
 1359W        W72975  19.562   0.726  10.591
 1360W        W72976  31.105  18.120   0.832
 1361W        W72977  33.391  25.063  13.428
 1362W        W72978  12.197  42.900  14.782
 1363W        W72979  38.378   5.625   0.921
 1364W        W72980  16.602  14.097   2.946
 1365W        W72981  15.299  35.285   1.903
 1366W        W72982   5.565   4.207  13.503
 1367W        W72983  14.996  25.689   0.165
 1368W        W72984  21.912   6.935   2.298
 1369W        W72985   6.973  16.298  12.481
 1370W        W72986  23.502   8.279  14.359
 1371W        W72987  39.819   3.170  13.570
 1372W        W72988  37.918  30.878   1.859
 1373W        W72989   0.829  23.658  12.307
 1374W        W72990  37.310  42.793   0.809
 1375W        W72991  36.014  23.522  14.419
 1376W        W72992  10.258   2.813   4.407
 1377W        W72993  28.253   1.469   3.510
 1378W        W72994  29.318  23.158   2.641
 1379W        W72995  29.580  31.038   0.809
 1380W        W72996   4.682  29.059  12.383
 1381W        W72997  15.424   2.032   5.050
 1382W        W72998  26.889  22.716   1.140
 1383W        W72999  39.393  40.592  14.782
 1384W        W73000   5.298  37.360   0.396
 1385W        W73001  10.735  13.324  11.656
 1386W        W73002  35.306  41.977   4.669
 1387W        W73003  16.927   4.740   4.527
 1388W        W73004  27.098   9.779   3.216
 1389W        W73005   3.963   0.352   1.978
 1390W        W73006  13.754  18.691  12.602
 1391W        W73007  35.414  21.581   0.827
 1392W        W73008  31.881  18.348  10.816
 1393W        W73009  31.120   5.127  11.092
 1394W        W73010  16.817  28.483  12.666
 1395W        W73011  15.560   0.871  12.442
 1396W        W73012   3.824  28.462  13.335
 1397W        W73013  40.845  44.912  12.856
 1398W        W73014  13.248   8.740  10.316
 1399W        W73015   3.921  15.648   3.178
 1400W        W73016   4.759  14.676   4.113
 1401W        W73017   5.289  31.852  12.396
 1402W        W73018  14.851   3.954   2.702
 1403W        W73019   0.000  23.981   1.229
 1404W        W73020   9.767  15.363   3.814
 1405W        W73021  29.097  38.937  12.532
 1406W        W73022  25.587  23.068  12.058
 1407W        W73023  19.857   8.056   2.240
 1408W        W73024  40.198  16.515   2.287
 1409W        W73025  19.475  42.865   9.718
 1410W        W73026  41.730  37.397   4.131
 1411W        W73027  30.463  17.917  10.530
 1412W        W73028  22.074  21.056  10.617
 1413W        W73029  32.541  42.263  12.036
 1414W        W73030   6.251  41.324  13.867
 1415W        W73031  30.457   8.947  12.599
 1416W        W73032  20.666  35.408  13.885
 1417W        W73033   6.218  32.219   2.653
 1418W        W73034  43.121  18.205  14.527
 1419W        W73035  13.308   6.646   0.505
 1420W        W73036  41.771  13.850  14.912
 1421W        W73037  40.499  38.796  13.526
 1422W        W73038  27.149   0.474  10.729
 1423W        W73039  14.256  23.100   0.435
 1424W        W73040  10.279   9.325   1.461
 1425W        W73041  20.711  12.145   4.129
 1426W        W73042   0.759  24.282  11.021
 1427W        W73043  15.808   3.255   2.919
 1428W        W73044  13.236  21.069  13.629
 1429W        W73045  41.787   3.154  11.083
 1430W        W73046  35.095  38.821   4.624
 1431W        W73047  13.119  21.046   9.814
 1432W        W73048  28.045  41.534   1.348
 1433W        W73049  22.410  43.055  12.440
 1434W        W73050  38.869  38.010   4.456
 1435W        W73051  13.396  33.308  12.517
 1436W        W73052  26.623  14.195  14.096
 1437W        W73053   7.166  35.451  12.481
 1438W        W73054  38.529   1.210  10.699
 1439W        W73055  44.905  42.274   1.399
 1440W        W73056   5.503  18.662  12.450
 1441W        W73057  29.954  40.863   1.966
 1442W        W73058  12.294  29.157   2.436
 1443W        W73059  40.184   2.629   0.035
 1444W        W73060  16.699  41.281  11.646
 1445W        W73061  40.419  44.808  13.240
 1446W        W73062  24.007  41.022   3.362
 1447W        W73063  13.643  37.775   2.033
 1448W        W73064  40.610  12.151   2.267
 1449W        W73065  15.630  14.114   2.001
 1450W        W73066  24.584  22.741  14.424
 1451W        W73067  17.056  19.795  12.139
 1452W        W73068  26.616  38.806   4.285
 1453W        W73069  42.117  35.438  11.899
 1454W        W73070  19.720  30.038  11.560
 1455W        W73071  16.290  35.423   4.625
 1456W        W73072  37.426   1.441  12.903
 1457W        W73073  36.031  31.861  12.117
 1458W        W73074  38.277  36.325   3.050
 1459W        W73075   7.320  21.771   0.518
 1460W        W73076  38.556  21.330  12.872
 1461W        W73077  36.231  35.475  12.075
 1462W        W73078  30.278  30.638   4.327
 1463W        W73079  10.605   8.106  12.099
 1464W        W73080   6.739  32.447  11.275
 1465W        W73081   6.765  31.487  14.792
 1466W        W73082  26.477  26.152   3.938
 1467W        W73083  34.156  25.992  11.581
 1468W        W73084  41.409  36.997   3.898
 1469W        W73085  35.198  19.260   1.661
 1470W        W73086  16.388  38.055  12.880
 1471W        W73087  40.230   6.735   1.388
 1472W        W73088  41.358   8.786  14.254
 1473W        W73089   8.721  40.346   3.269
 1474W        W73090  30.655  27.091   1.467
 1475W        W73091  24.442  32.044  11.509
 1476W        W73092  40.796   9.337   0.780
 1477W        W73093  13.125   8.853   1.853
 1478W        W73094  17.275  32.845  11.970
 1479W        W73095  10.384  38.270  14.032
 1480W        W73096   0.755  16.876  11.587
 1481W        W73097  35.942  25.959  13.974
 1482W        W73098  34.398  14.647   3.280
 1483W        W73099  39.868  40.095   4.166
 1484W        W73100  34.933  36.521   2.218
 1485W        W73101  22.655   6.814   4.553
 1486W        W73102  37.502  15.137  14.049
 1487W        W73103  34.027   3.626   3.675
 1488W        W73104  43.994  14.874  13.950
 1489W        W73105  18.056  26.955  14.008
 1490W        W73106  34.376  40.406   3.317
 1491W        W73107  20.700   4.729   1.399
 1492W        W73108  40.315  35.155  10.691
 1493W        W73109  15.075  26.101   4.046
 1494W        W73110  31.221  44.500   0.533
 1495W        W73111  30.543  22.340   3.640
 1496W        W73112  14.585  41.446   0.719
 1497W        W73113  40.899   9.417  10.507
 1498W        W73114  22.577   8.562  12.061
 1499W        W73115  35.529  24.989  11.944
 1500W        W73116  30.067  24.562  10.628
 1501W        W73117   0.201   6.812   2.711
 1502W        W73118  32.102  32.367   0.683
 1503W        W73119   0.029  37.695   9.721
 1504W        W73120  13.223   2.232   4.094
 1505W        W73121  20.176  36.189  14.004
 1506W        W73122  30.083  29.928  10.257
 1507W        W73123  20.990  16.651  12.167
 1508W        W73124  39.427  27.931   1.306
 1509W        W73125  14.067  40.416   2.355
 1510W        W73126  23.356   7.262  14.895
 1511W        W73127  44.477  42.503  11.506
 1512W        W73128  18.614  14.916   4.429
 1513W        W73129   0.766   7.723   1.319
 1514W        W73130  32.993  44.669   4.128
 1515W        W73131  43.347  10.297   4.884
 1516W        W73132  17.550  23.302   1.899
 1517W        W73133  24.667  36.189   3.274
 1518W        W73134  28.069  28.207  12.449
 1519W        W73135  32.051  34.762  13.286
 1520W        W73136  20.500  39.284   0.768
 1521W        W73137  18.163  28.538   0.459
 1522W        W73138   7.414   5.617  13.289
 1523W        W73139  41.633  15.747   0.834
 1524W        W73140  36.349   4.346  12.470
 1525W        W73141  19.249   5.373   1.487
 1526W        W73142   3.620  44.531  13.505
 1527W        W73143  34.709   1.898   0.787
 1528W        W73144  34.576  11.544   3.258
 1529W        W73145  41.596   5.227  11.548
 1530W        W73146   7.779  29.724  10.766
 1531W        W73147  19.247  32.523  12.474
 1532W        W73148  31.482  28.671   0.399
 1533W        W73149  22.660  41.973  14.888
 1534W        W73150  35.009  16.556   1.353
 1535W        W73151  25.250  24.148   0.951
 1536W        W73152  22.444  25.095  13.515
 1537W        W73153   4.959  44.009  12.866
 1538W        W73154  29.118  27.196   3.352
 1539W        W73155  21.432  36.894   2.244
 1540W        W73156   3.645  10.803  13.650
 1541W        W73157   4.423  42.573  11.126
 1542W        W73158   6.482   5.514  11.105
 1543W        W73159  24.617   9.284   2.659
 1544W        W73160  40.342   7.336  14.960
 1545W        W73161  22.048  16.529   1.320
 1546W        W73162  22.496  29.347   2.306
 1547W        W73163   3.351  33.900   0.506
 1548W        W73164  10.796  13.155   2.229
 1549W        W73165   7.767  34.528   4.383
 1550W        W73166  22.729  35.172   0.105
 1551W        W73167   9.910   6.908  14.747
 1552W        W73168  26.151  26.005  10.629
 1553W        W73169   8.149  22.192   1.699
 1554W        W73170  29.467  38.910   0.002
 1555W        W73171   0.041   3.184  10.530
 1556W        W73172  32.068  43.744   5.024
 1557W        W73173  22.166  19.081  12.499
 1558W        W73174   4.603   6.185   2.727
 1559W        W73175   0.400  33.469  11.140
 1560W        W73176   5.395   8.910   2.687
 1561W        W73177  15.541  41.457   1.202
 1562W        W73178  23.525  25.649  12.084
 1563W        W73179  40.744  21.085   3.637
 1564W        W73180  34.891   1.974   4.118
 1565W        W73181  25.012   8.958   2.822
 1566W        W73182  37.927   0.305   0.010
 1567W        W73183   3.222  13.813  12.438
 1568W        W73184  24.723  17.707   0.223
 1569W        W73185  32.579  36.234  12.685
 1570W        W73186  18.982   8.114  11.904
 1571W        W73187  37.781  32.313   4.162
 1572W        W73188  29.554   0.952   2.828
 1573W        W73189   4.479  41.734   2.894
 1574W        W73190   3.412  38.018  14.283
 1575W        W73191  27.072  31.513   1.506
 1576W        W73192   2.400  25.113  12.985
 1577W        W73193  34.883  44.479   5.041
 1578W        W73194   3.530  35.169   2.835
 1579W        W73195  15.644  33.135  13.443
 1580W        W73196  41.042   0.234  13.778
 1581W        W73197  17.503  34.627  11.098
 1582W        W73198  44.760  21.128   4.488
 1583W        W73199  18.034  17.713  11.364
 1584W        W73200  31.412  26.978  12.920
 1585W        W73201  11.191  11.782   2.691
 1586W        W73202  42.963   7.508  12.044
 1587W        W73203   0.233  25.863   4.690
 1588W        W73204  33.691  17.130   2.774
 1589W        W73205  19.564  15.343   2.406
 1590W        W73206   0.843  12.102  10.661
 1591W        W73207   3.848   7.992   1.775
 1592W        W73208   4.351  15.096  11.591
 1593W        W73209   0.015  24.435   0.004
 1594W        W73210  29.966  13.843   0.765
 1595W        W73211  31.252   4.847   4.097
 1596W        W73212  14.870  26.611   2.058
 1597W        W73213  13.982   8.105  11.089
 1598W        W73214  10.232  30.703   0.891
 1599W        W73215  16.647  19.800  14.342
 1600W        W73216  18.321  42.461  14.769
 1601W        W73217  32.564  12.297   2.282
 1602W        W73218  19.279  24.757  13.028
 1603W        W73219  20.008  26.105  13.869
 1604W        W73220  24.409  40.267  14.043
 1605W        W73221   3.713  28.742   0.426
 1606W        W73222  30.949  26.718   0.899
 1607W        W73223  34.434  37.989   0.161
 1608W        W73224  37.104  31.286   3.334
 1609W        W73225  41.909  11.335  10.719
 1610W        W73226  14.279   2.664   1.772
 1611W        W73227  40.711  10.565   2.232
 1612W        W73228   6.357  34.105   1.409
 1613W        W73229  29.936  12.228   0.708
 1614W        W73230  38.435   0.279  13.814
 1615W        W73231   8.626  28.898   0.773
 1616W        W73232  32.683   3.834  12.187
 1617W        W73233  22.246  13.719   4.528
 1618W        W73234  21.025   4.289  11.876
 1619W        W73235  20.709  16.127  13.403
 1620W        W73236  27.625  39.305   2.748
 1621W        W73237  29.233   1.442  12.043
 1622W        W73238  37.286  20.038  12.875
 1623W        W73239  40.436  18.282   2.755
 1624W        W73240  10.102  38.259   0.451
 1625W        W73241   9.228  43.950   0.540
 1626W        W73242  18.005  39.566  14.963
 1627W        W73243   9.865  22.311   0.192
 1628W        W73244  19.022  35.580   2.376
 1629W        W73245  15.110  18.268   4.572
 1630W        W73246  25.132  34.104   2.760
 1631W        W73247  19.755  21.569   0.594
 1632W        W73248  12.706  30.658   4.615
 1633W        W73249   7.858   8.293  12.314
 1634W        W73250  15.768  21.000  13.961
 1635W        W73251  22.803  26.576   4.656
 1636W        W73252  41.726   6.689   3.274
 1637W        W73253  10.071  25.723  14.315
 1638W        W73254  13.315  20.227  13.237
 1639W        W73255  10.415  40.903   1.937
 1640W        W73256  33.023  40.107   0.878
 1641W        W73257   2.553  34.492   1.317
 1642W        W73258  37.910   0.005   0.428
 1643W        W73259  23.524  17.226  12.201
 1644W        W73260  12.624   9.419   2.276
 1645W        W73261   0.157  26.538   4.587
 1646W        W73262  41.120   0.649  12.257
 1647W        W73263  23.807  11.028  12.211
 1648W        W73264  17.021  12.627  10.986
 1649W        W73265  20.155  26.538   4.531
 1650W        W73266  29.113  11.703   1.930
 1651W        W73267  26.482  43.275  12.043
 1652W        W73268  33.624  18.190  14.613
 1653W        W73269  10.575  32.091   1.433
 1654W        W73270   1.884  42.863   4.227
 1655W        W73271  41.623  24.517   2.184
 1656W        W73272  30.632  36.440  10.661
 1657W        W73273   2.774  42.245   3.117
 1658W        W73274  12.097  29.412  14.998
 1659W        W73275  30.396   5.119  13.862
 1660W        W73276  42.574  26.043   4.051
 1661W        W73277   6.596  16.233   2.635
 1662W        W73278  35.315  23.717   2.349
 1663W        W73279   4.720  18.823   3.633
 1664W        W73280  30.041  37.661   0.967
 1665W        W73281  39.992  10.073   4.720
 1666W        W73282  14.361   2.462  12.821
 1667W        W73283  27.583  28.965   3.830
 1668W        W73284  26.120  10.449   2.462
 1669W        W73285  11.661  24.743  10.271
 1670W        W73286  38.944  43.518   1.358
 1671W        W73287  33.684  36.990  14.317
 1672W        W73288   4.548  11.332   3.228
 1673W        W73289   0.058  30.552   0.888
 1674W        W73290  16.807  42.497   0.804
 1675W        W73291  38.520  31.022   4.879
 1676W        W73292   6.825  10.915  13.039
 1677W        W73293  36.397  25.456   1.835
 1678W        W73294   1.349  16.282   2.198
 1679W        W73295  36.060  22.846   3.161
 1680W        W73296  18.848   6.196  14.447
 1681W        W73297   5.659  38.499  13.948
 1682W        W73298   9.322  28.648  14.469
 1683W        W73299  22.739  37.873  12.931
 1684W        W73300  12.764  43.684  13.441
 1685W        W73301  18.312  24.454   4.152
 1686W        W73302  42.642  28.738  13.214
 1687W        W73303  15.303  23.206  12.513
 1688W        W73304   6.437  43.364  12.397
 1689W        W73305  37.128  32.991  11.563
 1690W        W73306  38.747  32.004   4.104
 1691W        W73307  12.867   4.861   3.781
 1692W        W73308  12.629   3.419   4.324
 1693W        W73309  17.459  19.148   1.921
 1694W        W73310  42.302  44.082   4.489
 1695W        W73311  11.233  44.305   4.117
 1696W        W73312  22.941  27.586  12.045
 1697W        W73313  39.337  16.059  13.559
 1698W        W73314   0.407  37.194   1.632
 1699W        W73315   4.659   3.231  11.155
 1700W        W73316  37.674  31.742  13.969
 1701W        W73317  14.280   8.453  12.038
 1702W        W73318   6.463  22.934   2.728
 1703W        W73319   1.270   3.213   4.757
 1704W        W73320  13.257  26.086  14.855
 1705W        W73321  10.758  31.033  14.598
 1706W        W73322  22.574  41.050   3.265
 1707W        W73323   7.566  20.893   4.220
 1708W        W73324  33.979   7.163  13.611
 1709W        W73325  31.101  30.599   1.846
 1710W        W73326   5.078  44.215  10.168
 1711W        W73327  33.103  30.965   2.386
 1712W        W73328   4.805  25.438   4.156
 1713W        W73329  20.247  43.209   0.008
 1714W        W73330  43.795   2.399   4.715
 1715W        W73331  19.817  34.569  10.686
 1716W        W73332  37.753  27.137  14.404
 1717W        W73333  36.668  29.337   3.271
 1718W        W73334  13.104  27.524   3.213
 1719W        W73335  29.915  34.930  10.792
 1720W        W73336  10.841  42.623   0.530
 1721W        W73337  11.692   0.821   0.815
 1722W        W73338  17.655  41.018  14.676
 1723W        W73339  33.610   4.122   3.278
 1724W        W73340  44.522  38.819  12.049
 1725W        W73341  33.935  39.026   0.435
 1726W        W73342   7.703  11.865  12.514
 1727W        W73343   3.880  25.757   3.125
 1728W        W73344  16.615  15.250   4.233
 1729W        W73345  23.975   4.162  14.966
 1730W        W73346  29.054  20.004  14.717
 1731W        W73347  24.081   5.224  13.790
 1732W        W73348  20.797  29.985  12.019
 1733W        W73349   7.430  22.563  13.542
 1734W        W73350  41.536   3.667   3.038
 1735W        W73351   3.324  44.911   1.333
 1736W        W73352  40.063   8.301  13.037
 1737W        W73353  30.700   7.490  14.915
 1738W        W73354   7.917  11.223   4.848
 1739W        W73355  29.992   5.411  14.058
 1740W        W73356   3.253  40.592   1.804
 1741W        W73357  14.676   1.967   2.995
 1742W        W73358  29.625  28.448   5.244
 1743W        W73359  33.703  36.868   0.390
 1744W        W73360  11.190  20.108  13.904
 1745W        W73361  26.262  14.477   4.137
 1746W        W73362  39.333  18.738  12.092
 1747W        W73363   3.810  32.660   3.125
 1748W        W73364  15.507  19.463   2.112
 1749W        W73365   9.221  41.608  12.584
 1750W        W73366   4.599  43.471   5.521
 1751W        W73367   1.643  19.277  12.970
 1752W        W73368  44.809  30.616  14.517
 1753W        W73369  37.590  14.548  13.511
 1754W        W73370   1.975  36.247   3.743
 1755W        W73371  24.158   1.080  14.180
 1756W        W73372  44.281   2.184  11.095
 1757W        W73373  11.728   3.365  14.907
 1758W        W73374  42.414   1.669   0.330
 1759W        W73375  10.740  16.732   0.334
 1760W        W73376  29.120  26.124  14.427
 1761W        W73377  32.202  14.516   0.064
 1762W        W73378   0.958  30.964  13.480
 1763W        W73379  28.154  19.193   3.923
 1764W        W73380  15.350  28.409  10.530
 1765W        W73381  32.492  38.096   4.411
 1766W        W73382  35.594  13.720  14.406
 1767W        W73383  15.147  29.492  13.865
 1768W        W73384  28.003  43.292   2.477
 1769W        W73385  44.281  39.193  12.919
 1770W        W73386  26.979  19.999  11.641
 1771W        W73387   2.226  24.584  14.237
 1772W        W73388  16.713  11.927   4.817
 1773W        W73389  10.178  34.158   1.244
 1774W        W73390  42.330  10.738   1.207
 1775W        W73391  14.816   7.814  14.032
 1776W        W73392   0.207  43.026   4.115
 1777W        W73393  13.980  41.740   1.852
 1778W        W73394  43.685  21.073   1.756
 1779W        W73395  35.671  40.948   2.863
 1780W        W73396  21.027  36.486  12.864
 1781W        W73397  33.026  20.730  13.079
 1782W        W73398  42.579  28.048   1.276
 1783W        W73399  37.098   1.058  12.127
 1784W        W73400  23.198  30.606   1.489
 1785W        W73401  22.371  28.449   4.125
 1786W        W73402  36.079   7.849   0.365
 1787W        W73403   3.835  15.129  11.468
 1788W        W73404  43.056  21.785   0.359
 1789W        W73405   5.298  29.698  12.318
 1790W        W73406  40.057  25.625  12.035
 1791W        W73407  11.592  17.704  14.395
 1792W        W73408  10.836  18.809  11.473
 1793W        W73409  33.423  13.695   1.007
 1794W        W73410  21.637  10.726   1.580
 1795W        W73411  17.534  28.710  14.396
 1796W        W73412  31.863  22.130   4.900
 1797W        W73413  21.827   7.830  13.951
 1798W        W73414  16.614  24.573   3.556
 1799W        W73415  18.488   8.786  13.925
 1800W        W73416  22.007   6.831   0.837
 1801W        W73417  15.104  33.519  13.152
 1802W        W73418  32.556  32.635  13.186
 1803W        W73419  13.182   4.414   0.718
 1804W        W73420  10.125  11.535  11.506
 1805W        W73421  37.857   8.264   2.945
 1806W        W73422  26.491  28.168   1.176
 1807W        W73423   0.421  21.451  10.881
 1808W        W73424  39.134  19.664   5.286
 1809W        W73425  43.768  29.043  13.017
 1810W        W73426  19.963   3.897  14.910
 1811W        W73427  41.146   1.266   0.405
 1812W        W73428  38.957  33.862  11.200
 1813W        W73429  41.701  38.639   3.725
 1814W        W73430   9.239   3.844   2.922
 1815W        W73431  22.318   2.453  12.967
 1816W        W73432  40.481  44.445  14.839
 1817W        W73433   4.319  26.179   1.393
 1818W        W73434  25.546  23.155  14.550
 1819W        W73435  34.893  27.931  10.600
 1820W        W73436   8.497  26.047  11.512
 1821W        W73437  34.570  13.563  14.522
 1822W        W73438   7.830  13.046   1.374
 1823W        W73439  18.152   3.473   4.774
 1824W        W73440  35.372  10.092   2.670
 1825W        W73441  30.221   5.209   0.961
 1826W        W73442   6.485  15.989  11.177
 1827W        W73443   5.930  14.954  14.394
 1828W        W73444  18.269   3.326  14.760
 1829W        W73445  14.959  33.515   4.207
 1830W        W73446  24.022   2.741   4.372
 1831W        W73447  10.338   9.285  13.389
 1832W        W73448  30.877  15.128   1.162
 1833W        W73449  10.796  44.180   3.661
 1834W        W73450  20.435   6.677  14.065
 1835W        W73451  30.873  17.770   4.632
 1836W        W73452  39.644   0.806  13.320
 1837W        W73453  10.588  31.973   0.006
 1838W        W73454   5.667  39.987  11.248
 1839W        W73455  12.574  36.323  13.741
 1840W        W73456  27.663  17.557   4.549
 1841W        W73457  17.744  42.895  11.507
 1842W        W73458  13.248   4.400   4.591
 1843W        W73459   8.705  11.459   2.897
 1844W        W73460  28.034  38.834   0.774
 1845W        W73461  14.450  35.967   3.747
 1846W        W73462  33.333  28.366  14.219
 1847W        W73463   2.941  26.992  10.941
 1848W        W73464   2.524  43.790   0.212
 1849W        W73465  27.958  34.867  14.193
 1850W        W73466   1.725  36.623   4.021
 1851W        W73467  13.701  44.286  11.044
 1852W        W73468   3.255  25.762   1.316
 1853W        W73469   9.694  28.888  12.870
 1854W        W73470   3.183   2.931   4.639
 1855W        W73471  43.856  44.273  14.591
 1856W        W73472  27.202  30.715  13.603
 1857W        W73473  10.461  14.815   3.158
 1858W        W73474  15.283  25.467  11.579
 1859W        W73475  33.631   3.459  12.490
 1860W        W73476  25.705  33.310  14.133
 1861W        W73477   3.472  27.604  13.435
 1862W        W73478  13.814  31.666  10.981
 1863W        W73479  34.135  18.509  10.758
 1864W        W73480  31.942  38.276   2.289
 1865W        W73481  11.125   2.441   2.097
 1866W        W73482  28.418  34.917   3.182
 1867W        W73483  17.696   2.168   0.352
 1868W        W73484  36.543   1.253  11.562
 1869W        W73485  22.296  15.652  14.278
 1870W        W73486  31.987  15.388  14.824
 1871W        W73487  21.567  20.575  13.161
 1872W        W73488  24.418  31.129  14.457
 1873W        W73489  35.946  26.407   3.091
 1874W        W73490  24.239  44.906   4.006
 1875W        W73491  27.706  15.252   4.682
 1876W        W73492  27.263   0.478  12.052
 1877W        W73493   5.590  22.517   4.565
 1878W        W73494   2.777  42.753   3.161
 1879W        W73495  37.304  11.390  10.662
 1880W        W73496   9.806  11.438  10.905
 1881W        W73497  10.737  36.373   1.398
 1882W        W73498  33.844   8.788   3.906
 1883W        W73499   9.399  27.913   3.534
 1884W        W73500  26.380   3.303   4.191
 1885W        W73501   7.160  11.113   2.230
 1886W        W73502  34.876  11.775   1.272
 1887W        W73503   0.201   4.864   1.001
 1888W        W73504  33.472  18.616  13.358
 1889W        W73505  10.335  14.684  10.463
 1890W        W73506  36.142  40.808  10.308
 1891W        W73507  35.767  11.393   1.186
 1892W        W73508  25.014  36.659   0.733
 1893W        W73509   0.319   9.422   0.932
 1894W        W73510  30.106  14.358   0.585
 1895W        W73511  37.931   1.642   0.901
 1896W        W73512   5.993  11.437   4.225
 1897W        W73513  37.913  18.714  14.988
 1898W        W73514  14.773  32.552  11.939
 1899W        W73515   5.224  14.684   3.885
 1900W        W73516   7.663  39.099  11.226
 1901W        W73517  27.019  21.165   0.419
 1902W        W73518  35.952   7.672   2.585
 1903W        W73519  28.549  38.842  14.873
 1904W        W73520  17.267  19.811  11.680
 1905W        W73521   5.710   2.645   4.823
 1906W        W73522  43.426  34.098  13.350
 1907W        W73523  33.213  37.095  11.141
 1908W        W73524  42.495  42.526   4.179
 1909W        W73525  17.773  10.742  11.897
 1910W        W73526  17.313  44.569   4.594
 1911W        W73527  23.417  30.076  10.769
 1912W        W73528  31.223  41.075   3.361
 1913W        W73529  40.515  28.657  10.373
 1914W        W73530  25.515   9.087  14.404
 1915W        W73531  44.761  11.164   3.804
 1916W        W73532  23.611  12.252  14.757
 1917W        W73533  17.102  30.461   3.150
 1918W        W73534  29.702  21.654   1.009
 1919W        W73535  24.280   0.939   2.130
 1920W        W73536  18.707   3.337   2.398
 1921W        W73537   9.943   2.622   3.307
 1922W        W73538  36.466  23.601  11.707
 1923W        W73539  44.878  31.328   1.454
 1924W        W73540   1.803  41.326   1.631
 1925W        W73541  28.097  17.578  13.127
 1926W        W73542  39.570  32.722  10.662
 1927W        W73543  30.086  23.304   4.255
 1928W        W73544  14.919  36.943  14.788
 1929W        W73545  27.713  39.230   0.887
 1930W        W73546  17.765  27.517   4.081
 1931W        W73547  36.342  29.417   2.392
 1932W        W73548  27.622  13.601   9.608
 1933W        W73549  10.640  37.383  12.119
 1934W        W73550  32.395  31.128   4.573
 1935W        W73551  44.984  36.127   2.813
 1936W        W73552  23.645  18.075  11.363
 1937W        W73553  32.387  42.504  13.880
 1938W        W73554  15.189  31.667   0.181
 1939W        W73555  40.084   8.241  11.607
 1940W        W73556   0.941  17.311  10.743
 1941W        W73557  14.159  16.421  12.595
 1942W        W73558   9.666  24.518   4.884
 1943W        W73559  28.186  36.695   2.322
 1944W        W73560   3.843  19.105  10.767
 1945W        W73561  38.463  21.813  12.558
 1946W        W73562  36.381  31.666   1.708
 1947W        W73563   3.308  18.128  12.302
 1948W        W73564  11.766  35.276   3.411
 1949W        W73565   4.239  12.491  10.188
 1950W        W73566  43.975  28.561  10.571
 1951W        W73567  35.048  40.000  14.956
 1952W        W73568  12.217  32.631  12.056
 1953W        W73569  35.912  13.806   1.476
 1954W        W73570   7.941   7.635   4.629
 1955W        W73571  35.909   1.305   1.602
 1956W        W73572  28.886   1.328  12.416
 1957W        W73573  22.828  21.117  13.152
 1958W        W73574  33.029   5.371  11.819
 1959W        W73575  12.729  33.814  10.674
 1960W        W73576  30.161   0.643   0.461
 1961W        W73577  39.528  16.118   3.875
 1962W        W73578  14.862  22.711   2.611
 1963W        W73579  24.646  25.554  13.554
 1964W        W73580  32.203  14.092  11.173
 1965W        W73581  42.205   3.163   0.647
 1966W        W73582  15.842  31.123   2.446
 1967W        W73583  11.259  22.039   4.766
 1968W        W73584   6.683   4.958  10.457
 1969W        W73585   3.333  31.998  12.429
 1970W        W73586  42.019   0.543   1.773
 1971W        W73587  34.402   5.361  12.444
 1972W        W73588  36.562  30.617  14.912
 1973W        W73589  30.049  43.273   3.125
 1974W        W73590  44.612  34.989  10.585
 1975W        W73591  23.659   0.232  12.387
 1976W        W73592  32.728  44.045   5.700
 1977W        W73593  24.651  20.473  14.465
 1978W        W73594  33.594   6.950   2.597
 1979W        W73595  34.512  14.881   1.698
 1980W        W73596  14.878   2.809   0.334
 1981W        W73597   7.302  34.499   4.605
 1982W        W73598  41.674  11.386   1.130
 1983W        W73599  36.019  36.963   2.955
 1984W        W73600  23.235  25.741  12.517
 1985W        W73601  43.322  13.745  13.989
 1986W        W73602  43.785  25.749   3.167
 1987W        W73603  17.025   8.675  12.803
 1988W        W73604  34.056  38.112  13.013
 1989W        W73605  29.136   9.365   2.076
 1990W        W73606  27.001  11.372  14.962
 1991W        W73607  37.822  12.589   4.689
 1992W        W73608  13.133  35.649   2.681
 1993W        W73609  17.177  10.896  12.497
 1994W        W73610  33.414   4.894  14.749
 1995W        W73611  19.577  16.931  14.324
 1996W        W73612  11.398  28.938  11.245
 1997W        W73613  24.579  36.848  12.485
 1998W        W73614   5.897  23.285   0.961
 1999W        W73615   7.943  35.849  14.904
 2000W        W73616   1.257   0.441  11.695
 2001W        W73617  43.441  41.739  10.865
 2002W        W73618  39.531  22.335   3.169
 2003W        W73619  12.746  24.749  11.597
 2004W        W73620  42.550   8.203  11.394
 2005W        W73621  38.453  34.400   2.753
 2006W        W73622  18.274  24.750   3.207
 2007W        W73623  15.559  44.164  13.705
 2008W        W73624  31.077  42.639  11.112
 2009W        W73625  29.983  14.180  12.868
 2010W        W73626  21.128   2.968  10.533
 2011W        W73627  18.148  27.193   3.111
 2012W        W73628   0.929  43.349   0.683
 2013W        W73629  31.597  18.797   2.801
 2014W        W73630  10.207  30.431  10.213
 2015W        W73631  39.232  29.027  10.221
 2016W        W73632  41.588   1.276   3.746
 2017W        W73633  33.476  40.790  13.005
 2018W        W73634  15.317  10.943  10.903
 2019W        W73635  38.895  23.618  12.194
 2020W        W73636  23.175  39.756   2.348
 2021W        W73637  31.832   6.924  13.357
 2022W        W73638  43.904  21.086  14.122
 2023W        W73639  10.439   5.364  11.622
 2024W        W73640  26.538  44.002  11.607
 2025W        W73641  30.549   1.317  11.108
 2026W        W73642   6.827  29.114   4.764
 2027W        W73643  18.977   8.777  11.676
 2028W        W73644  21.961  42.509   3.954
 2029W        W73645  39.037   7.072  10.398
 2030W        W73646   6.089   4.252  13.539
 2031W        W73647  10.874  41.939  11.535
 2032W        W73648   5.896  39.968  11.687
 2033W        W73649  15.620  21.746  14.556
 2034W        W73650   1.290  34.405   3.922
 2035W        W73651  40.395  41.503   0.397
 2036W        W73652  19.321  27.941  14.657
 2037W        W73653  20.149  25.744   1.839
 2038W        W73654  44.417   5.555   0.859
 2039W        W73655  44.959  31.146  13.411
 2040W        W73656  44.305  37.278  11.546
 2041W        W73657  19.085  30.489   2.610
 2042W        W73658  26.531  42.561   4.868
 2043W        W73659  29.858  34.587   2.107
 2044W        W73660  37.613   5.568  10.064
 2045W        W73661   1.865  28.216  14.037
 2046W        W73662   9.630  29.671   4.197
 2047W        W73663  26.558  43.545   1.354
 2048W        W73664  37.644  19.134   1.417
 2049W        W73665  26.102  22.038  11.525
 2050W        W73666  24.630  35.166   4.073
 2051W        W73667   4.542  24.027   4.134
 2052W        W73668  31.024  16.601  10.691
 2053W        W73669  29.307   2.654  10.775
 2054W        W73670  36.897  41.921   3.332
 2055W        W73671  44.452  35.643  10.112
 2056W        W73672  32.892  32.479   2.293
 2057W        W73673   7.500  38.411  14.307
 2058W        W73674  22.019   0.057  12.949
 2059W        W73675  43.757  31.363  13.604
 2060W        W73676  41.083  35.083   1.284
 2061W        W73677  35.208   0.261  11.911
 2062W        W73678   3.105  18.078   1.877
 2063W        W73679  13.261  26.562  13.477
 2064W        W73680  29.513   9.251  13.883
 2065W        W73681  29.903  41.546   0.761
 2066W        W73682   7.315  37.979  14.899
 2067W        W73683   2.178  16.000   5.008
 2068W        W73684  27.111  29.965  14.257
 2069W        W73685  12.632  18.181   0.194
 2070W        W73686  14.816  40.578   0.937
 2071W        W73687   7.237  26.341   4.193
 2072W        W73688  33.576  22.807  13.391
 2073W        W73689  15.779  40.184   3.326
 2074W        W73690  21.214   8.790  14.365
 2075W        W73691   6.947  32.053   3.895
 2076W        W73692  36.183  22.509   0.506
 2077W        W73693  40.077  17.589   1.277
 2078W        W73694  29.116  20.752   2.048
 2079W        W73695   8.430  34.443   1.037
 2080W        W73696  38.381  13.000   5.019
 2081W        W73697  34.929   4.283  12.080
 2082W        W73698  26.944  39.296  13.123
 2083W        W73699  27.430   6.946   1.357
 2084W        W73700  29.164  17.747  13.921
 2085W        W73701  34.777   8.149   4.334
 2086W        W73702  32.021  35.443  11.446
 2087W        W73703  28.295  44.721  14.943
 2088W        W73704  11.180   6.707   1.779
 2089W        W73705  16.240  33.378  13.504
 2090W        W73706  17.848  38.847  11.779
 2091W        W73707  15.183  32.195   1.809
 2092W        W73708   9.907  17.629  13.961
 2093W        W73709  21.072  16.611   4.285
 2094W        W73710  17.813  17.401   9.540
 2095W        W73711  38.874  11.681   4.241
 2096W        W73712  40.454  11.112  11.456
 2097W        W73713   4.663   9.375   1.187
 2098W        W73714  34.508  40.210   3.791
 2099W        W73715  16.073  22.444   2.302
 2100W        W73716  23.974  25.573   4.652
 2101W        W73717  11.074  10.334  12.599
 2102W        W73718  31.336   4.433  13.685
 2103W        W73719  27.035  29.225   9.857
 2104W        W73720  15.410  33.644   1.030
 2105W        W73721  18.758  29.651  11.713
 2106W        W73722   5.667  29.303   1.716
 2107W        W73723  16.619  38.423  10.641
 2108W        W73724  33.475  25.157  10.611
 2109W        W73725   7.331  25.050   3.737
 2110W        W73726   9.969   6.977   4.095
 2111W        W73727  20.950  14.017  12.528
 2112W        W73728  31.969  23.656   2.322
 2113W        W73729   8.448  37.935   4.076
 2114W        W73730  15.087  37.537   2.113
 2115W        W73731  18.900  25.581   4.113
 2116W        W73732  17.769  21.345   0.992
 2117W        W73733  30.164   5.601   2.199
 2118W        W73734  22.489  39.815   0.276
 2119W        W73735   1.772  30.099   3.476
 2120W        W73736  42.264  27.521  12.918
 2121W        W73737  25.012  11.032   1.150
 2122W        W73738  12.249  44.689  12.226
 2123W        W73739  31.626  13.524   2.211
 2124W        W73740   3.089  24.284   1.341
 2125W        W73741  42.918  12.715   3.113
 2126W        W73742   7.345  40.760   2.692
 2127W        W73743  41.364  13.147  11.612
 2128W        W73744   9.893   2.691  12.353
 2129W        W73745  42.547  42.111  10.638
 2130W        W73746  42.439  15.595   1.173
 2131W        W73747   7.416   8.689   4.438
 2132W        W73748  15.008  31.850  12.012
 2133W        W73749   1.418   8.699  11.853
 2134W        W73750  21.155  31.077   2.216
 2135W        W73751  11.847   7.338   0.756
 2136W        W73752   8.854  14.505  11.967
 2137W        W73753  22.750  44.603  10.646
 2138W        W73754  14.813   7.679   4.047
 2139W        W73755  28.479   0.171   4.309
 2140W        W73756   7.920   7.579  10.799
 2141W        W73757  21.674   2.557  14.087
 2142W        W73758  44.545  31.553  10.980
 2143W        W73759  37.932  33.353   3.271
 2144W        W73760  18.646  38.042   2.850
 2145W        W73761  39.447  31.650  11.987
 2146W        W73762  14.566  43.423   2.541
 2147W        W73763   6.823  36.433  12.012
 2148W        W73764   5.689   4.854  14.439
 2149W        W73765  24.253  26.000   3.846
 2150W        W73766  14.533  21.551  10.709
 2151W        W73767   3.770  38.196   3.877
 2152W        W73768  43.802  31.067  14.567
 2153W        W73769  21.129  16.823  10.703
 2154W        W73770  40.921  33.430  13.600
 2155W        W73771  38.712  31.620  13.898
 2156W        W73772  24.052   9.566   4.092
 2157W        W73773   9.360  13.943   3.615
 2158W        W73774  29.594  42.716  13.707
 2159W        W73775  34.690  41.593  10.490
 2160W        W73776  26.077  24.400  10.948
 2161W        W73777   2.014  18.284  14.378
 2162W        W73778  28.165   9.835  12.598
 2163W        W73779  26.417  26.983   0.793
 2164W        W73780  11.973  36.450  11.841
 2165W        W73781   4.240  32.351   3.157
 2166W        W73782  33.390  29.036  11.177
 2167W        W73783  34.817  31.362  14.451
 2168W        W73784   3.381  10.856  14.557
 2169W        W73785  30.484  34.465  13.843
 2170W        W73786  10.678   4.210  12.429
 2171W        W73787  23.578  42.187  12.138
 2172W        W73788   6.628  20.498  12.788
 2173W        W73789   3.892  22.917   5.032
 2174W        W73790  27.529  29.009  14.353
 2175W        W73791   0.940  29.169  13.952
 2176W        W73792  38.458  39.722  10.474
 2177W        W73793  34.115  34.206   1.715
 2178W        W73794  44.230  35.330   0.385
 2179W        W73795  16.940  17.588  12.027
 2180W        W73796  31.184   1.469  12.485
 2181W        W73797  35.329  25.847  11.105
 2182W        W73798   5.292  20.694  12.618
 2183W        W73799  16.346  20.760   0.723
 2184W        W73800   9.370   7.928  11.576
 2185W        W73801   8.281  41.866  12.899
 2186W        W73802  29.363   4.753  13.076
 2187W        W73803  33.362   0.756   2.675
 2188W        W73804   7.642   3.463   3.655
 2189W        W73805  22.340  34.833  11.307
 2190W        W73806  17.115  22.766  14.062
 2191W        W73807  25.601  44.574  14.843
 2192W        W73808  17.014  35.496  10.791
 2193W        W73809  32.138  18.060   2.336
 2194W        W73810   4.853  39.224  10.258
 2195W        W73811  36.040  32.137  14.882
 2196W        W73812  10.764  21.724  10.939
 2197W        W73813  32.268  38.322   1.030
 2198W        W73814  22.595   7.304  13.339
 2199W        W73815   4.892  34.578   4.839
 2200W        W73816  22.096  15.765  12.804
 2201W        W73817  38.386  43.691  12.954
 2202W        W73818  37.577  27.629  14.391
 2203W        W73819  18.531  42.255   4.593
 2204W        W73820  26.536   2.376   2.426
 2205W        W73821  29.681  28.555  13.732
 2206W        W73822   9.599  43.987   3.401
 2207W        W73823   4.676  17.009   2.361
 2208W        W73824  17.075  23.639   3.116
 2209W        W73825   4.809  13.714  10.715
 2210W        W73826   1.833  35.493   2.426
 2211W        W73827  18.601  16.843   0.381
 2212W        W73828  22.640  22.097  11.041
 2213W        W73829  24.766  26.244   1.929
 2214W        W73830  11.797  32.419   2.236
 2215W        W73831  23.621   9.411  12.056
 2216W        W73832  18.581  34.451   0.893
 2217W        W73833  16.257  13.498   1.376
 2218W        W73834  39.470  18.298   4.198
 2219W        W73835  17.484  11.826   3.741
 2220W        W73836  24.452  29.071  14.541
 2221W        W73837  11.258  18.511  11.583
 2222W        W73838  20.004  31.921   4.620
 2223W        W73839  42.515  21.893   4.158
 2224W        W73840  21.211  30.397   4.385
 2225W        W73841  31.997  16.995  14.827
 2226W        W73842  36.832  18.680  12.932
 2227W        W73843   5.356  31.049  10.652
 2228W        W73844  36.607  37.227   4.987
 2229W        W73845  34.097  13.930  10.978
 2230W        W73846   4.153  43.073  12.484
 2231W        W73847  43.690   7.315  13.053
 2232W        W73848  13.673  23.594   1.978
 2233W        W73849   8.615  13.040  12.454
 2234W        W73850  24.542  41.128  13.470
 2235W        W73851  17.156  43.486  11.188
 2236W        W73852  38.526   0.696  10.660
 2237W        W73853  32.560  40.066   2.194
 2238W        W73854  38.922  41.541   0.384
 2239W        W73855  43.864  41.017   4.462
 2240W        W73856  18.342  18.066  13.466
 2241W        W73857   5.838  12.381   0.818
 2242W        W73858   0.726  32.752   2.888
 2243W        W73859  33.482  25.997   3.232
 2244W        W73860   9.240  34.967  11.181
 2245W        W73861   3.240   7.849   2.704
 2246W        W73862   2.571  21.710   2.936
 2247W        W73863  11.883  43.891  12.791
 2248W        W73864  14.132  32.321   2.694
 2249W        W73865   6.450   5.345  12.937
 2250W        W73866  21.857   5.752   0.731
 2251W        W73867   9.327  31.677   0.956
 2252W        W73868  12.175  23.531  14.505
 2253W        W73869  40.758   8.267   4.065
 2254W        W73870  18.324  41.326  13.669
 2255W        W73871   0.930  10.668   4.494
 2256W        W73872  42.811  44.548  12.194
 2257W        W73873  26.369   6.818  14.111
 2258W        W73874  44.097  18.170  11.243
 2259W        W73875  25.321  40.453  11.505
 2260W        W73876  30.117  23.039   2.037
 2261W        W73877  39.818  31.509  12.870
 2262W        W73878  26.748  15.824  12.049
 2263W        W73879  25.771  31.470   1.274
 2264W        W73880  37.404   7.313   2.440
 2265W        W73881  32.777  36.146   3.566
 2266W        W73882   8.872  21.761  12.464
 2267W        W73883  44.193  42.153   2.118
 2268W        W73884   1.656  34.399   1.789
 2269W        W73885  14.049  34.993  14.055
 2270W        W73886  39.025  19.181   3.928
 2271W        W73887  11.141  16.213   1.710
 2272W        W73888   8.382  24.446  11.162
 2273W        W73889  23.703  37.058   3.779
 2274W        W73890  41.342  29.574   1.308
 2275W        W73891  12.172  10.708   0.505
 2276W        W73892  11.479  43.154   4.231
 2277W        W73893   5.477  20.158  10.865
 2278W        W73894  28.722  36.578   3.350
 2279W        W73895  20.805   1.223  12.997
 2280W        W73896  36.505  12.750   0.764
 2281W        W73897  35.446   3.648   3.260
 2282W        W73898  19.864  39.522  12.379
 2283W        W73899  17.101  41.056  14.763
 2284W        W73900  40.855  15.579   1.900
 2285W        W73901  15.681  23.169   2.120
 2286W        W73902   5.058  40.034  12.969
 2287W        W73903  39.388  22.478   4.612
 2288W        W73904  32.200   5.405   4.563
 2289W        W73905  33.879  34.143  14.818
 2290W        W73906   9.116  24.476   3.576
 2291W        W73907   1.090  31.889  11.738
 2292W        W73908  38.973  10.710   2.684
 2293W        W73909   2.629  35.457   2.702
 2294W        W73910   9.792  31.882  14.392
 2295W        W73911  41.986   6.370   4.074
 2296W        W73912   3.890  31.294   4.179
 2297W        W73913   6.945  41.402   0.033
 2298W        W73914  27.024  29.822   3.572
 2299W        W73915   7.878  12.789  10.193
 2300W        W73916  36.666  19.353   5.083
 2301W        W73917   7.178   1.722   3.330
 2302W        W73918   6.003  24.262   4.743
 2303W        W73919   7.808   9.828   1.156
 2304W        W73920  35.093  22.057   1.477
 2305W        W73921  13.763  15.204   4.331
 2306W        W73922  34.078  22.245  13.000
 2307W        W73923   7.445   0.849   4.388
 2308W        W73924  14.868  17.631   3.975
 2309W        W73925  10.804  13.248  14.447
 2310W        W73926  25.201  29.427  14.406
 2311W        W73927   6.939  23.036   4.942
 2312W        W73928  41.280  26.512   4.571
 2313W        W73929  36.926  30.706   1.394
 2314W        W73930  21.571  41.431   2.859
 2315W        W73931  41.901  43.535   1.965
 2316W        W73932  31.457   3.796   1.658
 2317W        W73933  20.152  38.867   1.331
 2318W        W73934  19.320  18.701   4.330
 2319W        W73935  36.346  26.131   0.928
 2320W        W73936   5.198   6.296  14.221
 2321W        W73937  43.881   5.564  11.593
 2322W        W73938  33.071  35.790   4.197
 2323W        W73939  34.766  24.399   2.760
 2324W        W73940   5.622  44.310  14.377
 2325W        W73941  41.827   6.123   0.389
 2326W        W73942  18.817  19.558  11.170
 2327W        W73943  44.994   6.604  14.310
 2328W        W73944  19.466  42.027  10.700
 2329W        W73945  13.108  40.249   1.315
 2330W        W73946  36.533   8.852   3.329
 2331W        W73947  30.068  18.133   4.600
 2332W        W73948  24.004   0.723  13.316
 2333W        W73949  19.206  37.683   3.738
 2334W        W73950  17.428  17.518   3.289
 2335W        W73951  21.598  35.643   1.520
 2336W        W73952  24.380  28.906  13.503
 2337W        W73953  10.301  14.159  11.974
 2338W        W73954  21.222  13.573  11.657
 2339W        W73955  12.749   3.410  14.804
 2340W        W73956  42.327  24.473  10.711
 2341W        W73957  26.549  28.292   0.660
 2342W        W73958  32.018  16.679   2.374
 2343W        W73959  37.417   0.513   3.624
 2344W        W73960   1.344  15.458  12.954
 2345W        W73961  38.142  39.259  13.491
 2346W        W73962  35.411  43.546  14.748
 2347W        W73963  26.632  19.721   3.273
 2348W        W73964  44.366  40.081  10.674
 2349W        W73965  17.756  43.709  14.851
 2350W        W73966  16.048  11.760  14.793
 2351W        W73967  36.850  11.418   4.093
 2352W        W73968  17.232  36.072   0.153
 2353W        W73969   0.198  27.364  11.160
 2354W        W73970  29.368   9.128   0.749
 2355W        W73971  25.809  12.162   1.786
 2356W        W73972  26.678  22.424  10.669
 2357W        W73973   7.155  18.235   2.125
 2358W        W73974  10.779   6.387   2.332
 2359W        W73975  42.512  31.896   1.087
 2360W        W73976   9.118  13.774  14.297
 2361W        W73977   6.159  12.252   3.612
 2362W        W73978  16.575  29.327  14.611
 2363W        W73979  24.541  41.084  11.195
 2364W        W73980   7.234  26.611  11.646
 2365W        W73981  13.670   0.795   4.564
 2366W        W73982  15.933  36.019   2.222
 2367W        W73983  41.947  16.295   2.049
 2368W        W73984  32.075   2.767   1.745
 2369W        W73985  19.471  17.767   0.984
 2370W        W73986   9.307  16.374   1.262
 2371W        W73987   6.203  36.583  10.566
 2372W        W73988   5.325  28.536  14.947
 2373W        W73989  23.311  39.501   2.794
 2374W        W73990   4.136  33.656  13.085
 2375W        W73991  36.915  36.312  11.787
 2376W        W73992  16.230  20.761   3.593
 2377W        W73993  11.191   6.163   3.760
 2378W        W73994  15.885  38.940   1.640
 2379W        W73995  25.096   5.383   1.757
 2380W        W73996  42.352  18.988   3.491
 2381W        W73997   5.147   3.328  11.025
 2382W        W73998  22.963  24.156  10.737
 2383W        W73999  11.478   0.375  11.554
 2384W        W74000  18.089  31.198   4.425
 2385W        W74001  38.549  37.173   4.980
 2386W        W74002  23.042  12.569  13.503
 2387W        W74003  25.956  32.077  14.808
 2388W        W74004  12.554   0.855   2.791
 2389W        W74005   2.433  24.525   3.877
 2390W        W74006  11.520  35.862   2.148
 2391W        W74007  28.628  43.930   4.640
 2392W        W74008  36.458  39.536  12.407
 2393W        W74009  18.602  40.308  14.084
 2394W        W74010  16.179  11.926   4.174
 2395W        W74011  12.409  42.955  12.455
 2396W        W74012  37.777   0.248   0.901
 2397W        W74013   0.292  40.077   0.769
 2398W        W74014  43.730   9.842  11.118
 2399W        W74015   2.352  40.971  13.123
 2400W        W74016  37.994  39.438  10.542
 2401W        W74017  22.548  12.895   0.937
 2402W        W74018  38.376  36.952  13.783
 2403W        W74019  10.842  40.033   3.551
 2404W        W74020  37.994  27.532  12.645
 2405W        W74021  30.147  43.973  10.717
 2406W        W74022  25.379  43.875   0.350
 2407W        W74023  17.202  37.870  12.138
 2408W        W74024  18.178  32.517  13.345
 2409W        W74025  44.033  39.352   0.526
 2410W        W74026  37.106  33.885  13.846
 2411W        W74027  18.530   6.658  14.333
 2412W        W74028  34.692  23.899   2.219
 2413W        W74029  41.541  13.505   2.380
 2414W        W74030  14.275   7.835   1.890
 2415W        W74031  14.681  18.671   3.334
 2416W        W74032  35.166   7.487   5.024
 2417W        W74033  26.202  30.483  11.991
 2418W        W74034  24.011   6.247   4.537
 2419W        W74035  26.602  12.695  13.732
 2420W        W74036  41.250   6.810   4.573
 2421W        W74037  33.677  12.383  14.051
 2422W        W74038   2.910  32.540  11.192
 2423W        W74039  14.638  12.671  12.062
 2424W        W74040  40.886  43.452   2.285
 2425W        W74041  15.167  10.666  13.776
 2426W        W74042   5.217  39.237  11.446
 2427W        W74043  40.817  32.969   0.911
 2428W        W74044  11.849  29.661   3.878
 2429W        W74045  10.336  25.045   0.518
 2430W        W74046   3.452  35.573   4.379
 2431W        W74047   4.270  32.497  12.113
 2432W        W74048   8.716   4.685  14.641
 2433W        W74049  32.150  20.663   0.818
 2434W        W74050  33.541  36.322  10.639
 2435W        W74051  20.104   2.013  13.100
 2436W        W74052   3.133  18.735  14.089
 2437W        W74053  28.549  16.088  12.494
 2438W        W74054  42.948  16.168   4.464
 2439W        W74055   2.889  10.328   3.715
 2440W        W74056  41.893  44.522   1.592
 2441W        W74057  30.651  23.689  14.703
 2442W        W74058   9.069  13.274  11.269
 2443W        W74059  34.522  22.464  13.871
 2444W        W74060  14.248   5.388   0.694
 2445W        W74061  10.772  37.052  10.536
 2446W        W74062   8.346  15.613  12.459
 2447W        W74063  18.774  40.408  10.624
 2448W        W74064   3.836   1.247  12.049
 2449W        W74065  29.463  25.077  11.132
 2450W        W74066  42.189  12.202  12.390
 2451W        W74067   4.938   4.395  14.335
 2452W        W74068  27.686  24.082   3.863
 2453W        W74069  42.118  25.526   3.617
 2454W        W74070   5.944  10.241   3.421
 2455W        W74071  23.281  19.510  11.222
 2456W        W74072  29.364  18.996   2.326
 2457W        W74073   4.860  36.486  13.882
 2458W        W74074  30.536  37.159  10.609
 2459W        W74075  33.857  12.101   0.959
 2460W        W74076  28.727  32.951   1.117
 2461W        W74077  13.542   3.177   0.986
 2462W        W74078  36.011  24.189  12.878
 2463W        W74079   3.657  31.536  13.881
 2464W        W74080  44.599  23.738   1.427
 2465W        W74081  31.463  39.448  11.630
 2466W        W74082   1.117  19.834  12.358
 2467W        W74083  14.262  39.109  11.046
 2468W        W74084  37.792  15.842   3.273
 2469W        W74085  15.017  42.948   3.883
 2470W        W74086  20.109  36.459  11.403
 2471W        W74087  37.988  20.234   4.029
 2472W        W74088  21.658  34.411  11.485
 2473W        W74089   3.867  29.715  10.746
 2474W        W74090   4.868  22.167   5.246
 2475W        W74091  24.743   1.707   0.969
 2476W        W74092  33.071  12.250   1.256
 2477W        W74093  39.570  37.659  13.482
 2478W        W74094  39.955  17.159  11.389
 2479W        W74095  30.936   2.323  12.015
 2480W        W74096  40.762   6.723   0.489
 2481W        W74097   8.186  17.667  14.782
 2482W        W74098   9.469  44.167   3.988
 2483W        W74099   1.531  18.247   3.136
 2484W        W74100  18.191  34.220   4.098
 2485W        W74101   0.795  35.594  13.110
 2486W        W74102   8.236   7.805  13.812
 2487W        W74103  41.270  11.459  13.001
 2488W        W74104  14.886  27.530  10.713
 2489W        W74105   5.961  32.444   4.858
 2490W        W74106  11.757   9.321  10.705
 2491W        W74107  38.932  32.976  13.312
 2492W        W74108  19.001  26.890  14.789
 2493W        W74109  35.463  17.539   3.719
 2494W        W74110  29.427  27.362   3.796
 2495W        W74111  18.275  20.810  12.026
 2496W        W74112   5.951   8.798   0.393
 2497W        W74113  23.246  10.819  14.364
 2498W        W74114  41.922  21.489  10.637
 2499W        W74115  29.669  27.478   2.303
 2500W        W74116  32.582  22.557   1.380
 2501W        W74117  19.734  40.551   3.085
 2502W        W74118   1.644  16.564   2.492
 2503W        W74119   4.926  15.074   0.089
 2504W        W74120  41.957   3.861   0.307
 2505W        W74121   3.383  14.799   4.433
 2506W        W74122  43.263  41.655   2.316
 2507W        W74123  14.330  36.213   5.093
 2508W        W74124  15.760  42.298   0.862
 2509W        W74125   7.625  23.667  11.731
 2510W        W74126  17.595  22.683   3.285
 2511W        W74127  42.963  34.756   0.860
 2512W        W74128  31.252  18.544   5.025
 2513W        W74129   2.369  11.952  10.332
 2514W        W74130  37.019  30.812   4.269
 2515W        W74131  22.390   4.348  11.177
 2516W        W74132  41.905  42.934  10.647
 2517W        W74133  20.635   7.973  14.176
 2518W        W74134  34.003  29.700   4.501
 2519W        W74135  39.175  13.714   0.725
 2520W        W74136  40.208  24.024  10.031
 2521W        W74137  36.483  39.704  11.917
 2522W        W74138  25.284  12.815  14.368
 2523W        W74139   0.333  13.310   1.861
 2524W        W74140  10.372   2.989  11.604
 2525W        W74141  27.218  17.028   5.481
 2526W        W74142  26.462  13.381  14.337
 2527W        W74143  37.342  44.295  14.261
 2528W        W74144  32.422  22.851  12.039
 2529W        W74145  26.024   1.056  13.886
 2530W        W74146  14.658  35.509  13.397
 2531W        W74147  39.982  11.324   3.356
 2532W        W74148  18.505   4.919   3.794
 2533W        W74149   6.140  36.731  12.603
 2534W        W74150  35.886  36.345  13.367
 2535W        W74151  38.407  37.804   4.525
 2536W        W74152  17.724  26.631  11.979
 2537W        W74153  22.268   6.101   4.595
 2538W        W74154  11.797  18.997  14.208
 2539W        W74155  40.478  15.813   3.664
 2540W        W74156   7.818  17.257   1.729
 2541W        W74157  30.451   6.037  12.930
 2542W        W74158  36.131   4.833   4.883
 2543W        W74159  31.328  43.241   1.395
 2544W        W74160  19.340  43.802  10.564
 2545W        W74161  26.638  29.430  10.641
 2546W        W74162   4.346  40.111  13.427
 2547W        W74163   7.912  12.213   3.804
 2548W        W74164  43.562  12.278   3.756
 2549W        W74165  11.083  42.429   1.929
 2550W        W74166  13.094  34.946  14.059
 2551W        W74167  10.704  25.996  14.831
 2552W        W74168  43.841  43.227   1.561
 2553W        W74169  40.303   7.494   1.713
 2554W        W74170  14.039   1.240   4.474
 2555W        W74171  22.888   4.629  12.055
 2556W        W74172   7.269  31.553  14.794
 2557W        W74173  26.665  43.100  14.793
 2558W        W74174  39.505  20.281   4.159
 2559W        W74175  29.727  31.474   2.351
 2560W        W74176   6.814   9.873   2.387
 2561W        W74177  13.497   1.647  10.234
 2562W        W74178  31.781   9.869   0.353
 2563W        W74179  36.571  11.448   0.739
 2564W        W74180  21.267  33.638   3.229
 2565W        W74181  27.906  34.907   3.235
 2566W        W74182  12.599   3.254   0.941
 2567W        W74183  18.492  11.665   1.241
 2568W        W74184  35.923  26.031  11.178
 2569W        W74185  30.384  21.406   2.460
 2570W        W74186  21.444   3.861   3.404
 2571W        W74187   5.743  39.840  12.517
 2572W        W74188  44.818   4.753   3.249
 2573W        W74189  10.878  17.013   1.102
 2574W        W74190  18.371   2.248   0.849
 2575W        W74191   3.459  13.067  14.804
 2576W        W74192  16.307   2.883  13.928
 2577W        W74193  40.672  16.036   4.152
 2578W        W74194  14.643  19.988  11.073
 2579W        W74195  20.567  21.707   3.605
 2580W        W74196  22.658   7.746  14.521
 2581W        W74197   6.774  10.298   4.471
 2582W        W74198  42.761   3.917  12.573
 2583W        W74199   1.538  15.684  14.121
 2584W        W74200  44.154   5.754   0.471
 2585W        W74201  25.142  33.087  10.742
 2586W        W74202  41.584   0.284  13.884
 2587W        W74203  27.013  40.820   0.291
 2588W        W74204  18.714   8.625   1.376
 2589W        W74205  40.431  32.639   3.075
 2590W        W74206  26.988  36.922  12.396
 2591W        W74207  18.122  41.047   3.585
 2592W        W74208  38.739  11.609   2.354
 2593W        W74209  15.153   6.357  12.802
 2594W        W74210  31.053  17.307   1.376
 2595W        W74211  18.537   8.730  11.166
 2596W        W74212   3.713   2.425   4.644
 2597W        W74213  20.990  28.947  11.099
 2598W        W74214  42.513  43.765  14.940
 2599W        W74215   9.882  11.662   3.227
 2600W        W74216  40.124   2.130  11.331
 2601W        W74217   3.838  33.931  10.502
 2602W        W74218  13.857  31.922  11.448
 2603W        W74219   0.043  40.982  12.521
 2604W        W74220   5.388  27.172  14.501
 2605W        W74221   0.660  38.850  11.659
 2606W        W74222  23.223  35.491  13.234
 2607W        W74223  39.126  10.342  14.768
 2608W        W74224  36.507   8.292  12.578
 2609W        W74225   0.755  39.499   0.031
 2610W        W74226  19.155   2.271   1.226
 2611W        W74227  43.051  30.285  13.453
 2612W        W74228  43.520  30.534   4.123
 2613W        W74229  15.676  41.086   1.534
 2614W        W74230  40.135  17.291   3.707
 2615W        W74231  22.064  14.845   2.201
 2616W        W74232   7.777   3.226  11.713
 2617W        W74233  22.004  43.893  13.455
 2618W        W74234  11.270  37.148  14.305
 2619W        W74235  38.124  34.172  12.427
 2620W        W74236  36.736   5.711   4.702
 2621W        W74237  30.884  34.957   3.136
 2622W        W74238  24.604  44.265   2.777
 2623W        W74239  10.793   4.371  10.787
 2624W        W74240  23.832  20.147  14.930
 2625W        W74241   2.397  28.647   4.614
 2626W        W74242  12.084   4.171   0.214
 2627W        W74243  27.641  21.623  14.747
 2628W        W74244   2.842  25.081  11.464
 2629W        W74245  22.004  26.369   4.402
 2630W        W74246  38.964  12.104  10.527
 2631W        W74247  27.244  30.881   2.099
 2632W        W74248  36.044  11.487  11.103
 2633W        W74249  16.696  20.168   3.781
 2634W        W74250  17.331  10.233  11.194
 2635W        W74251  11.561  42.890  14.237
 2636W        W74252  14.637  29.971  12.836
 2637W        W74253  23.536  33.400   2.286
 2638W        W74254  15.941   3.925   5.784
 2639W        W74255  39.469   2.034   0.830
 2640W        W74256  29.007   1.238  13.524
 2641W        W74257   2.844   1.212   2.860
 2642W        W74258  14.346  34.634  13.417
 2643W        W74259  26.119   5.746   0.913
 2644W        W74260  26.227  18.628  11.092
 2645W        W74261   9.174  26.014  12.022
 2646W        W74262  12.933  37.092   1.958
 2647W        W74263  32.041   4.332  13.428
 2648W        W74264   0.976  36.980  14.792
 2649W        W74265  13.289  30.672   0.860
 2650W        W74266   9.760  24.244  13.462
 2651W        W74267  17.574  26.622  14.368
 2652W        W74268  30.996  18.503  12.476
 2653W        W74269  27.826  29.611  13.303
 2654W        W74270  27.784  26.164   4.051
 2655W        W74271  27.021  15.507   2.700
 2656W        W74272  36.579   2.229   2.779
 2657W        W74273  24.021  30.598   0.454
 2658W        W74274  13.775  13.700   1.236
 2659W        W74275  14.698   8.181   2.003
 2660W        W74276  44.492  41.276  12.269
 2661W        W74277  40.811  15.493  13.836
 2662W        W74278   5.832   4.363  10.910
 2663W        W74279   1.437  40.473  11.576
 2664W        W74280  36.485   0.008  11.385
 2665W        W74281  24.516  11.481   0.439
 2666W        W74282   8.007  32.282   3.127
 2667W        W74283  25.669  44.058   1.347
 2668W        W74284   7.868  15.024  14.905
 2669W        W74285  16.672   3.351  14.715
 2670W        W74286  29.757   9.789  13.951
 2671W        W74287  13.291   1.323  11.219
 2672W        W74288  39.322  36.925   2.335
 2673W        W74289  41.051  35.748  11.492
 2674W        W74290   6.962  30.489   4.570
 2675W        W74291  32.863  26.139  14.284
 2676W        W74292  42.148  23.470  10.613
 2677W        W74293   1.386  30.548  10.555
 2678W        W74294  15.225   0.026   3.161
 2679W        W74295  12.573   4.282  11.089
 2680W        W74296  26.773  43.959  12.909
 2681W        W74297  37.481  19.528   1.724
 2682W        W74298  35.177  36.053   2.237
 2683W        W74299   3.351  15.315   0.627
 2684W        W74300  28.114  26.614  12.630
 2685W        W74301  34.468   8.891   0.582
 2686W        W74302  42.784  25.035   0.373
 2687W        W74303  20.244  19.796  12.575
 2688W        W74304  30.948  26.596   4.173
 2689W        W74305  12.545  31.741  12.843
 2690W        W74306  28.995  42.870  12.490
 2691W        W74307  29.671  16.569  14.079
 2692W        W74308  27.378  10.405   3.709
 2693W        W74309  39.044  32.386  14.886
 2694W        W74310   3.888  43.903   5.086
 2695W        W74311  26.356  36.596   1.346
 2696W        W74312  27.672  22.071   2.066
 2697W        W74313  35.809  28.053   1.384
 2698W        W74314  12.760  41.427   1.554
 2699W        W74315  10.197  26.666   4.171
 2700W        W74316  12.410  19.496  12.353
 2701W        W74317  43.849  22.076   0.637
 2702W        W74318   9.855   7.249  13.472
 2703W        W74319  35.522  44.841  12.002
 2704W        W74320  42.219  44.864  11.442
 2705W        W74321  21.670  19.993  11.297
 2706W        W74322  34.450  12.579  13.929
 2707W        W74323  17.200   5.680  12.323
 2708W        W74324  42.471   4.003   2.136
 2709W        W74325  37.306  35.152   3.228
 2710W        W74326  26.205   7.616  10.736
 2711W        W74327  28.535  19.012   4.808
 2712W        W74328  19.724  17.654   3.687
 2713W        W74329   8.151  14.462   1.820
 2714W        W74330  27.024  28.944   3.800
 2715W        W74331  11.928   3.751   1.925
 2716W        W74332  31.528  12.386  14.937
 2717W        W74333  27.015   5.098  10.381
 2718W        W74334  26.562  41.968  14.015
 2719W        W74335  25.977  14.359   0.292
 2720W        W74336  19.415  16.396  13.507
 2721W        W74337   2.829  44.790   3.657
 2722W        W74338  22.511  24.804   0.707
 2723W        W74339  41.682  44.788   4.090
 2724W        W74340   5.472  36.989  10.390
 2725W        W74341  23.823  35.822   1.200
 2726W        W74342  41.562  42.925   4.125
 2727W        W74343  13.674  43.914  13.062
 2728W        W74344  20.794  17.989  14.276
 2729W        W74345  31.593   6.443   4.820
 2730W        W74346  43.529  23.732   3.169
 2731W        W74347  15.661  11.516  12.132
 2732W        W74348  18.597   7.259   1.727
 2733W        W74349  17.112  17.304  12.982
 2734W        W74350  17.018   1.539  12.778
 2735W        W74351  37.621  16.428  12.054
 2736W        W74352   9.753  14.039   4.037
 2737W        W74353   3.844   5.872  11.154
 2738W        W74354  19.917  38.665  11.858
 2739W        W74355  24.159  11.321   4.213
 2740W        W74356   6.888  17.676  12.343
 2741W        W74357  13.822  23.723   3.320
 2742W        W74358  31.023  32.104   2.968
 2743W        W74359  24.567  44.564   3.215
 2744W        W74360  21.586  42.474   1.994
 2745W        W74361  20.737  43.481   4.631
 2746W        W74362  20.007   9.950  14.990
 2747W        W74363   9.667   7.584   3.760
 2748W        W74364  38.679  19.451   1.140
 2749W        W74365  40.509  18.752  14.869
 2750W        W74366   8.775  38.541   0.721
 2751W        W74367  38.976  15.643  14.300
 2752W        W74368  34.873   3.181  13.042
 2753W        W74369   0.812   1.825  10.813
 2754W        W74370   2.962  38.499   1.705
 2755W        W74371  25.636  44.772  10.403
 2756W        W74372  32.437  35.081   1.926
 2757W        W74373   6.491  30.817  12.366
 2758W        W74374  27.674  43.829   1.302
 2759W        W74375   8.864  40.813  11.643
 2760W        W74376  16.261   8.916   0.582
 2761W        W74377   5.531  20.824   0.264
 2762W        W74378  12.575  43.823  12.143
 2763W        W74379  21.171  42.984  13.530
 2764W        W74380   4.131  40.577  10.692
 2765W        W74381   9.814  17.887  13.511
 2766W        W74382  44.853  36.415  13.837
 2767W        W74383   1.018   7.902   1.833
 2768W        W74384   2.386  20.077   4.653
 2769W        W74385  29.050  30.199  10.661
 2770W        W74386   2.352   8.104   0.035
 2771W        W74387   0.273  43.839   4.650
 2772W        W74388   8.464  23.088   0.922
 2773W        W74389  18.090  20.528   4.093
 2774W        W74390  19.534  31.610  12.858
 2775W        W74391   2.720  13.056  14.445
 2776W        W74392   2.317  43.161  13.252
 2777W        W74393  12.154   4.652  13.847
 2778W        W74394  18.290  17.628   1.730
 2779W        W74395   5.357  16.170  10.455
 2780W        W74396  20.226   6.108   3.351
 2781W        W74397  15.279  23.665  12.885
 2782W        W74398  25.335  31.057   3.825
 2783W        W74399  24.743  36.728   4.174
 2784W        W74400  19.804  27.557   1.783
 2785W        W74401  20.205  42.329   1.750
 2786W        W74402  38.721  26.750   4.943
 2787W        W74403   3.759  40.062  13.847
 2788W        W74404   8.914  43.407  14.212
 2789W        W74405  44.365  28.239   0.875
 2790W        W74406  27.872  40.844  10.105
 2791W        W74407  19.668  25.269  13.104
 2792W        W74408  40.163   3.354  10.980
 2793W        W74409  16.769  12.705   2.767
 2794W        W74410  36.857   7.732  12.955
 2795W        W74411  31.308  18.536   3.158
 2796W        W74412  16.258  11.345  14.534
 2797W        W74413   2.064  44.850  10.628
 2798W        W74414   8.603   4.235  11.917
 2799W        W74415   2.458  34.488   4.555
 2800W        W74416  21.545   3.322  13.534
 2801W        W74417  15.633  33.854  11.495
 2802W        W74418  11.338  18.249   2.907
 2803W        W74419  11.096  34.618  11.681
 2804W        W74420  35.543  22.782   2.298
 2805W        W74421  32.423   7.351   4.234
 2806W        W74422  18.049  24.890  12.957
 2807W        W74423   6.680  36.963  13.822
 2808W        W74424  19.552  32.185   3.771
 2809W        W74425  36.273  26.985   1.867
 2810W        W74426   0.441  35.095   1.970
 2811W        W74427  20.631  41.303  13.526
 2812W        W74428  18.544  20.158   0.402
 2813W        W74429  20.926   4.518   5.077
 2814W        W74430  14.446  17.206   1.875
 2815W        W74431  15.133  41.452  11.194
 2816W        W74432  34.803  27.152  14.730
 2817W        W74433  25.956  31.910   0.814
 2818W        W74434  25.727  38.925   4.606
 2819W        W74435  21.763   6.674  14.849
 2820W        W74436  33.979  36.615   0.808
 2821W        W74437   9.446  31.457   2.148
 2822W        W74438  38.979  31.081   4.542
 2823W        W74439  25.658  32.880   4.781
 2824W        W74440   5.955  19.658   0.901
 2825W        W74441  23.137  19.084  10.921
 2826W        W74442  41.816  24.589  10.691
 2827W        W74443   8.968  43.805  11.032
 2828W        W74444  13.874   5.432  11.048
 2829W        W74445  22.229   3.361   0.203
 2830W        W74446  17.418   8.674   4.272
 2831W        W74447  28.137  33.244   1.047
 2832W        W74448   2.442  12.660   2.247
 2833W        W74449  33.365  12.271  10.665
 2834W        W74450  29.395  43.965   2.762
 2835W        W74451  28.731  32.152   2.395
 2836W        W74452  37.133  22.917   0.708
 2837W        W74453   5.183  39.386  13.902
 2838W        W74454   8.871  29.323   0.968
 2839W        W74455  35.127  10.596   3.563
 2840W        W74456  42.966  25.079   3.806
 2841W        W74457  11.815  26.217   3.278
 2842W        W74458   2.222  28.191  11.527
 2843W        W74459  33.427  34.842   3.185
 2844W        W74460  39.401  17.029  10.558
 2845W        W74461  10.127  40.525  12.852
 2846W        W74462  20.784  40.363   2.184
 2847W        W74463   7.847  25.484  14.874
 2848W        W74464  27.033  42.873   3.809
 2849W        W74465  12.196  40.905  12.925
 2850W        W74466   9.355  43.769  11.398
 2851W        W74467   6.173   6.949   1.859
 2852W        W74468   8.067  14.146  12.823
 2853W        W74469   6.619   9.678  12.436
 2854W        W74470  16.642  24.665   3.048
 2855W        W74471  25.080  21.233  12.535
 2856W        W74472  33.183  27.018   2.720
 2857W        W74473   8.831  44.651   1.242
 2858W        W74474  27.172  15.887  13.735
 2859W        W74475  39.058   4.982   2.279
 2860W        W74476  30.914  44.254  12.552
 2861W        W74477   7.400  32.586   0.497
 2862W        W74478  41.350  28.162  10.665
 2863W        W74479  38.909  22.846  13.449
 2864W        W74480   9.235  16.053   0.796
 2865W        W74481  41.420   6.611  13.446
 2866W        W74482  24.737  11.801   1.366
 2867W        W74483  18.238   5.197  10.680
 2868W        W74484  10.160  39.796  14.849
 2869W        W74485  31.265  16.046   0.316
 2870W        W74486  28.891  40.031   4.593
 2871W        W74487  36.713  14.684   3.000
 2872W        W74488  43.761  28.895  11.963
 2873W        W74489  21.196   4.118  12.886
 2874W        W74490  11.246   5.131   1.873
 2875W        W74491  40.193  24.324  11.124
 2876W        W74492  19.576   6.828   4.157
 2877W        W74493   2.027  12.059   2.831
 2878W        W74494  22.070  34.638   0.001
 2879W        W74495  19.078  10.171   2.095
 2880W        W74496  13.148  27.839   5.045
 2881W        W74497   7.225  40.496   2.229
 2882W        W74498   2.283   0.985  10.240
 2883W        W74499  26.446  38.271  12.142
 2884W        W74500  15.356   3.849  12.146
 2885W        W74501  41.507  18.198   3.625
 2886W        W74502   8.921  30.501   3.234
 2887W        W74503  37.044  11.908   0.253
 2888W        W74504  44.548  33.692   2.887
 2889W        W74505  34.477  30.930  12.015
 2890W        W74506  42.737  27.378   0.293
 2891W        W74507  37.907  37.053  10.476
 2892W        W74508  17.646  15.816  11.290
 2893W        W74509  42.922  33.978  13.484
 2894W        W74510  26.798  26.045  10.597
 2895W        W74511   9.221  40.991   2.852
 2896W        W74512  12.235  41.480   3.261
 2897W        W74513  24.181  38.083   1.417
 2898W        W74514   5.108  22.481   4.741
 2899W        W74515  35.460  17.638  14.047
 2900W        W74516   6.888  17.130  14.640
 2901W        W74517  44.254  22.413  10.339
 2902W        W74518  40.848   0.237   3.630
 2903W        W74519  10.266  35.409  13.078
 2904W        W74520  44.014  25.971   1.221
 2905W        W74521   6.716   4.396  14.827
 2906W        W74522   5.814  24.627  14.998
 2907W        W74523   0.328  39.452  14.727
 2908W        W74524  35.534   1.894  10.299
 2909W        W74525  30.497  20.121  12.523
 2910W        W74526  35.772   8.988  13.909
 2911W        W74527  31.249  41.368   0.523
 2912W        W74528   0.429  14.619   2.352
 2913W        W74529  26.796  21.140   2.225
 2914W        W74530  36.529  43.253  14.489
 2915W        W74531  36.801  18.791  11.079
 2916W        W74532   3.567  12.322  13.513
 2917W        W74533  44.890  14.206  10.787
 2918W        W74534   8.429  38.475  12.134
 2919W        W74535   5.340   1.896   3.227
 2920W        W74536  31.057  22.825   0.367
 2921W        W74537  15.340  32.351  13.746
 2922W        W74538  22.995  35.187  14.104
 2923W        W74539  35.438  14.574  13.837
 2924W        W74540  27.057  41.761   4.725
 2925W        W74541  39.249  21.027  14.298
 2926W        W74542  35.051   0.214   3.848
 2927W        W74543   0.238  11.926   1.824
 2928W        W74544  31.702  44.459  12.915
 2929W        W74545   3.209   2.139   2.031
 2930W        W74546  27.662  27.260   0.416
 2931W        W74547   8.162  34.866  11.111
 2932W        W74548  18.192  28.498   0.978
 2933W        W74549   8.631  41.897   0.328
 2934W        W74550   9.126  19.544   3.320
 2935W        W74551   8.427  30.076   4.258
 2936W        W74552   7.815  16.610  11.599
 2937W        W74553  32.916  39.894   0.377
 2938W        W74554  40.827  41.695   3.208
 2939W        W74555   4.761  11.301   2.749
 2940W        W74556   1.234  18.748   0.374
 2941W        W74557   0.722  22.269  12.794
 2942W        W74558  18.442  16.017  11.408
 2943W        W74559   2.831  32.659   2.105
 2944W        W74560  41.469  20.771  11.001
 2945W        W74561   4.957  14.746   0.498
 2946W        W74562   7.213  10.590   3.874
 2947W        W74563  24.526  36.660  11.980
 2948W        W74564  30.960  29.936  11.274
 2949W        W74565  39.180  42.869  10.053
 2950W        W74566  29.938  40.344   1.491
 2951W        W74567  44.720   1.793   1.819
 2952W        W74568  14.795  21.552   1.972
 2953W        W74569  26.638   1.430  14.087
 2954W        W74570  32.464   0.535  12.575
 2955W        W74571  11.212  13.782   4.063
 2956W        W74572  34.745  23.062  10.532
 2957W        W74573   2.688   9.745  14.643
 2958W        W74574  21.050   1.244  13.869
 2959W        W74575  28.387  14.775  14.349
 2960W        W74576  28.395  43.507  12.498
 2961W        W74577  35.345  34.939  12.829
 2962W        W74578   9.573  28.827   4.189
 2963W        W74579   8.799  22.517  12.958
 2964W        W74580  28.229   6.999   0.926
 2965W        W74581  26.138  43.850   1.411
 2966W        W74582  44.361   2.908   0.776
 2967W        W74583  22.927  41.496   0.998
 2968W        W74584   8.650  43.466   3.220
 2969W        W74585  41.013  12.706  13.791
 2970W        W74586   9.252  33.852   1.670
 2971W        W74587  34.519   4.338   4.493
 2972W        W74588  41.840   6.671  11.936
 2973W        W74589  21.109  22.928   0.264
 2974W        W74590  44.962  32.463   0.375
 2975W        W74591   6.467  19.586  11.938
 2976W        W74592  39.417   1.746   3.997
 2977W        W74593  20.980  38.292   1.430
 2978W        W74594  26.607   0.549   1.166
 2979W        W74595  20.103  33.656  13.357
 2980W        W74596   2.204  43.515  12.878
 2981W        W74597  37.391   4.576  13.904
 2982W        W74598  12.220  30.335  14.536
 2983W        W74599   6.994  38.953   4.251
 2984W        W74600  43.237  44.059  10.664
 2985W        W74601  14.699  29.985   0.744
 2986W        W74602  38.705  19.635  12.379
 2987W        W74603  14.821  25.023   2.402
 2988W        W74604  44.265   2.366   4.447
 2989W        W74605  10.128  23.215   4.681
 2990W        W74606   9.743  39.909  13.478
 2991W        W74607   6.888  39.226   1.088
 2992W        W74608  40.899  33.068   4.269
 2993W        W74609  30.444  23.272  14.925
 2994W        W74610  38.370   8.803  11.290
 2995W        W74611  10.964  36.296   0.857
 2996W        W74612  43.508  26.202   4.442
 2997W        W74613  25.757  31.459  13.529
 2998W        W74614  29.248  25.086  12.902
 2999W        W74615  41.871   8.720   4.089
 3000W        W74616  41.304   8.921  13.770
 3001W        W74617  18.671   6.443  12.499
 3002W        W74618  17.131  21.014   2.149
 3003W        W74619  36.838  42.889   1.040
 3004W        W74620   9.738   3.434   2.446
 3005W        W74621   1.203  39.007   0.935
 3006W        W74622   2.721  16.075  13.541
 3007W        W74623  32.370   6.849   0.421
 3008W        W74624  26.284  41.838   0.755
 3009W        W74625  24.651  28.494  13.353
 3010W        W74626   4.808  26.514  12.421
 3011W        W74627  19.870  34.742   5.060
 3012W        W74628  33.377  26.498   3.135
 3013W        W74629   8.337  31.432  12.515
 3014W        W74630  15.489  14.902  10.693
 3015W        W74631  24.044   4.748  12.108
 3016W        W74632  43.716  36.583   3.122
 3017W        W74633   7.298  17.045   4.002
 3018W        W74634  16.854   1.161  13.514
 3019W        W74635   6.796  40.404  12.872
 3020W        W74636   4.955  22.841   0.566
 3021W        W74637  42.392   1.949  10.931
 3022W        W74638  11.761  32.243  13.841
 3023W        W74639  43.000  27.681   3.225
 3024W        W74640  30.461  17.785   2.421
 3025W        W74641   5.063  29.134   1.823
 3026W        W74642   9.803   0.743  12.537
 3027W        W74643  19.882   7.376   1.326
 3028W        W74644   9.172  10.828  10.667
 3029W        W74645  23.076  28.044   2.820
 3030W        W74646   3.363  37.898   4.672
 3031W        W74647  31.620  18.738   0.499
 3032W        W74648   4.006  41.407   2.247
 3033W        W74649  11.679  41.523  10.051
 3034W        W74650   4.681  33.876  12.167
 3035W        W74651  11.625  22.633  11.491
 3036W        W74652  41.476   2.459  11.569
 3037W        W74653  40.642   8.775   0.341
 3038W        W74654  17.171  17.947   3.144
 3039W        W74655  14.973   3.406  11.224
 3040W        W74656  25.030  21.158  13.960
 3041W        W74657  26.180   7.855  11.620
 3042W        W74658  16.371  16.110   2.734
 3043W        W74659  21.894  14.012  12.333
 3044W        W74660  29.579   4.278   4.696
 3045W        W74661  41.284  32.559  13.536
 3046W        W74662  36.772  28.480  13.913
 3047W        W74663  17.630  39.740   4.815
 3048W        W74664  42.460  24.707   4.913
 3049W        W74665   8.236  26.488   4.200
 3050W        W74666   0.289  28.604  14.963
 3051W        W74667  40.252  25.303   2.393
 3052W        W74668  25.419   9.676   4.254
 3053W        W74669  16.522  35.372  12.576
 3054W        W74670  28.982  33.974   3.010
 3055W        W74671  11.748   5.786   3.101
 3056W        W74672  28.944  11.347   3.218
 3057W        W74673  24.837   5.697   2.207
 3058W        W74674  32.615  24.169  10.945
 3059W        W74675  44.205  24.477  13.473
 3060W        W74676  32.886   3.026   2.898
 3061W        W74677  21.628  41.758  13.148
 3062W        W74678  42.384  12.651  10.735
 3063W        W74679  36.750  31.683   3.400
 3064W        W74680  36.909  37.975  11.172
 3065W        W74681  26.691  37.546  12.611
 3066W        W74682   7.763  29.558   4.597
 3067W        W74683  23.541  19.207  14.302
 3068W        W74684  39.079  17.180  12.409
 3069W        W74685  16.631  21.760   1.999
 3070W        W74686  35.662   2.269   2.730
 3071W        W74687  37.515   7.546  11.127
 3072W        W74688  30.115  18.629   1.337
 3073W        W74689  17.735  43.446  12.846
 3074W        W74690  13.726  16.193   2.152
 3075W        W74691  31.566  31.932  10.679
 3076W        W74692  32.850  21.085   3.934
 3077W        W74693  33.387  35.348   3.355
 3078W        W74694  41.847   9.884   2.687
 3079W        W74695  43.738  14.010   4.226
 3080W        W74696  12.169   3.243   3.127
 3081W        W74697   2.827  31.555  12.169
 3082W        W74698   6.356  23.295   2.300
 3083W        W74699  24.245  14.317  14.267
 3084W        W74700  20.245  33.930  10.438
 3085W        W74701  24.025  12.379   1.302
 3086W        W74702  13.341  29.424   0.463
 3087W        W74703   2.674   5.267  13.015
 3088W        W74704  42.458   1.315  14.030
 3089W        W74705   5.443  29.686   0.441
 3090W        W74706   7.377  37.285   0.536
 3091W        W74707  18.881  30.138   1.011
 3092W        W74708  16.548  44.687  11.696
 3093W        W74709   9.288  18.634   4.459
 3094W        W74710  18.583  20.321  14.572
 3095W        W74711  25.887  32.393  10.700
 3096W        W74712   5.796  31.803   1.867
 3097W        W74713  43.969  43.422   2.365
 3098W        W74714   8.075  35.139  11.584
 3099W        W74715  11.777  39.509   4.197
 3100W        W74716  13.575  44.332   1.430
 3101W        W74717  20.180  22.518  13.563
 3102W        W74718  21.280  29.949  14.912
 3103W        W74719  19.196  41.563  12.883
 3104W        W74720  44.180  32.336   2.413
 3105W        W74721  27.224  26.823  12.843
 3106W        W74722  39.843   5.980  13.328
 3107W        W74723  25.236  31.165  10.549
 3108W        W74724  17.164   3.686  10.892
 3109W        W74725  38.438  23.457   4.790
 3110W        W74726  20.754  33.312   2.455
 3111W        W74727  26.573  10.293  11.557
 3112W        W74728   4.895  32.966  13.057
 3113W        W74729  13.685   7.323   3.453
 3114W        W74730   3.710  27.947   2.716
 3115W        W74731  18.216   5.041  11.648
 3116W        W74732  12.655  39.045  11.787
 3117W        W74733   2.385   2.399   3.192
 3118W        W74734  31.545  35.898   3.959
 3119W        W74735   8.083  44.887   2.360
 3120W        W74736   7.660  43.260  11.416
 3121W        W74737  14.724  11.788   4.386
 3122W        W74738   2.648   7.082  10.195
 3123W        W74739  19.328   3.227  13.941
 3124W        W74740  13.651  25.086   1.823
 3125W        W74741  37.287   1.781   3.206
 3126W        W74742  17.263   3.844  13.610
 3127W        W74743   9.383  34.671  11.583
 3128W        W74744   0.472  26.951  12.352
 3129W        W74745  40.282  38.549  14.394
 3130W        W74746  44.451  41.725   1.043
 3131W        W74747  13.969  20.997  14.534
 3132W        W74748  23.205  14.288  14.485
 3133W        W74749  36.619   2.245   0.820
 3134W        W74750  17.404   2.267   3.072
 3135W        W74751   3.767  16.093   4.923
 3136W        W74752  42.207  26.772  10.810
 3137W        W74753  33.234  28.957   3.244
 3138W        W74754  31.569  13.787   4.261
 3139W        W74755   8.684  27.937   4.618
 3140W        W74756   6.181   2.327   0.136
 3141W        W74757  37.537   1.847  12.605
 3142W        W74758  23.162  25.388  11.163
 3143W        W74759  42.202  29.068  10.593
 3144W        W74760   4.528  40.897   2.918
 3145W        W74761  13.408  13.203  14.402
 3146W        W74762  14.362  28.223  13.807
 3147W        W74763  14.632  33.579   4.595
 3148W        W74764   6.942  11.838   2.198
 3149W        W74765  42.813  17.672   0.470
 3150W        W74766  36.674  10.873  13.120
 3151W        W74767  13.056  32.107   4.856
 3152W        W74768  41.426  30.478   2.317
 3153W        W74769  17.198  33.390  10.355
 3154W        W74770  44.556  18.353  11.108
 3155W        W74771   3.249  21.500  11.120
 3156W        W74772  12.868   6.873  13.002
 3157W        W74773   4.171  12.316   1.771
 3158W        W74774  34.866  15.322  12.471
 3159W        W74775   8.903  32.672   0.300
 3160W        W74776  36.443   6.649   4.118
 3161W        W74777  10.488  39.921   1.501
 3162W        W74778   1.808  35.834  11.598
 3163W        W74779  10.081  11.987   1.112
 3164W        W74780   9.641  34.414   4.932
 3165W        W74781  23.192  15.116  12.500
 3166W        W74782  41.339  41.632  12.022
 3167W        W74783  41.297  39.835  14.719
 3168W        W74784  37.537  27.135   2.245
 3169W        W74785  15.679  22.804  12.622
 3170W        W74786  26.522   4.071  11.536
 3171W        W74787   4.388  43.176   4.100
 3172W        W74788  26.025   4.251  11.660
 3173W        W74789  13.699   6.930  14.408
 3174W        W74790   1.499  23.686   0.222
 3175W        W74791   1.249  16.907  13.097
 3176W        W74792  17.542   1.199   3.695
 3177W        W74793  20.903  10.281   2.741
 3178W        W74794  22.721  40.075   3.227
 3179W        W74795  18.223  44.318   3.235
 3180W        W74796  14.091  18.258   5.513
 3181W        W74797   1.249  26.952  13.059
 3182W        W74798  10.332  36.567  14.181
 3183W        W74799   6.665  11.349  11.131
 3184W        W74800  24.981  20.107   1.950
 3185W        W74801  11.281   5.853  13.958
 3186W        W74802  38.534  19.942   2.351
 3187W        W74803   7.416   1.389  11.647
 3188W        W74804   1.396  20.257   4.720
 3189W        W74805   6.972   9.417   4.586
 3190W        W74806   3.331   2.224   4.994
 3191W        W74807  35.753  23.647  14.866
 3192W        W74808   1.878  25.420   1.226
 3193W        W74809  36.707  29.835  11.872
 3194W        W74810  35.818  41.952   4.651
 3195W        W74811  13.684  43.248   4.184
 3196W        W74812  38.218  20.928   2.392
 3197W        W74813  26.933   2.748   4.631
 3198W        W74814  33.481   1.798  14.086
 3199W        W74815  32.999  32.632  11.119
 3200W        W74816  43.013  10.720   0.264
 3201W        W74817  21.080  19.497  14.834
 3202W        W74818   5.131  43.866   2.823
 3203W        W74819   9.595  12.667  12.539
 3204W        W74820  29.458   3.675   0.835
 3205W        W74821   6.032   9.279  11.986
 3206W        W74822  27.568  29.944  14.508
 3207W        W74823   0.347  29.526   4.353
 3208W        W74824  42.748   9.933   1.789
 3209W        W74825   5.128  44.282  14.292
 3210W        W74826  35.617  31.236  14.382
 3211W        W74827  23.629  15.508   2.384
 3212W        W74828  26.116  14.201  11.681
 3213W        W74829  40.524  42.078   1.337
 3214W        W74830  24.676  25.892   4.683
 3215W        W74831  40.544  30.098   4.553
 3216W        W74832  37.781  35.207   1.653
 3217W        W74833  18.471  27.438  13.398
 3218W        W74834  12.715   8.911  10.430
 3219W        W74835  44.333  14.804   2.356
 3220W        W74836   9.957  35.544  14.420
 3221W        W74837  27.562  32.602   2.104
 3222W        W74838  17.044  34.934   4.508
 3223W        W74839  20.548  16.760   4.603
 3224W        W74840  19.013  36.829   0.686
 3225W        W74841  38.089  13.797   2.447
 3226W        W74842  23.187  18.834  14.428
 3227W        W74843   2.246  21.681   4.918
 3228W        W74844  20.246  43.848   2.513
 3229W        W74845  21.523   2.849   0.049
 3230W        W74846  33.971  32.491  13.090
 3231W        W74847  39.106  23.000   2.914
 3232W        W74848  13.699  36.925   3.820
 3233W        W74849   3.011  29.495  14.379
 3234W        W74850  36.640  14.037  13.460
 3235W        W74851  15.213  12.915   1.613
 3236W        W74852  44.469  32.753  11.737
 3237W        W74853  25.274  11.384   5.108
 3238W        W74854  25.932  41.481   0.825
 3239W        W74855   8.333  25.681  14.710
 3240W        W74856   8.712   3.671  14.476
 3241W        W74857  19.941  21.164   0.908
 3242W        W74858  29.761  10.968  14.685
 3243W        W74859  28.981   3.948  10.697
 3244W        W74860  28.475  19.426   0.958
 3245W        W74861  35.461  13.975   4.704
 3246W        W74862  10.480  17.181   0.329
 3247W        W74863   0.284  19.919   4.064
 3248W        W74864   2.962   3.129   1.143
 3249W        W74865  18.081   1.767   3.355
 3250W        W74866  40.051  30.494  14.541
 3251W        W74867   3.091  31.171  13.427
 3252W        W74868   8.748  26.112   3.250
 3253W        W74869  20.587   9.245   2.143
 3254W        W74870  40.019  12.130   3.821
 3255W        W74871   3.258  38.798  13.573
 3256W        W74872  14.252  20.617   3.900
 3257W        W74873  40.807  44.947   2.247
 3258W        W74874   7.849   6.410  14.760
 3259W        W74875  10.381  17.746   1.276
 3260W        W74876  31.622   1.628   4.534
 3261W        W74877   3.863  22.967  10.196
 3262W        W74878  33.561  10.584  14.691
 3263W        W74879  15.330  32.913  10.389
 3264W        W74880  15.327  35.982   1.312
 3265W        W74881  36.528  37.348  13.734
 3266W        W74882  38.038  12.267  10.327
 3267W        W74883  32.168   4.790   0.159
 3268W        W74884   5.252  14.885   1.163
 3269W        W74885   0.225  33.267  10.704
 3270W        W74886  20.189  15.625  12.145
 3271W        W74887  17.165  38.496   3.764
 3272W        W74888  27.684  37.580   2.254
 3273W        W74889  34.483   8.398  12.343
 3274W        W74890  36.894  11.696  11.401
 3275W        W74891   2.721  16.115   4.842
 3276W        W74892   2.927  13.166   3.910
 3277W        W74893  42.382   9.908   2.139
 3278W        W74894  23.475  38.632  11.707
 3279W        W74895  14.788  37.574   2.896
 3280W        W74896  42.261  35.155  14.082
 3281W        W74897  43.915  16.332   1.684
 3282W        W74898   1.355  21.472   1.400
 3283W        W74899  15.695  29.339   1.411
 3284W        W74900  11.807  19.990  13.199
 3285W        W74901  18.114  19.295   2.578
 3286W        W74902  27.099  19.381  13.415
 3287W        W74903  14.778  42.202   0.085
 3288W        W74904  27.141  18.525  11.448
 3289W        W74905  13.815   5.014  11.892
 3290W        W74906  29.474  26.269  13.458
 3291W        W74907  25.446  39.496   4.602
 3292W        W74908   2.776  30.885   2.179
 3293W        W74909  10.617  16.111   0.800
 3294W        W74910  33.860  16.079  14.572
 3295W        W74911   0.888  35.864   2.146
 3296W        W74912   1.776  25.932   1.300
 3297W        W74913  13.627  21.076   3.366
 3298W        W74914  30.054  33.050   2.403
 3299W        W74915   8.956  41.384   1.393
 3300W        W74916  15.826   1.946  11.577
 3301W        W74917  13.861   7.951   4.167
 3302W        W74918  11.749  37.438   1.409
 3303W        W74919  13.052  20.640  12.442
 3304W        W74920  25.613  40.916  14.946
 3305W        W74921   0.782  24.530   5.178
 3306W        W74922   1.187   0.172   1.831
 3307W        W74923  41.802  41.261   3.760
 3308W        W74924   9.884  12.381   1.388
 3309W        W74925  43.227   5.981  12.864
 3310W        W74926   2.698  32.539  13.523
 3311W        W74927  31.572   3.874   4.186
 3312W        W74928  38.019  18.513   4.650
 3313W        W74929   7.349  28.283  14.008
 3314W        W74930  30.417  15.403   4.886
 3315W        W74931  22.662  33.076   2.755
 3316W        W74932  16.799  17.988   0.755
 3317W        W74933  14.351  14.203   3.116
 3318W        W74934  40.497  28.305   0.148
 3319W        W74935  25.119  25.966   4.413
 3320W        W74936   1.393  23.973  11.766
 3321W        W74937   1.432  23.031  12.116
 3322W        W74938  14.397   1.490  12.559
 3323W        W74939   6.540  36.697   0.556
 3324W        W74940   5.650  41.049   0.825
 3325W        W74941  19.347  27.612   2.825
 3326W        W74942  41.867  20.292   3.391
 3327W        W74943  16.052   3.873  13.678
 3328W        W74944  21.481  17.776   0.209
 3329W        W74945   3.349  19.267   1.482
 3330W        W74946  35.659  41.022  13.163
 3331W        W74947  28.544  37.829  14.496
 3332W        W74948  36.285  20.370  14.630
 3333W        W74949  23.673  14.244   1.026
 3334W        W74950  37.416  22.907   1.674
 3335W        W74951  25.240  20.531   1.235
 3336W        W74952  14.530   2.355  11.989
 3337W        W74953  27.752   6.572   3.796
 3338W        W74954  29.018  39.566   1.244
 3339W        W74955   2.444   8.384  10.599
 3340W        W74956  32.722  10.268   1.200
 3341W        W74957   3.320  37.537  11.495
 3342W        W74958  16.077  31.153  11.755
 3343W        W74959  27.008  37.364  11.909
 3344W        W74960  36.996  15.837   2.356
 3345W        W74961  38.490  37.930   2.267
 3346W        W74962  22.503  32.539  13.054
 3347W        W74963  32.613  16.095   3.304
 3348W        W74964  25.514   3.762   0.387
 3349W        W74965   1.152  39.832   4.582
 3350W        W74966  37.416   3.617  13.241
 3351W        W74967  22.618  12.270  13.445
 3352W        W74968  32.544  23.036   2.151
 3353W        W74969   3.232  20.969   5.043
 3354W        W74970  18.546   0.224  13.953
 3355W        W74971   2.677  20.076   4.235
 3356W        W74972  18.708  38.570  14.092
 3357W        W74973  29.338   0.359   0.768
 3358W        W74974  35.859  43.622   2.009
 3359W        W74975  20.999   7.729   1.363
 3360W        W74976  28.996  24.923  13.338
 3361W        W74977  10.750  13.203   4.944
 3362W        W74978  38.624   4.674  13.830
 3363W        W74979  18.666  11.937  12.485
 3364W        W74980  26.586  22.000  13.911
 3365W        W74981   0.773   6.127  14.116
 3366W        W74982  35.926  25.758  10.702
 3367W        W74983   3.014  22.135  13.806
 3368W        W74984  10.624  43.953   2.322
 3369W        W74985  35.536  33.993  14.782
 3370W        W74986   9.970  10.011  11.609
 3371W        W74987   2.369  24.004  14.880
 3372W        W74988  35.268   8.382   0.069
 3373W        W74989  44.125  15.536  10.866
 3374W        W74990  11.897  27.815   2.230
 3375W        W74991  15.201  25.984  10.688
 3376W        W74992  26.865  40.588  11.536
 3377W        W74993   6.230   8.222   4.537
 3378W        W74994  22.484  14.812   2.703
 3379W        W74995   3.920  42.103   3.747
 3380W        W74996  35.770   3.634  14.566
 3381W        W74997  41.203   4.327  10.658
 3382W        W74998  34.072   5.661  11.404
 3383W        W74999  11.768  36.828   0.926
 3384W        W75000  21.556  44.801   1.969
 3385W        W75001  31.598   8.945  12.064
 3386W        W75002   9.706  22.749  11.063
 3387W        W75003   6.170  34.542   1.194
 3388W        W75004   6.552  34.613   3.586
 3389W        W75005  31.048  22.934  14.397
 3390W        W75006  41.011  30.942   1.675
 3391W        W75007  27.946  21.246  14.525
 3392W        W75008   7.545  23.263  13.261
 3393W        W75009  25.009  35.929   4.375
 3394W        W75010  29.175  27.619   2.343
 3395W        W75011  27.732  18.104  12.487
 3396W        W75012   3.765  24.965   0.334
 3397W        W75013  19.086  27.970   0.787
 3398W        W75014   3.010   1.384  11.074
 3399W        W75015  21.609  26.949   3.328
 3400W        W75016  20.814  35.046   1.555
 3401W        W75017  15.026  43.376  13.838
 3402W        W75018  29.681  40.342  12.611
 3403W        W75019  27.021  26.162   1.906
 3404W        W75020  41.321  31.354  14.952
 3405W        W75021  14.513  10.177  14.226
 3406W        W75022  28.648  22.356  12.036
 3407W        W75023  33.727  14.682  10.620
 3408W        W75024  32.582  23.395   4.642
 3409W        W75025  19.543  17.245  10.678
 3410W        W75026  32.968  40.942  12.513
 3411W        W75027  21.899  18.035   2.847
 3412W        W75028  22.965  39.924   4.066
 3413W        W75029  23.036  42.702   1.809
 3414W        W75030   7.625  30.365  12.162
 3415W        W75031  12.728  18.882  12.185
 3416W        W75032  16.580  12.174  14.032
 3417W        W75033   1.291   5.994   1.147
 3418W        W75034   1.066  37.961  13.435
 3419W        W75035  37.660  42.895  14.801
 3420W        W75036  23.306  23.086  12.586
 3421W        W75037  18.584  16.559  13.853
 3422W        W75038  38.690  20.974   2.198
 3423W        W75039  43.723  32.590  13.468
 3424W        W75040  10.210  17.248   3.675
 3425W        W75041  12.658  24.975   3.161
 3426W        W75042  35.107  16.581   4.511
 3427W        W75043   8.889  21.250  13.477
 3428W        W75044  10.013  31.635  14.877
 3429W        W75045  38.485   1.704  10.643
 3430W        W75046  21.682   5.301   4.568
 3431W        W75047   5.799  14.237   4.658
 3432W        W75048   3.327  41.048  11.391
 3433W        W75049  33.535  25.417   2.219
 3434W        W75050   6.810  26.840  12.509
 3435W        W75051  10.769  12.576   3.727
 3436W        W75052  24.182  43.056  14.808
 3437W        W75053  44.543   4.325   3.278
 3438W        W75054  18.174  15.605   2.290
 3439W        W75055  18.643   4.831   2.341
 3440W        W75056  10.557  32.419  14.273
 3441W        W75057  22.308   7.220  12.104
 3442W        W75058  11.285  29.672   1.460
 3443W        W75059  34.982  31.435  10.674
 3444W        W75060   0.462  32.813   3.338
 3445W        W75061  32.024  22.231   2.924
 3446W        W75062   8.691  25.535   1.823
 3447W        W75063  30.236  11.238  13.271
 3448W        W75064  41.884  18.127  14.899
 3449W        W75065  34.129  24.684  12.343
 3450W        W75066  33.135  24.454  12.305
 3451W        W75067   3.215  42.988  10.455
 3452W        W75068   3.938  31.865  13.574
 3453W        W75069  23.955  40.283   4.984
 3454W        W75070   2.917   6.023   3.191
 3455W        W75071  13.887  15.800  11.116
 3456W        W75072   2.283  23.147  12.711
 3457W        W75073  36.496   7.374   4.183
 3458W        W75074  44.042   8.443  14.970
 3459W        W75075  15.590  21.827  12.546
 3460W        W75076  42.348  40.883   0.672
 3461W        W75077  11.854   3.531  12.082
 3462W        W75078  26.204  32.385  13.355
 3463W        W75079   4.770  39.195   4.577
 3464W        W75080  25.437  29.993  13.049
 3465W        W75081  21.964  43.971   0.453
 3466W        W75082   4.593  34.080   1.761
 3467W        W75083  41.340   1.921  10.918
 3468W        W75084  19.185  11.742   4.320
 3469W        W75085  41.067  34.043  10.645
 3470W        W75086  30.210  31.566   4.137
 3471W        W75087  35.904  36.258   1.125
 3472W        W75088  14.158  43.569   0.343
 3473W        W75089  24.620  14.727  11.704
 3474W        W75090  23.002   4.358  13.306
 3475W        W75091   9.513  21.891  13.844
 3476W        W75092   7.407  14.104  14.955
 3477W        W75093  30.532  44.946  10.588
 3478W        W75094  30.347  44.924   4.795
 3479W        W75095  34.120   9.916   4.341
 3480W        W75096  29.666   3.276   4.692
 3481W        W75097  18.720  26.184   2.823
 3482W        W75098  38.385   8.488  10.477
 3483W        W75099  10.347  33.365  14.993
 3484W        W75100   3.606  27.854   0.747
 3485W        W75101  29.272  44.142  12.849
 3486W        W75102  29.165   8.182  13.505
 3487W        W75103  15.357  31.053   4.610
 3488W        W75104  42.571  23.003   0.502
 3489W        W75105  21.098  29.182   0.404
 3490W        W75106  42.795  21.203  11.693
 3491W        W75107  35.546  23.989  12.908
 3492W        W75108  32.244   1.686  12.014
 3493W        W75109  22.489  17.357  10.611
 3494W        W75110  15.640  13.337  13.729
 3495W        W75111  44.597  38.582  11.097
 3496W        W75112   0.802   7.709   3.786
 3497W        W75113  10.892  43.080   1.439
 3498W        W75114  10.842  42.969  10.660
 3499W        W75115  39.003  29.382   4.117
 3500W        W75116  35.084  25.242  12.005
 3501W        W75117  26.550  42.506  12.477
 3502W        W75118  42.501  36.099  13.866
 3503W        W75119  34.916   0.341   1.992
 3504W        W75120  15.683  18.335   1.483
 3505W        W75121  34.859  37.337  14.851
 3506W        W75122   5.374  39.521  14.368
 3507W        W75123  19.641  12.306   2.270
 3508W        W75124   9.171  26.794  12.472
 3509W        W75125  10.105  25.049   3.598
 3510W        W75126  42.194  37.606   0.235
 3511W        W75127  30.870  15.189   4.538
 3512W        W75128  12.982  23.850  13.845
 3513W        W75129  39.435  24.230   3.243
 3514W        W75130  25.683  38.006  14.958
 3515W        W75131   2.023  16.075   1.653
 3516W        W75132   4.762  32.290  14.067
 3517W        W75133  21.400  22.064   1.515
 3518W        W75134  20.533  18.814   0.320
 3519W        W75135  21.715  30.093  12.554
 3520W        W75136  11.746  31.220  13.864
 3521W        W75137  32.351  38.276  13.749
 3522W        W75138  24.931  43.161   1.915
 3523W        W75139  33.505   7.903  11.151
 3524W        W75140   3.852   8.003   4.798
 3525W        W75141  32.000  12.169   4.032
 3526W        W75142  19.291  38.454  11.883
 3527W        W75143   0.051  27.061   1.713
 3528W        W75144  28.008  13.953   9.693
 3529W        W75145  39.526  27.658  12.494
 3530W        W75146  42.823  23.788  12.494
 3531W        W75147  43.363  34.838   1.806
 3532W        W75148  29.494   1.224  11.128
 3533W        W75149  21.514  39.753  13.447
 3534W        W75150  27.911  29.475   3.114
 3535W        W75151  35.429  15.407  13.333
 3536W        W75152  39.921  15.331   1.729
 3537W        W75153  40.358   7.688  12.992
 3538W        W75154   3.852  20.570   2.268
 3539W        W75155  27.075  33.355   1.889
 3540W        W75156  29.271  44.227  14.918
 3541W        W75157  26.205  12.407  14.486
 3542W        W75158   3.773   8.498  12.038
 3543W        W75159  29.029  22.732  11.018
 3544W        W75160  14.237  36.007   4.593
 3545W        W75161   7.810  17.195  11.137
 3546W        W75162  30.403   6.049   0.686
 3547W        W75163  10.134  16.336   1.504
 3548W        W75164   7.683  13.105   4.311
 3549W        W75165  29.516  31.018   4.109
 3550W        W75166  42.982  15.277   3.193
 3551W        W75167  11.707  26.027   1.366
 3552W        W75168   8.435  30.627   3.800
 3553W        W75169  17.179  28.271  11.733
 3554W        W75170  39.016   3.564   3.683
 3555W        W75171  21.007  29.055  10.593
 3556W        W75172  12.362   6.794  10.870
 3557W        W75173  24.416   8.832  10.632
 3558W        W75174  32.137   7.710   2.285
 3559W        W75175  36.928  14.885   2.565
 3560W        W75176  29.016  43.476   2.322
 3561W        W75177  29.704   5.123   1.007
 3562W        W75178   6.334  23.517  12.116
 3563W        W75179  23.512  13.032   4.418
 3564W        W75180  39.136  44.730  11.993
 3565W        W75181  25.199  14.234   0.544
 3566W        W75182  31.174  34.365  12.406
 3567W        W75183  33.817  11.657   1.350
 3568W        W75184   9.662   6.359  14.220
 3569W        W75185  16.005  20.268  12.482
 3570W        W75186   3.529  18.172   3.185
 3571W        W75187  20.124   4.868  13.609
 3572W        W75188  14.873   1.776  12.565
 3573W        W75189  29.089  14.200   1.500
 3574W        W75190   9.039  30.386   2.729
 3575W        W75191  21.315   8.653   0.329
 3576W        W75192  29.707  22.054   1.904
 3577W        W75193  40.978  22.739   0.140
 3578W        W75194  41.774  44.259   1.162
 3579W        W75195  13.667  33.576  13.665
 3580W        W75196  15.167   9.846   2.024
 3581W        W75197  18.744  28.681  11.885
 3582W        W75198  19.580  27.100   1.626
 3583W        W75199  28.967  41.263  14.796
 3584W        W75200  19.583  31.944  14.927
 3585W        W75201  22.513  43.898   3.755
 3586W        W75202  36.818  38.512   3.816
 3587W        W75203  32.876  21.132  14.352
 3588W        W75204  25.399   4.879   3.206
 3589W        W75205  15.254  42.950  11.121
 3590W        W75206  34.115  27.874   1.647
 3591W        W75207   9.565  11.385   0.378
 3592W        W75208  42.493  43.257  14.845
 3593W        W75209  28.938  17.674  14.378
 3594W        W75210  29.971  23.760   4.483
 3595W        W75211  26.179  30.440  14.231
 3596W        W75212   6.477  39.064  13.850
 3597W        W75213  10.760  19.700  12.911
 3598W        W75214  30.370  23.350   2.357
 3599W        W75215  14.111  37.464   2.706
 3600W        W75216   1.994  10.113  12.207
 3601W        W75217  15.632  37.621  11.768
 3602W        W75218  39.909  38.266  13.324
 3603W        W75219  33.922  25.152  13.385
 3604W        W75220   0.402  15.802   4.550
 3605W        W75221   8.716   7.753   0.058
 3606W        W75222  39.001   5.091  12.447
 3607W        W75223  14.827  26.124  13.597
 3608W        W75224  43.014  38.478   4.762
 3609W        W75225  21.747  40.316   0.402
 3610W        W75226  25.433  28.128   3.161
 3611W        W75227   1.933  40.523   3.357
 3612W        W75228  27.658  19.329   3.167
 3613W        W75229  10.306  20.778   4.928
 3614W        W75230  35.584  27.172   4.768
 3615W        W75231   0.457   4.218   0.176
 3616W        W75232   1.400  31.217   0.766
 3617W        W75233  15.419  30.245   4.969
 3618W        W75234   9.078  31.966   1.362
 3619W        W75235  26.637  25.001  13.166
 3620W        W75236  19.222   7.865  11.309
 3621W        W75237   6.523  31.040   3.088
 3622W        W75238   5.127   3.874  14.367
 3623W        W75239  29.889  12.749   0.856
 3624W        W75240  20.757  34.610  13.878
 3625W        W75241  14.528  30.376  12.558
 3626W        W75242   4.844   0.725   3.830
 3627W        W75243  12.302  23.294  13.234
 3628W        W75244  42.666  43.177   2.660
 3629W        W75245  40.454   4.483  13.212
 3630W        W75246  41.395  21.296  10.369
 3631W        W75247  39.786   8.220   2.283
 3632W        W75248   3.997  33.381  14.979
 3633W        W75249  26.620  31.433   2.315
 3634W        W75250   0.813   1.733  11.800
 3635W        W75251  38.834   6.438   3.717
 3636W        W75252  27.581   5.631  13.073
 3637W        W75253   2.280  24.247   0.917
 3638W        W75254  22.035  10.502  11.557
 3639W        W75255  19.980  31.133   3.358
 3640W        W75256   3.787  35.846   2.342
 3641W        W75257   5.277  25.126   1.178
 3642W        W75258  40.594  15.172   1.061
 3643W        W75259  18.074  14.735  13.945
 3644W        W75260  37.443  13.793  12.540
 3645W        W75261  14.546  32.113  12.084
 3646W        W75262  40.131  17.109  10.588
 3647W        W75263  16.660  22.524  14.206
 3648W        W75264  10.257   3.521  14.455
 3649W        W75265  19.259  12.220   0.265
 3650W        W75266   9.622  41.969  13.900
 3651W        W75267  29.267  31.424   0.655
 3652W        W75268   9.185  17.359  12.539
 3653W        W75269  36.097  30.629  12.326
 3654W        W75270  26.577  21.017  13.718
 3655W        W75271  31.601  40.403   0.327
 3656W        W75272  10.618  33.613   1.854
 3657W        W75273  28.060  35.855   4.140
 3658W        W75274  35.459  37.823  10.876
 3659W        W75275  30.812  16.853   1.286
 3660W        W75276  32.845   1.442  13.007
 3661W        W75277  31.091   7.381  13.996
 3662W        W75278  29.017  20.063  10.414
 3663W        W75279   8.920  12.552   0.034
 3664W        W75280  31.592  22.479  12.515
 3665W        W75281   6.948   5.251  11.239
 3666W        W75282   4.001  21.671   2.682
 3667W        W75283   7.429  33.406   3.868
 3668W        W75284  43.274  26.166   2.821
 3669W        W75285  20.145  24.777   0.745
 3670W        W75286  30.007  40.331   2.032
 3671W        W75287  42.564  23.171  11.871
 3672W        W75288  23.582  29.540  12.086
 3673W        W75289   1.938  29.023   0.671
 3674W        W75290  28.883  25.201   1.117
 3675W        W75291  26.012   5.214  10.714
 3676W        W75292  39.466  20.596   3.724
 3677W        W75293  14.556  36.568  14.335
 3678W        W75294  12.349  15.594  14.857
 3679W        W75295  19.645   9.641  13.042
 3680W        W75296  14.269  42.469   3.178
 3681W        W75297   1.577  38.024  12.564
 3682W        W75298  34.107  11.855  10.752
 3683W        W75299  25.771  37.370   3.628
 3684W        W75300  29.091  41.152  12.131
 3685W        W75301  20.363  42.290  12.017
 3686W        W75302  11.587  36.524   2.712
 3687W        W75303  25.736  33.212  11.034
 3688W        W75304  20.259  32.406   2.861
 3689W        W75305  25.480  11.928  12.959
 3690W        W75306  32.336  21.153  14.423
 3691W        W75307  12.207   3.425   4.601
 3692W        W75308   6.247  43.376  11.916
 3693W        W75309  39.477  41.370   4.049
 3694W        W75310   8.681  36.974   2.351
 3695W        W75311  19.687  20.792  11.116
 3696W        W75312  33.072  43.848  10.842
 3697W        W75313  37.379  22.122   2.752
 3698W        W75314  36.154   7.383  11.148
 3699W        W75315   2.517  42.520  11.962
 3700W        W75316   5.238  17.982   1.449
 3701W        W75317   8.827  20.662  11.133
 3702W        W75318  37.623  34.106  11.562
 3703W        W75319  41.345   5.856   4.731
 3704W        W75320  10.064  25.052   4.160
 3705W        W75321  17.701   8.240   4.146
 3706W        W75322  41.054  32.013  14.996
 3707W        W75323  19.932  40.961   2.159
 3708W        W75324   7.134  38.428   3.171
 3709W        W75325  40.050  12.783  13.570
 3710W        W75326  21.695   9.288   2.357
 3711W        W75327   5.682   5.443  14.450
 3712W        W75328  18.007  10.359  10.505
 3713W        W75329  12.590   0.996  12.489
 3714W        W75330   1.060   3.741  12.394
 3715W        W75331  16.369  24.674   1.475
 3716W        W75332  43.472   4.381  13.060
 3717W        W75333  38.320   8.090   2.702
 3718W        W75334  15.010  40.309  11.950
 3719W        W75335  24.301  31.857   3.662
 3720W        W75336   8.295  29.474  12.567
 3721W        W75337  33.729  28.046   1.962
 3722W        W75338  42.809   9.641   2.217
 3723W        W75339  33.476   8.892  14.056
 3724W        W75340  20.722  30.143   1.287
 3725W        W75341  13.095  22.552   3.619
 3726W        W75342  38.371   8.896  11.780
 3727W        W75343  15.435   7.324  14.769
 3728W        W75344  19.952   8.258   2.716
 3729W        W75345   3.954  35.574  14.023
 3730W        W75346  14.693  43.918  13.334
 3731W        W75347  14.180  37.633   0.357
 3732W        W75348   7.975  29.063  12.516
 3733W        W75349  44.691  21.966   4.571
 3734W        W75350  26.917  10.557  11.154
 3735W        W75351  27.419   6.306   3.142
 3736W        W75352  28.039   0.408   4.398
 3737W        W75353  26.079  38.799  14.348
 3738W        W75354  29.980  26.152  13.475
 3739W        W75355   1.891  26.008   1.817
 3740W        W75356  28.776  41.996  12.631
 3741W        W75357  31.576   3.537   0.696
 3742W        W75358  24.414  23.504   0.332
 3743W        W75359  40.264   1.773  10.655
 3744W        W75360  19.977  40.989   0.260
 3745W        W75361  18.782  13.899   5.019
 3746W        W75362  21.060  14.105  10.181
 3747W        W75363  20.975   4.108   0.952
 3748W        W75364  26.051  12.836   2.285
 3749W        W75365  41.702  23.510   1.402
 3750W        W75366  34.041  12.347  13.712
 3751W        W75367   3.197  12.536  12.230
 3752W        W75368   9.393  41.027   1.337
 3753W        W75369  30.693  33.571   1.935
 3754W        W75370  13.350  19.249  10.640
 3755W        W75371  21.487  43.398  11.869
 3756W        W75372  31.157  34.430  11.511
 3757W        W75373  26.643  30.527   4.603
 3758W        W75374  27.486   7.186   5.032
 3759W        W75375  35.913  34.465  12.352
 3760W        W75376   8.213   3.494   3.773
 3761W        W75377  31.180   4.194  14.439
 3762W        W75378  14.261   2.899  11.260
 3763W        W75379   2.505  25.478   3.234
 3764W        W75380  13.943  31.827   5.309
 3765W        W75381  22.812  11.736  14.305
 3766W        W75382  34.853  33.085  10.645
 3767W        W75383  31.103  20.619  11.201
 3768W        W75384  39.270  33.967   2.682
 3769W        W75385  14.316   5.824  12.912
 3770W        W75386  10.213  27.139   4.364
 3771W        W75387  44.961  13.415   4.558
 3772W        W75388  10.111  30.177   1.397
 3773W        W75389  33.579   4.577   1.051
 3774W        W75390  21.000  25.284   4.082
 3775W        W75391  42.534   9.660   0.806
 3776W        W75392  33.469   0.795   1.727
 3777W        W75393   5.397  13.918   0.787
 3778W        W75394  27.191  42.781  14.829
 3779W        W75395  38.816  14.653  14.047
 3780W        W75396  18.160  35.990   2.777
 3781W        W75397  41.997  17.129  11.365
 3782W        W75398  33.428  24.713   0.067
 3783W        W75399  42.242  29.634   2.272
 3784W        W75400  12.811   0.927   4.126
 3785W        W75401  26.091   2.055   3.228
 3786W        W75402  19.546  29.677   2.200
 3787W        W75403  22.110  17.098  13.467
 3788W        W75404  19.101  31.610  14.036
 3789W        W75405   8.204  24.957  11.173
 3790W        W75406   7.365  20.281   0.268
 3791W        W75407  22.272  37.249  13.534
 3792W        W75408  30.080  22.906  13.466
 3793W        W75409  14.361  36.578  12.503
 3794W        W75410  30.565  26.113  14.986
 3795W        W75411  37.565   7.823  10.657
 3796W        W75412  16.528  16.645   0.127
 3797W        W75413  35.264  35.397   4.145
 3798W        W75414  36.501  24.451  10.701
 3799W        W75415  41.935  37.611   2.360
 3800W        W75416  30.878  22.096   0.747
 3801W        W75417   3.799  24.580  14.757
 3802W        W75418   1.391  42.046  11.515
 3803W        W75419  12.185  12.263   4.332
 3804W        W75420  16.339  34.354  12.503
 3805W        W75421  18.446   7.282  10.822
 3806W        W75422  12.022  14.801   0.211
 3807W        W75423  33.784  36.463  11.116
 3808W        W75424  18.316   5.152  13.828
 3809W        W75425  40.931  13.540   3.697
 3810W        W75426   8.296  22.279   1.207
 3811W        W75427  22.632  16.235  13.436
 3812W        W75428  33.501  43.793  14.353
 3813W        W75429   5.248  20.955  11.202
 3814W        W75430  10.885  36.599   4.701
 3815W        W75431  24.331  28.981   2.352
 3816W        W75432  20.285  28.336  11.221
 3817W        W75433   0.200   7.858   1.279
 3818W        W75434  37.202  37.586  13.896
 3819W        W75435  11.104  38.596   1.848
 3820W        W75436  22.839  11.076   0.880
 3821W        W75437   7.276  10.667  12.941
 3822W        W75438   8.486   3.387   0.673
 3823W        W75439  30.466  13.332   1.364
 3824W        W75440  12.653  16.815   0.391
 3825W        W75441  25.008  16.263   1.446
 3826W        W75442  34.890  17.549   0.408
 3827W        W75443   7.704   8.730   2.731
 3828W        W75444   1.220  39.123  13.887
 3829W        W75445   0.384   7.244  12.284
 3830W        W75446  16.893  19.105   4.327
 3831W        W75447  23.539  25.554   1.841
 3832W        W75448  21.251   5.951   1.939
 3833W        W75449  23.409  26.039  11.615
 3834W        W75450  39.901   2.962   3.743
 3835W        W75451   4.710  34.034   0.296
 3836W        W75452  11.145  20.084  11.837
 3837W        W75453  11.208  21.622  10.675
 3838W        W75454  19.660  13.497   2.942
 3839W        W75455   0.172  21.143  10.533
 3840W        W75456  41.291  15.762  10.945
 3841W        W75457  44.900   7.810  13.047
 3842W        W75458  18.226  20.620  11.027
 3843W        W75459  10.033  17.314  11.588
 3844W        W75460  23.138   2.450   2.888
 3845W        W75461  44.287  40.710   4.984
 3846W        W75462  20.209  12.125   4.228
 3847W        W75463   4.863  38.937   1.862
 3848W        W75464  22.812   7.239  11.949
 3849W        W75465  18.634  21.249  13.672
 3850W        W75466  38.818  18.764  12.027
 3851W        W75467   6.227  40.816  10.634
 3852W        W75468  25.316  29.764   2.875
 3853W        W75469  16.066  32.935   3.643
 3854W        W75470  30.108   0.522   1.373
 3855W        W75471  20.949  24.244   3.233
 3856W        W75472   2.045  21.845  10.309
 3857W        W75473  35.656  38.434   1.901
 3858W        W75474  33.344   3.486  14.799
 3859W        W75475   7.360   1.856  12.974
 3860W        W75476  18.505  29.591  14.323
 3861W        W75477  35.051  35.514   2.161
 3862W        W75478  28.914  42.386  13.887
 3863W        W75479  16.956  31.399  11.959
 3864W        W75480  14.705  16.878  12.965
 3865W        W75481   8.360  15.227  11.452
 3866W        W75482   2.390  24.195  10.273
 3867W        W75483   1.318  25.063  14.855
 3868W        W75484  26.077  13.561   3.324
 3869W        W75485  24.976   5.658  13.944
 3870W        W75486   6.757  40.048   0.393
 3871W        W75487  43.397  44.749  11.517
 3872W        W75488   0.923  32.990  14.021
 3873W        W75489   5.387  36.936   3.281
 3874W        W75490  34.932  36.564   4.896
 3875W        W75491  21.035  13.455  12.511
 3876W        W75492  20.266  21.224  14.553
 3877W        W75493   4.461   7.741   0.949
 3878W        W75494  14.020  15.500  12.862
 3879W        W75495  26.318  20.198  12.357
 3880W        W75496  36.498   8.708   0.025
 3881W        W75497  20.909  37.788   1.396
 3882W        W75498  27.067  22.740  10.497
 3883W        W75499  23.714  13.110  11.853
 3884W        W75500  43.034  18.765   1.317
 3885W        W75501   9.276  44.212  11.134
 3886W        W75502  20.833   1.974   2.810
 3887W        W75503   4.039   4.835  12.036
 3888W        W75504  28.408  22.295   2.293
 3889W        W75505  26.706  17.057  11.412
 3890W        W75506  19.185   2.271  14.097
 3891W        W75507  32.989   3.816   1.704
 3892W        W75508  19.089  17.048   4.447
 3893W        W75509   4.776  11.736  13.368
 3894W        W75510   6.165  27.560   1.881
 3895W        W75511  20.319  37.649   1.921
 3896W        W75512   6.922  27.668  12.074
 3897W        W75513  16.264  15.014  10.988
 3898W        W75514  14.395  34.586  12.501
 3899W        W75515  41.087  28.467   3.155
 3900W        W75516  36.795  36.005   0.495
 3901W        W75517   6.868   6.146  13.501
 3902W        W75518  26.445   5.282   0.169
 3903W        W75519   4.924   0.444   3.415
 3904W        W75520  36.825  36.083  12.411
 3905W        W75521  44.947   1.947   2.364
 3906W        W75522  36.280  28.639  14.002
 3907W        W75523  31.790   7.121   1.127
 3908W        W75524  19.657   6.425   3.835
 3909W        W75525  25.061  33.795  11.543
 3910W        W75526  29.176  20.310  13.758
 3911W        W75527  28.921  29.125  13.661
 3912W        W75528   8.689  35.681  12.351
 3913W        W75529  42.194  34.652  13.878
 3914W        W75530  14.076  13.707  11.217
 3915W        W75531  33.441  14.782   1.298
 3916W        W75532  23.699  38.750   3.160
 3917W        W75533  10.010  33.864   0.843
 3918W        W75534   9.225  25.157   0.369
 3919W        W75535   6.677  36.538  10.764
 3920W        W75536  44.730  32.517   2.799
 3921W        W75537   9.436   7.698  13.357
 3922W        W75538  39.970  36.339  13.423
 3923W        W75539  44.574  40.837   3.820
 3924W        W75540  43.252  28.995  12.994
 3925W        W75541  29.097  31.914   0.707
 3926W        W75542  22.599  26.615  14.482
 3927W        W75543  15.455  18.840   0.348
 3928W        W75544  15.977  20.000   0.415
 3929W        W75545  14.230  36.537   1.186
 3930W        W75546  33.581  40.863   3.897
 3931W        W75547   4.581   1.742  12.901
 3932W        W75548  16.290   4.808   0.044
 3933W        W75549  37.409   9.458  11.660
 3934W        W75550  24.444  11.891  13.362
 3935W        W75551  23.970  22.216  11.989
 3936W        W75552  22.616  32.179  10.781
 3937W        W75553   3.383  31.567  10.725
 3938W        W75554  35.703  24.117   3.234
 3939W        W75555  21.525  13.161  11.550
 3940W        W75556  22.795   7.893   2.850
 3941W        W75557  34.346   6.605  10.669
 3942W        W75558  21.151   7.361   4.293
 3943W        W75559  14.178   9.160   2.887
 3944W        W75560  43.515  39.943   2.589
 3945W        W75561  35.054  12.607   0.721
 3946W        W75562  42.055   1.004  13.991
 3947W        W75563  22.176  33.123   3.430
 3948W        W75564   1.412   8.348   2.446
 3949W        W75565  34.953   4.269  10.401
 3950W        W75566  23.056   8.756  12.102
 3951W        W75567  15.990  12.981   4.157
 3952W        W75568   1.144  11.604   2.661
 3953W        W75569   5.010   1.920   4.583
 3954W        W75570   0.234  11.402  10.571
 3955W        W75571   5.663  18.307   0.414
 3956W        W75572  17.630  22.616   2.758
 3957W        W75573  34.924   6.409   3.588
 3958W        W75574  37.408  40.686   3.018
 3959W        W75575  15.182  37.063   2.897
 3960W        W75576   9.620  31.996  14.883
 3961W        W75577  19.760  22.185  11.343
 3962W        W75578  32.107  37.602  14.391
 3963W        W75579   8.941   6.835  11.073
 3964W        W75580  28.414   8.844   4.152
 3965W        W75581  42.604   5.421  14.627
 3966W        W75582  31.859   5.674  14.771
 3967W        W75583  21.791  23.952   5.072
 3968W        W75584  11.439  32.504  11.614
 3969W        W75585  18.210  31.081   4.940
 3970W        W75586  30.748  40.986   0.783
 3971W        W75587  21.010  17.739   2.356
 3972W        W75588  17.281  16.588   0.803
 3973W        W75589  42.564  41.737  14.568
 3974W        W75590  27.636  10.261   4.150
 3975W        W75591  44.260  28.472  12.344
 3976W        W75592  26.038  12.239   3.677
 3977W        W75593  42.294  37.582  12.003
 3978W        W75594  36.622  15.840   5.086
 3979W        W75595  33.645  36.361   0.490
 3980W        W75596   4.162   1.698  14.258
 3981W        W75597  16.687  36.562   1.291
 3982W        W75598  13.693  38.993   2.402
 3983W        W75599  31.878  12.761  13.178
 3984W        W75600  19.112   2.162   0.350
 3985W        W75601   9.874  17.849  11.599
 3986W        W75602  10.871  41.814   0.281
 3987W        W75603  34.611  13.286  12.314
 3988W        W75604  17.799  21.427  13.551
 3989W        W75605  26.543  36.878   4.031
 3990W        W75606  16.353  37.929   4.130
 3991W        W75607  34.123  18.753  13.123
 3992W        W75608   3.958  12.568   2.596
 3993W        W75609  41.529  33.218   1.536
 3994W        W75610  13.416  14.662   2.235
 3995W        W75611  37.001  28.337   2.677
 3996W        W75612  44.751  38.019  10.600
 3997W        W75613  26.764  20.252   0.798
 3998W        W75614   8.639  39.821  11.453
 3999W        W75615  27.443  20.230   3.061
 4000W        W75616  14.238  19.591   1.462
 4001W        W75617  22.751  25.646   2.387
 4002W        W75618  31.677  37.070   1.415
 4003W        W75619  27.130  25.918   4.337
 4004W        W75620  21.117  29.531  12.824
 4005W        W75621  10.611  29.393  10.406
 4006W        W75622  29.425   4.422   2.853
 4007W        W75623  32.689  15.672  11.677
 4008W        W75624  30.102   3.106  13.072
 4009W        W75625   6.924  43.485  12.505
 4010W        W75626  18.220  22.507  10.886
 4011W        W75627  35.759  34.463  10.998
 4012W        W75628  43.915  31.968   2.663
 4013W        W75629   5.113   7.255   1.752
 4014W        W75630  28.185  40.505   1.414
 4015W        W75631  29.959   1.047   3.657
 4016W        W75632  34.156  42.441   0.507
 4017W        W75633  28.182   3.349   3.693
 4018W        W75634  11.109  38.360  10.578
 4019W        W75635  42.628  10.792   2.393
 4020W        W75636  17.518  44.642   0.940
 4021W        W75637   7.205  10.184  10.637
 4022W        W75638  38.149   2.195  12.396
 4023W        W75639   5.695  23.700  10.621
 4024W        W75640  43.542  23.018   3.759
 4025W        W75641  11.329  38.947   0.351
 4026W        W75642  20.855  12.746   5.058
 4027W        W75643  16.264   1.853   4.072
 4028W        W75644   6.741   8.648  10.966
 4029W        W75645  25.510   1.211   4.773
 4030W        W75646  23.232  40.611  14.965
 4031W        W75647  17.985   9.783  10.948
 4032W        W75648  30.250   9.742  14.038
 4033W        W75649  22.761   3.914   3.929
 4034W        W75650  28.613  27.702  12.843
 4035W        W75651  22.797  39.412   2.797
 4036W        W75652   7.596   9.289   1.916
 4037W        W75653  34.132  43.886  14.569
 4038W        W75654  21.948  28.045   1.898
 4039W        W75655  22.803  12.112  13.916
 4040W        W75656   8.188   9.751   1.470
 4041W        W75657  19.077  16.299   2.689
 4042W        W75658  13.699   3.308   0.507
 4043W        W75659  11.194   7.285  11.383
 4044W        W75660  42.675  29.537  11.342
 4045W        W75661  32.930   8.786   4.253
 4046W        W75662  26.393  36.307   2.712
 4047W        W75663  31.374  27.437   2.912
 4048W        W75664   0.577  23.448   9.858
 4049W        W75665  30.639  29.987  12.476
 4050W        W75666  16.722  29.434   4.654
 4051W        W75667  26.436  38.751  11.964
 4052W        W75668  40.086   8.665   2.211
 4053W        W75669   1.730  25.736  11.895
 4054W        W75670   0.872  23.732  10.304
 4055W        W75671   7.312   0.201   1.298
 4056W        W75672  42.475  27.027  14.029
 4057W        W75673  16.154  23.052  10.510
 4058W        W75674  20.494  18.169   3.667
 4059W        W75675  24.721  16.674  12.854
 4060W        W75676  17.119   8.233  13.044
 4061W        W75677   9.023   1.183  13.708
 4062W        W75678  31.490  27.930   2.282
 4063W        W75679  12.452  17.435   0.238
 4064W        W75680  20.150  18.496  12.134
 4065W        W75681  10.542  33.008  14.117
 4066W        W75682  17.443  33.503  12.676
 4067W        W75683  13.013   1.324   3.280
 4068W        W75684  22.287   3.857   0.993
 4069W        W75685  15.395  29.726   1.288
 4070W        W75686  27.646   4.926  13.316
 4071W        W75687   4.803  16.729  11.936
 4072W        W75688  27.195  20.256  14.041
 4073W        W75689  28.668  37.886   1.537
 4074W        W75690  38.074  43.840  14.786
 4075W        W75691  29.455  16.287  10.660
 4076W        W75692   0.396  26.872  13.181
 4077W        W75693  33.495  24.554   3.315
 4078W        W75694  40.049  17.040  12.293
 4079W        W75695   5.256  34.475  12.348
 4080W        W75696  21.469  33.111  11.538
 4081W        W75697  12.296   6.650   0.408
 4082W        W75698  14.340  13.085  13.374
 4083W        W75699  12.369   7.731  12.845
 4084W        W75700   1.990  33.584  13.058
 4085W        W75701  37.968   1.146   1.026
 4086W        W75702  38.867  44.811  12.466
 4087W        W75703  13.784  31.106  13.385
 4088W        W75704   2.499   2.410   1.294
 4089W        W75705   7.162  32.096   2.173
 4090W        W75706  23.893  14.734   0.255
 4091W        W75707  22.212   5.997  11.214
 4092W        W75708   7.492  10.221   1.240
 4093W        W75709  39.974   6.444   2.573
 4094W        W75710  26.867  27.501  12.960
 4095W        W75711  25.231  22.088   4.035
 4096W        W75712  13.617  43.914  10.611
 4097W        W75713  43.313  31.397   2.826
 4098W        W75714  41.992  44.950   1.279
 4099W        W75715   1.689  42.476  14.394
 4100W        W75716   3.417  27.610   1.234
 4101W        W75717  30.268  29.612   2.396
 4102W        W75718  13.866  19.723  12.634
 4103W        W75719   4.483  41.326  12.973
 4104W        W75720   4.464  34.884   3.684
 4105W        W75721   6.901  15.010  14.983
 4106W        W75722  18.010   2.662   0.895
 4107W        W75723   7.393  30.160  14.535
 4108W        W75724  25.485  22.152   1.792
 4109W        W75725  12.213  14.606   0.666
 4110W        W75726  13.984  43.092  10.065
 4111W        W75727  20.072   1.286   2.483
 4112W        W75728  30.848  22.203   4.584
 4113W        W75729  40.977   3.760  13.291
 4114W        W75730   6.512  24.714   1.116
 4115W        W75731  13.303  28.596  10.899
 4116W        W75732  24.682  23.792  12.960
 4117W        W75733  23.115   4.831   3.006
 4118W        W75734  21.179  41.301   1.755
 4119W        W75735  41.595  33.982   3.310
 4120W        W75736  27.171  43.368   3.890
 4121W        W75737  34.090  28.456   3.716
 4122W        W75738  18.130   5.775  14.463
 4123W        W75739  42.828   1.737   4.062
 4124W        W75740  29.697  25.491  12.150
 4125W        W75741  37.003   8.840  11.438
 4126W        W75742  44.811  32.428  14.049
 4127W        W75743  31.238  10.216   0.450
 4128W        W75744  35.532  12.424   2.324
 4129W        W75745  41.278   9.976   0.286
 4130W        W75746  41.571  25.933   3.386
 4131W        W75747  14.732  24.579   0.222
 4132W        W75748  30.955  15.501  14.324
 4133W        W75749  22.280  20.049   0.628
 4134W        W75750   5.269  25.680   1.260
 4135W        W75751  23.691  14.633  10.711
 4136W        W75752  10.232  41.336  14.702
 4137W        W75753  27.552   4.682  14.177
 4138W        W75754  26.921  32.561   4.062
 4139W        W75755  24.186  13.645   0.778
 4140W        W75756   0.350  34.627   4.739
 4141W        W75757  39.993  11.485   9.815
 4142W        W75758   1.242   1.773   2.857
 4143W        W75759  18.557  40.617  11.061
 4144W        W75760  10.582   3.901   3.272
 4145W        W75761  11.344  24.827   3.245
 4146W        W75762   4.687  39.906   1.916
 4147W        W75763  37.120  28.070   2.224
 4148W        W75764  16.256  15.060  12.126
 4149W        W75765  43.892  31.658  12.671
 4150W        W75766  23.511  40.987  13.407
 4151W        W75767   2.803  41.017  14.463
 4152W        W75768  22.515  12.377   2.838
 4153W        W75769  31.553  28.122   3.185
 4154W        W75770  35.504  43.289  13.932
 4155W        W75771   3.346   1.078  11.974
 4156W        W75772  14.097  21.885  13.006
 4157W        W75773   2.287  28.640   1.443
 4158W        W75774   5.844  26.082   2.263
 4159W        W75775  17.167  27.132  14.959
 4160W        W75776  29.931   6.928   4.117
 4161W        W75777  34.832  22.604  10.228
 4162W        W75778  36.525  11.820   0.323
 4163W        W75779  11.822  20.772   0.830
 4164W        W75780  40.437  16.821  12.052
 4165W        W75781   3.861  20.191   1.765
 4166W        W75782   8.757  16.607  11.126
 4167W        W75783  11.859   1.558  13.280
 4168W        W75784   6.343  24.049  13.469
 4169W        W75785  17.165  39.317   2.050
 4170W        W75786  20.693  20.049   3.630
 4171W        W75787   5.654  35.026  14.139
 4172W        W75788  22.174  15.573   0.228
 4173W        W75789  32.917  39.597  14.933
 4174W        W75790   4.426  12.291   0.053
 4175W        W75791  42.255  44.973   2.552
 4176W        W75792   9.127   0.956   3.157
 4177W        W75793  38.824  33.594  13.027
 4178W        W75794  24.791  26.179  11.178
 4179W        W75795  23.173  21.346  13.909
 4180W        W75796   6.373  18.095  11.404
 4181W        W75797   8.357  19.585   4.629
 4182W        W75798  43.048  16.308  10.626
 4183W        W75799  35.882   4.718   2.793
 4184W        W75800  16.168  39.753   2.730
 4185W        W75801  22.849   2.337  12.779
 4186W        W75802   3.929  39.550  13.099
 4187W        W75803  31.062  43.701   2.783
 4188W        W75804   3.915  35.958  12.468
 4189W        W75805  40.560  12.150  10.203
 4190W        W75806  40.048  21.464   2.378
 4191W        W75807  27.487  41.286   2.380
 4192W        W75808  33.148  11.867  14.430
 4193W        W75809  31.612  20.521   0.935
 4194W        W75810   2.726  21.736   0.955
 4195W        W75811   9.128  27.919  14.460
 4196W        W75812  26.523  41.769  11.960
 4197W        W75813  25.206  16.274  11.674
 4198W        W75814  42.881  37.028   3.100
 4199W        W75815  34.969  34.520   0.583
 4200W        W75816   7.112  37.384  11.113
 4201W        W75817   1.181   5.327  13.939
 4202W        W75818  25.168  13.841   4.565
 4203W        W75819  34.873  27.386  10.618
 4204W        W75820  39.588  36.879  14.587
 4205W        W75821   4.759  34.596   0.298
 4206W        W75822  17.284  28.945   3.236
 4207W        W75823  12.697  30.876  13.997
 4208W        W75824  14.588  38.084  11.646
 4209W        W75825  30.584  28.162  10.900
 4210W        W75826   9.705  41.765  12.087
 4211W        W75827   2.486  42.024  14.387
 4212W        W75828   0.738  32.012   1.609
 4213W        W75829  14.164  40.196  11.624
 4214W        W75830   1.512  33.108  12.515
 4215W        W75831   6.800  12.807   3.262
 4216W        W75832  42.270  27.395  12.022
 4217W        W75833  40.350  44.782   3.158
 4218W        W75834  23.601   7.620  11.288
 4219W        W75835  13.154  26.736   3.681
 4220W        W75836  41.786  26.201  12.941
 4221W        W75837   9.657  22.591  14.816
 4222W        W75838  44.476  40.367  14.768
 4223W        W75839  43.035  31.662  12.631
 4224W        W75840  18.789   1.493   2.388
 4225W        W75841  37.416  44.958  11.851
 4226W        W75842  31.029   0.215  13.518
 4227W        W75843  33.363   9.807  13.953
 4228W        W75844  44.161  41.188  11.511
 4229W        W75845  13.652  11.895   1.811
 4230W        W75846   6.823  22.489   3.691
 4231W        W75847  32.495  36.099   3.128
 4232W        W75848  28.543  37.366   0.284
 4233W        W75849  19.940   6.426   4.261
 4234W        W75850  38.569  38.950   1.326
 4235W        W75851  21.034   4.350  10.748
 4236W        W75852   7.514  38.496  11.999
 4237W        W75853  38.227  37.550  11.104
 4238W        W75854  34.405   2.320   0.875
 4239W        W75855  22.344  18.015  13.495
 4240W        W75856  12.101  37.846  10.986
 4241W        W75857  16.126   8.650   2.203
 4242W        W75858  21.911  43.248   0.846
 4243W        W75859  25.019  14.050   2.119
 4244W        W75860   4.812   4.940   1.177
 4245W        W75861  30.336   2.141  11.411
 4246W        W75862  25.226   1.948   4.934
 4247W        W75863   2.291   9.698   1.507
 4248W        W75864   6.556  14.284  10.344
 4249W        W75865  19.056  31.735  12.669
 4250W        W75866  19.485   1.263   1.234
 4251W        W75867  44.317  23.554  13.538
 4252W        W75868   2.244  20.003  12.953
 4253W        W75869   2.816  18.598   2.290
 4254W        W75870  18.384  42.952  10.832
 4255W        W75871  26.224  23.783   1.694
 4256W        W75872  26.594  14.894  11.919
 4257W        W75873  31.591  33.650  13.852
 4258W        W75874  32.888  37.175   3.386
 4259W        W75875  27.964  22.150  11.691
 4260W        W75876  24.119  27.630  10.801
 4261W        W75877  31.002  39.762   4.556
 4262W        W75878  29.940  29.971  13.637
 4263W        W75879  19.777   5.252  14.793
 4264W        W75880  31.914  18.303  12.104
 4265W        W75881  21.279   3.670   0.876
 4266W        W75882  17.566   0.946  11.131
 4267W        W75883  28.795  30.231   5.026
 4268W        W75884  32.542  23.502   0.309
 4269W        W75885  37.466   8.317   4.218
 4270W        W75886  39.565  37.470   3.727
 4271W        W75887  27.244   4.857  12.500
 4272W        W75888  11.152  26.505   0.467
 4273W        W75889  10.661  19.528   0.316
 4274W        W75890   2.494  19.106   3.714
 4275W        W75891  23.504  30.389  12.999
 4276W        W75892  44.277  43.513  14.501
 4277W        W75893  29.745  18.632   2.311
 4278W        W75894  10.455  39.724  12.915
 4279W        W75895  13.744  33.564  14.181
 4280W        W75896  38.136  21.617  14.940
 4281W        W75897   0.944  44.278   3.115
 4282W        W75898   6.506  10.838  11.159
 4283W        W75899  15.369  41.808  13.987
 4284W        W75900  41.030   6.338   4.296
 4285W        W75901   4.276   6.721   3.825
 4286W        W75902   7.920  16.577   0.368
 4287W        W75903  21.682  35.859  11.051
 4288W        W75904  27.452  12.776   0.368
 4289W        W75905  26.311  22.726   3.601
 4290W        W75906  37.486  40.136   0.755
 4291W        W75907  35.737  18.430  14.503
 4292W        W75908  11.920  32.204  14.822
 4293W        W75909  33.925  12.838  11.964
 4294W        W75910  26.081  13.271  10.927
 4295W        W75911   8.818  20.763  12.151
 4296W        W75912  26.276  17.690   2.996
 4297W        W75913  24.970  18.625   3.148
 4298W        W75914  15.224  12.297   2.332
 4299W        W75915   9.672   9.305  10.696
 4300W        W75916  32.688  31.175  12.131
 4301W        W75917   0.469  19.750  13.575
 4302W        W75918  37.743  25.995   4.195
 4303W        W75919   0.295  35.300   1.339
 4304W        W75920  34.627  27.605  14.931
 4305W        W75921   9.171  31.031  13.166
 4306W        W75922  32.947  38.149  12.440
 4307W        W75923  20.215  29.592  12.600
 4308W        W75924  19.536  43.538   0.409
 4309W        W75925  24.222  11.672   4.609
 4310W        W75926  36.830  25.938   0.861
 4311W        W75927  27.860   6.817  11.058
 4312W        W75928  43.312  27.036   2.908
 4313W        W75929  28.115  36.619  13.784
 4314W        W75930  17.311  28.489  12.555
 4315W        W75931  23.285  17.670  12.531
 4316W        W75932  11.339   4.271   0.250
 4317W        W75933  24.171  41.401   5.000
 4318W        W75934  14.748  15.092  14.769
 4319W        W75935  23.430  13.325   2.686
 4320W        W75936  12.889  36.473   4.391
 4321W        W75937  43.618  38.916  10.503
 4322W        W75938  42.442   1.810   1.905
 4323W        W75939  22.364  21.162  12.922
 4324W        W75940  39.446  42.428  13.094
 4325W        W75941  17.171   5.728  12.908
 4326W        W75942  17.666  22.728   3.805
 4327W        W75943   2.924  36.499   4.733
 4328W        W75944  33.374  35.538  13.847
 4329W        W75945  39.520  32.618   3.681
 4330W        W75946   8.694  23.221  13.800
 4331W        W75947   6.101  40.029   1.792
 4332W        W75948  27.560  10.932  10.564
 4333W        W75949  16.766   2.726   1.472
 4334W        W75950  15.730  29.681  12.466
 4335W        W75951  20.773   5.047  11.071
 4336W        W75952  11.191   6.859  12.095
 4337W        W75953   1.311   3.686   3.824
 4338W        W75954  34.555  17.616   2.160
 4339W        W75955  26.645   6.682   4.758
 4340W        W75956  10.161  11.632   4.517
 4341W        W75957  11.210  39.820   0.125
 4342W        W75958  38.165  15.043  14.785
 4343W        W75959  40.365  29.606  12.443
 4344W        W75960   2.190  12.211   2.281
 4345W        W75961   2.421   5.911   2.181
 4346W        W75962   1.954   9.202   2.422
 4347W        W75963  12.072  23.588   4.617
 4348W        W75964  10.139  32.816   3.217
 4349W        W75965  41.231  10.666  10.962
 4350W        W75966  33.827   2.598   0.489
 4351W        W75967  31.638  32.437  13.807
 4352W        W75968  41.422  19.951  12.007
 4353W        W75969  36.633  25.147   3.208
 4354W        W75970  34.881  43.863   2.652
 4355W        W75971  23.083  39.621   1.434
 4356W        W75972  42.063   5.494   4.855
 4357W        W75973  38.930  42.765  13.832
 4358W        W75974  18.098  22.818   0.062
 4359W        W75975  39.590  21.731   0.786
 4360W        W75976  25.651  33.117   0.055
 4361W        W75977   1.328   1.363  12.846
 4362W        W75978  18.108  29.956  12.510
 4363W        W75979  27.887  32.532   4.942
 4364W        W75980  42.836  40.902   1.899
 4365W        W75981  21.297  10.745  14.316
 4366W        W75982  28.313  42.574   5.107
 4367W        W75983  31.191  38.279  11.229
 4368W        W75984  11.731   2.867  11.598
 4369W        W75985   7.148  18.803  14.211
 4370W        W75986  35.497   4.070  12.451
 4371W        W75987  34.114   9.301   3.658
 4372W        W75988  10.434  21.538   4.563
 4373W        W75989  29.389   1.915   4.196
 4374W        W75990  33.870  16.608   2.826
 4375W        W75991  14.291  17.247   3.219
 4376W        W75992  42.447  32.934   0.989
 4377W        W75993  23.866   1.728  14.795
 4378W        W75994  15.248   6.628   5.475
 4379W        W75995  24.171  21.522   1.201
 4380W        W75996  10.249   0.970  10.452
 4381W        W75997  38.471   6.291   4.702
 4382W        W75998  25.174   4.376   1.258
 4383W        W75999  26.134  42.817  13.352
 4384W        W76000  14.354  13.283  12.474
 4385W        W76001  10.215  25.226  14.498
 4386W        W76002  32.496   4.020   1.753
 4387W        W76003  43.015  17.043  11.945
 4388W        W76004  30.164   5.501  11.619
 4389W        W76005   1.193  17.161  11.984
 4390W        W76006  24.306  12.263  13.774
 4391W        W76007  43.417  34.309  12.539
 4392W        W76008  37.314  35.345  13.424
 4393W        W76009   3.612  13.054   5.146
 4394W        W76010  29.047  33.110   2.614
 4395W        W76011  18.522  25.697  11.930
 4396W        W76012  10.199  13.370   1.035
 4397W        W76013   1.189  24.514   2.227
 4398W        W76014  25.219  21.156   0.810
 4399W        W76015  27.881  21.288  12.497
 4400W        W76016  32.032  30.107  12.307
 4401W        W76017  37.401  39.472  14.813
 4402W        W76018  31.736  39.476   0.489
 4403W        W76019   4.129  29.126   1.272
 4404W        W76020  26.060   1.760   1.306
 4405W        W76021  11.358  15.191   1.984
 4406W        W76022  31.193  38.358   3.553
 4407W        W76023  42.755  36.654   5.029
 4408W        W76024   5.001  43.801   5.529
 4409W        W76025  30.431  36.043   0.768
 4410W        W76026  30.663  29.461  13.513
 4411W        W76027  34.844  44.051   1.190
 4412W        W76028  44.083  25.193  14.871
 4413W        W76029  40.331  15.515   1.378
 4414W        W76030  34.525  28.757  13.787
 4415W        W76031  42.142  43.334  14.028
 4416W        W76032  15.796  43.325   0.260
 4417W        W76033  16.357  26.487   3.206
 4418W        W76034  38.476   1.899  11.112
 4419W        W76035   1.712  37.448   3.258
 4420W        W76036  43.246  19.841   0.272
 4421W        W76037  23.300  19.165  12.434
 4422W        W76038  14.969  18.238   2.345
 4423W        W76039  33.861  16.053   3.576
 4424W        W76040  34.442  13.005  14.745
 4425W        W76041  43.707  26.173  14.967
 4426W        W76042   1.053  15.677  12.573
 4427W        W76043   0.467  37.447   4.515
 4428W        W76044  22.718  35.406  13.423
 4429W        W76045  15.267  36.270  13.378
 4430W        W76046  44.160  43.873   1.196
 4431W        W76047  16.059  28.152  12.061
 4432W        W76048  42.844   4.527   1.690
 4433W        W76049  19.581  30.236   2.850
 4434W        W76050  12.128  17.785   4.613
 4435W        W76051   4.894  29.562  11.589
 4436W        W76052  44.414  31.417   4.358
 4437W        W76053  26.965  12.683   4.175
 4438W        W76054  31.548  31.240  13.364
 4439W        W76055  43.520  27.965  11.132
 4440W        W76056  17.084  17.852  11.613
 4441W        W76057  37.354  17.180  14.629
 4442W        W76058  19.119  13.233  13.355
 4443W        W76059   9.571  36.909   2.837
 4444W        W76060  35.554  40.935   0.975
 4445W        W76061  21.510   4.227  13.289
 4446W        W76062  42.741  21.870  14.943
 4447W        W76063  13.417   5.231   3.304
 4448W        W76064  30.994  13.621   3.363
 4449W        W76065  44.257  39.949   1.332
 4450W        W76066   5.332   4.427  12.610
 4451W        W76067  44.100  42.356  14.767
 4452W        W76068  44.887  41.267   1.251
 4453W        W76069  32.471  39.552  11.558
 4454W        W76070  16.378  15.754   9.726
 4455W        W76071  31.430  13.392   3.127
 4456W        W76072  32.468   7.358  14.346
 4457W        W76073  40.746  18.480  10.967
 4458W        W76074   3.362  16.644   4.279
 4459W        W76075   9.784   5.227   4.393
 4460W        W76076  30.513  35.746   3.534
 4461W        W76077   7.362  40.741  11.083
 4462W        W76078   4.042  27.024  14.599
 4463W        W76079  38.891  29.379  13.637
 4464W        W76080  24.851  28.326  10.502
 4465W        W76081  31.877  22.104   4.333
 4466W        W76082   9.770  23.757   0.225
 4467W        W76083  12.642  22.568   1.415
 4468W        W76084   7.728  29.934   0.356
 4469W        W76085  35.566  44.348   0.514
 4470W        W76086  17.551  33.900  13.876
 4471W        W76087  44.361   5.361   4.606
 4472W        W76088  32.434  16.626  10.647
 4473W        W76089  42.954  16.992   4.270
 4474W        W76090  20.580  13.151  12.466
 4475W        W76091  25.691  11.295  12.486
 4476W        W76092  14.547   8.687   1.261
 4477W        W76093   8.429  17.303   0.624
 4478W        W76094  21.956  24.186   3.081
 4479W        W76095  20.582   8.776   2.942
 4480W        W76096  12.314  19.380  12.933
 4481W        W76097  12.038   2.713  13.809
 4482W        W76098  40.961   4.020   4.266
 4483W        W76099  26.534  12.060  12.001
 4484W        W76100  36.805  18.101   3.625
 4485W        W76101   6.657   4.302   4.113
 4486W        W76102  17.629  15.038   2.168
 4487W        W76103   4.521  36.491  13.441
 4488W        W76104  10.361  29.924  10.227
 4489W        W76105  43.705   9.492   0.844
 4490W        W76106  17.228   6.421   3.808
 4491W        W76107  44.930  39.959   1.917
 4492W        W76108   0.031  29.329   0.863
 4493W        W76109  12.171   1.856   3.244
 4494W        W76110  10.322  20.305  12.915
 4495W        W76111  14.639   1.876   1.954
 4496W        W76112  36.918   4.851  14.359
 4497W        W76113   2.911  38.840   2.372
 4498W        W76114  11.838   8.867  10.937
 4499W        W76115   7.503  44.193  11.192
 4500W        W76116  29.178  35.832   2.310
 4501W        W76117   0.516  30.373  10.397
 4502W        W76118  14.694  26.517   1.011
 4503W        W76119  41.835  18.129   1.766
 4504W        W76120  12.754  40.026  12.702
 4505W        W76121  37.297  15.163   2.339
 4506W        W76122  25.401  19.749   2.032
 4507W        W76123  17.552  29.970  12.819
 4508W        W76124  38.859  38.670  14.772
 4509W        W76125  19.558  27.711   4.169
 4510W        W76126  43.952  11.201   1.330
 4511W        W76127  22.138  27.965  11.952
 4512W        W76128  17.123  32.351  12.000
 4513W        W76129  16.108   5.227   3.267
 4514W        W76130  22.368  42.359  11.514
 4515W        W76131  41.466   6.208   1.325
 4516W        W76132  32.374  32.521   4.125
 4517W        W76133   3.459  22.340   2.763
 4518W        W76134  43.358  33.535   3.504
 4519W        W76135   1.793  22.180   4.360
 4520W        W76136   6.942  40.513  11.447
 4521W        W76137  26.559  13.917  11.760
 4522W        W76138  44.827   1.897  11.833
 4523W        W76139  30.638  16.264   2.622
 4524W        W76140   1.441  29.400  12.953
 4525W        W76141  18.806  15.099  13.013
 4526W        W76142  12.744  28.226   3.605
 4527W        W76143   0.197  31.590  13.437
 4528W        W76144  42.831  29.218   1.469
 4529W        W76145   3.412  33.968  10.775
 4530W        W76146  14.528   8.815  14.894
 4531W        W76147  41.437  33.534   3.107
 4532W        W76148  26.447  38.463   0.025
 4533W        W76149  33.137  11.155   2.247
 4534W        W76150  39.864   5.758   3.160
 4535W        W76151  23.144  13.772  11.979
 4536W        W76152  31.708  44.404  10.622
 4537W        W76153  10.921  18.686  13.395
 4538W        W76154  11.593  29.555   2.885
 4539W        W76155  13.047   3.545   1.016
 4540W        W76156   6.048  32.653   3.198
 4541W        W76157  37.153  33.988  13.335
 4542W        W76158  10.810  25.440   4.242
 4543W        W76159  25.212  32.583   4.876
 4544W        W76160  19.607   5.819   1.477
 4545W        W76161  38.357  26.467   0.889
 4546W        W76162  14.067   3.899  12.953
 4547W        W76163  10.725  31.510  12.380
 4548W        W76164  39.847  10.894  12.050
 4549W        W76165  17.303  34.581   4.789
 4550W        W76166  11.498  18.406   4.248
 4551W        W76167  33.038  38.449  14.932
 4552W        W76168  21.293  25.168  11.069
 4553W        W76169  27.073  20.946   3.440
 4554W        W76170  33.166  44.013   5.408
 4555W        W76171  17.750  11.055  12.326
 4556W        W76172  29.892   8.634   0.357
 4557W        W76173  32.558  43.976  10.729
 4558W        W76174  33.965  32.091   0.883
 4559W        W76175  29.332  25.307  13.504
 4560W        W76176  33.367  32.014  10.663
 4561W        W76177  42.070   6.048   2.166
 4562W        W76178  31.458  32.365   2.818
 4563W        W76179  11.189  44.800   2.397
 4564W        W76180  30.709   9.282   4.552
 4565W        W76181  16.931   6.800  10.163
 4566W        W76182  39.571   3.552   3.005
 4567W        W76183  37.939  36.972   4.438
 4568W        W76184   1.888  38.949   2.434
 4569W        W76185  39.342  34.362   1.818
 4570W        W76186  17.640  26.394  14.865
 4571W        W76187  31.530  28.138  13.141
 4572W        W76188  30.107  39.960  13.389
 4573W        W76189  41.792  29.935   3.350
 4574W        W76190  42.551  39.575   3.752
 4575W        W76191  15.627  30.136   1.500
 4576W        W76192  31.979  42.359   2.457
 4577W        W76193  15.710  22.808   0.347
 4578W        W76194  20.624  31.084   4.721
 4579W        W76195  30.154   9.559   4.545
 4580W        W76196  34.078  19.351  11.193
 4581W        W76197  29.426  29.013   3.127
 4582W        W76198  15.573   3.186   3.838
 4583W        W76199   2.663   3.264  12.008
 4584W        W76200  13.048  27.173  10.898
 4585W        W76201  27.512  19.476  14.483
 4586W        W76202  41.065  31.665   1.260
 4587W        W76203  24.918  40.872  13.122
 4588W        W76204  25.588   3.236  10.434
 4589W        W76205   1.583   8.190  13.099
 4590W        W76206  16.343  43.816   2.714
 4591W        W76207   7.392  44.273   3.289
 4592W        W76208  44.229  18.292   2.884
 4593W        W76209  37.367   9.780  13.096
 4594W        W76210  42.864  28.896  12.020
 4595W        W76211   0.717  32.456  11.186
 4596W        W76212   8.628  19.781   4.239
 4597W        W76213  25.175  20.282  13.386
 4598W        W76214  16.445   6.964   1.135
 4599W        W76215   3.817   1.031  10.259
 4600W        W76216   2.841   3.808  14.610
 4601W        W76217  33.831  24.242   1.792
 4602W        W76218  18.049  11.897   1.819
 4603W        W76219  37.787   7.691   1.772
 4604W        W76220  24.738  19.128   0.701
 4605W        W76221  43.500   6.420   1.327
 4606W        W76222  33.689  18.549  12.881
 4607W        W76223  41.818  28.666   3.852
 4608W        W76224   2.101  26.751   2.490
 4609W        W76225   0.254  34.930  13.375
 4610W        W76226  40.419   6.830  14.841
 4611W        W76227   8.741  26.828  10.749
 4612W        W76228  16.208  17.623  14.039
 4613W        W76229  33.477   6.439   2.577
 4614W        W76230  39.344  27.733  11.991
 4615W        W76231  19.231  29.358   0.707
 4616W        W76232  30.669  39.779   1.304
 4617W        W76233  22.024  37.791   4.218
 4618W        W76234  12.091  22.606  13.006
 4619W        W76235   1.349  29.139   4.165
 4620W        W76236  18.556   4.493  11.046
 4621W        W76237  31.898  36.540  12.986
 4622W        W76238   7.484   3.964  13.864
 4623W        W76239   7.824  36.155   1.414
 4624W        W76240   7.810  35.497   4.792
 4625W        W76241  28.502  28.074  11.614
 4626W        W76242  30.497  22.043  14.454
 4627W        W76243   8.817   0.160  11.122
 4628W        W76244  13.366  18.562   3.925
 4629W        W76245  14.537  30.652  13.936
 4630W        W76246  41.546  23.015   1.356
 4631W        W76247   5.953  25.651   1.943
 4632W        W76248   1.708  36.625   0.858
 4633W        W76249  28.558  17.272  11.019
 4634W        W76250   9.070  30.165  11.010
 4635W        W76251  38.296  16.030   4.549
 4636W        W76252  18.213   2.710   2.723
 4637W        W76253   7.401  20.498  13.804
 4638W        W76254  28.732  27.555   1.947
 4639W        W76255  42.004   4.029   1.251
 4640W        W76256   7.484  36.713  12.083
 4641W        W76257  33.314   1.705  11.875
 4642W        W76258  29.013  32.026  10.641
 4643W        W76259  10.287  15.693   0.735
 4644W        W76260   7.974  25.116  11.608
 4645W        W76261  31.363  30.651   3.208
 4646W        W76262  28.215  38.832   0.292
 4647W        W76263   3.106  25.148  12.719
 4648W        W76264  44.951  36.550   4.470
 4649W        W76265  10.782  11.561  14.384
 4650W        W76266  23.294  11.152  11.875
 4651W        W76267  29.927   5.750  12.078
 4652W        W76268  38.077   6.756  11.507
 4653W        W76269  25.181   1.932  10.681
 4654W        W76270  16.767  10.878  13.403
 4655W        W76271  40.066  39.254   1.720
 4656W        W76272  25.261  42.417   4.474
 4657W        W76273  25.894  34.210  13.019
 4658W        W76274   5.856  44.706  12.840
 4659W        W76275  42.095  17.066  11.859
 4660W        W76276  31.487  15.679   2.826
 4661W        W76277  23.327  28.519  12.014
 4662W        W76278  29.010  37.055  14.814
 4663W        W76279  11.313   8.098  14.457
 4664W        W76280  16.297  20.846  10.985
 4665W        W76281   7.215   3.752  14.254
 4666W        W76282  26.104   1.941  10.802
 4667W        W76283   8.835  12.790   0.518
 4668W        W76284  16.543  24.419  11.908
 4669W        W76285  28.695  37.461   3.344
 4670W        W76286  20.073  25.374  11.596
 4671W        W76287  37.515   1.955   2.757
 4672W        W76288  33.038  18.228   1.811
 4673W        W76289  11.814  18.630  11.054
 4674W        W76290  30.085  30.573  14.802
 4675W        W76291  25.631  20.158   4.268
 4676W        W76292  32.056  14.693   3.128
 4677W        W76293   3.541  11.729  13.889
 4678W        W76294  41.208  23.395   1.268
 4679W        W76295  35.534  10.269   3.595
 4680W        W76296  42.288  42.857   2.835
 4681W        W76297  33.668  10.320   2.292
 4682W        W76298  18.517  39.965   2.851
 4683W        W76299  13.547  18.264  13.512
 4684W        W76300  29.230  26.378   1.010
 4685W        W76301  30.546  28.962  14.762
 4686W        W76302  17.805  41.960  11.713
 4687W        W76303  32.445  12.239  13.345
 4688W        W76304  26.474  26.016   3.144
 4689W        W76305  33.615   4.400  14.458
 4690W        W76306   4.322  42.435   2.686
 4691W        W76307   9.173  23.968   0.292
 4692W        W76308  36.379  20.145  10.404
 4693W        W76309  36.295  43.704   4.632
 4694W        W76310  41.051  32.911  13.233
 4695W        W76311  38.945   5.707  10.671
 4696W        W76312  14.310  39.523   3.547
 4697W        W76313  24.541  37.860   1.731
 4698W        W76314  33.383  32.060   4.129
 4699W        W76315  35.124   5.072  11.026
 4700W        W76316  35.678  24.148  14.023
 4701W        W76317  39.916  27.653   1.680
 4702W        W76318  33.810  36.368   4.099
 4703W        W76319  41.801  23.110   4.184
 4704W        W76320  21.052  37.732   5.077
 4705W        W76321  10.903  44.246  12.977
 4706W        W76322  17.570   8.601  14.941
 4707W        W76323   6.809  19.557  12.307
 4708W        W76324  22.157  37.740  13.723
 4709W        W76325   8.606  16.241  13.967
 4710W        W76326  44.073  26.538  10.132
 4711W        W76327  37.575   3.920  11.022
 4712W        W76328   4.711  31.889   2.792
 4713W        W76329  27.551  17.273  10.087
 4714W        W76330  14.676   6.546  11.026
 4715W        W76331  31.797  36.690   4.301
 4716W        W76332  30.711  14.182   3.801
 4717W        W76333   1.786  34.253  11.208
 4718W        W76334  39.273  26.471  13.934
 4719W        W76335   1.495  42.466   0.797
 4720W        W76336  40.497  13.240  11.977
 4721W        W76337  42.754  12.103   4.186
 4722W        W76338  28.664  24.248  13.826
 4723W        W76339   4.426  33.796   1.377
 4724W        W76340  14.691  12.344   0.394
 4725W        W76341  12.792  11.685   0.294
 4726W        W76342  43.517   3.297   1.289
 4727W        W76343  44.833  31.408  13.852
 4728W        W76344  32.545   2.146   0.402
 4729W        W76345  44.279  27.656  10.872
 4730W        W76346  12.809   4.658   0.424
 4731W        W76347  36.121   0.918   2.816
 4732W        W76348  43.502   8.699   3.696
 4733W        W76349   8.969   0.979   5.005
 4734W        W76350   7.827  11.192   2.752
 4735W        W76351  25.394   4.066  10.733
 4736W        W76352  10.101  38.029   0.957
 4737W        W76353  30.275  34.146  12.599
 4738W        W76354  22.165  11.457   1.328
 4739W        W76355  39.099  22.311  12.083
 4740W        W76356  40.398  24.959   0.724
 4741W        W76357  20.757  30.033   3.626
 4742W        W76358   0.682  40.067  13.418
 4743W        W76359   8.441  14.317  12.518
 4744W        W76360  32.554   2.478   3.522
 4745W        W76361  20.498  14.787  14.053
 4746W        W76362  17.027  32.210  14.959
 4747W        W76363  44.267  35.963   4.564
 4748W        W76364  12.741  19.261  10.900
 4749W        W76365  30.916  36.571  13.886
 4750W        W76366  39.261   2.588  12.492
 4751W        W76367  34.561   8.180  10.907
 4752W        W76368  31.909  24.255   4.212
 4753W        W76369   0.168   4.360  11.979
 4754W        W76370  29.864  23.621  12.855
 4755W        W76371  29.731  19.172   3.841
 4756W        W76372  42.842  44.356   0.374
 4757W        W76373  25.784  37.538  12.554
 4758W        W76374   8.930   7.864   2.612
 4759W        W76375  36.970  36.432   2.654
 4760W        W76376  19.787  28.484   1.319
 4761W        W76377   8.163  35.634   0.369
 4762W        W76378  26.041  41.440  13.446
 4763W        W76379  24.503  16.851  10.727
 4764W        W76380   9.534  31.942   2.269
 4765W        W76381  38.776  32.375   2.697
 4766W        W76382  15.681   9.042   1.925
 4767W        W76383  40.791  11.939  14.446
 4768W        W76384  43.281  18.067  12.757
 4769W        W76385  32.113  31.936   4.532
 4770W        W76386  41.204  43.644   0.951
 4771W        W76387  40.782  39.611   4.046
 4772W        W76388  26.396   6.183   2.976
 4773W        W76389   0.177  27.083  12.772
 4774W        W76390   9.099   5.628   2.285
 4775W        W76391  42.460   9.363   1.233
 4776W        W76392   6.645   2.265  13.776
 4777W        W76393  27.043  14.909  13.800
 4778W        W76394  21.566  36.936  11.641
 4779W        W76395  40.550  42.893  12.610
 4780W        W76396   9.393   6.598  11.133
 4781W        W76397  16.551  23.012   0.649
 4782W        W76398  40.299   5.505   0.967
 4783W        W76399  35.430  20.240  12.831
 4784W        W76400  25.075  41.886   0.428
 4785W        W76401  15.630  43.753  13.411
 4786W        W76402  11.050   4.235   4.653
 4787W        W76403  39.303  33.108  14.906
 4788W        W76404  26.388  11.415  14.679
 4789W        W76405   7.929   2.030   3.642
 4790W        W76406  37.080   6.574   3.369
 4791W        W76407  39.183   6.389   1.545
 4792W        W76408  32.443  24.073  13.506
 4793W        W76409   1.716  39.688  13.647
 4794W        W76410  41.391  19.416   4.740
 4795W        W76411  36.005  15.070  13.642
 4796W        W76412   7.805  27.696   3.303
 4797W        W76413  26.570  31.130   1.871
 4798W        W76414  31.311  21.248  13.596
 4799W        W76415  22.029  20.517   4.635
 4800W        W76416  15.467  10.260   2.217
 4801W        W76417  21.036  14.880  10.425
 4802W        W76418  33.949  44.520  12.921
 4803W        W76419  23.810  24.956   2.892
 4804W        W76420  31.890  33.885  13.058
 4805W        W76421  37.761  10.757  14.913
 4806W        W76422  18.377  10.351   1.232
 4807W        W76423   3.244  42.300   4.152
 4808W        W76424  27.554   8.671   3.271
 4809W        W76425  32.100  35.933   3.767
 4810W        W76426  17.808  35.587   2.901
 4811W        W76427  41.445  20.325   0.745
 4812W        W76428  20.122  41.177   9.884
 4813W        W76429  34.389  21.698   1.021
 4814W        W76430  21.951  39.546   0.962
 4815W        W76431   1.067  16.743   0.924
 4816W        W76432   5.309  33.561  11.903
 4817W        W76433  30.919   3.099  10.951
 4818W        W76434  42.800  17.272  12.368
 4819W        W76435  17.838  38.482   2.798
 4820W        W76436  33.099  33.588  13.037
 4821W        W76437  43.496   2.516  13.920
 4822W        W76438   4.845  33.047   0.104
 4823W        W76439  16.265   7.525  11.312
 4824W        W76440  33.610   8.413  12.389
 4825W        W76441  43.981  10.976   1.779
 4826W        W76442   5.593  40.886  10.667
 4827W        W76443  31.981  40.783  10.655
 4828W        W76444  20.130   8.739   2.690
 4829W        W76445  13.812  19.759  11.660
 4830W        W76446  22.408  29.577   0.602
 4831W        W76447  16.636  39.956   2.931
 4832W        W76448  15.734   5.386   4.105
 4833W        W76449   3.988  21.548  12.463
 4834W        W76450  11.129  15.802  10.594
 4835W        W76451  42.488   4.998   0.314
 4836W        W76452  20.957  10.630  13.944
 4837W        W76453  15.682  35.885  13.960
 4838W        W76454  38.235  15.111   2.166
 4839W        W76455  29.979  39.049   2.265
 4840W        W76456   6.811   5.301   1.395
 4841W        W76457  30.677  16.696  12.534
 4842W        W76458  39.125  38.791  12.965
 4843W        W76459  16.758   2.058  11.542
 4844W        W76460  23.091  42.224   4.687
 4845W        W76461  22.733   3.593  12.942
 4846W        W76462  20.022  34.478  14.293
 4847W        W76463  31.586  13.549  10.760
 4848W        W76464  24.130  36.599  14.420
 4849W        W76465  32.095  25.529   3.926
 4850W        W76466  30.676   4.233  14.655
 4851W        W76467   3.287   1.753   4.002
 4852W        W76468  44.619  44.719  13.946
 4853W        W76469   7.914  39.588  13.083
 4854W        W76470  38.886   0.832  11.179
 4855W        W76471  14.777   1.374  13.358
 4856W        W76472   0.797  41.312   1.297
 4857W        W76473  15.801   4.354   4.044
 4858W        W76474  12.018  27.946  13.493
 4859W        W76475   8.220   2.463   4.765
 4860W        W76476  19.738  19.072  11.530
 4861W        W76477  30.007  40.042   2.519
 4862W        W76478  18.612  36.317  11.019
 4863W        W76479  43.452  36.020   1.326
 4864W        W76480  18.646  18.351   1.172
 4865W        W76481  15.208  22.109  11.583
 4866W        W76482  38.785  26.110  14.976
 4867W        W76483  35.740  17.842  14.518
 4868W        W76484  17.618  39.191   4.663
 4869W        W76485  11.674  22.199  11.220
 4870W        W76486   5.125   2.169  10.482
 4871W        W76487  17.101  17.839   2.565
 4872W        W76488   4.375  31.973  13.876
 4873W        W76489   9.532  44.326   1.730
 4874W        W76490   9.864  25.992   0.512
 4875W        W76491   3.932   0.641  11.511
 4876W        W76492   1.767  36.589   1.378
 4877W        W76493   4.872  16.020  14.955
 4878W        W76494  28.068  10.313  14.005
 4879W        W76495  27.388  11.541   3.666
 4880W        W76496  16.390  29.344   2.144
 4881W        W76497  12.299  34.073   3.546
 4882W        W76498  24.100  39.897  14.742
 4883W        W76499   1.926  38.197  13.387
 4884W        W76500   3.836  19.707   2.823
 4885W        W76501  18.675  14.374  13.814
 4886W        W76502   4.285  43.009  14.400
 4887W        W76503  35.029  10.956  12.938
 4888W        W76504  28.156  41.910   3.684
 4889W        W76505  18.015  14.723   1.920
 4890W        W76506  43.082  44.892   1.206
 4891W        W76507   2.457   2.796  13.033
 4892W        W76508  21.760  40.417   3.198
 4893W        W76509  34.546   3.653   3.182
 4894W        W76510  33.448  32.511  13.057
 4895W        W76511  33.601  36.287   4.574
 4896W        W76512  20.778  27.053  14.546
 4897W        W76513  37.140  32.437  10.531
 4898W        W76514   2.914  17.091   2.162
 4899W        W76515  16.268  17.767  11.007
 4900W        W76516   2.073   4.424   3.322
 4901W        W76517   0.440   6.916  10.350
 4902W        W76518  33.992   5.373  13.467
 4903W        W76519  19.832  39.005   3.334
 4904W        W76520  36.347  33.500  12.504
 4905W        W76521  30.973  35.810  11.105
 4906W        W76522  30.962  21.299   3.201
 4907W        W76523  34.873  16.174  10.741
 4908W        W76524  34.957   8.423   3.605
 4909W        W76525  14.455  42.390   1.344
 4910W        W76526  26.352  36.871   1.984
 4911W        W76527  17.403   7.607  12.902
 4912W        W76528  17.173  30.416   4.146
 4913W        W76529   5.790  27.167  10.715
 4914W        W76530  36.933  37.259  11.901
 4915W        W76531  17.086   1.749  13.500
 4916W        W76532  20.672  34.946   2.615
 4917W        W76533  26.650  33.921   1.395
 4918W        W76534   8.607  12.641  10.649
 4919W        W76535  38.998   8.143   0.340
 4920W        W76536  18.219  38.411  13.371
 4921W        W76537   1.240  30.031   3.308
 4922W        W76538  23.212  15.011  13.870
 4923W        W76539  21.686   9.951   1.464
 4924W        W76540  19.601  42.782   4.065
 4925W        W76541  18.528  18.284   3.646
 4926W        W76542   7.458  30.526  10.369
 4927W        W76543  30.380   7.296   1.415
 4928W        W76544  23.133  29.989   2.101
 4929W        W76545   7.608  44.877  11.559
 4930W        W76546  22.036  24.044  11.179
 4931W        W76547   9.425   1.841  10.858
 4932W        W76548  37.086  44.832   4.156
 4933W        W76549  37.162   6.213  14.228
 4934W        W76550  31.924  13.323   1.246
 4935W        W76551  15.225  40.984   2.764
 4936W        W76552  22.981  11.262  14.503
 4937W        W76553  14.934  42.916   3.319
 4938W        W76554  30.194  28.632  14.492
 4939W        W76555  39.388  41.930   3.660
 4940W        W76556  31.671  35.030   1.948
 4941W        W76557   8.740  21.268  12.332
 4942W        W76558  22.667  41.960  13.106
 4943W        W76559   2.028  24.495   1.386
 4944W        W76560   5.349  11.221   1.404
 4945W        W76561  10.921  22.090  13.060
 4946W        W76562  13.682   4.885   4.135
 4947W        W76563  11.779   5.173   4.702
 4948W        W76564  22.219  18.538  14.357
 4949W        W76565  37.061  20.179  14.316
 4950W        W76566   9.938  41.000   3.381
 4951W        W76567  30.382  21.584   1.979
 4952W        W76568   7.339  41.590   3.301
 4953W        W76569  15.250   1.564   3.230
 4954W        W76570  36.532  18.022   2.740
 4955W        W76571   1.972  16.694  14.936
 4956W        W76572  38.083  42.961   3.264
 4957W        W76573   0.713   2.472  14.305
 4958W        W76574  42.935  31.769  14.528
 4959W        W76575   8.789   3.055   0.946
 4960W        W76576  16.395  38.248   1.746
 4961W        W76577  17.590  29.996  13.328
 4962W        W76578   7.249   1.359  13.080
 4963W        W76579  32.820   0.407  11.698
 4964W        W76580  29.340  15.400  10.585
 4965W        W76581   1.167  27.961   4.128
 4966W        W76582  30.158  15.642  10.797
 4967W        W76583  40.435  22.795  11.057
 4968W        W76584  31.402  21.993   0.681
 4969W        W76585  41.385  31.895  12.921
 4970W        W76586  31.983   9.284  11.158
 4971W        W76587  16.566  21.749  14.567
 4972W        W76588  43.947  25.774   1.706
 4973W        W76589  11.317  12.805   1.165
 4974W        W76590  13.831  42.212   4.139
 4975W        W76591  32.837   4.778  14.213
 4976W        W76592   1.962   9.373  10.905
 4977W        W76593  40.561   3.174  10.649
 4978W        W76594   4.736  42.287  14.429
 4979W        W76595  21.130  16.199   0.490
 4980W        W76596  26.703  17.252   4.272
 4981W        W76597  29.605  26.221  11.580
 4982W        W76598  33.890  32.509  12.453
 4983W        W76599   6.768  34.939  11.524
 4984W        W76600  15.951  26.459   4.561
 4985W        W76601  12.832  37.345  12.962
 4986W        W76602  26.296   5.714  12.998
 4987W        W76603  23.231  31.753  13.066
 4988W        W76604  35.359  28.536   4.086
 4989W        W76605  29.466  10.508  12.028
 4990W        W76606   7.362  41.247  11.955
 4991W        W76607  18.537   8.219   0.160
 4992W        W76608  28.299  29.663   3.401
 4993W        W76609  43.543  41.778   0.965
 4994W        W76610  25.240   6.432   3.750
 4995W        W76611  10.116  29.024  12.004
 4996W        W76612  13.703  25.689  13.540
 4997W        W76613   4.672   7.229   4.223
 4998W        W76614  24.141  41.411  13.874
 4999W        W76615  23.970   8.455   0.975
 5000W        W76616  36.638  44.300   2.807
 5001W        W76617   5.381  35.289   4.565
 5002W        W76618  12.987   5.375  13.969
 5003W        W76619   2.876  42.169  10.733
 5004W        W76620  41.462  39.891   4.681
 5005W        W76621  30.753   8.793   3.699
 5006W        W76622  31.362  32.622   3.291
 5007W        W76623  15.734  32.492  14.032
 5008W        W76624  37.362   6.479   1.942
 5009W        W76625  25.771  18.598  11.386
 5010W        W76626   2.663  43.538  13.090
 5011W        W76627   8.733  33.051   1.311
 5012W        W76628   4.214  32.125   2.707
 5013W        W76629  42.951  19.548   2.300
 5014W        W76630  29.528   8.377   3.264
 5015W        W76631  20.202   9.872   4.213
 5016W        W76632  23.556   7.746  14.180
 5017W        W76633  29.428  12.623  10.788
 5018W        W76634  40.813   2.443  14.070
 5019W        W76635  40.450  41.883   4.992
 5020W        W76636  10.074  18.328   3.817
 5021W        W76637  35.165  35.765   2.658
 5022W        W76638  13.251  16.967  13.689
 5023W        W76639   3.377  37.278  13.067
 5024W        W76640   7.488   9.733   3.713
 5025W        W76641  41.853  21.987   2.601
 5026W        W76642   3.192   4.179   0.351
 5027W        W76643   5.427  12.262  14.269
 5028W        W76644  34.872  17.589  11.523
 5029W        W76645  33.153  28.613  12.968
 5030W        W76646  37.065   2.774  10.692
 5031W        W76647  31.516  23.998   2.293
 5032W        W76648  40.714   2.187   1.268
 5033W        W76649  22.282  33.002  12.889
 5034W        W76650  16.886  28.438   4.439
 5035W        W76651  43.832  27.221   1.176
 5036W        W76652   5.104   0.752   1.884
 5037W        W76653  17.598  28.004   3.699
 5038W        W76654  10.654  30.374   1.784
 5039W        W76655  35.310  29.707  14.295
 5040W        W76656  42.995  17.483   4.397
 5041W        W76657  35.884  22.897  11.452
 5042W        W76658  33.329  25.632  10.399
 5043W        W76659   9.777  12.110   3.858
 5044W        W76660  15.882  42.221  11.462
 5045W        W76661  44.330  37.651  14.882
 5046W        W76662  18.964  35.055   4.383
 5047W        W76663   3.027  41.894   4.877
 5048W        W76664  19.705   2.842  12.934
 5049W        W76665  39.869   1.352  13.436
 5050W        W76666  19.870  21.873  12.849
 5051W        W76667  19.263  17.058   4.976
 5052W        W76668   9.888  20.051  13.086
 5053W        W76669  25.677  33.622  13.701
 5054W        W76670   5.441  44.392  12.624
 5055W        W76671  27.113  31.846   1.997
 5056W        W76672   8.872  38.456  12.972
 5057W        W76673  18.646  19.302  13.024
 5058W        W76674  17.286  13.763  12.161
 5059W        W76675  44.589  32.698   1.861
 5060W        W76676  15.525  39.792   4.575
 5061W        W76677  27.637  16.729   5.483
 5062W        W76678  32.662  16.232   0.633
 5063W        W76679  30.981   0.295  11.127
 5064W        W76680  14.059   4.457  10.190
 5065W        W76681   1.919  34.638  14.977
 5066W        W76682  37.373  23.621   2.770
 5067W        W76683  25.516  12.213   3.680
 5068W        W76684  37.805  30.036  13.726
 5069W        W76685  39.905  32.241   3.703
 5070W        W76686  28.631  44.757   1.260
 5071W        W76687   9.210   5.978   0.683
 5072W        W76688  35.684   1.198  13.353
 5073W        W76689  17.253   1.449   4.510
 5074W        W76690  43.216  16.552  11.844
 5075W        W76691  36.245  34.541  11.158
 5076W        W76692   6.972  19.214   0.055
 5077W        W76693  24.418  13.384   4.290
 5078W        W76694  30.361   2.822  10.825
 5079W        W76695   5.807  30.195   4.085
 5080W        W76696  10.547  31.859   3.450
 5081W        W76697  20.691   6.767  10.955
 5082W        W76698  19.210  24.144   3.068
 5083W        W76699  38.505  34.960   4.498
 5084W        W76700  38.989   6.406  13.474
 5085W        W76701  36.512  26.791  13.276
 5086W        W76702   7.373  16.838   2.868
 5087W        W76703  40.410  32.251  11.420
 5088W        W76704  38.973  31.433  13.496
 5089W        W76705   1.721  20.210  10.754
 5090W        W76706  13.855  40.026  14.165
 5091W        W76707  23.685  18.120   3.179
 5092W        W76708  12.179   0.191  14.001
 5093W        W76709   9.501   4.433   4.785
 5094W        W76710  41.487  10.892  13.974
 5095W        W76711  35.990  28.070  11.420
 5096W        W76712  10.906  36.003  13.598
 5097W        W76713  21.040   4.964  13.835
 5098W        W76714  36.562  41.311   2.357
 5099W        W76715  38.405  16.055   1.008
 5100W        W76716   0.500  28.224   2.913
 5101W        W76717  10.249  21.593   2.288
 5102W        W76718  31.609  44.877   5.374
 5103W        W76719   3.791  37.954  12.049
 5104W        W76720  33.343  25.495  11.396
 5105W        W76721  43.467  28.931  13.457
 5106W        W76722  29.167  16.776  11.395
 5107W        W76723  21.187  24.045   1.870
 5108W        W76724  29.131  25.839   0.317
 5109W        W76725  22.050  11.592  14.960
 5110W        W76726   2.261  44.755  13.346
 5111W        W76727  33.160  39.497   2.692
 5112W        W76728  19.735  15.700  12.467
 5113W        W76729  23.212  13.892  10.959
 5114W        W76730  23.463  15.231   0.346
 5115W        W76731  32.177  42.789  14.270
 5116W        W76732  20.688  29.918   2.214
 5117W        W76733  26.962  22.605   1.659
 5118W        W76734  38.986  35.154   4.163
 5119W        W76735  36.911  24.162  13.031
 5120W        W76736  35.550  35.063   0.001
 5121W        W76737  17.811  30.393  12.520
 5122W        W76738  32.036  40.025  13.727
 5123W        W76739   0.275  10.208  12.653
 5124W        W76740  23.104  22.987  11.155
 5125W        W76741  17.628  32.447  11.996
 5126W        W76742  12.284  40.115  13.550
 5127W        W76743  23.580  33.884  13.894
 5128W        W76744  35.907  20.779   0.982
 5129W        W76745  21.590  14.407   5.113
 5130W        W76746  23.578  37.329   3.202
 5131W        W76747  40.957  26.711  12.166
 5132W        W76748  11.338  13.948  11.577
 5133W        W76749  43.853   6.154  13.278
 5134W        W76750  34.505  15.547  13.544
 5135W        W76751  23.532  15.609   4.130
 5136W        W76752  29.954  14.261   3.381
 5137W        W76753  35.920  40.414  14.693
 5138W        W76754  37.833  40.441   3.228
 5139W        W76755   1.891   8.769  12.041
 5140W        W76756  15.164  19.531   4.200
 5141W        W76757  13.673   2.359   3.831
 5142W        W76758  39.261   2.774  14.771
 5143W        W76759  43.692  42.283  13.004
 5144W        W76760  10.380  19.668  10.663
 5145W        W76761  31.015  19.775  14.248
 5146W        W76762   9.165  34.978   1.851
 5147W        W76763   7.366  10.162  14.217
 5148W        W76764  21.630  10.855   1.074
 5149W        W76765  23.481  40.474  10.697
 5150W        W76766  21.327  40.994  11.040
 5151W        W76767  12.242  22.558   1.768
 5152W        W76768  37.351   4.894   2.668
 5153W        W76769  43.442   1.223   4.224
 5154W        W76770  11.717  11.227  14.355
 5155W        W76771  13.447  29.993  11.905
 5156W        W76772  21.702  40.234  13.514
 5157W        W76773  41.101   5.268   3.665
 5158W        W76774   1.657  25.537   2.871
 5159W        W76775  26.664  37.911   4.762
 5160W        W76776   5.875  10.275  13.946
 5161W        W76777  26.463  27.413  14.270
 5162W        W76778   1.331  11.326   4.296
 5163W        W76779  35.454  11.711  12.474
 5164W        W76780  34.463  20.539  11.467
 5165W        W76781  14.646  37.354   3.755
 5166W        W76782   3.766  27.428  14.437
 5167W        W76783  39.163  26.769  13.494
 5168W        W76784  30.061   5.211  11.214
 5169W        W76785  16.591   1.742   2.031
 5170W        W76786  13.497  15.372  12.885
 5171W        W76787  21.743  40.757  13.554
 5172W        W76788  16.350  28.994   1.580
 5173W        W76789  24.187   5.607   1.166
 5174W        W76790  14.240  29.653   2.114
 5175W        W76791  44.329   9.169  14.492
 5176W        W76792  19.591  33.704   2.771
 5177W        W76793  28.412  25.270   0.295
 5178W        W76794  22.044  12.020  12.480
 5179W        W76795  27.548  14.272  13.440
 5180W        W76796   9.401  13.076   2.634
 5181W        W76797  43.349  17.228  14.903
 5182W        W76798  22.254  42.521  11.028
 5183W        W76799  26.171   7.628   3.034
 5184W        W76800  29.633  30.175  14.052
 5185W        W76801  21.657  18.033  13.055
 5186W        W76802  40.293   2.472   1.453
 5187W        W76803  33.728  42.990   2.154
 5188W        W76804  30.909  10.866  13.785
 5189W        W76805  26.576  19.816   2.744
 5190W        W76806  13.872  28.472   0.374
 5191W        W76807   0.259  38.381   3.582
 5192W        W76808  20.178  34.866   3.829
 5193W        W76809  12.105  13.525   1.852
 5194W        W76810  44.858  29.563  13.621
 5195W        W76811  19.109  32.132  11.349
 5196W        W76812  19.322   5.795  12.737
 5197W        W76813  19.970  40.483  11.544
 5198W        W76814  37.152  15.016   4.113
 5199W        W76815  40.974  41.803  12.992
 5200W        W76816  38.307  32.835   4.121
 5201W        W76817  15.724  42.859  13.472
 5202W        W76818  11.161   7.648   2.222
 5203W        W76819  20.626  13.383   1.281
 5204W        W76820  29.201  44.592  14.353
 5205W        W76821  10.774  42.373  13.048
 5206W        W76822  22.528   7.630   3.236
 5207W        W76823  13.612  27.584   3.181
 5208W        W76824  30.644  13.799   4.162
 5209W        W76825  38.797  14.239  12.070
 5210W        W76826  20.087  17.939   0.829
 5211W        W76827  30.503  31.827   3.683
 5212W        W76828  26.756   4.773   0.835
 5213W        W76829   2.817   9.940  12.385
 5214W        W76830  11.624  21.219  11.188
 5215W        W76831  15.635   8.213  10.751
 5216W        W76832  34.653   0.445   2.428
 5217W        W76833  40.838  16.233  13.138
 5218W        W76834  13.374  11.138  13.269
 5219W        W76835   1.693  19.073   4.076
 5220W        W76836  43.861  24.903   2.769
 5221W        W76837  23.468  33.966   0.698
 5222W        W76838  43.924  32.071  13.410
 5223W        W76839   9.199  26.316   3.117
 5224W        W76840  37.299  41.407   3.543
 5225W        W76841  32.288  21.448   4.774
 5226W        W76842   8.200  10.416   1.915
 5227W        W76843   5.256  28.121  11.183
 5228W        W76844  38.174  37.053   2.718
 5229W        W76845  21.569  13.433   1.200
 5230W        W76846  42.501  39.811  14.655
 5231W        W76847  17.621  42.879  10.623
 5232W        W76848   3.553  10.873   1.951
 5233W        W76849  32.469  41.892   0.813
 5234W        W76850  19.686  37.477   3.344
 5235W        W76851  18.560  20.926  10.360
 5236W        W76852   8.207  42.996  12.480
 5237W        W76853   2.824  13.267   1.277
 5238W        W76854   9.471  19.826   1.819
 5239W        W76855  40.558  17.380   1.351
 5240W        W76856  31.221  38.372   0.210
 5241W        W76857  12.063  18.218  13.077
 5242W        W76858  13.396  27.205   2.270
 5243W        W76859  15.358  29.630  13.317
 5244W        W76860  40.390   1.649   0.895
 5245W        W76861  27.983  22.979  12.798
 5246W        W76862  13.143  15.049   0.246
 5247W        W76863  25.907  12.472  12.600
 5248W        W76864   6.121  14.257  11.667
 5249W        W76865   6.614   9.955  14.030
 5250W        W76866   3.779  44.928  11.061
 5251W        W76867  40.869   5.163  12.088
 5252W        W76868  19.916  20.112   4.583
 5253W        W76869  23.766   2.985   1.029
 5254W        W76870  44.458   4.675   2.843
 5255W        W76871   2.687   1.939   0.411
 5256W        W76872   5.363  14.669   1.620
 5257W        W76873  33.562  35.664   1.956
 5258W        W76874  13.856  12.827   1.327
 5259W        W76875   0.326  30.958   3.650
 5260W        W76876  41.525  17.721   4.388
 5261W        W76877  41.567  32.501  14.358
 5262W        W76878  40.928  38.925   0.488
 5263W        W76879   7.514   1.038  11.014
 5264W        W76880  22.548  30.125  10.733
 5265W        W76881   5.201  15.306   1.432
 5266W        W76882  28.167  26.455   5.199
 5267W        W76883  22.573  37.560   0.309
 5268W        W76884  35.796  19.750   2.308
 5269W        W76885  15.556  35.688  13.416
 5270W        W76886  11.158  23.446  14.329
 5271W        W76887   5.263  41.751  13.770
 5272W        W76888  27.913  34.373  14.041
 5273W        W76889   7.367   7.837  11.949
 5274W        W76890  16.796   9.452  12.434
 5275W        W76891  10.705  37.785  11.318
 5276W        W76892  42.928   5.292   0.525
 5277W        W76893  33.612  20.507   4.383
 5278W        W76894  29.347  40.026  12.084
 5279W        W76895   4.711   8.142  13.932
 5280W        W76896  23.441   8.227   1.859
 5281W        W76897  14.431  27.985   3.240
 5282W        W76898  34.533  29.569   4.397
 5283W        W76899   1.173   8.520  13.895
 5284W        W76900   4.469  10.808  13.030
 5285W        W76901  13.784  31.896   0.128
 5286W        W76902   5.222  18.202  12.205
 5287W        W76903  24.781  27.363   3.339
 5288W        W76904  28.782   6.809  11.109
 5289W        W76905   8.084  17.744  13.825
 5290W        W76906   1.018   8.640   1.717
 5291W        W76907   9.438  12.583   2.298
 5292W        W76908   9.775  21.742  11.065
 5293W        W76909  36.182  29.445   3.663
 5294W        W76910  10.505  42.975   4.082
 5295W        W76911  44.717  36.189  14.276
 5296W        W76912  27.442  36.853   3.932
 5297W        W76913  22.697  24.208  12.875
 5298W        W76914  19.121  26.725   2.222
 5299W        W76915  11.263   6.778   2.811
 5300W        W76916   2.513  10.851  13.438
 5301W        W76917  10.672  37.185   2.280
 5302W        W76918  42.807  37.076   4.082
 5303W        W76919  19.244  42.060  14.237
 5304W        W76920  17.903  44.408  12.821
 5305W        W76921  14.223  33.761   1.874
 5306W        W76922  40.804  11.438   0.321
 5307W        W76923   9.435  11.248   4.037
 5308W        W76924  40.574  27.953  14.336
 5309W        W76925  19.181   3.776   0.324
 5310W        W76926  24.132  20.062  13.159
 5311W        W76927  21.148  25.897   2.784
 5312W        W76928  25.666  13.567   1.799
 5313W        W76929  31.822  36.074   0.420
 5314W        W76930  18.273   3.001   1.849
 5315W        W76931  28.142  14.573   3.606
 5316W        W76932  11.846  44.390  10.246
 5317W        W76933  11.197   7.376   4.609
 5318W        W76934  24.078  41.966  11.587
 5319W        W76935   2.306  37.446  10.840
 5320W        W76936   2.236   0.916  11.074
 5321W        W76937   2.190  12.306  14.517
 5322W        W76938  13.634  41.295   2.626
 5323W        W76939   0.689  34.344  13.452
 5324W        W76940   5.485   4.911  12.442
 5325W        W76941  15.372  18.192   3.270
 5326W        W76942  25.698  14.229  13.370
 5327W        W76943  37.967  39.288   2.720
 5328W        W76944  44.916  21.761  12.394
 5329W        W76945  41.511  33.451  11.072
 5330W        W76946  18.319  41.122  14.153
 5331W        W76947  31.965   4.699   2.790
 5332W        W76948   6.751  15.409  14.072
 5333W        W76949  33.803   6.311  11.230
 5334W        W76950  31.075  11.747   3.415
 5335W        W76951  25.109   5.958   3.685
 5336W        W76952  44.526   8.420  11.671
 5337W        W76953  10.324   6.778  12.904
 5338W        W76954  39.133  33.478   1.463
 5339W        W76955  13.705  18.263   4.185
 5340W        W76956  24.584  26.271  12.602
 5341W        W76957  22.625  20.281  14.307
 5342W        W76958  37.900  42.733  11.432
 5343W        W76959  11.671  44.310   4.382
 5344W        W76960  12.585  42.516  12.185
 5345W        W76961  15.191   6.428   3.655
 5346W        W76962  35.553  18.839  11.968
 5347W        W76963  35.388  15.219  14.246
 5348W        W76964  30.473  31.177  11.021
 5349W        W76965   1.916  12.572   3.545
 5350W        W76966   1.431  28.236   0.251
 5351W        W76967  14.663   8.264  13.846
 5352W        W76968  28.932  42.386   0.215
 5353W        W76969  34.688  22.565  14.366
 5354W        W76970  21.475  31.558  10.713
 5355W        W76971   4.932  14.466  14.477
 5356W        W76972  16.353  10.505   0.370
 5357W        W76973  25.871  15.302  11.569
 5358W        W76974   3.278  20.147  11.550
 5359W        W76975  28.055  41.515  14.286
 5360W        W76976  37.121  13.387   9.867
 5361W        W76977  38.102  19.480   2.962
 5362W        W76978  20.592  34.965  12.998
 5363W        W76979  19.246   6.839  13.621
 5364W        W76980  40.964  35.544  14.979
 5365W        W76981   7.604  19.447   0.374
 5366W        W76982   9.638   3.944   4.726
 5367W        W76983  14.404  13.690  14.820
 5368W        W76984  34.635  23.865  11.558
 5369W        W76985  39.833  29.866   0.998
 5370W        W76986  31.205  31.334   1.308
 5371W        W76987  23.724  30.162  12.582
 5372W        W76988  11.236   3.028  11.545
 5373W        W76989  19.161  18.166   4.206
 5374W        W76990  31.548   6.411   1.432
 5375W        W76991  25.204  23.084   2.594
 5376W        W76992  18.071   0.456  14.916
 5377W        W76993  25.193  11.325  11.955
 5378W        W76994  42.916   6.862  11.322
 5379W        W76995  25.050  29.661   5.008
 5380W        W76996  22.993   8.446   4.198
 5381W        W76997  32.807  39.955   3.884
 5382W        W76998  35.315  39.857  13.457
 5383W        W76999  31.140  17.966  12.818
 5384W        W77000   5.459   6.865  13.962
 5385W        W77001  41.062  20.661  10.684
 5386W        W77002  10.096  38.803   3.883
 5387W        W77003  30.318  35.880  12.894
 5388W        W77004  42.375  29.559   3.697
 5389W        W77005   2.459  12.903  12.039
 5390W        W77006   7.956   4.397  14.645
 5391W        W77007  11.488  40.328   1.297
 5392W        W77008  12.221  32.909  10.665
 5393W        W77009  32.327  29.991   2.788
 5394W        W77010  10.826  28.204  12.112
 5395W        W77011  41.518  17.680  12.271
 5396W        W77012  27.287  39.017   0.677
 5397W        W77013  20.743   3.288  10.684
 5398W        W77014  28.302  18.562   4.986
 5399W        W77015  29.729  21.847   4.121
 5400W        W77016  42.815  34.856  13.472
 5401W        W77017  24.202  16.347  11.667
 5402W        W77018   4.400   6.672   2.709
 5403W        W77019  28.209  40.603   3.343
 5404W        W77020  15.693   9.940  11.077
 5405W        W77021   7.323  32.432   3.845
 5406W        W77022  41.931  13.849  13.909
 5407W        W77023   7.319  25.035   4.605
 5408W        W77024  23.384  27.416   1.765
 5409W        W77025  10.187  42.037  12.082
 5410W        W77026  42.545  37.403   2.912
 5411W        W77027  36.407   4.744   3.201
 5412W        W77028   8.156   6.370   0.737
 5413W        W77029  26.559  44.650   0.288
 5414W        W77030  20.018  12.937  12.003
 5415W        W77031  14.138  24.433  10.968
 5416W        W77032  11.281  13.386  12.325
 5417W        W77033  23.152  16.033  10.871
 5418W        W77034  43.278   2.875   0.513
 5419W        W77035   4.901  43.468   3.329
 5420W        W77036  37.409   8.888   3.366
 5421W        W77037  36.857   8.906   0.821
 5422W        W77038  10.404  36.792   1.399
 5423W        W77039  44.441  11.239  11.053
 5424W        W77040  30.993  12.760  10.645
 5425W        W77041  19.040  36.438  13.451
 5426W        W77042  13.424  38.832  10.657
 5427W        W77043  42.684   4.960   1.992
 5428W        W77044   0.886  20.321  13.150
 5429W        W77045   7.531  14.279  12.971
 5430W        W77046  22.012  14.496   0.162
 5431W        W77047  21.580  17.112  10.792
 5432W        W77048  23.971  34.199  13.816
 5433W        W77049   2.897  14.574   3.842
 5434W        W77050  30.974  14.574  11.592
 5435W        W77051  40.511   0.511  11.571
 5436W        W77052  23.703   8.315   2.324
 5437W        W77053   0.038  17.798  12.715
 5438W        W77054  30.970   2.198   2.903
 5439W        W77055  43.080  18.298   1.530
 5440W        W77056  39.451  22.178   3.645
 5441W        W77057  21.773  24.139  12.956
 5442W        W77058  14.257   6.920   4.580
 5443W        W77059  40.453  17.832   1.011
 5444W        W77060  23.543   2.517  12.655
 5445W        W77061  26.654  36.821  14.021
 5446W        W77062   4.727   6.626  12.144
 5447W        W77063  19.777  10.358  12.368
 5448W        W77064  27.968  12.828   0.393
 5449W        W77065   1.912  26.063   3.573
 5450W        W77066  34.024  27.914  11.556
 5451W        W77067  19.458  12.273  13.927
 5452W        W77068  28.437  13.034   4.886
 5453W        W77069  30.029  19.533  12.993
 5454W        W77070  11.835  31.844  10.254
 5455W        W77071  41.946  31.072   4.166
 5456W        W77072   0.461   2.967  13.713
 5457W        W77073  31.486  30.452   9.639
 5458W        W77074   7.713   9.863  13.056
 5459W        W77075  43.974  41.931   1.219
 5460W        W77076  28.003  44.761   3.645
 5461W        W77077   8.184  40.617  10.920
 5462W        W77078  10.366  35.963   1.326
 5463W        W77079  44.791  43.560  14.440
 5464W        W77080  11.653  26.186  13.930
 5465W        W77081  26.118  34.194  11.180
 5466W        W77082  21.362  43.580  12.631
 5467W        W77083  15.502  20.429   4.952
 5468W        W77084  10.232  14.562   1.754
 5469W        W77085   0.534  34.713  12.123
 5470W        W77086   7.857  36.414  11.539
 5471W        W77087   0.946  41.009   3.615
 5472W        W77088   7.405  20.203  10.696
 5473W        W77089  26.177  14.540  10.427
 5474W        W77090  24.889   4.132  14.964
 5475W        W77091  31.680   4.178  12.533
 5476W        W77092  42.133  25.764   1.189
 5477W        W77093  23.626  41.467   3.756
 5478W        W77094  15.091  34.939  13.108
 5479W        W77095  11.774  35.874  13.467
 5480W        W77096  34.852  38.794  13.969
 5481W        W77097  16.145  11.637  11.689
 5482W        W77098  29.062  30.646  10.920
 5483W        W77099   4.237  16.747   2.277
 5484W        W77100  42.112  12.226  14.846
 5485W        W77101  16.634  30.098  13.371
 5486W        W77102  26.593  27.478   0.872
 5487W        W77103  20.237  42.987  13.371
 5488W        W77104   6.287  16.183   0.016
 5489W        W77105  24.250  26.840  11.564
 5490W        W77106  34.135  22.532  11.279
 5491W        W77107  35.980  35.580  12.957
 5492W        W77108   8.238  30.442   2.015
 5493W        W77109  20.758  27.249  12.890
 5494W        W77110  31.971  44.067   3.689
 5495W        W77111  34.105  38.917  12.556
 5496W        W77112  41.329  24.651   2.722
 5497W        W77113  27.671  11.700  11.134
 5498W        W77114  12.172  20.212   3.683
 5499W        W77115  43.469  13.262   1.555
 5500W        W77116  27.639  44.183  10.414
 5501W        W77117  23.698  33.566  14.910
 5502W        W77118  21.182  37.912   2.803
 5503W        W77119  20.536   0.659  11.574
 5504W        W77120  35.146  30.172  10.780
 5505W        W77121  19.225   0.451   2.757
 5506W        W77122  14.893  18.279  12.909
 5507W        W77123   2.305  30.542   1.407
 5508W        W77124  36.962  12.213  11.590
 5509W        W77125  37.381  26.083  14.050
 5510W        W77126  32.901   1.546   3.798
 5511W        W77127  15.231  42.256   0.891
 5512W        W77128   0.291  39.881  11.110
 5513W        W77129  12.602  44.341   1.455
 5514W        W77130  25.261  43.082   0.715
 5515W        W77131  30.916  19.259  11.894
 5516W        W77132  37.589   1.976  14.604
 5517W        W77133  42.991  42.497  11.919
 5518W        W77134  38.312  21.904  14.089
 5519W        W77135  21.638  28.670  14.723
 5520W        W77136  16.212  20.797  11.882
 5521W        W77137  36.003  19.354   3.680
 5522W        W77138  38.511  10.263  11.232
 5523W        W77139  33.018  35.851  14.837
 5524W        W77140   2.295   8.263  14.548
 5525W        W77141  20.502  22.109  12.911
 5526W        W77142  10.377  44.320   0.729
 5527W        W77143  18.740  37.581   1.073
 5528W        W77144   1.942  17.124  12.470
 5529W        W77145  37.625  26.406   2.046
 5530W        W77146  43.546  31.739  11.855
 5531W        W77147  31.086   0.895   0.472
 5532W        W77148  13.465  30.658   2.211
 5533W        W77149  26.834  28.095   4.239
 5534W        W77150   7.878   5.830   3.088
 5535W        W77151  42.516  13.149   3.249
 5536W        W77152  29.680  28.522  12.093
 5537W        W77153   6.892  36.455   4.156
 5538W        W77154  24.569   8.625  11.076
 5539W        W77155  10.106  25.745   4.595
 5540W        W77156  39.972  34.699  14.215
 5541W        W77157  15.550  28.130  11.215
 5542W        W77158  13.883   1.423   2.338
 5543W        W77159  29.650  17.703   1.488
 5544W        W77160  18.740  35.659  11.898
 5545W        W77161   4.177  20.589   1.881
 5546W        W77162  13.570   6.926  12.120
 5547W        W77163  15.520  11.709   2.144
 5548W        W77164  24.183  34.790  14.423
 5549W        W77165  20.237   7.473   0.484
 5550W        W77166   6.290  42.784  11.622
 5551W        W77167  25.751  23.521  13.816
 5552W        W77168  18.308   5.497  11.085
 5553W        W77169  34.628  42.742   3.604
 5554W        W77170  11.510  41.687   1.404
 5555W        W77171  36.138  19.826   2.695
 5556W        W77172  11.131  23.096   2.607
 5557W        W77173  35.457  22.471  13.315
 5558W        W77174  16.750   3.838  13.545
 5559W        W77175   4.391  36.260  13.897
 5560W        W77176  44.954  18.864  10.865
 5561W        W77177  38.065  31.209  13.148
 5562W        W77178   1.943  15.218  10.764
 5563W        W77179  27.242   8.614  14.055
 5564W        W77180  33.727  35.635   5.133
 5565W        W77181   6.659  28.949   2.843
 5566W        W77182  34.412  26.192  14.948
 5567W        W77183  23.451  16.567  12.885
 5568W        W77184  42.083  19.708  10.360
 5569W        W77185  31.722   9.815   3.818
 5570W        W77186  34.340  12.383   1.821
 5571W        W77187   4.774  36.883   1.800
 5572W        W77188  28.089  35.965   3.236
 5573W        W77189  22.856   0.971  13.858
 5574W        W77190  26.591  43.979  13.786
 5575W        W77191   4.194  43.729   1.283
 5576W        W77192   1.599   1.713  12.106
 5577W        W77193  22.680   0.421   1.416
 5578W        W77194  22.534  22.201   2.360
 5579W        W77195  37.776   2.713   1.811
 5580W        W77196   2.502  37.923  10.752
 5581W        W77197  22.508  27.028  12.531
 5582W        W77198  39.648  33.913   4.246
 5583W        W77199  36.379   4.682  10.257
 5584W        W77200  21.920  21.764  11.795
 5585W        W77201  21.240  18.508   3.373
 5586W        W77202   6.573  31.038  11.902
 5587W        W77203  17.008  40.759  12.967
 5588W        W77204  20.514  28.319  12.644
 5589W        W77205  43.048  23.551  12.911
 5590W        W77206   4.890  34.068  14.370
 5591W        W77207  12.878  42.455  10.775
 5592W        W77208   1.282   3.154   3.853
 5593W        W77209  26.879  27.532  12.021
 5594W        W77210  36.877  35.858  11.524
 5595W        W77211  17.992   9.734   4.354
 5596W        W77212  14.255  17.992  11.519
 5597W        W77213  10.758  19.083   3.841
 5598W        W77214  14.620  15.334  10.583
 5599W        W77215  11.928  34.592  12.471
 5600W        W77216   2.316  44.341   4.275
 5601W        W77217  41.225  18.844  13.287
 5602W        W77218  36.296   8.289  13.586
 5603W        W77219  22.069  38.550   4.593
 5604W        W77220   0.656  20.252   0.920
 5605W        W77221  14.069   3.150   1.662
 5606W        W77222  17.895  12.264   4.817
 5607W        W77223  13.103  38.490  12.428
 5608W        W77224  12.186  25.167  10.664
 5609W        W77225  18.521  24.695  14.831
 5610W        W77226  37.457   9.925   3.327
 5611W        W77227  14.162  12.169   2.203
 5612W        W77228   7.357  44.799   3.288
 5613W        W77229  13.605  10.574   3.937
 5614W        W77230  43.118   8.157   0.931
 5615W        W77231   3.156   6.427  14.771
 5616W        W77232  39.563  24.314   0.255
 5617W        W77233  41.110  12.179  14.946
 5618W        W77234  26.974  22.975  14.943
 5619W        W77235  43.482  35.091  14.968
 5620W        W77236  11.023  11.953  11.611
 5621W        W77237  29.626  19.574   1.469
 5622W        W77238  43.381  32.212   2.213
 5623W        W77239  31.644   5.192  13.445
 5624W        W77240  20.578   9.167  10.715
 5625W        W77241  30.385  34.371  14.363
 5626W        W77242  19.279   3.772   2.176
 5627W        W77243  39.995  15.619   2.195
 5628W        W77244   2.970   1.795  10.538
 5629W        W77245  19.718  12.933   1.343
 5630W        W77246  27.895  23.762  14.877
 5631W        W77247  12.725   9.440   0.521
 5632W        W77248  38.261   1.713  14.062
 5633W        W77249  13.876   8.857   2.567
 5634W        W77250  41.033  23.526   2.958
 5635W        W77251  13.508  26.703   0.658
 5636W        W77252  24.959  37.064   1.840
 5637W        W77253  39.885   4.702   2.127
 5638W        W77254  26.618  17.311  10.958
 5639W        W77255  44.292   8.666   4.144
 5640W        W77256  26.883  14.342   0.089
 5641W        W77257   0.879  12.854   0.730
 5642W        W77258  24.684  30.700  11.782
 5643W        W77259  40.288   8.385   3.842
 5644W        W77260  43.454  14.401  12.629
 5645W        W77261  28.230  40.984   2.676
 5646W        W77262  40.791  15.777  10.676
 5647W        W77263  25.051   0.407   4.573
 5648W        W77264   9.906   8.847  10.709
 5649W        W77265  40.249  22.267   2.269
 5650W        W77266  12.067  25.603   2.392
 5651W        W77267  28.675  42.836   3.074
 5652W        W77268  22.661  27.178  13.603
 5653W        W77269  26.680  31.639  11.136
 5654W        W77270  10.916   4.696   1.771
 5655W        W77271  12.316  33.871   1.271
 5656W        W77272  41.484   6.132  14.801
 5657W        W77273  15.521   5.491   0.835
 5658W        W77274  30.001  14.999   4.199
 5659W        W77275  43.368   7.455   2.259
 5660W        W77276  43.719  25.234  11.914
 5661W        W77277  20.084  44.856   2.099
 5662W        W77278  25.619  17.735  14.747
 5663W        W77279  34.853  35.336   2.603
 5664W        W77280   2.547  20.729  12.390
 5665W        W77281  38.030   8.619   2.605
 5666W        W77282  16.603  23.044   1.660
 5667W        W77283  16.170  25.196   3.632
 5668W        W77284  23.287  28.603  13.793
 5669W        W77285   6.235  44.868  10.607
 5670W        W77286  16.080  17.329   2.155
 5671W        W77287  24.552   8.655  14.351
 5672W        W77288   3.498   9.468  14.055
 5673W        W77289  26.059  30.704  12.908
 5674W        W77290  12.193  25.489   2.871
 5675W        W77291  11.769   6.731  12.940
 5676W        W77292  44.031   8.120   2.824
 5677W        W77293  15.040  36.100  14.794
 5678W        W77294   8.592  33.387  11.077
 5679W        W77295  28.524  24.018   3.430
 5680W        W77296   3.986  10.104   2.204
 5681W        W77297  22.122  23.590   4.760
 5682W        W77298  18.596  40.938   4.828
 5683W        W77299  28.412  40.514  14.482
 5684W        W77300   8.136  35.370  11.134
 5685W        W77301   5.570   5.950  14.441
 5686W        W77302  32.961  18.780   4.664
 5687W        W77303   8.339  33.497   4.059
 5688W        W77304  41.282  17.570  13.285
 5689W        W77305  39.561  28.548  10.862
 5690W        W77306  10.289  43.714   0.085
 5691W        W77307   3.492   2.712  10.793
 5692W        W77308  19.348  23.504   2.790
 5693W        W77309  15.665  18.584  14.912
 5694W        W77310  22.212  30.669   2.314
 5695W        W77311   3.869  34.025   0.777
 5696W        W77312  17.055  22.504  12.436
 5697W        W77313  44.762   4.170  12.300
 5698W        W77314   9.772   2.490   3.786
 5699W        W77315  40.121  11.990   2.272
 5700W        W77316  14.294  41.750  10.789
 5701W        W77317  25.512  15.363   2.414
 5702W        W77318  15.536  42.752   0.781
 5703W        W77319   6.387  39.831  11.654
 5704W        W77320  15.189  29.000   4.221
 5705W        W77321   3.247  22.607   5.002
 5706W        W77322  20.708  24.809  14.291
 5707W        W77323  19.452  41.070   0.302
 5708W        W77324  38.731   1.501   1.245
 5709W        W77325  39.012  44.331  13.024
 5710W        W77326  25.687  17.197  11.145
 5711W        W77327   9.972  10.110   0.927
 5712W        W77328  33.619   2.407  11.191
 5713W        W77329   5.662   7.733   3.208
 5714W        W77330  34.004  28.475   1.113
 5715W        W77331  31.914  10.730   0.310
 5716W        W77332  16.106  39.019   3.679
 5717W        W77333  36.071   2.505   3.794
 5718W        W77334  25.662  15.057   4.620
 5719W        W77335  12.838   4.962  11.560
 5720W        W77336   6.784  42.017   2.671
 5721W        W77337   9.208  16.359  11.091
 5722W        W77338  44.687  11.195   4.685
 5723W        W77339  20.638   9.375  13.369
 5724W        W77340   7.317  15.722   1.166
 5725W        W77341  11.176  10.732   3.133
 5726W        W77342  38.401  35.328  10.687
 5727W        W77343   9.793  13.158  10.743
 5728W        W77344  29.961  30.505   4.704
 5729W        W77345  44.658  10.764   0.988
 5730W        W77346   7.186  31.434   2.639
 5731W        W77347  17.811  21.749   0.269
 5732W        W77348  38.824  31.911   0.862
 5733W        W77349  13.643  25.401   0.331
 5734W        W77350  40.538  36.766   1.369
 5735W        W77351   0.465  33.492  12.943
 5736W        W77352  43.498  42.783  14.896
 5737W        W77353  27.246  32.098  13.591
 5738W        W77354  15.354   8.899   0.967
 5739W        W77355  34.968  19.633   1.961
 5740W        W77356  24.185  40.986  12.456
 5741W        W77357  42.354  21.417  11.464
 5742W        W77358   1.513  34.941  14.875
 5743W        W77359   1.175  22.763   4.071
 5744W        W77360   1.459   5.510   2.383
 5745W        W77361  21.107  36.491   4.246
 5746W        W77362  35.142  22.135  10.803
 5747W        W77363  18.206   7.400  11.502
 5748W        W77364   0.575  41.488  14.822
 5749W        W77365  17.194  38.974  14.778
 5750W        W77366  34.735  39.127  14.407
 5751W        W77367  43.854  29.700   3.084
 5752W        W77368  34.554  17.104  14.851
 5753W        W77369  16.882   1.786   0.729
 5754W        W77370  20.486  23.674   0.312
 5755W        W77371   3.033  42.049  13.461
 5756W        W77372   7.742  21.845  11.792
 5757W        W77373  33.067  42.824  14.480
 5758W        W77374  17.684  25.409   1.076
 5759W        W77375   5.720   2.264   4.497
 5760W        W77376  36.363  42.811   0.413
 5761W        W77377  42.600   1.951   2.900
 5762W        W77378   0.290   8.391   1.738
 5763W        W77379  35.911   3.220  12.376
 5764W        W77380  17.047   8.729  14.925
 5765W        W77381  28.526  10.354   1.917
 5766W        W77382  27.905   9.561  14.981
 5767W        W77383  34.473  42.046   1.766
 5768W        W77384  41.297   0.779   0.569
 5769W        W77385  31.951  14.112  11.638
 5770W        W77386  38.512  19.454   1.632
 5771W        W77387  20.058  39.145  12.666
 5772W        W77388  34.109   2.015   1.422
 5773W        W77389  10.430  21.602   3.682
 5774W        W77390  41.051   5.648   0.479
 5775W        W77391  42.945  38.317   2.608
 5776W        W77392   8.421  14.862  11.075
 5777W        W77393   7.123  25.366   3.212
 5778W        W77394  39.341  22.029  10.636
 5779W        W77395  42.399  40.856  11.700
 5780W        W77396   9.341  38.313   1.326
 5781W        W77397  16.757   3.775   1.721
 5782W        W77398  35.524  28.669  10.524
 5783W        W77399  22.111  42.473   1.295
 5784W        W77400   8.330  40.311  12.433
 5785W        W77401  13.203  12.804   1.207
 5786W        W77402  13.392   6.142   3.131
 5787W        W77403  42.013  13.641   4.361
 5788W        W77404  22.462  10.098   1.379
 5789W        W77405  33.945  31.014   1.800
 5790W        W77406  13.068  19.291  14.342
 5791W        W77407  34.894  26.440   4.993
 5792W        W77408  16.996  16.296   2.339
 5793W        W77409  36.558   0.677   2.659
 5794W        W77410  43.904  40.860   2.337
 5795W        W77411  36.235  10.391  10.268
 5796W        W77412  12.694  12.986   2.365
 5797W        W77413   9.342   7.432   2.121
 5798W        W77414  11.716  18.776  11.562
 5799W        W77415   7.672  43.290   3.283
 5800W        W77416  23.830  14.365   1.926
 5801W        W77417  21.064  30.015   4.061
 5802W        W77418  33.926  12.856  12.932
 5803W        W77419  17.515  43.290   1.262
 5804W        W77420  29.407   6.921  12.037
 5805W        W77421   6.391  35.060  10.692
 5806W        W77422  10.123  14.735  13.729
 5807W        W77423  42.086  28.202  11.047
 5808W        W77424  41.819  36.649   5.033
 5809W        W77425  29.092  12.193   1.760
 5810W        W77426  20.506  15.369   2.371
 5811W        W77427  24.099  13.063  12.540
 5812W        W77428  43.027  26.420  13.360
 5813W        W77429  20.158  25.008  12.903
 5814W        W77430  14.562  24.769   1.102
 5815W        W77431  32.713   0.218   2.478
 5816W        W77432   4.427   8.313   3.145
 5817W        W77433  27.683  20.602  13.776
 5818W        W77434   8.299  22.020   0.729
 5819W        W77435  38.903  13.793   2.806
 5820W        W77436  19.033  42.818  12.797
 5821W        W77437  20.028  41.446   1.053
 5822W        W77438  39.037  34.889   3.721
 5823W        W77439  19.247  31.927  11.800
 5824W        W77440  44.303  42.946   1.720
 5825W        W77441  28.057  25.020   1.571
 5826W        W77442  29.095  32.970   3.105
 5827W        W77443  22.679  36.820  13.029
 5828W        W77444   1.290  17.742   4.310
 5829W        W77445   9.298  32.818   1.882
 5830W        W77446  20.593  18.217  12.926
 5831W        W77447  15.729  29.363  12.069
 5832W        W77448  15.609   2.764  11.195
 5833W        W77449  42.520  26.072   4.590
 5834W        W77450  22.173  35.149  14.996
 5835W        W77451  42.592  43.025   4.320
 5836W        W77452  43.479  22.608   4.685
 5837W        W77453  42.022  25.042   3.729
 5838W        W77454  16.225  19.501  14.075
 5839W        W77455  26.401   3.303   2.405
 5840W        W77456   7.336  35.120   3.396
 5841W        W77457  16.235  12.114  10.992
 5842W        W77458  27.099  12.866  11.168
 5843W        W77459  13.338  23.991  12.510
 5844W        W77460  42.281  33.867   2.285
 5845W        W77461  41.960  22.566   3.850
 5846W        W77462  22.770  24.884  13.918
 5847W        W77463  15.800  15.681   4.636
 5848W        W77464  41.108  31.940   0.822
 5849W        W77465  33.859  31.945  14.343
 5850W        W77466  19.480   2.925   4.613
 5851W        W77467   5.439  28.938   4.446
 5852W        W77468  18.796  17.584   4.100
 5853W        W77469  12.665  36.071   0.950
 5854W        W77470  11.244  10.763  10.763
 5855W        W77471  14.653  33.466   1.826
 5856W        W77472  40.736  37.648  10.706
 5857W        W77473  27.009   3.282   1.209
 5858W        W77474  32.219  19.513  12.051
 5859W        W77475  40.492  10.692  13.784
 5860W        W77476  33.568  41.315   0.792
 5861W        W77477   6.168   5.483  12.496
 5862W        W77478  13.178   8.142   3.216
 5863W        W77479   2.343   0.446  14.551
 5864W        W77480  24.168  37.300   0.867
 5865W        W77481  40.577  14.217  13.826
 5866W        W77482  26.108  40.123   1.926
 5867W        W77483  41.514   0.691  12.933
 5868W        W77484  18.649  13.178  11.994
 5869W        W77485  18.568   5.750   4.492
 5870W        W77486  17.898  13.181   2.469
 5871W        W77487  30.947   9.367  11.173
 5872W        W77488  39.330   7.197   0.025
 5873W        W77489  30.295  28.448  10.217
 5874W        W77490  37.097   8.849  14.283
 5875W        W77491  27.596  26.016   2.583
 5876W        W77492  34.836  27.661  11.052
 5877W        W77493   9.348   0.911   1.250
 5878W        W77494  27.839  36.399  11.592
 5879W        W77495  37.629  36.894   0.552
 5880W        W77496   4.153   2.209  13.489
 5881W        W77497  29.031   2.468   2.408
 5882W        W77498  12.890  20.678   3.608
 5883W        W77499  37.473  31.143   2.035
 5884W        W77500  34.414  40.506  12.905
 5885W        W77501  29.417   8.940  11.287
 5886W        W77502  41.131  34.345  13.732
 5887W        W77503  37.976  41.239   2.732
 5888W        W77504  43.246  25.165  12.173
 5889W        W77505   7.235  21.764   4.176
 5890W        W77506  26.697  10.730  12.677
 5891W        W77507  18.622  29.203   4.615
 5892W        W77508   9.611  40.349   3.316
 5893W        W77509  41.661   6.918  13.878
 5894W        W77510  42.154  35.057  13.036
 5895W        W77511  20.341  25.772   0.975
 5896W        W77512  33.082  40.567  11.086
 5897W        W77513   0.084   7.566  14.955
 5898W        W77514  19.085  34.489   2.266
 5899W        W77515  19.543  32.287  11.580
 5900W        W77516  38.376   6.767   2.547
 5901W        W77517  39.916  13.782   0.968
 5902W        W77518   1.285   2.769  12.588
 5903W        W77519  38.622  35.965   2.416
 5904W        W77520   4.268  42.551  10.653
 5905W        W77521  31.986  12.788   4.391
 5906W        W77522  41.413  24.615  12.604
 5907W        W77523  24.725  17.563   2.482
 5908W        W77524   6.604  32.501  12.240
 5909W        W77525   1.350  11.859   4.258
 5910W        W77526  11.383  40.888   3.321
 5911W        W77527  19.046   1.177  12.822
 5912W        W77528   6.089  15.270  12.166
 5913W        W77529  11.289  43.202   4.874
 5914W        W77530   4.891  42.571  14.847
 5915W        W77531  35.971  21.213  11.060
 5916W        W77532  32.974  34.629  10.978
 5917W        W77533  40.637   6.178  11.150
 5918W        W77534  18.636  35.482   0.866
 5919W        W77535   0.412  10.234   9.978
 5920W        W77536   5.782  35.553   4.406
 5921W        W77537  31.678  36.390  14.991
 5922W        W77538  25.748  20.542   1.288
 5923W        W77539  37.823   1.911  11.774
 5924W        W77540  20.263  16.042   1.153
 5925W        W77541   7.376  28.129   2.930
 5926W        W77542   6.348   9.971   4.088
 5927W        W77543  19.215  33.214   2.811
 5928W        W77544  13.683  15.257   0.458
 5929W        W77545  15.228  33.356  12.218
 5930W        W77546  11.276   3.517  14.116
 5931W        W77547  42.340  19.826  14.352
 5932W        W77548  12.198  24.094   4.585
 5933W        W77549  34.336  40.350   1.390
 5934W        W77550  39.364  17.109   4.242
 5935W        W77551  17.197  29.135  14.429
 5936W        W77552  32.295   1.440   4.894
 5937W        W77553  38.787   2.303  14.410
 5938W        W77554  34.822  35.690  12.046
 5939W        W77555  43.321   9.083  14.979
 5940W        W77556   7.398  34.289   2.815
 5941W        W77557  33.508   1.487  10.753
 5942W        W77558  30.479  13.782  12.761
 5943W        W77559   0.986   1.591   4.058
 5944W        W77560  18.033  19.514   0.795
 5945W        W77561   8.269  40.799   0.776
 5946W        W77562  31.090  32.615  11.548
 5947W        W77563   5.721  29.863   0.859
 5948W        W77564  37.827   0.208   3.740
 5949W        W77565   0.449  37.510  13.390
 5950W        W77566   1.751  34.976   2.550
 5951W        W77567  26.413   5.727  14.900
 5952W        W77568  13.196  24.479   1.142
 5953W        W77569   4.431   9.931  13.051
 5954W        W77570  30.632  11.623  12.515
 5955W        W77571  12.428  39.499   1.406
 5956W        W77572  23.559  39.463   3.747
 5957W        W77573  24.161  40.407  13.089
 5958W        W77574   4.366   9.811   4.273
 5959W        W77575  36.278   5.250   0.834
 5960W        W77576  36.505  43.876  13.592
 5961W        W77577  16.798  13.582  12.270
 5962W        W77578  43.729   7.473  13.552
 5963W        W77579  33.864  32.164  10.932
 5964W        W77580  23.447   1.424   4.201
 5965W        W77581  24.640   0.998  12.906
 5966W        W77582   7.097  24.662  13.301
 5967W        W77583  12.669  11.441  10.720
 5968W        W77584   1.904  24.113  11.202
 5969W        W77585   7.340  30.282   0.595
 5970W        W77586  36.283   6.877  11.177
 5971W        W77587  17.268  27.045  14.457
 5972W        W77588  19.332  14.583   1.292
 5973W        W77589  32.601  28.548  12.043
 5974W        W77590  31.623  14.699   2.789
 5975W        W77591   7.936  40.928  14.528
 5976W        W77592  43.821   2.893  13.781
 5977W        W77593  32.184  25.560   2.568
 5978W        W77594  25.676   4.208   4.967
 5979W        W77595  17.990  17.714   0.915
 5980W        W77596  16.217  29.138  13.097
 5981W        W77597  29.116  35.544  14.498
 5982W        W77598  28.376  34.899  11.507
 5983W        W77599  14.318   3.739   9.686
 5984W        W77600  31.724  37.028   2.246
 5985W        W77601   2.591  24.001  10.691
 5986W        W77602   6.126  44.256  14.370
 5987W        W77603  42.468  38.544   9.765
 5988W        W77604  20.184   3.626   0.325
 5989W        W77605   8.792  43.059   4.513
 5990W        W77606  32.024  38.527  14.064
 5991W        W77607   8.300  43.852   0.362
 5992W        W77608  20.102  38.340   1.307
 5993W        W77609  28.083  34.048   1.489
 5994W        W77610  43.069  28.962  12.513
 5995W        W77611  23.677   3.718   2.573
 5996W        W77612  18.720  38.066   1.858
 5997W        W77613  16.600  39.514  12.034
 5998W        W77614   7.938  32.769   3.257
 5999W        W77615  39.728  36.811  11.094
 6000W        W77616  40.039  29.726   1.449
 6001W        W77617  42.991  37.579   1.502
 6002W        W77618  25.091   5.953  14.352
 6003W        W77619  43.352   3.276   0.196
 6004W        W77620  14.723  34.098  12.039
 6005W        W77621  13.689  13.623  14.488
 6006W        W77622   1.964   9.986   4.709
 6007W        W77623  25.491   6.181   1.855
 6008W        W77624  44.419  10.087  14.316
 6009W        W77625   4.163   0.121   2.417
 6010W        W77626  35.202  33.340   2.754
 6011W        W77627   3.859   6.499  13.571
 6012W        W77628   7.714  35.372  14.670
 6013W        W77629  15.236  29.971  10.643
 6014W        W77630  36.636  43.944  11.278
 6015W        W77631   4.271   3.324   3.267
 6016W        W77632  33.473  21.524   2.199
 6017W        W77633  20.788  17.283   2.892
 6018W        W77634  16.870  13.201   2.427
 6019W        W77635  11.848  19.841   3.522
 6020W        W77636  16.262  36.748  14.038
 6021W        W77637  27.873  30.977  13.021
 6022W        W77638  36.518   4.947   0.446
 6023W        W77639   6.119  43.951   3.586
 6024W        W77640   8.878  14.573   4.104
 6025W        W77641  24.005  15.854   4.110
 6026W        W77642  34.538  38.346   3.385
 6027W        W77643  39.592  42.490   4.505
 6028W        W77644   3.472  17.086   4.494
 6029W        W77645  11.603   8.631  11.308
 6030W        W77646  38.595  36.741  13.370
 6031W        W77647  35.861  34.104   4.862
 6032W        W77648  41.978  26.866   3.402
 6033W        W77649  29.933   9.457  11.117
 6034W        W77650  27.671  17.210   3.062
 6035W        W77651  23.618  40.911  11.558
 6036W        W77652  42.337  38.886  11.462
 6037W        W77653   5.659  27.190   1.348
 6038W        W77654  22.035  42.753  13.900
 6039W        W77655  39.076  23.078  12.978
 6040W        W77656  11.143  22.046   3.368
 6041W        W77657  39.541  33.559  12.294
 6042W        W77658  13.187   2.935   3.696
 6043W        W77659  25.312   0.958   1.432
 6044W        W77660  27.989  12.383   2.282
 6045W        W77661  39.391  25.236  10.787
 6046W        W77662  39.494  16.090   1.839
 6047W        W77663  32.224  17.437  14.996
 6048W        W77664  20.548  36.590   3.904
 6049W        W77665   4.678  12.734  12.084
 6050W        W77666  24.031   2.983   3.767
 6051W        W77667   2.929  18.147   3.195
 6052W        W77668   5.202  10.850  11.538
 6053W        W77669  23.249   8.180  14.865
 6054W        W77670   7.686  16.644  12.891
 6055W        W77671   1.005   2.194   3.203
 6056W        W77672   5.296  44.519   1.433
 6057W        W77673  10.191   3.378   2.209
 6058W        W77674  15.133  18.224  14.290
 6059W        W77675  29.290   6.789  10.961
 6060W        W77676  33.676  39.117   4.124
 6061W        W77677  14.748   0.274  13.212
 6062W        W77678  28.401  40.569  13.242
 6063W        W77679   5.770  10.311  14.492
 6064W        W77680  23.284  20.220  11.796
 6065W        W77681  40.531  42.035  10.787
 6066W        W77682   8.608  39.422  10.997
 6067W        W77683  10.814  18.585   1.156
 6068W        W77684  36.397  12.611   4.338
 6069W        W77685   2.417  10.246  13.381
 6070W        W77686   0.143  34.879  14.256
 6071W        W77687  13.736  19.807  13.974
 6072W        W77688   1.649   0.748   0.721
 6073W        W77689  41.916   3.867  10.626
 6074W        W77690  10.390  18.460  12.069
 6075W        W77691  12.535  44.502  14.609
 6076W        W77692  36.384  43.594   1.814
 6077W        W77693  38.272  11.870   2.221
 6078W        W77694   2.824   2.975   2.307
 6079W        W77695  20.307  31.727   4.174
 6080W        W77696   1.519  17.364  11.520
 6081W        W77697  43.923  14.383   4.575
 6082W        W77698  35.933   7.836  11.285
 6083W        W77699  11.733  16.351  13.402
 6084W        W77700  23.330  36.145  10.692
 6085W        W77701   4.840  34.576   2.381
 6086W        W77702  28.028  22.978  11.651
 6087W        W77703  19.150  25.590   0.045
 6088W        W77704  25.089  32.942   1.247
 6089W        W77705  30.466  25.549  13.968
 6090W        W77706  37.459  27.292   0.363
 6091W        W77707   4.690   2.453  10.655
 6092W        W77708  33.566  17.265   2.216
 6093W        W77709  39.011  34.600  12.921
 6094W        W77710  39.250  27.690  12.931
 6095W        W77711  44.898  16.602   1.452
 6096W        W77712  40.819  19.077  13.039
 6097W        W77713  44.982  35.966   1.376
 6098W        W77714  21.598  21.544   0.943
 6099W        W77715   1.977  27.829  13.678
 6100W        W77716   2.315  41.235   0.199
 6101W        W77717   3.706  36.921  12.484
 6102W        W77718  35.145  24.947  11.577
 6103W        W77719  11.209  28.116   4.757
 6104W        W77720  15.851  16.658  11.071
 6105W        W77721   2.954   9.318  14.847
 6106W        W77722  18.636  20.447  14.074
 6107W        W77723  30.126  26.920   1.360
 6108W        W77724   0.010  44.355   2.615
 6109W        W77725  40.064  26.047  14.456
 6110W        W77726  37.908  32.771   0.435
 6111W        W77727  41.707   5.257  13.666
 6112W        W77728  41.119  27.171  14.385
 6113W        W77729  26.089   7.256   0.452
 6114W        W77730  44.790   0.213   2.605
 6115W        W77731  16.734  33.457  13.321
 6116W        W77732  32.084  22.563   0.389
 6117W        W77733   1.096   4.941  13.486
 6118W        W77734  33.836   6.917  14.483
 6119W        W77735   3.319  31.012   0.656
 6120W        W77736   8.872   4.834   4.719
 6121W        W77737  40.990  11.712  10.931
 6122W        W77738  16.801  44.477   4.704
 6123W        W77739   5.353  11.500  12.809
 6124W        W77740  12.747   3.666  13.245
 6125W        W77741  29.909  26.455  11.021
 6126W        W77742  15.729  42.297  14.006
 6127W        W77743  19.528   3.089   0.856
 6128W        W77744  40.453  11.408   4.712
 6129W        W77745  28.703   2.728  12.079
 6130W        W77746  31.374  17.682  10.581
 6131W        W77747  32.148  11.368  12.046
 6132W        W77748   8.788  37.343  10.733
 6133W        W77749   6.412  33.990   1.932
 6134W        W77750  38.017  25.894  11.312
 6135W        W77751  11.257   5.702   1.390
 6136W        W77752  44.585  15.715  13.855
 6137W        W77753  44.016  21.646   3.772
 6138W        W77754   6.299  16.655  13.566
 6139W        W77755  18.353  41.877   1.705
 6140W        W77756  39.997   8.116  14.439
 6141W        W77757  30.791  15.694   3.277
 6142W        W77758  16.503  43.313   1.186
 6143W        W77759  19.625  17.739  12.999
 6144W        W77760  11.837  25.192   2.646
 6145W        W77761  24.588  44.280  10.647
 6146W        W77762   6.239  37.397  11.130
 6147W        W77763  34.193  21.193  10.752
 6148W        W77764  20.829  22.865  14.037
 6149W        W77765  21.944   9.683  11.676
 6150W        W77766   5.348  36.795  14.045
 6151W        W77767  31.300  36.540   0.313
 6152W        W77768  31.501  13.688   2.681
 6153W        W77769  37.560  24.657  14.498
 6154W        W77770  28.369  23.830  13.737
 6155W        W77771  11.279   2.188  14.576
 6156W        W77772   4.873   0.826   2.697
 6157W        W77773  43.530   0.319  13.231
 6158W        W77774  40.416  21.567   0.188
 6159W        W77775  38.925  36.645  10.713
 6160W        W77776  24.267  36.759   2.821
 6161W        W77777  17.907  17.837   1.460
 6162W        W77778  43.849   1.960  10.655
 6163W        W77779   1.422   2.000   4.852
 6164W        W77780  33.810  23.115  12.059
 6165W        W77781  31.948  24.199   0.505
 6166W        W77782   0.935  29.636   3.524
 6167W        W77783  44.317   4.283   3.735
 6168W        W77784  24.561  27.224   0.513
 6169W        W77785  19.303  15.181  11.481
 6170W        W77786  10.387   8.986  10.798
 6171W        W77787  31.532   6.715  11.573
 6172W        W77788   9.267  22.661   4.476
 6173W        W77789  35.530  11.135  11.712
 6174W        W77790  23.963   0.749   1.754
 6175W        W77791  43.692  37.046   3.372
 6176W        W77792  37.781  39.749   2.672
 6177W        W77793   7.951  17.090   4.624
 6178W        W77794  26.017  28.969   3.763
 6179W        W77795   5.510   8.650   4.994
 6180W        W77796   9.743  44.774  14.430
 6181W        W77797  42.536   0.436   1.477
 6182W        W77798  27.963  25.089  14.983
 6183W        W77799  22.494   6.272   5.043
 6184W        W77800   5.899  37.447   1.479
 6185W        W77801  26.249  18.669   1.178
 6186W        W77802  12.737  18.567  12.587
 6187W        W77803  24.762   4.096  11.244
 6188W        W77804  39.482  12.160  13.228
 6189W        W77805  23.181  20.764   1.903
 6190W        W77806  24.027   2.362  11.008
 6191W        W77807  33.048  23.043   0.834
 6192W        W77808  20.536  12.668   1.778
 6193W        W77809  37.986  31.114   2.370
 6194W        W77810  14.589   5.314  13.845
 6195W        W77811   4.312  12.593  11.668
 6196W        W77812  34.548  31.943  13.748
 6197W        W77813  40.404  16.721   0.784
 6198W        W77814  15.065  22.099   4.080
 6199W        W77815   4.881  36.391  11.032
 6200W        W77816   2.859  21.087  11.311
 6201W        W77817  44.462  11.803  10.936
 6202W        W77818  23.714  40.817   4.301
 6203W        W77819  44.936   0.710  13.313
 6204W        W77820  36.872  12.567  13.868
 6205W        W77821  41.470  12.495   3.295
 6206W        W77822  18.144   1.889   2.351
 6207W        W77823   9.425   9.373   2.501
 6208W        W77824   9.201  35.524   0.143
 6209W        W77825  44.412  14.662  11.323
 6210W        W77826  26.203  35.811   0.325
 6211W        W77827  23.093  27.051  12.823
 6212W        W77828   8.730  41.791   3.265
 6213W        W77829  11.136   7.457  12.944
 6214W        W77830  44.980  42.193  14.410
 6215W        W77831  38.535  41.387  12.487
 6216W        W77832  39.296   6.693  10.865
 6217W        W77833  42.979  28.886   3.788
 6218W        W77834  23.792   4.718   4.272
 6219W        W77835  20.735  25.209   4.695
 6220W        W77836  12.623   1.999  13.858
 6221W        W77837  43.418   6.989  13.547
 6222W        W77838   0.681  24.319   4.078
 6223W        W77839   1.288  36.861   4.140
 6224W        W77840  39.421  35.146  14.925
 6225W        W77841  44.683  28.089   3.571
 6226W        W77842  15.365   5.853   4.551
 6227W        W77843  10.665   3.861   2.323
 6228W        W77844  30.325  38.928   2.677
 6229W        W77845  33.292  40.533   5.006
 6230W        W77846  26.076  41.960   3.619
 6231W        W77847   8.967  31.692   2.177
 6232W        W77848  40.855  29.175   2.161
 6233W        W77849  35.995  34.707  14.940
 6234W        W77850   6.715   6.218  12.012
 6235W        W77851   2.729   8.045   2.653
 6236W        W77852   3.610   7.857   1.335
 6237W        W77853  18.582  18.744   2.571
 6238W        W77854   6.952   4.798   2.576
 6239W        W77855  31.042  24.710   2.362
 6240W        W77856   2.871  43.174   3.678
 6241W        W77857  16.593   0.704  11.550
 6242W        W77858   2.866  39.276   3.659
 6243W        W77859  44.399  39.996   3.629
 6244W        W77860   0.983   5.392  11.063
 6245W        W77861  36.998  29.936   0.838
 6246W        W77862   8.851   5.230  13.483
 6247W        W77863   3.705  39.981   1.794
 6248W        W77864   4.327  28.052  11.911
 6249W        W77865  28.065   5.505   4.809
 6250W        W77866  10.872  26.093  11.205
 6251W        W77867  15.177  29.615   3.674
 6252W        W77868  35.886  32.052   2.726
 6253W        W77869   2.756  34.062  14.724
 6254W        W77870   5.898  19.100  14.917
 6255W        W77871  36.124  34.013  12.490
 6256W        W77872  12.749  12.496   2.329
 6257W        W77873  22.158  41.889  14.954
 6258W        W77874   2.831  34.706  13.315
 6259W        W77875   6.737  40.327   2.163
 6260W        W77876  34.518  28.584   2.736
 6261W        W77877  21.268   5.435  13.909
 6262W        W77878  43.956   5.613   1.412
 6263W        W77879  18.166  17.404   1.273
 6264W        W77880   8.788   1.483  11.311
 6265W        W77881   7.160   4.076  10.676
 6266W        W77882  27.654  18.466  11.065
 6267W        W77883  17.093  32.514  10.828
 6268W        W77884  14.231  27.806   0.537
 6269W        W77885  34.848   9.446  14.856
 6270W        W77886  24.946  21.210   2.314
 6271W        W77887  11.658  11.863  10.653
 6272W        W77888  23.725  39.963   4.616
 6273W        W77889  37.194  27.882   5.033
 6274W        W77890  42.304  43.909  14.070
 6275W        W77891  23.299  32.576   1.921
 6276W        W77892  38.981  23.771   2.603
 6277W        W77893  16.994  36.716  10.981
 6278W        W77894   0.419  29.673  14.051
 6279W        W77895  34.612   5.348   0.502
 6280W        W77896  21.924   5.302  11.195
 6281W        W77897   2.657  40.591   1.202
 6282W        W77898  43.599  10.144   1.838
 6283W        W77899  25.679  14.381  10.485
 6284W        W77900  21.459   5.571   1.034
 6285W        W77901   2.133  35.391   2.837
 6286W        W77902  40.600  39.859   3.261
 6287W        W77903  17.800  38.231   0.161
 6288W        W77904  27.590  12.072   3.185
 6289W        W77905  38.908  23.861  13.069
 6290W        W77906   9.884   9.588  12.589
 6291W        W77907  23.587  32.437  10.583
 6292W        W77908   6.449  11.098   2.205
 6293W        W77909  38.782  22.179   2.154
 6294W        W77910  36.955  35.775   3.877
 6295W        W77911  20.672  19.090   2.847
 6296W        W77912  36.462  31.932   5.162
 6297W        W77913  16.974   1.792  10.206
 6298W        W77914  23.002  19.095   2.678
 6299W        W77915  44.355  10.236  12.375
 6300W        W77916  36.360  16.196  13.870
 6301W        W77917   6.552  33.299  11.304
 6302W        W77918  31.505  14.222   0.566
 6303W        W77919  31.670  12.685   1.300
 6304W        W77920   1.645  35.362  13.429
 6305W        W77921  28.852  43.528  14.424
 6306W        W77922   0.740  36.052  14.765
 6307W        W77923  20.547  36.411  11.107
 6308W        W77924  40.888   3.833  13.845
 6309W        W77925  16.110   8.664   1.241
 6310W        W77926  34.828  40.012  12.107
 6311W        W77927  23.160  19.623   1.377
 6312W        W77928  25.708  25.870   1.821
 6313W        W77929   0.392  39.940   2.124
 6314W        W77930  21.150   0.993   0.757
 6315W        W77931  44.400  36.133   3.255
 6316W        W77932   9.304  10.343   4.027
 6317W        W77933  37.925  41.563  14.410
 6318W        W77934   3.691  15.355   1.376
 6319W        W77935  43.339  18.132  11.444
 6320W        W77936  39.116  33.256   4.136
 6321W        W77937   9.145  42.974  12.484
 6322W        W77938  35.851  38.457  12.831
 6323W        W77939  13.612   0.254   1.473
 6324W        W77940  42.901  39.937   0.008
 6325W        W77941   6.835  17.762   3.751
 6326W        W77942  25.005  22.465  14.365
 6327W        W77943  20.560  32.503   0.427
 6328W        W77944  25.600  24.651   2.684
 6329W        W77945  37.049  29.807  10.724
 6330W        W77946   8.770  21.962  10.700
 6331W        W77947  26.482  31.084   2.782
 6332W        W77948  32.722   4.226   3.516
 6333W        W77949  12.445   5.348   2.310
 6334W        W77950   8.151  19.222   3.739
 6335W        W77951   7.359  13.907   4.157
 6336W        W77952  15.517  24.901  13.312
 6337W        W77953  29.569  22.423  14.057
 6338W        W77954  19.945  22.796   1.714
 6339W        W77955  19.708  27.254   0.245
 6340W        W77956  11.822  30.925  14.309
 6341W        W77957  38.564  10.948   0.445
 6342W        W77958  30.213  39.968   0.313
 6343W        W77959   4.306  17.179  14.784
 6344W        W77960   1.862   9.303   0.509
 6345W        W77961  39.335  38.970   1.828
 6346W        W77962  25.402  29.114  13.547
 6347W        W77963   7.931  35.346   1.594
 6348W        W77964  39.769   1.770   2.143
 6349W        W77965  37.089   1.470   2.191
 6350W        W77966  21.746  22.187  11.527
 6351W        W77967   1.261  36.043  12.973
 6352W        W77968  26.325  40.227   1.447
 6353W        W77969  23.858   7.849   5.179
 6354W        W77970  21.439  27.192  10.618
 6355W        W77971  37.552  35.385  13.899
 6356W        W77972  16.051  15.700   1.383
 6357W        W77973   6.621  13.644  14.567
 6358W        W77974  41.708  37.539  11.543
 6359W        W77975  39.758   7.655  14.345
 6360W        W77976  41.923  38.479   3.297
 6361W        W77977  16.515   5.729   9.980
 6362W        W77978  13.524  44.255  12.684
 6363W        W77979   6.418   6.985   4.981
 6364W        W77980   7.380  34.793   2.740
 6365W        W77981  16.045   8.609   0.208
 6366W        W77982  20.037  40.899  12.516
 6367W        W77983  24.864  17.402   4.237
 6368W        W77984   7.579  25.963   4.264
 6369W        W77985  31.929  40.315  14.353
 6370W        W77986   3.319  13.537  14.894
 6371W        W77987  21.688   8.365  11.135
 6372W        W77988  42.364   2.510   0.073
 6373W        W77989  22.417   4.956   5.098
 6374W        W77990  21.086  11.644  14.244
 6375W        W77991   7.670   9.170   3.755
 6376W        W77992  27.975  16.401   4.199
 6377W        W77993   0.991   6.625   0.500
 6378W        W77994  33.447  41.850  12.851
 6379W        W77995  35.809   9.222   0.855
 6380W        W77996  34.979  37.614  12.456
 6381W        W77997  39.771  36.316   4.100
 6382W        W77998  42.331  29.453  14.460
 6383W        W77999  23.592  25.242   4.534
 6384W        W78000  18.641   8.862   2.866
 6385W        W78001  42.774  26.870   0.183
 6386W        W78002  14.518  22.046   1.875
 6387W        W78003  36.161  30.516  12.843
 6388W        W78004  36.667   3.292  10.339
 6389W        W78005   6.866  43.414   3.674
 6390W        W78006  23.893   3.269   3.353
 6391W        W78007   9.219   7.411  13.796
 6392W        W78008  21.260  36.006   1.347
 6393W        W78009   2.315   8.617  12.909
 6394W        W78010  20.124  39.595   3.670
 6395W        W78011  25.220  34.339   4.134
 6396W        W78012  14.559   2.360   2.179
 6397W        W78013  20.747   0.711  12.862
 6398W        W78014  23.010   1.863  12.089
 6399W        W78015  42.908  38.614  14.503
 6400W        W78016  23.566  14.380  12.541
 6401W        W78017  24.271  18.579   0.494
 6402W        W78018   5.345  27.947   2.241
 6403W        W78019  32.890  28.236  11.154
 6404W        W78020  10.377  10.773  13.954
 6405W        W78021   6.335   2.156   2.408
 6406W        W78022  30.149  12.791  12.547
 6407W        W78023  27.928  17.484   1.891
 6408W        W78024  29.842  43.427  14.606
 6409W        W78025  14.659   3.202   2.229
 6410W        W78026  31.590  36.219   4.351
 6411W        W78027  18.779  27.933  10.558
 6412W        W78028  13.476   2.775  11.622
 6413W        W78029  27.130  12.811  10.284
 6414W        W78030  12.265  36.493   0.388
 6415W        W78031  38.550  42.081  14.399
 6416W        W78032   2.300  42.014   3.253
 6417W        W78033  34.791  14.233  10.593
 6418W        W78034   3.178   2.331  10.939
 6419W        W78035  35.438  24.915   0.262
 6420W        W78036  27.365   2.468   3.167
 6421W        W78037   6.210  15.012  13.458
 6422W        W78038   3.877  18.624   0.737
 6423W        W78039   9.573   4.251  14.402
 6424W        W78040  16.759  11.619   2.632
 6425W        W78041  21.658  24.898   3.683
 6426W        W78042  11.674  14.319   0.898
 6427W        W78043  29.463  36.050   4.540
 6428W        W78044   0.349  41.793  12.076
 6429W        W78045  26.651  19.152   4.305
 6430W        W78046  37.888  32.834  12.002
 6431W        W78047   8.367  15.066  10.578
 6432W        W78048  36.574  31.522  12.612
 6433W        W78049  19.027  14.658  12.890
 6434W        W78050  10.091  23.725   4.860
 6435W        W78051  36.941  12.053   4.818
 6436W        W78052  21.769   6.321   4.588
 6437W        W78053  44.362  39.489   3.288
 6438W        W78054   8.017   2.677   1.246
 6439W        W78055  42.420   1.848   4.814
 6440W        W78056  25.804   7.206  13.806
 6441W        W78057  37.908  15.285  13.284
 6442W        W78058  29.276   0.053  13.007
 6443W        W78059   7.716  20.300  13.445
 6444W        W78060  43.295   7.129  11.092
 6445W        W78061   0.536  29.067   3.665
 6446W        W78062  26.714   8.295  13.018
 6447W        W78063  14.478  36.210  10.672
 6448W        W78064  15.379   4.970  14.992
 6449W        W78065  13.530   2.210  12.837
 6450W        W78066  43.391  42.252   0.815
 6451W        W78067  18.906   3.763   4.646
 6452W        W78068  38.211  41.086   3.434
 6453W        W78069   5.742  24.491   1.411
 6454W        W78070  20.471  38.043  13.890
 6455W        W78071  12.937  10.857  14.861
 6456W        W78072  40.414   6.531  11.957
 6457W        W78073   8.367  39.367  13.180
 6458W        W78074  33.635   3.972  11.679
 6459W        W78075  25.527  44.932  12.341
 6460W        W78076   1.792  21.008   2.089
 6461W        W78077  29.154  36.678  13.246
 6462W        W78078  16.141  25.214   3.117
 6463W        W78079  25.839   3.684   1.253
 6464W        W78080  33.104  29.333  13.801
 6465W        W78081  13.203   7.944  11.032
 6466W        W78082  13.855  44.876   0.751
 6467W        W78083  41.482  13.580  13.857
 6468W        W78084  34.132   2.258   2.777
 6469W        W78085  20.328  42.338  10.643
 6470W        W78086   5.334  25.077   4.622
 6471W        W78087   2.892  11.843  10.455
 6472W        W78088  19.321  26.127  11.963
 6473W        W78089  26.259   5.348   4.537
 6474W        W78090  37.423  42.228  12.821
 6475W        W78091  36.953  12.232   3.385
 6476W        W78092  40.749  17.301   5.037
 6477W        W78093   4.395  27.143   0.525
 6478W        W78094  19.626  14.028  10.723
 6479W        W78095  35.940  16.681  13.395
 6480W        W78096  12.866  44.793  11.022
 6481W        W78097  12.016  23.308  12.270
 6482W        W78098  25.782  18.084  12.929
 6483W        W78099   1.459  22.488   2.177
 6484W        W78100   4.487  42.930   2.712
 6485W        W78101  31.613  31.046   0.317
 6486W        W78102   9.223  25.065  14.466
 6487W        W78103  15.036  26.900   2.902
 6488W        W78104  35.885   7.667  10.791
 6489W        W78105  36.579  18.189   1.846
 6490W        W78106  27.748  44.938  13.110
 6491W        W78107  21.797  30.408   2.494
 6492W        W78108   7.781   1.439  11.272
 6493W        W78109  37.143  26.217  12.730
 6494W        W78110  32.192  29.588   9.806
 6495W        W78111   6.232   4.013  11.089
 6496W        W78112  28.477  34.359   1.340
 6497W        W78113  22.216  10.730   2.839
 6498W        W78114   3.700  21.054   1.317
 6499W        W78115  19.139   7.164  14.405
 6500W        W78116  14.645  31.338  13.430
 6501W        W78117  13.336  26.303  12.036
 6502W        W78118  17.328  42.008   1.639
 6503W        W78119  31.066  33.622  13.990
 6504W        W78120  35.928  33.584   1.507
 6505W        W78121   4.945   2.865  13.975
 6506W        W78122  35.677  42.266  14.484
 6507W        W78123  41.496  16.562   3.296
 6508W        W78124  44.945   6.593   4.435
 6509W        W78125  26.117   4.904   1.860
 6510W        W78126  40.611  44.747  11.951
 6511W        W78127  39.494  32.108  14.822
 6512W        W78128   0.761   3.137   1.242
 6513W        W78129   0.728  38.562   4.255
 6514W        W78130  19.274  18.348  11.642
 6515W        W78131  42.258  26.543   3.703
 6516W        W78132  36.029  10.134  14.584
 6517W        W78133  43.222   1.665   4.365
 6518W        W78134  43.257  17.185  13.322
 6519W        W78135  32.539  39.019  14.412
 6520W        W78136  11.424  19.660   0.824
 6521W        W78137  39.084   2.104  12.584
 6522W        W78138  33.057  40.067  13.953
 6523W        W78139  26.772  35.561   1.577
 6524W        W78140   5.319  42.260  14.875
 6525W        W78141  33.816  28.686   0.672
 6526W        W78142  19.122  31.096   1.909
 6527W        W78143  37.099  13.112  14.795
 6528W        W78144  12.752  23.961  11.988
 6529W        W78145   6.913  42.794   4.181
 6530W        W78146  24.034   0.078   0.894
 6531W        W78147  26.942  13.732   5.443
 6532W        W78148   2.202  27.741   2.292
 6533W        W78149  27.537  29.987  13.502
 6534W        W78150  32.576  34.985  13.278
 6535W        W78151  36.637   5.141  14.013
 6536W        W78152  38.895   5.921   3.632
 6537W        W78153   3.575  15.439  11.782
 6538W        W78154   8.778  42.608   2.229
 6539W        W78155  37.303  33.891  14.948
 6540W        W78156  29.984   2.316   2.246
 6541W        W78157  30.558  20.214  10.680
 6542W        W78158  36.817  34.911   2.325
 6543W        W78159  40.739  26.227   0.766
 6544W        W78160  26.124  23.053  13.567
 6545W        W78161  10.054  33.153   2.342
 6546W        W78162  31.528  14.623   1.412
 6547W        W78163  20.441  34.497  12.101
 6548W        W78164  42.096  26.566   2.502
 6549W        W78165   3.209  18.961  11.992
 6550W        W78166  40.730  41.427  13.955
 6551W        W78167   0.064  36.117   3.704
 6552W        W78168  10.918  34.353   2.319
 6553W        W78169   2.897  27.106  11.449
 6554W        W78170  34.874  10.365  14.856
 6555W        W78171  35.514  40.552   1.358
 6556W        W78172  28.967  29.937  11.618
 6557W        W78173  32.351  29.026   0.856
 6558W        W78174  10.773  42.295   0.158
 6559W        W78175   8.306  19.087  13.376
 6560W        W78176  21.614   1.756  13.533
 6561W        W78177  15.168  15.622   1.342
 6562W        W78178  22.210  44.746   0.934
 6563W        W78179  44.677  39.677   2.273
 6564W        W78180   1.049  41.480   3.366
 6565W        W78181   3.115  16.774   1.419
 6566W        W78182  12.425  33.353   2.420
 6567W        W78183   1.182  22.496   3.075
 6568W        W78184   3.891  39.649   0.488
 6569W        W78185  39.882  28.441  11.661
 6570W        W78186  39.001   1.794   1.830
 6571W        W78187  15.554  33.533  10.366
 6572W        W78188  44.873  39.774   0.957
 6573W        W78189  38.456  15.035  12.394
 6574W        W78190  14.665  30.506   0.641
 6575W        W78191   9.273  44.942  10.977
 6576W        W78192   1.903   3.465   2.256
 6577W        W78193   1.193  30.643   2.779
 6578W        W78194   5.849  33.515  14.458
 6579W        W78195  28.165  28.186   0.377
 6580W        W78196  10.109  26.533   2.679
 6581W        W78197   2.618  11.276  12.111
 6582W        W78198   3.779   8.370   0.771
 6583W        W78199   8.241   0.180   0.400
 6584W        W78200  20.571  39.208   4.761
 6585W        W78201  13.306  35.375  14.983
 6586W        W78202  21.202   7.602  12.083
 6587W        W78203   4.002  38.181   0.477
 6588W        W78204  17.782  13.758   1.725
 6589W        W78205  24.260  17.660  12.527
 6590W        W78206  34.454  38.309  10.717
 6591W        W78207  10.653  16.424   3.844
 6592W        W78208  18.810   8.645  10.732
 6593W        W78209  36.020   6.367  10.893
 6594W        W78210  17.290  21.759   4.232
 6595W        W78211  33.299  11.009  14.794
 6596W        W78212  28.682  41.194   2.862
 6597W        W78213  33.347   9.271  10.922
 6598W        W78214  34.008  39.354  11.265
 6599W        W78215  24.923  31.844  11.521
 6600W        W78216   6.286   3.881   0.702
 6601W        W78217  32.345   5.198   2.309
 6602W        W78218  21.882  44.797  10.731
 6603W        W78219  19.167  38.596   1.509
 6604W        W78220  30.647  42.846  14.231
 6605W        W78221  22.563  41.778  11.148
 6606W        W78222  40.980  18.597  14.982
 6607W        W78223  16.851  18.721  14.054
 6608W        W78224  42.880  39.986   3.742
 6609W        W78225  25.070   5.622   0.400
 6610W        W78226  21.995  20.229   3.289
 6611W        W78227  14.265  11.701   0.351
 6612W        W78228  30.551  33.575  13.994
 6613W        W78229  27.973  28.115   4.754
 6614W        W78230  28.875  31.015   4.833
 6615W        W78231  41.563  39.787   0.809
 6616W        W78232   9.929   7.292   4.509
 6617W        W78233   9.431  43.307  13.402
 6618W        W78234  10.186  14.262  13.989
 6619W        W78235  17.172  33.126   2.866
 6620W        W78236   8.719  10.843  11.632
 6621W        W78237  43.818  42.678  14.493
 6622W        W78238  43.002  28.399  11.843
 6623W        W78239  17.207  34.812   2.338
 6624W        W78240  25.836  28.676   1.044
 6625W        W78241  21.280  43.431   4.688
 6626W        W78242  41.563  30.417  14.950
 6627W        W78243   6.895  29.462  14.512
 6628W        W78244  19.114  21.235  13.476
 6629W        W78245  27.273   2.672  12.019
 6630W        W78246  20.242  12.558  10.301
 6631W        W78247  28.051  28.029   3.427
 6632W        W78248  44.595  24.071  14.275
 6633W        W78249  12.337   0.719  12.133
 6634W        W78250   0.568   2.560   2.213
 6635W        W78251  21.584  32.017  13.412
 6636W        W78252   5.497  24.229   2.666
 6637W        W78253  29.141  21.110   3.236
 6638W        W78254  38.143  16.478   1.324
 6639W        W78255  16.104   3.153   4.875
 6640W        W78256  31.571  28.923   3.815
 6641W        W78257  22.150   6.007  14.433
 6642W        W78258  18.293  13.742   1.844
 6643W        W78259   1.189  44.284   1.389
 6644W        W78260  15.192   2.398  13.116
 6645W        W78261  31.145  27.627   4.223
 6646W        W78262  10.077   0.441   1.295
 6647W        W78263   0.003   6.910  10.610
 6648W        W78264  37.901  41.057   2.254
 6649W        W78265   2.315  13.247  13.028
 6650W        W78266  19.242  13.155  11.011
 6651W        W78267   7.191  36.585  14.239
 6652W        W78268  14.832  32.912   0.091
 6653W        W78269  10.055  10.184  13.776
 6654W        W78270  35.021  17.478   2.273
 6655W        W78271  31.657  41.820   4.183
 6656W        W78272  39.156   0.849   3.662
 6657W        W78273   3.799  18.355  12.925
 6658W        W78274  43.745  20.566   1.858
 6659W        W78275  19.762  39.375  10.889
 6660W        W78276   4.799  22.110  14.703
 6661W        W78277  39.365  13.336  11.398
 6662W        W78278  18.538  40.794   2.301
 6663W        W78279  21.480  28.947  14.235
 6664W        W78280   2.789  27.037  14.368
 6665W        W78281  19.818  35.144   1.564
 6666W        W78282  38.324  43.998   1.704
 6667W        W78283  23.431  36.988   0.930
 6668W        W78284  24.250  25.637   4.219
 6669W        W78285   0.187  15.399   4.785
 6670W        W78286  40.302  16.296  13.350
 6671W        W78287  19.176  29.676   1.126
 6672W        W78288  43.716  33.634  11.194
 6673W        W78289  25.833  18.723   3.927
 6674W        W78290   3.858  33.528  11.333
 6675W        W78291  22.781   5.402   2.748
 6676W        W78292   0.917  29.443   0.777
 6677W        W78293  17.636   1.986  12.004
 6678W        W78294  12.129  37.529  14.250
 6679W        W78295  32.721  23.948   3.250
 6680W        W78296  22.198  43.536  13.105
 6681W        W78297   9.118  19.790  10.728
 6682W        W78298  39.806   8.301   1.274
 6683W        W78299  11.983  11.828  11.992
 6684W        W78300   7.238  27.562   0.482
 6685W        W78301  33.151  31.538  13.972
 6686W        W78302  23.042  44.273  14.447
 6687W        W78303  39.888  10.762   3.352
 6688W        W78304  26.515   4.226  12.942
 6689W        W78305  35.473  41.080  14.920
 6690W        W78306  13.029  27.028  14.794
 6691W        W78307   5.186  15.691   0.771
 6692W        W78308  14.474  11.823   2.474
 6693W        W78309  37.086  18.260  12.690
 6694W        W78310  42.755  37.225   9.932
 6695W        W78311   7.171   8.734  10.664
 6696W        W78312  20.475  40.813   3.262
 6697W        W78313  30.419  12.690  11.956
 6698W        W78314  26.492  11.157   4.045
 6699W        W78315   6.929  44.771  12.949
 6700W        W78316  27.062  24.606  14.956
 6701W        W78317   0.324  28.898  14.529
 6702W        W78318  11.406  11.361  13.416
 6703W        W78319  19.761  30.169   2.362
 6704W        W78320  25.169  35.834  11.541
 6705W        W78321  41.268  13.899  12.123
 6706W        W78322  36.884   0.937   0.136
 6707W        W78323  34.990  34.878   2.802
 6708W        W78324  29.447  44.268   4.599
 6709W        W78325  30.647   4.273   0.180
 6710W        W78326  20.007  22.181  10.892
 6711W        W78327  40.746  34.623   0.037
 6712W        W78328   4.174  14.153   1.361
 6713W        W78329   0.296  11.212   2.672
 6714W        W78330  12.881   4.411  12.531
 6715W        W78331   4.830  40.598  11.149
 6716W        W78332  34.930  31.149  14.996
 6717W        W78333  22.910  27.557   1.598
 6718W        W78334  13.621   1.131   1.775
 6719W        W78335  21.464   1.313  12.418
 6720W        W78336   7.166  21.202  13.823
 6721W        W78337  16.266  38.345   2.691
 6722W        W78338  29.396  21.106  10.141
 6723W        W78339  22.177  20.587  13.487
 6724W        W78340  25.911  33.473   0.524
 6725W        W78341  15.076  22.239   2.226
 6726W        W78342  15.740  10.444   1.753
 6727W        W78343  20.539  32.958  13.434
 6728W        W78344  33.174   0.368  10.746
 6729W        W78345   9.594  40.991   3.780
 6730W        W78346  18.244   6.772  14.924
 6731W        W78347   1.567  27.492  14.812
 6732W        W78348   9.435  10.646  14.792
 6733W        W78349   9.363  20.034  13.069
 6734W        W78350  24.208  38.291  12.790
 6735W        W78351  29.204   9.721  12.519
 6736W        W78352  33.031  18.845   2.727
 6737W        W78353  21.117   8.200  12.927
 6738W        W78354   2.856   5.975   1.802
 6739W        W78355  44.532  43.286  10.696
 6740W        W78356   2.199   1.801   3.339
 6741W        W78357  34.454   9.814   2.071
 6742W        W78358  23.248   1.279  13.898
 6743W        W78359  15.230  34.351  14.927
 6744W        W78360  17.663  44.754  14.511
 6745W        W78361  32.608  37.081  13.572
 6746W        W78362   0.919   3.428   4.089
 6747W        W78363  30.126  43.990  12.361
 6748W        W78364  20.250  13.851   4.637
 6749W        W78365  18.500   9.557  13.499
 6750W        W78366  24.607  26.925   0.940
 6751W        W78367   6.282  13.318  10.664
 6752W        W78368  30.605  40.905   4.117
 6753W        W78369  14.562  20.680  12.457
 6754W        W78370   6.731  27.600   3.279
 6755W        W78371   4.674   2.431  13.925
 6756W        W78372  38.403   0.996  12.538
 6757W        W78373  35.853   0.442  14.540
 6758W        W78374  44.813  32.351   4.673
 6759W        W78375  27.948   4.793  12.941
 6760W        W78376  31.869  29.485  14.932
 6761W        W78377  10.082  31.588   4.035
 6762W        W78378  14.283   1.798   4.664
 6763W        W78379  33.839   6.921  11.871
 6764W        W78380  24.672   1.162   0.168
 6765W        W78381  12.884  25.119  13.319
 6766W        W78382  30.688   9.119  13.307
 6767W        W78383  34.667  14.264   3.582
 6768W        W78384  29.628   7.265   4.447
 6769W        W78385   7.608  14.016   2.221
 6770W        W78386  22.194  33.249   2.415
 6771W        W78387  37.040  30.806  11.847
 6772W        W78388   9.279  19.526  13.924
 6773W        W78389  44.881  32.436   1.410
 6774W        W78390   0.050  38.100   1.731
 6775W        W78391  11.592  34.640   4.110
 6776W        W78392  23.599  23.511  10.661
 6777W        W78393  19.536  20.519  11.618
 6778W        W78394  26.680  25.053  11.049
 6779W        W78395  11.078   8.382  12.119
 6780W        W78396  11.338  30.571  13.025
 6781W        W78397  39.496  27.433   1.440
 6782W        W78398   0.668  34.307   5.079
 6783W        W78399   9.279  25.148   1.497
 6784W        W78400  39.991  16.634  10.758
 6785W        W78401  38.977  34.211  13.309
 6786W        W78402   6.161  20.784  11.547
 6787W        W78403  22.117  42.563  12.742
 6788W        W78404  29.678  13.722   1.211
 6789W        W78405  13.340  34.608  12.504
 6790W        W78406  25.060  25.586  14.055
 6791W        W78407  39.405  18.159  12.351
 6792W        W78408  37.144  25.913   0.412
 6793W        W78409  13.792  33.524  14.701
 6794W        W78410  29.252  19.684   4.530
 6795W        W78411  35.299  43.782  13.840
 6796W        W78412  11.285   7.156  12.518
 6797W        W78413  19.319  28.418  13.466
 6798W        W78414   3.239  44.373  14.315
 6799W        W78415  34.785  44.355  12.097
 6800W        W78416   0.537  30.717  13.772
 6801W        W78417   7.223  29.794  13.847
 6802W        W78418  14.181   6.785  14.548
 6803W        W78419  42.865   6.541  14.981
 6804W        W78420  43.860  31.140  14.057
 6805W        W78421  38.584  11.074   2.674
 6806W        W78422  21.166  30.989  12.365
 6807W        W78423   7.768  16.372  10.593
 6808W        W78424   2.182  29.238  11.585
 6809W        W78425  19.551   2.272   4.165
 6810W        W78426  19.493   5.468   4.205
 6811W        W78427  10.599  15.770  12.428
 6812W        W78428   7.866  42.555  14.569
 6813W        W78429  32.561  26.552   4.762
 6814W        W78430  23.618  27.197   3.583
 6815W        W78431  15.202  31.482   1.241
 6816W        W78432  28.230  33.445   2.910
 6817W        W78433  11.343  28.156  14.754
 6818W        W78434   1.943   0.732  11.458
 6819W        W78435  44.353  21.398  13.408
 6820W        W78436   1.307  23.808  11.122
 6821W        W78437   3.221  43.041  14.841
 6822W        W78438   3.825  20.024   1.287
 6823W        W78439  17.602  25.736  12.110
 6824W        W78440  33.426  24.912   1.332
 6825W        W78441   2.153  21.590   2.668
 6826W        W78442  31.921  37.835   2.607
 6827W        W78443  12.428   6.223  10.194
 6828W        W78444   3.536  35.894  10.693
 6829W        W78445  32.432   3.712  13.109
 6830W        W78446  41.803   7.819   1.093
 6831W        W78447  36.954   8.172   4.133
 6832W        W78448  24.126   0.935  12.248
 6833W        W78449  36.871   6.547  12.434
 6834W        W78450   1.579  22.830  14.702
 6835W        W78451  34.101  29.562  12.419
 6836W        W78452   4.285   8.146   2.125
 6837W        W78453  20.162  17.180   1.325
 6838W        W78454  17.205  35.265  13.822
 6839W        W78455  15.678   7.367   3.728
 6840W        W78456  38.925  15.251   3.593
 6841W        W78457  38.240   8.844  12.266
 6842W        W78458   1.775  21.994   9.897
 6843W        W78459  10.155  16.781   3.054
 6844W        W78460   0.845  12.141   3.560
 6845W        W78461   3.943   0.464  14.597
 6846W        W78462   3.956  11.121   2.212
 6847W        W78463   3.014  18.837  10.695
 6848W        W78464  22.249  41.008   0.512
 6849W        W78465  42.311   1.437  13.530
 6850W        W78466  38.670  26.627  13.282
 6851W        W78467  16.885  29.688   4.205
 6852W        W78468   1.461   0.440  10.119
 6853W        W78469  21.107  41.755  14.242
 6854W        W78470  23.961  43.311  12.936
 6855W        W78471  18.727  13.852   0.925
 6856W        W78472  24.153  37.325  13.545
 6857W        W78473  15.594  40.701   0.014
 6858W        W78474  21.495  22.269   4.363
 6859W        W78475   4.416  39.473   0.462
 6860W        W78476  20.666  40.044  10.462
 6861W        W78477   1.738  23.733   3.179
 6862W        W78478  27.885  16.257   2.955
 6863W        W78479  14.991   6.980   4.160
 6864W        W78480  20.653   8.714  12.417
 6865W        W78481  35.060   6.058  14.764
 6866W        W78482   5.761   7.810   0.285
 6867W        W78483   4.252  43.447   3.671
 6868W        W78484  16.699  26.519  14.821
 6869W        W78485  33.379   5.222   2.404
 6870W        W78486   5.196  38.125  12.018
 6871W        W78487  25.999  32.504   2.104
 6872W        W78488  28.089  13.031   4.513
 6873W        W78489   2.898  35.231  13.992
 6874W        W78490  32.438  26.099  12.127
 6875W        W78491  12.098  22.833  13.483
 6876W        W78492  22.555   2.521   4.995
 6877W        W78493  18.921  22.640   0.991
 6878W        W78494  36.540  23.544   0.193
 6879W        W78495   3.892  18.080  14.960
 6880W        W78496   3.380  42.254   0.342
 6881W        W78497  35.286   2.489  10.716
 6882W        W78498  10.782  37.909   0.319
 6883W        W78499  29.887  11.968  12.850
 6884W        W78500  27.419  29.490   2.698
 6885W        W78501  13.325  17.244   5.116
 6886W        W78502  38.118   0.079   4.202
 6887W        W78503  38.046  19.796  14.065
 6888W        W78504  41.792  14.722  12.937
 6889W        W78505  43.360  11.708   1.966
 6890W        W78506   1.525  19.097   1.862
 6891W        W78507  28.404   1.783  12.127
 6892W        W78508  24.920  37.439  12.871
 6893W        W78509   1.816  29.751  13.026
 6894W        W78510   0.861  34.311   3.141
 6895W        W78511  13.238  16.866   0.171
 6896W        W78512  19.516  37.073  13.754
 6897W        W78513  29.633  36.128  12.459
 6898W        W78514  18.415   0.025   1.508
 6899W        W78515  11.674  37.961  11.871
 6900W        W78516  39.829  39.582   4.211
 6901W        W78517  32.462  17.091  14.620
 6902W        W78518  21.567  10.924  14.719
 6903W        W78519  20.328  12.696  14.068
 6904W        W78520  37.016  15.731  13.938
 6905W        W78521  43.989   4.098  11.624
 6906W        W78522   6.082   1.546  14.779
 6907W        W78523  42.471   9.178  13.868
 6908W        W78524  17.730  28.180   2.325
 6909W        W78525  35.875  15.550   0.958
 6910W        W78526  15.102   7.014  14.443
 6911W        W78527  17.011  12.958  10.124
 6912W        W78528   3.742   5.389  12.053
 6913W        W78529  13.348  23.472  12.478
 6914W        W78530  23.826  18.630  13.050
 6915W        W78531  31.968  12.134   4.948
 6916W        W78532  10.716  30.401   3.775
 6917W        W78533  24.743  36.452   3.743
 6918W        W78534   1.333  35.323   1.176
 6919W        W78535  16.356  30.620   5.142
 6920W        W78536   4.893  13.088   2.339
 6921W        W78537   6.808  17.391  13.388
 6922W        W78538  43.048  32.457   4.496
 6923W        W78539  40.017  10.143   0.869
 6924W        W78540   6.816   3.533   1.861
 6925W        W78541  42.968   3.222  12.577
 6926W        W78542  39.480  13.221  14.554
 6927W        W78543  24.688  30.756   0.714
 6928W        W78544  22.235  12.558   3.336
 6929W        W78545  34.043  19.460  14.473
 6930W        W78546   0.102   2.370   2.152
 6931W        W78547  12.265  36.081   3.397
 6932W        W78548   4.382   6.912   1.719
 6933W        W78549   8.811  36.828  10.752
 6934W        W78550   8.039   9.561   1.936
 6935W        W78551  10.833  25.462   2.058
 6936W        W78552   1.235  34.455   9.803
 6937W        W78553  32.094   8.710   2.259
 6938W        W78554  32.094  13.270  14.366
 6939W        W78555   0.885  33.130  11.985
 6940W        W78556  21.112  35.461  11.555
 6941W        W78557  22.958  43.669  13.101
 6942W        W78558  22.770   9.865   4.593
 6943W        W78559   0.789  30.186   0.326
 6944W        W78560  10.838   4.698   4.493
 6945W        W78561  40.172  30.119   0.431
 6946W        W78562  14.365  27.690  14.467
 6947W        W78563   2.321  17.089  10.367
 6948W        W78564   3.773  20.782   3.565
 6949W        W78565  25.645  13.068   0.428
 6950W        W78566   7.671  24.425  12.012
 6951W        W78567   0.935  22.164   0.894
 6952W        W78568   1.403  31.628  12.977
 6953W        W78569  12.613  33.966  12.388
 6954W        W78570   5.813  23.370   2.309
 6955W        W78571   7.733  30.539  11.692
 6956W        W78572  31.046  10.361  13.930
 6957W        W78573   2.878  42.253  11.232
 6958W        W78574  42.067   1.977  14.341
 6959W        W78575  32.452   2.561   3.002
 6960W        W78576  14.790  43.988  14.815
 6961W        W78577  32.683  38.327   2.680
 6962W        W78578  23.044  44.359  11.202
 6963W        W78579   1.229  32.360  11.174
 6964W        W78580  13.882  30.349  11.433
 6965W        W78581  19.542   4.548   3.744
 6966W        W78582  42.982   4.020  13.871
 6967W        W78583  18.193  25.533   1.795
 6968W        W78584  33.599   9.344   2.348
 6969W        W78585  11.777  41.267   4.142
 6970W        W78586  20.112   3.837  12.548
 6971W        W78587  24.770  25.691   1.940
 6972W        W78588  37.870  12.423  11.784
 6973W        W78589  29.485  13.594  12.985
 6974W        W78590  36.699  23.759  10.257
 6975W        W78591  12.101  15.810  14.427
 6976W        W78592   8.259  31.441   4.267
 6977W        W78593  29.238  28.322   1.811
 6978W        W78594  42.786  23.979  11.195
 6979W        W78595  27.611   9.086   4.642
 6980W        W78596  25.434  22.593  11.951
 6981W        W78597  41.773  39.243   5.015
 6982W        W78598  20.080  16.312  12.364
 6983W        W78599  27.459   3.880  12.364
 6984W        W78600  35.405  30.386  13.010
 6985W        W78601  35.125  42.581   2.400
 6986W        W78602   5.311   6.323   2.448
 6987W        W78603   7.146  44.239  14.281
 6988W        W78604  39.028   5.061   4.746
 6989W        W78605   1.628   1.758   4.133
 6990W        W78606  36.841  18.120  13.714
 6991W        W78607  30.434  42.767   4.093
 6992W        W78608  21.158  36.603   1.904
 6993W        W78609   9.133   9.313  11.550
 6994W        W78610  26.205  18.822   4.363
 6995W        W78611  22.251  29.696   1.090
 6996W        W78612  26.547  18.257  11.269
 6997W        W78613  37.674   9.542  11.189
 6998W        W78614  19.065   8.230   0.260
 6999W        W78615  11.364  39.525   4.512
 7000W        W78616  10.887  37.363  14.885
 7001W        W78617  38.463  29.303  12.803
 7002W        W78618  21.644   7.844  12.004
 7003W        W78619  31.430  40.131  14.334
 7004W        W78620  28.064   0.470  10.593
 7005W        W78621  18.950  19.014   2.155
 7006W        W78622  12.609  42.123   2.827
 7007W        W78623   5.265  39.355  10.951
 7008W        W78624   3.708  25.085   4.637
 7009W        W78625  11.911  21.639  14.480
 7010W        W78626  37.861  42.200  11.468
 7011W        W78627   6.162  36.006   4.216
 7012W        W78628  35.572  21.547  12.470
 7013W        W78629   4.877   2.752  11.207
 7014W        W78630  20.815  25.000  11.106
 7015W        W78631   7.699  24.187  10.698
 7016W        W78632  32.923   1.326   1.988
 7017W        W78633  42.835  44.281  13.484
 7018W        W78634  22.291   9.896   4.430
 7019W        W78635  20.901  17.084   0.026
 7020W        W78636  41.229  23.229  12.436
 7021W        W78637   2.942   3.302  12.443
 7022W        W78638   5.879  24.989  13.124
 7023W        W78639  36.513   3.314  13.915
 7024W        W78640  29.488  22.583  11.220
 7025W        W78641  31.144  19.556   4.105
 7026W        W78642   6.216  32.656  11.953
 7027W        W78643  14.779  23.644  13.178
 7028W        W78644  29.207  13.303   3.142
 7029W        W78645  38.903  13.374  10.142
 7030W        W78646  19.323  28.763  13.079
 7031W        W78647  31.515  26.290   3.547
 7032W        W78648  13.133   8.956   3.671
 7033W        W78649  30.285  16.410   3.565
 7034W        W78650  12.271  10.770   1.956
 7035W        W78651   6.264  38.096   4.080
 7036W        W78652  24.427  38.323   0.326
 7037W        W78653  44.775  44.021   0.266
 7038W        W78654  35.734  16.801  12.125
 7039W        W78655  42.226  42.997   0.353
 7040W        W78656  36.574  34.327  13.821
 7041W        W78657  42.103  38.721  11.903
 7042W        W78658  33.439  41.278   0.243
 7043W        W78659  14.341  10.614  12.857
 7044W        W78660  12.078  23.516   1.373
 7045W        W78661  32.178  12.631   2.205
 7046W        W78662  38.467   9.894   1.294
 7047W        W78663  27.463  24.027  13.505
 7048W        W78664  28.901  22.521   3.353
 7049W        W78665  36.924  15.762   0.530
 7050W        W78666  24.474   7.607  11.126
 7051W        W78667  26.460  13.728   1.418
 7052W        W78668  31.196   4.992   0.545
 7053W        W78669  27.740  17.693   3.193
 7054W        W78670  14.541   7.148  14.576
 7055W        W78671  44.009  17.043  11.982
 7056W        W78672  18.179   3.510   1.209
 7057W        W78673  18.692  41.256   9.787
 7058W        W78674   3.815   5.772   4.775
 7059W        W78675  20.620  11.192   4.067
 7060W        W78676  33.459  11.303  12.523
 7061W        W78677  26.941  10.141   3.597
 7062W        W78678  40.371   7.123  11.155
 7063W        W78679  31.871  21.722   0.725
 7064W        W78680  20.326  11.729   1.884
 7065W        W78681   2.388   1.319   3.551
 7066W        W78682  20.287  32.190  14.524
 7067W        W78683   4.026  20.042  11.980
 7068W        W78684  16.562  30.714  12.516
 7069W        W78685   7.204  17.039   1.180
 7070W        W78686  32.603  11.176   0.273
 7071W        W78687  17.100  34.399  10.860
 7072W        W78688  20.976  30.598  11.486
 7073W        W78689  19.357  21.757  12.904
 7074W        W78690  39.760   9.209   3.880
 7075W        W78691   7.780  42.783  11.609
 7076W        W78692  10.357  21.547  12.672
 7077W        W78693  33.302   5.374   4.552
 7078W        W78694  29.030  26.641   9.883
 7079W        W78695  13.918   9.303   4.838
 7080W        W78696  27.845   1.905   1.226
 7081W        W78697  35.107  10.014  12.621
 7082W        W78698   4.192  28.120  13.283
 7083W        W78699  17.280  14.613  11.097
 7084W        W78700  39.978  42.042  10.791
 7085W        W78701   4.641  21.224   2.350
 7086W        W78702  31.108   0.505   4.067
 7087W        W78703   6.734  21.471  11.504
 7088W        W78704  29.421  18.640   0.376
 7089W        W78705   5.640  21.053  13.357
 7090W        W78706  34.057   0.866  11.446
 7091W        W78707   8.630   0.311   1.744
 7092W        W78708  17.690  24.563   0.870
 7093W        W78709  40.565  29.423  11.036
 7094W        W78710  10.806  27.974   0.901
 7095W        W78711  35.430   8.652  10.568
 7096W        W78712  34.048   5.997  14.987
 7097W        W78713  30.624  27.403   4.260
 7098W        W78714   0.874  32.503   0.219
 7099W        W78715   4.354  19.664  11.208
 7100W        W78716  27.011  20.940  12.918
 7101W        W78717  32.852  32.811  14.781
 7102W        W78718  27.468   3.896   0.308
 7103W        W78719  24.547  31.054  12.543
 7104W        W78720   2.971   7.545   0.981
 7105W        W78721   8.333  18.349   2.685
 7106W        W78722   3.457  18.091   4.694
 7107W        W78723  12.198  27.542   1.914
 7108W        W78724  26.245  35.876  14.812
 7109W        W78725   0.920  11.896   4.555
 7110W        W78726  23.945  41.521  14.753
 7111W        W78727  43.079   7.321  11.553
 7112W        W78728  39.430  20.504  13.611
 7113W        W78729  23.649   2.467   3.081
 7114W        W78730  28.960  16.662  12.087
 7115W        W78731  17.716  38.347  11.641
 7116W        W78732  27.911  41.684  11.533
 7117W        W78733  19.171  40.660  10.869
 7118W        W78734  32.371  12.729  14.067
 7119W        W78735  15.121  32.500  10.673
 7120W        W78736  16.214  29.515  12.137
 7121W        W78737  18.706   0.032   4.834
 7122W        W78738  39.774  33.565   2.866
 7123W        W78739  10.315  25.242  10.462
 7124W        W78740  11.431  37.190   0.727
 7125W        W78741  31.799  11.952  14.841
 7126W        W78742  18.062   6.676  11.598
 7127W        W78743  38.943  39.264   0.911
 7128W        W78744   1.480  34.022  12.392
 7129W        W78745  11.753  12.350  13.393
 7130W        W78746  32.002  25.642  11.162
 7131W        W78747  32.182  17.182  13.089
 7132W        W78748   4.951  32.489   3.641
 7133W        W78749  43.910   9.062   3.754
 7134W        W78750  43.909  24.447  10.704
 7135W        W78751   6.354  43.484   3.709
 7136W        W78752  20.546   1.355   1.666
 7137W        W78753  12.774  44.030  13.862
 7138W        W78754  19.765  31.901  12.516
 7139W        W78755  11.293  40.832  14.497
 7140W        W78756  20.160  44.014   0.784
 7141W        W78757  28.407  12.158  14.988
 7142W        W78758  24.728   8.223   3.769
 7143W        W78759  43.931  34.499   1.251
 7144W        W78760  17.533  33.811   0.306
 7145W        W78761  34.978  16.145  12.103
 7146W        W78762  17.792  43.759   2.805
 7147W        W78763  25.119  17.361   1.737
 7148W        W78764  12.111  38.895  11.908
 7149W        W78765  40.042  43.274   2.176
 7150W        W78766  10.127  33.562  12.803
 7151W        W78767  16.777  30.918  12.077
 7152W        W78768  31.895  32.656   4.035
 7153W        W78769  34.543  10.631   4.866
 7154W        W78770  28.676  41.019  13.310
 7155W        W78771  36.801  20.253   3.381
 7156W        W78772   4.657  44.852  14.957
 7157W        W78773  38.745  37.838  14.645
 7158W        W78774  41.336  38.421   2.197
 7159W        W78775  41.471  29.623   4.147
 7160W        W78776  12.638  31.965   3.531
 7161W        W78777   5.647  44.893   4.644
 7162W        W78778  36.773  27.593   4.150
 7163W        W78779   2.482   2.918   2.702
 7164W        W78780  42.957  28.459  14.694
 7165W        W78781  19.691  12.679  12.299
 7166W        W78782  28.133  20.355  14.468
 7167W        W78783   5.778   7.760   1.275
 7168W        W78784  41.997  19.465   4.044
 7169W        W78785   9.028  21.991  11.627
 7170W        W78786   7.133  31.298   0.882
 7171W        W78787  28.529  27.144  11.063
 7172W        W78788  14.689  26.180  10.656
 7173W        W78789  36.402  23.678  12.572
 7174W        W78790  20.785  31.486   0.739
 7175W        W78791   9.429  33.845  12.016
 7176W        W78792   7.714  42.722   1.009
 7177W        W78793  12.301   0.215  12.221
 7178W        W78794  14.906   8.631   2.737
 7179W        W78795  21.012  26.155   2.213
 7180W        W78796  32.864  26.014   1.779
 7181W        W78797  23.990  40.360  11.020
 7182W        W78798  30.417  32.562   4.632
 7183W        W78799  37.085  39.511  11.107
 7184W        W78800  16.711   2.991  11.155
 7185W        W78801  36.878   5.096   1.443
 7186W        W78802  25.203  21.958  12.072
 7187W        W78803  35.514  34.331   4.205
 7188W        W78804  27.580  43.069   0.793
 7189W        W78805  37.335  41.500   1.745
 7190W        W78806  13.619  37.999  12.565
 7191W        W78807   3.299  41.256  13.426
 7192W        W78808   7.950  37.114   3.159
 7193W        W78809  11.450   8.207   0.017
 7194W        W78810  16.321   1.892  14.884
 7195W        W78811   8.989  41.616  10.999
 7196W        W78812  28.464   4.245   2.771
 7197W        W78813  28.536  21.828   0.403
 7198W        W78814  17.974  11.359  14.830
 7199W        W78815  44.338   4.216  13.214
 7200W        W78816   3.715  44.190  10.581
 7201W        W78817  24.230  43.830  11.977
 7202W        W78818  30.119  14.178   1.713
 7203W        W78819   0.964   4.968   4.025
 7204W        W78820   7.810   1.780   4.093
 7205W        W78821  32.960  11.406   2.662
 7206W        W78822   6.474  15.595   0.243
 7207W        W78823  40.758  31.061  10.672
 7208W        W78824  34.357  18.063   2.284
 7209W        W78825  12.782  13.401  13.261
 7210W        W78826  27.682   9.837   1.697
 7211W        W78827  11.856  31.547   4.641
 7212W        W78828   6.046   5.964   4.615
 7213W        W78829  34.318   2.730   4.201
 7214W        W78830  21.922  32.584  11.096
 7215W        W78831   4.145  30.928   0.491
 7216W        W78832  37.780  44.830  11.070
 7217W        W78833  29.901   7.366  14.537
 7218W        W78834  24.596  15.568  13.803
 7219W        W78835  15.600   2.923  11.685
 7220W        W78836   2.517  27.938  11.165
 7221W        W78837  44.714  44.293   1.220
 7222W        W78838  15.682  34.995  14.513
 7223W        W78839  23.741   0.386   0.562
 7224W        W78840  18.205  36.240  10.693
 7225W        W78841  30.064  36.375   0.911
 7226W        W78842  27.126  22.493   3.158
 7227W        W78843  44.388   5.340   1.333
 7228W        W78844  36.176  14.787  13.241
 7229W        W78845  24.820  19.170   3.248
 7230W        W78846  34.655  26.285  14.393
 7231W        W78847  37.363   1.021   4.216
 7232W        W78848   7.051  36.526  11.144
 7233W        W78849  27.457  10.620  11.890
 7234W        W78850   2.036  23.540  14.423
 7235W        W78851  20.163  39.509  13.066
 7236W        W78852   6.135  34.819   0.104
 7237W        W78853  37.306  25.731   0.867
 7238W        W78854   3.900   3.923  11.268
 7239W        W78855  14.593  24.579   4.182
 7240W        W78856  36.133  32.496  13.558
 7241W        W78857  36.559  33.980   3.640
 7242W        W78858  40.254   5.339  14.171
 7243W        W78859  18.052  21.048  10.254
 7244W        W78860  17.152  19.445  12.522
 7245W        W78861  31.189   6.301   4.518
 7246W        W78862  38.328   3.222   3.127
 7247W        W78863  25.468   3.969  14.902
 7248W        W78864  34.531  18.294  11.099
 7249W        W78865  36.478  43.274  12.537
 7250W        W78866  36.030  31.049   4.760
 7251W        W78867  25.100  21.583   2.635
 7252W        W78868  16.472  22.590   1.467
 7253W        W78869  30.113  32.677  14.958
 7254W        W78870  14.255  29.356   0.239
 7255W        W78871  27.087  12.349  12.849
 7256W        W78872  21.487  25.611   3.259
 7257W        W78873  12.862  22.698   2.462
 7258W        W78874   4.278   0.905  10.981
 7259W        W78875  16.659   3.632   3.788
 7260W        W78876  23.524  11.353   3.553
 7261W        W78877   1.997  10.129   1.302
 7262W        W78878  14.630  15.873  12.803
 7263W        W78879  28.909  28.007   2.102
 7264W        W78880  32.251  10.043   1.271
 7265W        W78881  25.039  14.724  12.012
 7266W        W78882  37.518  18.070   2.883
 7267W        W78883   7.228  26.740   0.259
 7268W        W78884  34.392  21.358  12.999
 7269W        W78885  27.236   3.314   0.740
 7270W        W78886  23.313  33.073  12.736
 7271W        W78887   0.512  21.528   0.392
 7272W        W78888  14.494  22.468   0.247
 7273W        W78889  39.055   6.855   0.305
 7274W        W78890  34.920  14.450   4.816
 7275W        W78891  24.547  12.448   0.158
 7276W        W78892  34.418  16.064  10.483
 7277W        W78893  36.416  14.954   4.633
 7278W        W78894  41.024  30.141   2.449
 7279W        W78895  13.641  29.878   2.282
 7280W        W78896  16.240   0.991  12.838
 7281W        W78897   9.688  35.368   0.402
 7282W        W78898  12.113  27.023  11.337
 7283W        W78899  14.362  16.578   4.177
 7284W        W78900  11.692   2.010  12.037
 7285W        W78901   9.855   5.768  12.117
 7286W        W78902  28.292  30.941  14.743
 7287W        W78903  30.392  19.251  12.371
 7288W        W78904  33.486   9.543   5.129
 7289W        W78905  43.800  24.041  12.494
 7290W        W78906   7.174  17.187   1.683
 7291W        W78907  22.931  33.299   4.711
 7292W        W78908   3.914  30.347   2.758
 7293W        W78909  25.423  14.549   0.924
 7294W        W78910  32.171   7.791   4.094
 7295W        W78911   4.329  26.350  12.313
 7296W        W78912  16.698  41.036  12.113
 7297W        W78913  36.558  25.174   0.549
 7298W        W78914  28.712  39.733  11.529
 7299W        W78915  22.634   0.399  14.870
 7300W        W78916   4.902  41.003  13.037
 7301W        W78917  36.112  15.224   1.809
 7302W        W78918  24.997  43.914   0.686
 7303W        W78919  35.937  41.888  13.567
 7304W        W78920  26.718   2.041  13.463
 7305W        W78921  20.485   8.318   0.841
 7306W        W78922   3.618   8.238  11.169
 7307W        W78923  18.729  23.504  13.931
 7308W        W78924   8.261  18.725  10.636
 7309W        W78925  17.728  36.403   3.877
 7310W        W78926  35.349  33.442  11.667
 7311W        W78927  15.988  19.712   2.752
 7312W        W78928  22.297   6.805  10.827
 7313W        W78929   0.985  31.602   0.338
 7314W        W78930  43.099   8.813  12.821
 7315W        W78931  41.591   1.785   2.207
 7316W        W78932   1.343  42.495   4.227
 7317W        W78933   4.901  23.139  10.989
 7318W        W78934  25.968  14.338  11.213
 7319W        W78935  12.892   7.384  13.961
 7320W        W78936  43.674  44.208   3.222
 7321W        W78937  21.239  26.890   2.815
 7322W        W78938  22.546  14.120  13.013
 7323W        W78939  12.745  34.900   3.226
 7324W        W78940  26.976  41.548  13.363
 7325W        W78941  23.962  11.039  14.929
 7326W        W78942   9.804  37.020  12.094
 7327W        W78943  33.872  43.803   4.208
 7328W        W78944  39.394  38.667  13.860
 7329W        W78945  16.673  26.994  10.767
 7330W        W78946  43.088  11.773   3.398
 7331W        W78947  18.413   8.702  11.664
 7332W        W78948   4.806  14.946  14.604
 7333W        W78949  31.812  20.414  13.386
 7334W        W78950   5.918  17.800  12.825
 7335W        W78951   2.119  43.998   4.643
 7336W        W78952  30.480   9.779  10.648
 7337W        W78953  20.570  44.351  14.437
 7338W        W78954  28.225  42.322   1.799
 7339W        W78955  17.567  31.466   0.784
 7340W        W78956  23.491  29.806   1.698
 7341W        W78957   0.343  34.854   1.031
 7342W        W78958  37.067   1.028  12.640
 7343W        W78959  31.663  15.897   4.645
 7344W        W78960  10.840  19.569  13.394
 7345W        W78961  36.908   2.646   4.179
 7346W        W78962  27.160  34.324   4.181
 7347W        W78963  36.002  24.700  12.906
 7348W        W78964  27.752   4.797   2.816
 7349W        W78965  24.502  17.118  13.955
 7350W        W78966  13.554  24.635  13.126
 7351W        W78967  31.889   2.435  11.602
 7352W        W78968   1.868  30.692   4.238
 7353W        W78969  11.944   3.735  11.626
 7354W        W78970  13.804  24.113  11.864
 7355W        W78971  29.017  33.373   4.606
 7356W        W78972  31.930   0.255   2.840
 7357W        W78973  23.187  30.989   4.824
 7358W        W78974  21.231  12.158   1.446
 7359W        W78975  32.683  10.816   3.710
 7360W        W78976  25.242   8.655  11.808
 7361W        W78977   4.655  21.482  11.619
 7362W        W78978  26.815  24.277  12.001
 7363W        W78979   2.774  31.072   3.133
 7364W        W78980   3.475  23.132   3.705
 7365W        W78981   3.398   6.310   1.061
 7366W        W78982   2.907  37.948   3.908
 7367W        W78983  26.921  34.637  11.204
 7368W        W78984  41.039  21.160  10.734
 7369W        W78985  15.327  24.435   0.795
 7370W        W78986  20.092   6.920  12.690
 7371W        W78987  25.551  18.652  12.310
 7372W        W78988  22.676  23.572  14.765
 7373W        W78989  39.796  11.596  11.509
 7374W        W78990  28.435  26.942   0.772
 7375W        W78991   7.674  11.313   2.255
 7376W        W78992  34.512  19.444  10.397
 7377W        W78993  38.027  38.999   2.285
 7378W        W78994  28.364  23.279  11.919
 7379W        W78995  15.446  33.665   4.083
 7380W        W78996  10.785   5.451   0.399
 7381W        W78997  36.754   6.232   0.750
 7382W        W78998  15.786  22.077   3.626
 7383W        W78999  32.166  33.750   1.876
 7384W        W79000  18.182  30.923  10.750
 7385W        W79001  44.475  12.474   3.670
 7386W        W79002  21.722   2.177   1.834
 7387W        W79003  37.917  21.200  11.016
 7388W        W79004  42.811  41.398  10.399
 7389W        W79005  39.568  43.467  14.381
 7390W        W79006  16.227   7.337  14.843
 7391W        W79007  26.674   9.788  10.772
 7392W        W79008  27.183  41.533   2.747
 7393W        W79009   5.870  22.312  12.952
 7394W        W79010   2.165  26.077  12.104
 7395W        W79011  43.093  13.658   1.492
 7396W        W79012  31.041  10.361   5.179
 7397W        W79013  22.720  26.898  14.056
 7398W        W79014  43.746  24.382   3.933
 7399W        W79015  14.852  27.454   1.382
 7400W        W79016  23.553  16.026   2.329
 7401W        W79017   1.567  27.672  12.018
 7402W        W79018  24.557  27.469   0.062
 7403W        W79019   4.657  25.324  10.184
 7404W        W79020  23.582  22.590  14.009
 7405W        W79021  24.221  42.523  11.100
 7406W        W79022  23.011  43.124   2.647
 7407W        W79023  23.540   0.828  14.810
 7408W        W79024  43.996  20.550   2.338
 7409W        W79025   3.059   7.230  14.451
 7410W        W79026  39.797  32.966   2.267
 7411W        W79027  17.294  41.100   1.728
 7412W        W79028   4.700  39.081  13.048
 7413W        W79029  34.587  12.546   2.962
 7414W        W79030  23.040   3.188  12.938
 7415W        W79031  25.017  14.512   5.330
 7416W        W79032  39.363   5.741   0.521
 7417W        W79033  35.122  36.315  12.862
 7418W        W79034  11.507  39.044   1.850
 7419W        W79035  35.859   4.838  14.088
 7420W        W79036   1.333  13.097  14.093
 7421W        W79037   9.917   6.125   1.258
 7422W        W79038  32.356  24.427   1.128
 7423W        W79039  28.523   0.804  10.750
 7424W        W79040  34.562  21.855   4.113
 7425W        W79041  18.296  24.615   2.296
 7426W        W79042   0.508  27.613  14.961
 7427W        W79043   0.958  11.817  14.895
 7428W        W79044  38.626  27.074  12.979
 7429W        W79045  26.593  41.071   0.454
 7430W        W79046  24.525  23.890   4.064
 7431W        W79047  33.883  17.567  14.401
 7432W        W79048  37.995  16.080   2.853
 7433W        W79049  26.582  28.131  13.415
 7434W        W79050   8.261  32.135  11.202
 7435W        W79051  34.922   6.843   4.941
 7436W        W79052  39.909  44.440   1.628
 7437W        W79053  40.619  14.179   1.721
 7438W        W79054  39.378  29.124   0.792
 7439W        W79055  13.941  42.907  12.535
 7440W        W79056   0.787  35.811   0.418
 7441W        W79057  18.844   7.313   0.749
 7442W        W79058   7.395  12.962  12.058
 7443W        W79059   3.713  19.528  14.379
 7444W        W79060  23.514  22.670  11.079
 7445W        W79061  40.300  13.077   1.599
 7446W        W79062  33.473  28.072  11.973
 7447W        W79063  29.163  12.827  11.160
 7448W        W79064  12.281  30.655  11.564
 7449W        W79065  12.683  10.244  13.958
 7450W        W79066  28.619   7.682  11.597
 7451W        W79067  20.307  22.104   3.028
 7452W        W79068  31.913  30.137  11.806
 7453W        W79069  16.384  17.405   3.619
 7454W        W79070  13.568  35.446  13.534
 7455W        W79071   6.758   8.994   0.851
 7456W        W79072   9.303   3.831   1.916
 7457W        W79073  25.357   7.768  14.452
 7458W        W79074  26.747  10.142   3.102
 7459W        W79075  17.036   5.583  10.815
 7460W        W79076  35.289  44.134   0.927
 7461W        W79077  18.789   8.663   3.347
 7462W        W79078  18.138  20.514   1.824
 7463W        W79079  30.014  33.610  14.763
 7464W        W79080  21.103  23.973   1.341
 7465W        W79081  39.071  16.316   1.427
 7466W        W79082  36.315  41.839  11.064
 7467W        W79083   0.577  17.021  14.765
 7468W        W79084  20.746   7.784   2.719
 7469W        W79085  37.389  10.668  10.185
 7470W        W79086  38.486  36.574  12.024
 7471W        W79087  43.508  11.156  12.970
 7472W        W79088  36.098  31.479  12.462
 7473W        W79089   1.909   8.890   3.395
 7474W        W79090  27.106  38.525   2.285
 7475W        W79091  10.594  22.406  14.404
 7476W        W79092  10.781  22.213  11.679
 7477W        W79093  12.592  30.382  11.989
 7478W        W79094  18.753  44.479   3.222
 7479W        W79095   2.146   0.627   0.919
 7480W        W79096  33.865  40.810   1.888
 7481W        W79097  43.317   6.123  14.300
 7482W        W79098  32.581  14.319  13.897
 7483W        W79099  41.189   7.441  11.833
 7484W        W79100  19.979  12.307  13.921
 7485W        W79101   6.101  16.864   0.806
 7486W        W79102  16.069  40.115   0.351
 7487W        W79103  37.557  25.762  10.648
 7488W        W79104  24.256   4.244  13.848
 7489W        W79105  28.049   0.959  10.923
 7490W        W79106  37.360  30.142   0.052
 7491W        W79107  32.701  35.473  14.504
 7492W        W79108  29.066   0.906   3.337
 7493W        W79109  10.132  22.247   4.143
 7494W        W79110  38.280  44.055  12.001
 7495W        W79111  24.053  41.882  12.089
 7496W        W79112  22.470  41.909   0.382
 7497W        W79113  43.941   0.967   3.879
 7498W        W79114  38.544   6.284  14.311
 7499W        W79115  29.876  39.846   2.998
 7500W        W79116   5.060  28.085   4.946
 7501W        W79117   8.220  19.643  10.800
 7502W        W79118  25.263  41.027   1.902
 7503W        W79119  41.550  23.996   2.191
 7504W        W79120  19.209  41.066  11.684
 7505W        W79121  35.823  44.409   0.948
 7506W        W79122  42.823  38.550   3.377
 7507W        W79123  42.860  19.056   3.671
 7508W        W79124  16.596   3.013  12.614
 7509W        W79125  40.862  23.296   4.089
 7510W        W79126   2.369   7.766  12.794
 7511W        W79127  28.603  34.317  10.401
 7512W        W79128  43.579  33.460   2.169
 7513W        W79129  37.243  38.120  14.808
 7514W        W79130  33.169  14.035  14.746
 7515W        W79131  18.083  31.736   4.438
 7516W        W79132   3.330  11.850  14.351
 7517W        W79133   8.275  15.865  11.139
 7518W        W79134  29.880  25.943  11.226
 7519W        W79135  29.509  34.083  13.045
 7520W        W79136   9.280  33.535   0.473
 7521W        W79137  25.917  40.771   3.051
 7522W        W79138  22.952  11.857   1.769
 7523W        W79139  27.364   3.570   4.268
 7524W        W79140  41.735   9.735   4.078
 7525W        W79141  26.639  12.108  14.554
 7526W        W79142  15.874  13.429   2.339
 7527W        W79143  22.117  30.909  12.000
 7528W        W79144  15.044  11.186  10.548
 7529W        W79145  43.228   0.381   0.118
 7530W        W79146  37.323   1.891   0.048
 7531W        W79147  37.765   2.199   1.794
 7532W        W79148  16.149  36.054  12.145
 7533W        W79149  42.717  14.873   4.124
 7534W        W79150  41.278  14.714  14.833
 7535W        W79151  12.062  21.561   4.585
 7536W        W79152   8.325  10.861   4.797
 7537W        W79153   0.405   3.179  14.214
 7538W        W79154  21.621  39.843  14.711
 7539W        W79155   0.869  42.835  11.576
 7540W        W79156  30.374  22.217  11.441
 7541W        W79157  23.188   5.818   4.643
 7542W        W79158  11.323   9.280  13.321
 7543W        W79159  34.484  19.633  12.593
 7544W        W79160  36.562  22.508   3.213
 7545W        W79161  12.435  29.889  12.027
 7546W        W79162  44.975   3.827   4.140
 7547W        W79163   6.702  17.416   1.813
 7548W        W79164   9.706  22.187   0.667
 7549W        W79165   3.790  14.638  13.934
 7550W        W79166  11.628  43.767  14.306
 7551W        W79167   2.014   9.078  12.965
 7552W        W79168  41.768  30.441   1.318
 7553W        W79169  28.602  44.085  11.664
 7554W        W79170  34.931  30.694  13.111
 7555W        W79171  31.668  29.921   3.583
 7556W        W79172   5.866  43.829   1.886
 7557W        W79173   9.742  32.487   1.937
 7558W        W79174  32.525  36.770  13.984
 7559W        W79175  29.593   2.396  12.000
 7560W        W79176  32.128   7.734   0.317
 7561W        W79177   7.499   5.737   4.937
 7562W        W79178  24.181  32.154   4.071
 7563W        W79179  27.484  32.894  12.181
 7564W        W79180  32.635  21.758  13.922
 7565W        W79181   5.309  25.210   0.209
 7566W        W79182  12.252  17.047   1.031
 7567W        W79183  20.073   5.496  11.734
 7568W        W79184   9.656   5.245   4.905
 7569W        W79185  16.300  16.199  12.438
 7570W        W79186  39.385  30.470   0.575
 7571W        W79187  12.725   6.979  14.744
 7572W        W79188  27.255  23.146  12.147
 7573W        W79189  13.826   9.142  11.232
 7574W        W79190   8.877  25.848  13.908
 7575W        W79191  41.441  37.638  10.099
 7576W        W79192  15.078  40.561  13.740
 7577W        W79193  10.680  41.368  11.126
 7578W        W79194  17.373  24.172  11.998
 7579W        W79195  26.502  37.403   4.813
 7580W        W79196  30.563  24.210   1.488
 7581W        W79197   8.288   5.362  11.261
 7582W        W79198  27.428   4.661   4.132
 7583W        W79199  16.405   8.468  14.398
 7584W        W79200  34.464  43.782   1.400
 7585W        W79201  17.564  23.054  11.465
 7586W        W79202  35.533  19.140   3.563
 7587W        W79203  43.224  36.149  13.171
 7588W        W79204  19.327   7.337  14.886
 7589W        W79205   2.315  12.590  13.985
 7590W        W79206  37.999  23.232   4.590
 7591W        W79207  31.645  32.070  14.927
 7592W        W79208  20.993   5.262  11.501
 7593W        W79209   7.926  25.490  11.983
 7594W        W79210  39.468  43.506  11.531
 7595W        W79211  43.020  21.755  12.572
 7596W        W79212  20.072  18.738  10.703
 7597W        W79213  14.397  11.930   2.981
 7598W        W79214  33.616  25.116  11.121
 7599W        W79215  10.611  33.397   4.644
 7600W        W79216   4.883  20.722   3.681
 7601W        W79217   8.799  25.470   0.392
 7602W        W79218   6.476  34.690  13.927
 7603W        W79219   4.942  24.380   5.019
 7604W        W79220   9.881   5.855  10.039
 7605W        W79221  41.286  32.085  12.433
 7606W        W79222  17.133   8.183  12.074
 7607W        W79223  29.916  26.593  13.055
 7608W        W79224  33.055  14.853  11.711
 7609W        W79225  18.392  35.517   0.411
 7610W        W79226   5.742   0.566  12.665
 7611W        W79227  40.530  24.357   3.980
 7612W        W79228  16.131  29.579  14.825
 7613W        W79229  35.973  21.671  14.176
 7614W        W79230   5.434  35.557  14.859
 7615W        W79231  24.983   3.230  12.978
 7616W        W79232  26.732  34.575  14.772
 7617W        W79233  28.247   4.549  11.252
 7618W        W79234  30.079  24.214  11.005
 7619W        W79235  22.325  42.333  14.652
 7620W        W79236  25.678  31.905   2.534
 7621W        W79237  29.767  21.396  14.187
 7622W        W79238   4.659  27.986  10.178
 7623W        W79239  27.485  30.538  12.620
 7624W        W79240   8.042  28.443   2.605
 7625W        W79241   2.980  32.967   3.094
 7626W        W79242  12.878   0.754  11.969
 7627W        W79243  11.631  23.248   1.362
 7628W        W79244  19.791   8.715   1.282
 7629W        W79245  32.561   8.701  14.359
 7630W        W79246  30.769  12.162  14.436
 7631W        W79247  41.506   1.005  11.237
 7632W        W79248  17.624   2.988   0.037
 7633W        W79249  22.492  29.094  10.580
 7634W        W79250  21.004  11.888  10.701
 7635W        W79251  23.901  23.190  11.812
 7636W        W79252  22.094   2.940   3.735
 7637W        W79253  20.076  30.971   0.964
 7638W        W79254   2.911  27.200  10.474
 7639W        W79255  24.006  34.688  13.937
 7640W        W79256   3.116  20.320  12.013
 7641W        W79257  44.247   0.763  14.967
 7642W        W79258  34.531  30.402  12.047
 7643W        W79259  27.084  10.213  11.603
 7644W        W79260  36.064  39.881  11.650
 7645W        W79261  30.845  12.156   4.093
 7646W        W79262  42.778  41.104   0.485
 7647W        W79263  26.755   6.334  12.352
 7648W        W79264  19.663  41.318  12.053
 7649W        W79265  18.500  36.923   4.635
 7650W        W79266  20.836  19.529  10.939
 7651W        W79267  20.192   5.827   2.703
 7652W        W79268   8.251   5.743  12.856
 7653W        W79269  15.692   5.812  10.065
 7654W        W79270   2.794  29.303  12.136
 7655W        W79271  25.418   5.868  14.739
 7656W        W79272   7.565  34.105  13.502
 7657W        W79273  23.611  13.373  14.944
 7658W        W79274  39.191  37.386   4.315
 7659W        W79275  41.905  20.795   1.355
 7660W        W79276  13.699  43.945   0.852
 7661W        W79277  30.617   8.756   4.625
 7662W        W79278  30.553  30.242  11.475
 7663W        W79279  29.443  33.217  11.993
 7664W        W79280   9.147  16.718  13.284
 7665W        W79281  30.219  39.028  10.686
 7666W        W79282  27.548  23.517  13.551
 7667W        W79283  20.881  42.350  12.068
 7668W        W79284  37.412   1.026   3.703
 7669W        W79285  22.530  37.317   3.725
 7670W        W79286   1.873  44.522   4.072
 7671W        W79287   9.854   9.292  14.821
 7672W        W79288  35.769   3.731   2.825
 7673W        W79289   4.619  17.282  12.671
 7674W        W79290  19.528   6.779   3.241
 7675W        W79291  26.307  29.067   2.251
 7676W        W79292  33.930  37.518  11.627
 7677W        W79293   1.500   4.723   1.248
 7678W        W79294  23.813  26.079   1.028
 7679W        W79295  33.024  43.222  12.522
 7680W        W79296  17.647   6.181   1.727
 7681W        W79297  42.460  39.050   4.710
 7682W        W79298  28.955  17.701   2.902
 7683W        W79299   8.697  14.223   0.694
 7684W        W79300  19.754   1.544   2.838
 7685W        W79301  43.580  32.408  11.378
 7686W        W79302   3.197  18.858   4.207
 7687W        W79303  39.768  11.708   5.396
 7688W        W79304   2.684   3.953  13.620
 7689W        W79305  23.050  42.841  10.667
 7690W        W79306  11.788  21.797  14.962
 7691W        W79307  38.266  40.420   3.599
 7692W        W79308  20.127  41.545   3.019
 7693W        W79309   1.939   3.027   2.660
 7694W        W79310  33.005  23.410   4.274
 7695W        W79311   9.748  20.740  13.576
 7696W        W79312  38.089   2.342   2.773
 7697W        W79313  32.443  27.221   1.802
 7698W        W79314   6.400  20.578  13.887
 7699W        W79315   9.426  36.551  12.919
 7700W        W79316  17.296  43.470   1.699
 7701W        W79317  32.523   4.179  13.308
 7702W        W79318   8.123  24.622  12.024
 7703W        W79319  29.370  33.931   2.076
 7704W        W79320  13.378  35.455  10.577
 7705W        W79321   3.385  41.220   3.649
 7706W        W79322  42.917  22.278  12.518
 7707W        W79323  35.561  34.428  12.720
 7708W        W79324  28.680   0.272   1.381
 7709W        W79325   4.854  44.342   2.308
 7710W        W79326  41.069  18.113  10.669
 7711W        W79327  42.432  39.767   3.143
 7712W        W79328  42.269  34.062   4.664
 7713W        W79329  23.232   4.235  11.219
 7714W        W79330   5.983   5.668   0.908
 7715W        W79331   4.874  43.828   5.032
 7716W        W79332  44.809  37.369  14.154
 7717W        W79333  30.738  43.921  10.654
 7718W        W79334  28.546  23.651   3.021
 7719W        W79335  43.405   3.348   0.760
 7720W        W79336  25.939   6.971   2.183
 7721W        W79337   4.692   4.934  10.524
 7722W        W79338  44.075  21.559   2.280
 7723W        W79339  37.529  10.182   2.865
 7724W        W79340   2.336  27.741   0.319
 7725W        W79341  21.461  38.922   4.299
 7726W        W79342  21.771  26.554  10.519
 7727W        W79343   7.292   8.815   3.917
 7728W        W79344  43.917  20.639  11.631
 7729W        W79345  37.742  42.532   3.271
 7730W        W79346  37.885  16.348   4.815
 7731W        W79347   7.688  33.082   0.858
 7732W        W79348  17.710  19.128  12.612
 7733W        W79349  38.311  16.608   4.581
 7734W        W79350   2.738  37.569   1.309
 7735W        W79351  25.642   6.912  11.510
 7736W        W79352   6.313  24.593  14.815
 7737W        W79353  41.126  22.522   3.725
 7738W        W79354  27.623  23.868   0.746
 7739W        W79355  41.370   7.356  13.955
 7740W        W79356  27.064   0.340   1.948
 7741W        W79357  27.222  19.057   3.096
 7742W        W79358  31.226  23.596  10.227
 7743W        W79359  16.380  30.961  10.851
 7744W        W79360  42.810   1.657  12.384
 7745W        W79361  28.139   5.120  13.408
 7746W        W79362  30.169  42.529  13.534
 7747W        W79363  16.362   6.983   3.643
 7748W        W79364  37.634  13.294  12.569
 7749W        W79365   7.416   4.746  12.491
 7750W        W79366  43.399  27.076   0.877
 7751W        W79367   2.891  14.706  11.927
 7752W        W79368  17.158  39.837   3.099
 7753W        W79369  20.062   9.862  12.163
 7754W        W79370  22.145  28.775   0.902
 7755W        W79371  18.874  30.683   2.129
 7756W        W79372  21.062  32.632   3.489
 7757W        W79373  44.378  21.291   1.275
 7758W        W79374  26.514  12.604   0.265
 7759W        W79375  37.610  13.386   0.748
 7760W        W79376  37.294   7.786   0.004
 7761W        W79377  39.560  32.093   2.155
 7762W        W79378  43.743   7.894   0.656
 7763W        W79379  37.008  39.636   2.084
 7764W        W79380  42.229  17.270   0.856
 7765W        W79381  42.733  25.452  13.202
 7766W        W79382  29.345  35.859  10.693
 7767W        W79383   0.766  32.574   4.811
 7768W        W79384  36.419   4.290  11.466
 7769W        W79385   4.139  32.794  14.325
 7770W        W79386  29.949   3.868   0.646
 7771W        W79387   3.776  41.754  10.744
 7772W        W79388  28.478  15.604  12.447
 7773W        W79389  27.658  20.698  10.631
 7774W        W79390   5.953  36.578  11.780
 7775W        W79391  35.987  26.680   0.375
 7776W        W79392   9.985  42.091   0.894
 7777W        W79393  15.507  20.124   0.242
 7778W        W79394  30.999  19.237  11.386
 7779W        W79395   4.396  14.230  13.950
 7780W        W79396  41.905   3.733  12.438
 7781W        W79397  43.293  28.939   4.582
 7782W        W79398  10.779  20.037  13.602
 7783W        W79399  18.987  14.307  13.372
 7784W        W79400  39.828  41.458   0.335
 7785W        W79401  34.710  13.186   0.738
 7786W        W79402  13.092  10.857   0.542
 7787W        W79403  22.027  17.592  14.294
 7788W        W79404   0.860  37.489   1.511
 7789W        W79405  29.737  30.024   0.933
 7790W        W79406  43.711   9.829   2.244
 7791W        W79407   3.333  32.806  11.942
 7792W        W79408  31.398  10.768  13.946
 7793W        W79409  33.164  40.994   4.174
 7794W        W79410  37.048  33.721  14.356
 7795W        W79411  14.551  23.642   1.117
 7796W        W79412   4.422  14.374  11.018
 7797W        W79413  18.314   4.360   0.686
 7798W        W79414  40.686  30.254  13.404
 7799W        W79415  43.344  24.637   0.963
 7800W        W79416  11.985  12.649   4.050
 7801W        W79417  44.259  28.898   4.624
 7802W        W79418  33.627  30.596   3.622
 7803W        W79419  25.988  26.442   2.293
 7804W        W79420  17.750   4.156  12.327
 7805W        W79421  15.113  41.319  14.047
 7806W        W79422   0.251  38.040   1.269
 7807W        W79423  36.153  23.216  12.573
 7808W        W79424   9.499  17.022  11.550
 7809W        W79425  31.396  42.251  12.611
 7810W        W79426   0.478   3.758  14.725
 7811W        W79427  44.180  30.880  10.904
 7812W        W79428  33.655  42.680   0.240
 7813W        W79429   8.843   6.822  11.972
 7814W        W79430  33.339   1.421  12.757
 7815W        W79431  15.649  25.429  14.563
 7816W        W79432  17.259  17.811   4.976
 7817W        W79433   1.858  41.070   4.713
 7818W        W79434  14.066   4.694  11.123
 7819W        W79435   8.261  24.580   3.883
 7820W        W79436  42.298  14.677   1.347
 7821W        W79437  31.295   5.795  12.973
 7822W        W79438  41.272  42.010   4.113
 7823W        W79439  21.438  42.419   1.010
 7824W        W79440   7.797  15.053   1.396
 7825W        W79441  35.122  14.086   3.383
 7826W        W79442  25.103  13.903   3.513
 7827W        W79443  43.765  13.476   2.340
 7828W        W79444  36.389  19.736   1.300
 7829W        W79445  34.339  37.306   4.427
 7830W        W79446   9.329   1.270  10.717
 7831W        W79447  40.778   9.742  12.101
 7832W        W79448  32.004  33.787  13.568
 7833W        W79449  44.216  20.269   0.432
 7834W        W79450  19.107   2.427  10.507
 7835W        W79451  14.752   9.168  12.916
 7836W        W79452  14.561  24.028   0.271
 7837W        W79453  32.572   1.028  12.583
 7838W        W79454  31.698   1.990  11.436
 7839W        W79455   9.240   9.683   4.599
 7840W        W79456  40.466  38.070  14.462
 7841W        W79457   5.779  15.475   2.267
 7842W        W79458  37.788   3.398   0.268
 7843W        W79459  21.971  28.479   2.204
 7844W        W79460  28.700  28.753  12.029
 7845W        W79461  43.004   2.238  11.575
 7846W        W79462  29.523  35.507   1.876
 7847W        W79463  24.255  16.636  11.253
 7848W        W79464  39.035  17.356   2.955
 7849W        W79465  10.354   1.119   3.227
 7850W        W79466  20.731  43.851   2.689
 7851W        W79467   9.265  31.354   0.524
 7852W        W79468  34.743  39.544  13.487
 7853W        W79469  37.538  13.688   9.774
 7854W        W79470  35.021  13.165  13.544
 7855W        W79471   8.274  21.507  11.178
 7856W        W79472   8.293  29.949   4.747
 7857W        W79473  21.196  33.499  14.511
 7858W        W79474  19.044  15.338   2.428
 7859W        W79475  39.463   0.854  12.350
 7860W        W79476  19.797  37.138   0.544
 7861W        W79477  36.549  20.144   0.647
 7862W        W79478  37.893   1.037   0.362
 7863W        W79479   3.787   5.493  13.899
 7864W        W79480   6.953   0.989   1.616
 7865W        W79481  44.686  25.110   3.186
 7866W        W79482   2.494  18.638   0.761
 7867W        W79483  21.563  18.174   3.879
 7868W        W79484  22.210   3.853   4.601
 7869W        W79485  23.255  25.442   0.498
 7870W        W79486  33.379  18.080   0.032
 7871W        W79487  11.356  31.951  12.509
 7872W        W79488  28.351  37.000   1.919
 7873W        W79489  32.149  14.550  13.749
 7874W        W79490  20.546  44.363   3.556
 7875W        W79491  19.342  23.242  14.116
 7876W        W79492  13.195   6.864  14.527
 7877W        W79493   1.038  43.105  10.871
 7878W        W79494  34.146  21.281   1.284
 7879W        W79495   8.006  19.118  12.237
 7880W        W79496  38.897  25.054  12.023
 7881W        W79497  28.106  14.543  12.345
 7882W        W79498  14.210  31.119  11.745
 7883W        W79499  18.937  41.315  10.252
 7884W        W79500  42.325  31.976  12.596
 7885W        W79501  33.313  38.103   3.294
 7886W        W79502   8.705   5.303   4.897
 7887W        W79503  13.716   0.369  10.886
 7888W        W79504  26.248  38.790  13.836
 7889W        W79505  18.184  11.907   0.882
 7890W        W79506  20.623   7.168  11.674
 7891W        W79507  25.490  35.681  12.648
 7892W        W79508  35.869  17.943  12.215
 7893W        W79509  29.067  30.962   3.868
 7894W        W79510   7.475  27.915  13.552
 7895W        W79511  31.286  14.819  14.815
 7896W        W79512  30.526  25.464   2.311
 7897W        W79513  19.573  34.013   4.335
 7898W        W79514  31.545  29.213   0.243
 7899W        W79515  23.202  38.743   2.283
 7900W        W79516  14.672  26.496  11.880
 7901W        W79517  28.892  39.859   4.106
 7902W        W79518  37.398  23.165  14.348
 7903W        W79519  43.115  38.789   2.455
 7904W        W79520   3.728  26.352   1.992
 7905W        W79521  41.341  14.799   1.751
 7906W        W79522   0.811  39.813   2.374
 7907W        W79523   1.727  38.600  12.035
 7908W        W79524  27.574  25.300   3.816
 7909W        W79525  25.425  13.047   3.322
 7910W        W79526  34.637  21.285  11.020
 7911W        W79527  20.661  34.785   4.013
 7912W        W79528  27.490  37.715   4.225
 7913W        W79529  44.400  32.178  10.293
 7914W        W79530   7.885  28.712  10.580
 7915W        W79531  19.154  33.641  13.327
 7916W        W79532  25.551  21.180  10.187
 7917W        W79533  25.692   7.898  11.532
 7918W        W79534  28.437  29.865  13.394
 7919W        W79535   6.400   8.010  13.098
 7920W        W79536   1.488  36.912   3.637
 7921W        W79537  42.627  26.658  13.108
 7922W        W79538  39.327  25.005  11.681
 7923W        W79539  43.724   7.114  10.772
 7924W        W79540  18.318   1.786  14.826
 7925W        W79541  44.744  14.046  12.509
 7926W        W79542  39.396  40.561   0.754
 7927W        W79543  26.040  39.814   2.372
 7928W        W79544  41.364  42.373  12.595
 7929W        W79545  36.891  35.925   3.398
 7930W        W79546  24.284  42.042   0.707
 7931W        W79547  13.944  36.045   3.739
 7932W        W79548   1.952  25.569  12.790
 7933W        W79549  14.782   2.897   3.815
 7934W        W79550  23.682  21.479   4.099
 7935W        W79551  26.466  26.571   2.434
 7936W        W79552  12.369  23.600   2.821
 7937W        W79553  31.013  14.685   0.484
 7938W        W79554  25.541  11.125  11.149
 7939W        W79555  34.624  12.307   0.404
 7940W        W79556  30.838  27.592  14.730
 7941W        W79557   1.786  28.550   1.340
 7942W        W79558   0.361  18.638  10.638
 7943W        W79559  12.404  42.433  14.934
 7944W        W79560  25.033  36.628   2.752
 7945W        W79561   4.832  27.574   1.055
 7946W        W79562   1.837  19.101  13.407
 7947W        W79563   0.223  25.552  13.596
 7948W        W79564  26.041  18.994  12.889
 7949W        W79565  35.235   9.130  12.106
 7950W        W79566  16.790  13.063  12.381
 7951W        W79567  34.892  23.960   0.078
 7952W        W79568  23.568  30.351   3.180
 7953W        W79569   7.575  29.595  11.479
 7954W        W79570   5.254  12.385   1.836
 7955W        W79571  39.063  36.504  14.293
 7956W        W79572  28.141   6.017   4.905
 7957W        W79573  21.826   1.283  14.243
 7958W        W79574   8.855   8.815  11.558
 7959W        W79575  26.737   0.420  14.818
 7960W        W79576  10.701  42.846   0.971
 7961W        W79577  12.106  13.743   0.331
 7962W        W79578  43.296   6.795   3.501
 7963W        W79579  17.171  20.289  11.980
 7964W        W79580   9.163  18.701   0.746
 7965W        W79581  36.907  42.423   0.798
 7966W        W79582  16.836  16.283   2.830
 7967W        W79583   9.742  21.566   2.419
 7968W        W79584  10.885   0.833   2.219
 7969W        W79585  37.326  37.880  13.493
 7970W        W79586  29.263  39.490   0.299
 7971W        W79587   3.805   0.516   1.520
 7972W        W79588  36.048   4.729   0.530
 7973W        W79589   5.100  36.510   5.022
 7974W        W79590  40.053  26.481  13.715
 7975W        W79591  23.677   5.311  14.529
 7976W        W79592  18.120  38.040   2.825
 7977W        W79593  44.687   2.660   2.127
 7978W        W79594  30.534   1.711   3.561
 7979W        W79595  31.582  42.554   1.787
 7980W        W79596   6.792  29.111   2.357
 7981W        W79597  29.722  25.917   3.374
 7982W        W79598  32.230  24.631   0.330
 7983W        W79599  33.573  38.000  12.878
 7984W        W79600  28.986  26.089  12.703
 7985W        W79601  29.874  19.691   1.915
 7986W        W79602  38.922  17.382   4.295
 7987W        W79603  27.263  13.292  13.892
 7988W        W79604  16.755  35.806  10.426
 7989W        W79605  26.771  33.592   0.965
 7990W        W79606   5.265  41.598   4.752
 7991W        W79607  21.053  12.820   0.246
 7992W        W79608  24.571  44.820   2.722
 7993W        W79609  34.658  21.176   1.406
 7994W        W79610  24.805  44.752  10.699
 7995W        W79611  33.291  30.042  12.431
 7996W        W79612  38.810  21.742   1.829
 7997W        W79613  18.120  19.511  12.522
 7998W        W79614  41.328  19.812  10.655
 7999W        W79615  11.649   9.730  13.022
 8000W        W79616  26.139  37.352  14.431
 8001W        W79617  18.783   3.241  14.730
 8002W        W79618  10.870  42.651   3.781
 8003W        W79619  28.806   0.641   0.059
 8004W        W79620  40.766  13.844   3.284
 8005W        W79621  36.496  18.050  10.610
 8006W        W79622  35.814   0.914   2.394
 8007W        W79623   1.832  16.354   0.432
 8008W        W79624  16.691   4.891  11.427
 8009W        W79625  38.277   6.310   1.766
 8010W        W79626  25.937  38.558   0.826
 8011W        W79627  30.127  27.658   0.879
 8012W        W79628  42.968  29.636   0.909
 8013W        W79629   3.442   4.956  10.303
 8014W        W79630  25.753   8.652  11.873
 8015W        W79631  28.999  25.197   1.637
 8016W        W79632   8.206  31.382  10.814
 8017W        W79633  33.601   1.748  13.103
 8018W        W79634  17.066   3.218   0.676
 8019W        W79635   7.750   9.438   4.175
 8020W        W79636  42.216  30.722   1.289
 8021W        W79637  39.048  24.109  13.934
 8022W        W79638   9.351  20.577   3.751
 8023W        W79639  28.532  37.405   0.813
 8024W        W79640  40.165   2.848  13.018
 8025W        W79641  24.796  10.190   4.388
 8026W        W79642  21.109  13.241   0.948
 8027W        W79643  21.141  31.064   0.803
 8028W        W79644   5.038  26.705  11.478
 8029W        W79645   9.140  19.024  14.822
 8030W        W79646   5.223  43.410  14.396
 8031W        W79647  16.978  41.941  13.488
 8032W        W79648  33.652  25.213  11.679
 8033W        W79649  12.531  39.316  10.923
 8034W        W79650  44.824  39.056  11.474
 8035W        W79651  26.249  38.525   4.038
 8036W        W79652  16.802   7.238   3.738
 8037W        W79653  30.542  10.778   4.416
 8038W        W79654   6.580  21.161   3.725
 8039W        W79655  22.938  36.756  12.595
 8040W        W79656  21.796   6.408   2.404
 8041W        W79657  40.440  20.695  11.366
 8042W        W79658  12.286  33.620   0.802
 8043W        W79659  35.536  24.650   1.250
 8044W        W79660  29.750  22.750   1.208
 8045W        W79661  15.496  41.181   3.558
 8046W        W79662  21.619  13.600  13.005
 8047W        W79663  42.328  40.454  10.900
 8048W        W79664   0.912  42.493   1.183
 8049W        W79665  10.996  35.058   0.025
 8050W        W79666   4.936   9.313   2.455
 8051W        W79667  31.515  42.612   2.690
 8052W        W79668  15.679  44.322  14.187
 8053W        W79669  34.164   5.938   3.759
 8054W        W79670  30.626   4.091   1.913
 8055W        W79671   9.844   4.129  13.911
 8056W        W79672  29.346  31.074  11.049
 8057W        W79673  21.493  33.315  13.796
 8058W        W79674  29.978   4.439  10.741
 8059W        W79675   4.731  42.175   2.833
 8060W        W79676  39.076  14.690  10.191
 8061W        W79677  24.280  43.447  12.520
 8062W        W79678  26.646  17.565  13.628
 8063W        W79679  25.206  44.873   1.216
 8064W        W79680  14.654  33.954   3.560
 8065W        W79681   9.603  17.258   4.275
 8066W        W79682  29.906   7.423   4.028
 8067W        W79683  43.598   9.200  10.737
 8068W        W79684  10.151  31.110  12.866
 8069W        W79685  12.989  34.515  11.578
 8070W        W79686  19.799  23.572  12.392
 8071W        W79687  15.027   4.694  10.282
 8072W        W79688  25.521  27.066   0.404
 8073W        W79689   6.292  26.981  10.861
 8074W        W79690  21.355  24.502   1.685
 8075W        W79691  27.919  16.565  11.146
 8076W        W79692  34.764  18.138  10.179
 8077W        W79693  24.145  21.612  10.440
 8078W        W79694  19.213  34.264   2.725
 8079W        W79695  37.678  19.565  11.109
 8080W        W79696  27.191  44.003  11.069
 8081W        W79697  42.315   9.775   0.308
 8082W        W79698  22.579  26.381  14.023
 8083W        W79699  32.590  14.464   1.756
 8084W        W79700   4.259   3.114  14.506
 8085W        W79701  22.748  42.825  12.762
 8086W        W79702  29.955   8.385  14.880
 8087W        W79703  29.845  26.173  12.766
 8088W        W79704  39.524  12.701   1.864
 8089W        W79705  40.872  25.408   1.770
 8090W        W79706  40.186  34.967  13.757
 8091W        W79707  23.984   4.667   0.182
 8092W        W79708  13.855  40.927   2.916
 8093W        W79709  15.851  39.055   2.156
 8094W        W79710  15.297  29.402  12.368
 8095W        W79711  40.525  39.917  14.352
 8096W        W79712   1.285  41.454   4.307
 8097W        W79713  30.086  36.661   4.668
 8098W        W79714  11.192  12.378   0.811
 8099W        W79715  27.903  41.097  14.560
 8100W        W79716   3.313  34.543   0.951
 8101W        W79717  23.532  37.889   2.267
 8102W        W79718  30.086  14.543   3.951
 8103W        W79719  43.302  27.520  13.747
 8104W        W79720  34.887  19.020  10.692
 8105W        W79721   4.295  29.522  14.795
 8106W        W79722  24.247  44.444  13.234
 8107W        W79723   6.302   0.510  13.321
 8108W        W79724  25.118  10.164   2.197
 8109W        W79725  20.744  22.254  11.453
 8110W        W79726   2.962   5.156  10.923
 8111W        W79727  17.424  38.811   5.092
 8112W        W79728  12.239  26.699  12.647
 8113W        W79729  33.691  22.140  11.597
 8114W        W79730  17.470  26.498  13.384
 8115W        W79731  24.032  24.783  10.583
 8116W        W79732   2.264  13.748  11.475
 8117W        W79733   9.355  36.926   0.459
 8118W        W79734  25.343   3.864  13.472
 8119W        W79735  12.937  23.473   3.413
 8120W        W79736  32.750  18.587  14.137
 8121W        W79737  38.861  22.742  10.507
 8122W        W79738  14.836  25.702   2.636
 8123W        W79739  23.079  16.390   4.099
 8124W        W79740  37.932  16.698   4.197
 8125W        W79741   4.382  32.339   1.751
 8126W        W79742  28.242  27.331  10.657
 8127W        W79743   8.722  12.316  11.030
 8128W        W79744  27.141  13.228   1.476
 8129W        W79745  22.615   0.751  11.969
 8130W        W79746  24.053  39.570   3.107
 8131W        W79747   3.517   3.313  14.981
 8132W        W79748  39.839  16.879   3.917
 8133W        W79749  26.449  24.269   4.004
 8134W        W79750   3.994  37.511   0.245
 8135W        W79751  21.782  33.179  12.863
 8136W        W79752  26.833  27.660  11.145
 8137W        W79753   9.115  36.897   1.462
 8138W        W79754  43.112  13.264   1.146
 8139W        W79755  13.042   3.466   3.638
 8140W        W79756  16.126  41.377  13.623
 8141W        W79757  33.090   8.276   2.784
 8142W        W79758  11.918  24.115  14.764
 8143W        W79759  41.012   1.340   2.886
 8144W        W79760  38.051   0.582   4.277
 8145W        W79761  25.043  32.803  11.642
 8146W        W79762  25.233  34.893   0.127
 8147W        W79763  25.730   4.440   4.470
 8148W        W79764  35.634  26.161   1.291
 8149W        W79765  18.531  14.630   0.468
 8150W        W79766   1.459   7.708   1.639
 8151W        W79767  25.177  17.692   0.997
 8152W        W79768  16.223  44.809   2.437
 8153W        W79769  14.277  44.987  10.451
 8154W        W79770   3.502  37.342  11.071
 8155W        W79771  18.083  26.414   2.421
 8156W        W79772  13.038  12.968  11.207
 8157W        W79773  13.197  25.890   0.687
 8158W        W79774  23.041  16.122   1.642
 8159W        W79775   8.581  18.256  13.794
 8160W        W79776  22.322  13.178   0.249
 8161W        W79777  31.549  42.468  11.149
 8162W        W79778  10.710  19.281   2.305
 8163W        W79779  18.119  34.012   4.579
 8164W        W79780  17.297  15.093   0.037
 8165W        W79781   0.200  14.784   4.082
 8166W        W79782  38.949  18.517   0.677
 8167W        W79783  20.079   2.346  11.992
 8168W        W79784   6.276   4.799   0.501
 8169W        W79785  28.597  44.802  12.626
 8170W        W79786  43.056  24.127  11.615
 8171W        W79787   4.986   5.817   2.746
 8172W        W79788   4.834   5.060  11.394
 8173W        W79789  37.285   5.701  13.298
 8174W        W79790  38.830  13.349   1.712
 8175W        W79791  32.134  40.380   2.310
 8176W        W79792  27.899  37.949  13.560
 8177W        W79793  43.777   2.843  12.733
 8178W        W79794  12.684   4.777  11.116
 8179W        W79795  11.661  23.593   2.256
 8180W        W79796  18.313   7.954  12.906
 8181W        W79797  44.874  23.498  14.738
 8182W        W79798   5.980   9.675  14.491
 8183W        W79799  37.636  43.187   3.405
 8184W        W79800   4.005  18.364   1.811
 8185W        W79801  33.301  23.152   2.623
 8186W        W79802  17.280  39.499   3.767
 8187W        W79803  37.338  16.122  14.070
 8188W        W79804   4.189  29.143   2.114
 8189W        W79805   1.679  28.130  11.492
 8190W        W79806  43.819   2.223  14.269
 8191W        W79807  16.200  35.593   1.264
 8192W        W79808  17.552  11.676  13.862
 8193W        W79809  37.509  24.120  13.301
 8194W        W79810  12.836   7.875  14.752
 8195W        W79811  41.701  24.201  13.823
 8196W        W79812  15.237  39.820   3.278
 8197W        W79813  30.624  27.066   4.673
 8198W        W79814   9.968   4.286   2.946
 8199W        W79815  39.575  13.716   1.370
 8200W        W79816  41.988   1.859   5.097
 8201W        W79817  26.317  34.409  13.818
 8202W        W79818  27.687  26.548  12.957
 8203W        W79819  19.120  17.714  13.110
 8204W        W79820  44.503  13.768   0.779
 8205W        W79821  17.298  18.035  11.085
 8206W        W79822  35.020  26.254  11.084
 8207W        W79823  17.502  35.385  14.533
 8208W        W79824   5.165  37.926  14.135
 8209W        W79825   5.728  42.501  10.524
 8210W        W79826  37.027  31.231  10.927
 8211W        W79827  19.656  32.107   1.859
 8212W        W79828  42.492  32.141  11.121
 8213W        W79829   7.096   0.026  11.672
 8214W        W79830  10.322  28.485  13.920
 8215W        W79831  29.950  26.044   0.664
 8216W        W79832   1.400  44.514  10.185
 8217W        W79833   5.719  34.349  11.685
 8218W        W79834  25.026  18.108   0.311
 8219W        W79835  21.006  36.621  13.887
 8220W        W79836   2.947  27.556  14.070
 8221W        W79837  17.351  28.654   4.487
 8222W        W79838  39.501  36.446   3.657
 8223W        W79839  26.489  43.477   2.278
 8224W        W79840  36.878  12.302   2.338
 8225W        W79841  32.658  21.339   2.805
 8226W        W79842   0.261  18.161  12.424
 8227W        W79843  42.783  33.882   2.387
 8228W        W79844   4.552  41.513  14.893
 8229W        W79845  30.115  39.546  14.045
 8230W        W79846   4.072  33.990   1.745
 8231W        W79847   8.775  25.241   1.368
 8232W        W79848   4.332  20.282   2.376
 8233W        W79849   3.416   1.953   1.032
 8234W        W79850  31.525   3.936   3.627
 8235W        W79851  34.471  10.312   2.727
 8236W        W79852  15.840  22.234  14.421
 8237W        W79853  12.808  32.338  10.416
 8238W        W79854  28.503  30.130   3.255
 8239W        W79855   4.137  12.973   2.874
 8240W        W79856  39.081  26.733  12.971
 8241W        W79857  29.671   6.503  12.966
 8242W        W79858  28.396  12.699  10.752
 8243W        W79859  15.091  10.822  11.872
 8244W        W79860   9.932  33.769  12.016
 8245W        W79861   4.755  24.608   1.729
 8246W        W79862  15.501  30.436   3.252
 8247W        W79863  39.794  28.949   4.236
 8248W        W79864  12.295  17.536   0.725
 8249W        W79865  33.810  25.580  11.150
 8250W        W79866  31.392  28.383  11.607
 8251W        W79867  11.134  27.540  13.145
 8252W        W79868  34.824  43.438  10.746
 8253W        W79869  15.916  17.096   1.709
 8254W        W79870  28.403  42.817  11.610
 8255W        W79871  39.547  30.430   2.028
 8256W        W79872  28.318   7.119  11.116
 8257W        W79873  36.926  31.697  11.865
 8258W        W79874  17.270  25.411  11.789
 8259W        W79875   0.074  38.345  14.344
 8260W        W79876  19.960  21.136   2.278
 8261W        W79877  21.838  29.877  13.524
 8262W        W79878   4.954  39.874  10.868
 8263W        W79879  34.789   0.837   2.122
 8264W        W79880  44.175  44.273  12.505
 8265W        W79881   8.899   5.123  14.409
 8266W        W79882  34.402  42.395  12.953
 8267W        W79883  38.238  27.413  13.129
 8268W        W79884  33.473   3.751  10.846
 8269W        W79885  43.642  19.431  12.982
 8270W        W79886  25.132  11.277  14.338
 8271W        W79887  27.626  40.981   4.652
 8272W        W79888   8.613  31.154   1.408
 8273W        W79889  17.902  41.844  14.359
 8274W        W79890  20.999  13.273   0.009
 8275W        W79891  20.168  21.443   4.812
 8276W        W79892  19.410  19.269   2.203
 8277W        W79893   6.673  16.204   1.310
 8278W        W79894   9.394   5.795   3.347
 8279W        W79895   8.731   9.433   3.338
 8280W        W79896  23.629   2.092  11.548
 8281W        W79897  26.413  27.685   1.344
 8282W        W79898   0.942  43.810   2.860
 8283W        W79899  31.106  38.343  10.734
 8284W        W79900  38.768  39.500  14.267
 8285W        W79901   8.107  28.068  11.961
 8286W        W79902  44.941  42.986   5.121
 8287W        W79903  43.977  27.583   3.508
 8288W        W79904   2.162  41.383  11.978
 8289W        W79905  16.579  36.392  11.087
 8290W        W79906  41.416  35.924  10.191
 8291W        W79907   9.640   5.334  12.458
 8292W        W79908  42.045   4.721  10.777
 8293W        W79909  37.611  12.869   0.639
 8294W        W79910  12.731  36.604   3.492
 8295W        W79911   8.351  28.472   3.058
 8296W        W79912  19.869  34.968  14.160
 8297W        W79913  14.632  24.468   4.712
 8298W        W79914  13.505   6.509   5.644
 8299W        W79915  10.128  14.156  10.735
 8300W        W79916  34.114   9.092   2.259
 8301W        W79917  41.502   7.819  13.019
 8302W        W79918  14.893  32.934   1.261
 8303W        W79919  34.458   1.293   2.197
 8304W        W79920   1.425   8.613  13.423
 8305W        W79921  10.823  19.098   1.756
 8306W        W79922   8.242  11.295   0.531
 8307W        W79923   1.845  24.005   0.707
 8308W        W79924  32.077  36.386   3.222
 8309W        W79925  31.063  12.065  13.326
 8310W        W79926  37.081  23.427   0.802
 8311W        W79927  20.604   2.353  12.078
 8312W        W79928  33.965  29.810   2.073
 8313W        W79929   7.315  17.550   3.947
 8314W        W79930   4.265  31.123   2.707
 8315W        W79931   4.236   7.844  14.065
 8316W        W79932  39.285  17.319   1.240
 8317W        W79933  35.541  13.855  12.173
 8318W        W79934  25.105  18.292   3.943
 8319W        W79935  44.867  44.524   0.231
 8320W        W79936  24.183   0.722  11.159
 8321W        W79937  21.062   1.373   4.160
 8322W        W79938   8.422   0.525   1.298
 8323W        W79939  11.210  10.314   4.189
 8324W        W79940   3.282  19.282   2.375
 8325W        W79941   2.276  28.172   3.722
 8326W        W79942  37.864  18.040   3.741
 8327W        W79943  37.895  29.939   0.755
 8328W        W79944  44.319  44.808   2.780
 8329W        W79945   7.186  43.463  14.800
 8330W        W79946  30.306  20.659  10.728
 8331W        W79947  21.704  26.937  14.772
 8332W        W79948  36.364   5.651  13.099
 8333W        W79949  24.701  18.697   2.716
 8334W        W79950  38.038  24.101   2.712
 8335W        W79951   5.400  21.782   3.955
 8336W        W79952  41.262  27.523  12.007
 8337W        W79953  36.514  21.118   2.979
 8338W        W79954   4.829  35.948   4.707
 8339W        W79955  17.740  27.687  14.469
 8340W        W79956  39.357  20.029  13.877
 8341W        W79957  15.083  30.678  11.209
 8342W        W79958   2.196   4.071   4.576
 8343W        W79959  14.097  42.384   3.669
 8344W        W79960  32.968  18.736  11.533
 8345W        W79961  30.400   7.789   2.642
 8346W        W79962  28.872  15.959  11.034
 8347W        W79963  10.641   2.191   3.902
 8348W        W79964  38.826  22.574   2.826
 8349W        W79965  34.613  32.559   0.264
 8350W        W79966  11.392   4.175   1.352
 8351W        W79967  33.142  17.192  13.394
 8352W        W79968  30.228  35.782  11.642
 8353W        W79969  21.275   8.800  13.352
 8354W        W79970   8.463  12.293  14.917
 8355W        W79971   7.224  36.992   2.806
 8356W        W79972  38.815   3.269   0.972
 8357W        W79973  10.554  38.119  12.583
 8358W        W79974  11.320  20.277  14.382
 8359W        W79975  20.817  22.052  10.594
 8360W        W79976  41.865  10.936   0.908
 8361W        W79977  42.088  19.629  13.917
 8362W        W79978  13.658  30.400   4.147
 8363W        W79979  27.296  31.663  13.316
 8364W        W79980   7.834  12.765   0.900
 8365W        W79981   3.828  12.560   2.095
 8366W        W79982  24.085  22.258   4.612
 8367W        W79983  21.956  28.900   1.371
 8368W        W79984  13.305  16.312   3.297
 8369W        W79985  16.143  18.922  11.169
 8370W        W79986  31.117  22.153   2.117
 8371W        W79987  10.953  31.324  10.961
 8372W        W79988  36.030   8.457  13.178
 8373W        W79989  20.504   7.574   1.584
 8374W        W79990  41.938  38.569  12.372
 8375W        W79991  15.567   1.339   2.903
 8376W        W79992   8.618  24.781   2.294
 8377W        W79993  10.624  31.588   0.484
 8378W        W79994  40.349  23.093   2.098
 8379W        W79995  15.187  31.383   0.625
 8380W        W79996  27.617  33.288   1.246
 8381W        W79997   9.174  32.027  13.474
 8382W        W79998  18.425   8.425  12.480
 8383W        W79999  10.285  26.072  13.500
 8384W        W80000  30.669  26.450   0.368
 8385W        W80001  31.583  13.712  13.494
 8386W        W80002  18.265  15.607  13.461
 8387W        W80003  17.070   2.251   0.811
 8388W        W80004  44.227  35.614   3.276
 8389W        W80005  21.838  29.901   4.771
 8390W        W80006   4.788  35.330  11.095
 8391W        W80007   7.057  35.510   3.171
 8392W        W80008  36.986  35.294   4.779
 8393W        W80009  23.080  30.128  13.945
 8394W        W80010  34.486  16.735  10.649
 8395W        W80011   3.783  18.341  11.492
 8396W        W80012  42.674  24.419  13.857
 8397W        W80013  36.383  15.075   2.434
 8398W        W80014  23.213   1.032  14.350
 8399W        W80015   3.419  37.394  13.570
 8400W        W80016   3.827  12.753   1.597
 8401W        W80017  23.122   9.658  14.779
 8402W        W80018  43.406  33.114   2.508
 8403W        W80019  40.104  21.629  13.876
 8404W        W80020  35.046   9.693   1.861
 8405W        W80021  43.408  19.630   1.128
 8406W        W80022   8.143  24.488   2.420
 8407W        W80023  14.090  18.239  11.094
 8408W        W80024  23.491  44.015  14.536
 8409W        W80025  28.986  21.952  12.759
 8410W        W80026   8.380  21.450  13.590
 8411W        W80027  36.863   7.855   2.831
 8412W        W80028  23.016   9.288  14.443
 8413W        W80029   9.450  24.144  12.920
 8414W        W80030   1.888   9.626  12.147
 8415W        W80031  36.526  14.758  12.157
 8416W        W80032  10.838  18.330  13.014
 8417W        W80033  30.339  36.715   3.509
 8418W        W80034   3.796  18.027  12.438
 8419W        W80035  41.422   4.409   1.797
 8420W        W80036   9.479  16.740   2.156
 8421W        W80037  27.014  11.229  14.432
 8422W        W80038  41.091  10.225   3.559
 8423W        W80039  17.551   6.838  11.611
 8424W        W80040  28.593  18.734   1.320
 8425W        W80041  20.844  35.404  12.912
 8426W        W80042  24.499   4.244   4.027
 8427W        W80043  15.173  26.587  14.064
 8428W        W80044   3.574  35.186  13.761
 8429W        W80045  19.585  14.348   3.328
 8430W        W80046  19.527  12.668   0.957
 8431W        W80047  25.917  38.053   1.492
 8432W        W80048  41.611  22.875   3.050
 8433W        W80049  38.049  25.831   2.466
 8434W        W80050   4.246  43.378  14.018
 8435W        W80051  27.622  40.145   1.007
 8436W        W80052  29.375  18.992  13.527
 8437W        W80053  40.963  21.636  10.557
 8438W        W80054   1.961   7.845   4.476
 8439W        W80055  20.796  18.011   1.180
 8440W        W80056   3.958  35.359   2.255
 8441W        W80057  14.179  18.488   4.190
 8442W        W80058  21.635  17.941   1.757
 8443W        W80059  24.195  33.143  13.891
 8444W        W80060  22.932  33.550   2.841
 8445W        W80061  37.548   6.810  14.914
 8446W        W80062  18.353  36.075   1.747
 8447W        W80063  23.477  37.392   0.241
 8448W        W80064  20.137  43.582  11.145
 8449W        W80065  17.242  39.324   0.570
 8450W        W80066  14.527   6.249   1.251
 8451W        W80067  41.566  32.474   0.867
 8452W        W80068  19.837  44.368   4.325
 8453W        W80069   8.868   7.336  11.187
 8454W        W80070  35.585  36.175   4.001
 8455W        W80071  36.861  35.984   2.887
 8456W        W80072   4.564  14.595   2.227
 8457W        W80073  43.606  27.917   3.709
 8458W        W80074  43.468  35.798   4.234
 8459W        W80075   2.243  16.100  13.305
 8460W        W80076  23.592  10.186  10.634
 8461W        W80077  34.564  40.550  14.208
 8462W        W80078  20.295  39.753   0.020
 8463W        W80079  39.074   6.754  11.533
 8464W        W80080  24.113  12.294  14.264
 8465W        W80081  10.907  17.703   4.242
 8466W        W80082   2.265  38.372   1.817
 8467W        W80083  35.614  42.008  11.844
 8468W        W80084  16.648   7.351   4.609
 8469W        W80085   7.089   7.813  14.243
 8470W        W80086  39.929  38.778   3.505
 8471W        W80087  37.242  12.752   3.866
 8472W        W80088  14.627   0.451  10.424
 8473W        W80089  37.349  43.247   0.529
 8474W        W80090  32.656   8.784   2.295
 8475W        W80091  36.523  29.459  14.804
 8476W        W80092  24.702  16.818  14.781
 8477W        W80093  25.063   0.997   4.516
 8478W        W80094  27.586  20.711  11.546
 8479W        W80095  26.950   1.866  12.495
 8480W        W80096  26.175  39.111  10.137
 8481W        W80097   7.419  31.552  12.055
 8482W        W80098  15.623  18.042  10.234
 8483W        W80099  38.348  21.271  13.381
 8484W        W80100  36.015   2.218  14.979
 8485W        W80101  16.681   9.769   2.391
 8486W        W80102   3.260  17.748   3.303
 8487W        W80103  17.120  29.193   2.812
 8488W        W80104  25.639  13.545   4.613
 8489W        W80105  31.975  27.628   3.737
 8490W        W80106  42.015  30.218   2.993
 8491W        W80107  10.894  37.807  12.338
 8492W        W80108  40.357  14.841  12.217
 8493W        W80109  26.838  24.304   0.308
 8494W        W80110   0.336  20.957  11.005
 8495W        W80111  16.741  36.557  14.834
 8496W        W80112  39.614  39.985  14.195
 8497W        W80113  17.090  44.462   5.123
 8498W        W80114   6.050  28.103   4.644
 8499W        W80115  33.319  44.288  11.210
 8500W        W80116  13.063  18.628  11.887
 8501W        W80117  15.209  22.782   0.432
 8502W        W80118   5.344  24.571  14.365
 8503W        W80119  13.450  33.850   0.234
 8504W        W80120  31.410  10.742   3.150
 8505W        W80121  32.649  15.803   2.326
 8506W        W80122  17.601  41.330   2.373
 8507W        W80123  39.084  15.823  13.142
 8508W        W80124  30.411   7.190   1.941
 8509W        W80125  37.309  30.719  12.266
 8510W        W80126  24.748  39.737   1.647
 8511W        W80127  20.014   0.901   3.473
 8512W        W80128   5.271  43.324   4.367
 8513W        W80129  14.246  35.511   3.611
 8514W        W80130  12.364  21.676   0.839
 8515W        W80131  10.878  25.668  13.917
 8516W        W80132  14.851  18.182   1.842
 8517W        W80133  31.440  32.940  10.710
 8518W        W80134  34.965  25.217   1.843
 8519W        W80135  15.289   4.024  14.956
 8520W        W80136  29.850  20.826   4.302
 8521W        W80137  40.409   5.279  10.786
 8522W        W80138  24.147  14.082   3.667
 8523W        W80139  16.001   9.161   1.350
 8524W        W80140  25.609   2.037  10.907
 8525W        W80141   9.302  27.812  12.332
 8526W        W80142  15.043  23.194  13.032
 8527W        W80143  17.922  43.483   4.105
 8528W        W80144  43.769  38.573   0.552
 8529W        W80145  43.240   1.837  12.638
 8530W        W80146  19.182  19.640   0.747
 8531W        W80147  18.146  34.677  12.746
 8532W        W80148   8.736   5.691   0.491
 8533W        W80149  29.568  40.523   0.930
 8534W        W80150  37.024  19.229  14.974
 8535W        W80151   9.154  42.323   3.209
 8536W        W80152  44.835  23.625  13.721
 8537W        W80153  13.255  31.665   4.130
 8538W        W80154  20.008   6.682  13.798
 8539W        W80155   1.421  22.505   1.420
 8540W        W80156  15.562  24.741  11.978
 8541W        W80157  12.674  28.748  11.665
 8542W        W80158   5.042  10.739   0.198
 8543W        W80159   0.613  31.568   1.847
 8544W        W80160   1.319  44.415  13.879
 8545W        W80161  43.461  22.697  12.827
 8546W        W80162   9.471  17.573  11.642
 8547W        W80163  36.887  44.511  14.409
 8548W        W80164   3.062  21.511  14.418
 8549W        W80165   5.428   4.189   1.647
 8550W        W80166  15.321  28.246   0.898
 8551W        W80167  37.877  43.900  14.001
 8552W        W80168  16.009  39.800   0.949
 8553W        W80169  44.798  11.077  13.528
 8554W        W80170  19.655  18.000  11.526
 8555W        W80171   2.273   5.316   3.332
 8556W        W80172   2.835   3.865   0.112
 8557W        W80173  13.873  24.196  13.881
 8558W        W80174  17.690   8.340  14.478
 8559W        W80175  36.989  31.987  13.365
 8560W        W80176  25.609  39.983   3.404
 8561W        W80177  22.476   7.852  13.341
 8562W        W80178  13.985  39.009  12.549
 8563W        W80179  32.356   3.761  12.598
 8564W        W80180  40.940  39.505  10.522
 8565W        W80181  36.264  37.473   4.691
 8566W        W80182  11.365  26.192  14.373
 8567W        W80183   4.391  25.182   1.133
 8568W        W80184  19.552  24.910   0.731
 8569W        W80185  42.687  29.090  11.567
 8570W        W80186  38.018  15.045  14.281
 8571W        W80187  32.326  32.661   3.238
 8572W        W80188  44.683  31.591  13.379
 8573W        W80189  29.605   6.622   0.901
 8574W        W80190  19.137  32.000  10.864
 8575W        W80191  19.651  42.200  10.230
 8576W        W80192  36.463   0.209   2.457
 8577W        W80193  13.510   2.349   2.620
 8578W        W80194  44.699  24.649  13.497
 8579W        W80195  28.217  20.088  11.920
 8580W        W80196   2.357  31.651   2.740
 8581W        W80197  27.202   8.523   4.460
 8582W        W80198  21.938  27.604  11.634
 8583W        W80199  30.138  15.682  14.903
 8584W        W80200   6.946  15.171  10.407
 8585W        W80201   4.427  24.468   0.378
 8586W        W80202   4.615  25.380   5.009
 8587W        W80203  12.192  39.045   1.259
 8588W        W80204  30.565  39.496  13.790
 8589W        W80205   7.460  17.239  13.927
 8590W        W80206  10.698  41.265  12.653
 8591W        W80207  44.246   1.727   2.174
 8592W        W80208  22.629  31.702   0.913
 8593W        W80209   8.388  21.606  10.686
 8594W        W80210  32.764  34.650   3.247
 8595W        W80211  42.035  38.975  10.176
 8596W        W80212  11.252  29.060  14.946
 8597W        W80213  22.727  31.391   1.356
 8598W        W80214  44.705  44.452  10.511
 8599W        W80215   4.919  44.462  13.875
 8600W        W80216  39.768  27.967  11.726
 8601W        W80217  12.073  28.321  10.429
 8602W        W80218   0.713  34.074   3.648
 8603W        W80219  41.685  27.252   3.626
 8604W        W80220  11.414  41.587   2.757
 8605W        W80221  17.029  33.858  13.784
 8606W        W80222   7.907  10.838  14.215
 8607W        W80223  42.181   6.523   2.329
 8608W        W80224   2.851  16.076  14.919
 8609W        W80225  19.832  20.658   0.122
 8610W        W80226  34.452  28.679  14.318
 8611W        W80227   5.435  31.071  14.717
 8612W        W80228  39.849  19.677  10.895
 8613W        W80229  22.788  36.557   2.288
 8614W        W80230  26.738   2.207   3.772
 8615W        W80231  10.297  10.788  13.041
 8616W        W80232  42.515   1.556   1.467
 8617W        W80233  19.504  26.528   0.235
 8618W        W80234   5.011  33.389   2.795
 8619W        W80235   3.437   7.346  10.670
 8620W        W80236   8.091  31.912  12.523
 8621W        W80237  11.421  43.488  13.110
 8622W        W80238  25.033  20.533   2.779
 8623W        W80239   0.966  23.884   1.239
 8624W        W80240  44.086   3.044   2.661
 8625W        W80241   7.500  41.526  10.800
 8626W        W80242  31.086   8.241   3.228
 8627W        W80243   2.801  26.575   4.026
 8628W        W80244  32.875  30.517  13.558
 8629W        W80245  19.600  11.712   4.642
 8630W        W80246  36.490  30.662  13.516
 8631W        W80247  34.643  16.716   4.387
 8632W        W80248  15.818  23.577  13.049
 8633W        W80249  26.176  39.770   0.499
 8634W        W80250  12.681  13.388  10.406
 8635W        W80251  15.549  12.172   1.422
 8636W        W80252  25.464  30.567  13.832
 8637W        W80253  38.970   1.938   0.948
 8638W        W80254  30.952   7.700  13.395
 8639W        W80255  21.448  26.103  13.468
 8640W        W80256   6.697  11.068  14.952
 8641W        W80257  44.734  30.701  12.088
 8642W        W80258  24.193  39.776  11.434
 8643W        W80259  28.233  22.579   0.193
 8644W        W80260  11.826   0.470  12.063
 8645W        W80261  13.682  13.910   3.931
 8646W        W80262  39.163  35.892  14.689
 8647W        W80263   6.395   6.313   1.425
 8648W        W80264  33.513  19.530  11.551
 8649W        W80265  43.410   1.422   0.361
 8650W        W80266  16.613  16.656  11.567
 8651W        W80267  24.211   8.407  13.511
 8652W        W80268  26.117  34.454   1.737
 8653W        W80269   7.225  42.432   3.620
 8654W        W80270  37.834   9.642   3.125
 8655W        W80271  18.324   5.188   1.695
 8656W        W80272  22.238  44.796   3.308
 8657W        W80273  20.064  30.939   2.883
 8658W        W80274  24.632  32.538  11.459
 8659W        W80275   6.981  15.456   1.456
 8660W        W80276  41.853  18.735  12.104
 8661W        W80277   8.196  19.893  12.544
 8662W        W80278  35.606   6.921   3.759
 8663W        W80279  37.574   6.260   0.023
 8664W        W80280  43.068  14.206  13.469
 8665W        W80281   7.312   1.436   1.183
 8666W        W80282  11.508  13.209   1.431
 8667W        W80283  12.352   3.395  12.121
 8668W        W80284  24.997   2.457  13.551
 8669W        W80285   6.303  41.542   2.951
 8670W        W80286  12.241  38.116  11.467
 8671W        W80287   3.484  29.592   2.703
 8672W        W80288  32.891  16.860  10.610
 8673W        W80289  17.183  29.209  13.083
 8674W        W80290  13.854   8.725   4.634
 8675W        W80291   0.908  17.308   3.707
 8676W        W80292   4.222  13.092  12.968
 8677W        W80293  32.207  32.569  10.800
 8678W        W80294  22.598  38.050   0.021
 8679W        W80295  37.830  37.852  12.563
 8680W        W80296  36.511   2.311  13.916
 8681W        W80297  39.781  29.406  12.931
 8682W        W80298  43.558   2.406  11.509
 8683W        W80299  13.865   3.138   4.536
 8684W        W80300  15.503  30.749  13.496
 8685W        W80301  31.504  24.736   2.105
 8686W        W80302  42.975   9.505   1.205
 8687W        W80303  10.262   8.258   3.664
 8688W        W80304  41.890  28.720   2.831
 8689W        W80305  36.980   2.219   4.902
 8690W        W80306  15.226  41.012   4.011
 8691W        W80307  14.184  33.203   1.865
 8692W        W80308  22.641  15.823   2.419
 8693W        W80309  29.934   0.825  13.165
 8694W        W80310  17.201  26.043   1.574
 8695W        W80311  31.380   2.892   4.988
 8696W        W80312  18.998  17.702   2.485
 8697W        W80313   9.772  33.429   3.949
 8698W        W80314   2.918  28.889   4.018
 8699W        W80315  24.634  34.046  10.690
 8700W        W80316  43.312  10.870  13.370
 8701W        W80317  37.800  31.436  12.121
 8702W        W80318  41.905  34.765   1.384
 8703W        W80319  21.530   7.397   4.644
 8704W        W80320  28.468   4.395  13.880
 8705W        W80321  20.751  27.590   0.776
 8706W        W80322  24.182  31.889  13.819
 8707W        W80323  37.004   2.463  13.874
 8708W        W80324  27.921  18.536   2.139
 8709W        W80325  19.023  31.497  10.840
 8710W        W80326  43.741  10.279  11.608
 8711W        W80327  12.732  39.908   1.257
 8712W        W80328  38.601  12.677  13.085
 8713W        W80329  33.463  34.057   2.960
 8714W        W80330   1.019  42.190  12.349
 8715W        W80331   7.160   8.162   2.299
 8716W        W80332  16.388  18.137  12.323
 8717W        W80333  27.019  43.982   3.100
 8718W        W80334  22.111  29.444   2.677
 8719W        W80335   9.793   9.444   1.685
 8720W        W80336  38.399   2.145  14.951
 8721W        W80337  36.928  13.392   0.254
 8722W        W80338   8.772  13.843  13.937
 8723W        W80339  22.867  41.838   2.965
 8724W        W80340  35.918  39.252   2.896
 8725W        W80341  34.488  42.239  13.884
 8726W        W80342  16.575  12.898  11.044
 8727W        W80343  37.587  11.061   1.262
 8728W        W80344  14.123  17.642   1.776
 8729W        W80345   9.123  23.458   1.069
 8730W        W80346  38.067  32.992  14.427
 8731W        W80347  42.776   2.751  13.528
 8732W        W80348  19.390   4.823  10.961
 8733W        W80349   3.801  17.568   2.283
 8734W        W80350  13.258  31.379   0.365
 8735W        W80351  28.641  12.258  10.722
 8736W        W80352  14.208   2.531   5.128
 8737W        W80353   0.896  37.041   1.740
 8738W        W80354  17.792  44.819  11.573
 8739W        W80355  32.196  21.250   2.602
 8740W        W80356   2.115  15.533  12.505
 8741W        W80357   0.034  41.308   2.303
 8742W        W80358  25.369  37.278   4.080
 8743W        W80359  25.151  33.652   1.886
 8744W        W80360  20.987  21.583  11.301
 8745W        W80361   0.676   0.814  11.054
 8746W        W80362  12.099  40.865  11.621
 8747W        W80363  21.519  28.145  13.787
 8748W        W80364  21.431   6.774   2.183
 8749W        W80365  23.993  11.932  10.781
 8750W        W80366   1.268   3.294  14.932
 8751W        W80367  44.473  25.412   0.921
 8752W        W80368  21.720  17.311   3.868
 8753W        W80369  33.061   7.540   3.233
 8754W        W80370   1.206   3.490  11.927
 8755W        W80371  38.039   8.020  12.269
 8756W        W80372   0.915  28.574  13.297
 8757W        W80373  16.226  18.882  10.134
 8758W        W80374  14.971   8.725   3.736
 8759W        W80375  16.258  37.042  14.474
 8760W        W80376   8.626   2.814   3.173
 8761W        W80377  41.354  20.763  12.426
 8762W        W80378  39.961  37.002  12.782
 8763W        W80379  44.433  42.481   1.273
 8764W        W80380  11.371  41.884  11.125
 8765W        W80381  41.834   3.797   1.689
 8766W        W80382  17.264  38.084  11.678
 8767W        W80383  16.562  19.280  14.413
 8768W        W80384  35.509  23.827  11.290
 8769W        W80385   4.389  39.335  10.462
 8770W        W80386   9.760  36.656   0.864
 8771W        W80387  23.715   5.839  14.441
 8772W        W80388  27.281  35.876  11.092
 8773W        W80389  42.906  25.723  12.804
 8774W        W80390  31.618  35.373  14.867
 8775W        W80391  23.043  11.235   0.034
 8776W        W80392  11.196  15.622  13.506
 8777W        W80393  19.320  33.427   2.354
 8778W        W80394  42.268  28.004   0.274
 8779W        W80395  18.857  10.234  12.781
 8780W        W80396  34.010  28.558   2.152
 8781W        W80397  16.787  43.415   0.744
 8782W        W80398   4.771  20.262  11.534
 8783W        W80399  11.531  38.994  13.789
 8784W        W80400  37.130  31.703   1.341
 8785W        W80401  32.163  28.588   0.011
 8786W        W80402  28.543  13.122   0.821
 8787W        W80403  36.236  33.998   0.468
 8788W        W80404  13.887  29.434   2.437
 8789W        W80405  32.052  33.185  11.891
 8790W        W80406  19.618  18.523  14.866
 8791W        W80407   7.248  39.564  10.589
 8792W        W80408  28.511  22.686  14.019
 8793W        W80409  20.634  15.593  12.447
 8794W        W80410   4.746   8.827   2.358
 8795W        W80411   7.252  43.782   1.394
 8796W        W80412   2.117   3.296  12.114
 8797W        W80413  20.165  40.084   3.743
 8798W        W80414  43.085   5.364   3.907
 8799W        W80415  10.160  20.514   2.371
 8800W        W80416  36.002  36.557   3.301
 8801W        W80417  25.533   5.936  11.029
 8802W        W80418  29.496  44.311  10.542
 8803W        W80419  25.598  36.084  13.566
 8804W        W80420   0.482  18.684  14.342
 8805W        W80421  17.558  41.775   4.705
 8806W        W80422   9.299   5.396   4.222
 8807W        W80423  10.265   1.394  10.141
 8808W        W80424   5.702  30.610  10.591
 8809W        W80425  43.232   3.855   0.794
 8810W        W80426  12.393  17.809  10.691
 8811W        W80427  17.270  43.500  13.984
 8812W        W80428  38.935  39.598  11.639
 8813W        W80429  11.950  39.423   4.674
 8814W        W80430  13.893   7.316   1.878
 8815W        W80431  32.870  18.842   3.839
 8816W        W80432  35.910  36.061   3.364
 8817W        W80433  14.833  16.862   1.001
 8818W        W80434  40.898  12.226   1.858
 8819W        W80435  10.919  21.552   3.825
 8820W        W80436  18.630  42.876   0.812
 8821W        W80437  22.788  13.284   3.749
 8822W        W80438   7.936  20.064   1.395
 8823W        W80439  29.396  40.314   1.392
 8824W        W80440  10.590  20.778   2.302
 8825W        W80441  14.892   0.330   3.691
 8826W        W80442   6.203  24.535  13.296
 8827W        W80443  31.209  30.119   5.017
 8828W        W80444  21.626  37.799   0.863
 8829W        W80445  43.605  38.017   2.000
 8830W        W80446   7.416  39.491  14.010
 8831W        W80447  19.666  18.963   1.876
 8832W        W80448  26.257  20.671  14.519
 8833W        W80449   2.871  21.752   3.782
 8834W        W80450  44.042  34.587   2.154
 8835W        W80451  21.404  40.035  13.884
 8836W        W80452  29.421  41.398  14.563
 8837W        W80453  14.766  22.287  14.805
 8838W        W80454  34.242  16.476  13.460
 8839W        W80455  36.145  37.388  14.071
 8840W        W80456  42.153  43.965   2.175
 8841W        W80457  21.124  26.227  13.840
 8842W        W80458  44.256   4.182   2.865
 8843W        W80459  37.537   5.740  10.641
 8844W        W80460   2.317  40.385   0.863
 8845W        W80461   2.620  43.356   1.360
 8846W        W80462  19.897  32.026   2.836
 8847W        W80463  10.839  29.022  11.663
 8848W        W80464   9.513  24.791   3.637
 8849W        W80465  21.947  29.939  12.998
 8850W        W80466  18.861  27.886   3.326
 8851W        W80467  40.086  31.523  11.888
 8852W        W80468  19.255  22.103   0.088
 8853W        W80469  28.161  19.767   2.340
 8854W        W80470   8.574  29.525   4.581
 8855W        W80471  37.145  41.273  11.096
 8856W        W80472  30.447  19.827  11.130
 8857W        W80473  30.386  25.975  12.626
 8858W        W80474  42.750  22.813  11.070
 8859W        W80475   4.426  21.179  14.604
 8860W        W80476  10.389  17.116   5.187
 8861W        W80477   6.318  30.625  12.835
 8862W        W80478  39.019  15.355  13.445
 8863W        W80479  27.262  18.679   1.380
 8864W        W80480  43.847  28.010   3.241
 8865W        W80481  14.566  19.152   4.588
 8866W        W80482   8.127   9.137   3.537
 8867W        W80483  18.774   7.681  10.741
 8868W        W80484  31.034  21.324  14.440
 8869W        W80485  25.922  10.329   3.746
 8870W        W80486  13.483  12.020  13.536
 8871W        W80487   5.669   6.774   3.610
 8872W        W80488  30.151   4.362   1.700
 8873W        W80489  13.621  10.285   2.606
 8874W        W80490   0.535   4.448  13.827
 8875W        W80491  42.356   3.926  11.141
 8876W        W80492  32.738  42.023  14.692
 8877W        W80493  19.669   2.996   1.893
 8878W        W80494  16.662  22.760  11.828
 8879W        W80495  37.986   5.872   1.736
 8880W        W80496   0.108  30.810   4.478
 8881W        W80497  21.040   2.733   2.241
 8882W        W80498  20.284   3.900  13.052
 8883W        W80499  12.306  38.967  11.424
 8884W        W80500  39.863  23.669   0.799
 8885W        W80501  36.109  43.080  14.775
 8886W        W80502  20.620  19.004  12.417
 8887W        W80503  25.782  23.243   0.441
 8888W        W80504  43.934   0.274  14.355
 8889W        W80505  10.363  32.327   3.294
 8890W        W80506   4.961  32.957   0.601
 8891W        W80507  30.360  33.818  14.424
 8892W        W80508  33.617  37.831   4.543
 8893W        W80509   3.232   2.819   0.835
 8894W        W80510  13.574  41.365  11.082
 8895W        W80511   4.018  16.317  13.571
 8896W        W80512  24.603  29.713  13.349
 8897W        W80513  16.603  31.514   4.819
 8898W        W80514  31.860  32.988   0.024
 8899W        W80515  25.042  17.526  11.240
 8900W        W80516  25.791  22.232  14.390
 8901W        W80517   2.763  35.876   2.415
 8902W        W80518  18.823  27.497   1.977
 8903W        W80519  33.528  31.104   3.519
 8904W        W80520  27.801  24.893  11.052
 8905W        W80521   4.220  30.872   4.153
 8906W        W80522  43.015   3.126   1.172
 8907W        W80523   8.084  27.863   4.619
 8908W        W80524  13.800  30.125  13.797
 8909W        W80525  19.970  16.771  13.043
 8910W        W80526  31.699  41.975   0.032
 8911W        W80527   1.805  28.124   4.687
 8912W        W80528  20.733  35.864   3.666
 8913W        W80529  15.224  17.848  11.383
 8914W        W80530  21.034  30.459   3.772
 8915W        W80531  15.547  39.091  13.312
 8916W        W80532  40.492  13.679  13.957
 8917W        W80533  36.740  12.728   2.078
 8918W        W80534  31.386  31.304   3.675
 8919W        W80535  10.097  42.299   4.169
 8920W        W80536  13.466  15.190  11.113
 8921W        W80537  39.882  35.283   2.356
 8922W        W80538   1.056  24.011  13.909
 8923W        W80539   4.390  10.263  14.272
 8924W        W80540  40.645   3.742  14.616
 8925W        W80541  22.237  34.497   4.311
 8926W        W80542  27.751  19.251  11.575
 8927W        W80543   6.001  10.749  11.116
 8928W        W80544   0.350   7.427   1.467
 8929W        W80545  16.337  39.349  12.453
 8930W        W80546   5.842  19.763   0.406
 8931W        W80547   4.650  21.229  14.133
 8932W        W80548  41.285  44.465   3.274
 8933W        W80549  40.727  16.106  11.925
 8934W        W80550  11.444   9.840  10.564
 8935W        W80551   2.395  42.309   1.381
 8936W        W80552  25.625  36.036   1.193
 8937W        W80553  16.359  25.904   2.135
 8938W        W80554  26.571   9.326  14.024
 8939W        W80555  35.107  21.113  11.114
 8940W        W80556  30.162  33.865   1.228
 8941W        W80557  29.111  26.623  13.588
 8942W        W80558  12.357  39.295  12.205
 8943W        W80559  13.614  20.574   1.293
 8944W        W80560  18.845  25.582  13.467
 8945W        W80561  28.972  44.036  12.100
 8946W        W80562  39.731  22.253   4.938
 8947W        W80563  26.882  44.774   0.988
 8948W        W80564  37.068  12.583  11.200
 8949W        W80565  37.168  36.618  13.048
 8950W        W80566  27.197   7.606  13.930
 8951W        W80567  37.550  30.214   3.797
 8952W        W80568   9.322  11.114   0.845
 8953W        W80569  16.784  38.915   3.328
 8954W        W80570  19.971  44.258   2.702
 8955W        W80571  26.493  41.848   0.272
 8956W        W80572  24.679  30.621  12.282
 8957W        W80573  21.190  26.386   2.860
 8958W        W80574  38.855   1.105  11.643
 8959W        W80575   0.912  12.494   1.670
 8960W        W80576  34.957  44.867   1.262
 8961W        W80577   5.612  13.295   1.780
 8962W        W80578  13.009  15.212  12.810
 8963W        W80579  36.540   7.877   1.481
 8964W        W80580  14.765  44.731  13.155
 8965W        W80581   6.780  43.409   2.669
 8966W        W80582  40.354  23.656  14.908
 8967W        W80583  21.765  38.320   0.887
 8968W        W80584  29.022  32.437  12.196
 8969W        W80585  42.986   0.377  10.682
 8970W        W80586  11.859  24.728  14.124
 8971W        W80587  16.004  27.153  11.268
 8972W        W80588  21.134  43.533   2.661
 8973W        W80589  28.484   8.823  12.760
 8974W        W80590  37.430  10.707   3.756
 8975W        W80591  23.541   9.691   4.129
 8976W        W80592  40.552   7.970  12.098
 8977W        W80593  33.028  44.703  12.754
 8978W        W80594  34.221  32.022  13.340
 8979W        W80595   9.288  14.247   4.097
 8980W        W80596  39.826  20.057   2.188
 8981W        W80597  34.393  32.086   5.093
 8982W        W80598  24.251  23.523  11.614
 8983W        W80599  42.444  10.169   4.155
 8984W        W80600  43.809   9.353  14.496
 8985W        W80601   0.016  17.296  13.965
 8986W        W80602  29.639  13.248  13.806
 8987W        W80603  17.180  27.716   0.682
 8988W        W80604   4.000  11.864   3.657
 8989W        W80605  18.519  39.083   0.753
 8990W        W80606  12.077  41.262   4.588
 8991W        W80607  22.338  10.935   0.840
 8992W        W80608   1.341  41.451  13.796
 8993W        W80609  23.484  20.546  14.945
 8994W        W80610  32.702  35.996  13.353
 8995W        W80611  43.326  29.694  11.953
 8996W        W80612  38.838  37.490   2.935
 8997W        W80613  27.009   5.877  12.416
 8998W        W80614  11.936  14.539  10.732
 8999W        W80615   7.560  27.712  10.421
 9000W        W80616  24.551   4.765  12.026
 9001W        W80617  12.390  18.208  14.485
 9002W        W80618  43.888  36.559  14.360
 9003W        W80619  29.729  20.254   2.710
 9004W        W80620  25.947  28.364  12.594
 9005W        W80621   1.836   6.496  12.066
 9006W        W80622  22.138  11.189   3.619
 9007W        W80623   5.180  19.171  12.020
 9008W        W80624  20.592   3.433  12.551
 9009W        W80625  13.076  10.635   2.250
 9010W        W80626  20.708   4.145   1.398
 9011W        W80627   7.390  17.487   4.626
 9012W        W80628  16.756  28.405  14.093
 9013W        W80629  23.189  11.265   0.542
 9014W        W80630  44.921  14.545  12.499
 9015W        W80631  37.084  24.815   4.503
 9016W        W80632  10.987  24.781  12.025
 9017W        W80633  30.823  33.492  14.452
 9018W        W80634  41.889  19.580  13.435
 9019W        W80635  13.895  11.300   1.052
 9020W        W80636   2.426  34.719  11.778
 9021W        W80637  17.179  25.609   4.837
 9022W        W80638  15.178   2.088   3.049
 9023W        W80639  40.828  29.461  13.808
 9024W        W80640  23.707  23.989  10.410
 9025W        W80641  16.537   3.783   4.610
 9026W        W80642  20.506  21.720   1.893
 9027W        W80643  15.297  26.362   3.044
 9028W        W80644  28.452   5.407   4.440
 9029W        W80645  44.217  43.715  13.121
 9030W        W80646  12.825  14.933   4.184
 9031W        W80647   0.839   3.860   1.792
 9032W        W80648  24.521   3.463  13.398
 9033W        W80649  37.407  40.468   4.613
 9034W        W80650  13.287  31.891   3.261
 9035W        W80651  14.022  11.838  14.893
 9036W        W80652  20.174  18.062   0.050
 9037W        W80653  20.334   1.038  12.954
 9038W        W80654  18.195  10.240   1.705
 9039W        W80655  10.068  21.223   3.655
 9040W        W80656  39.485  22.437  12.396
 9041W        W80657  22.512  19.507  11.681
 9042W        W80658  28.529  24.536  10.625
 9043W        W80659  38.550  41.278  11.062
 9044W        W80660  37.557  23.668   0.469
 9045W        W80661  16.400  13.924   1.704
 9046W        W80662  25.795  10.156   1.721
 9047W        W80663  44.814   2.854   3.920
 9048W        W80664  30.370  23.290   3.802
 9049W        W80665  18.351  35.175  14.693
 9050W        W80666  20.953  15.701   0.706
 9051W        W80667  11.389   1.726  10.986
 9052W        W80668  42.286   4.202   3.455
 9053W        W80669   2.677   5.479   1.872
 9054W        W80670  32.702  19.240  14.867
 9055W        W80671  26.262  44.006  11.112
 9056W        W80672   1.405  40.927  12.088
 9057W        W80673  40.570  18.220   1.668
 9058W        W80674   8.902  11.604  12.035
 9059W        W80675  21.465  20.134   3.255
 9060W        W80676  18.548  32.500  12.007
 9061W        W80677  42.015  32.640  12.977
 9062W        W80678   2.173  15.675  11.597
 9063W        W80679  15.488  42.577   3.995
 9064W        W80680  20.576  29.920   0.386
 9065W        W80681  33.064   1.949   1.330
 9066W        W80682  23.741  16.539  14.637
 9067W        W80683  32.518  32.468  11.648
 9068W        W80684  12.331  14.724  11.039
 9069W        W80685  16.115  17.102  11.086
 9070W        W80686  27.035  34.456  10.745
 9071W        W80687  35.469  18.280   3.174
 9072W        W80688   5.731  28.076  10.971
 9073W        W80689  21.683  24.082   1.742
 9074W        W80690  25.244   2.181  11.782
 9075W        W80691  32.980  41.932   1.703
 9076W        W80692   0.401  44.266   4.906
 9077W        W80693  28.422  40.518   0.501
 9078W        W80694  38.144  12.209  13.730
 9079W        W80695  23.612   7.197  14.099
 9080W        W80696   9.094  29.942  13.999
 9081W        W80697  44.558  34.238  14.749
 9082W        W80698  35.374  13.038  13.906
 9083W        W80699  39.344  10.393  13.812
 9084W        W80700   9.407  23.932  13.743
 9085W        W80701  34.786  37.030   1.341
 9086W        W80702  28.853  30.505   0.305
 9087W        W80703  24.174  24.270   4.061
 9088W        W80704  24.013   6.655  11.920
 9089W        W80705  43.881  24.509  11.619
 9090W        W80706  13.736  29.857  11.497
 9091W        W80707   5.463  22.992   2.291
 9092W        W80708  44.231  30.346  12.213
 9093W        W80709  41.047  10.754  13.028
 9094W        W80710  27.067  36.333   1.862
 9095W        W80711  35.981   4.868   4.286
 9096W        W80712  24.647  17.634  11.909
 9097W        W80713  44.737  10.196   4.838
 9098W        W80714   4.017  36.833   2.466
 9099W        W80715   9.761  35.901   2.874
 9100W        W80716  16.576  10.992   0.298
 9101W        W80717   7.824  31.682   4.411
 9102W        W80718  29.603  11.912   2.694
 9103W        W80719   0.954   9.300  12.978
 9104W        W80720  36.045  44.060  12.437
 9105W        W80721  20.510  27.563  12.022
 9106W        W80722  16.471  11.693  13.845
 9107W        W80723  15.378   6.329  11.846
 9108W        W80724  29.494  15.669  11.456
 9109W        W80725  26.042  42.076  11.184
 9110W        W80726  35.285  44.253   4.165
 9111W        W80727  17.551  43.147  14.215
 9112W        W80728  30.494  12.024   1.827
 9113W        W80729  20.678  11.912  14.518
 9114W        W80730  16.603  11.582  10.364
 9115W        W80731  12.784  33.369  12.047
 9116W        W80732  35.571   0.261   0.897
 9117W        W80733  24.064   8.880   0.372
 9118W        W80734  38.334  41.778  14.802
 9119W        W80735  42.357  37.823  12.440
 9120W        W80736  21.083  21.221  10.786
 9121W        W80737   1.299  33.937   4.843
 9122W        W80738  44.799  34.500   2.801
 9123W        W80739  11.180  29.943  14.115
 9124W        W80740  40.310  33.289  10.601
 9125W        W80741  11.802  19.812  11.706
 9126W        W80742   7.783  18.717  13.117
 9127W        W80743   6.698  29.760   1.196
 9128W        W80744   4.915   2.389  13.469
 9129W        W80745   3.036  21.330   4.742
 9130W        W80746   2.441  42.305   2.321
 9131W        W80747  44.053   5.930   3.086
 9132W        W80748   4.851  38.091   0.314
 9133W        W80749   9.438   4.836  12.454
 9134W        W80750  19.827  41.880   2.754
 9135W        W80751  38.710  28.652  11.065
 9136W        W80752   7.104  29.597  10.802
 9137W        W80753  16.759  13.149  13.785
 9138W        W80754  40.332  38.585  12.876
 9139W        W80755   1.273  15.849   1.956
 9140W        W80756   7.867   4.016  12.336
 9141W        W80757  36.587   5.663  14.909
 9142W        W80758  17.640  16.510  12.940
 9143W        W80759  11.097  36.671   1.789
 9144W        W80760  16.786  21.086  10.678
 9145W        W80761  36.422   1.574  13.428
 9146W        W80762  44.154   5.403   3.134
 9147W        W80763  28.898   2.527  11.102
 9148W        W80764  24.542  12.816  10.731
 9149W        W80765  28.163  16.544   3.328
 9150W        W80766   9.424  32.162  11.545
 9151W        W80767  30.581  26.295   0.851
 9152W        W80768  21.439   8.608  12.876
 9153W        W80769  40.818  24.628  14.880
 9154W        W80770  22.230  22.652   4.607
 9155W        W80771  23.682  44.747   2.748
 9156W        W80772  42.902  44.706  11.400
 9157W        W80773   1.340  19.595  14.822
 9158W        W80774   5.852  34.981   0.503
 9159W        W80775   0.092  41.094   4.663
 9160W        W80776  10.786   4.605  12.779
 9161W        W80777  32.006  32.435  14.182
 9162W        W80778   7.313   6.022   2.363
 9163W        W80779  31.514  13.183  13.707
 9164W        W80780  35.065  35.386   0.409
 9165W        W80781  19.011  10.620  14.426
 9166W        W80782  32.929  18.194  14.818
 9167W        W80783  12.058  20.067   4.578
 9168W        W80784  22.445  17.510  13.413
 9169W        W80785  36.470  38.269  11.996
 9170W        W80786  14.711  25.445  14.216
 9171W        W80787   5.889  13.162   1.294
 9172W        W80788   5.316  43.361  11.839
 9173W        W80789  30.859   5.375   4.197
 9174W        W80790   7.846  39.402  12.604
 9175W        W80791  26.938  26.185  14.771
 9176W        W80792  10.716   5.455   4.883
 9177W        W80793  17.231  12.729  11.667
 9178W        W80794   7.789   0.796   1.800
 9179W        W80795   2.324  21.850  12.012
 9180W        W80796  22.315  21.137   3.741
 9181W        W80797  36.847  40.429  12.075
 9182W        W80798  17.118  43.284   4.415
 9183W        W80799  13.070  13.480  11.331
 9184W        W80800  20.186  26.049   4.364
 9185W        W80801  17.480  12.630  14.273
 9186W        W80802  31.563  44.725   2.348
 9187W        W80803  42.376   7.995   0.481
 9188W        W80804  17.335   7.997  14.309
 9189W        W80805  41.866  36.130   5.011
 9190W        W80806  40.296  26.240   4.081
 9191W        W80807   2.992  42.434   3.560
 9192W        W80808   3.705  11.732  10.182
 9193W        W80809  33.934  28.101   2.421
 9194W        W80810  27.169  16.571  11.614
 9195W        W80811  24.931  27.441   2.816
 9196W        W80812   6.338  22.283   4.780
 9197W        W80813  23.763  11.220  13.751
 9198W        W80814   1.253  11.356  12.065
 9199W        W80815   3.243  29.660  13.077
 9200W        W80816  43.187  24.704   3.335
 9201W        W80817  35.419  28.975  14.773
 9202W        W80818   6.805  11.203  11.612
 9203W        W80819  28.673  36.981  11.503
 9204W        W80820   9.183  27.694  10.675
 9205W        W80821   7.676  14.262   1.770
 9206W        W80822  17.530  30.237   1.382
 9207W        W80823  31.345   1.234  12.918
 9208W        W80824  39.701  15.199  11.125
 9209W        W80825  41.408  26.958   0.775
 9210W        W80826   6.809   8.274  12.921
 9211W        W80827  13.377  28.075   2.408
 9212W        W80828   1.511  32.630   4.176
 9213W        W80829  33.036  10.126   0.791
 9214W        W80830   6.553   7.792  12.229
 9215W        W80831   4.317  24.050   3.261
 9216W        W80832  17.644  38.919  12.807
 9217W        W80833  44.893  42.519  11.852
 9218W        W80834  37.817   7.411  14.519
 9219W        W80835  42.777  15.639  10.737
 9220W        W80836  23.059  38.918   1.802
 9221W        W80837   8.755  26.421   4.303
 9222W        W80838  13.961  22.652   4.559
 9223W        W80839  14.191   1.954   2.222
 9224W        W80840   1.746   8.999   2.004
 9225W        W80841  25.127  33.939   0.299
 9226W        W80842   6.861  32.838  10.535
 9227W        W80843  33.112   1.928  10.131
 9228W        W80844   4.745   1.065  14.885
 9229W        W80845   6.716  30.377  12.635
 9230W        W80846  20.085  14.315  10.611
 9231W        W80847   8.599  44.216  13.344
 9232W        W80848  40.503  26.452   4.504
 9233W        W80849  27.985   3.307  13.960
 9234W        W80850   2.900   7.648   4.697
 9235W        W80851   2.354  40.993   3.668
 9236W        W80852   0.554   0.612   2.275
 9237W        W80853  41.310  38.526  10.645
 9238W        W80854  11.753  38.279   0.905
 9239W        W80855  11.643  13.281   0.032
 9240W        W80856  23.040  26.201   3.223
 9241W        W80857   6.388  13.460   4.149
 9242W        W80858  12.694  41.793  10.625
 9243W        W80859   9.886  31.970  13.874
 9244W        W80860  16.404   6.401   4.993
 9245W        W80861  17.619  27.568  11.869
 9246W        W80862  31.319  30.899  14.301
 9247W        W80863  38.576  39.902   1.395
 9248W        W80864  16.697  29.725   2.318
 9249W        W80865  40.630   4.696   4.601
 9250W        W80866  13.644  21.118   4.916
 9251W        W80867  39.922  41.296  12.195
 9252W        W80868  38.325   3.700  12.488
 9253W        W80869   9.571  35.201  10.861
 9254W        W80870  20.178  36.387   5.041
 9255W        W80871  18.690  30.455  12.261
 9256W        W80872  16.219  30.104   4.401
 9257W        W80873  42.975   3.650   1.280
 9258W        W80874  30.382  14.233   4.230
 9259W        W80875  37.017  30.131   1.316
 9260W        W80876  15.247  11.872   1.723
 9261W        W80877  21.040  27.145  10.982
 9262W        W80878  28.485  38.643  13.534
 9263W        W80879  42.825  27.221   0.768
 9264W        W80880  33.120  16.472   3.128
 9265W        W80881  21.907  44.080  12.041
 9266W        W80882  11.828  29.498   0.692
 9267W        W80883  14.143  37.453  12.080
 9268W        W80884  39.517  38.109   2.762
 9269W        W80885  22.882   8.877  10.558
 9270W        W80886  43.885  34.067  13.590
 9271W        W80887  12.868  20.100   4.253
 9272W        W80888   8.226  19.074   4.646
 9273W        W80889  11.893   7.456  13.977
 9274W        W80890  31.498  10.054  14.146
 9275W        W80891  32.208  40.673   1.015
 9276W        W80892  10.753  33.950   0.390
 9277W        W80893   5.819   7.333  11.314
 9278W        W80894  43.131  35.353  14.629
 9279W        W80895  20.597   3.948   3.179
 9280W        W80896  23.636  10.568   4.683
 9281W        W80897   1.533  37.942   4.407
 9282W        W80898   8.966  13.257  12.143
 9283W        W80899  20.795  13.692  13.335
 9284W        W80900  44.256  15.873  13.045
 9285W        W80901  44.371  13.117  14.396
 9286W        W80902   8.700  41.030   2.721
 9287W        W80903  20.610  25.452   2.139
 9288W        W80904  40.184  12.840   4.534
 9289W        W80905   5.560   0.847  13.540
 9290W        W80906  36.404  10.402   0.841
 9291W        W80907  27.046  39.834  14.427
 9292W        W80908  44.562  41.470  13.139
 9293W        W80909  21.219  31.056  12.873
 9294W        W80910  15.784  38.534  14.454
 9295W        W80911  38.893  31.262  11.422
 9296W        W80912  22.120  22.779  14.300
 9297W        W80913  23.786   1.869  10.350
 9298W        W80914  30.942  30.575  11.464
 9299W        W80915  32.849   4.221   1.403
 9300W        W80916  23.440  38.218  13.936
 9301W        W80917  11.063  33.986   3.558
 9302W        W80918  10.693  19.787   1.452
 9303W        W80919  10.675  18.266  11.642
 9304W        W80920   4.055   6.450  14.557
 9305W        W80921  23.065  29.066   4.399
 9306W        W80922  11.311  32.128   1.291
 9307W        W80923  20.473  10.498  14.464
 9308W        W80924  22.824  21.687  10.739
 9309W        W80925   5.576  43.601   2.229
 9310W        W80926  36.460   7.201   1.855
 9311W        W80927   3.774  24.492   4.111
 9312W        W80928  22.221  17.057   0.425
 9313W        W80929  14.376  12.544  10.830
 9314W        W80930  22.891  36.373  10.574
 9315W        W80931   4.738  37.379   1.965
 9316W        W80932  18.041   6.200  13.288
 9317W        W80933  40.618   8.355   0.939
 9318W        W80934  14.082   7.626  11.341
 9319W        W80935  19.533  41.019  12.454
 9320W        W80936  31.947  43.939  13.709
 9321W        W80937   8.802  42.551  11.496
 9322W        W80938  35.968  22.133   0.226
 9323W        W80939  21.688  18.588   3.599
 9324W        W80940  35.945   4.273   0.735
 9325W        W80941   4.839  35.793   2.754
 9326W        W80942  19.594  27.163   2.897
 9327W        W80943  43.494  29.448   2.743
 9328W        W80944   2.686   2.921   4.824
 9329W        W80945  20.740  31.094  12.634
 9330W        W80946  21.292  35.024   1.332
 9331W        W80947  28.188  19.149   1.318
 9332W        W80948   7.709  29.603  13.906
 9333W        W80949  21.348   9.880   1.061
 9334W        W80950  29.650   1.698  14.818
 9335W        W80951  43.825  12.947   2.344
 9336W        W80952  16.766  36.486   2.152
 9337W        W80953  12.295   0.036   4.258
 9338W        W80954  41.244   3.507  13.641
 9339W        W80955  30.946  34.872   5.036
 9340W        W80956   5.338  13.328   3.918
 9341W        W80957   7.907  26.098   1.339
 9342W        W80958  14.820  15.742  14.889
 9343W        W80959   6.753   7.523   2.975
 9344W        W80960  19.265  42.474   9.954
 9345W        W80961  27.017  23.276   4.567
 9346W        W80962  13.566  29.897   4.173
 9347W        W80963  14.265  29.966  11.493
 9348W        W80964  38.480  26.137   4.171
 9349W        W80965  30.846  29.388  14.347
 9350W        W80966  32.426  21.809   3.650
 9351W        W80967  34.309   6.956   3.194
 9352W        W80968   0.468  38.497   1.433
 9353W        W80969  31.582  42.298   3.568
 9354W        W80970  26.547  15.284   3.398
 9355W        W80971  18.817  26.715   2.913
 9356W        W80972  41.605  24.091  11.461
 9357W        W80973  37.258   8.100   3.710
 9358W        W80974   1.357  30.187   0.986
 9359W        W80975  32.750  37.357   2.922
 9360W        W80976  26.632  44.696  13.398
 9361W        W80977  13.196   7.336   3.644
 9362W        W80978  27.919  42.933   2.859
 9363W        W80979  41.448  20.332  10.729
 9364W        W80980  35.124   6.956   0.752
 9365W        W80981  43.859   7.117   2.733
 9366W        W80982  40.534  32.320   5.031
 9367W        W80983  20.068  10.330  12.857
 9368W        W80984   4.647   0.176   5.457
 9369W        W80985  28.395  37.857  13.488
 9370W        W80986   1.958  34.935   3.022
 9371W        W80987   6.858  33.312  14.403
 9372W        W80988  12.298  12.743   3.651
 9373W        W80989   3.261  16.660   1.934
 9374W        W80990  41.422  38.795   0.203
 9375W        W80991   4.794   8.417  14.492
 9376W        W80992  44.501  33.449   2.440
 9377W        W80993  26.136   9.876  12.419
 9378W        W80994  30.484  17.986  14.123
 9379W        W80995   6.776  36.746   3.714
 9380W        W80996  12.672  30.053  12.960
 9381W        W80997  28.642  37.055   4.682
 9382W        W80998  19.732  38.828   5.215
 9383W        W80999  25.470   7.614   0.347
 9384W        W81000  43.316   4.214   1.506
 9385W        W81001  14.255  18.276   0.416
 9386W        W81002  31.871  41.917  13.322
 9387W        W81003  17.649   4.873   0.235
 9388W        W81004  41.231  36.083   0.343
 9389W        W81005   9.279   0.857   2.158
 9390W        W81006  24.092  18.029  10.859
 9391W        W81007  13.342  22.298   0.900
 9392W        W81008  39.187   4.187   2.647
 9393W        W81009   5.017   2.955   1.313
 9394W        W81010  12.413  10.709  13.791
 9395W        W81011  16.968  35.880  12.994
 9396W        W81012   1.445  18.296  13.518
 9397W        W81013  29.963  42.759   1.853
 9398W        W81014  42.130  34.068   3.373
 9399W        W81015   1.007  13.760   1.196
 9400W        W81016  41.987  12.504   2.221
 9401W        W81017  39.498  25.078  13.828
 9402W        W81018  39.963  22.517  11.076
 9403W        W81019  38.048  36.988  12.741
 9404W        W81020  11.225  41.429  11.897
 9405W        W81021   6.619  18.049  12.105
 9406W        W81022  18.155  24.702   0.222
 9407W        W81023  29.562  10.553   2.382
 9408W        W81024  25.425  28.726   0.753
 9409W        W81025  27.757   2.560   1.973
 9410W        W81026  26.607  30.662   0.183
 9411W        W81027  43.062  10.651  13.811
 9412W        W81028  14.096  22.269   2.214
 9413W        W81029  27.098  42.570   4.242
 9414W        W81030  44.297  17.946  11.641
 9415W        W81031  15.681   3.279  14.259
 9416W        W81032  39.096  25.146  11.246
 9417W        W81033  28.720  23.266  12.462
 9418W        W81034  12.784  40.936   3.709
 9419W        W81035   6.624   6.828   3.174
 9420W        W81036  44.288  21.046   2.589
 9421W        W81037  27.003  37.578   1.899
 9422W        W81038  36.437  25.227  11.398
 9423W        W81039  22.166  28.631   3.135
 9424W        W81040  35.129  39.571   1.810
 9425W        W81041  31.568  16.793  11.018
 9426W        W81042   6.788  17.075   2.650
 9427W        W81043  17.331  33.739  13.397
 9428W        W81044  44.820  19.796  13.027
 9429W        W81045   4.974  29.752  13.542
 9430W        W81046  31.968  19.517   2.214
 9431W        W81047  30.618  34.601  10.775
 9432W        W81048  14.104  28.627   2.233
 9433W        W81049  22.714  14.913   0.677
 9434W        W81050  11.644  25.214   0.908
 9435W        W81051  40.612  36.064  11.517
 9436W        W81052  19.119  41.246   3.702
 9437W        W81053  23.496   0.277   2.029
 9438W        W81054  35.892  40.491  14.190
 9439W        W81055  44.841  14.564   3.782
 9440W        W81056  33.869  35.037  12.383
 9441W        W81057  35.326  34.467   0.972
 9442W        W81058  31.819  36.327  11.667
 9443W        W81059  21.702   6.592   3.285
 9444W        W81060  40.291  40.373  12.502
 9445W        W81061  10.759  16.562  14.855
 9446W        W81062  43.793  40.351   0.507
 9447W        W81063  17.915  33.600  14.094
 9448W        W81064  39.961  41.856   4.452
 9449W        W81065  19.257  10.101   0.303
 9450W        W81066   3.638  29.941  11.150
 9451W        W81067  27.688  18.652  10.594
 9452W        W81068  19.958  12.965   0.821
 9453W        W81069   8.775  43.580  12.897
 9454W        W81070  11.654  12.114   3.212
 9455W        W81071  29.662   3.458   1.242
 9456W        W81072  25.726  10.677   4.609
 9457W        W81073  10.319   1.358  12.275
 9458W        W81074   7.692   8.658   3.663
 9459W        W81075   9.822   4.410   1.380
 9460W        W81076  43.817  35.888  10.142
 9461W        W81077  24.842  13.632  12.862
 9462W        W81078   9.945  32.130   3.575
 9463W        W81079  15.057  35.464   3.276
 9464W        W81080  33.703  10.060  12.083
 9465W        W81081   8.767   8.809  13.093
 9466W        W81082  20.475   4.528   4.829
 9467W        W81083  38.102   6.957   4.258
 9468W        W81084   7.459  15.252   3.859
 9469W        W81085  33.527  16.782   3.173
 9470W        W81086   0.129  35.000  10.712
 9471W        W81087  31.687   4.838  12.018
 9472W        W81088  27.012   7.346  12.390
 9473W        W81089   0.559  24.707  12.997
 9474W        W81090   2.431  25.482   4.177
 9475W        W81091   4.655  29.275  10.207
 9476W        W81092  44.810   8.851  11.608
 9477W        W81093  18.334  13.641  13.497
 9478W        W81094  20.201  12.218  11.265
 9479W        W81095   4.588  41.367   0.938
 9480W        W81096  37.998  12.113  14.217
 9481W        W81097  36.566   2.860  10.669
 9482W        W81098   4.690  29.965  12.380
 9483W        W81099  29.154  30.185   2.654
 9484W        W81100  29.585  36.015  11.103
 9485W        W81101  10.513   6.780  11.537
 9486W        W81102  12.563  31.637  14.924
 9487W        W81103  40.001  13.408  14.735
 9488W        W81104  24.767  40.947   4.381
 9489W        W81105   2.451   2.970   0.417
 9490W        W81106   1.854  23.114   4.004
 9491W        W81107  37.659  16.747  10.113
 9492W        W81108  42.033  28.218   2.776
 9493W        W81109  25.187  44.911   4.435
 9494W        W81110  43.136  31.660  11.130
 9495W        W81111  19.632  32.643   3.593
 9496W        W81112  41.584  35.869   4.088
 9497W        W81113  39.933  27.388  10.765
 9498W        W81114  32.482  41.878  11.196
 9499W        W81115   9.112  41.811  14.083
 9500W        W81116   8.914  29.698  14.814
 9501W        W81117  39.512  28.232   3.990
 9502W        W81118  13.718  13.700  13.116
 9503W        W81119   4.877  19.342   3.659
 9504W        W81120  36.105  38.980   0.888
 9505W        W81121  40.588  27.615   4.902
 9506W        W81122   1.497  33.441   2.174
 9507W        W81123   1.104  28.601  12.062
 9508W        W81124  10.200  39.049  12.512
 9509W        W81125  23.969  12.600  14.953
 9510W        W81126  37.968  30.884   4.227
 9511W        W81127  42.054  29.628   4.139
 9512W        W81128  42.777   9.902   2.667
 9513W        W81129  28.243  11.706   0.843
 9514W        W81130  22.137  19.151  11.089
 9515W        W81131  41.934   2.914   3.475
 9516W        W81132  24.098  10.072  12.936
 9517W        W81133  18.748  10.202  10.640
 9518W        W81134  27.377  42.793  12.759
 9519W        W81135  15.332  43.796   2.819
 9520W        W81136  29.453  20.002  13.468
 9521W        W81137  23.740  33.885   3.175
 9522W        W81138   3.001  43.018   1.357
 9523W        W81139   1.432   1.337   3.067
 9524W        W81140   1.751   0.116  14.188
 9525W        W81141  29.174   3.246  11.591
 9526W        W81142   7.964  40.340   0.685
 9527W        W81143  32.416  32.274  11.177
 9528W        W81144  43.462   3.279  10.188
 9529W        W81145  23.555  38.457   0.424
 9530W        W81146  12.946   5.272   3.096
 9531W        W81147   6.670  35.477   4.040
 9532W        W81148  11.310  16.286  10.569
 9533W        W81149   4.762  17.199  12.178
 9534W        W81150  13.055  35.847   0.021
 9535W        W81151  21.709  26.162   1.503
 9536W        W81152  36.811  37.784  14.833
 9537W        W81153   3.037  10.608   3.235
 9538W        W81154   6.923  30.684   3.675
 9539W        W81155  27.281  42.404   2.955
 9540W        W81156  29.931  27.905   4.465
 9541W        W81157  27.867  26.137  13.749
 9542W        W81158  25.022  34.646  12.991
 9543W        W81159  29.634  12.802  12.534
 9544W        W81160  37.890  13.149  11.960
 9545W        W81161   6.306  12.394  13.960
 9546W        W81162  19.719  20.991  11.605
 9547W        W81163  25.561  33.880   4.255
 9548W        W81164  33.101  15.892  11.503
 9549W        W81165  26.082  19.335  12.476
 9550W        W81166  14.063  17.257  11.092
 9551W        W81167  11.326  40.866  13.409
 9552W        W81168  23.216  10.620  12.774
 9553W        W81169  33.033   9.439  13.304
 9554W        W81170   8.844   0.764  13.410
 9555W        W81171  19.521  43.315   5.271
 9556W        W81172   7.184  30.475  12.409
 9557W        W81173  32.068   4.467  13.937
 9558W        W81174  22.223  18.347   1.141
 9559W        W81175  39.265  40.660  12.876
 9560W        W81176  41.945  23.959  13.439
 9561W        W81177  24.336  33.462  13.490
 9562W        W81178  23.527  29.947   0.807
 9563W        W81179  34.356  18.942  10.528
 9564W        W81180   9.899  20.115   1.712
 9565W        W81181  44.118   4.160   0.650
 9566W        W81182  31.018  30.113  10.281
 9567W        W81183  33.028  20.441  10.503
 9568W        W81184   4.253   0.069  10.198
 9569W        W81185  21.114  35.715  13.985
 9570W        W81186  43.818  14.276  14.722
 9571W        W81187  28.567  20.220  10.587
 9572W        W81188   2.697  37.011  11.613
 9573W        W81189  33.426  32.670   1.384
 9574W        W81190  32.682   6.345   0.452
 9575W        W81191  23.651  19.560   1.607
 9576W        W81192  34.550   1.964  13.925
 9577W        W81193  42.865  24.551   3.749
 9578W        W81194  28.075  43.023   1.314
 9579W        W81195   1.406  37.896   2.119
 9580W        W81196  17.805  34.564   3.733
 9581W        W81197  14.125  33.936   4.194
 9582W        W81198   0.011  44.328   4.109
 9583W        W81199   2.920  12.294   1.092
 9584W        W81200  10.327  37.350   3.660
 9585W        W81201  39.285   5.746   1.024
 9586W        W81202  26.346  16.308  13.916
 9587W        W81203  44.288  30.007   0.940
 9588W        W81204  37.390  30.386  11.097
 9589W        W81205   3.581  38.033  11.572
 9590W        W81206  27.715  21.208  11.515
 9591W        W81207  41.522  20.933  11.900
 9592W        W81208  32.552  17.389  12.804
 9593W        W81209  42.831   5.873  14.961
 9594W        W81210  31.142  42.780   2.335
 9595W        W81211  22.618  42.056   4.648
 9596W        W81212   0.874   5.689  10.648
 9597W        W81213  26.914  23.501  12.362
 9598W        W81214   0.419  13.243   4.362
 9599W        W81215   5.245  28.897  13.873
 9600W        W81216  12.257  28.462   4.244
 9601W        W81217  27.445   5.166  12.903
 9602W        W81218   8.217  40.337   3.672
 9603W        W81219  14.857  35.059   1.219
 9604W        W81220  34.499   1.661  14.338
 9605W        W81221  27.098  25.579  11.673
 9606W        W81222  43.437   9.455  13.472
 9607W        W81223  42.075  34.340   0.813
 9608W        W81224  14.289  32.358   0.906
 9609W        W81225  31.717   7.474  14.880
 9610W        W81226  27.207  17.675   2.402
 9611W        W81227  18.730  37.588   5.277
 9612W        W81228  27.843   0.882   2.839
 9613W        W81229  10.985  31.786   3.717
 9614W        W81230  33.905  17.201   1.144
 9615W        W81231  10.831  21.332   4.290
 9616W        W81232  44.187   3.044  11.449
 9617W        W81233  32.170  10.189   2.237
 9618W        W81234  33.923   6.249   2.795
 9619W        W81235  21.148  41.829  14.774
 9620W        W81236  27.622   4.472  13.531
 9621W        W81237  12.889  39.722  14.046
 9622W        W81238  23.990  39.913   0.277
 9623W        W81239   6.286  31.951   1.176
 9624W        W81240   7.427  21.189  13.381
 9625W        W81241  13.680   5.389  12.675
 9626W        W81242  21.666  23.646  12.829
 9627W        W81243   3.886  36.935   1.972
 9628W        W81244  28.561  21.259   2.249
 9629W        W81245  33.306  27.147  14.769
 9630W        W81246  28.168  15.258   1.407
 9631W        W81247  34.916  42.443  12.411
 9632W        W81248   5.265  38.128  12.828
 9633W        W81249  12.432   0.955  10.814
 9634W        W81250  23.168  14.087   3.706
 9635W        W81251  17.893  22.762  11.195
 9636W        W81252  40.240  17.893   3.668
 9637W        W81253  22.126  35.778   3.600
 9638W        W81254  38.820  36.132   1.977
 9639W        W81255   4.486  18.564  11.583
 9640W        W81256  13.052  34.205   2.778
 9641W        W81257   5.004  23.909  13.605
 9642W        W81258  27.095  31.659  13.813
 9643W        W81259  21.703  23.291   1.390
 9644W        W81260   3.483  20.859  12.267
 9645W        W81261  40.501  10.322   2.652
 9646W        W81262   4.773  10.125   4.223
 9647W        W81263  12.553   8.311  14.858
 9648W        W81264  11.849  15.602  14.007
 9649W        W81265  44.792  22.199   0.881
 9650W        W81266  31.923  25.973   1.754
 9651W        W81267  18.734   1.445   4.817
 9652W        W81268  17.034  41.791   4.070
 9653W        W81269  18.116  42.367   1.701
 9654W        W81270  30.279  24.078   0.705
 9655W        W81271  40.613   8.439   4.794
 9656W        W81272  41.921   5.395   0.920
 9657W        W81273  36.814  22.776  11.537
 9658W        W81274   5.048  28.709   4.175
 9659W        W81275  10.302   6.655   1.903
 9660W        W81276   2.220  36.314   0.856
 9661W        W81277  29.501  10.409   1.490
 9662W        W81278  41.508  31.762  13.930
 9663W        W81279  15.920   0.453   0.358
 9664W        W81280  28.852   8.419   1.801
 9665W        W81281   7.253  44.297   0.197
 9666W        W81282   3.495  26.293   3.744
 9667W        W81283  36.838   2.724   0.943
 9668W        W81284  27.180  44.454  14.278
 9669W        W81285  16.171  38.242  11.141
 9670W        W81286   1.892  10.731  12.666
 9671W        W81287  18.725  36.463  11.536
 9672W        W81288  43.682   9.452   3.453
 9673W        W81289  22.490  44.072  13.751
 9674W        W81290  25.681  29.646   1.134
 9675W        W81291  35.547  43.282  12.592
 9676W        W81292  24.186   3.367   1.966
 9677W        W81293  22.786  33.122  10.842
 9678W        W81294   4.428  41.014   3.790
 9679W        W81295  10.679  28.490   1.712
 9680W        W81296  20.968  23.118  10.635
 9681W        W81297   9.864  41.174  13.959
 9682W        W81298  19.531   1.107   4.594
 9683W        W81299  31.702   5.899  11.305
 9684W        W81300  17.283  31.052   1.981
 9685W        W81301  31.634  29.883   2.242
 9686W        W81302  43.406  17.271   3.591
 9687W        W81303  23.344   4.183   1.752
 9688W        W81304  26.509  34.440  14.304
 9689W        W81305  38.927   6.363   0.139
 9690W        W81306  42.858   3.221   3.749
 9691W        W81307  16.521  22.117  12.884
 9692W        W81308   9.073  33.651   4.570
 9693W        W81309  30.870  44.760  12.011
 9694W        W81310  11.372  18.209  14.400
 9695W        W81311  14.589  42.945   0.531
 9696W        W81312  37.889   7.794   2.750
 9697W        W81313   1.654  39.883   2.834
 9698W        W81314  40.951  30.674   2.255
 9699W        W81315   6.521  21.986  11.524
 9700W        W81316   9.294   7.204   5.134
 9701W        W81317  14.279  42.965   3.292
 9702W        W81318  37.306  42.318   2.329
 9703W        W81319   4.306  36.643   1.278
 9704W        W81320  12.291  28.474   0.622
 9705W        W81321  15.298  36.946   3.399
 9706W        W81322  26.510  40.248  12.089
 9707W        W81323  23.448  41.973   0.351
 9708W        W81324  39.266  35.927  11.780
 9709W        W81325  17.571   9.415  13.095
 9710W        W81326  43.905   3.453  10.524
 9711W        W81327  16.084  44.169   3.091
 9712W        W81328  10.143   8.899   2.650
 9713W        W81329  37.579  13.846  10.651
 9714W        W81330   5.147  29.212   4.097
 9715W        W81331  30.372  29.643   3.254
 9716W        W81332  29.404  15.966   0.582
 9717W        W81333  10.630  36.810   4.313
 9718W        W81334   5.269   0.505  14.864
 9719W        W81335  33.324  37.355  10.718
 9720W        W81336  36.385   8.457  14.408
 9721W        W81337  31.167  40.118  13.801
 9722W        W81338  38.414  31.090   1.285
 9723W        W81339  11.172  21.134   0.987
 9724W        W81340   9.555  43.006  11.205
 9725W        W81341  31.901  37.927  14.806
 9726W        W81342  23.402   7.503   0.344
 9727W        W81343  40.813  39.245  12.141
 9728W        W81344  19.461  23.721   1.868
 9729W        W81345   9.704  21.131   2.164
 9730W        W81346  37.897  36.033   1.394
 9731W        W81347  42.612  35.256  10.734
 9732W        W81348  25.623   8.863  13.877
 9733W        W81349  32.612   0.295  14.442
 9734W        W81350  14.765  15.107  12.415
 9735W        W81351  22.528   6.505   1.866
 9736W        W81352   3.849  21.084  13.453
 9737W        W81353  35.038  13.039   0.351
 9738W        W81354  39.343   6.647  14.946
 9739W        W81355  11.032  24.148   4.361
 9740W        W81356   5.474  38.060  13.720
 9741W        W81357   5.865  14.790   1.743
 9742W        W81358  28.474  20.171   2.149
 9743W        W81359  30.746  30.250  13.016
 9744W        W81360  23.646  40.256   4.177
 9745W        W81361  42.062   1.459  14.344
 9746W        W81362  11.554  27.563  12.342
 9747W        W81363  18.527  13.258   1.848
 9748W        W81364  42.705  44.340  14.444
 9749W        W81365  34.978  30.242   4.195
 9750W        W81366  31.237  43.755  10.653
 9751W        W81367  28.647  29.095   3.770
 9752W        W81368   2.341  23.498  14.914
 9753W        W81369  24.938  22.788   1.809
 9754W        W81370  15.173  12.126  10.709
 9755W        W81371  43.048  22.298  14.982
 9756W        W81372  15.940   7.094  13.383
 9757W        W81373  33.810  33.080   3.077
 9758W        W81374  21.775   1.118  11.112
 9759W        W81375   9.979  35.852  13.363
 9760W        W81376   1.694  19.701  14.423
 9761W        W81377  40.995  17.590   2.772
 9762W        W81378   9.394  37.077  12.941
 9763W        W81379  32.821  41.453  12.477
 9764W        W81380   5.876  21.331  11.437
 9765W        W81381  42.483   1.350   4.642
 9766W        W81382  40.278   2.755   2.883
 9767W        W81383  38.890   8.390  13.657
 9768W        W81384  33.163  15.195  12.094
 9769W        W81385   2.487  25.552   0.366
 9770W        W81386  15.839  33.796  12.855
 9771W        W81387  34.439  43.982  10.136
 9772W        W81388  26.628  42.068   4.701
 9773W        W81389  10.358  18.800   0.939
 9774W        W81390  35.260   7.256  10.316
 9775W        W81391  36.477  26.549   4.629
 9776W        W81392  12.391  15.674   4.083
 9777W        W81393  11.009  44.456  11.451
 9778W        W81394  13.638  19.189   4.606
 9779W        W81395  18.053  29.213  13.837
 9780W        W81396  39.527  12.283  10.285
 9781W        W81397   6.915  40.232  11.868
 9782W        W81398   9.581   5.339   0.661
 9783W        W81399  20.161   2.326   2.632
 9784W        W81400  38.552  36.397   0.563
 9785W        W81401  41.851  37.043   0.679
 9786W        W81402  22.918  23.548  13.377
 9787W        W81403  39.901  28.526   2.278
 9788W        W81404  36.386  20.015  13.767
 9789W        W81405  30.836  14.886  13.543
 9790W        W81406  37.351  34.945  14.763
 9791W        W81407  10.946  31.728   1.320
 9792W        W81408   0.296  31.069  11.644
 9793W        W81409  35.113  36.086  12.076
 9794W        W81410  13.885   6.230   2.445
 9795W        W81411  21.197   3.797  10.794
 9796W        W81412  25.720  16.805   4.218
 9797W        W81413   9.769   3.903   1.657
 9798W        W81414  41.874  17.025  13.874
 9799W        W81415  24.574   5.467   4.098
 9800W        W81416   8.927  15.821  13.770
 9801W        W81417  27.510  10.357   0.028
 9802W        W81418  28.992   4.661   2.238
 9803W        W81419  27.048  24.576  11.562
 9804W        W81420  32.619   6.456   2.862
 9805W        W81421   5.905  41.096   0.371
 9806W        W81422  34.960  26.220   1.808
 9807W        W81423  38.615  14.959   3.031
 9808W        W81424  27.242   6.659   3.910
 9809W        W81425   4.380  43.790  12.021
 9810W        W81426  18.670   8.652  14.911
 9811W        W81427  12.782   0.147   4.531
 9812W        W81428  29.951  28.416   4.506
 9813W        W81429  30.326  30.588   3.263
 9814W        W81430  44.475  34.923   1.699
 9815W        W81431  33.537  37.839   3.684
 9816W        W81432   7.391  26.062   3.766
 9817W        W81433  26.996  27.982  13.100
 9818W        W81434   9.219  34.378  12.839
 9819W        W81435   3.408  12.815  13.476
 9820W        W81436  19.853   7.795   5.129
 9821W        W81437  19.805  28.556   2.906
 9822W        W81438  37.623  20.335  12.556
 9823W        W81439  32.135  44.628   0.933
 9824W        W81440  14.867  40.163   0.011
 9825W        W81441   7.307  17.507  14.514
 9826W        W81442  20.585  17.938  11.568
 9827W        W81443  15.470  19.108   5.476
 9828W        W81444  35.465   5.703   3.320
 9829W        W81445   8.198  12.616  13.313
 9830W        W81446  38.516  35.254  12.869
 9831W        W81447  42.021   3.774   2.349
 9832W        W81448  35.514  41.357  10.690
 9833W        W81449  34.849   2.717   2.375
 9834W        W81450   7.333  12.801   2.264
 9835W        W81451  44.890   1.350   0.519
 9836W        W81452   0.228  38.788  12.548
 9837W        W81453  39.806  44.022  11.131
 9838W        W81454  44.272   5.907  13.478
 9839W        W81455   6.411  18.477   5.043
 9840W        W81456  20.680  19.506  12.507
 9841W        W81457  36.612  43.993   3.262
 9842W        W81458  17.430  14.179   1.681
 9843W        W81459  11.129  37.830  14.927
 9844W        W81460   9.880  30.881   2.719
 9845W        W81461  25.210   6.118  10.680
 9846W        W81462  37.333   1.437   0.802
 9847W        W81463  16.546  31.465   0.974
 9848W        W81464  24.684   1.693  13.900
 9849W        W81465   4.481  27.652   3.633
 9850W        W81466  43.987  10.084  10.734
 9851W        W81467  12.733   9.213   2.723
 9852W        W81468  38.294  43.837   2.194
 9853W        W81469   7.400  28.412  11.071
 9854W        W81470  27.078  27.865  10.749
 9855W        W81471  25.143   9.226   4.115
 9856W        W81472  22.148  30.234   3.769
 9857W        W81473  21.378  15.692   4.596
 9858W        W81474  23.581  39.993  14.404
 9859W        W81475   0.809  40.965   1.725
 9860W        W81476  23.611   3.508  13.613
 9861W        W81477  41.193  34.012   4.604
 9862W        W81478   2.809   1.224   1.482
 9863W        W81479  40.528  35.030   5.058
 9864W        W81480   1.543  25.094  14.386
 9865W        W81481  39.950  30.859   0.762
 9866W        W81482  14.679   5.920   3.186
 9867W        W81483  38.714   4.917  12.046
 9868W        W81484   3.172  40.553  12.111
 9869W        W81485   4.421  22.860  14.948
 9870W        W81486  13.154  27.425   0.814
 9871W        W81487  18.599   9.444   3.745
 9872W        W81488   9.140  30.502  14.335
 9873W        W81489   8.124   9.046   1.920
 9874W        W81490  23.327  19.236   3.091
 9875W        W81491  19.604   3.827  13.480
 9876W        W81492  25.074  30.905  12.453
 9877W        W81493  38.124  38.563   4.288
 9878W        W81494  28.459  29.465   1.652
 9879W        W81495  29.899   9.787   0.039
 9880W        W81496  25.309  31.897   2.173
 9881W        W81497  30.075  38.510   4.809
 9882W        W81498  35.504  10.065  11.480
 9883W        W81499  37.223  24.879  11.459
 9884W        W81500  10.747   0.010   3.238
 9885W        W81501  40.931  11.540   4.824
 9886W        W81502  26.969  10.851   3.243
 9887W        W81503  28.795  43.825   4.162
 9888W        W81504  25.027  39.478   3.670
 9889W        W81505  31.110  30.668   3.666
 9890W        W81506  23.499   4.789  13.780
 9891W        W81507  14.694   8.703   0.383
 9892W        W81508  18.421   2.886  14.506
 9893W        W81509   4.103  11.596  11.634
 9894W        W81510  28.472   1.970   0.325
 9895W        W81511  12.848   6.303   5.416
 9896W        W81512  36.836   3.183  13.180
 9897W        W81513  13.098  39.851   0.435
 9898W        W81514  39.116  32.639   3.303
 9899W        W81515  42.259   8.404  10.969
 9900W        W81516   7.911  24.590   4.776
 9901W        W81517  43.836  17.336  10.668
 9902W        W81518   7.153  23.496  11.110
 9903W        W81519  30.011  18.311   1.818
 9904W        W81520   3.787   2.785   0.551
 9905W        W81521  30.607  24.519  10.787
 9906W        W81522  23.502   2.132  14.798
 9907W        W81523  10.903  27.815  13.506
 9908W        W81524  32.888  13.950   3.917
 9909W        W81525   1.748  15.397  11.671
 9910W        W81526  21.017  18.179  11.373
 9911W        W81527  15.925  19.637   1.882
 9912W        W81528  21.545  15.867  11.541
 9913W        W81529  23.948   2.239   4.523
 9914W        W81530  19.533  26.434   1.323
 9915W        W81531  30.741  12.720  13.932
 9916W        W81532   6.907  44.072  14.867
 9917W        W81533  10.311  37.438  14.199
 9918W        W81534  12.320  25.577  11.602
 9919W        W81535  43.703  13.062  12.455
 9920W        W81536   6.359  35.058   4.314
 9921W        W81537  35.982   5.936   2.123
 9922W        W81538  19.737  35.684   0.408
 9923W        W81539   5.645   2.850  13.077
 9924W        W81540  41.005  19.127   0.257
 9925W        W81541   1.854  26.190  13.942
 9926W        W81542   8.267  18.548   4.702
 9927W        W81543  28.548  43.233  14.772
 9928W        W81544  27.509  14.158   0.865
 9929W        W81545  22.097  38.089  11.914
 9930W        W81546   2.935  34.436   4.364
 9931W        W81547  11.365  30.129   2.843
 9932W        W81548  32.318  27.722  12.533
 9933W        W81549   1.317  44.448   4.615
 9934W        W81550  43.299  23.722  13.857
 9935W        W81551   5.636  31.907   2.812
 9936W        W81552  41.772   0.465  12.011
 9937W        W81553  20.547  19.638   1.303
 9938W        W81554  23.429  36.584   1.697
 9939W        W81555   8.458  43.454   4.548
 9940W        W81556   0.330   9.461   2.606
 9941W        W81557   8.155  39.474   2.062
 9942W        W81558  42.810  13.355   0.716
 9943W        W81559  27.430  32.340   1.194
 9944W        W81560  28.144  13.673  11.792
 9945W        W81561  32.994  20.098  11.130
 9946W        W81562  18.410   3.035  12.169
 9947W        W81563  13.012  31.550  12.930
 9948W        W81564   1.368  18.601   1.793
 9949W        W81565   8.355  27.792   0.536
 9950W        W81566  33.456  25.482   4.667
 9951W        W81567  37.080  24.483   0.876
 9952W        W81568  41.899  22.121   4.203
 9953W        W81569  32.533   9.702   3.105
 9954W        W81570  20.016   0.346   4.794
 9955W        W81571  29.567  28.505   3.141
 9956W        W81572  16.628  31.392  11.002
 9957W        W81573  36.812  34.997  12.884
 9958W        W81574  22.807  29.886   3.213
 9959W        W81575   7.200  27.622   4.623
 9960W        W81576  38.594   7.168   1.014
 9961W        W81577  24.261  28.610  13.997
 9962W        W81578   8.856  30.955  14.355
 9963W        W81579  44.734  23.945   4.222
 9964W        W81580  41.242  13.103  14.909
 9965W        W81581  16.632   7.311   1.459
 9966W        W81582  28.055  24.268   4.197
 9967W        W81583  29.864   2.422   4.395
 9968W        W81584   6.357  19.649  12.945
 9969W        W81585  27.546  12.929  11.679
 9970W        W81586   4.394  13.233   2.207
 9971W        W81587  41.183  21.493   2.826
 9972W        W81588  42.567  28.063  10.706
 9973W        W81589  42.860  43.474  12.974
 9974W        W81590  35.110  15.588  14.539
 9975W        W81591  42.937  43.989  13.057
 9976W        W81592  18.595  41.763  11.970
 9977W        W81593  40.402  31.440  14.732
 9978W        W81594  27.176   3.952   1.298
 9979W        W81595  14.637   8.583   9.968
 9980W        W81596  38.647  34.229  11.463
 9981W        W81597   2.973   7.104  10.618
 9982W        W81598  43.417   5.574   4.256
 9983W        W81599  20.610  43.558   0.189
 9984W        W81600   4.483  42.085   4.800
 9985W        W81601  16.215  41.059   2.252
 9986W        W81602   4.521  10.855   0.334
 9987W        W81603  26.061   4.483  13.070
 9988W        W81604  29.268  33.536   0.310
 9989W        W81605   2.467   4.717  13.000
 9990W        W81606  44.023  14.278   3.889
 9991W        W81607   1.810  38.600  14.763
 9992W        W81608  13.646  43.798   0.360
 9993W        W81609  34.824  21.251   3.327
 9994W        W81610   7.219  29.152  13.962
 9995W        W81611  11.390  16.610  13.082
 9996W        W81612  44.401  40.941   1.479
 9997W        W81613   9.200   3.529   3.318
 9998W        W81614  44.384  38.201   5.010
 9999W        W81615  23.476  18.931   3.748
10000W        W81616  21.170   2.910   3.854
10001W        W81617  18.715  44.673   5.183
10002W        W81618  18.057  40.548   1.466
10003W        W81619  23.539  44.471   1.370
10004W        W81620  22.121  29.585  11.417
10005W        W81621   2.327  37.431  10.328
10006W        W81622   5.680   6.489   0.315
10007W        W81623  17.652  32.522  14.485
10008W        W81624  38.566   6.062  12.584
10009W        W81625  21.158  11.337   2.651
10010W        W81626  35.501  32.703   0.449
10011W        W81627  14.144   6.638   9.761
10012W        W81628  42.523  11.578   2.182
10013W        W81629  18.604  26.003  11.493
10014W        W81630  39.899   9.126   0.926
10015W        W81631   5.602  17.281   4.163
10016W        W81632   2.993  26.167   3.690
10017W        W81633  14.083  24.907   1.035
10018W        W81634  12.799  43.328   4.119
10019W        W81635  30.095  13.369  14.013
10020W        W81636  40.244  29.609  13.049
10021W        W81637   3.752  41.325  11.569
10022W        W81638  31.095  16.421   1.282
10023W        W81639   6.939   1.767  12.007
10024W        W81640   1.376   0.766   5.178
10025W        W81641  20.545   9.792  12.422
10026W        W81642  23.185  38.484   2.752
10027W        W81643  17.166  28.744  14.025
10028W        W81644  17.767  13.036  14.427
10029W        W81645  36.483  44.610  14.087
10030W        W81646  36.405  43.486   3.793
10031W        W81647   5.927  12.797  12.714
10032W        W81648   1.749  19.597   2.738
10033W        W81649  24.071  34.172   1.310
10034W        W81650  31.865  30.131  11.306
10035W        W81651  37.613  26.549   2.913
10036W        W81652  27.469   8.139  11.891
10037W        W81653  35.264  24.358   3.239
10038W        W81654  12.872  20.295  12.787
10039W        W81655  26.197  31.736  14.475
10040W        W81656  38.220   9.802   1.740
10041W        W81657  23.111  17.516  12.066
10042W        W81658  29.674   8.276   4.917
10043W        W81659  10.456  11.768   1.403
10044W        W81660  31.656  17.625  11.028
10045W        W81661   7.160  11.138   0.270
10046W        W81662  38.128   0.749   0.752
10047W        W81663   5.749  15.688   1.755
10048W        W81664  41.745  26.105  11.953
10049W        W81665  13.710  40.405   4.958
10050W        W81666   4.120   1.399  10.056
10051W        W81667   0.340   5.417  13.802
10052W        W81668  29.741  14.104   5.048
10053W        W81669  39.421  17.053   1.783
10054W        W81670  23.200  25.139  14.691
10055W        W81671  33.646   1.219   2.711
10056W        W81672   6.381  27.003  11.956
10057W        W81673  44.860  27.040  10.935
10058W        W81674   3.359  20.639   0.711
10059W        W81675  11.797  30.859   1.015
10060W        W81676  28.562   3.222   4.957
10061W        W81677  23.592  30.857  11.562
10062W        W81678  43.708  38.531   5.125
10063W        W81679  13.722   9.750  14.632
10064W        W81680  19.929   4.707  12.083
10065W        W81681  21.571  30.359   4.764
10066W        W81682  31.250  16.294  12.890
10067W        W81683  40.481   1.823  13.525
10068W        W81684   8.844  34.343  14.833
10069W        W81685  16.901  35.935   0.517
10070W        W81686   8.363  19.313   0.310
10071W        W81687  11.752  17.190   2.423
10072W        W81688   9.734  32.925   1.175
10073W        W81689   6.089   8.780  13.009
10074W        W81690  36.651  29.854  14.475
10075W        W81691  40.474  19.889   4.184
10076W        W81692  34.678  21.131  12.597
10077W        W81693  29.612   7.439  11.590
10078W        W81694  13.236  37.773   3.744
10079W        W81695   2.264  35.578  11.546
10080W        W81696  40.350  39.788   2.805
10081W        W81697  31.413  37.248  13.854
10082W        W81698  18.612  10.122   0.843
10083W        W81699  18.713  43.446   1.977
10084W        W81700  29.147  44.701   3.731
10085W        W81701  22.990   9.384  11.457
10086W        W81702  44.457   9.739   4.700
10087W        W81703   1.020  40.794   0.730
10088W        W81704  20.649   3.014  13.483
10089W        W81705  41.336  38.423  11.681
10090W        W81706   8.369   6.442  12.589
10091W        W81707  25.093   5.733  12.340
10092W        W81708  20.052   5.925   3.812
10093W        W81709  22.664  33.653  13.300
10094W        W81710  10.695  17.712  13.389
10095W        W81711  16.189  35.650   0.708
10096W        W81712  17.856  39.312   2.607
10097W        W81713   1.181  41.285  11.764
10098W        W81714  39.376  29.762   4.071
10099W        W81715  37.555  16.167   2.576
10100W        W81716  44.784  26.490  14.770
10101W        W81717  22.235  35.565   0.799
10102W        W81718  36.530   7.212  14.876
10103W        W81719   4.928  32.616  11.480
10104W        W81720  19.442  37.491  14.996
10105W        W81721  15.830   7.258  11.145
10106W        W81722  21.695  43.208  12.847
10107W        W81723  26.227  37.845   3.436
10108W        W81724  36.906  40.894  12.345
10109W        W81725  21.348  19.194   0.200
10110W        W81726  42.024   9.385   4.666
10111W        W81727  21.797  13.199   0.307
10112W        W81728   5.402  36.467  13.471
10113W        W81729   6.429  13.958   4.225
10114W        W81730  22.604  25.750   4.849
10115W        W81731   3.182  19.374   4.246
10116W        W81732  39.947   1.334  10.761
10117W        W81733   0.293  23.212  10.229
10118W        W81734  15.663  28.185  14.140
10119W        W81735  19.100   0.198   2.296
10120W        W81736  12.153  36.898   4.686
10121W        W81737  39.996  35.748   3.338
10122W        W81738  12.570  21.579   4.612
10123W        W81739  17.141  42.542   3.255
10124W        W81740  30.533  21.022  11.657
10125W        W81741   8.287   6.626  10.614
10126W        W81742   3.235  11.213  13.199
10127W        W81743  24.685   7.761  11.960
10128W        W81744   9.175  34.164  11.645
10129W        W81745   8.795  12.840  13.881
10130W        W81746  27.288  29.475   2.153
10131W        W81747  38.859  34.353  11.924
10132W        W81748  41.907  34.425   4.306
10133W        W81749  23.741  13.187  13.644
10134W        W81750  15.292  41.839   4.493
10135W        W81751  12.694   9.205  13.827
10136W        W81752  22.952  30.429  12.981
10137W        W81753   2.949   7.896  11.925
10138W        W81754  39.551  37.852   1.285
10139W        W81755  21.310   8.155   0.224
10140W        W81756  13.073  23.129  11.192
10141W        W81757  31.508  10.322  12.238
10142W        W81758  17.775  44.962   4.030
10143W        W81759  25.641   1.191  14.220
10144W        W81760   8.669  25.310   2.317
10145W        W81761  13.881  15.683   4.146
10146W        W81762  18.219  24.904  13.981
10147W        W81763  17.303   0.811  11.628
10148W        W81764  18.730  37.449  11.655
10149W        W81765  41.968  11.637   4.152
10150W        W81766  44.698  13.121   5.002
10151W        W81767  21.563  11.398  10.688
10152W        W81768   8.581  14.049   4.595
10153W        W81769  29.504   6.834  10.482
10154W        W81770  31.188  23.389   2.833
10155W        W81771  20.256   0.502  12.926
10156W        W81772  30.824  28.468  10.279
10157W        W81773   5.861  20.176   3.334
10158W        W81774  34.424   1.698  12.566
10159W        W81775  32.631  43.554  12.580
10160W        W81776  11.026  39.604   3.320
10161W        W81777   3.297   2.533   1.722
10162W        W81778  10.704  43.552   1.370
10163W        W81779   3.299  34.630   1.833
10164W        W81780  28.536  34.132   1.828
10165W        W81781  43.274  20.562   0.947
10166W        W81782  17.527  23.666  12.133
10167W        W81783   0.380  43.158   3.434
10168W        W81784  28.098  26.111   1.792
10169W        W81785   4.638  25.680   3.661
10170W        W81786  22.998   3.564   5.143
10171W        W81787  34.899  22.136  14.020
10172W        W81788  43.612  24.762   4.279
10173W        W81789  34.559  28.665  10.619
10174W        W81790  15.272  19.509  13.972
10175W        W81791  23.619  13.261  12.621
10176W        W81792  22.107  35.686  14.219
10177W        W81793  19.153  43.751  13.238
10178W        W81794  17.636  43.716   9.999
10179W        W81795  29.754   0.376   2.187
10180W        W81796  22.144   4.329   1.403
10181W        W81797   4.718  28.173   2.833
10182W        W81798  43.912  34.735   0.777
10183W        W81799  21.742  13.352  11.136
10184W        W81800  36.347  37.242  11.093
10185W        W81801  14.551  37.201  14.483
10186W        W81802  18.326  29.643  13.808
10187W        W81803   6.884  39.810  11.572
10188W        W81804  37.381  43.860   3.609
10189W        W81805  25.800  35.625   3.753
10190W        W81806  28.433  43.554   4.970
10191W        W81807  22.163  21.003   4.785
10192W        W81808  16.598  38.430   1.289
10193W        W81809  37.320  29.019   0.876
10194W        W81810  26.248   4.384  11.158
10195W        W81811  40.891  17.041   0.140
10196W        W81812  22.545  22.401   0.469
10197W        W81813  20.678  15.984  11.430
10198W        W81814  27.219   2.332   3.701
10199W        W81815  16.909   7.716  14.259
10200W        W81816  17.458  26.465   5.010
10201W        W81817  34.988  12.656   4.612
10202W        W81818  27.449  42.328   2.303
10203W        W81819   3.361  30.018   1.902
10204W        W81820  16.572  30.137   1.336
10205W        W81821  26.057  37.503   0.744
10206W        W81822  18.068  26.573   9.936
10207W        W81823  23.183  11.757   2.784
10208W        W81824  14.459   7.955  11.235
10209W        W81825  12.338  32.934  13.420
10210W        W81826  33.919  38.534   4.152
10211W        W81827  15.854  29.293   4.978
10212W        W81828  35.641  11.156  13.485
10213W        W81829  37.112  29.783   1.676
10214W        W81830   9.964  30.681   1.342
10215W        W81831   3.557  27.603  10.505
10216W        W81832  38.969   0.455  10.807
10217W        W81833  24.114  40.805   0.206
10218W        W81834  20.924   6.740  13.932
10219W        W81835  33.468   3.772   1.496
10220W        W81836   0.296  11.207  14.307
10221W        W81837  29.882   8.192   1.740
10222W        W81838  19.702   5.947   4.183
10223W        W81839   6.251   3.990   1.236
10224W        W81840  16.062  40.495   2.245
10225W        W81841  28.986   0.988  13.058
10226W        W81842  26.133   5.674   4.155
10227W        W81843  19.551  17.222   0.454
10228W        W81844  11.199  18.728  14.383
10229W        W81845  43.032  12.823   0.881
10230W        W81846  12.016  10.864   0.986
10231W        W81847  14.201  42.970  12.992
10232W        W81848  15.483  43.311   2.683
10233W        W81849  14.269  16.663  11.108
10234W        W81850   6.281  27.009   3.895
10235W        W81851  27.429  42.542  14.110
10236W        W81852   0.641   9.066   4.220
10237W        W81853  29.545  33.044  13.855
10238W        W81854   4.070  14.128   4.958
10239W        W81855  31.982   9.303   2.697
10240W        W81856  44.183  21.940   2.657
10241W        W81857   0.064   2.826  13.275
10242W        W81858  19.093  14.628  11.212
10243W        W81859  23.819  35.463  14.980
10244W        W81860  32.124  37.010  12.408
10245W        W81861  40.064  28.997   1.676
10246W        W81862  26.641  12.699   0.783
10247W        W81863  28.855  39.207   3.769
10248W        W81864  42.930   6.351  11.286
10249W        W81865  35.371  43.866   2.435
10250W        W81866  12.345  32.597  14.765
10251W        W81867  11.216  20.030  12.859
10252W        W81868   9.099   9.148  14.498
10253W        W81869   1.412  13.763   3.657
10254W        W81870  22.537  13.636   2.221
10255W        W81871  27.042  41.630   1.645
10256W        W81872  33.065  43.296   4.149
10257W        W81873   9.873   1.972  14.081
10258W        W81874  24.116  34.634  11.782
10259W        W81875  43.575  37.251   4.179
10260W        W81876  15.155  44.333   0.699
10261W        W81877  16.549  39.350  13.384
10262W        W81878  34.955   3.326   4.090
10263W        W81879  11.230  27.951  12.357
10264W        W81880  42.366  43.245   1.849
10265W        W81881  23.222  33.111  13.774
10266W        W81882  20.311   2.295  14.839
10267W        W81883  39.927   0.826   0.292
10268W        W81884  17.097  33.114   0.482
10269W        W81885   5.843  15.181   2.731
10270W        W81886   6.412  24.123  11.157
10271W        W81887  18.202   2.157  14.471
10272W        W81888   7.853   8.243  14.477
10273W        W81889   7.249  10.172   4.566
10274W        W81890  17.479  25.910  14.988
10275W        W81891   3.461  40.250   3.149
10276W        W81892  41.233  26.177  11.818
10277W        W81893  42.493  24.551   2.813
10278W        W81894  33.950  21.649  14.947
10279W        W81895  29.909   3.428   3.242
10280W        W81896   9.887  26.237  11.740
10281W        W81897  40.967  32.954   1.834
10282W        W81898  26.954  16.361   0.647
10283W        W81899  38.922  20.257   3.152
10284W        W81900  24.731  35.824   2.852
10285W        W81901   6.939  14.575   4.023
10286W        W81902  31.806  19.229  11.778
10287W        W81903   0.478  23.900   1.073
10288W        W81904  38.112  13.442   5.149
10289W        W81905   6.363   6.099   2.292
10290W        W81906  43.264  41.088   3.072
10291W        W81907  21.109  28.237   0.417
10292W        W81908  44.300   2.440  13.012
10293W        W81909  37.371   5.700   2.316
10294W        W81910  19.452  34.057  14.366
10295W        W81911   6.467  17.584   1.362
10296W        W81912  33.130   5.794  11.496
10297W        W81913  40.279  23.221   0.538
10298W        W81914   2.199  13.801  10.981
10299W        W81915   1.240  30.292  11.022
10300W        W81916  36.703   4.297   0.210
10301W        W81917  43.889   4.893   0.181
10302W        W81918  28.697   9.789  12.595
10303W        W81919  17.062  14.088   0.357
10304W        W81920  26.258  34.389  12.308
10305W        W81921  22.285   9.797  14.622
10306W        W81922  44.747  15.862   0.215
10307W        W81923  21.536  24.584   0.850
10308W        W81924  30.957  23.249   3.509
10309W        W81925  12.613  35.032  11.493
10310W        W81926  18.335   5.901  12.021
10311W        W81927   2.361   0.978   2.779
10312W        W81928  42.250  22.119   3.713
10313W        W81929  28.471  30.015  13.969
10314W        W81930  20.323  29.185  12.897
10315W        W81931  42.808  19.042   2.219
10316W        W81932  17.203  26.513   1.895
10317W        W81933  31.371  43.014   1.890
10318W        W81934  39.780  38.925   4.804
10319W        W81935  37.134  13.846  14.360
10320W        W81936  31.190  21.545  14.006
10321W        W81937  15.716  14.355   4.578
10322W        W81938  15.490  30.715   0.185
10323W        W81939  22.545  38.970  14.953
10324W        W81940  27.870  29.980  12.032
10325W        W81941  34.259  27.497   0.857
10326W        W81942  37.455   2.264   3.176
10327W        W81943  26.777  26.582  12.109
10328W        W81944  31.372   7.855  14.880
10329W        W81945  42.853  25.921   0.549
10330W        W81946   8.634  13.197   2.301
10331W        W81947  42.970  29.602   3.424
10332W        W81948  22.700  34.559  12.426
10333W        W81949   2.768  42.263   4.015
10334W        W81950   9.741  13.418  14.800
10335W        W81951  36.070  17.342   4.513
10336W        W81952   7.156  28.904  13.462
10337W        W81953  38.417  44.711  12.871
10338W        W81954  38.924  26.960  14.432
10339W        W81955  18.677  36.341   3.931
10340W        W81956  40.284  41.272  12.577
10341W        W81957  44.344  37.367   0.410
10342W        W81958  29.577   7.717   1.773
10343W        W81959  36.519   9.622   1.401
10344W        W81960  35.365  21.718  12.927
10345W        W81961  35.173  17.520   4.149
10346W        W81962  17.766  21.135   2.758
10347W        W81963   6.477  22.632  12.586
10348W        W81964  29.544  28.173   9.863
10349W        W81965  34.182  40.936   3.215
10350W        W81966  42.903  23.056   4.139
10351W        W81967  39.407  37.036  12.007
10352W        W81968  29.547  15.735   2.072
10353W        W81969  21.170  43.887   4.105
10354W        W81970  37.849  31.489   0.701
10355W        W81971  20.472   7.148  10.694
10356W        W81972  19.145  44.598   5.504
10357W        W81973  32.038  38.788  10.261
10358W        W81974  22.151  29.374  14.816
10359W        W81975  38.315  35.958   4.257
10360W        W81976  21.922  35.556  14.786
10361W        W81977   5.362   8.197   2.740
10362W        W81978  23.555  42.996  14.472
10363W        W81979  30.579  26.176  10.720
10364W        W81980  27.027  14.644  14.258
10365W        W81981   4.389  35.317  14.196
10366W        W81982  34.679  33.092  12.431
10367W        W81983  26.224  36.534  12.115
10368W        W81984   7.843  43.837   0.643
10369W        W81985  28.537   2.955   1.835
10370W        W81986  10.854  18.992   0.817
10371W        W81987   5.284   2.513  11.426
10372W        W81988  39.648  31.618  10.749
10373W        W81989  34.118  38.497   0.389
10374W        W81990  39.647  30.536   3.916
10375W        W81991  28.703  23.122   1.794
10376W        W81992  23.215  21.950   0.133
10377W        W81993  26.663  25.164   0.854
10378W        W81994  28.858  12.837  12.916
10379W        W81995   7.368  26.499  13.620
10380W        W81996   9.637  10.473  13.594
10381W        W81997   6.192  43.576  13.437
10382W        W81998  30.074  41.338  10.431
10383W        W81999  18.200  10.884  13.913
10384W        W82000  31.409  26.194   0.365
10385W        W82001   3.500  26.083  13.313
10386W        W82002  20.164  12.304   1.688
10387W        W82003  36.843  35.181   0.006
10388W        W82004  15.307  24.217   2.122
10389W        W82005  18.687  18.184  14.026
10390W        W82006  21.998  42.852  10.689
10391W        W82007  20.935  41.919  13.776
10392W        W82008  38.685  14.743   1.227
10393W        W82009  10.904   0.730   3.648
10394W        W82010  23.958  24.472  12.372
10395W        W82011   3.946  44.491  12.411
10396W        W82012   0.847  35.585  13.896
10397W        W82013  33.108  26.488  12.349
10398W        W82014   3.873  13.741  10.736
10399W        W82015  15.855  19.729   1.392
10400W        W82016  24.757  32.838  14.923
10401W        W82017  23.500  40.359   1.160
10402W        W82018   0.107  22.746  10.394
10403W        W82019  36.888  32.002  10.617
10404W        W82020   7.286  24.411   3.030
10405W        W82021  16.721  15.727  11.473
10406W        W82022   0.370  15.544   0.989
10407W        W82023  38.045  12.386   1.449
10408W        W82024  21.000  33.034  14.631
10409W        W82025  33.258  11.523  14.772
10410W        W82026  20.244  43.684   4.729
10411W        W82027  10.506  12.762   4.129
10412W        W82028  27.524  24.597  11.350
10413W        W82029   8.404  41.425  10.568
10414W        W82030  20.211  40.207  10.690
10415W        W82031  30.505  19.703  14.312
10416W        W82032  33.867  28.033  12.911
10417W        W82033   9.527   7.250   4.146
10418W        W82034  21.710  39.249  11.071
10419W        W82035  40.327  12.214   1.825
10420W        W82036   9.250  22.935   1.246
10421W        W82037  12.570  26.883  14.488
10422W        W82038   1.550  26.738  12.156
10423W        W82039   5.453   8.698   0.421
10424W        W82040  30.355  34.939  14.461
10425W        W82041  36.531  31.476   0.335
10426W        W82042   4.710  24.662  14.986
10427W        W82043  12.059  43.253  11.119
10428W        W82044  18.614  28.184   0.868
10429W        W82045  36.020  35.827  13.416
10430W        W82046  43.297  15.761   2.198
10431W        W82047   2.368  24.454   9.820
10432W        W82048  27.487  23.213  11.663
10433W        W82049  19.182  30.219   0.243
10434W        W82050  40.313  16.676  12.532
10435W        W82051  31.347  15.754  11.632
10436W        W82052  29.828  15.417   1.778
10437W        W82053  38.343  10.681   3.796
10438W        W82054  35.062  10.172  12.140
10439W        W82055   9.849  30.183  14.893
10440W        W82056  19.673  24.365   4.280
10441W        W82057  36.502   3.453   3.408
10442W        W82058  42.928  20.577   0.308
10443W        W82059  30.701  40.136   0.365
10444W        W82060  42.258  39.434   4.989
10445W        W82061  26.598  32.583  11.225
10446W        W82062  11.912  39.693  12.456
10447W        W82063   5.262   0.443   5.004
10448W        W82064  27.906  20.737   2.365
10449W        W82065  39.012  34.030  12.315
10450W        W82066  27.965   6.342   2.338
10451W        W82067  13.546  12.296  13.986
10452W        W82068  16.536  16.356  10.773
10453W        W82069  18.686  18.751  11.727
10454W        W82070   5.432  12.302   4.550
10455W        W82071   0.821  32.601  12.076
10456W        W82072  41.026  13.161  13.390
10457W        W82073   5.222  44.974  14.892
10458W        W82074  16.272   0.513   4.196
10459W        W82075  41.385  26.109  12.306
10460W        W82076  14.731  16.788   3.861
10461W        W82077  39.992  34.927  11.148
10462W        W82078  12.281  42.387  11.628
10463W        W82079  27.446   3.705  10.712
10464W        W82080  27.066  22.756   2.710
10465W        W82081  42.276  18.993  11.443
10466W        W82082  24.269  10.823  14.567
10467W        W82083   4.635   9.891   4.736
10468W        W82084  42.230  28.987   3.178
10469W        W82085  44.999   3.715  14.891
10470W        W82086  32.097  36.457   4.647
10471W        W82087  24.435  30.594  13.803
10472W        W82088   6.944  36.047   4.497
10473W        W82089  39.903  21.522  11.588
10474W        W82090  10.693  14.516  12.008
10475W        W82091  11.207  37.736   9.721
10476W        W82092  29.451   6.106  12.622
10477W        W82093  25.149   3.468   2.177
10478W        W82094  23.571  33.508   0.991
10479W        W82095  27.551  34.823  13.867
10480W        W82096  22.336  11.116  12.029
10481W        W82097  10.150  14.060   1.755
10482W        W82098  24.431   7.721   4.666
10483W        W82099  20.060  44.085   5.500
10484W        W82100   4.236  33.132   2.659
10485W        W82101  23.713  13.070   3.146
10486W        W82102  11.972  22.773  12.430
10487W        W82103  34.911   6.164  13.896
10488W        W82104  33.937  31.065   0.851
10489W        W82105  38.520  39.480   1.089
10490W        W82106  40.408   8.999   0.938
10491W        W82107  23.178  25.643  13.966
10492W        W82108   9.217  42.322   2.358
10493W        W82109   6.284  31.316  11.508
10494W        W82110  16.667  34.168   1.669
10495W        W82111  24.838  42.960  12.145
10496W        W82112   8.276  34.781  14.248
10497W        W82113  26.911  23.125   1.459
10498W        W82114  13.600  23.375   4.133
10499W        W82115  43.520  44.158   3.959
10500W        W82116  28.452  44.353  12.384
10501W        W82117  42.000   1.406   4.324
10502W        W82118  14.704   8.170   1.480
10503W        W82119  21.574  26.083  12.460
10504W        W82120  42.896  26.190   3.154
10505W        W82121  22.651   4.794  14.752
10506W        W82122   9.417  40.118   0.471
10507W        W82123  13.162  42.003   4.147
10508W        W82124  15.982   1.653  10.172
10509W        W82125  32.642  19.171  13.445
10510W        W82126  18.851   5.689   3.113
10511W        W82127  22.138   4.623  14.714
10512W        W82128  11.309  20.796  14.970
10513W        W82129  15.412  22.951   1.724
10514W        W82130  13.678  23.127  11.507
10515W        W82131  34.156  23.996   9.909
10516W        W82132   1.680  15.174   1.246
10517W        W82133   0.420  20.595  13.901
10518W        W82134  14.050  24.033   0.318
10519W        W82135   3.313  43.825   0.246
10520W        W82136  31.536  16.714   3.633
10521W        W82137  29.717   7.363   4.969
10522W        W82138  19.639  14.118   2.343
10523W        W82139   9.623  24.740  11.911
10524W        W82140  43.067  43.265  13.833
10525W        W82141  36.053   2.097   0.872
10526W        W82142  34.853  32.249   0.921
10527W        W82143  32.620  20.563  11.418
10528W        W82144  43.469   5.353   4.728
10529W        W82145   3.543  29.953  11.884
10530W        W82146  24.405  32.629   4.092
10531W        W82147  37.403  40.028   1.728
10532W        W82148  11.531   7.605  10.211
10533W        W82149  15.694  20.426   4.274
10534W        W82150  34.355  19.198  12.364
10535W        W82151  34.166  42.023  14.366
10536W        W82152  10.261  31.164   4.849
10537W        W82153  40.209  38.259  14.872
10538W        W82154  28.516  17.702  11.667
10539W        W82155  38.044  41.563  12.442
10540W        W82156  40.512  33.421   4.386
10541W        W82157  42.929   6.920  13.090
10542W        W82158  40.014  31.169   1.730
10543W        W82159  13.364  43.781  12.513
10544W        W82160  41.056  35.946  14.669
10545W        W82161  12.729  25.998   1.377
10546W        W82162   0.346  19.954  12.435
10547W        W82163  40.626  12.748  12.881
10548W        W82164  24.090  25.350   0.001
10549W        W82165  16.578   4.668  14.223
10550W        W82166   5.391   9.842   1.243
10551W        W82167  44.682   1.003   0.181
10552W        W82168   8.841  15.044   4.428
10553W        W82169   6.228   8.237  10.235
10554W        W82170  39.095  20.244  11.874
10555W        W82171   1.193  11.478  12.563
10556W        W82172   7.648  26.431   0.857
10557W        W82173  41.014  41.019  12.426
10558W        W82174  26.947   6.624  11.963
10559W        W82175  29.490  20.607   0.316
10560W        W82176  42.111  20.235   2.847
10561W        W82177  39.064  43.254  13.662
10562W        W82178  14.245  43.739  13.525
10563W        W82179  30.406  22.731   0.629
10564W        W82180  19.189  11.564   2.319
10565W        W82181  38.812  28.874  12.003
10566W        W82182   7.244  25.238   0.362
10567W        W82183  19.594   4.689   2.254
10568W        W82184  19.731  43.497   2.168
10569W        W82185  25.706  29.421  14.223
10570W        W82186  41.094   9.296   5.170
10571W        W82187  14.142  23.738  12.002
10572W        W82188  16.710   5.398   0.425
10573W        W82189   5.164  23.143  11.477
10574W        W82190   7.282   7.644   3.187
10575W        W82191  24.550   1.795  12.444
10576W        W82192   2.035   6.379  14.415
10577W        W82193  12.751  36.798  13.818
10578W        W82194   3.956  12.251  10.885
10579W        W82195  22.517  16.776   2.181
10580W        W82196  11.788   9.411   2.375
10581W        W82197   8.699  15.507   4.624
10582W        W82198  20.997  32.579   2.435
10583W        W82199  28.649  43.411   3.868
10584W        W82200   6.420  12.442   1.333
10585W        W82201  40.923  40.923   2.797
10586W        W82202   9.395  38.825   1.383
10587W        W82203  30.077  17.203   1.515
10588W        W82204   3.371  13.931   0.471
10589W        W82205  26.652   4.458  12.480
10590W        W82206  13.662   7.406  14.616
10591W        W82207   5.914  17.025  14.884
10592W        W82208  34.362   1.317   4.602
10593W        W82209  24.086  23.766  10.667
10594W        W82210  11.858  30.148   1.779
10595W        W82211   0.163  42.689   3.547
10596W        W82212  23.782  29.461  14.503
10597W        W82213  40.319   0.414  14.578
10598W        W82214  41.525   3.464  12.655
10599W        W82215  39.377   3.277  14.869
10600W        W82216  17.489  19.261  14.073
10601W        W82217  44.782  17.200  12.499
10602W        W82218   1.630  33.910  13.344
10603W        W82219  20.458  33.922   4.124
10604W        W82220   5.263  35.156   1.643
10605W        W82221  42.230  36.811   1.298
10606W        W82222  17.198  14.985   3.898
10607W        W82223  39.471  35.958  10.730
10608W        W82224  14.798  13.790   4.479
10609W        W82225  18.027  26.169  11.492
10610W        W82226  30.664  32.142  12.484
10611W        W82227  22.634  32.445  14.590
10612W        W82228   9.679  33.405   1.430
10613W        W82229  18.263   2.113   1.748
10614W        W82230  38.816  37.665   0.125
10615W        W82231  20.243  35.512  12.842
10616W        W82232  25.742   9.200  12.937
10617W        W82233  13.316  37.275   3.918
10618W        W82234   0.712  31.576   3.753
10619W        W82235  17.032   5.257  14.460
10620W        W82236  32.191  18.571  13.989
10621W        W82237  16.932  31.550   3.524
10622W        W82238  33.660  12.720  14.509
10623W        W82239  17.221  33.026   1.412
10624W        W82240  10.629   9.082  12.050
10625W        W82241  44.321  26.394   1.208
10626W        W82242  14.737   5.249   2.499
10627W        W82243  18.583   2.712   0.509
10628W        W82244  12.175  13.246   0.182
10629W        W82245   4.828  25.166  14.949
10630W        W82246  23.127  21.224  14.960
10631W        W82247   3.778   0.713   5.445
10632W        W82248   2.936   8.109  10.658
10633W        W82249   9.776  44.745   2.726
10634W        W82250  12.397  37.360   4.594
10635W        W82251   7.038  28.502  10.726
10636W        W82252  39.361  44.488  10.634
10637W        W82253  42.598   6.613  11.619
10638W        W82254  33.589   8.377  10.432
10639W        W82255   3.953  21.490   4.541
10640W        W82256  13.067  44.247  14.344
10641W        W82257  17.237  25.876   2.577
10642W        W82258  31.249  34.079  13.860
10643W        W82259  44.638  33.508  10.203
10644W        W82260  21.220   3.921  14.850
10645W        W82261  44.272  40.427  12.016
10646W        W82262  28.224  19.073  11.533
10647W        W82263   6.697  19.251   4.563
10648W        W82264  13.455   2.854   0.575
10649W        W82265  30.113  10.424   4.134
10650W        W82266  25.424   9.587  11.970
10651W        W82267  17.644  24.821   1.770
10652W        W82268   5.403  32.452  14.363
10653W        W82269  30.401  28.618  10.695
10654W        W82270  29.552  42.871  10.611
10655W        W82271  20.707   0.217   0.916
10656W        W82272  44.243  12.090   1.069
10657W        W82273  15.201  27.267  11.640
10658W        W82274  42.322   1.798  13.893
10659W        W82275  12.425   4.016   2.796
10660W        W82276  12.214  22.077   0.103
10661W        W82277  31.401  43.744   1.330
10662W        W82278  35.505   8.476   0.948
10663W        W82279  24.925  37.092  10.943
10664W        W82280  34.011   5.958  10.372
10665W        W82281   6.624  11.148  13.467
10666W        W82282  20.699   2.443   4.513
10667W        W82283  10.589  40.926  11.334
10668W        W82284   0.434   5.209  14.264
10669W        W82285   5.146  15.701  14.283
10670W        W82286  22.634  15.184  12.605
10671W        W82287  14.828  17.263  14.538
10672W        W82288   7.878   1.187  12.352
10673W        W82289  17.255  27.888   5.013
10674W        W82290   0.535  10.871  11.126
10675W        W82291  23.469  10.720   1.364
10676W        W82292  28.044  27.858   0.812
10677W        W82293  17.097  32.651   3.692
10678W        W82294  29.021  14.064  12.431
10679W        W82295  20.917  31.192   0.328
10680W        W82296  20.655  16.136   0.789
10681W        W82297   3.862   8.148  10.716
10682W        W82298   3.722   8.725  12.964
10683W        W82299  28.081  10.502  10.573
10684W        W82300  32.633  36.533   2.048
10685W        W82301  43.951   6.139   1.389
10686W        W82302   2.922   3.374   4.649
10687W        W82303  20.290   4.910  11.144
10688W        W82304   2.832  25.067   3.243
10689W        W82305  31.890   6.031   9.714
10690W        W82306  23.104  16.157  13.600
10691W        W82307  29.111  36.210  12.592
10692W        W82308  35.878  29.304  12.084
10693W        W82309  27.723  27.564   1.842
10694W        W82310  10.284  37.803  13.852
10695W        W82311  25.347  19.731  14.342
10696W        W82312  34.124   5.859   4.521
10697W        W82313  22.692  17.518  12.913
10698W        W82314  36.343   2.521   3.155
10699W        W82315  36.842  23.576   2.720
10700W        W82316  28.201  40.837  12.482
10701W        W82317  40.610  41.043  13.029
10702W        W82318  38.497  39.658  13.489
10703W        W82319  17.547  12.170   4.456
10704W        W82320  29.848  42.926   0.975
10705W        W82321  44.831  39.845   4.402
10706W        W82322   2.552  34.075   1.937
10707W        W82323  39.146  14.033  14.596
10708W        W82324  35.968  37.758   1.663
10709W        W82325  15.792  18.613   3.461
10710W        W82326  15.354  16.141  11.505
10711W        W82327  36.726  29.320  14.358
10712W        W82328  16.795  30.624  11.624
10713W        W82329  42.796  44.382   1.899
10714W        W82330  37.365  21.979   3.722
10715W        W82331  21.781  28.520   1.728
10716W        W82332  24.722  35.523  14.776
10717W        W82333  17.862   5.428  14.751
10718W        W82334   1.957  23.159  14.850
10719W        W82335  23.502   1.756   0.176
10720W        W82336  11.294  10.377   1.811
10721W        W82337  24.859  13.627  13.806
10722W        W82338  12.409   6.337   1.411
10723W        W82339  21.571  41.460  10.964
10724W        W82340   2.834   2.190  13.512
10725W        W82341  32.435  36.769   1.640
10726W        W82342   4.134  29.029   2.622
10727W        W82343  21.678  29.008   4.249
10728W        W82344  36.072  20.091  11.157
10729W        W82345  31.775  34.153  13.874
10730W        W82346  17.455  17.032  11.360
10731W        W82347  44.766  38.162  13.041
10732W        W82348  10.630  33.806  14.437
10733W        W82349  11.702  44.408   1.668
10734W        W82350  22.202  41.446   1.624
10735W        W82351  43.243  31.847  13.059
10736W        W82352   3.411   5.880  14.062
10737W        W82353  33.637  34.523  13.934
10738W        W82354  11.576  26.100  10.610
10739W        W82355  38.390  33.636   3.178
10740W        W82356  15.151   3.977   1.315
10741W        W82357   4.603  23.815   4.599
10742W        W82358  40.956  20.524   1.933
10743W        W82359  29.049  31.942   3.166
10744W        W82360  29.647  33.620  13.263
10745W        W82361  10.052  21.584  13.076
10746W        W82362   2.413  16.026   0.180
10747W        W82363  43.549  13.768   2.881
10748W        W82364  29.043  44.431   2.362
10749W        W82365  25.870  10.572  12.945
10750W        W82366   0.264  16.316   3.325
10751W        W82367   2.880  39.535   4.157
10752W        W82368   8.618  24.399  14.133
10753W        W82369   7.276  23.505   3.562
10754W        W82370  42.013  11.078  13.026
10755W        W82371   3.398   9.643   4.072
10756W        W82372  39.460  45.000   1.526
10757W        W82373  16.092  36.472  13.020
10758W        W82374  12.557  38.262  14.102
10759W        W82375   7.824  41.562  11.716
10760W        W82376  39.912   7.184  13.868
10761W        W82377  44.047  32.462  11.598
10762W        W82378  10.032  42.935  11.465
10763W        W82379  23.642  20.814  13.388
10764W        W82380  15.099   5.917   0.872
10765W        W82381  15.875   9.840   0.787
10766W        W82382  35.437   3.776  12.940
10767W        W82383  36.853  10.562  12.298
10768W        W82384  25.248  27.215   3.146
10769W        W82385  40.176  26.062   3.613
10770W        W82386  16.512  37.488  14.459
10771W        W82387   8.755  10.587   0.353
10772W        W82388   1.730  20.214  14.528
10773W        W82389  44.736   4.428  11.094
10774W        W82390   5.104  25.052  14.224
10775W        W82391  30.114   8.704  14.457
10776W        W82392  31.441  18.635  10.766
10777W        W82393  20.458  13.824  13.774
10778W        W82394  11.792  10.823  11.964
10779W        W82395  19.215  24.571   0.853
10780W        W82396  24.571  12.194  11.482
10781W        W82397   4.121  42.945   4.878
10782W        W82398  32.572  37.801  12.539
10783W        W82399  31.968  23.487  10.728
10784W        W82400  33.119   1.866  12.938
10785W        W82401  34.676  38.446   1.302
10786W        W82402  40.849  20.048   0.329
10787W        W82403   7.575  19.182   0.841
10788W        W82404  24.476  15.056  11.025
10789W        W82405  13.348   8.873   4.561
10790W        W82406   8.229   2.062  11.630
10791W        W82407  38.050  26.469   1.651
10792W        W82408   5.320  19.830   5.071
10793W        W82409  31.766  32.005   1.740
10794W        W82410  19.753  32.483   2.632
10795W        W82411  31.391   2.432  10.653
10796W        W82412  37.478  10.776   5.565
10797W        W82413  36.938   4.751   0.222
10798W        W82414   2.383  25.077   4.547
10799W        W82415  23.696   6.242   4.127
10800W        W82416  21.634  26.171  11.593
10801W        W82417   9.406  18.069  14.771
10802W        W82418   6.602   8.520   2.343
10803W        W82419  34.387  31.673   3.662
10804W        W82420   7.396  18.004   1.630
10805W        W82421   3.286  14.793   2.537
10806W        W82422   1.795   7.890  11.958
10807W        W82423  24.058  10.460  14.233
10808W        W82424  25.676  19.273   1.976
10809W        W82425  24.950   7.374  10.280
10810W        W82426  33.934  44.954  13.214
10811W        W82427  32.444  25.432  11.910
10812W        W82428  39.239   8.077  14.880
10813W        W82429  27.258  37.962  14.897
10814W        W82430   7.378  39.955   1.372
10815W        W82431  30.908  32.437   4.241
10816W        W82432  38.313   2.180   3.644
10817W        W82433  43.734  28.212  14.028
10818W        W82434  21.650  14.566  13.054
10819W        W82435   0.297  16.577   0.368
10820W        W82436  14.027   4.201  11.962
10821W        W82437  20.464   2.008  11.174
10822W        W82438  43.294  44.510   1.820
10823W        W82439  27.137  18.257   0.561
10824W        W82440  29.432  14.778  11.574
10825W        W82441  21.029   0.277  13.915
10826W        W82442  20.316  26.739   1.748
10827W        W82443  29.736   9.253  13.344
10828W        W82444   5.965  21.683  10.476
10829W        W82445  28.133  12.633  14.908
10830W        W82446  44.478  42.849  11.872
10831W        W82447   5.252   8.005  11.474
10832W        W82448   9.207  39.117   3.424
10833W        W82449   2.500  19.545   0.517
10834W        W82450  15.194  14.810   1.915
10835W        W82451   4.867   9.894   1.258
10836W        W82452   4.404  10.090  10.531
10837W        W82453   8.771   3.414  11.532
10838W        W82454  36.854   7.613  10.966
10839W        W82455  43.401   1.023  14.252
10840W        W82456  16.802  12.208   2.944
10841W        W82457   2.854  24.425  11.077
10842W        W82458  43.819  16.498   3.259
10843W        W82459  19.278  28.969  14.685
10844W        W82460   6.615  33.447  12.180
10845W        W82461  35.286  17.595  14.584
10846W        W82462  11.104  10.356  13.916
10847W        W82463   6.917  19.489   2.867
10848W        W82464  21.417  41.780  13.631
10849W        W82465   8.857  31.545  12.129
10850W        W82466  22.399  27.499   1.484
10851W        W82467  29.865  36.945   2.798
10852W        W82468  11.199   3.012   4.651
10853W        W82469  19.236  35.450  11.191
10854W        W82470  16.136  17.297   4.067
10855W        W82471   5.454  17.181   4.633
10856W        W82472  10.426  22.668   1.669
10857W        W82473  29.628  41.281  13.088
10858W        W82474   3.354  44.033   3.765
10859W        W82475  16.933  44.895  10.677
10860W        W82476  32.560  36.010   4.002
10861W        W82477  30.047  39.343  14.502
10862W        W82478  39.754  18.866   2.772
10863W        W82479   0.953  43.198  12.563
10864W        W82480  24.207  12.392  10.645
10865W        W82481  19.707  15.556  11.542
10866W        W82482  29.365   1.960  13.357
10867W        W82483  44.145  39.322   2.844
10868W        W82484   4.266  32.287  14.308
10869W        W82485  24.164  18.605  14.413
10870W        W82486   4.325  39.532  12.372
10871W        W82487   0.063  20.432   4.196
10872W        W82488  35.421  20.023   1.830
10873W        W82489  42.794  21.111  13.939
10874W        W82490   1.233   6.313  14.026
10875W        W82491  43.252  15.916  14.343
10876W        W82492  44.675  33.022   0.824
10877W        W82493   5.176  34.919  12.112
10878W        W82494  14.551  16.170  11.024
10879W        W82495  36.970  42.172   1.238
10880W        W82496   2.525  11.894   3.627
10881W        W82497  43.365  29.436   4.639
10882W        W82498   5.775  33.113   1.907
10883W        W82499  24.501  32.326   3.679
10884W        W82500   2.849  44.015   2.671
10885W        W82501  32.372  39.622   1.274
10886W        W82502   5.208  13.475   2.577
10887W        W82503  28.264  10.107  13.026
10888W        W82504  11.580  39.826  10.161
10889W        W82505  41.438  36.576  14.370
10890W        W82506   0.769  24.524  14.497
10891W        W82507  34.949  34.255  11.184
10892W        W82508  30.726  21.217  13.000
10893W        W82509  37.941  25.527  13.593
10894W        W82510  23.878  27.436   1.893
10895W        W82511  29.940  14.267   1.073
10896W        W82512  16.262  10.329  10.962
10897W        W82513   4.141  39.788   4.471
10898W        W82514   1.461  14.154   5.122
10899W        W82515  26.154  44.743   2.209
10900W        W82516   1.869  26.221  14.468
10901W        W82517   8.256  43.823  13.043
10902W        W82518   8.743   2.262   3.660
10903W        W82519  33.988  39.749   1.745
10904W        W82520   0.434  22.693   4.615
10905W        W82521  13.619  32.621  14.020
10906W        W82522  18.401  36.395  12.270
10907W        W82523  22.843  32.464  12.643
10908W        W82524  18.588  15.169   1.206
10909W        W82525  42.012   6.183  11.188
10910W        W82526  21.515  41.424  10.389
10911W        W82527   7.251  40.284  13.026
10912W        W82528  43.766  22.358  13.075
10913W        W82529  18.302  23.544  12.931
10914W        W82530  27.910   8.265  14.807
10915W        W82531  31.560   9.866   2.864
10916W        W82532  33.121  26.796  13.487
10917W        W82533   7.172  15.695   3.745
10918W        W82534  20.954  41.492   4.977
10919W        W82535  11.954  17.794   3.841
10920W        W82536   5.418  44.918   5.095
10921W        W82537  30.841   6.292   1.849
10922W        W82538  16.941  16.184  11.647
10923W        W82539  29.896  29.000   0.403
10924W        W82540  13.768   6.439   2.895
10925W        W82541  12.822   6.787  11.095
10926W        W82542  42.909  15.379   0.933
10927W        W82543  43.187  36.081   1.777
10928W        W82544  44.594  35.264  11.306
10929W        W82545  34.412  24.092  10.360
10930W        W82546   4.812  40.956  13.960
10931W        W82547  33.399  31.943  13.731
10932W        W82548  40.030  28.070   0.224
10933W        W82549  42.028   7.891  12.845
10934W        W82550  23.223  42.669  12.594
10935W        W82551  29.690   5.912   1.407
10936W        W82552  16.260  11.958   2.450
10937W        W82553  33.848  42.128   3.973
10938W        W82554  41.344  40.597  11.993
10939W        W82555  33.011  35.291  12.556
10940W        W82556  34.837   2.834   4.249
10941W        W82557  33.443  15.578  12.419
10942W        W82558  27.575   7.868   3.634
10943W        W82559  32.954  28.901  11.889
10944W        W82560  28.199   9.906   1.047
10945W        W82561   5.227   1.384   4.561
10946W        W82562  26.794  39.772  12.962
10947W        W82563  20.163  19.104   4.789
10948W        W82564   8.642   5.073   0.023
10949W        W82565  42.484   1.270   1.899
10950W        W82566  34.145   7.471   3.256
10951W        W82567  40.472  25.808   2.483
10952W        W82568   3.284  16.664   4.904
10953W        W82569  40.603  44.703  11.092
10954W        W82570  20.300   0.473   3.406
10955W        W82571  44.484   4.919  11.945
10956W        W82572  24.175  43.215   2.411
10957W        W82573  32.901  44.914  10.752
10958W        W82574   4.179  13.647   4.642
10959W        W82575  35.079  23.180   1.634
10960W        W82576  31.772  22.257  13.240
10961W        W82577   6.955  22.991   3.702
10962W        W82578  16.171   7.824   2.718
10963W        W82579   6.626   0.291   0.920
10964W        W82580   8.290  17.832   2.867
10965W        W82581  30.596  35.518   0.969
10966W        W82582  22.560  35.514   3.985
10967W        W82583  33.960  15.592  11.072
10968W        W82584   1.964  11.262   4.307
10969W        W82585   7.173  44.747  11.234
10970W        W82586  31.917   4.390  14.959
10971W        W82587  12.705  17.710  14.465
10972W        W82588  42.875  14.408  13.006
10973W        W82589  10.053  36.781   2.669
10974W        W82590   6.270  41.083   3.850
10975W        W82591  36.791  26.275   1.874
10976W        W82592  19.764  43.360   0.000
10977W        W82593  10.609  35.649  12.302
10978W        W82594   7.159  42.334   4.131
10979W        W82595  12.198  10.643  12.476
10980W        W82596  13.113   8.877  10.781
10981W        W82597  33.817  38.010   3.278
10982W        W82598  12.654  23.187   2.338
10983W        W82599  18.240  17.320   2.456
10984W        W82600  32.776   7.707   4.101
10985W        W82601  12.704   4.395   3.510
10986W        W82602  38.362  25.964  13.967
10987W        W82603  16.330   8.080  11.174
10988W        W82604  42.240  29.941  14.652
10989W        W82605  41.517   4.780  12.564
10990W        W82606  38.083  23.868  13.547
10991W        W82607  41.296   8.842  11.584
10992W        W82608  19.578  13.637  12.507
10993W        W82609  19.104  22.481   2.779
10994W        W82610  20.742  23.477  14.822
10995W        W82611   4.833  29.548   3.829
10996W        W82612  33.642  34.157   0.997
10997W        W82613  17.056   5.112   2.863
10998W        W82614  23.274  29.307  11.529
10999W        W82615  39.818  33.741   4.726
11000W        W82616  42.972  12.773  13.960
11001W        W82617  28.554   2.979  13.311
11002W        W82618  37.431  21.799   4.422
11003W        W82619  24.484  42.931   4.945
11004W        W82620  14.246  25.046  13.767
11005W        W82621  11.681  34.396   0.370
11006W        W82622  27.705  29.698   0.469
11007W        W82623  37.310  32.652   4.310
11008W        W82624  12.915  24.301   2.401
11009W        W82625   1.975  44.931  12.864
11010W        W82626  35.962  31.271   4.299
11011W        W82627  11.367  15.562   2.359
11012W        W82628   2.407  22.661   3.607
11013W        W82629  23.320   5.659   4.166
11014W        W82630   5.639   4.418   3.028
11015W        W82631  28.040   5.826   2.329
11016W        W82632  24.965  44.629  12.899
11017W        W82633  37.382  19.745   4.696
11018W        W82634   6.138  18.226  14.347
11019W        W82635  36.411  29.431  11.152
11020W        W82636  34.849  44.281   3.858
11021W        W82637  39.286  28.658  12.405
11022W        W82638  24.485  28.147   1.800
11023W        W82639  16.221  26.306  13.812
11024W        W82640  35.090  41.463  13.420
11025W        W82641  19.546  20.171   1.940
11026W        W82642  13.867   0.884   4.107
11027W        W82643   1.908  39.727  13.175
11028W        W82644   6.480  40.547   0.523
11029W        W82645  20.283   0.823  13.857
11030W        W82646   6.234  23.508   4.522
11031W        W82647  35.752  37.415  13.090
11032W        W82648  31.821  27.233  13.776
11033W        W82649  33.069  32.603   3.540
11034W        W82650  20.436  22.410  10.689
11035W        W82651  28.484  25.562  13.559
11036W        W82652   9.906  21.125  13.267
11037W        W82653  17.522  13.227   4.135
11038W        W82654   4.700  39.886   3.292
11039W        W82655   3.526  41.513  14.816
11040W        W82656  43.412  15.725   3.249
11041W        W82657  39.017   6.847   4.801
11042W        W82658   3.866  23.734  13.361
11043W        W82659  30.115   5.810   1.709
11044W        W82660  23.066   9.855  13.797
11045W        W82661  18.689  43.289  11.084
11046W        W82662  12.657  43.424  12.492
11047W        W82663   7.338  16.618  10.826
11048W        W82664  18.723  31.331  13.397
11049W        W82665   0.959  34.809   3.195
11050W        W82666  33.000  36.198   2.338
11051W        W82667   8.240   9.165  14.188
11052W        W82668  13.596  32.066  13.823
11053W        W82669  39.846  43.005  10.985
11054W        W82670   4.765  35.958   2.244
11055W        W82671  39.269  26.039   2.644
11056W        W82672  27.600   1.069   1.854
11057W        W82673  28.974  36.115   0.036
11058W        W82674  19.647  31.961   4.241
11059W        W82675  15.721  22.141  10.289
11060W        W82676  42.880  14.641   1.455
11061W        W82677   5.819  31.084  11.612
11062W        W82678  34.952  11.665  13.945
11063W        W82679  21.113  43.920   0.819
11064W        W82680  30.187   7.375  14.986
11065W        W82681   4.012   3.716   4.061
11066W        W82682  42.444  26.449  13.998
11067W        W82683  38.470   5.935   0.468
11068W        W82684  24.194  44.533   4.584
11069W        W82685  17.376  23.548   4.728
11070W        W82686  13.198   5.354  13.499
11071W        W82687  15.051  31.465  14.653
11072W        W82688  19.191  22.995   2.809
11073W        W82689   9.038  32.532  14.101
11074W        W82690  14.065  16.709  13.556
11075W        W82691  37.959  36.559  10.769
11076W        W82692  32.533  25.396   2.229
11077W        W82693   9.134  31.825   3.286
11078W        W82694  13.321  10.874  12.840
11079W        W82695  29.514   8.642  10.894
11080W        W82696  36.946  39.835  13.666
11081W        W82697  25.376  23.696   4.680
11082W        W82698   9.257  44.434  10.133
11083W        W82699  22.597  14.101  10.729
11084W        W82700   1.106  35.062   3.614
11085W        W82701  37.875   3.508   4.311
11086W        W82702  20.045  23.796  10.531
11087W        W82703  14.098  33.445  10.620
11088W        W82704  41.184  42.621   3.248
11089W        W82705  36.108  19.132  13.470
11090W        W82706  32.068  23.778  14.540
11091W        W82707  23.445  30.685   2.786
11092W        W82708  37.948  32.135  14.247
11093W        W82709   9.230  16.870  12.455
11094W        W82710  40.965  11.789   2.454
11095W        W82711  22.631  44.718   0.615
11096W        W82712  44.335  37.584  11.114
11097W        W82713  16.113  25.292   2.610
11098W        W82714  13.568  26.181  13.647
11099W        W82715  26.219  21.961  14.284
11100W        W82716  13.799  11.063   3.891
11101W        W82717  24.077   0.782  14.933
11102W        W82718  43.997  30.161   0.521
11103W        W82719  35.478   4.318  13.746
11104W        W82720   3.834   7.782  11.088
11105W        W82721   6.459  44.355   3.638
11106W        W82722  10.423  26.185   3.357
11107W        W82723  15.919   3.241   1.344
11108W        W82724  41.951  39.362   0.822
11109W        W82725  21.009  32.380   1.352
11110W        W82726  13.236  38.811  12.045
11111W        W82727  12.789   3.932   1.757
11112W        W82728  36.719  41.377   0.411
11113W        W82729   8.268  41.997  10.793
11114W        W82730  37.445  43.770  11.229
11115W        W82731   9.680  38.695  14.207
11116W        W82732  35.667  12.204  13.748
11117W        W82733  27.603  33.723  11.566
11118W        W82734  44.028  20.278  12.976
11119W        W82735  28.048  42.201  10.708
11120W        W82736   1.427  26.464  13.075
11121W        W82737  15.271  14.326  14.915
11122W        W82738   7.154  10.280   0.169
11123W        W82739  35.868  31.352  14.867
11124W        W82740   3.849  29.073   4.154
11125W        W82741   1.878  11.484  12.798
11126W        W82742   3.998  30.603  14.197
11127W        W82743  20.194  34.582   1.331
11128W        W82744  21.526  21.628   1.804
11129W        W82745  23.493  25.761   4.652
11130W        W82746   4.008  21.736  10.647
11131W        W82747  30.502  23.092  10.409
11132W        W82748  34.133  13.230   1.859
11133W        W82749  15.496  12.790   1.202
11134W        W82750  25.909  19.065  11.169
11135W        W82751  38.612   8.347  11.488
11136W        W82752  40.366  11.275  14.445
11137W        W82753   9.103  29.101  14.547
11138W        W82754  38.589  19.675  14.950
11139W        W82755  44.469  31.078  12.704
11140W        W82756  30.939   1.763  12.140
11141W        W82757  13.910  15.161  14.387
11142W        W82758  16.706  40.489   2.806
11143W        W82759  12.082  14.872   1.621
11144W        W82760  25.695  14.235   1.319
11145W        W82761  37.930  12.396   3.395
11146W        W82762  15.996  42.568   4.149
11147W        W82763  38.561  31.366  13.000
11148W        W82764  38.633  38.909  12.924
11149W        W82765  30.991  30.068  10.782
11150W        W82766   4.520   0.702   4.224
11151W        W82767  31.698  17.080   2.251
11152W        W82768  18.665  16.825   1.735
11153W        W82769  38.060  38.880  14.912
11154W        W82770  20.162  18.266  11.176
11155W        W82771  23.038   5.286   4.392
11156W        W82772  39.276  26.010  11.465
11157W        W82773  23.565  44.918   0.664
11158W        W82774  13.572   8.335   4.381
11159W        W82775  35.639  22.802   4.131
11160W        W82776  28.605  25.688   0.523
11161W        W82777  18.456  23.912  13.749
11162W        W82778  37.062  22.697   2.364
11163W        W82779   2.189  33.201   0.478
11164W        W82780   3.288  16.330   2.341
11165W        W82781   8.907  23.419  13.357
11166W        W82782   8.506  20.554  13.918
11167W        W82783  43.462  25.707   4.258
11168W        W82784  30.695   8.795  11.580
11169W        W82785  20.482  20.550  14.312
11170W        W82786  36.149  32.422  10.711
11171W        W82787  28.357  19.095   2.638
11172W        W82788  26.221  17.729  10.693
11173W        W82789   7.145  17.228  12.545
11174W        W82790   4.899  37.592  10.351
11175W        W82791  14.662  43.400  13.469
11176W        W82792  13.937  32.392  14.965
11177W        W82793  40.450  30.171   3.674
11178W        W82794  19.651  11.100  11.109
11179W        W82795   1.430  33.427   1.645
11180W        W82796  16.402   2.890   0.696
11181W        W82797  10.610  21.778   0.392
11182W        W82798  18.050  15.312   4.094
11183W        W82799  41.270   3.423  11.677
11184W        W82800   0.765  41.985   1.472
11185W        W82801  23.429  21.800   0.728
11186W        W82802  24.645  23.450   2.040
11187W        W82803  20.948  28.939  14.023
11188W        W82804  25.634   1.788   2.671
11189W        W82805   7.279  35.592   0.428
11190W        W82806  18.631  41.541  14.501
11191W        W82807  31.137  36.910   3.896
11192W        W82808   3.830  13.072   4.119
11193W        W82809  40.062  10.627  14.046
11194W        W82810   3.704  12.701   3.016
11195W        W82811  21.146  10.705   1.360
11196W        W82812  24.582   5.493   1.756
11197W        W82813  29.543  34.263  11.897
11198W        W82814  27.686  15.068   1.613
11199W        W82815  28.619   3.031  14.086
11200W        W82816  11.820  28.506   0.323
11201W        W82817  35.891   8.329   3.549
11202W        W82818  29.604  36.202  13.903
11203W        W82819   2.945  43.920  13.901
11204W        W82820  41.337   8.152   1.341
11205W        W82821  44.323  20.526   4.927
11206W        W82822  34.019  11.352   3.178
11207W        W82823  31.020   5.997   2.249
11208W        W82824  14.277   4.236  13.316
11209W        W82825   0.435  37.586   5.005
11210W        W82826   2.000  44.548   1.605
11211W        W82827   8.716   6.413  10.815
11212W        W82828  35.500  38.652  13.509
11213W        W82829  16.398   1.944   1.587
11214W        W82830  18.486  10.299  12.449
11215W        W82831   8.690  41.589   0.916
11216W        W82832  10.927  22.560   2.509
11217W        W82833  19.818  29.330  13.808
11218W        W82834  26.982  16.065  11.662
11219W        W82835  14.522   3.276  11.012
11220W        W82836  43.881  12.997  14.373
11221W        W82837  22.016  36.327   1.017
11222W        W82838  15.735  42.882  12.344
11223W        W82839  13.240  22.767  10.272
11224W        W82840   0.414  20.263   1.820
11225W        W82841  38.704  20.296   2.689
11226W        W82842  21.174  37.454  12.281
11227W        W82843  14.687   1.158   3.111
11228W        W82844  12.358   5.177  12.341
11229W        W82845  16.591  31.706   4.331
11230W        W82846  28.993  30.508   4.625
11231W        W82847  16.037  28.028  14.487
11232W        W82848  30.636   8.938  12.072
11233W        W82849  19.519  38.948  11.652
11234W        W82850  39.253  41.485  14.946
11235W        W82851  34.645   2.346   3.802
11236W        W82852  37.139  17.402   4.804
11237W        W82853  43.708   9.539   1.805
11238W        W82854  23.151  16.506  13.973
11239W        W82855  35.748  31.162  11.529
11240W        W82856  18.884  42.891  14.257
11241W        W82857   8.244  15.127   1.695
11242W        W82858  25.075  26.979  11.110
11243W        W82859  24.411  33.419  12.060
11244W        W82860  22.926  20.589  12.909
11245W        W82861  35.219  21.006  12.604
11246W        W82862   1.874  34.888  13.367
11247W        W82863  28.562   0.311   3.828
11248W        W82864  30.805   8.625  11.103
11249W        W82865  36.940  44.672  12.560
11250W        W82866  22.798  24.165   3.804
11251W        W82867  17.103  41.476  11.905
11252W        W82868  43.805  38.339  13.447
11253W        W82869  36.438  21.049  13.891
11254W        W82870   0.173   0.930   3.148
11255W        W82871  38.118   7.162   2.900
11256W        W82872  15.236  43.935  12.138
11257W        W82873   0.269  19.750   0.016
11258W        W82874  26.638   3.219   0.854
11259W        W82875  18.679  28.687  14.710
11260W        W82876  22.258  10.926  13.231
11261W        W82877   2.174  26.926  12.613
11262W        W82878  16.685  28.411  14.822
11263W        W82879   7.170  30.496  13.219
11264W        W82880   7.792   5.962   0.033
11265W        W82881  26.955   8.839   4.112
11266W        W82882   2.552  43.897   1.385
11267W        W82883   9.907  14.277  14.459
11268W        W82884  40.847  41.522  13.442
11269W        W82885  41.346  14.828   4.344
11270W        W82886  10.154  22.250   3.164
11271W        W82887   6.669   3.364  12.535
11272W        W82888  10.895  10.815   2.346
11273W        W82889  32.923  21.697   2.250
11274W        W82890   2.730  27.049   3.860
11275W        W82891  24.086   5.657  12.093
11276W        W82892  44.012   4.940  14.265
11277W        W82893  31.072  10.290   1.381
11278W        W82894  39.874  16.456   3.579
11279W        W82895   7.640  32.647  13.010
11280W        W82896   2.858  15.165   0.837
11281W        W82897  24.671   5.811   2.817
11282W        W82898  11.553  42.371  11.025
11283W        W82899  43.961  33.758   1.047
11284W        W82900  21.556  29.080  10.623
11285W        W82901   8.889  19.698   3.772
11286W        W82902   4.196  25.282  11.781
11287W        W82903  14.372  43.854  12.667
11288W        W82904  44.101  11.347   2.105
11289W        W82905   4.255  34.976   4.147
11290W        W82906   6.013   1.845   4.589
11291W        W82907   4.197  43.013  10.917
11292W        W82908  22.602  18.257   2.013
11293W        W82909  32.814  27.187   4.675
11294W        W82910  37.294  25.076   3.864
11295W        W82911  19.171  24.050  10.667
11296W        W82912   5.495   0.816   1.525
11297W        W82913   2.093   0.816   4.343
11298W        W82914  38.582  23.254   3.774
11299W        W82915   2.832  26.141  13.854
11300W        W82916  42.425   1.365  12.628
11301W        W82917  37.508   5.176  13.388
11302W        W82918   9.426  23.633   2.036
11303W        W82919   9.095  15.083   1.721
11304W        W82920  26.842  32.094  10.530
11305W        W82921  15.274  10.757   0.533
11306W        W82922   7.861  38.538   0.765
11307W        W82923  25.238   1.854   3.021
11308W        W82924  30.693  21.523  12.557
11309W        W82925  30.571   9.368  12.866
11310W        W82926  14.315  35.215   2.289
11311W        W82927  42.309   7.405  13.442
11312W        W82928  19.302  28.614  11.080
11313W        W82929  37.936  31.086  14.506
11314W        W82930  27.367  10.857   2.893
11315W        W82931  38.045  35.158   3.673
11316W        W82932  22.040  19.142  13.884
11317W        W82933   8.381   6.545  14.355
11318W        W82934   7.819  34.082   1.447
11319W        W82935  37.509  15.525  10.210
11320W        W82936  18.355  34.345   1.354
11321W        W82937  34.410   9.590   4.049
11322W        W82938  14.842  40.862   0.510
11323W        W82939  26.531  44.208   3.500
11324W        W82940   1.893  14.339   0.392
11325W        W82941  41.537  27.940  14.187
11326W        W82942  39.442   8.437  13.999
11327W        W82943  44.384  33.608   1.958
11328W        W82944  24.072  15.822  12.970
11329W        W82945   9.872  23.220   4.212
11330W        W82946  32.425  35.991   1.652
11331W        W82947  18.169   9.287  12.896
11332W        W82948  32.025   3.540   1.252
11333W        W82949  37.196   5.985  13.731
11334W        W82950   0.858   6.872  12.888
11335W        W82951  43.966   0.055   3.705
11336W        W82952  20.196   3.580   3.233
11337W        W82953  35.565  20.282   2.266
11338W        W82954   4.811  21.669   5.045
11339W        W82955  24.799  29.387  14.766
11340W        W82956  10.875  30.119  11.417
11341W        W82957  37.185  43.734   0.900
11342W        W82958  30.486  37.955   0.633
11343W        W82959  16.654  34.398  12.939
11344W        W82960  23.731  21.808  14.418
11345W        W82961  27.959   3.581  12.970
11346W        W82962  22.358  26.724  11.574
11347W        W82963  17.095  13.356   2.880
11348W        W82964  18.046  41.360  14.502
11349W        W82965  31.525  42.913   4.978
11350W        W82966  17.236  21.028  14.341
11351W        W82967  29.216   3.409  10.007
11352W        W82968  34.497  17.609   4.633
11353W        W82969  15.189   2.426  12.575
11354W        W82970  38.000   5.042  13.429
11355W        W82971   0.887  42.499  13.713
11356W        W82972  30.941  21.790   1.235
11357W        W82973  31.645   8.609  14.509
11358W        W82974  34.703  36.619  12.854
11359W        W82975  38.660  11.958  14.740
11360W        W82976  14.576  37.718  14.474
11361W        W82977  38.859  18.279   1.984
11362W        W82978  41.995  40.033   3.243
11363W        W82979  25.670  27.605  14.862
11364W        W82980   8.406  34.416  13.314
11365W        W82981  38.334   5.267   4.125
11366W        W82982  19.130   9.767   2.957
11367W        W82983  27.995  34.142  12.124
11368W        W82984  28.665  18.658   2.596
11369W        W82985  25.965   2.725  12.434
11370W        W82986  26.392   7.164   2.356
11371W        W82987  37.955   2.475   0.442
11372W        W82988   1.271   6.681   4.450
11373W        W82989  28.503  31.839  10.515
11374W        W82990  15.797  19.643   4.918
11375W        W82991  41.902  35.784  14.307
11376W        W82992  26.404   8.306  14.868
11377W        W82993   3.358   9.497   2.232
11378W        W82994   7.568  24.504  13.527
11379W        W82995  13.288  40.438  12.005
11380W        W82996  44.091  26.565  11.988
11381W        W82997  11.798  12.948   0.403
11382W        W82998  29.928   0.321  13.514
11383W        W82999  29.394   6.633  14.275
11384W        W83000  38.933  33.020  10.454
11385W        W83001   3.536  29.005  10.463
11386W        W83002  43.241   6.895  14.023
11387W        W83003  33.567  44.035  11.630
11388W        W83004  33.998  44.366   5.001
11389W        W83005  16.063   6.174   0.442
11390W        W83006  40.952   3.203  13.302
11391W        W83007  28.766  40.313  12.945
11392W        W83008  40.361   8.632  12.790
11393W        W83009  19.180  28.243  10.722
11394W        W83010  25.334  36.085  12.369
11395W        W83011  42.039  19.665  14.786
11396W        W83012  33.308  11.439  13.951
11397W        W83013  39.493  22.683  13.701
11398W        W83014  15.110  16.858   1.696
11399W        W83015   9.840  33.024  10.753
11400W        W83016  37.760  25.459   4.096
11401W        W83017   3.506  44.694  13.983
11402W        W83018  19.198   4.291  12.019
11403W        W83019  28.584  27.371   3.410
11404W        W83020  12.166   8.271   0.879
11405W        W83021  16.594  25.166  11.110
11406W        W83022  34.510  31.602   2.716
11407W        W83023  31.166  11.198   1.866
11408W        W83024   6.746  27.416  14.478
11409W        W83025   7.313  27.184   2.706
11410W        W83026   2.510  31.867   3.607
11411W        W83027   5.567  20.471   4.123
11412W        W83028  22.564  28.147  14.789
11413W        W83029  26.408  29.543  12.557
11414W        W83030  44.443  40.925  10.283
11415W        W83031   0.368  28.472  11.420
11416W        W83032  25.112  23.221   4.162
11417W        W83033  11.807  32.597  10.704
11418W        W83034  21.175  40.719  14.238
11419W        W83035   7.819  31.030   2.611
11420W        W83036  23.744   8.687   1.828
11421W        W83037  10.321  20.575  14.949
11422W        W83038  34.491   6.431   3.263
11423W        W83039  13.550   0.729  13.437
11424W        W83040   9.789  36.536   2.274
11425W        W83041  22.126  17.117   4.111
11426W        W83042  40.435  36.355  14.762
11427W        W83043  42.319  39.458   2.140
11428W        W83044  21.161  44.320   0.024
11429W        W83045  34.769  12.832  11.485
11430W        W83046  29.109  31.553  14.780
11431W        W83047  19.174   5.153  10.626
11432W        W83048  11.695  18.495   3.436
11433W        W83049  39.954   6.342   4.377
11434W        W83050  36.873   9.089  13.906
11435W        W83051  23.450  36.418   3.105
11436W        W83052  17.179  25.523   1.801
11437W        W83053  37.340  21.016   1.838
11438W        W83054   6.270  34.587  13.450
11439W        W83055  20.824  44.831  12.607
11440W        W83056   0.114  42.753   2.273
11441W        W83057  26.913  43.275  12.309
11442W        W83058  32.426  36.803  12.878
11443W        W83059  36.295   3.789  13.812
11444W        W83060  23.915  16.793  11.602
11445W        W83061   1.285  33.120  11.525
11446W        W83062  14.567  41.388  14.081
11447W        W83063  11.376  13.558   3.183
11448W        W83064  14.537  17.326   0.899
11449W        W83065  18.534   7.637  13.465
11450W        W83066  34.640  26.195   0.454
11451W        W83067   1.884  35.269   3.841
11452W        W83068   7.865  31.523  11.326
11453W        W83069  29.210  24.179   1.439
11454W        W83070  22.089   4.296  10.762
11455W        W83071   9.239  26.989   2.298
11456W        W83072  22.361   3.939   2.858
11457W        W83073  16.726  18.691   3.439
11458W        W83074  22.474   9.414  11.546
11459W        W83075  10.614  38.086   2.909
11460W        W83076  39.297  24.761  12.121
11461W        W83077  36.986   6.965  10.655
11462W        W83078  38.642  12.090  13.818
11463W        W83079   7.243  29.761   0.365
11464W        W83080  33.130  13.267  10.666
11465W        W83081  44.874  34.978  14.703
11466W        W83082  10.286   5.877   3.367
11467W        W83083  30.447  33.930  13.101
11468W        W83084  22.145  26.642   0.869
11469W        W83085  23.280  27.411   1.243
11470W        W83086   3.485  30.919   3.230
11471W        W83087  30.096   8.267   1.259
11472W        W83088  41.783  16.720   0.306
11473W        W83089  23.292  14.526   4.580
11474W        W83090  19.393  32.740   4.470
11475W        W83091   3.217  35.834   0.366
11476W        W83092  22.824  25.637   0.257
11477W        W83093  41.515   4.727  10.784
11478W        W83094   5.261  16.802  11.180
11479W        W83095  12.367  42.493  10.726
11480W        W83096  34.199  37.025   0.283
11481W        W83097   1.498   9.396   2.289
11482W        W83098  36.626   4.901  13.520
11483W        W83099  28.004  12.108  11.541
11484W        W83100  16.231   2.221   4.910
11485W        W83101  14.756   8.645  12.930
11486W        W83102  35.925  11.809  10.689
11487W        W83103  14.618  28.179  12.512
11488W        W83104  18.014  18.330   3.693
11489W        W83105  31.656   8.079  13.387
11490W        W83106  22.271   1.079  13.024
11491W        W83107  29.695  38.501   2.237
11492W        W83108  25.637  35.606  14.840
11493W        W83109  15.809  23.975   4.486
11494W        W83110  24.071  15.774  10.348
11495W        W83111   3.765  14.431   3.693
11496W        W83112  30.609  22.670   4.522
11497W        W83113  37.598  15.157  11.398
11498W        W83114  32.386  43.831  14.960
11499W        W83115  44.963  23.285   3.557
11500W        W83116   7.984  18.224  14.813
11501W        W83117  13.259  40.305  13.533
11502W        W83118   7.296   9.530  12.958
11503W        W83119  29.493   8.621  14.863
11504W        W83120  13.845  32.881   0.301
11505W        W83121  19.566  19.248   4.166
11506W        W83122  38.926   8.749  11.616
11507W        W83123   6.281  38.467  13.209
11508W        W83124  41.496  35.583  12.445
11509W        W83125   6.449  39.071   1.334
11510W        W83126   4.648  31.452  13.635
11511W        W83127  37.163  19.638  12.549
11512W        W83128   1.830  19.117   1.413
11513W        W83129  15.577   3.710   5.488
11514W        W83130  40.922  18.215   2.895
11515W        W83131  42.442  43.955  13.570
11516W        W83132  11.024  20.977  12.538
11517W        W83133  12.752  27.677  11.764
11518W        W83134   0.872   3.484   3.078
11519W        W83135  12.083   0.896  11.202
11520W        W83136  25.838  34.884   4.140
11521W        W83137  40.888  16.528  11.071
11522W        W83138  43.295  41.114  12.015
11523W        W83139   0.514   6.344   0.884
11524W        W83140  36.388  36.965  10.639
11525W        W83141   4.219  16.862  11.157
11526W        W83142  14.077  11.303  12.535
11527W        W83143  43.904  25.535   4.060
11528W        W83144  41.739  16.277  12.039
11529W        W83145  27.516  24.360   0.697
11530W        W83146  36.231  37.444  12.873
11531W        W83147  12.102  19.814  12.764
11532W        W83148  37.577   6.447  13.114
11533W        W83149  17.416  35.966   2.230
11534W        W83150   4.804  19.475  13.881
11535W        W83151  20.358  19.773   4.079
11536W        W83152  41.014  37.342   2.070
11537W        W83153  33.506  17.603  11.480
11538W        W83154  12.442  13.650   2.964
11539W        W83155  17.200  16.671  10.527
11540W        W83156  13.691  31.521   1.647
11541W        W83157  43.515  11.373  13.443
11542W        W83158   8.711  31.907  14.914
11543W        W83159  20.542   1.951  13.468
11544W        W83160  16.214  12.897  14.287
11545W        W83161   7.600  27.653   2.776
11546W        W83162  43.314  44.365  11.867
11547W        W83163  23.763  15.912  12.435
11548W        W83164  16.326  36.665   2.349
11549W        W83165  35.989   3.973  12.580
11550W        W83166  37.389  20.481  12.059
11551W        W83167   0.073  40.603  13.094
11552W        W83168  34.588  14.177   0.917
11553W        W83169  15.662  34.611   1.302
11554W        W83170  42.842  26.983  11.031
11555W        W83171  34.094  33.973  11.401
11556W        W83172   7.964  29.871  11.241
11557W        W83173  21.498   8.577   0.844
11558W        W83174  40.606  19.984  12.480
11559W        W83175  35.843  15.219  11.868
11560W        W83176  30.787   1.290   4.594
11561W        W83177  36.480  42.446   4.861
11562W        W83178  32.152   8.379  11.578
11563W        W83179   0.456  19.109  12.379
11564W        W83180   5.774  31.918   3.323
11565W        W83181   1.785  18.596   1.480
11566W        W83182  34.137  18.245  11.452
11567W        W83183  38.930  22.582   1.436
11568W        W83184  17.301  21.257   1.180
11569W        W83185  30.439  44.806   3.359
11570W        W83186  38.997  14.000   2.338
11571W        W83187  29.567  25.233  11.640
11572W        W83188  14.328  37.073   2.284
11573W        W83189  34.676  17.332   9.857
11574W        W83190   2.704  37.504   4.635
11575W        W83191  39.554  18.758   2.278
11576W        W83192  10.080  32.396  12.461
11577W        W83193  28.197  39.877   1.677
11578W        W83194   0.036   3.568  11.698
11579W        W83195   0.183   5.883   3.685
11580W        W83196  22.413  11.775  14.630
11581W        W83197  32.914   3.264  10.704
11582W        W83198  36.407  25.637   0.778
11583W        W83199  22.003  32.071   0.200
11584W        W83200   9.467   5.968  13.916
11585W        W83201  32.898  38.346   4.138
11586W        W83202  34.518  43.180  13.494
11587W        W83203  38.607  35.456   2.609
11588W        W83204  38.368  28.481   3.871
11589W        W83205  23.377   7.785   4.564
11590W        W83206   2.911  10.967   0.410
11591W        W83207  11.592   9.671  11.092
11592W        W83208  39.582  42.930   0.796
11593W        W83209   4.320  30.346  12.366
11594W        W83210  22.490  25.189   0.221
11595W        W83211  26.895  36.042  13.012
11596W        W83212   2.259  42.859  12.257
11597W        W83213   2.711  13.558  14.584
11598W        W83214  43.130  35.386   0.169
11599W        W83215  42.232  31.812   3.063
11600W        W83216  23.694  11.610   1.418
11601W        W83217   6.834  29.719   3.289
11602W        W83218  18.721  31.874  13.427
11603W        W83219   0.299  30.461   3.387
11604W        W83220   3.506  32.589   4.760
11605W        W83221   7.209  39.592  14.494
11606W        W83222  24.472  28.518   4.775
11607W        W83223   7.006  22.678   4.140
11608W        W83224   1.026  27.087   1.010
11609W        W83225  15.267  37.257   0.803
11610W        W83226   8.633  21.844  13.887
11611W        W83227  29.063   7.258  11.142
11612W        W83228  11.823  24.761  10.776
11613W        W83229   4.441  31.947  11.430
11614W        W83230  22.062   4.198   0.029
11615W        W83231  43.411  42.969  14.388
11616W        W83232  36.862  36.027  11.026
11617W        W83233  39.776  43.046   4.434
11618W        W83234  23.088   5.504  12.096
11619W        W83235   8.878  21.031   4.572
11620W        W83236  36.933  39.278   4.893
11621W        W83237  35.167  43.998  12.393
11622W        W83238  38.135  37.422  13.582
11623W        W83239  20.902  40.027  13.980
11624W        W83240  13.207  40.369   3.425
11625W        W83241   5.952  31.916  11.058
11626W        W83242  15.775  21.765   0.970
11627W        W83243  34.368  32.094   2.710
11628W        W83244  43.192  44.170   2.218
11629W        W83245  40.083   2.725  14.519
11630W        W83246  11.633  37.011   3.904
11631W        W83247  39.499  39.140  13.042
11632W        W83248   6.735  18.826   3.908
11633W        W83249  10.011  15.215   1.461
11634W        W83250  41.610  21.707  11.129
11635W        W83251  33.897   3.027  12.563
11636W        W83252   1.941  19.982   1.794
11637W        W83253  16.822   8.237   0.812
11638W        W83254  34.606  33.510   1.859
11639W        W83255   5.957  21.521   0.028
11640W        W83256   2.729  12.756   0.739
11641W        W83257   6.200   9.325  11.119
11642W        W83258  28.238  38.029   9.997
11643W        W83259  34.439  13.560   2.826
11644W        W83260   7.883  30.643   1.688
11645W        W83261  26.029  12.258  13.076
11646W        W83262  40.946  37.909  14.500
11647W        W83263  26.962  10.483  14.381
11648W        W83264  32.406  22.617   2.429
11649W        W83265  21.436  44.898   2.851
11650W        W83266   5.111  37.268   0.883
11651W        W83267   0.765  17.720   1.471
11652W        W83268  31.457  20.131   1.259
11653W        W83269  29.104   5.937   4.029
11654W        W83270  23.619   6.675  12.248
11655W        W83271  10.492  42.008  13.934
11656W        W83272  10.700  30.668  14.218
11657W        W83273  17.071  37.090   4.296
11658W        W83274   5.230  31.501  12.972
11659W        W83275  31.370  29.390   0.710
11660W        W83276  38.848   2.981   2.628
11661W        W83277  24.740  40.052  13.138
11662W        W83278  39.244   9.827   0.951
11663W        W83279  33.872  11.935  12.031
11664W        W83280  41.956   6.671  10.462
11665W        W83281  29.922  14.605  14.444
11666W        W83282  22.736  14.175  11.259
11667W        W83283   3.883  34.998  13.374
11668W        W83284  15.340  31.995   1.331
11669W        W83285   5.290  11.849  12.431
11670W        W83286  15.705   4.200   2.699
11671W        W83287  17.533  44.217  10.142
11672W        W83288  24.889  16.892   4.062
11673W        W83289  13.119  12.768  12.549
11674W        W83290  32.398  31.075   4.065
11675W        W83291  26.190  32.216   3.669
11676W        W83292  21.096  42.769  14.816
11677W        W83293  15.122   8.925  11.683
11678W        W83294   9.345  30.364  13.812
11679W        W83295  42.529   5.804   2.687
11680W        W83296  26.055   2.033  13.853
11681W        W83297  19.069  30.023   2.887
11682W        W83298  34.382  35.968   1.734
11683W        W83299  37.492   0.366  12.207
11684W        W83300  44.188  24.958   3.281
11685W        W83301  21.284  23.517   2.633
11686W        W83302  37.118   1.043  11.159
11687W        W83303  13.700  16.083  14.264
11688W        W83304  42.915  12.112  12.970
11689W        W83305  44.757  35.375   0.406
11690W        W83306  37.931   7.430   3.316
11691W        W83307  23.396  40.780  11.989
11692W        W83308  37.417   8.281  12.529
11693W        W83309  35.083   4.613   0.936
11694W        W83310  10.334  25.942  13.003
11695W        W83311   6.198  37.084   4.279
11696W        W83312  27.003  15.331  12.623
11697W        W83313  25.726  43.047  12.546
11698W        W83314  30.642  25.253  11.535
11699W        W83315  22.574  37.097  14.825
11700W        W83316  13.803   0.221   3.175
11701W        W83317  18.302  37.578  12.515
11702W        W83318   0.684   5.617   1.316
11703W        W83319   3.900  37.126   2.883
11704W        W83320  32.566  13.382  11.475
11705W        W83321   5.245  29.601   1.723
11706W        W83322  18.181  26.108   0.505
11707W        W83323   2.410  39.859  13.081
11708W        W83324   1.493  44.835   3.762
11709W        W83325  32.010   5.182   3.678
11710W        W83326  11.666   0.969   4.692
11711W        W83327  26.929  10.631  11.835
11712W        W83328  19.319   5.659  12.229
11713W        W83329  42.180  21.751  11.896
11714W        W83330  41.982   9.369  11.790
11715W        W83331  33.134  38.104  11.100
11716W        W83332  14.017  35.805   0.875
11717W        W83333   8.706  12.352  11.878
11718W        W83334  23.157  30.174   2.930
11719W        W83335   4.549  42.964  13.110
11720W        W83336  43.590  34.978   3.964
11721W        W83337   5.099  10.837  10.689
11722W        W83338  19.122   4.009  13.511
11723W        W83339  34.311   0.396  11.521
11724W        W83340  22.688  15.638   4.456
11725W        W83341  31.086  36.439  10.372
11726W        W83342  44.690   2.338  12.083
11727W        W83343  16.586  25.090   3.335
11728W        W83344  26.034  43.450   0.173
11729W        W83345  11.330  40.870   2.439
11730W        W83346  16.087  36.875   2.765
11731W        W83347  29.097  41.006   0.265
11732W        W83348   9.866  41.819  10.868
11733W        W83349  39.348  26.291   4.170
11734W        W83350  33.434  23.555   1.309
11735W        W83351  34.507  34.015   1.995
11736W        W83352  42.643  34.095   3.199
11737W        W83353  35.050  32.206  12.861
11738W        W83354   0.320  35.341   5.125
11739W        W83355  31.130  10.837   3.611
11740W        W83356  26.441  42.394  13.745
11741W        W83357  41.282  20.140  13.826
11742W        W83358  18.089  30.907  13.411
11743W        W83359  21.166  26.057   4.493
11744W        W83360   2.488  14.597   0.433
11745W        W83361  32.944  31.581  14.467
11746W        W83362  10.244  37.935  14.418
11747W        W83363   6.234  41.510   0.340
11748W        W83364  35.936  26.731   2.665
11749W        W83365  35.160  23.671   4.233
11750W        W83366   7.313   5.786  14.847
11751W        W83367  23.649  34.095  13.429
11752W        W83368  25.537  34.494   0.297
11753W        W83369   7.943  32.824  11.648
11754W        W83370   3.358  13.889   4.290
11755W        W83371  11.130  43.794   2.363
11756W        W83372   8.167  40.284   2.577
11757W        W83373  20.306   7.336   4.919
11758W        W83374  34.373  32.374   0.689
11759W        W83375  16.085  15.262   5.428
11760W        W83376  25.205  18.584  12.688
11761W        W83377  11.696   5.760   2.588
11762W        W83378  29.866   2.093  13.876
11763W        W83379  24.151  29.250  11.206
11764W        W83380   8.970  26.489  12.109
11765W        W83381   0.792  39.493  14.495
11766W        W83382  24.453  42.289  11.508
11767W        W83383  40.079  35.511  11.938
11768W        W83384  31.373  34.875  11.571
11769W        W83385  20.977  41.627  12.855
11770W        W83386  28.169   0.928   2.166
11771W        W83387  34.780  25.088   4.829
11772W        W83388  34.102  12.030   0.477
11773W        W83389  35.374  38.945  12.545
11774W        W83390  41.331  32.182  10.909
11775W        W83391  42.972  13.262   4.328
11776W        W83392   5.592   6.040  10.913
11777W        W83393  25.557  35.763   2.546
11778W        W83394   0.763  39.428   2.018
11779W        W83395  31.499   8.427  12.035
11780W        W83396  38.273  20.948   1.871
11781W        W83397  11.738  40.046  12.812
11782W        W83398  27.856  15.756   0.035
11783W        W83399   6.291  30.679  10.642
11784W        W83400  22.460   3.314   4.329
11785W        W83401  16.741  22.655  13.699
11786W        W83402  41.825  25.229   1.343
11787W        W83403  11.482  15.179  11.172
11788W        W83404  41.049  11.227  14.769
11789W        W83405  35.583  10.921   1.010
11790W        W83406  35.518  39.040   4.385
11791W        W83407   2.886  42.831   1.821
11792W        W83408   5.299  11.500   4.378
11793W        W83409   3.324   4.847   4.148
11794W        W83410  27.045  18.884   4.086
11795W        W83411  25.177  20.644   4.304
11796W        W83412   5.590  22.860   0.879
11797W        W83413  32.554  16.261  14.993
11798W        W83414   6.336  14.252  14.200
11799W        W83415  10.416  18.496   2.302
11800W        W83416  39.439  16.123  10.339
11801W        W83417  43.307  28.161   4.138
11802W        W83418  38.497  25.501   1.791
11803W        W83419   0.507  39.390   3.921
11804W        W83420  42.368   3.272  12.083
11805W        W83421   1.455   1.012   0.319
11806W        W83422  33.927  39.455  12.633
11807W        W83423  10.996   0.295   2.337
11808W        W83424  29.449   3.959   0.407
11809W        W83425  10.204   0.326  10.064
11810W        W83426  11.834  26.717   3.284
11811W        W83427  14.081  27.026  11.546
11812W        W83428  39.321   6.275  10.064
11813W        W83429  24.130  28.193   0.361
11814W        W83430   3.989  11.735   2.706
11815W        W83431  14.551  23.467  14.338
11816W        W83432   1.751  30.574   3.735
11817W        W83433  11.803  19.514   2.554
11818W        W83434  26.959  32.463   1.415
11819W        W83435  38.759  16.886   4.545
11820W        W83436  41.464  40.361  13.889
11821W        W83437   5.366  14.301  14.972
11822W        W83438  43.460  22.160   0.251
11823W        W83439  12.577  29.645  14.841
11824W        W83440   9.901  11.812   0.321
11825W        W83441  26.122   6.896   1.703
11826W        W83442   2.467   6.555  11.260
11827W        W83443  15.302   2.442   3.383
11828W        W83444   7.326  26.012   0.814
11829W        W83445   4.858  10.946  14.251
11830W        W83446  18.851  38.026   1.337
11831W        W83447  44.312   7.006   2.431
11832W        W83448  43.039   4.228   4.233
11833W        W83449  20.059  27.166  14.848
11834W        W83450  36.959  43.290  12.029
11835W        W83451  43.035  10.118   3.582
11836W        W83452  30.887  17.164   4.163
11837W        W83453  34.665   7.623   1.278
11838W        W83454  15.723  44.844  14.259
11839W        W83455   3.750  41.053   4.502
11840W        W83456   6.407  40.786   2.275
11841W        W83457  28.877  43.259  13.970
11842W        W83458  26.726  41.550   0.584
11843W        W83459  32.585  29.156   4.631
11844W        W83460  32.559  33.587  14.146
11845W        W83461  22.306   5.732   3.228
11846W        W83462   6.691  43.606  14.841
11847W        W83463   5.377  32.474   1.703
11848W        W83464  26.889   9.908   4.121
11849W        W83465   4.227  24.258   2.192
11850W        W83466  41.478  40.046   3.394
11851W        W83467  35.058   6.207  12.941
11852W        W83468  20.120  42.894   4.125
11853W        W83469  20.020  37.336   2.422
11854W        W83470  33.442  37.331  12.216
11855W        W83471  28.110  43.866   4.679
11856W        W83472  33.447  21.229  12.478
11857W        W83473  36.639  28.125   2.381
11858W        W83474   6.966  27.151   3.130
11859W        W83475   3.389   3.010   3.692
11860W        W83476  23.379  16.188   0.327
11861W        W83477   1.273  36.616  12.612
11862W        W83478  25.497  30.966  11.639
11863W        W83479  21.605  30.024  11.605
11864W        W83480  34.758   9.601   1.070
11865W        W83481  23.586  18.623  12.585
11866W        W83482  30.645  29.116   0.683
11867W        W83483   5.210  37.385   4.603
11868W        W83484   8.593  44.970   0.851
11869W        W83485   9.751  35.057   2.245
11870W        W83486  35.285  27.587   0.786
11871W        W83487  27.685  12.732  11.220
11872W        W83488  44.422  20.732  11.615
11873W        W83489   7.918  14.535  11.048
11874W        W83490   6.664   6.696  11.286
11875W        W83491  25.448  10.914   2.177
11876W        W83492   4.431   8.811   1.870
11877W        W83493  39.973  20.817   1.244
11878W        W83494  43.767  40.365  11.961
11879W        W83495  19.355   2.761  11.798
11880W        W83496  42.578  16.770   2.705
11881W        W83497  11.551  22.667  14.210
11882W        W83498  18.492  17.777   2.598
11883W        W83499  10.145  22.350   5.064
11884W        W83500  43.024   6.805   2.741
11885W        W83501  43.564  25.083  12.663
11886W        W83502  15.414  33.541   2.974
11887W        W83503  14.085   9.334   0.697
11888W        W83504  38.909  25.285   2.906
11889W        W83505  21.559   8.632   4.023
11890W        W83506  11.746  26.767   0.736
11891W        W83507  44.805  39.136  14.034
11892W        W83508  33.423   3.280   1.648
11893W        W83509  39.027  30.653   0.254
11894W        W83510   0.352   9.728   0.493
11895W        W83511   1.550  29.480   2.686
11896W        W83512  42.300  36.509  11.144
11897W        W83513  33.910   4.689   2.811
11898W        W83514  37.842  28.565   4.031
11899W        W83515  25.946  38.387  13.914
11900W        W83516  32.603   1.285   4.520
11901W        W83517  11.895  27.019   1.203
11902W        W83518  19.670  42.878  12.585
11903W        W83519  11.870  27.243   3.931
11904W        W83520  35.101   1.530   0.739
11905W        W83521   4.434  15.822   2.191
11906W        W83522  25.565  30.145  13.517
11907W        W83523  24.728  19.341   4.572
11908W        W83524  27.792  26.459  12.245
11909W        W83525  16.710  29.199   4.160
11910W        W83526  42.510  21.330  14.382
11911W        W83527  29.959  22.494  11.992
11912W        W83528  33.705  44.446   2.220
11913W        W83529  23.537  42.554  10.672
11914W        W83530  17.905  43.316   5.109
11915W        W83531  18.882  23.699   2.732
11916W        W83532  42.669  35.345  14.860
11917W        W83533  12.411  41.819   2.446
11918W        W83534  25.101  20.090  11.172
11919W        W83535   7.863  44.677   5.080
11920W        W83536  30.532   4.816   2.365
11921W        W83537  18.590  19.401  10.421
11922W        W83538  18.255  26.963  13.514
11923W        W83539   1.800  13.741  14.787
11924W        W83540   2.737  42.038  12.171
11925W        W83541  10.836   9.373  13.469
11926W        W83542  24.559   6.101  11.197
11927W        W83543  22.645   7.199  13.818
11928W        W83544  17.725  26.236  12.986
11929W        W83545  22.412  21.647   3.604
11930W        W83546   9.510  12.664   4.025
11931W        W83547  21.034  17.562   0.079
11932W        W83548   4.050  18.807  11.497
11933W        W83549   1.785  36.149  14.671
11934W        W83550  33.837  36.588  13.094
11935W        W83551  32.207   6.733  13.038
11936W        W83552  17.599   7.189   2.670
11937W        W83553  26.631  44.430   5.044
11938W        W83554  35.804  17.801  13.021
11939W        W83555  17.027   8.372   2.468
11940W        W83556  35.117  30.550  12.634
11941W        W83557  23.322   0.772  13.893
11942W        W83558  32.553  24.780   4.609
11943W        W83559  19.075  38.695  12.301
11944W        W83560  25.598  28.106   4.513
11945W        W83561  26.673  44.016   2.132
11946W        W83562  38.003  28.220  12.130
11947W        W83563   7.262  31.002   2.367
11948W        W83564  42.447  21.569   0.880
11949W        W83565  10.268  33.187   3.666
11950W        W83566  22.381  29.168  14.142
11951W        W83567  17.551  15.353   4.086
11952W        W83568  14.756  41.070   2.496
11953W        W83569   3.966  23.097   3.542
11954W        W83570  10.174  34.676   1.185
11955W        W83571  35.626   7.604  12.035
11956W        W83572  32.414  38.002   3.395
11957W        W83573  30.460  31.274  11.550
11958W        W83574   7.697   0.799   0.856
11959W        W83575  16.510  43.302   2.739
11960W        W83576  18.221  38.621   4.184
11961W        W83577  18.473  44.813  10.223
11962W        W83578  42.782  43.950   4.730
11963W        W83579   0.101  38.243   9.620
11964W        W83580   2.268  40.698   2.686
11965W        W83581  21.045  29.945   2.624
11966W        W83582   4.824  41.109   4.999
11967W        W83583  18.699  31.990  14.846
11968W        W83584  13.175  27.218   1.802
11969W        W83585  28.883  39.846  12.200
11970W        W83586  44.444   4.524   0.071
11971W        W83587   8.591   2.810  10.955
11972W        W83588  39.986  18.138  12.950
11973W        W83589  17.509  24.561  14.861
11974W        W83590  42.677  34.012  12.871
11975W        W83591   8.244  37.970  10.961
11976W        W83592  11.443  33.385   4.219
11977W        W83593  13.360  12.844  12.012
11978W        W83594  32.434  44.463   5.490
11979W        W83595  17.160   2.426   1.701
11980W        W83596  31.503   6.057   0.042
11981W        W83597   0.745  28.648   3.263
11982W        W83598  42.527  34.563  10.563
11983W        W83599   0.752  29.615  10.709
11984W        W83600   5.620   1.355  14.849
11985W        W83601   5.423  25.134  12.901
11986W        W83602  42.300  36.783   2.332
11987W        W83603  19.532   5.483  13.796
11988W        W83604  40.780   3.329  13.766
11989W        W83605  31.397  27.133  11.116
11990W        W83606  32.231  17.173   2.215
11991W        W83607  30.737   6.940   3.955
11992W        W83608  23.392  11.668  14.952
11993W        W83609   2.232  10.226   4.315
11994W        W83610   2.893  39.621  14.910
11995W        W83611  16.633  15.234   3.176
11996W        W83612  33.843   3.523  10.580
11997W        W83613   6.562  28.610   4.098
11998W        W83614  27.462  18.070   2.909
11999W        W83615  12.926  29.100  13.304
12000W        W83616  10.598  16.908   2.830
12001W        W83617   2.851  11.708  12.893
12002W        W83618  20.717   5.969  12.557
12003W        W83619   3.477   5.317   0.378
12004W        W83620   9.700  17.595  14.813
12005W        W83621  16.347   6.810  12.611
12006W        W83622  12.499   5.444  14.018
12007W        W83623  13.130  32.983  14.937
12008W        W83624  43.279  44.905  11.040
12009W        W83625  17.027   3.718   0.491
12010W        W83626  19.357  43.977   3.690
12011W        W83627  44.653  29.502   5.113
12012W        W83628   7.910   6.193  12.585
12013W        W83629   3.967  16.142  10.655
12014W        W83630   3.025   0.864  10.662
12015W        W83631  32.882  17.979   2.276
12016W        W83632  40.530  18.316   1.179
12017W        W83633  42.879  30.561  13.049
12018W        W83634  33.367  43.853  14.866
12019W        W83635  30.867  22.987  11.432
12020W        W83636   0.313  24.913   2.701
12021W        W83637  37.434   4.826  13.023
12022W        W83638  37.925  31.577  13.525
12023W        W83639  40.471   8.265   0.401
12024W        W83640  20.273  20.614  12.888
12025W        W83641   5.622   9.237   3.303
12026W        W83642  27.006   1.098  14.278
12027W        W83643  26.232  25.302  11.056
12028W        W83644  44.038  11.683  11.195
12029W        W83645  28.389   0.080   0.318
12030W        W83646  39.642  21.289   2.091
12031W        W83647  27.007  29.193  13.694
12032W        W83648  17.227  28.693  10.458
12033W        W83649  28.292  15.196  12.641
12034W        W83650  37.895  38.622   1.400
12035W        W83651  43.009  30.982   1.276
12036W        W83652   6.315  44.378  10.716
12037W        W83653  23.776  20.720   3.183
12038W        W83654   0.608   8.199  10.747
12039W        W83655  11.829  17.609  12.515
12040W        W83656  33.458   3.725   4.434
12041W        W83657   1.995  36.248   1.921
12042W        W83658  14.975  23.787   1.376
12043W        W83659  34.212  16.828  14.028
12044W        W83660  43.278  19.509  11.503
12045W        W83661  41.038  20.028   5.046
12046W        W83662  16.229  28.429  10.787
12047W        W83663   8.381   1.357  14.461
12048W        W83664  35.103  25.911   1.286
12049W        W83665  27.913  32.351   1.407
12050W        W83666   9.460  41.709  11.145
12051W        W83667  40.315   3.690   4.599
12052W        W83668   0.891  11.775  11.049
12053W        W83669  11.328   7.598  14.400
12054W        W83670   5.366  15.934  12.337
12055W        W83671   9.370  18.300  13.435
12056W        W83672  27.678  11.643   1.310
12057W        W83673  10.099  32.641   2.302
12058W        W83674  31.551   4.453  14.158
12059W        W83675   7.842   4.976   2.666
12060W        W83676  38.079  12.374  12.453
12061W        W83677   3.415  11.640  12.911
12062W        W83678   5.336  26.662  13.791
12063W        W83679  19.396  10.451   1.203
12064W        W83680  17.481   0.021   3.205
12065W        W83681  31.858  34.948  11.510
12066W        W83682  18.566  18.285  13.060
12067W        W83683   7.387   0.488   0.495
12068W        W83684  29.561  19.235   1.889
12069W        W83685  36.123  31.349   1.302
12070W        W83686  37.871  33.887  14.476
12071W        W83687  11.254  16.837  10.396
12072W        W83688   9.151  25.532  11.119
12073W        W83689  26.218   0.755   2.369
12074W        W83690  20.973  40.824   3.321
12075W        W83691  42.985  33.425   3.836
12076W        W83692   4.808  34.181  13.457
12077W        W83693  12.806  15.330  10.677
12078W        W83694   9.740  13.385   2.380
12079W        W83695  25.622  37.811   0.740
12080W        W83696  37.045  27.156   4.311
12081W        W83697  17.471  21.758  13.894
12082W        W83698  15.219   9.773  12.222
12083W        W83699  39.013  43.359  11.754
12084W        W83700  38.500  32.832   4.642
12085W        W83701  26.194  41.005   1.708
12086W        W83702  43.278   7.878   4.416
12087W        W83703  36.529  14.424  11.766
12088W        W83704  39.567  17.301  14.020
12089W        W83705  21.602  27.095   1.897
12090W        W83706  21.494  28.186   4.138
12091W        W83707  37.477  39.484   4.722
12092W        W83708  24.524   3.246   1.014
12093W        W83709  33.534  39.818   0.949
12094W        W83710  17.725  28.689   2.368
12095W        W83711   4.441  30.474   0.904
12096W        W83712   6.937   0.189  14.007
12097W        W83713   8.074  28.647   0.432
12098W        W83714  19.912  43.731   5.111
12099W        W83715   6.373   8.443  12.684
12100W        W83716  34.572  41.572   3.998
12101W        W83717  35.475  37.641   3.831
12102W        W83718  41.784  36.548   1.439
12103W        W83719  35.031  14.542  10.950
12104W        W83720  25.760  14.265  12.058
12105W        W83721  36.198  23.261  11.188
12106W        W83722   7.346  33.079  11.965
12107W        W83723  19.407  13.642   2.445
12108W        W83724   8.126  31.335   1.374
12109W        W83725   9.711  40.826   0.329
12110W        W83726  41.394   5.362   2.149
12111W        W83727  21.648  31.372   2.231
12112W        W83728  35.533  36.960   1.798
12113W        W83729  36.399   7.078   3.762
12114W        W83730   6.819  10.710   2.147
12115W        W83731   6.762  18.721  13.896
12116W        W83732   3.733  29.851   0.941
12117W        W83733  35.060  12.189   3.703
12118W        W83734  40.108  20.261  12.671
12119W        W83735  41.473  22.178  10.902
12120W        W83736  22.026  31.676   2.459
12121W        W83737  37.893  26.589   2.453
12122W        W83738  15.534  25.908   3.137
12123W        W83739   0.347  26.192   2.751
12124W        W83740  19.905  39.928   9.931
12125W        W83741  35.506  44.956   3.231
12126W        W83742  10.838  37.544   3.679
12127W        W83743  17.763   9.236  13.561
12128W        W83744  34.006   1.972  12.396
12129W        W83745  28.497  22.166  14.981
12130W        W83746  35.830  43.292  11.948
12131W        W83747   3.161  27.139   1.223
12132W        W83748   0.236  24.326   3.361
12133W        W83749  13.558  32.830  12.622
12134W        W83750  44.070   0.859   0.844
12135W        W83751  29.462  13.410   3.599
12136W        W83752   1.207  33.505   3.217
12137W        W83753  44.247  28.101   1.920
12138W        W83754  27.315  37.641   1.212
12139W        W83755  11.133  21.181  14.104
12140W        W83756   2.079  18.771  14.246
12141W        W83757  38.880  18.331   1.469
12142W        W83758  44.610  19.663   3.639
12143W        W83759   1.872   5.873   4.623
12144W        W83760   6.046  34.079  12.430
12145W        W83761  23.976   9.293  12.438
12146W        W83762  24.776  24.123   3.676
12147W        W83763  30.726  34.840  13.516
12148W        W83764  27.083  10.606  10.648
12149W        W83765  12.126  11.413  12.924
12150W        W83766  42.331  44.493  13.470
12151W        W83767   4.587  14.930   3.131
12152W        W83768  35.059   7.917   4.727
12153W        W83769  38.884  40.308  12.129
12154W        W83770   8.769   3.710  12.813
12155W        W83771  15.181  35.337  13.552
12156W        W83772  28.450   2.252  11.398
12157W        W83773  34.526  42.234  11.215
12158W        W83774   9.220  13.147   3.151
12159W        W83775  22.005  41.503  10.529
12160W        W83776  10.588   5.523  12.714
12161W        W83777  17.280  11.152  11.084
12162W        W83778   5.795  35.498  14.419
12163W        W83779  18.638  24.509   0.331
12164W        W83780  22.935  44.822  13.203
12165W        W83781   4.308  18.538   2.752
12166W        W83782  44.562  15.484  11.142
12167W        W83783  12.848  40.732   3.216
12168W        W83784  13.457   1.363  12.090
12169W        W83785  36.548   6.754   3.166
12170W        W83786  17.172   7.791  12.410
12171W        W83787   8.672  35.077  14.413
12172W        W83788  10.162  11.170  11.128
12173W        W83789  13.285  22.136   2.883
12174W        W83790   3.200  15.714   1.985
12175W        W83791  25.597  27.928  12.512
12176W        W83792   6.003  12.606  12.232
12177W        W83793   3.254  17.194  13.022
12178W        W83794  25.963  30.670  11.539
12179W        W83795  36.439  41.069  10.638
12180W        W83796   1.349   8.259  12.654
12181W        W83797  32.415  19.062   2.855
12182W        W83798   2.797  24.905   3.752
12183W        W83799  18.321   7.288  14.742
12184W        W83800  21.983  26.469   3.210
12185W        W83801  11.145  11.580   4.351
12186W        W83802  14.590   6.273  10.608
12187W        W83803  15.204  17.699  11.898
12188W        W83804   2.560  40.500   2.306
12189W        W83805  14.580  23.543  11.115
12190W        W83806  19.651  22.318  14.253
12191W        W83807   7.282   6.186   4.779
12192W        W83808  42.073  32.448  12.479
12193W        W83809   0.898  12.194  14.079
12194W        W83810  23.418  31.983   4.589
12195W        W83811  40.380   2.932   2.407
12196W        W83812  14.436  23.183  13.928
12197W        W83813  19.689  16.158  10.607
12198W        W83814  43.420  44.720  14.021
12199W        W83815  39.784  35.984  12.035
12200W        W83816  34.751  18.238  11.560
12201W        W83817  35.462  40.467   3.612
12202W        W83818   1.219  40.545   1.758
12203W        W83819  35.694  19.581   2.811
12204W        W83820   6.923  23.151   0.972
12205W        W83821  11.924   6.295   0.478
12206W        W83822  17.547  18.797   3.161
12207W        W83823  33.538  22.490   4.281
12208W        W83824  23.138   8.420  10.708
12209W        W83825   9.356   5.770   2.804
12210W        W83826   2.369  22.115   0.936
12211W        W83827  15.715  17.880  12.622
12212W        W83828  32.922   3.924  11.459
12213W        W83829  30.704  43.809   3.190
12214W        W83830  30.010  28.350  14.888
12215W        W83831  37.465  10.845   4.711
12216W        W83832   9.950  30.306  11.512
12217W        W83833  37.497  33.453   4.647
12218W        W83834  26.057  19.165   1.170
12219W        W83835  16.253  42.003  11.796
12220W        W83836  33.157  31.105   0.333
12221W        W83837   8.555  26.247  14.044
12222W        W83838  31.253  44.136   5.096
12223W        W83839  28.088  18.996  10.598
12224W        W83840  21.959  39.680  11.189
12225W        W83841  30.689   3.417   0.306
12226W        W83842  25.799  37.111   0.473
12227W        W83843   2.256   4.819   2.578
12228W        W83844  36.551  28.970   2.185
12229W        W83845   9.209  43.971   2.672
12230W        W83846  37.044  23.568  10.610
12231W        W83847  43.592  39.409   3.726
12232W        W83848  32.578  42.399  14.366
12233W        W83849  43.301   8.864  12.337
12234W        W83850   1.216  11.297  13.043
12235W        W83851  21.244  28.965   4.560
12236W        W83852   9.372  44.984  14.815
12237W        W83853  29.432   6.329   2.612
12238W        W83854  43.469   0.720  12.907
12239W        W83855  22.134   8.310  11.915
12240W        W83856  18.219  37.314   2.142
12241W        W83857  30.866  30.159   1.752
12242W        W83858  26.282   2.193  11.603
12243W        W83859  32.840  24.235   2.826
12244W        W83860   0.328  28.422   2.404
12245W        W83861  14.221   4.366   4.614
12246W        W83862  43.312  14.089   1.260
12247W        W83863   5.747  14.245   3.339
12248W        W83864  26.602  22.296  11.590
12249W        W83865   5.365   5.859  12.462
12250W        W83866   6.936   1.782   3.782
12251W        W83867  29.484   3.531   5.105
12252W        W83868  20.567  44.813   4.642
12253W        W83869  43.337  17.877   4.242
12254W        W83870  27.662  40.330   2.342
12255W        W83871   8.669  42.915   3.651
12256W        W83872   5.370  24.684   2.445
12257W        W83873  39.958  33.388  11.568
12258W        W83874  39.863   0.329   1.636
12259W        W83875  26.932  13.879   3.591
12260W        W83876  12.162   1.827  11.761
12261W        W83877  35.432  23.942  10.789
12262W        W83878  16.165  28.180   2.836
12263W        W83879   5.605  19.270   0.392
12264W        W83880  19.059  11.891  14.878
12265W        W83881  24.038  17.810   1.802
12266W        W83882   1.400  43.022   4.319
12267W        W83883  31.049   6.155   1.376
12268W        W83884  21.073  43.242  11.622
12269W        W83885  16.043  23.688   0.990
12270W        W83886  37.464  17.461  12.200
12271W        W83887  17.181  38.057   1.276
12272W        W83888  23.765  42.883   2.315
12273W        W83889  35.676   1.763  12.657
12274W        W83890   2.442  12.994  11.168
12275W        W83891  34.623   6.908   3.618
12276W        W83892  28.898   5.196   2.969
12277W        W83893   1.010   8.397  11.008
12278W        W83894  16.845  16.455  11.157
12279W        W83895   9.211  22.936   0.357
12280W        W83896  35.575  28.354  12.365
12281W        W83897  44.979  30.729   2.355
12282W        W83898   5.929  11.576  14.087
12283W        W83899   7.695  11.359  12.382
12284W        W83900   3.462   0.281   3.232
12285W        W83901  16.359  39.295  14.031
12286W        W83902  17.637  10.266  13.396
12287W        W83903   9.897  33.552  11.544
12288W        W83904   4.311  35.854   4.754
12289W        W83905  15.659  20.929   5.073
12290W        W83906  29.388   9.208   4.281
12291W        W83907  30.496   4.612  13.851
12292W        W83908  41.775  18.644   2.884
12293W        W83909  26.214  28.572  11.210
12294W        W83910  38.831  35.373   3.684
12295W        W83911  10.132   0.402  12.309
12296W        W83912  33.933   2.705  13.557
12297W        W83913  41.433   3.789  11.361
12298W        W83914   8.944  41.993  12.368
12299W        W83915  22.175   6.886  11.321
12300W        W83916  41.814  11.337  11.226
12301W        W83917  15.678   5.281   2.732
12302W        W83918  13.595   8.754   3.573
12303W        W83919  25.999  43.449  10.999
12304W        W83920  17.582   1.429   2.800
12305W        W83921  24.137  33.481  12.540
12306W        W83922  15.625  11.273  10.650
12307W        W83923  38.576   6.333   3.291
12308W        W83924   1.917  31.179   2.064
12309W        W83925  20.242   0.906   1.110
12310W        W83926  43.559  13.169  12.976
12311W        W83927  16.307  18.588  13.055
12312W        W83928  43.037  12.443  11.131
12313W        W83929   4.183  43.175   2.256
12314W        W83930  39.050  30.009  11.583
12315W        W83931  19.336  16.328   0.876
12316W        W83932  35.198  43.895   3.805
12317W        W83933  16.738  36.002   0.021
12318W        W83934   2.342  30.728   0.521
12319W        W83935  30.159  38.383   0.419
12320W        W83936  40.267  31.611   0.986
12321W        W83937  44.821  31.171  11.783
12322W        W83938  20.246  17.330   2.900
12323W        W83939  35.425   7.476   3.628
12324W        W83940  18.548  27.685   4.652
12325W        W83941  16.433  44.479   4.330
12326W        W83942  28.806  38.495   3.686
12327W        W83943   2.854  43.384   0.010
12328W        W83944  19.212  33.705  10.660
12329W        W83945   8.425  40.480  11.946
12330W        W83946  37.624  32.163  12.300
12331W        W83947   0.993  30.573   5.062
12332W        W83948  19.683  16.983  11.661
12333W        W83949  36.930  16.372  13.313
12334W        W83950  13.201   4.329  14.703
12335W        W83951   9.679  40.443  14.345
12336W        W83952  41.475   9.224  14.548
12337W        W83953   0.139   0.672  11.031
12338W        W83954  43.314  39.116   4.681
12339W        W83955  31.261  18.395   0.218
12340W        W83956  24.598  10.301  14.128
12341W        W83957  33.269  34.926  11.549
12342W        W83958  21.688  33.544  11.340
12343W        W83959   9.810  24.843  13.966
12344W        W83960  36.889  16.594   3.245
12345W        W83961  41.198  13.724  13.382
12346W        W83962  25.470  38.103  14.492
12347W        W83963  43.365  15.286  11.315
12348W        W83964  10.348  31.972  13.553
12349W        W83965   4.823   1.139   2.293
12350W        W83966  23.114  26.335  10.279
12351W        W83967   3.143  10.838  13.539
12352W        W83968  10.189  22.026  12.374
12353W        W83969  33.870  18.638  11.594
12354W        W83970  23.828  36.020  10.696
12355W        W83971  10.691  25.020   2.341
12356W        W83972  10.140   7.933   1.803
12357W        W83973  38.824  30.279   1.827
12358W        W83974   5.291  36.529  10.612
12359W        W83975  36.698  21.839  11.308
12360W        W83976  20.879  34.307   2.116
12361W        W83977  29.067  16.419  12.884
12362W        W83978  21.938  32.894  10.651
12363W        W83979  36.063   3.233   0.379
12364W        W83980   0.249  11.259  11.407
12365W        W83981  21.175   8.013  14.755
12366W        W83982  11.017   0.365  11.352
12367W        W83983  40.297  29.902   4.118
12368W        W83984  37.982  15.468   1.280
12369W        W83985   0.537  41.922   3.660
12370W        W83986  24.781   3.385   3.651
12371W        W83987  44.576  13.295   3.652
12372W        W83988  12.869   4.709   4.794
12373W        W83989  35.413   7.385  14.701
12374W        W83990  39.124  31.014   5.047
12375W        W83991   7.851  15.225   2.312
12376W        W83992  14.284  12.677   2.186
12377W        W83993  10.862  22.643  12.405
12378W        W83994  18.243  34.505   2.725
12379W        W83995  15.242  25.951  13.370
12380W        W83996  28.135   9.637   1.907
12381W        W83997  32.369  19.056   0.404
12382W        W83998   9.638  31.064   1.388
12383W        W83999  30.765   2.475  13.941
12384W        W84000  29.703  24.251   1.335
12385W        W84001  37.543  15.150   0.490
12386W        W84002  22.679  17.301  11.899
12387W        W84003   4.322  19.311  10.795
12388W        W84004  31.004   6.232  14.943
12389W        W84005  19.409  39.792  13.946
12390W        W84006   9.698  14.039  13.995
12391W        W84007   4.050  42.638   5.307
12392W        W84008  10.252   7.361  12.116
12393W        W84009  37.540  15.486  12.264
12394W        W84010  16.604  32.704  14.475
12395W        W84011  10.400  39.580   4.133
12396W        W84012  29.157  42.738  11.142
12397W        W84013   7.692  22.256  10.520
12398W        W84014   5.727  14.342   0.793
12399W        W84015  12.381  19.987  13.465
12400W        W84016   3.743   9.037  12.019
12401W        W84017   2.432  32.977  13.442
12402W        W84018  31.074   4.436   0.485
12403W        W84019  12.722  30.888  11.127
12404W        W84020   9.876  20.619   1.934
12405W        W84021  23.466   1.458   1.389
12406W        W84022  25.721  13.358  10.563
12407W        W84023  29.077   8.754   3.031
12408W        W84024  28.171  11.881   1.319
12409W        W84025  34.496   3.917  12.598
12410W        W84026  27.931  22.100  11.180
12411W        W84027  31.867   7.444   0.675
12412W        W84028  36.860  42.822   5.300
12413W        W84029  23.509  35.028  11.553
12414W        W84030  38.642  10.835  13.992
12415W        W84031  26.106  33.937  12.048
12416W        W84032  29.212  42.832   2.209
12417W        W84033  40.022  42.227  12.921
12418W        W84034  20.996  25.414  11.408
12419W        W84035   6.227  34.263   3.795
12420W        W84036  22.583  19.399   4.081
12421W        W84037  41.423  14.003   2.286
12422W        W84038   8.462  38.019  11.429
12423W        W84039  43.452  33.525  12.852
12424W        W84040  13.410  15.096  14.245
12425W        W84041  21.417  23.661  11.119
12426W        W84042  20.752  12.057  13.509
12427W        W84043  17.758  18.601   2.748
12428W        W84044   4.999  12.404  11.874
12429W        W84045  30.047  38.075   2.324
12430W        W84046  10.052   7.952   0.951
12431W        W84047  43.497  16.186   2.734
12432W        W84048  20.739  16.709  14.042
12433W        W84049  26.277  21.989   2.220
12434W        W84050  34.714  38.786   3.614
12435W        W84051  16.921  14.031   1.631
12436W        W84052  18.725   9.085  13.560
12437W        W84053  39.384  27.673  13.909
12438W        W84054  43.287   3.948  11.258
12439W        W84055  37.615  28.556  11.427
12440W        W84056  34.347   0.945   0.814
12441W        W84057  36.410  43.229   2.226
12442W        W84058  11.256  34.104   0.524
12443W        W84059   9.283   9.127  13.603
12444W        W84060   7.375  17.009  14.425
12445W        W84061  17.166  12.316  11.378
12446W        W84062  42.582  12.847   1.762
12447W        W84063  31.145  33.935   0.414
12448W        W84064  21.125  29.027  12.597
12449W        W84065  42.423  35.003   3.200
12450W        W84066  20.545   8.710  14.857
12451W        W84067  18.473  34.643  10.278
12452W        W84068  23.618  14.590   4.149
12453W        W84069   4.156  33.179   4.313
12454W        W84070  30.494  43.308  12.856
12455W        W84071  39.030  18.690  13.936
12456W        W84072  11.139  15.179   4.599
12457W        W84073  14.933   3.347   1.355
12458W        W84074  36.275  22.699   3.604
12459W        W84075  21.643  26.103   2.893
12460W        W84076  30.011  20.541   0.250
12461W        W84077  24.693  14.276   0.462
12462W        W84078  34.208  43.496  11.383
12463W        W84079  32.671   4.828   0.239
12464W        W84080   3.176   8.301   1.634
12465W        W84081  43.295   1.343  12.552
12466W        W84082  32.657  28.762  12.865
12467W        W84083  11.442  37.303  12.586
12468W        W84084   4.184  30.027   0.765
12469W        W84085  30.878   2.869  12.610
12470W        W84086   4.729  39.588  11.222
12471W        W84087  34.540  23.122  12.649
12472W        W84088  40.916  39.522  12.569
12473W        W84089  39.958  24.040   1.503
12474W        W84090  15.884  28.537  13.752
12475W        W84091  44.036  16.239   0.712
12476W        W84092  12.576  34.588  11.240
12477W        W84093  18.991  23.569  12.089
12478W        W84094   0.272  41.363  11.294
12479W        W84095   6.355  34.311   0.246
12480W        W84096   8.678  32.019  13.304
12481W        W84097   3.307  32.476   0.358
12482W        W84098  25.603  44.919  11.848
12483W        W84099   1.011  13.831  11.929
12484W        W84100  28.087  10.005  10.683
12485W        W84101   7.728  10.247   0.785
12486W        W84102  10.353  21.097  11.943
12487W        W84103  19.062   7.808  14.968
12488W        W84104   4.878   2.014  14.918
12489W        W84105  34.627  14.305  12.099
12490W        W84106  15.837  37.318   1.844
12491W        W84107  16.634  11.753   1.190
12492W        W84108  20.080   3.529  14.358
12493W        W84109   0.765  38.830  12.526
12494W        W84110   3.876   2.362   4.124
12495W        W84111  12.145  27.044   2.635
12496W        W84112  25.677  14.600  14.023
12497W        W84113   0.313  43.728  11.204
12498W        W84114  24.555  20.417   1.773
12499W        W84115   7.063  23.435  13.324
12500W        W84116  11.913  19.740   1.710
12501W        W84117  21.289  16.780  14.885
12502W        W84118  25.582  44.460  12.071
12503W        W84119  13.943   8.876   5.141
12504W        W84120   3.545  17.319   3.165
12505W        W84121  11.313   6.396  14.991
12506W        W84122  11.286  29.727   0.580
12507W        W84123  24.996  25.450   4.679
12508W        W84124  10.557  32.429   2.297
12509W        W84125  19.301  25.662  13.117
12510W        W84126  22.497   3.133   3.194
12511W        W84127  34.956  20.562   2.515
12512W        W84128  43.868  42.875  13.559
12513W        W84129  32.806  38.019  13.794
12514W        W84130   7.808  22.015  10.958
12515W        W84131  12.993  16.066   4.725
12516W        W84132  15.020  15.253   3.703
12517W        W84133  25.142  41.799  10.827
12518W        W84134  44.872  25.508   0.136
12519W        W84135  23.741  43.914   2.055
12520W        W84136  26.053  10.766  12.095
12521W        W84137   2.898  22.171   0.191
12522W        W84138  28.151   1.655  14.402
12523W        W84139  10.129   0.760  14.761
12524W        W84140  14.385  20.565  12.004
12525W        W84141  37.357  25.682   4.346
12526W        W84142   2.261  12.809  14.467
12527W        W84143  33.293  35.188   1.884
12528W        W84144  29.163  14.574   4.573
12529W        W84145   6.019  21.044   0.275
12530W        W84146  42.509  15.182  10.727
12531W        W84147  28.064  37.830  13.073
12532W        W84148   6.681  35.608  12.399
12533W        W84149   1.792  31.082   4.602
12534W        W84150  28.186  11.322  11.096
12535W        W84151  11.160  35.519  14.837
12536W        W84152  27.074  11.119  10.674
12537W        W84153  35.424  13.707   2.711
12538W        W84154  13.738  32.810  13.100
12539W        W84155  16.168  36.428   3.727
12540W        W84156  27.154  34.905   0.138
12541W        W84157  43.460  39.946  10.603
12542W        W84158  40.355  34.899   0.764
12543W        W84159  27.265  32.988   2.352
12544W        W84160  28.871  27.870   4.642
12545W        W84161   1.303  12.680   0.953
12546W        W84162  15.357   3.917   3.839
12547W        W84163  32.163   3.320   4.551
12548W        W84164  15.194  42.794   4.360
12549W        W84165   5.834  37.089  11.751
12550W        W84166   6.335  28.140   1.258
12551W        W84167  30.961  21.068   0.786
12552W        W84168  17.133  12.385  10.515
12553W        W84169  37.273  44.995  13.535
12554W        W84170  29.142  12.558   3.604
12555W        W84171  22.469  44.470  10.219
12556W        W84172  24.938  21.243   5.038
12557W        W84173   7.614  43.099   3.768
12558W        W84174  18.131  43.789   5.210
12559W        W84175   4.238  24.141  14.405
12560W        W84176  42.122   8.182   0.906
12561W        W84177  40.384  14.082   2.184
12562W        W84178  10.563  10.462   0.206
12563W        W84179  44.854  40.016  11.412
12564W        W84180   4.403  12.742  13.355
12565W        W84181  11.396   4.507  10.655
12566W        W84182  36.530  12.292  12.563
12567W        W84183  23.486  13.985  14.185
12568W        W84184  37.961  20.196   1.256
12569W        W84185   0.106   5.606  11.064
12570W        W84186  22.086  14.130   4.821
12571W        W84187  19.450   1.464  12.047
12572W        W84188  14.333   5.379   1.680
12573W        W84189  36.569  44.099   1.888
12574W        W84190  25.583  40.000   1.945
12575W        W84191  43.910  35.612  12.355
12576W        W84192  41.923  41.020  13.792
12577W        W84193  41.069  20.414  11.135
12578W        W84194  14.354  11.071  14.668
12579W        W84195  43.336  17.783  11.808
12580W        W84196  34.343   1.412  12.134
12581W        W84197  31.178  30.143   3.617
12582W        W84198  15.403  27.567   1.241
12583W        W84199  17.995  26.996   1.854
12584W        W84200   6.871  27.548  11.191
12585W        W84201   1.603   6.946   2.619
12586W        W84202  41.770  19.055   4.833
12587W        W84203   5.397  21.020  11.988
12588W        W84204   8.734  32.657   3.298
12589W        W84205  27.165  16.846  12.067
12590W        W84206   4.881  18.837   0.408
12591W        W84207  22.639   0.600   3.819
12592W        W84208  14.212  44.045   4.089
12593W        W84209  23.235  16.152   3.672
12594W        W84210   5.174  40.588   4.575
12595W        W84211  22.723   8.608   5.004
12596W        W84212   9.186  18.717   0.232
12597W        W84213  25.414   4.440  11.967
12598W        W84214  28.321   3.460  11.670
12599W        W84215   9.317  20.637  13.279
12600W        W84216  30.612  44.008  11.133
12601W        W84217  30.620  27.983   1.838
12602W        W84218  19.660  15.621  10.652
12603W        W84219  32.894  11.188   1.242
12604W        W84220  33.846   1.203  12.002
12605W        W84221  20.044  22.640  14.494
12606W        W84222  42.340  36.043  14.412
12607W        W84223   9.021   6.949   3.720
12608W        W84224  32.822   6.373   0.956
12609W        W84225  38.908  39.785   0.867
12610W        W84226  37.974   3.505  10.864
12611W        W84227  15.327  36.461   2.625
12612W        W84228  33.529  29.661  12.131
12613W        W84229  27.584  43.856  13.745
12614W        W84230  25.069  20.152   4.147
12615W        W84231  12.714  20.851   2.099
12616W        W84232  30.639  19.005   1.359
12617W        W84233  32.053  44.089  14.643
12618W        W84234   6.274  19.189  11.678
12619W        W84235   6.556  34.416   2.615
12620W        W84236  10.712  12.149   0.386
12621W        W84237  41.388  26.661   1.709
12622W        W84238  40.917  14.383  12.955
12623W        W84239  19.062  40.848   4.606
12624W        W84240  36.616   4.301   3.026
12625W        W84241  14.674  29.883  13.331
12626W        W84242  44.922   0.561  12.831
12627W        W84243   1.384  25.968   4.538
12628W        W84244  29.680  18.347   0.033
12629W        W84245  13.101  26.078  12.799
12630W        W84246  25.154  28.025   3.682
12631W        W84247  23.958  23.746   0.436
12632W        W84248   9.169   6.995   0.210
12633W        W84249   0.455   0.030   0.814
12634W        W84250  15.141  44.899  11.608
12635W        W84251   6.956  20.151   4.192
12636W        W84252  39.264   1.247  12.623
12637W        W84253  18.106  19.991  14.342
12638W        W84254   5.227  26.307  10.595
12639W        W84255  19.742  17.856   4.165
12640W        W84256   4.425  15.763   1.265
12641W        W84257   7.454  16.237   1.790
12642W        W84258  23.640  33.145   2.732
12643W        W84259  26.542  22.584   4.929
12644W        W84260  34.456  22.837  13.532
12645W        W84261  37.656  21.758  13.455
12646W        W84262  17.057  28.687   2.837
12647W        W84263  24.272  26.998   2.168
12648W        W84264   0.228  11.575   0.320
12649W        W84265   9.618  24.939  12.393
12650W        W84266  15.755   0.560   3.565
12651W        W84267  34.065  43.716   1.750
12652W        W84268  36.212  38.889  13.017
12653W        W84269  12.514  27.664  14.101
12654W        W84270  25.306  25.003   3.771
12655W        W84271  32.627  20.762  10.562
12656W        W84272  34.547   4.180   3.198
12657W        W84273  39.624   3.721   4.654
12658W        W84274   6.033  32.409   1.218
12659W        W84275  34.048   2.083  11.032
12660W        W84276  14.590   4.972   0.788
12661W        W84277  20.793  13.674  14.725
12662W        W84278  17.849  21.309   3.712
12663W        W84279  37.904  41.960   1.251
12664W        W84280  38.918  19.843   1.417
12665W        W84281   2.022  26.635  13.728
12666W        W84282  17.109  29.113   4.514
12667W        W84283  32.784  20.388   1.907
12668W        W84284   7.682  34.716  11.023
12669W        W84285  38.638  24.121  10.542
12670W        W84286  28.159  15.733  12.068
12671W        W84287   8.467  27.020   0.272
12672W        W84288  43.270  41.558  11.714
12673W        W84289  34.954  26.992   3.664
12674W        W84290  21.563  26.590   0.940
12675W        W84291   6.847  44.234   3.976
12676W        W84292  11.752  44.129   3.911
12677W        W84293  21.123  14.142  11.134
12678W        W84294  41.394  12.300   3.779
12679W        W84295   0.999   5.403   0.905
12680W        W84296  23.250  42.935   0.904
12681W        W84297  38.848  10.207   5.184
12682W        W84298  15.810  38.653   5.022
12683W        W84299  30.862  16.071   0.981
12684W        W84300   9.443  44.599   2.330
12685W        W84301  28.110   7.886  13.954
12686W        W84302   1.378   8.628  11.317
12687W        W84303  13.213  21.755   4.255
12688W        W84304  14.772  25.845   4.841
12689W        W84305   8.155  41.899  11.305
12690W        W84306  38.543  28.802  12.808
12691W        W84307  12.194  43.458   0.390
12692W        W84308  27.188  35.385   1.904
12693W        W84309   1.451  15.116   1.691
12694W        W84310  20.364  29.369  11.588
12695W        W84311   6.454  40.573  11.096
12696W        W84312   8.481  30.029   0.691
12697W        W84313  40.409  22.503  12.406
12698W        W84314  19.553  32.204  10.604
12699W        W84315  21.488  11.555   0.838
12700W        W84316  44.710  14.684   4.253
12701W        W84317  34.389  44.087   0.925
12702W        W84318  20.755  38.578  14.896
12703W        W84319  18.295  20.606   0.443
12704W        W84320  23.392   9.178  14.870
12705W        W84321  40.749  17.623  14.302
12706W        W84322  24.162  26.177   0.661
12707W        W84323  35.636   9.855  14.816
12708W        W84324  12.445   2.531  13.032
12709W        W84325   1.365  22.298   2.644
12710W        W84326  44.957   9.578   4.794
12711W        W84327   1.221  24.488   0.716
12712W        W84328  16.045   7.569   0.314
12713W        W84329   0.733  30.694   4.625
12714W        W84330  43.036  22.477  13.033
12715W        W84331  40.099   7.259   2.117
12716W        W84332  32.483  22.723  12.968
12717W        W84333  17.064  31.931   3.188
12718W        W84334  32.445  19.538  11.406
12719W        W84335  40.337  23.023  11.525
12720W        W84336  21.727  15.668   1.991
12721W        W84337  14.150  34.114  12.490
12722W        W84338  27.698  38.383  13.361
12723W        W84339  22.343  32.904   0.470
12724W        W84340  13.082  28.128  13.402
12725W        W84341  13.370  23.116   0.990
12726W        W84342  15.586   2.761  12.555
12727W        W84343   4.315   6.801  11.891
12728W        W84344  20.428   1.871  12.025
12729W        W84345   5.297   5.760   3.176
12730W        W84346  43.691  21.038  12.480
12731W        W84347  28.037  35.358   0.851
12732W        W84348   5.033  24.668   4.600
12733W        W84349  34.024  20.091   1.776
12734W        W84350   4.345  13.833   3.098
12735W        W84351  23.813  25.634   2.308
12736W        W84352  27.451  25.631   0.468
12737W        W84353   7.430  40.543   4.190
12738W        W84354  43.956  43.882  11.375
12739W        W84355  28.351   8.328   1.778
12740W        W84356  28.657  24.020   0.828
12741W        W84357   4.509   4.186   0.874
12742W        W84358  10.800  18.080  12.098
12743W        W84359   6.519   4.456   3.596
12744W        W84360   1.974  22.964  13.801
12745W        W84361   1.851  21.365  10.259
12746W        W84362  42.174  24.880   5.296
12747W        W84363   0.364  36.100   5.070
12748W        W84364  43.706  22.592  12.046
12749W        W84365  44.905  17.731   2.160
12750W        W84366   8.253  22.794   0.335
12751W        W84367   1.199   6.291   4.136
12752W        W84368  18.275  31.883  14.486
12753W        W84369  39.270  42.184   3.242
12754W        W84370  31.440  27.548   3.771
12755W        W84371  28.007   8.610   3.938
12756W        W84372   4.268  17.006   2.785
12757W        W84373  20.315  40.300   1.968
12758W        W84374  31.073  12.228   3.623
12759W        W84375  29.063   7.386  14.749
12760W        W84376  28.128  22.290   3.786
12761W        W84377   7.831  29.897  14.415
12762W        W84378   0.650  24.046  14.299
12763W        W84379  13.768   5.769   2.264
12764W        W84380  11.906  25.163  13.369
12765W        W84381   1.708  30.025   1.325
12766W        W84382   7.889  16.688  13.941
12767W        W84383  20.698  15.571  13.424
12768W        W84384  43.406  18.238   3.342
12769W        W84385  39.391  35.977   4.258
12770W        W84386   9.166  41.163   0.303
12771W        W84387   8.260  28.657  13.141
12772W        W84388  32.655  12.054   0.379
12773W        W84389  37.425   9.606   1.410
12774W        W84390  36.824  20.285  14.804
12775W        W84391  42.441   7.637   2.836
12776W        W84392  44.769  32.872  13.060
12777W        W84393   0.459  29.642   0.879
12778W        W84394   3.943   2.807  14.248
12779W        W84395  42.415  43.852  11.117
12780W        W84396   7.309   2.177   4.274
12781W        W84397  42.837  19.463   9.955
12782W        W84398   2.466  44.920   1.226
12783W        W84399  30.525  11.803  10.932
12784W        W84400  41.960  41.716   1.262
12785W        W84401  29.017  12.417  11.522
12786W        W84402   5.370  41.258  13.839
12787W        W84403  22.536  36.600   1.840
12788W        W84404   8.839  25.563  12.711
12789W        W84405  39.931  35.491  13.791
12790W        W84406   4.021  25.088   2.619
12791W        W84407   9.154  29.369   2.895
12792W        W84408  43.046  17.146   2.247
12793W        W84409  30.966  19.647   0.755
12794W        W84410  14.664  22.967  14.357
12795W        W84411  35.019   1.853  13.747
12796W        W84412  39.217  15.592   3.300
12797W        W84413  38.832  21.431   0.484
12798W        W84414  25.197  13.316   4.533
12799W        W84415  24.646   3.265  13.876
12800W        W84416  33.010  17.806   3.616
12801W        W84417  14.616  35.030  11.322
12802W        W84418  31.864  19.376  13.290
12803W        W84419  21.232   9.978  14.984
12804W        W84420   7.244  11.505   4.338
12805W        W84421   1.844  18.583  10.717
12806W        W84422  35.263  16.604   3.554
12807W        W84423  16.663  24.862   4.788
12808W        W84424  30.534  43.962   1.741
12809W        W84425  44.422   6.861   3.764
12810W        W84426  36.830  30.589   2.234
12811W        W84427  30.773  25.589  13.515
12812W        W84428  39.916  35.267   4.230
12813W        W84429  24.948   7.220  14.730
12814W        W84430  44.742  36.166  12.388
12815W        W84431  13.786  23.413   2.898
12816W        W84432  33.194  31.240   3.875
12817W        W84433  32.982   5.146   2.785
12818W        W84434  23.508  44.935   4.757
12819W        W84435  12.840  25.661  14.844
12820W        W84436   6.840  13.347   0.899
12821W        W84437  17.941  23.685  11.206
12822W        W84438  29.904  36.523   0.259
12823W        W84439   9.286  22.654  14.428
12824W        W84440   0.477   0.077   2.257
12825W        W84441  36.567  20.234  11.438
12826W        W84442  21.756  25.918  11.997
12827W        W84443  27.194  35.556  13.928
12828W        W84444  23.449  29.764  11.170
12829W        W84445   5.649  14.392   4.171
12830W        W84446   7.760  30.238  10.960
12831W        W84447  17.795   8.876   1.331
12832W        W84448   9.330  16.101  14.366
12833W        W84449  16.231  14.242   4.615
12834W        W84450  34.881  26.598   4.515
12835W        W84451  34.939  11.706   2.150
12836W        W84452   5.887  44.724  14.251
12837W        W84453  21.567  18.197   4.423
12838W        W84454  24.555  36.598  12.943
12839W        W84455  19.801  22.704   1.217
12840W        W84456   8.713  40.209   3.750
12841W        W84457  26.672  43.535   4.694
12842W        W84458  27.476  32.581   2.617
12843W        W84459  15.405   8.208  13.313
12844W        W84460  19.497   1.267   4.121
12845W        W84461  12.195   7.929   2.804
12846W        W84462   0.170  10.804   0.973
12847W        W84463   7.822  25.235   1.853
12848W        W84464  44.903  21.339   0.719
12849W        W84465  23.541   4.658  12.060
12850W        W84466  26.550  35.093  13.470
12851W        W84467  35.886   1.761   3.223
12852W        W84468  33.839  35.438   4.106
12853W        W84469   3.985  27.654  13.355
12854W        W84470   1.958   3.726  14.468
12855W        W84471  34.522  38.546  12.176
12856W        W84472  28.150  37.857   1.666
12857W        W84473  26.940  13.678  13.088
12858W        W84474   0.269   5.912   1.290
12859W        W84475  37.772   0.691   1.162
12860W        W84476  12.103  20.212  12.449
12861W        W84477  30.519  27.964  12.472
12862W        W84478  40.383  29.284   4.898
12863W        W84479   9.048  35.227   2.882
12864W        W84480   2.765  32.517   0.430
12865W        W84481  23.536   0.425  13.390
12866W        W84482   2.925  38.489   1.175
12867W        W84483  12.256  28.160   3.771
12868W        W84484   5.842   6.387  13.451
12869W        W84485  26.729  21.815  13.023
12870W        W84486  39.547   7.862  13.919
12871W        W84487  43.956   2.002  11.521
12872W        W84488  11.134  22.548  12.822
12873W        W84489   2.472   7.188  12.989
12874W        W84490  38.844   8.540   3.782
12875W        W84491  22.200  17.343   3.629
12876W        W84492  35.673  19.584   3.324
12877W        W84493  41.985  39.960  14.106
12878W        W84494  19.206  16.136  12.978
12879W        W84495   9.245   4.404  13.437
12880W        W84496  39.974  44.570   4.653
12881W        W84497  44.852  12.608  11.362
12882W        W84498  23.011  28.165   0.272
12883W        W84499  42.354  10.703  10.743
12884W        W84500  19.221   7.197   4.079
12885W        W84501   4.874   2.059   4.074
12886W        W84502  21.525  41.009  13.158
12887W        W84503  16.610  26.946  12.551
12888W        W84504   7.685  29.153  13.002
12889W        W84505  23.480  43.988   0.566
12890W        W84506  37.073   2.382   2.861
12891W        W84507   3.409  13.029   1.183
12892W        W84508  13.537  19.800   4.128
12893W        W84509  28.991   0.723  13.503
12894W        W84510  12.234  39.285   1.840
12895W        W84511  12.986  10.317   4.820
12896W        W84512  11.152  28.427  12.532
12897W        W84513  20.166  19.213   2.890
12898W        W84514  24.018  10.348  13.358
12899W        W84515  12.813   2.012  10.585
12900W        W84516  21.719  25.459  11.127
12901W        W84517  28.220   1.519  11.470
12902W        W84518  14.769   2.619   5.021
12903W        W84519  41.368  19.505  11.093
12904W        W84520  36.771  14.860  14.349
12905W        W84521  25.963  36.806  12.474
12906W        W84522   1.179   2.190  12.860
12907W        W84523  44.829  10.157  14.004
12908W        W84524  19.995  28.019   4.163
12909W        W84525   4.773   2.248   2.653
12910W        W84526  14.573  37.929  14.943
12911W        W84527  34.175  42.010  12.410
12912W        W84528  28.879  20.117  11.424
12913W        W84529  19.170  14.584   3.058
12914W        W84530   0.449  17.008  14.069
12915W        W84531  43.406  35.546   4.652
12916W        W84532  25.660  23.237   2.372
12917W        W84533  28.691  16.802  13.022
12918W        W84534   4.267  24.996   5.041
12919W        W84535  23.356  28.943   0.655
12920W        W84536   6.657  19.657  13.777
12921W        W84537  12.174  11.629  10.650
12922W        W84538  15.847  14.125  14.945
12923W        W84539  13.789   6.817   0.502
12924W        W84540  34.005   4.477   2.312
12925W        W84541  41.100  29.509  11.088
12926W        W84542   2.478  29.778  12.408
12927W        W84543  32.612   1.896  12.878
12928W        W84544  19.695  22.754   4.651
12929W        W84545  23.818   6.940   1.246
12930W        W84546  43.491   1.963  14.566
12931W        W84547  15.584  18.288   4.771
12932W        W84548  15.451  28.578  11.438
12933W        W84549  13.912  37.614   3.182
12934W        W84550   9.143  11.883   3.696
12935W        W84551   4.288  41.307  12.087
12936W        W84552  24.711  27.108   2.457
12937W        W84553   1.451  32.608  12.398
12938W        W84554  42.377  39.641  12.008
12939W        W84555  29.824  35.920   0.961
12940W        W84556   0.859   2.219   0.263
12941W        W84557  38.658  33.833  13.480
12942W        W84558  15.868  31.939  10.820
12943W        W84559  34.094   9.680  14.789
12944W        W84560  15.003   9.328   3.230
12945W        W84561  26.606   0.437   1.695
12946W        W84562   7.986   3.065  13.319
12947W        W84563  10.215  36.400  10.343
12948W        W84564  43.186  42.516   1.209
12949W        W84565  15.655  31.207  12.016
12950W        W84566   9.782  43.434   4.154
12951W        W84567   5.520  25.817   3.756
12952W        W84568  14.549  10.770   2.256
12953W        W84569  30.609  27.221  10.657
12954W        W84570  22.048  22.028   3.728
12955W        W84571  31.622  33.718   3.707
12956W        W84572  30.668   6.640  12.904
12957W        W84573  43.672  36.504   1.298
12958W        W84574  22.368  23.402  11.634
12959W        W84575  28.651  22.760   4.642
12960W        W84576  39.034  20.778   1.868
12961W        W84577  26.517  16.106  13.475
12962W        W84578  15.072  13.653   0.725
12963W        W84579  42.490   4.033   3.921
12964W        W84580  20.992  10.539   2.301
12965W        W84581  14.048   2.908   3.135
12966W        W84582  19.060  28.882  13.533
12967W        W84583   0.863   0.304   1.425
12968W        W84584   5.404  34.023  12.554
12969W        W84585  28.383  27.632  11.070
12970W        W84586   8.682  13.826  10.535
12971W        W84587  26.233  35.373   2.798
12972W        W84588   3.347  22.038   3.319
12973W        W84589  10.377  34.676   0.707
12974W        W84590  38.389   7.372   1.450
12975W        W84591   9.191  37.965   4.852
12976W        W84592  11.657   7.642   1.601
12977W        W84593  15.807  40.006   1.396
12978W        W84594   1.835  27.482   0.277
12979W        W84595  41.213  39.349   2.871
12980W        W84596  11.063  19.033   1.296
12981W        W84597  35.637  30.506   4.739
12982W        W84598  33.882  17.792  13.404
12983W        W84599  36.510   0.313   4.880
12984W        W84600  28.449   2.046  14.241
12985W        W84601  40.976  17.200   2.263
12986W        W84602   1.343  11.189   2.945
12987W        W84603   7.980   2.249   0.489
12988W        W84604  38.289  31.824   5.012
12989W        W84605   8.730  10.296  14.005
12990W        W84606  13.774  11.568   4.832
12991W        W84607  30.552  35.394  13.632
12992W        W84608  11.194  19.101  10.711
12993W        W84609   9.324  41.821  14.593
12994W        W84610  40.415  35.486   4.833
12995W        W84611  37.832  21.227   1.905
12996W        W84612  43.280  16.688   2.137
12997W        W84613  36.359  16.994   2.110
12998W        W84614  27.629  28.925   2.296
12999W        W84615  17.831  37.978  14.286
13000W        W84616   1.721  30.990  13.964
13001W        W84617   5.984  42.207   2.154
13002W        W84618  36.600  33.417   4.879
13003W        W84619  21.503   3.463   2.786
13004W        W84620  42.502  14.031   2.287
13005W        W84621  21.520  19.036  13.158
13006W        W84622  10.758  23.105   1.733
13007W        W84623  34.535  21.672   1.533
13008W        W84624   3.293  32.255   3.331
13009W        W84625  41.890  32.400   0.433
13010W        W84626  30.862   1.217  13.913
13011W        W84627  32.462  25.675  10.400
13012W        W84628  43.478  37.746   4.133
13013W        W84629   4.413  21.749   4.561
13014W        W84630  28.213   0.098   1.150
13015W        W84631  23.988   5.237   1.882
13016W        W84632  26.207  43.510   3.734
13017W        W84633  42.759  39.113  14.504
13018W        W84634  33.201  18.700  10.454
13019W        W84635  15.034  23.645  14.390
13020W        W84636  28.718  28.021  11.163
13021W        W84637  10.616  13.794   3.279
13022W        W84638  28.442  40.416  10.641
13023W        W84639  28.740  31.692   4.255
13024W        W84640  13.659  33.711   3.719
13025W        W84641   1.973  22.836  12.000
13026W        W84642  32.491  13.116  11.916
13027W        W84643   2.879  16.922  13.924
13028W        W84644  24.120  29.685   4.185
13029W        W84645   1.998  15.807   3.781
13030W        W84646   2.338  12.757   1.748
13031W        W84647  22.695  35.908  12.996
13032W        W84648  17.645  11.615   2.716
13033W        W84649  13.396  21.544  13.410
13034W        W84650  14.398   5.911  10.249
13035W        W84651  38.275   9.220   3.711
13036W        W84652  24.597  40.275   3.160
13037W        W84653   4.849   4.089  11.495
13038W        W84654  21.363  11.830   0.276
13039W        W84655   4.724   1.356   2.762
13040W        W84656  41.757  27.625   1.415
13041W        W84657   2.371  42.451   4.788
13042W        W84658  17.994  35.549  14.818
13043W        W84659  25.236  32.637  14.382
13044W        W84660  37.920  21.150  14.961
13045W        W84661  39.559  34.314   1.354
13046W        W84662  32.886  14.287  10.624
13047W        W84663  42.753  42.952  10.558
13048W        W84664   2.294  17.827  11.641
13049W        W84665  12.263  40.065  12.539
13050W        W84666  14.874  11.082   1.969
13051W        W84667  14.527  15.106   4.851
13052W        W84668  32.964  19.683  11.456
13053W        W84669  30.635   4.723  10.255
13054W        W84670   3.395  18.610   4.643
13055W        W84671   7.729   0.820  14.458
13056W        W84672  20.505  38.636  13.957
13057W        W84673  42.227   6.929   4.673
13058W        W84674  18.692   6.166   2.628
13059W        W84675  28.655  12.634   2.921
13060W        W84676  26.054  14.142   3.796
13061W        W84677  22.631   6.351  13.353
13062W        W84678  24.592   2.429  14.564
13063W        W84679   6.129  16.153   4.153
13064W        W84680  27.519  17.548  13.340
13065W        W84681   5.006   5.757  13.160
13066W        W84682   6.832  28.413  14.319
13067W        W84683   6.477  26.541  10.564
13068W        W84684   4.231  14.171   0.450
13069W        W84685  18.537  14.813  14.102
13070W        W84686  12.848  42.100   2.373
13071W        W84687   8.108  18.016   1.320
13072W        W84688  41.532  27.457  12.433
13073W        W84689  10.552  19.743  14.387
13074W        W84690   7.808  26.217   0.397
13075W        W84691  16.164  26.448  14.702
13076W        W84692   1.866   5.685  10.785
13077W        W84693  14.960  17.294   1.906
13078W        W84694  23.247  19.256   1.781
13079W        W84695  28.177  37.738   2.154
13080W        W84696  38.056  13.695  10.573
13081W        W84697  29.724  19.299  11.062
13082W        W84698   6.741  31.520   0.309
13083W        W84699  23.504   0.316  11.920
13084W        W84700  30.195  32.458   3.650
13085W        W84701  35.417   8.541   2.790
13086W        W84702   8.453  35.736   4.248
13087W        W84703  27.811  40.387  12.570
13088W        W84704  23.174  26.444   0.760
13089W        W84705  24.208   4.806   0.636
13090W        W84706  31.650  24.500  13.371
13091W        W84707  20.749  23.976  14.989
13092W        W84708  16.602  22.656   4.714
13093W        W84709   4.324  20.796   1.436
13094W        W84710  11.887  39.404   1.468
13095W        W84711  37.432  25.171   4.373
13096W        W84712   5.845  35.791  13.300
13097W        W84713   6.212  24.240  14.449
13098W        W84714   2.009   5.371   4.562
13099W        W84715  41.910  42.785   3.210
13100W        W84716  25.911   5.912  13.949
13101W        W84717  20.301  14.976  13.588
13102W        W84718   5.329  34.547   0.411
13103W        W84719  14.259  22.788   3.170
13104W        W84720  39.000   8.801   2.883
13105W        W84721  38.102   9.321  12.016
13106W        W84722   4.214  44.741   3.309
13107W        W84723  26.144   4.897  11.854
13108W        W84724  27.243   4.946   3.726
13109W        W84725  28.261  37.630   3.578
13110W        W84726  17.812  35.273  12.868
13111W        W84727  37.471  35.008   5.015
13112W        W84728  21.591   3.360   3.282
13113W        W84729   6.433  30.651   4.575
13114W        W84730  43.524  21.028   1.031
13115W        W84731   7.249  37.931  14.339
13116W        W84732  12.699   5.247   0.776
13117W        W84733  24.837   6.939  12.900
13118W        W84734  33.235  10.297   3.175
13119W        W84735   7.989  43.486  14.527
13120W        W84736  42.358  38.631   0.208
13121W        W84737   4.262  11.326   3.713
13122W        W84738   3.166   1.581   4.447
13123W        W84739  43.688  12.166   2.919
13124W        W84740   6.678  25.579  14.801
13125W        W84741  42.533  20.740   3.686
13126W        W84742   9.731  40.393   1.921
13127W        W84743  36.894  26.642  14.946
13128W        W84744  36.485  19.232  10.931
13129W        W84745  28.536  10.941   0.058
13130W        W84746  32.641  36.047   1.172
13131W        W84747  12.325   0.941   2.310
13132W        W84748  40.392  44.207  10.648
13133W        W84749  25.028  40.591   3.156
13134W        W84750  40.492   0.757   4.985
13135W        W84751  39.307   6.688  14.433
13136W        W84752  23.486  27.547  14.433
13137W        W84753   1.160  28.893  11.390
13138W        W84754   7.696  23.497  11.146
13139W        W84755   1.171  14.624   0.896
13140W        W84756  26.204   0.446  10.704
13141W        W84757  32.464  16.153   1.513
13142W        W84758  43.648   8.288  11.159
13143W        W84759  29.956  20.170  12.550
13144W        W84760   4.232  14.987  13.457
13145W        W84761  27.031   1.800   3.642
13146W        W84762   6.422  37.288   1.348
13147W        W84763  34.560   8.202  10.397
13148W        W84764  39.905  37.522  12.712
13149W        W84765  25.979   1.659   2.315
13150W        W84766  39.305  19.608  13.583
13151W        W84767   7.814  25.646   3.181
13152W        W84768  36.980  17.830  10.650
13153W        W84769  41.978   4.892   3.770
13154W        W84770  17.636  18.606   0.254
13155W        W84771  11.568  12.366  12.908
13156W        W84772  30.976  31.371   0.834
13157W        W84773  30.167  14.096  13.507
13158W        W84774  36.602  10.220  11.108
13159W        W84775  39.424  32.094   3.762
13160W        W84776  37.607  21.611   3.467
13161W        W84777  29.090  42.313   2.150
13162W        W84778   2.475  20.683  13.935
13163W        W84779   7.278  26.240   0.341
13164W        W84780  18.594  13.074   4.454
13165W        W84781  10.172   7.672   3.118
13166W        W84782  21.546   8.657  10.721
13167W        W84783  30.978  41.780  10.771
13168W        W84784  40.934  18.572   0.919
13169W        W84785   2.142  44.833   4.409
13170W        W84786   8.928   9.196  12.431
13171W        W84787  13.327  17.302   3.353
13172W        W84788  28.064  27.548   0.208
13173W        W84789  34.819  33.506   5.030
13174W        W84790  13.786  14.796  14.037
13175W        W84791   7.995  11.821   4.233
13176W        W84792  24.251  16.110   2.876
13177W        W84793   9.246  41.269   4.559
13178W        W84794  33.449  35.315  10.526
13179W        W84795  29.328  42.970  13.344
13180W        W84796  12.204  40.324   0.353
13181W        W84797  34.003  35.813  12.049
13182W        W84798   5.423  28.296   1.847
13183W        W84799   2.697  16.226  13.046
13184W        W84800   3.278  20.803  11.821
13185W        W84801  39.013   2.998   2.139
13186W        W84802   2.981   6.195   0.765
13187W        W84803  44.458   9.858  11.939
13188W        W84804  33.475  42.425  12.141
13189W        W84805  35.906  25.284   0.375
13190W        W84806  40.321  10.724  10.665
13191W        W84807  15.858  19.103  12.873
13192W        W84808  40.803   5.974   1.779
13193W        W84809  39.879  32.385  10.881
13194W        W84810   1.193   7.618  13.373
13195W        W84811  30.067  35.512   1.719
13196W        W84812   6.627   2.261  11.171
13197W        W84813   2.938  41.100   2.907
13198W        W84814   1.059   5.822  13.746
13199W        W84815  39.923  17.556  13.745
13200W        W84816  41.287  38.441   3.945
13201W        W84817  10.658  17.864   3.820
13202W        W84818  25.479  39.944  10.651
13203W        W84819  18.428  37.174  11.180
13204W        W84820   0.745  15.334   2.901
13205W        W84821   9.210  40.986   4.125
13206W        W84822   0.437  43.744   1.271
13207W        W84823  37.859  15.730  10.585
13208W        W84824  33.075  36.404   2.815
13209W        W84825  38.593  32.531  10.665
13210W        W84826   3.948  16.607  14.817
13211W        W84827   3.737   6.140  11.624
13212W        W84828   0.210  44.853   4.036
13213W        W84829   8.290  11.202  14.062
13214W        W84830  33.498  40.047  13.579
13215W        W84831  20.175  26.918  11.672
13216W        W84832  17.530  10.667  10.969
13217W        W84833  10.196   0.057  14.364
13218W        W84834   7.851   3.680  11.948
13219W        W84835  40.078  42.558  11.149
13220W        W84836  13.088  36.352  11.095
13221W        W84837  11.670  25.196  10.545
13222W        W84838  23.371   3.926   1.218
13223W        W84839  41.374  11.689   2.900
13224W        W84840  11.839  28.551   0.849
13225W        W84841  15.501  43.853   1.482
13226W        W84842   3.274  34.158   2.761
13227W        W84843  26.463  21.757   3.752
13228W        W84844   0.458   8.773   4.607
13229W        W84845  30.033  17.477  10.601
13230W        W84846  20.500  13.042   0.871
13231W        W84847  43.485  40.819  10.626
13232W        W84848  13.583   8.663  10.732
13233W        W84849  44.194  34.100  12.870
13234W        W84850   0.944  33.103  14.521
13235W        W84851  30.518  39.892  10.683
13236W        W84852  16.338   9.906   0.519
13237W        W84853  41.384  37.140  12.469
13238W        W84854  26.907   4.385   1.753
13239W        W84855   0.546  23.029  12.130
13240W        W84856  11.107  41.094  12.965
13241W        W84857   0.367  44.517   0.844
13242W        W84858   6.787   1.776  14.351
13243W        W84859  14.158  13.552  10.731
13244W        W84860  44.190  10.386   2.855
13245W        W84861  30.609  25.978   3.363
13246W        W84862  20.046   5.732  10.869
13247W        W84863  20.797  12.851   2.193
13248W        W84864  20.654   2.913   1.951
13249W        W84865   0.794  22.230  11.152
13250W        W84866  29.511  16.386   4.689
13251W        W84867  42.091   0.483   1.194
13252W        W84868   3.683  24.232  10.719
13253W        W84869   5.370  44.787  11.848
13254W        W84870   6.155  29.677   0.649
13255W        W84871   5.863  12.319   3.192
13256W        W84872  17.834   1.730  10.704
13257W        W84873  34.014  19.583   1.816
13258W        W84874   9.402  10.568  11.047
13259W        W84875  37.083   4.763  10.999
13260W        W84876   2.444  39.552   3.706
13261W        W84877  31.049  27.257   3.315
13262W        W84878  14.521  24.978  12.470
13263W        W84879  27.239   2.826  13.815
13264W        W84880   7.640  18.049  13.911
13265W        W84881   8.971   9.527   3.789
13266W        W84882   1.994  15.095   4.120
13267W        W84883  29.667  21.350  12.845
13268W        W84884  38.868   3.133  14.644
13269W        W84885   4.309  32.535  13.867
13270W        W84886  37.065  41.768   3.869
13271W        W84887  16.665  26.995   0.053
13272W        W84888  13.294  34.353  14.993
13273W        W84889  25.887  34.933  12.884
13274W        W84890   5.761  36.382  10.743
13275W        W84891  39.275  33.333  13.096
13276W        W84892  28.402  44.770   0.785
13277W        W84893  29.083  20.527  14.568
13278W        W84894   8.923   8.715  12.618
13279W        W84895   7.327   5.680  12.396
13280W        W84896  26.130  28.677  12.136
13281W        W84897  10.544  42.261   3.903
13282W        W84898  10.919  24.957   1.885
13283W        W84899   0.274   5.117   1.748
13284W        W84900  40.726  35.923  13.842
13285W        W84901  36.280  21.209  14.840
13286W        W84902  19.112   6.414  13.928
13287W        W84903   8.060   7.833  12.484
13288W        W84904  19.235   6.323   2.776
13289W        W84905  39.507   9.115  13.673
13290W        W84906  40.580  27.943   2.658
13291W        W84907   4.446   3.887   2.257
13292W        W84908   3.002   0.866  13.798
13293W        W84909  25.150  44.502  11.525
13294W        W84910   3.469   1.041  14.799
13295W        W84911   2.272   3.456   1.327
13296W        W84912  26.432  22.769   4.474
13297W        W84913  26.190  43.629  11.442
13298W        W84914  21.081  35.387   0.068
13299W        W84915  36.638  28.430   0.851
13300W        W84916  28.057  23.750   3.621
13301W        W84917  44.355  24.998  11.216
13302W        W84918  23.691   0.392   4.548
13303W        W84919  20.701  32.096  12.784
13304W        W84920  15.187  14.145   0.847
13305W        W84921  36.833  15.372   3.743
13306W        W84922   9.852  42.636  11.049
13307W        W84923  25.053  27.754  13.900
13308W        W84924  37.674  21.999   1.227
13309W        W84925  36.102  29.116  12.910
13310W        W84926  44.062  27.290  11.193
13311W        W84927  42.893  43.550  14.657
13312W        W84928  21.951  26.511  14.952
13313W        W84929   0.314  41.301  11.801
13314W        W84930  29.882  16.290  12.509
13315W        W84931  16.566   1.778  13.499
13316W        W84932  40.146  13.818   0.511
13317W        W84933  41.338   4.768   0.456
13318W        W84934  32.169  15.957  13.913
13319W        W84935  17.813   0.184   1.893
13320W        W84936  30.947  31.844  12.791
13321W        W84937  28.723   4.160  12.772
13322W        W84938   9.165  35.431  13.327
13323W        W84939  26.398   5.716   2.372
13324W        W84940  14.205   3.722   3.315
13325W        W84941  33.641  34.015  12.311
13326W        W84942  43.788  30.078   4.271
13327W        W84943  23.325  39.907  13.471
13328W        W84944  16.055  10.553   3.283
13329W        W84945  11.046  33.073   2.256
13330W        W84946   6.651   5.199  13.427
13331W        W84947  30.559  22.610  10.630
13332W        W84948  21.759   8.708  14.278
13333W        W84949  12.731   0.583  10.619
13334W        W84950   6.247  39.396  10.802
13335W        W84951  12.237  41.557  14.768
13336W        W84952  11.553  43.260  11.174
13337W        W84953  12.134   8.627   2.500
13338W        W84954  35.351  43.568   0.838
13339W        W84955   7.438  21.552  10.531
13340W        W84956  33.834  16.208  14.069
13341W        W84957  36.863  31.850   4.277
13342W        W84958   5.187  10.225   0.259
13343W        W84959  19.174  20.729  13.314
13344W        W84960  40.601  41.957   2.823
13345W        W84961   9.777  16.571   1.180
13346W        W84962  43.111   5.456   3.281
13347W        W84963   3.749  12.572   4.282
13348W        W84964  16.300  31.607  11.584
13349W        W84965  42.090   2.878  14.288
13350W        W84966  35.437  29.977   3.000
13351W        W84967  41.829  31.383   0.082
13352W        W84968  24.450   8.315   3.307
13353W        W84969  27.177  40.172  10.235
13354W        W84970  19.286  26.619  12.123
13355W        W84971  22.162  40.385  12.347
13356W        W84972  12.370  25.264  12.036
13357W        W84973  22.053  43.719   4.052
13358W        W84974   1.216  33.093  12.936
13359W        W84975   2.994  21.123  13.117
13360W        W84976  29.945  15.114  13.202
13361W        W84977   4.339  21.077  11.430
13362W        W84978   8.917  31.512  12.643
13363W        W84979   1.441  24.828  11.514
13364W        W84980  19.554  35.100   1.129
13365W        W84981  25.992  11.834   4.437
13366W        W84982  10.777  10.206  13.010
13367W        W84983   0.992  26.976   3.173
13368W        W84984  11.120  22.078  13.542
13369W        W84985   0.604   0.802  11.988
13370W        W84986  42.534  28.358   0.562
13371W        W84987  43.873  12.768  12.993
13372W        W84988  39.896   0.509   3.586
13373W        W84989   2.302   4.058  13.304
13374W        W84990   9.870  25.560  12.970
13375W        W84991   0.482  44.432  12.053
13376W        W84992  43.492  16.361  14.400
13377W        W84993  32.884   1.205  13.464
13378W        W84994  10.149  41.305   1.775
13379W        W84995  10.645  33.890  10.695
13380W        W84996  36.931  19.965   4.843
13381W        W84997  29.439   7.117   3.961
13382W        W84998   9.395  27.470   0.935
13383W        W84999  29.212   5.882   1.212
13384W        W85000  28.564  19.708  12.118
13385W        W85001   0.870   6.674   1.356
13386W        W85002  19.660   8.712  10.436
13387W        W85003   1.865  16.569  13.139
13388W        W85004  42.487  16.322   4.679
13389W        W85005   5.171  12.994   0.887
13390W        W85006  44.018  25.456   3.572
13391W        W85007  32.515  39.521  14.279
13392W        W85008  39.061  24.360  12.334
13393W        W85009  18.173  15.352   1.440
13394W        W85010  27.715  19.207  14.954
13395W        W85011  39.895  42.534   1.890
13396W        W85012  10.059  28.012  13.908
13397W        W85013  38.427  20.108   0.521
13398W        W85014   8.080  26.027   4.354
13399W        W85015  18.879   2.655  13.894
13400W        W85016   1.362   8.249   1.643
13401W        W85017  12.174  17.493   2.411
13402W        W85018  36.007  36.928  13.851
13403W        W85019  23.360  33.166   1.865
13404W        W85020  12.825  19.846   0.361
13405W        W85021   4.353  27.711   0.108
13406W        W85022  35.387   6.750  10.396
13407W        W85023  21.282  34.173  13.948
13408W        W85024  12.724   1.046  14.913
13409W        W85025  24.282  18.420   2.597
13410W        W85026  32.472  11.464  13.946
13411W        W85027  43.040  30.035   0.176
13412W        W85028  24.196  14.801  12.928
13413W        W85029  20.956   1.940  13.010
13414W        W85030  43.529  34.080   2.816
13415W        W85031  31.115  36.159   4.140
13416W        W85032  28.937  41.794  14.791
13417W        W85033  40.855   9.755   0.478
13418W        W85034  24.146  16.046  10.788
13419W        W85035   9.587  33.534  11.099
13420W        W85036  40.258   6.213  13.595
13421W        W85037   2.943   2.822  12.891
13422W        W85038  43.391   7.392  14.950
13423W        W85039  21.007  44.065  13.505
13424W        W85040   0.896  30.564  11.690
13425W        W85041  33.989  40.696  12.673
13426W        W85042  14.358  15.835  11.963
13427W        W85043  13.809  30.386  14.557
13428W        W85044  43.250  28.343  12.490
13429W        W85045  37.315   6.422   1.411
13430W        W85046  26.515   1.652   3.753
13431W        W85047  13.627  12.809   2.830
13432W        W85048   8.476  21.052  13.254
13433W        W85049  11.617   6.883   2.036
13434W        W85050  34.457  29.446   0.833
13435W        W85051  37.455  11.659   1.232
13436W        W85052  33.601  14.571  12.508
13437W        W85053  16.112   6.731  13.990
13438W        W85054  26.284  41.112  13.993
13439W        W85055  40.956  43.749   2.854
13440W        W85056  30.208  12.304  13.065
13441W        W85057  13.221  14.780   4.478
13442W        W85058  13.626  30.459  12.051
13443W        W85059   1.261   9.889  13.936
13444W        W85060   1.796   9.800  11.666
13445W        W85061   0.619  13.104   0.363
13446W        W85062  39.995  12.358   3.147
13447W        W85063  39.443  19.990   3.153
13448W        W85064  13.822   5.107  14.791
13449W        W85065   6.721  31.657  13.411
13450W        W85066  29.827  38.759   2.677
13451W        W85067   3.453  42.493  13.998
13452W        W85068   2.746   8.570  13.296
13453W        W85069  20.207   3.493   4.503
13454W        W85070  23.478  23.194   0.743
13455W        W85071  44.369   0.702  12.854
13456W        W85072  11.627   5.041  13.788
13457W        W85073  23.589  27.399   0.505
13458W        W85074  22.052  43.239   3.205
13459W        W85075  44.873   5.313  10.689
13460W        W85076  29.543  33.527   0.768
13461W        W85077  24.420  32.545   3.200
13462W        W85078   0.116  27.160   3.702
13463W        W85079  42.526   2.984  11.689
13464W        W85080  12.608  42.317   1.947
13465W        W85081  17.122   7.263   3.320
13466W        W85082   8.272  10.635   1.442
13467W        W85083  40.462   6.270   1.390
13468W        W85084  39.494  28.138   1.784
13469W        W85085  20.272   3.919   4.205
13470W        W85086  27.604  23.477   1.452
13471W        W85087  43.829  33.774   3.696
13472W        W85088  16.505  10.407   2.405
13473W        W85089  10.381  18.270   0.942
13474W        W85090  15.985  18.532  14.424
13475W        W85091  12.065  23.662  14.987
13476W        W85092  16.244  31.227  12.985
13477W        W85093   7.151  18.231  12.786
13478W        W85094  40.446  14.703   1.802
13479W        W85095  43.050  20.677  13.978
13480W        W85096  34.891  29.556  12.085
13481W        W85097   4.411  11.357  14.823
13482W        W85098  25.030  36.934   2.341
13483W        W85099  28.730  31.898  14.704
13484W        W85100   1.798  30.676   2.134
13485W        W85101  42.422  19.029  13.272
13486W        W85102   5.630  15.559  11.598
13487W        W85103  44.737  40.382  11.073
13488W        W85104  39.749  10.307  10.107
13489W        W85105   8.187   4.394  12.828
13490W        W85106  42.276  41.112   3.725
13491W        W85107   6.836  31.438   1.746
13492W        W85108  33.988  15.493   3.292
13493W        W85109   1.899  40.776  10.679
13494W        W85110   2.835   9.920   0.269
13495W        W85111  34.528   7.682   4.533
13496W        W85112  42.285  28.030   3.415
13497W        W85113  28.476  36.040  12.801
13498W        W85114  22.719  41.476  13.347
13499W        W85115  26.523  30.662  12.336
13500W        W85116  29.172   9.225  13.498
13501W        W85117  31.692  11.765  12.562
13502W        W85118   2.387  32.850  10.513
13503W        W85119  41.559   5.701   1.302
13504W        W85120  32.405  18.824   1.941
13505W        W85121  26.986  23.888  11.011
13506W        W85122   0.806  21.165  11.122
13507W        W85123  35.537   9.450  14.011
13508W        W85124  14.805  39.115   3.210
13509W        W85125  33.200  15.733  11.976
13510W        W85126  32.874  15.561  12.681
13511W        W85127  35.453  30.364   3.361
13512W        W85128  32.719  40.496  12.467
13513W        W85129  16.575  40.282  13.464
13514W        W85130   6.964  42.222   0.268
13515W        W85131  12.902   4.073  10.756
13516W        W85132  16.242  23.458   0.017
13517W        W85133  31.422  42.041  13.092
13518W        W85134  17.161  15.734   2.398
13519W        W85135   4.729  27.200   3.661
13520W        W85136   3.046   2.509  11.740
13521W        W85137  39.572  27.548  11.540
13522W        W85138   3.426   6.767  11.617
13523W        W85139  11.474  32.172   2.593
13524W        W85140   9.320  25.500   4.372
13525W        W85141   2.783  34.769  10.699
13526W        W85142  16.677  32.359   3.832
13527W        W85143  19.383   1.996  11.926
13528W        W85144  29.022  43.518   1.353
13529W        W85145  40.820  12.437   0.451
13530W        W85146  15.174  38.922  14.554
13531W        W85147  24.069  14.992  10.693
13532W        W85148  16.376  28.863  14.908
13533W        W85149  12.910  11.310   3.165
13534W        W85150  41.018  19.332  13.471
13535W        W85151  20.725  20.810  12.978
13536W        W85152  35.702  24.796  13.307
13537W        W85153   7.144  44.701   1.287
13538W        W85154  41.318  27.980   3.254
13539W        W85155  25.162  16.313   0.835
13540W        W85156   0.445   4.623  12.879
13541W        W85157   9.810  43.972  12.069
13542W        W85158  21.623  13.138  13.352
13543W        W85159  35.500  21.376  13.862
13544W        W85160   0.413  11.892  11.718
13545W        W85161  37.995  13.978   9.720
13546W        W85162  16.544   8.577   1.836
13547W        W85163  16.145  36.513  14.485
13548W        W85164  34.941  27.139   3.089
13549W        W85165   5.885  20.557   3.674
13550W        W85166  14.366  14.128  11.192
13551W        W85167   4.411  35.966   2.950
13552W        W85168  16.469  34.954   3.391
13553W        W85169  17.957  31.396  10.774
13554W        W85170  15.670   0.923  11.070
13555W        W85171  33.686  14.648  13.303
13556W        W85172  16.788  44.478   5.557
13557W        W85173  12.512  18.144  12.781
13558W        W85174  31.978  34.649   2.187
13559W        W85175  33.328  10.397  12.985
13560W        W85176  12.178   1.207  14.966
13561W        W85177  12.163  38.492  10.680
13562W        W85178  35.332  32.158  14.089
13563W        W85179  15.000  39.954   0.836
13564W        W85180   2.741   3.577   1.054
13565W        W85181  39.323  40.916  14.355
13566W        W85182  24.562  39.933  14.426
13567W        W85183  15.653  20.181   3.779
13568W        W85184  36.325   6.722   2.707
13569W        W85185   4.326   2.919   3.596
13570W        W85186  17.837  11.688   3.183
13571W        W85187  41.098  23.518  12.038
13572W        W85188  34.635  44.226  13.417
13573W        W85189  19.087  22.598  14.894
13574W        W85190  22.546   7.845  12.817
13575W        W85191  43.951  32.389   1.060
13576W        W85192   7.112  42.948   3.746
13577W        W85193  27.635  14.260   2.783
13578W        W85194  21.611  42.991  13.795
13579W        W85195  14.061  22.540   1.322
13580W        W85196  32.497   5.831  11.082
13581W        W85197  32.471  22.285  12.067
13582W        W85198  33.195  41.313   2.467
13583W        W85199  37.404  25.184  12.403
13584W        W85200   2.284  24.998  14.836
13585W        W85201  29.116  11.791   1.405
13586W        W85202  29.085  31.453  11.325
13587W        W85203  10.956   5.930  10.688
13588W        W85204   1.628  43.995   0.303
13589W        W85205  44.825  44.337   0.709
13590W        W85206  30.576  28.686  14.136
13591W        W85207  41.438   6.239   3.371
13592W        W85208  19.746  33.944  12.587
13593W        W85209  17.513  35.510  12.482
13594W        W85210  10.809  32.305   3.609
13595W        W85211  16.190   4.396   3.656
13596W        W85212  23.755  19.074   2.858
13597W        W85213  33.667  24.670  10.626
13598W        W85214  39.520  44.368  12.896
13599W        W85215  25.234  19.187  11.432
13600W        W85216  27.476  43.022   3.589
13601W        W85217  24.632  31.250   0.840
13602W        W85218   0.750  10.653  13.867
13603W        W85219  16.802  10.075   4.239
13604W        W85220  14.536   3.974   4.726
13605W        W85221  42.556  34.273   3.689
13606W        W85222  39.468  10.500   4.108
13607W        W85223   4.764  12.231   2.407
13608W        W85224  44.294  14.322   2.139
13609W        W85225  23.920  23.189   3.646
13610W        W85226  31.726  41.600   4.642
13611W        W85227  14.757  19.706  14.034
13612W        W85228  10.274  20.259   4.957
13613W        W85229  11.369  13.746  12.984
13614W        W85230  20.691  38.894   2.168
13615W        W85231   6.395  39.884   9.766
13616W        W85232   5.938  42.155   4.680
13617W        W85233  24.892  19.683   5.072
13618W        W85234   9.716   3.452   1.378
13619W        W85235   7.150  38.029   1.303
13620W        W85236  36.990  21.269   2.285
13621W        W85237  22.132  39.585   3.774
13622W        W85238   1.508   5.397   0.729
13623W        W85239  26.089  28.969  13.484
13624W        W85240  32.428   0.682  12.086
13625W        W85241   4.149  35.473  13.366
13626W        W85242   1.442  31.159   4.214
13627W        W85243  35.111  36.378   3.862
13628W        W85244  25.493  15.932  14.951
13629W        W85245  42.964  27.072   3.639
13630W        W85246  10.411  14.252  14.457
13631W        W85247  24.147  15.100   4.597
13632W        W85248   4.344  40.272   3.278
13633W        W85249  21.638  33.116   1.698
13634W        W85250  20.600  17.664   3.642
13635W        W85251  40.337  12.922   3.280
13636W        W85252   4.802  27.559  11.430
13637W        W85253  35.663  30.670  11.386
13638W        W85254  21.527  37.884  11.129
13639W        W85255  28.857  32.525  13.925
13640W        W85256  30.539  19.265  12.874
13641W        W85257   7.079  15.569  13.375
13642W        W85258   8.687  31.395  14.929
13643W        W85259  19.036  41.908   3.171
13644W        W85260  37.784   9.138  11.489
13645W        W85261  41.839  33.507  14.249
13646W        W85262   6.239  30.736  13.344
13647W        W85263   0.694  19.563  12.525
13648W        W85264  20.212  35.047   2.379
13649W        W85265  20.251  28.674  12.924
13650W        W85266  26.295  28.668   3.285
13651W        W85267  18.801  27.375   1.473
13652W        W85268  21.976   7.739  13.460
13653W        W85269  33.825   9.201   0.834
13654W        W85270   3.640  44.027   4.618
13655W        W85271  42.446  19.587   2.403
13656W        W85272  30.489  39.313  11.832
13657W        W85273  38.067  19.728  14.953
13658W        W85274  18.086  36.978   0.447
13659W        W85275  42.500  42.285   2.109
13660W        W85276  18.102  29.666   4.597
13661W        W85277  12.762  14.824  10.755
13662W        W85278  18.520  11.157   4.034
13663W        W85279  26.941  25.092  12.410
13664W        W85280  14.633  40.620   0.107
13665W        W85281  36.105   1.934  12.988
13666W        W85282   2.245   3.417   2.765
13667W        W85283  40.763  23.147  10.736
13668W        W85284  21.732   2.053   4.132
13669W        W85285   0.410  20.158   3.604
13670W        W85286  39.313   0.453   4.804
13671W        W85287  42.385  18.472  11.595
13672W        W85288  32.866   1.332  14.426
13673W        W85289  13.574  44.554  11.897
13674W        W85290  34.854  10.869   2.718
13675W        W85291  42.443   3.937   0.035
13676W        W85292  43.930  43.517   4.178
13677W        W85293  23.574  22.406  10.637
13678W        W85294  29.487  41.114   2.864
13679W        W85295   1.981  23.595   1.490
13680W        W85296   6.432  18.451  12.372
13681W        W85297  33.173  13.294   4.553
13682W        W85298   6.232   9.280   0.442
13683W        W85299  12.253  35.339  11.302
13684W        W85300  31.981  13.888   2.632
13685W        W85301  36.099  32.095  11.187
13686W        W85302  44.412   5.998  12.451
13687W        W85303  10.250   9.147  11.558
13688W        W85304  20.729  13.082  11.121
13689W        W85305   9.757  25.569   0.790
13690W        W85306  16.814  38.375   2.685
13691W        W85307  23.353   1.931   0.653
13692W        W85308  36.029  15.369  10.587
13693W        W85309  12.293   6.274   4.572
13694W        W85310  32.358  42.446   0.497
13695W        W85311  16.178   4.431  14.704
13696W        W85312  39.459  42.957   3.604
13697W        W85313  26.075  19.610  14.861
13698W        W85314  35.409  18.798  11.075
13699W        W85315   1.363   0.808  13.321
13700W        W85316  33.008  36.380  10.545
13701W        W85317  34.387  39.592   3.997
13702W        W85318  21.698  31.985   1.665
13703W        W85319  43.379  19.206   2.996
13704W        W85320  39.933  28.131  10.810
13705W        W85321  17.634  36.216   0.435
13706W        W85322   4.664  25.231  14.008
13707W        W85323  38.614   2.976  11.968
13708W        W85324  24.783  30.262   0.522
13709W        W85325  11.266  19.042  11.614
13710W        W85326  14.871  41.785  14.104
13711W        W85327  28.932  26.065  14.893
13712W        W85328  42.625  32.588  14.441
13713W        W85329   8.676  16.678   2.557
13714W        W85330  11.812  37.014  11.797
13715W        W85331   6.730   5.295   3.410
13716W        W85332  25.243  40.982  10.987
13717W        W85333  28.102   8.181   4.523
13718W        W85334  28.875  37.663  13.398
13719W        W85335  23.574  35.200   4.614
13720W        W85336  11.372  44.811   1.553
13721W        W85337  44.081  40.844  12.843
13722W        W85338  19.815  17.001   2.869
13723W        W85339  32.866   2.890  11.463
13724W        W85340  25.183  42.804  14.069
13725W        W85341  23.513  32.965   4.912
13726W        W85342   5.923  39.452  14.086
13727W        W85343  27.428  33.050   0.806
13728W        W85344  16.769   8.241  14.950
13729W        W85345   7.059  27.093   3.672
13730W        W85346  12.183  41.865  11.590
13731W        W85347   6.335  25.937  12.387
13732W        W85348  13.353  16.811   3.201
13733W        W85349  38.282   7.235  14.324
13734W        W85350  23.019  15.996   1.127
13735W        W85351  30.146  39.241   4.980
13736W        W85352   9.249  14.143  14.958
13737W        W85353  16.607  41.557  12.104
13738W        W85354  28.108   3.026  11.508
13739W        W85355  33.030  22.813   3.035
13740W        W85356   1.435  21.939  14.514
13741W        W85357   3.087  20.992   2.479
13742W        W85358  30.173  25.628   0.891
13743W        W85359  23.840  29.527   3.353
13744W        W85360  38.833  21.246   4.559
13745W        W85361  24.471  26.640   1.726
13746W        W85362  27.482  17.081   4.569
13747W        W85363   3.273  38.331  11.268
13748W        W85364  16.244  16.025  11.049
13749W        W85365  19.768  34.300  11.610
13750W        W85366  12.414   6.634   4.219
13751W        W85367   3.237  10.769  12.719
13752W        W85368   9.214   5.144  12.010
13753W        W85369   1.768  27.952  14.456
13754W        W85370  32.983  22.419   1.703
13755W        W85371   4.418   8.662   0.807
13756W        W85372  19.124  10.588  12.138
13757W        W85373  17.760  39.986  13.340
13758W        W85374  26.240  23.743  11.528
13759W        W85375  34.746  13.310   3.228
13760W        W85376   4.262   0.506   3.794
13761W        W85377  35.555  12.264  12.388
13762W        W85378  38.020  28.996  14.014
13763W        W85379   9.147  31.417   4.126
13764W        W85380  25.963  41.475  10.475
13765W        W85381   3.399  21.500   3.282
13766W        W85382  43.325  35.327   2.097
13767W        W85383  36.022  12.669  10.686
13768W        W85384   2.459  18.117   3.424
13769W        W85385  23.069  33.484  10.590
13770W        W85386  31.187  15.573  10.691
13771W        W85387  33.544   4.955   0.673
13772W        W85388  40.982  37.652   3.693
13773W        W85389  16.088  32.386  10.656
13774W        W85390  34.988   5.937  11.079
13775W        W85391  38.997  20.739   3.896
13776W        W85392   9.338   0.746  10.713
13777W        W85393  12.394  24.554   1.827
13778W        W85394  36.612  44.590  13.120
13779W        W85395  17.080  38.935   0.274
13780W        W85396  13.356  11.425  12.078
13781W        W85397   6.972   9.830  14.389
13782W        W85398  42.245  36.401   4.141
13783W        W85399  26.158  16.205   9.754
13784W        W85400  34.968  44.901  10.039
13785W        W85401  32.075  24.403   1.793
13786W        W85402  20.834  40.963  13.899
13787W        W85403  35.026  20.367   3.212
13788W        W85404  29.564  22.710   3.609
13789W        W85405  30.418  28.058   1.246
13790W        W85406  32.943  27.814  13.624
13791W        W85407  34.591  30.121   2.717
13792W        W85408  32.893  39.292  11.686
13793W        W85409   9.906  43.028   1.325
13794W        W85410  19.183  12.706   3.936
13795W        W85411  11.383  19.599  10.767
13796W        W85412  11.336  31.562  10.668
13797W        W85413  16.652  12.867   3.749
13798W        W85414   4.278  10.124  11.567
13799W        W85415   0.101  33.525  11.564
13800W        W85416  21.571  31.386  12.592
13801W        W85417  44.765   3.700  12.116
13802W        W85418   8.913  40.342  11.068
13803W        W85419  23.685   4.226   2.621
13804W        W85420  14.811  35.300  12.843
13805W        W85421  42.833  39.556   2.243
13806W        W85422  26.058  39.265   0.433
13807W        W85423  35.890   2.270   3.191
13808W        W85424  15.049  42.411  12.909
13809W        W85425  36.193  44.077   0.752
13810W        W85426  27.627   0.818  12.134
13811W        W85427  12.752  29.008   2.655
13812W        W85428  26.083  25.660   4.868
13813W        W85429  41.986  21.755   4.900
13814W        W85430  34.431  31.963  11.160
13815W        W85431  35.533  41.741  12.821
13816W        W85432   0.285   0.425  11.834
13817W        W85433  25.282   8.009   1.864
13818W        W85434  17.154  16.656  12.386
13819W        W85435   7.238  26.732  12.189
13820W        W85436  20.710  14.755  14.508
13821W        W85437   7.445  18.779  11.509
13822W        W85438  27.070  40.606   0.777
13823W        W85439   7.827   9.198  13.839
13824W        W85440   3.308  16.256  14.713
13825W        W85441  22.200  37.328  14.534
13826W        W85442  20.970  39.814   0.229
13827W        W85443  12.068  44.405  14.422
13828W        W85444  18.308  31.113   0.047
13829W        W85445  31.339  24.675   3.686
13830W        W85446  33.189  14.677  10.402
13831W        W85447  20.308   2.982  12.651
13832W        W85448  32.742  26.152   0.843
13833W        W85449   3.426  17.737  12.621
13834W        W85450  30.914  38.249   4.832
13835W        W85451  36.089   1.483   3.609
13836W        W85452  23.317  39.309  14.294
13837W        W85453  14.604  33.429  10.478
13838W        W85454  41.113   9.156   4.630
13839W        W85455  43.998  23.326   2.430
13840W        W85456  17.186  22.267  13.889
13841W        W85457   6.207   5.473   3.344
13842W        W85458  11.144  27.127   2.300
13843W        W85459   0.290  19.320   4.024
13844W        W85460  20.180  20.663   2.383
13845W        W85461  35.300  24.507   2.751
13846W        W85462  32.001  29.228   3.868
13847W        W85463  28.181   2.797   2.197
13848W        W85464   9.628  43.844  13.044
13849W        W85465  17.130   5.914   3.681
13850W        W85466  15.673  41.978  14.410
13851W        W85467  22.809  18.160  13.333
13852W        W85468  28.771  10.314  12.949
13853W        W85469  32.967   1.698  14.019
13854W        W85470  22.108  10.306   0.419
13855W        W85471  14.225  40.393  14.867
13856W        W85472  34.554   0.164  11.053
13857W        W85473  22.186  39.046   1.708
13858W        W85474  18.049   9.145   4.957
13859W        W85475   5.008  20.800  14.866
13860W        W85476  26.074  42.145  14.101
13861W        W85477  40.168  40.640   2.784
13862W        W85478  42.343  17.909  13.922
13863W        W85479  19.821  37.476  12.307
13864W        W85480  18.802  32.539   1.733
13865W        W85481  36.050  28.969   3.726
13866W        W85482  35.385  24.849  11.137
13867W        W85483  41.937   6.315   3.577
13868W        W85484   6.897  11.048   3.755
13869W        W85485  11.766  39.916  13.342
13870W        W85486  29.995  11.351   4.258
13871W        W85487  28.835   7.287   1.059
13872W        W85488  25.075  44.731   2.629
13873W        W85489  17.044  14.542   1.651
13874W        W85490  28.336  36.619   1.490
13875W        W85491   4.800  31.344  14.935
13876W        W85492  40.505  25.591  14.998
13877W        W85493  30.016  30.454  14.307
13878W        W85494  30.728  17.593  12.580
13879W        W85495  41.030   0.491  10.697
13880W        W85496  38.452  28.102  10.407
13881W        W85497  20.216  18.036  14.348
13882W        W85498  23.665  21.042   0.821
13883W        W85499  11.669  13.117  11.078
13884W        W85500  12.048  20.371  13.525
13885W        W85501  35.660   6.459   0.675
13886W        W85502  22.706  20.262  13.331
13887W        W85503  17.905  14.674   4.644
13888W        W85504  13.754  39.213  10.772
13889W        W85505  36.630  17.525  14.937
13890W        W85506  26.513  43.052  12.527
13891W        W85507   3.395  15.788   0.453
13892W        W85508  12.608  28.259  12.406
13893W        W85509   6.616  35.949   3.388
13894W        W85510  11.428  21.729  14.322
13895W        W85511   3.369   1.697  12.745
13896W        W85512  32.893   9.403  12.405
13897W        W85513  28.488  31.560   3.742
13898W        W85514  16.082  16.662  12.536
13899W        W85515  19.450   3.317   0.377
13900W        W85516  31.636  15.677   2.342
13901W        W85517  24.247  15.714   1.213
13902W        W85518   4.198   9.134   3.239
13903W        W85519  19.725  30.084   4.791
13904W        W85520  39.224   4.084  14.410
13905W        W85521  40.719  12.093  11.141
13906W        W85522  27.074   1.436   1.225
13907W        W85523  40.175  43.519  12.612
13908W        W85524  18.951  14.788  12.192
13909W        W85525   9.879  27.972   4.340
13910W        W85526   0.648  15.169   1.234
13911W        W85527  18.814  32.020   1.005
13912W        W85528  36.644  22.165   0.239
13913W        W85529  36.641  12.549  10.638
13914W        W85530  41.178  41.858  14.303
13915W        W85531  22.953  11.410  11.575
13916W        W85532  16.092   2.228  11.165
13917W        W85533  31.964   2.422   3.067
13918W        W85534  38.802  10.695   0.023
13919W        W85535   8.145  10.214  11.535
13920W        W85536  10.182  32.128  10.713
13921W        W85537   1.248  14.831  11.133
13922W        W85538   3.219   0.751   3.164
13923W        W85539  16.846   4.719  13.782
13924W        W85540  32.656   3.925   0.080
13925W        W85541  43.053   9.711   0.720
13926W        W85542  18.031  28.995   0.236
13927W        W85543  35.813  11.398  12.693
13928W        W85544  23.701  37.561  13.370
13929W        W85545  26.206  18.843  11.571
13930W        W85546  14.792  38.924  12.063
13931W        W85547  21.691  23.567  13.754
13932W        W85548  15.325  22.130  14.308
13933W        W85549  35.945   0.366   0.179
13934W        W85550  28.424   7.188   1.384
13935W        W85551  22.126   9.812   0.597
13936W        W85552   6.427  18.710  11.555
13937W        W85553  36.591  23.407  10.846
13938W        W85554  32.670  41.520  13.903
13939W        W85555  33.013  17.201  11.956
13940W        W85556   2.376  36.286  14.954
13941W        W85557   5.252  28.462  12.098
13942W        W85558  30.371  42.934   0.212
13943W        W85559   6.244  23.040  12.833
13944W        W85560  24.976  24.721  12.497
13945W        W85561  18.519  40.047   3.915
13946W        W85562  14.803  18.321  11.469
13947W        W85563   9.443   4.720  10.785
13948W        W85564  24.530   9.699   0.210
13949W        W85565  19.625  14.401   4.488
13950W        W85566  40.805   9.319  13.093
13951W        W85567  34.716  26.825  12.906
13952W        W85568  40.102  26.917   0.451
13953W        W85569  17.191  37.291   0.947
13954W        W85570   6.277  36.895  10.983
13955W        W85571  42.880  33.991  14.551
13956W        W85572  30.036  35.176   0.424
13957W        W85573  15.766  30.184  11.551
13958W        W85574   4.502  14.081  13.087
13959W        W85575   7.719  17.058   1.247
13960W        W85576  29.766  44.956  12.883
13961W        W85577   0.227  31.089  13.990
13962W        W85578  20.655  27.960  12.301
13963W        W85579  13.613   4.752  13.827
13964W        W85580  13.650   0.335  13.978
13965W        W85581  40.400   3.371   9.835
13966W        W85582  30.675  31.507  13.843
13967W        W85583  13.744  23.539   1.003
13968W        W85584  14.845  26.607  10.384
13969W        W85585  17.769  13.112   4.592
13970W        W85586   3.779   1.446   0.538
13971W        W85587  15.134  34.403  11.986
13972W        W85588  31.894  10.385  10.892
13973W        W85589  14.047   4.173  11.061
13974W        W85590   4.897  11.276  11.598
13975W        W85591  40.856  35.445   3.743
13976W        W85592  39.336   5.800   2.798
13977W        W85593  34.465  17.121  12.777
13978W        W85594  39.417  32.436  11.094
13979W        W85595  30.670   8.066  12.590
13980W        W85596  20.660  31.015  14.512
13981W        W85597  44.783  19.690   2.250
13982W        W85598   4.925  24.632  13.466
13983W        W85599   7.454  35.815  14.723
13984W        W85600  24.800  24.117   0.063
13985W        W85601  21.292   0.870   4.861
13986W        W85602  29.151  13.583   4.284
13987W        W85603  39.032  24.982   1.942
13988W        W85604  20.045   0.504  10.515
13989W        W85605  33.632   5.911   3.725
13990W        W85606   4.925  25.337   3.299
13991W        W85607   4.229   3.658  14.460
13992W        W85608  28.605  13.223  12.625
13993W        W85609   1.296  15.637  14.572
13994W        W85610   5.203   1.424   2.094
13995W        W85611  30.311  41.648   2.458
13996W        W85612  44.951   0.041  10.444
13997W        W85613  41.417  11.512   4.284
13998W        W85614   1.853  41.467   0.240
13999W        W85615  39.097  18.670  11.585
14000W        W85616  22.195   6.079   2.568
14001W        W85617  32.100  41.984   4.784
14002W        W85618  43.910   5.091   4.857
14003W        W85619  32.385  37.869  11.519
14004W        W85620  31.437  25.439   3.284
14005W        W85621  42.980  27.633   2.327
14006W        W85622   1.054  14.974   2.670
14007W        W85623  34.570  12.228   1.348
14008W        W85624   8.406  34.072   2.749
14009W        W85625  19.058  31.043   3.408
14010W        W85626  10.415  28.550   3.913
14011W        W85627  33.548  36.714   1.410
14012W        W85628  24.465  32.932   4.512
14013W        W85629   4.897  23.604  14.992
14014W        W85630  38.164  42.898  13.848
14015W        W85631  30.422   6.411  10.552
14016W        W85632   0.462  15.304   1.907
14017W        W85633  40.978  37.122   0.170
14018W        W85634  42.059   5.440  14.531
14019W        W85635  43.499  18.921  12.493
14020W        W85636  19.880  21.674  12.040
14021W        W85637  34.864  33.049   3.106
14022W        W85638  35.535   5.682  10.464
14023W        W85639  35.169  37.530   4.218
14024W        W85640  22.301  22.547  12.387
14025W        W85641  20.554  32.082  11.502
14026W        W85642  32.438  27.059  12.925
14027W        W85643  41.709  33.678  14.975
14028W        W85644  22.877   9.124  14.925
14029W        W85645   2.478  39.383   2.727
14030W        W85646  10.873  32.304  14.690
14031W        W85647   9.332  24.616   3.112
14032W        W85648  31.580  31.573  13.816
14033W        W85649  22.588   8.337   4.572
14034W        W85650  38.793  15.738   1.846
14035W        W85651  33.723  37.964   1.511
14036W        W85652  18.495  37.274   0.264
14037W        W85653  26.741   3.719   1.058
14038W        W85654   4.280  37.765  13.814
14039W        W85655  16.130  38.989  14.847
14040W        W85656   8.222  27.526  10.614
14041W        W85657  32.635  27.990  11.547
14042W        W85658  20.985  17.239   2.188
14043W        W85659  35.052  37.323   3.700
14044W        W85660   1.992  15.586   3.331
14045W        W85661  23.992  19.741   0.777
14046W        W85662  28.205  39.330   0.791
14047W        W85663  35.849  37.887   3.435
14048W        W85664   9.322   6.633  12.019
14049W        W85665  19.520   8.342  14.962
14050W        W85666  16.827   1.687   3.638
14051W        W85667  21.732   7.908   0.416
14052W        W85668   9.187   4.899  14.788
14053W        W85669   5.210  31.144   0.162
14054W        W85670   7.779  27.632  14.961
14055W        W85671  39.979  11.638   4.620
14056W        W85672  29.987  33.475   3.141
14057W        W85673  10.772   6.858   2.080
14058W        W85674  40.079   5.902   0.518
14059W        W85675  33.853  35.451   1.385
14060W        W85676   8.211  32.970  10.379
14061W        W85677   2.401  32.924  14.918
14062W        W85678  31.567  18.759   0.998
14063W        W85679  30.773  36.077  10.152
14064W        W85680  38.049   1.249   1.904
14065W        W85681  26.257   4.173  13.465
14066W        W85682   3.194  35.348  11.997
14067W        W85683  39.432  29.513   2.127
14068W        W85684  43.276  14.054  11.617
14069W        W85685  42.460  15.684   3.889
14070W        W85686  18.602  43.491   2.878
14071W        W85687  39.037   3.739  12.812
14072W        W85688  38.524  10.397  12.612
14073W        W85689  31.640   1.666  10.070
14074W        W85690  37.349  38.326  14.313
14075W        W85691  21.291   8.414  11.599
14076W        W85692  33.793  40.425   4.069
14077W        W85693  39.504   5.255   4.608
14078W        W85694  18.160  13.875   1.350
14079W        W85695  42.208  33.798  12.914
14080W        W85696  16.416  12.580   1.364
14081W        W85697  31.440   1.949  10.442
14082W        W85698  23.616   1.289   1.848
14083W        W85699  39.792  32.386  12.407
14084W        W85700  24.203   7.872  13.481
14085W        W85701  42.497  25.236   4.846
14086W        W85702  13.777  15.055   3.098
14087W        W85703   3.418  36.049  12.481
14088W        W85704   0.845   0.866   5.131
14089W        W85705  20.435   6.566   2.069
14090W        W85706  35.816  32.031  11.656
14091W        W85707  33.490  22.691   5.102
14092W        W85708  21.817   1.272  12.054
14093W        W85709   2.214  22.122  10.704
14094W        W85710  14.500   7.311   2.743
14095W        W85711  36.407  40.726  14.871
14096W        W85712  14.823   5.581   3.984
14097W        W85713  25.555  43.473   1.281
14098W        W85714   5.791  38.432  13.024
14099W        W85715   1.689  40.455  12.043
14100W        W85716   4.760   1.340   1.829
14101W        W85717  44.001  14.768  11.631
14102W        W85718  42.761  22.557  14.319
14103W        W85719  35.829  21.570   2.715
14104W        W85720  34.569  31.930   3.186
14105W        W85721  18.536  44.499  11.998
14106W        W85722  34.139   8.411  10.668
14107W        W85723   0.336  11.493   2.193
14108W        W85724  14.132  40.334  13.878
14109W        W85725  22.729   0.450  13.855
14110W        W85726  37.329   2.600   4.958
14111W        W85727  18.575  34.531   3.202
14112W        W85728  36.771   2.887  11.163
14113W        W85729  15.722  29.563   4.563
14114W        W85730  24.105  29.897  14.348
14115W        W85731  22.936   8.945   4.144
14116W        W85732   4.756   4.794   3.645
14117W        W85733   0.492   1.505   0.927
14118W        W85734  26.477  26.443  10.631
14119W        W85735   9.402  18.095  12.956
14120W        W85736  35.050  12.698  11.919
14121W        W85737  44.441  15.282   1.752
14122W        W85738  39.373  32.319  14.331
14123W        W85739  27.612  35.157   1.688
14124W        W85740   2.482  37.536  12.088
14125W        W85741  29.096  14.687   2.711
14126W        W85742  16.185  16.035  14.623
14127W        W85743   7.473  39.026   4.439
14128W        W85744  10.976  25.507   3.756
14129W        W85745   1.516  24.257  10.387
14130W        W85746  20.867  14.968   2.704
14131W        W85747  12.302  40.636   3.810
14132W        W85748  34.567  35.918   4.369
14133W        W85749  18.512   9.823   1.829
14134W        W85750   0.390   9.687  13.542
14135W        W85751  44.290  11.715   0.246
14136W        W85752  14.039  14.250   1.144
14137W        W85753  18.168  37.635   4.072
14138W        W85754  17.005   1.657  14.405
14139W        W85755  31.938  14.186   0.885
14140W        W85756  35.372  16.460  11.973
14141W        W85757   5.186  21.172  10.713
14142W        W85758  29.715  32.937   1.350
14143W        W85759   6.490   0.235  14.286
14144W        W85760   2.167  39.915   3.937
14145W        W85761  44.425  20.788   1.234
14146W        W85762  23.473  37.060   1.908
14147W        W85763  27.951   6.960   1.394
14148W        W85764  14.044   8.733   1.161
14149W        W85765  34.989   1.240   2.401
14150W        W85766   6.009  25.715   3.936
14151W        W85767  32.433  34.232  14.759
14152W        W85768  44.219  44.434   3.250
14153W        W85769  14.151  17.819   9.953
14154W        W85770   7.283  31.988   4.354
14155W        W85771  18.634  39.500   4.092
14156W        W85772  44.342  27.062   1.290
14157W        W85773  29.213  36.507   1.908
14158W        W85774  27.715  35.263   0.234
14159W        W85775   6.171  12.779   0.999
14160W        W85776  27.445  43.769  12.304
14161W        W85777  43.249  38.104  11.935
14162W        W85778  29.113  42.548  14.376
14163W        W85779  29.535  31.333  11.510
14164W        W85780  42.984   1.505   3.118
14165W        W85781  24.732   3.817   4.200
14166W        W85782  30.766  18.456  13.488
14167W        W85783   1.497   8.731   4.364
14168W        W85784   8.548  41.327  14.934
14169W        W85785  36.084  42.975   2.585
14170W        W85786   7.437   4.703   0.495
14171W        W85787   6.467  17.196   4.518
14172W        W85788  31.087  44.295  14.107
14173W        W85789  15.678  39.375   0.660
14174W        W85790  16.918  34.810  12.049
14175W        W85791   3.660  16.975  11.190
14176W        W85792  22.776  43.953   3.178
14177W        W85793   8.861  40.028   4.211
14178W        W85794   6.875  31.017   2.708
14179W        W85795   1.808  33.457  13.543
14180W        W85796  34.230  41.794   3.640
14181W        W85797   5.089  20.089   4.707
14182W        W85798  19.289  32.844  13.913
14183W        W85799  12.836  42.797   3.249
14184W        W85800   7.485   9.343   4.736
14185W        W85801  32.149   6.420   1.963
14186W        W85802  21.723   3.696  11.079
14187W        W85803  22.263  40.010   0.724
14188W        W85804   9.466  26.880  12.913
14189W        W85805  33.488  30.516  13.348
14190W        W85806   6.067  21.746  11.718
14191W        W85807  33.133  23.053  13.532
14192W        W85808  17.232  33.584   1.434
14193W        W85809   8.890  10.032   3.903
14194W        W85810   7.696  13.921  14.537
14195W        W85811  16.097  43.730   0.396
14196W        W85812  29.752   3.778  14.890
14197W        W85813  18.571  10.903  14.483
14198W        W85814   0.262  28.940  11.612
14199W        W85815  33.593  11.209   1.779
14200W        W85816  14.638   2.143   3.502
14201W        W85817   6.263  35.422   1.721
14202W        W85818   4.630  36.012   4.229
14203W        W85819   2.206  11.669  12.450
14204W        W85820   6.609   6.242  11.029
14205W        W85821  40.890   0.382   0.443
14206W        W85822  25.166  14.952   1.148
14207W        W85823  40.909  41.068   4.135
14208W        W85824  32.767  36.396   1.540
14209W        W85825  33.455  43.190  11.935
14210W        W85826  16.330   6.796  14.860
14211W        W85827  25.266  14.289  11.919
14212W        W85828  26.770  31.519  14.220
14213W        W85829   5.295   2.769  13.528
14214W        W85830   7.885  42.043  12.622
14215W        W85831  25.662  10.042   4.577
14216W        W85832  34.435  33.876  14.819
14217W        W85833   6.705  41.561  14.051
14218W        W85834  21.704  26.575  12.343
14219W        W85835   0.343  28.071  14.726
14220W        W85836  28.576  18.035   1.755
14221W        W85837  13.245  24.927   4.645
14222W        W85838  13.849  18.853  12.110
14223W        W85839  35.783  31.006   2.816
14224W        W85840  15.768  33.054  14.876
14225W        W85841  21.509  33.036  13.354
14226W        W85842   4.287  23.851   1.895
14227W        W85843  13.805  29.449  10.602
14228W        W85844  38.373  25.563   5.074
14229W        W85845  33.335  16.199   3.532
14230W        W85846  34.170  38.709   3.700
14231W        W85847  23.553  21.104   4.445
14232W        W85848  42.599   9.653   3.104
14233W        W85849  33.709  20.879   0.290
14234W        W85850  10.620   9.328   1.838
14235W        W85851  10.313   9.802  14.074
14236W        W85852  44.795  33.534   3.307
14237W        W85853  29.611   6.373   4.698
14238W        W85854  27.383  19.749  13.996
14239W        W85855  33.362  41.368  14.705
14240W        W85856  36.259  29.595   1.458
14241W        W85857  31.343  43.901  11.616
14242W        W85858  44.768  18.046  13.504
14243W        W85859  12.762  19.909  14.088
14244W        W85860  44.972  16.503   4.229
14245W        W85861  32.529  25.759  14.503
14246W        W85862  31.508  26.116   4.050
14247W        W85863  28.678  24.605  11.114
14248W        W85864   1.020  28.151   3.289
14249W        W85865   4.191  33.068   1.730
14250W        W85866  34.948   3.878   0.418
14251W        W85867  41.956  21.223   3.141
14252W        W85868  31.253  13.229   2.669
14253W        W85869  25.660  12.553   0.298
14254W        W85870  23.533  38.428  14.407
14255W        W85871  19.562   0.067   4.767
14256W        W85872   5.328  33.521   2.255
14257W        W85873  37.666  23.239  14.807
14258W        W85874  12.231  19.063  12.122
14259W        W85875  34.283  18.550   2.322
14260W        W85876  27.938  38.854  10.309
14261W        W85877   4.816  40.488   3.250
14262W        W85878  23.638  13.643  10.725
14263W        W85879  38.594   0.910   4.999
14264W        W85880  11.194  35.864   0.707
14265W        W85881  40.199  31.444  14.258
14266W        W85882  23.038  10.305   3.582
14267W        W85883  24.265  40.558   2.461
14268W        W85884  15.758  25.931  14.607
14269W        W85885  33.005  23.619   1.026
14270W        W85886  43.955  36.066   0.343
14271W        W85887  16.129   5.997   3.705
14272W        W85888  44.126   0.985  11.898
14273W        W85889   0.293  33.876  11.909
14274W        W85890   8.391  38.859  13.465
14275W        W85891   3.787  18.689  11.087
14276W        W85892  10.218  11.113   0.812
14277W        W85893  24.057  10.658  13.761
14278W        W85894   5.544  44.487   5.396
14279W        W85895  29.399  28.702  10.188
14280W        W85896  41.548  26.970   3.154
14281W        W85897  20.467  34.430   4.752
14282W        W85898  37.819   5.998  13.128
14283W        W85899  27.959  20.729   1.859
14284W        W85900  44.078  43.926  14.253
14285W        W85901  15.049  29.087   3.725
14286W        W85902  30.453  25.977   2.384
14287W        W85903  16.767  44.955   9.714
14288W        W85904  33.552  23.521   3.553
14289W        W85905  42.348  36.789  11.583
14290W        W85906  42.844   5.275  11.034
14291W        W85907  29.991  17.993  10.759
14292W        W85908  20.572  43.306  12.950
14293W        W85909  39.333  19.090  10.663
14294W        W85910   2.460   3.007  12.513
14295W        W85911  30.416  24.988   4.526
14296W        W85912  43.728  22.648  10.730
14297W        W85913  21.767   1.998   1.334
14298W        W85914  13.289  14.329   4.722
14299W        W85915  44.900  21.086  14.933
14300W        W85916  40.953  30.739  14.348
14301W        W85917  17.076  24.158   1.938
14302W        W85918  18.849  15.207  11.241
14303W        W85919   8.017  43.024   9.819
14304W        W85920  38.144  33.489  14.278
14305W        W85921   9.639   6.311   4.318
14306W        W85922  31.868  17.198   0.277
14307W        W85923  12.868   5.263  11.119
14308W        W85924  42.843  42.988  11.060
14309W        W85925  21.689  41.957  14.031
14310W        W85926  34.907  34.103   3.715
14311W        W85927  20.932  41.319  11.170
14312W        W85928   3.020   8.714   4.138
14313W        W85929   7.482  14.316  12.041
14314W        W85930  13.384  42.548  10.834
14315W        W85931  39.323  23.688  14.016
14316W        W85932   0.665  39.439  11.912
14317W        W85933  44.601  31.500   1.856
14318W        W85934   4.321  32.358  11.122
14319W        W85935  38.915  16.843   0.943
14320W        W85936  17.321  12.376   1.235
14321W        W85937   3.408   4.238  10.717
14322W        W85938   5.789   0.791   2.449
14323W        W85939  35.526  28.081  13.389
14324W        W85940  40.617  26.147  14.522
14325W        W85941  37.985  20.747   3.163
14326W        W85942  30.591  20.925   2.483
14327W        W85943  14.571  17.750   5.414
14328W        W85944  44.973  41.918  10.544
14329W        W85945  35.306  28.892  10.936
14330W        W85946  36.475  37.283  10.219
14331W        W85947  30.880  42.003  11.846
14332W        W85948  33.764   0.451  11.496
14333W        W85949   4.310  38.046  13.400
14334W        W85950  39.981  40.777  13.407
14335W        W85951  43.401   2.770   3.323
14336W        W85952   0.916  30.434  13.524
14337W        W85953  18.114  14.767   2.803
14338W        W85954  40.840  26.771  12.752
14339W        W85955  12.253  14.366   1.548
14340W        W85956  40.403  10.446   4.042
14341W        W85957  40.752  36.286   2.978
14342W        W85958   6.566  11.778   4.911
14343W        W85959  28.517  29.990  11.351
14344W        W85960  44.669   1.909   5.112
14345W        W85961   2.334  18.477   5.006
14346W        W85962  16.553  13.917  12.765
14347W        W85963  10.953  33.064  12.160
14348W        W85964  19.485  13.201  13.720
14349W        W85965  12.306  39.931   3.662
14350W        W85966  33.647   0.244  11.995
14351W        W85967   4.709  44.916  12.508
14352W        W85968  37.020  11.886   4.305
14353W        W85969  43.582  26.126   3.937
14354W        W85970   9.302  33.111  13.405
14355W        W85971  10.728  32.141   1.913
14356W        W85972   5.191  29.911   0.863
14357W        W85973  13.871  33.198  13.401
14358W        W85974  27.144  36.029  10.623
14359W        W85975   5.782  44.718   1.488
14360W        W85976  14.384  35.182  10.829
14361W        W85977  11.535   7.256   0.358
14362W        W85978  38.101  28.503  11.220
14363W        W85979  31.458   3.341   2.878
14364W        W85980   8.423  29.743  12.998
14365W        W85981  36.960  35.871   4.783
14366W        W85982   6.196  14.221   0.182
14367W        W85983  38.344  37.400  12.922
14368W        W85984   0.792  17.554   4.155
14369W        W85985  43.389  16.052   4.214
14370W        W85986  36.462  36.310   4.144
14371W        W85987  31.188  38.920   4.317
14372W        W85988  14.438  19.540  11.168
14373W        W85989  10.804  18.035   0.515
14374W        W85990  43.638  37.491  12.416
14375W        W85991   7.620  18.018   3.318
14376W        W85992  14.509  24.703  13.010
14377W        W85993  19.168  30.112   1.453
14378W        W85994  44.551  11.652  12.673
14379W        W85995  29.595  28.805   3.594
14380W        W85996  26.112  22.435   3.211
14381W        W85997  42.961  35.571   3.387
14382W        W85998  23.209  20.059  13.135
14383W        W85999  24.060  39.705   9.790
14384W        W86000  12.078  27.903   3.333
14385W        W86001  40.032  30.185   4.516
14386W        W86002  13.201   9.346  13.026
14387W        W86003  42.413  35.008   0.896
14388W        W86004  39.977  13.712  13.870
14389W        W86005  10.654  33.537  13.009
14390W        W86006  44.937   7.192   2.909
14391W        W86007  36.203  21.572   4.106
14392W        W86008  41.883   5.298  12.680
14393W        W86009  25.447  26.435  13.167
14394W        W86010  10.715  44.431   4.101
14395W        W86011  38.570  19.758  11.576
14396W        W86012  15.222  11.545  13.240
14397W        W86013  26.706  10.794   0.744
14398W        W86014  25.326  24.953  14.894
14399W        W86015  15.291  41.906   1.342
14400W        W86016  22.730   3.522  12.092
14401W        W86017   3.491  17.745  11.075
14402W        W86018   4.263  16.082  11.526
14403W        W86019  13.673   1.230   0.681
14404W        W86020  28.138   8.240   1.304
14405W        W86021   2.436  44.006   1.901
14406W        W86022  20.824  41.034   1.166
14407W        W86023  44.065  11.854   2.678
14408W        W86024  12.136   2.178  13.994
14409W        W86025  31.010  37.081  11.675
14410W        W86026  21.313  38.401   2.279
14411W        W86027  28.972  28.967  12.598
14412W        W86028   2.318  19.736  13.555
14413W        W86029  37.405  42.424  11.533
14414W        W86030  26.642  23.430   0.310
14415W        W86031  18.748  18.076   2.174
14416W        W86032  42.794  12.754  11.524
14417W        W86033  36.497  16.215   3.231
14418W        W86034  16.125   5.708   4.187
14419W        W86035  16.634  13.779   0.704
14420W        W86036  28.377  15.632  10.741
14421W        W86037   6.584   0.172  13.027
14422W        W86038  13.385  16.540   1.255
14423W        W86039   7.851   9.704   0.681
14424W        W86040  28.948  28.486  12.434
14425W        W86041   0.746   3.710  11.986
14426W        W86042   6.804  10.910   2.633
14427W        W86043  13.701  26.216  10.545
14428W        W86044  16.329  11.401   0.076
14429W        W86045  26.363  29.767  13.034
14430W        W86046  39.385  30.714  10.501
14431W        W86047  35.630  25.026  13.759
14432W        W86048  15.067  19.274   4.668
14433W        W86049   9.326   1.062  12.519
14434W        W86050  40.794  23.740  11.166
14435W        W86051  26.679  14.006  13.600
14436W        W86052  35.573  29.566   2.720
14437W        W86053   6.387  14.875   1.906
14438W        W86054  33.583  12.281   1.375
14439W        W86055   1.710  20.674  14.309
14440W        W86056  41.967  44.939   1.890
14441W        W86057   6.894  41.067   1.447
14442W        W86058   1.261  25.681   3.815
14443W        W86059  40.345   2.432  11.878
14444W        W86060  12.832  33.447  14.794
14445W        W86061  13.748  20.146   2.176
14446W        W86062  41.887  20.417   0.985
14447W        W86063   6.977  35.132   2.777
14448W        W86064  26.658   2.883   3.340
14449W        W86065  15.203   3.710   0.855
14450W        W86066   4.900  13.534  13.545
14451W        W86067  40.377  34.574   3.924
14452W        W86068   1.399  29.638  12.521
14453W        W86069  42.251  34.909  12.521
14454W        W86070   0.981  28.322  12.854
14455W        W86071  30.924  26.864  13.057
14456W        W86072  38.439   5.561   4.777
14457W        W86073  23.537  24.973  10.726
14458W        W86074   5.255   7.478  10.679
14459W        W86075  41.074  22.168  10.596
14460W        W86076  42.725   8.714  10.398
14461W        W86077  35.965   1.937  11.681
14462W        W86078  40.924   7.184   4.352
14463W        W86079   4.878  33.477   0.398
14464W        W86080  16.164  42.423   5.497
14465W        W86081   7.357  41.264   1.236
14466W        W86082  36.436  30.643  11.947
14467W        W86083  18.187   6.432   3.795
14468W        W86084  38.470   4.885   0.376
14469W        W86085  19.620  34.988  13.291
14470W        W86086  44.273  16.586  11.967
14471W        W86087   3.941   2.971  10.799
14472W        W86088  26.371   3.739  14.323
14473W        W86089  17.573   7.886   1.355
14474W        W86090  16.799  41.875   1.280
14475W        W86091  39.975  40.745  10.993
14476W        W86092  22.570  10.609  13.489
14477W        W86093  21.186  19.974  12.034
14478W        W86094  24.678  15.065   0.953
14479W        W86095   5.860  39.931   4.905
14480W        W86096   2.305  12.713   3.207
14481W        W86097  13.576  30.586   5.119
14482W        W86098  43.581  43.293  13.909
14483W        W86099  23.047  30.861  13.324
14484W        W86100   5.164   3.689  11.477
14485W        W86101  39.884   6.091   2.158
14486W        W86102  21.126  10.476   0.261
14487W        W86103  29.803  13.194  12.847
14488W        W86104   1.933  36.573  14.919
14489W        W86105  44.831   9.918   4.386
14490W        W86106  22.510  15.831   1.044
14491W        W86107   1.450  30.064   2.717
14492W        W86108  16.824  22.585   1.849
14493W        W86109  21.578   0.948   0.019
14494W        W86110  12.297  37.356  10.965
14495W        W86111   6.213  22.737  13.561
14496W        W86112  19.860  17.496  11.012
14497W        W86113  41.591  23.106  14.003
14498W        W86114  39.371  14.338   2.221
14499W        W86115  28.266  34.656  10.177
14500W        W86116  19.628  38.486  11.462
14501W        W86117   4.760  18.802   0.904
14502W        W86118  14.782  23.507   0.257
14503W        W86119  28.103  36.433   1.021
14504W        W86120  29.147  37.939  13.750
14505W        W86121  17.052  17.535   0.725
14506W        W86122  44.339  44.919  14.506
14507W        W86123  32.032  28.239  13.312
14508W        W86124  15.862   7.685   4.818
14509W        W86125  15.571  19.268   4.637
14510W        W86126  25.355  20.881  11.961
14511W        W86127  28.030  12.604  13.795
14512W        W86128   0.275   8.681  12.540
14513W        W86129  31.885  17.878  10.639
14514W        W86130  25.925  17.043  12.100
14515W        W86131  29.158  34.066   1.259
14516W        W86132   6.262  29.488   1.110
14517W        W86133  32.404  14.252   4.019
14518W        W86134  25.060   9.868  14.879
14519W        W86135  35.340  28.320  13.827
14520W        W86136   8.578  38.023  12.365
14521W        W86137   3.251   3.735  12.510
14522W        W86138   0.419   4.178   1.677
14523W        W86139  12.161  10.592  11.538
14524W        W86140   9.042  44.835  13.829
14525W        W86141  12.224   4.431  13.300
14526W        W86142   0.675  10.655   3.438
14527W        W86143  35.400  38.586  12.058
14528W        W86144  25.209  39.004  11.430
14529W        W86145  21.345  24.105   0.836
14530W        W86146  13.621  40.986  10.742
14531W        W86147  13.399   5.394   1.279
14532W        W86148  17.080  36.205   4.753
14533W        W86149  33.486  22.237  14.754
14534W        W86150  32.514  32.125   2.318
14535W        W86151  28.855  33.085  11.437
14536W        W86152  30.095  23.917  10.592
14537W        W86153  16.197  17.024   3.204
14538W        W86154  36.197  43.975  11.001
14539W        W86155  44.014   8.713   4.586
14540W        W86156   9.751   7.239   0.477
14541W        W86157   6.809  27.933   1.219
14542W        W86158  32.005  39.904   0.378
14543W        W86159  14.154   7.345   3.643
14544W        W86160  40.113  20.526  11.014
14545W        W86161  42.037  30.019   1.986
14546W        W86162  38.407  31.908  14.417
14547W        W86163   4.309  22.089  12.150
14548W        W86164  41.964  29.025  13.237
14549W        W86165   4.494  23.973  10.988
14550W        W86166   1.889  28.097  11.956
14551W        W86167  25.447   2.794  14.498
14552W        W86168  31.042  15.455   2.893
14553W        W86169  33.067  11.463  13.480
14554W        W86170  11.600  31.606   2.619
14555W        W86171  35.568  14.233   3.644
14556W        W86172  37.546  11.861  10.644
14557W        W86173   1.776  37.172   1.617
14558W        W86174  22.736  28.664   1.871
14559W        W86175   2.981   4.742  14.718
14560W        W86176  13.843  34.518  13.385
14561W        W86177  22.155  25.950   1.694
14562W        W86178   4.892  44.947   4.234
14563W        W86179  17.067  11.358  14.591
14564W        W86180  16.139  28.926  10.905
14565W        W86181  18.748  28.558   4.465
14566W        W86182  35.460  19.095   4.611
14567W        W86183  26.927  39.897  11.967
14568W        W86184  28.936   6.353   3.255
14569W        W86185  29.661  12.896   4.684
14570W        W86186   3.352  36.532   5.060
14571W        W86187  29.235   7.367   4.746
14572W        W86188   0.886   7.891  11.082
14573W        W86189   0.230  22.445   4.199
14574W        W86190  21.243  43.054  12.627
14575W        W86191   2.279  18.181  14.841
14576W        W86192  10.150  34.823   1.926
14577W        W86193   1.422  15.303  10.862
14578W        W86194  38.637  34.750   4.055
14579W        W86195   2.100  18.473   1.088
14580W        W86196   3.323  36.905  12.117
14581W        W86197  33.140  17.161   2.827
14582W        W86198  42.056  21.312   1.289
14583W        W86199  20.302   4.607   0.317
14584W        W86200  40.540  10.316  14.395
14585W        W86201  31.181   2.756  11.809
14586W        W86202  40.358  26.165  12.414
14587W        W86203  44.761  15.689   2.850
14588W        W86204  27.736  21.184  14.994
14589W        W86205  39.293  23.206   3.357
14590W        W86206  29.322  40.638   2.616
14591W        W86207  30.517  43.866   3.662
14592W        W86208  15.913  12.061   2.920
14593W        W86209  42.396  44.761   1.653
14594W        W86210   8.773  14.677  12.953
14595W        W86211   4.462   0.450  13.894
14596W        W86212  31.843  41.632   2.955
14597W        W86213  12.241   0.225   1.859
14598W        W86214  32.534   8.217  14.540
14599W        W86215   1.224  24.855   2.594
14600W        W86216  28.094  11.809  13.210
14601W        W86217   2.471   0.944   1.173
14602W        W86218   6.256  30.812  11.559
14603W        W86219  10.203   4.015  12.474
14604W        W86220  44.485  24.586  12.104
14605W        W86221   6.776  12.602   0.024
14606W        W86222  33.425  13.896   2.850
14607W        W86223   7.670  38.044   0.482
14608W        W86224  31.216  28.634   1.773
14609W        W86225   6.257  40.847   3.384
14610W        W86226  12.323  18.189   3.249
14611W        W86227   2.053  22.357  10.180
14612W        W86228   0.253  10.264  14.837
14613W        W86229  29.260  21.262  14.345
14614W        W86230  36.097  38.578  11.057
14615W        W86231  13.139  13.010  13.402
14616W        W86232  40.908  21.096   4.119
14617W        W86233  17.751  24.677   2.270
14618W        W86234  23.584  11.932  11.794
14619W        W86235  41.993  33.039  11.026
14620W        W86236  38.326   4.348   4.639
14621W        W86237  14.773   6.954  11.446
14622W        W86238   3.832  10.605   3.284
14623W        W86239   8.431   6.333   1.707
14624W        W86240  16.885   8.199  12.583
14625W        W86241  16.619  19.707  12.924
14626W        W86242  33.936   9.908   1.933
14627W        W86243  24.128   0.992  10.721
14628W        W86244   1.576  33.887  11.512
14629W        W86245  39.097  43.556   0.231
14630W        W86246   2.804   7.149   4.620
14631W        W86247  23.455   9.736  10.406
14632W        W86248   0.288  17.488   1.378
14633W        W86249  14.129  11.509  14.515
14634W        W86250   3.350  40.196   3.675
14635W        W86251  44.063  13.220  12.803
14636W        W86252  38.501  32.375   3.815
14637W        W86253  26.926  14.782   1.469
14638W        W86254  12.590  14.129  14.837
14639W        W86255  27.706  16.255  12.866
14640W        W86256  39.292  10.247   0.647
14641W        W86257  40.270  23.080   4.589
14642W        W86258  42.147  44.272  11.167
14643W        W86259   1.444  14.769   4.541
14644W        W86260   5.372  33.631   0.283
14645W        W86261  36.342   7.691  14.925
14646W        W86262  34.672  43.447  11.586
14647W        W86263   2.894  32.048  14.880
14648W        W86264  40.291   7.421  10.076
14649W        W86265  14.196  19.923   3.324
14650W        W86266  12.718  22.129   4.855
14651W        W86267  29.237  15.686  11.952
14652W        W86268  22.752  19.774  12.050
14653W        W86269  25.037  32.488  10.742
14654W        W86270  38.303  22.557   2.811
14655W        W86271  31.493  25.933   3.190
14656W        W86272  36.642  39.280  11.137
14657W        W86273   1.952  40.309   2.885
14658W        W86274  27.991  29.697  11.092
14659W        W86275  15.914  28.118  12.542
14660W        W86276  17.239  36.154   1.762
14661W        W86277  41.677   3.506   0.547
14662W        W86278  14.211   1.742   1.696
14663W        W86279  11.667   9.614   4.146
14664W        W86280  27.065   8.820  11.523
14665W        W86281  36.497  15.995   2.237
14666W        W86282  37.612  25.915   2.162
14667W        W86283  24.131  26.831  11.071
14668W        W86284  15.789  16.546  13.025
14669W        W86285   5.257  22.235   1.852
14670W        W86286   9.781  16.531   3.332
14671W        W86287  13.609  36.289  14.005
14672W        W86288  34.386   4.257   1.156
14673W        W86289  20.063  32.373   3.772
14674W        W86290  14.288  31.527   4.128
14675W        W86291  23.282  33.561  13.518
14676W        W86292  17.247  12.136   3.219
14677W        W86293  10.750  16.063   2.297
14678W        W86294  13.115   4.897  13.782
14679W        W86295  15.298   3.927   2.405
14680W        W86296   1.578  17.819  13.356
14681W        W86297  43.056  36.086   4.130
14682W        W86298   7.742  23.527   1.208
14683W        W86299  40.653  21.824   4.079
14684W        W86300   9.971  21.318   4.547
14685W        W86301  42.901   9.360  13.478
14686W        W86302  19.275  26.156   4.784
14687W        W86303  32.114   3.292   1.698
14688W        W86304  23.955  10.818   0.413
14689W        W86305  42.551  22.834   1.430
14690W        W86306  23.459   9.655   0.561
14691W        W86307   7.465  30.733   0.327
14692W        W86308   0.990  35.681  10.762
14693W        W86309  40.267   0.019   3.725
14694W        W86310   0.418  13.823   1.763
14695W        W86311  31.497  35.391   4.063
14696W        W86312  11.750   2.123   2.679
14697W        W86313  30.955  34.656   4.195
14698W        W86314  24.151   0.536   4.746
14699W        W86315  30.338  33.301  14.411
14700W        W86316  18.316  30.058  14.116
14701W        W86317   6.218  27.442  10.636
14702W        W86318  20.146  37.464   1.461
14703W        W86319  36.113  34.626  10.656
14704W        W86320  13.143  41.619   1.866
14705W        W86321  26.610  16.844  10.178
14706W        W86322  28.477  34.571   0.803
14707W        W86323  10.046   1.931  12.769
14708W        W86324  20.471  23.643  11.871
14709W        W86325   2.759  22.111  14.704
14710W        W86326  35.375  10.311  13.890
14711W        W86327  41.576   4.813  13.958
14712W        W86328   9.790  29.539  10.771
14713W        W86329  14.819  42.531  12.453
14714W        W86330  34.982  29.328   4.640
14715W        W86331  25.460  19.162  10.966
14716W        W86332  35.854  28.068  14.995
14717W        W86333   9.813   2.427   2.791
14718W        W86334   9.796   7.830  14.306
14719W        W86335   9.641  40.594   2.871
14720W        W86336  31.935  10.722  13.879
14721W        W86337  22.543   6.763  12.689
14722W        W86338  21.592  34.635   1.711
14723W        W86339  15.225  10.739  10.370
14724W        W86340  11.848  22.209   1.903
14725W        W86341  22.284   0.787   4.139
14726W        W86342  11.040  22.070  14.474
14727W        W86343  43.936  29.097   2.227
14728W        W86344  18.249   9.303   0.901
14729W        W86345  29.443  35.254   4.219
14730W        W86346  21.506  31.921   3.511
14731W        W86347  18.152  26.914  12.082
14732W        W86348  20.468  43.824   1.165
14733W        W86349  24.039  15.679   1.688
14734W        W86350  17.189  23.196   3.909
14735W        W86351   3.295  10.906  10.541
14736W        W86352  32.611  35.972  10.873
14737W        W86353  28.083   6.587   1.718
14738W        W86354   3.843   6.180  10.713
14739W        W86355   9.769   2.192  12.361
14740W        W86356  11.091  13.993   3.206
14741W        W86357  32.372  25.021  12.399
14742W        W86358  16.343   8.066  13.591
14743W        W86359  16.722  42.590   1.682
14744W        W86360  28.421  13.053   2.735
14745W        W86361  40.112  11.489   5.084
14746W        W86362  43.906   7.249  14.859
14747W        W86363  18.765  31.398   3.153
14748W        W86364   4.396  19.684   0.593
14749W        W86365  29.828   1.217   1.047
14750W        W86366  28.445   6.792  10.715
14751W        W86367  29.875  20.929  12.613
14752W        W86368   8.781   9.101   0.350
14753W        W86369  30.575  19.669  11.983
14754W        W86370  30.356  13.545   4.580
14755W        W86371  31.510   5.134  11.637
14756W        W86372   3.761  29.914   2.209
14757W        W86373  23.666  37.249  13.808
14758W        W86374  26.652  13.248   1.308
14759W        W86375  33.144  21.628   4.228
14760W        W86376  20.332  39.577  12.576
14761W        W86377  43.229   0.415  11.136
14762W        W86378   1.950   5.417  14.368
14763W        W86379   5.852   3.515   0.060
14764W        W86380   1.033   9.882  12.097
14765W        W86381  35.605  16.672   4.606
14766W        W86382  23.289  16.517  14.909
14767W        W86383  34.379  32.351  12.813
14768W        W86384  16.041  37.503   0.296
14769W        W86385   1.308  14.373  14.435
14770W        W86386  24.312  19.989   0.118
14771W        W86387  12.182  43.849   3.718
14772W        W86388  13.664  36.553   1.861
14773W        W86389  28.715  41.888  11.197
14774W        W86390   9.280  11.609   0.764
14775W        W86391  30.619  24.734  13.399
14776W        W86392  31.605  19.784   4.207
14777W        W86393  43.824  15.266  11.618
14778W        W86394  14.546  42.496   2.310
14779W        W86395  15.573  38.061  11.524
14780W        W86396   7.210  22.126  13.749
14781W        W86397  28.024  23.563   1.167
14782W        W86398   6.408  37.755  14.008
14783W        W86399  35.799  21.188   2.295
14784W        W86400  12.133   2.554  10.536
14785W        W86401  42.473  10.599  14.279
14786W        W86402  24.013   8.426  14.416
14787W        W86403  13.801   8.096  14.769
14788W        W86404  41.019  34.787  13.388
14789W        W86405   9.387  43.278  14.338
14790W        W86406  42.961  36.357  14.934
14791W        W86407  24.079  29.855   3.710
14792W        W86408  26.773  34.229  13.113
14793W        W86409  18.297  20.779  13.871
14794W        W86410  25.136  27.753   0.827
14795W        W86411  44.741  16.069   4.005
14796W        W86412  39.864  20.060  13.891
14797W        W86413  43.569  40.798  12.834
14798W        W86414  28.151  32.185  13.405
14799W        W86415  40.675  23.307   1.293
14800W        W86416  29.470  37.064   3.622
14801W        W86417  33.145   7.954   2.345
14802W        W86418  18.503  44.343   2.786
14803W        W86419   0.205  16.712  10.752
14804W        W86420  22.574  38.880  13.065
14805W        W86421  21.214   1.326   3.216
14806W        W86422  43.958  38.534   3.231
14807W        W86423  13.989   5.839  14.420
14808W        W86424  36.831   6.317   4.003
14809W        W86425  36.133   4.374  12.942
14810W        W86426  23.009  12.799   1.874
14811W        W86427   3.785  15.594   0.708
14812W        W86428  26.571   5.633  11.503
14813W        W86429  12.865  20.092   1.544
14814W        W86430   3.276   9.456  10.720
14815W        W86431  44.520  30.373   0.024
14816W        W86432  26.978  19.473  11.687
14817W        W86433  25.706  35.764  12.182
14818W        W86434   8.612   4.176   1.658
14819W        W86435   1.492  22.116   5.125
14820W        W86436   6.939   1.852  13.861
14821W        W86437  14.356   3.016   5.110
14822W        W86438  43.613  18.702   4.091
14823W        W86439  29.385  30.776   1.274
14824W        W86440   3.710  11.366  11.396
14825W        W86441  36.879  37.165   1.906
14826W        W86442  25.283  35.559   3.701
14827W        W86443  28.704  18.525   0.838
14828W        W86444   5.191  22.624   4.197
14829W        W86445  18.348  44.829  11.597
14830W        W86446   0.403  31.161   1.606
14831W        W86447  30.645   9.766   0.827
14832W        W86448  26.615  26.717   1.958
14833W        W86449  30.611  40.293  11.604
14834W        W86450  24.576  16.070  14.006
14835W        W86451  37.267  19.069   0.433
14836W        W86452  35.904  30.085   3.179
14837W        W86453   6.250   2.782   1.845
14838W        W86454  25.757  32.842  12.572
14839W        W86455  18.662  42.279   0.443
14840W        W86456   9.201  25.491  12.008
14841W        W86457  35.878   7.413  13.891
14842W        W86458   7.400  44.257   1.182
14843W        W86459  39.938  26.124  13.285
14844W        W86460  15.203  10.293   1.757
14845W        W86461  41.914   1.855  12.131
14846W        W86462  13.910   1.131   0.244
14847W        W86463   1.749  26.874  13.315
14848W        W86464  44.938   0.385   1.601
14849W        W86465  11.145  42.539  13.344
14850W        W86466   8.416  10.672   3.255
14851W        W86467  24.570  38.486  14.331
14852W        W86468  37.404  29.990   0.537
14853W        W86469  36.361  13.686   3.318
14854W        W86470  30.979  10.019  10.567
14855W        W86471   7.647   9.745   1.637
14856W        W86472   5.374   3.656  13.040
14857W        W86473  17.179  29.192  10.718
14858W        W86474  11.902  41.443   2.842
14859W        W86475  39.106  20.547   4.374
14860W        W86476  32.388  25.941  12.659
14861W        W86477  11.773   6.926  10.346
14862W        W86478  11.353   9.614   3.692
14863W        W86479  24.669  33.850  13.308
14864W        W86480  21.370  20.243  11.620
14865W        W86481  30.802  21.532  10.794
14866W        W86482   6.207   1.487   1.359
14867W        W86483  36.587  25.709   1.278
14868W        W86484  35.896   9.856  10.865
14869W        W86485  33.546  31.471   2.170
14870W        W86486   1.745  27.051  13.841
14871W        W86487  26.091  40.634  13.994
14872W        W86488  35.341  17.299   1.315
14873W        W86489  40.887   7.505  14.573
14874W        W86490  17.992  20.692   1.382
14875W        W86491  19.313  29.032  12.614
14876W        W86492  24.508   0.352  11.139
14877W        W86493   5.679  43.359   3.046
14878W        W86494   9.298  20.484   4.604
14879W        W86495  22.488  19.399  12.245
14880W        W86496  16.093  31.891  14.817
14881W        W86497  28.999  33.548  11.108
14882W        W86498  36.111  40.883   3.114
14883W        W86499  29.638   2.997   4.223
14884W        W86500  32.173   3.957  14.238
14885W        W86501  20.751  16.494  11.329
14886W        W86502  15.645   8.691   0.523
14887W        W86503  11.390  36.136   0.319
14888W        W86504  18.020  19.765  11.533
14889W        W86505   4.526  29.293  14.368
14890W        W86506  21.630   3.079  13.995
14891W        W86507   2.080   9.870   3.025
14892W        W86508  25.869  29.374  12.621
14893W        W86509  37.966  23.501  12.203
14894W        W86510   0.246  25.484   2.006
14895W        W86511  37.466  15.825   4.253
14896W        W86512  20.206  13.178   0.346
14897W        W86513   3.139   9.137   1.285
14898W        W86514  35.548   2.037   1.461
14899W        W86515  18.596   9.841  14.476
14900W        W86516  39.557  12.943  13.385
14901W        W86517  38.070  21.330   3.035
14902W        W86518  14.706   3.995  12.832
14903W        W86519  36.755  17.434   4.425
14904W        W86520   4.661  34.104   4.514
14905W        W86521  36.582  30.883  14.015
14906W        W86522  20.680  21.342  13.867
14907W        W86523  12.551  21.112   1.658
14908W        W86524  12.269  29.420  11.986
14909W        W86525  24.523  43.389  12.072
14910W        W86526   5.625  37.821   0.494
14911W        W86527   0.102  26.598  12.181
14912W        W86528  41.425   0.335   4.389
14913W        W86529   0.342  43.243   2.181
14914W        W86530  38.918  12.683  14.149
14915W        W86531  25.037  11.282   3.592
14916W        W86532   5.397  22.509  13.260
14917W        W86533   2.663  22.457  11.166
14918W        W86534   8.102  16.311  14.730
14919W        W86535  34.853  21.511   2.426
14920W        W86536   4.911   5.436   2.360
14921W        W86537  36.081  42.856  13.693
14922W        W86538  20.075  18.783   3.155
14923W        W86539  21.565   8.147  12.553
14924W        W86540  26.046   6.020   1.965
14925W        W86541  15.901   6.392  14.926
14926W        W86542   6.819  28.596   4.558
14927W        W86543  11.022  16.818  14.456
14928W        W86544  32.231  35.964  13.562
14929W        W86545  35.974   0.946  11.959
14930W        W86546  23.466  40.712  13.909
14931W        W86547  20.174  44.912  13.844
14932W        W86548  22.355  13.003   4.098
14933W        W86549  41.374  21.022  12.933
14934W        W86550  12.866   3.709   0.224
14935W        W86551  19.789   5.699  12.534
14936W        W86552  13.846  27.116   3.308
14937W        W86553  18.506  25.570  14.419
14938W        W86554  34.384  33.400  13.363
14939W        W86555  14.072  42.888   3.807
14940W        W86556  38.834  12.940   1.270
14941W        W86557   5.757  11.857  13.587
14942W        W86558  34.433  43.752  13.380
14943W        W86559  32.447  24.606   3.089
14944W        W86560  41.102  21.651   4.263
14945W        W86561  15.261  11.616  12.414
14946W        W86562  26.777  23.000  12.328
14947W        W86563  31.120   1.759   4.613
14948W        W86564   0.086   7.430  13.930
14949W        W86565  12.275  27.511   2.429
14950W        W86566  28.381  17.661   0.268
14951W        W86567  33.130  24.709   3.678
14952W        W86568  30.055   7.226  13.512
14953W        W86569   8.280  38.181   4.507
14954W        W86570  40.988   8.378   2.571
14955W        W86571  31.601   9.585  13.880
14956W        W86572  22.605   8.334  11.200
14957W        W86573  24.767  13.735  11.450
14958W        W86574  36.921  15.470  12.514
14959W        W86575  33.035  20.466  13.530
14960W        W86576  34.091   9.837  11.333
14961W        W86577  29.455  35.429  13.526
14962W        W86578   4.778  39.965   0.545
14963W        W86579  17.540  10.379   3.724
14964W        W86580  43.337   9.214   3.158
14965W        W86581   9.582  26.068   0.093
14966W        W86582  11.733  17.632   2.999
14967W        W86583  33.831  18.331   2.302
14968W        W86584  32.606  38.318   1.781
14969W        W86585  42.049  17.825  12.187
14970W        W86586  41.475  15.984  14.474
14971W        W86587  37.330  10.184   3.753
14972W        W86588  25.072  13.244  12.528
14973W        W86589  11.767   6.181  11.389
14974W        W86590  25.601  25.493   2.139
14975W        W86591  12.142  25.376   0.970
14976W        W86592   8.236  30.741  14.395
14977W        W86593  39.061  14.299   0.897
14978W        W86594  41.876  43.603  13.257
14979W        W86595   6.502  23.643  10.438
14980W        W86596   8.906  39.001  11.081
14981W        W86597  26.218  28.998  14.867
14982W        W86598  12.555  16.687  14.360
14983W        W86599   5.711   1.405  10.669
14984W        W86600  15.911  35.958   0.126
14985W        W86601  17.571  14.186  12.051
14986W        W86602  36.552   3.509   1.028
14987W        W86603  42.000  12.967  14.411
14988W        W86604   9.078  11.946  10.700
14989W        W86605  34.908  26.898  10.752
14990W        W86606   9.135  13.748   4.567
14991W        W86607  11.125  20.932  13.626
14992W        W86608  25.983  12.277   3.167
14993W        W86609  26.932  11.882   1.282
14994W        W86610   6.632  36.608  14.202
14995W        W86611  25.005  30.385   3.332
14996W        W86612  43.784  16.080  13.075
14997W        W86613   8.728  23.795   3.730
14998W        W86614  24.677  43.079  14.955
14999W        W86615  31.282  39.424  12.081
15000W        W86616   3.055  30.360   4.240
15001W        W86617  15.164   8.305   1.742
15002W        W86618  27.695  25.779   1.670
15003W        W86619  31.463  40.581   3.236
15004W        W86620  31.090  27.870  12.907
15005W        W86621  31.550  30.177   4.470
15006W        W86622  14.579  36.602   2.215
15007W        W86623   2.366  39.486  13.436
15008W        W86624  32.874  16.169   3.773
15009W        W86625  33.450  42.914  12.554
15010W        W86626  38.186  16.091  13.440
15011W        W86627  34.715  32.387   4.800
15012W        W86628  36.628  16.963   1.677
15013W        W86629  14.594  26.867   2.653
15014W        W86630   2.260  24.536  11.837
15015W        W86631  27.987  35.880   0.396
15016W        W86632  34.926  43.545  12.462
15017W        W86633  15.645   8.796   2.390
15018W        W86634   5.353  20.587  13.111
15019W        W86635  21.075  29.657  14.511
15020W        W86636   2.997  21.745  11.541
15021W        W86637  30.093  34.342   1.730
15022W        W86638  34.800  40.446   4.156
15023W        W86639  22.557  30.153  13.818
15024W        W86640  12.285  23.772   4.172
15025W        W86641  29.653  31.865  12.496
15026W        W86642   2.182  34.015   4.560
15027W        W86643  17.055  11.979  13.131
15028W        W86644   8.809  35.833  11.006
15029W        W86645  31.571   7.430  11.139
15030W        W86646  31.199  17.384  14.587
15031W        W86647  17.816  23.187  12.417
15032W        W86648  33.804  24.524  14.080
15033W        W86649  32.664  21.098  14.835
15034W        W86650  25.889  16.490  13.904
15035W        W86651   0.905  28.482   1.668
15036W        W86652  27.503   6.162   1.668
15037W        W86653   2.676  23.270   3.222
15038W        W86654  22.043  28.538  11.588
15039W        W86655  37.932  41.649  13.400
15040W        W86656  27.831  21.701  11.523
15041W        W86657   5.936  16.940  13.056
15042W        W86658  13.824   1.658   4.908
15043W        W86659  12.925  24.657  14.973
15044W        W86660  11.438   4.240   2.740
15045W        W86661  40.882  44.188  14.598
15046W        W86662  10.892   6.052   1.290
15047W        W86663  13.571  39.209   2.863
15048W        W86664  24.260   8.766  11.637
15049W        W86665  12.894   9.402   0.039
15050W        W86666  39.501   7.129  10.699
15051W        W86667   1.365   0.443  12.952
15052W        W86668  28.463  11.839  14.507
15053W        W86669  41.451  43.961  12.152
15054W        W86670  25.191  26.513  10.909
15055W        W86671   4.023  32.037  14.944
15056W        W86672  30.365  12.251  10.747
15057W        W86673   9.759  38.743   1.729
15058W        W86674   3.495  43.551   1.617
15059W        W86675  36.554  31.052   1.387
15060W        W86676  40.037  24.676  14.389
15061W        W86677   4.431  12.791   2.485
15062W        W86678  27.620  30.333  14.117
15063W        W86679  31.767  25.682   4.292
15064W        W86680  38.096  35.127  11.155
15065W        W86681  22.181  22.531  12.885
15066W        W86682  35.358  31.402  14.842
15067W        W86683   6.413  14.667   4.660
15068W        W86684  28.884  15.009  13.784
15069W        W86685  29.033  17.364  11.436
15070W        W86686  34.626  27.350   3.428
15071W        W86687  38.038  26.104  14.365
15072W        W86688  44.727  30.979   4.167
15073W        W86689  24.247  30.825   0.989
15074W        W86690  27.596   6.737   0.121
15075W        W86691   3.696  29.932  13.087
15076W        W86692  38.772  20.301   1.904
15077W        W86693   3.905   9.621  14.328
15078W        W86694  26.989   7.290   1.226
15079W        W86695  11.602  23.768   1.268
15080W        W86696  35.361  23.926   3.621
15081W        W86697  12.758   1.308  11.110
15082W        W86698  33.066  15.964  12.429
15083W        W86699   5.619  21.246  13.834
15084W        W86700  10.623  38.954  12.244
15085W        W86701   3.076  44.481   0.640
15086W        W86702  30.141   0.815   0.951
15087W        W86703  18.111  40.838  13.648
15088W        W86704  36.887  35.156   0.832
15089W        W86705  28.770   6.956  13.030
15090W        W86706   6.958  29.927  13.415
15091W        W86707  13.818  44.419   0.968
15092W        W86708   8.378   9.226   2.590
15093W        W86709  13.358   6.328   5.176
15094W        W86710  10.488  25.045   3.266
15095W        W86711  25.641  16.764   0.750
15096W        W86712  44.036  24.710  13.932
15097W        W86713  10.061  20.389  11.040
15098W        W86714   5.252  35.034  11.603
15099W        W86715  20.526  32.360  11.066
15100W        W86716  26.595   1.217  14.569
15101W        W86717  13.562  11.116  12.467
15102W        W86718  14.167  13.272   4.935
15103W        W86719  39.324  42.316   1.018
15104W        W86720   2.270  21.584  13.985
15105W        W86721  33.926  22.065   3.839
15106W        W86722  31.595  32.375  11.589
15107W        W86723  29.505  38.954   0.838
15108W        W86724  17.361  27.980  12.581
15109W        W86725  36.095  34.956  12.247
15110W        W86726  32.253   7.014   0.956
15111W        W86727  24.637  31.016  13.046
15112W        W86728   9.225  37.254   3.039
15113W        W86729  23.168  31.136   3.030
15114W        W86730  39.628   0.414   4.391
15115W        W86731  34.967   6.988  14.037
15116W        W86732  27.498  41.838   0.228
15117W        W86733  42.425  24.642   0.664
15118W        W86734  35.166  14.783  13.427
15119W        W86735  24.104  14.593  10.367
15120W        W86736  10.607  40.769  12.845
15121W        W86737  15.923  38.475   1.854
15122W        W86738   7.820  33.502   0.017
15123W        W86739   2.318   5.893   4.330
15124W        W86740  41.935  26.512  10.249
15125W        W86741   6.615  16.909   0.951
15126W        W86742  43.689  33.503   2.688
15127W        W86743  31.551   8.253  10.670
15128W        W86744  31.152   5.939  13.452
15129W        W86745  10.385  31.161  11.934
15130W        W86746  27.972  13.871  10.919
15131W        W86747  23.555   9.662   0.055
15132W        W86748  39.351  21.446  12.489
15133W        W86749  16.721  38.300   4.580
15134W        W86750   2.056  34.460  12.165
15135W        W86751  38.737  15.033   2.270
15136W        W86752  14.344  19.732  13.502
15137W        W86753  33.120  19.992   1.865
15138W        W86754   7.820  19.537  12.476
15139W        W86755   9.097  13.789  13.556
15140W        W86756  33.832   5.653   1.913
15141W        W86757  19.575   4.449  14.334
15142W        W86758   2.022  30.525   3.292
15143W        W86759  24.217  17.782   3.745
15144W        W86760  22.456   2.698  14.581
15145W        W86761  11.281  25.881  10.967
15146W        W86762  10.885  14.749   0.840
15147W        W86763   2.913  27.119   3.376
15148W        W86764  30.845  40.488   1.674
15149W        W86765   0.408  32.127   4.633
15150W        W86766  42.456  18.399  14.054
15151W        W86767  16.617  16.095  13.889
15152W        W86768  44.923  36.549  10.220
15153W        W86769   3.178  12.059  13.062
15154W        W86770  39.737   8.796   0.366
15155W        W86771  31.205  14.691  12.567
15156W        W86772  39.806   1.922  13.968
15157W        W86773  12.819  20.363   2.399
15158W        W86774  40.454  35.353  14.959
15159W        W86775  15.622  13.617   0.833
15160W        W86776  28.379  32.502   2.571
15161W        W86777  19.720   5.876  13.519
15162W        W86778  42.866  31.201   1.752
15163W        W86779  13.178  27.654   2.687
15164W        W86780  31.377  17.516   2.292
15165W        W86781  40.018  43.826  10.694
15166W        W86782  29.734  28.022  11.966
15167W        W86783  34.151  37.786   1.261
15168W        W86784  35.213   9.854  14.037
15169W        W86785  38.526  14.379   4.796
15170W        W86786  25.921  21.196   2.729
15171W        W86787  35.679  37.864  11.886
15172W        W86788  40.372  12.219  12.905
15173W        W86789  34.860  37.706   0.759
15174W        W86790  22.234   1.365   0.986
15175W        W86791   1.006  21.112   3.123
15176W        W86792  32.311  12.300  14.406
15177W        W86793  15.769  40.271  10.243
15178W        W86794  16.225  16.268   1.922
15179W        W86795  32.625   1.525  12.520
15180W        W86796   7.163  27.108  14.339
15181W        W86797  24.230  27.686  14.751
15182W        W86798  34.582  44.921   5.030
15183W        W86799  17.150  42.367  13.754
15184W        W86800  30.223  10.805   1.431
15185W        W86801  11.307  34.354  13.381
15186W        W86802  24.225  34.113  11.964
15187W        W86803  35.417  31.425  12.843
15188W        W86804  19.458  29.187   4.357
15189W        W86805  18.641  31.080  11.679
15190W        W86806  18.366  25.106   2.851
15191W        W86807  33.351  44.371   1.846
15192W        W86808  29.104  31.867   2.201
15193W        W86809  34.058  21.157  14.853
15194W        W86810   0.903   9.584  12.503
15195W        W86811  11.147   2.437   1.590
15196W        W86812  20.439  20.181   2.281
15197W        W86813   3.883  19.966  14.799
15198W        W86814  17.121   2.420  13.939
15199W        W86815  10.333  43.871   3.668
15200W        W86816  39.472   0.210  12.935
15201W        W86817  29.141   9.955  12.978
15202W        W86818   1.453   3.088   2.891
15203W        W86819  32.422   4.384  10.700
15204W        W86820  31.033  10.419  12.086
15205W        W86821  25.559  35.910  11.179
15206W        W86822  18.429  10.651  10.617
15207W        W86823   6.855  19.674   1.918
15208W        W86824  19.178  28.377   1.759
15209W        W86825  25.616   5.567   2.863
15210W        W86826  37.143  40.383  11.148
15211W        W86827  10.565  40.833   0.665
15212W        W86828  16.239  33.895  13.497
15213W        W86829  37.678  13.820   2.127
15214W        W86830  44.978  17.348  10.582
15215W        W86831  22.728  36.242  12.581
15216W        W86832  20.974  24.489   3.708
15217W        W86833   8.788  35.391   2.477
15218W        W86834  31.862  24.123   3.159
15219W        W86835  26.016  37.421  13.946
15220W        W86836  18.159  42.655  13.005
15221W        W86837   3.347  43.384   3.717
15222W        W86838  39.519   9.974   4.064
15223W        W86839   9.021   6.234   0.091
15224W        W86840   4.259  29.667   2.141
15225W        W86841  13.040  31.054  13.094
15226W        W86842   9.877   1.657  14.488
15227W        W86843  39.747   3.475   0.408
15228W        W86844  20.600  43.787  10.239
15229W        W86845  40.381  44.503   3.608
15230W        W86846   7.740  29.647   3.228
15231W        W86847  23.697  24.148  12.805
15232W        W86848   1.940  15.238   2.595
15233W        W86849  40.012   4.158  12.493
15234W        W86850   6.741  22.573   2.396
15235W        W86851  10.712   6.025  12.796
15236W        W86852  28.999  10.293   1.686
15237W        W86853  19.093  44.220  13.417
15238W        W86854  27.210  18.204  14.878
15239W        W86855  13.152  38.887   4.733
15240W        W86856  14.637  40.298  13.549
15241W        W86857  14.161  22.925  14.423
15242W        W86858  44.341   4.475  13.673
15243W        W86859  14.832   2.734   2.446
15244W        W86860  24.443   4.263  12.078
15245W        W86861  34.635  19.828   3.665
15246W        W86862  32.524  39.888  14.649
15247W        W86863  35.774  16.787   3.661
15248W        W86864  21.491  43.495  11.371
15249W        W86865  28.068  35.811  10.449
15250W        W86866  29.674   1.187  14.820
15251W        W86867  31.809  22.115   0.361
15252W        W86868  41.352  21.973   2.784
15253W        W86869  34.856  10.254  13.919
15254W        W86870   8.092  11.744   0.864
15255W        W86871   7.838  31.035  11.542
15256W        W86872  23.165   1.847  11.612
15257W        W86873  22.574  38.704   1.777
15258W        W86874  30.381  36.999   0.744
15259W        W86875  11.186  28.232  11.434
15260W        W86876  31.208  16.848  14.607
15261W        W86877  26.450  26.928   3.200
15262W        W86878  23.564  40.392   3.683
15263W        W86879  18.578   0.401  14.826
15264W        W86880  44.571  35.011   2.522
15265W        W86881  35.607  15.717   4.595
15266W        W86882  20.266   5.095   3.249
15267W        W86883  22.312  11.800   4.813
15268W        W86884  38.929  31.725   3.337
15269W        W86885  25.999  15.870   3.905
15270W        W86886   2.968   9.912   4.603
15271W        W86887  15.696  17.349   4.995
15272W        W86888  12.797  12.021   1.364
15273W        W86889   0.026  28.026  14.309
15274W        W86890   2.990  20.948  14.392
15275W        W86891  40.406  11.704  14.180
15276W        W86892  17.328  13.913   3.682
15277W        W86893  37.065   0.297  13.916
15278W        W86894  23.232  22.936  14.893
15279W        W86895  27.638   0.846   0.135
15280W        W86896  42.737   9.814  11.224
15281W        W86897  19.797  40.931   1.134
15282W        W86898  33.518   8.437  14.298
15283W        W86899  25.566  28.733   2.328
15284W        W86900  41.914  15.557   1.249
15285W        W86901   6.305   0.994  13.069
15286W        W86902  37.519  19.077   1.952
15287W        W86903  26.989   5.242   2.901
15288W        W86904  12.363  37.157  13.615
15289W        W86905  16.752  37.332  11.499
15290W        W86906   2.413  18.479   0.270
15291W        W86907  28.405  26.381   1.400
15292W        W86908  12.097  31.024   2.839
15293W        W86909  31.040  21.530   3.756
15294W        W86910  13.958  39.368  14.734
15295W        W86911  33.503   0.872  13.022
15296W        W86912  44.733  38.041   1.240
15297W        W86913  15.026  41.961  11.395
15298W        W86914  30.920  34.669  14.983
15299W        W86915  40.572  41.603   3.684
15300W        W86916  14.528  14.056  13.271
15301W        W86917   4.866  30.334   0.190
15302W        W86918   4.786  23.983  11.435
15303W        W86919  17.112  20.676  14.756
15304W        W86920  22.150  14.681  10.652
15305W        W86921  20.006  20.835   3.791
15306W        W86922   4.917  25.056  13.152
15307W        W86923  13.654  19.297   4.087
15308W        W86924  13.826  19.689  13.493
15309W        W86925   6.072  36.478   0.394
15310W        W86926   4.855  29.181   3.134
15311W        W86927  10.413   3.434  13.891
15312W        W86928  32.904  10.685   2.339
15313W        W86929  40.322  39.132   2.191
15314W        W86930  41.859   7.457   0.152
15315W        W86931   3.228  36.039   4.808
15316W        W86932  41.496  29.949  11.878
15317W        W86933  38.063  40.048   1.369
15318W        W86934  17.683  25.193   2.139
15319W        W86935  12.634  32.368  11.914
15320W        W86936  38.834  15.322   2.706
15321W        W86937  37.710   9.872   1.738
15322W        W86938  35.129  44.944   5.076
15323W        W86939  42.937  14.783  10.769
15324W        W86940  37.598  29.106   0.407
15325W        W86941   1.534   9.411  13.004
15326W        W86942  39.821   8.972   4.851
15327W        W86943  35.014  36.759  11.622
15328W        W86944  10.202   9.857  11.163
15329W        W86945  27.650   8.021   0.300
15330W        W86946  23.043  14.835   4.212
15331W        W86947  13.097  10.376   2.700
15332W        W86948  39.775  40.782   1.957
15333W        W86949  31.387  13.670  14.900
15334W        W86950  35.334  27.604  12.959
15335W        W86951  36.093  42.230  10.758
15336W        W86952  43.415  16.066  13.457
15337W        W86953  18.324   0.285  10.965
15338W        W86954   2.514  36.527  13.995
15339W        W86955  28.163  26.335  11.022
15340W        W86956  20.209  40.547  11.071
15341W        W86957  22.983   4.759   3.816
15342W        W86958  10.731  26.975   4.149
15343W        W86959  25.607   4.330   2.190
15344W        W86960  41.494  39.878  10.644
15345W        W86961   2.259  15.187  11.642
15346W        W86962  26.293  17.670   2.455
15347W        W86963  13.154  25.673   3.692
15348W        W86964   5.317  43.057  13.591
15349W        W86965  43.832  36.089  12.538
15350W        W86966   2.230  42.943  12.769
15351W        W86967  44.494  41.219   0.853
15352W        W86968   2.707   3.838   4.509
15353W        W86969  32.148  35.103  13.684
15354W        W86970   0.779   5.147  10.656
15355W        W86971  11.201  25.964   3.714
15356W        W86972  42.550  24.960  14.881
15357W        W86973  35.382  37.423   0.865
15358W        W86974  35.667  37.996   2.181
15359W        W86975   8.410   2.357   3.258
15360W        W86976  34.583  18.021  12.791
15361W        W86977  25.511  21.056  12.931
15362W        W86978  10.235  15.258   4.552
15363W        W86979  20.785  17.211  14.278
15364W        W86980  38.414   9.244   3.226
15365W        W86981  19.545   4.979  14.321
15366W        W86982   8.810  20.636   3.629
15367W        W86983  21.978  34.016  11.613
15368W        W86984  34.153  42.593  11.333
15369W        W86985  31.068   6.964  11.570
15370W        W86986  38.825  44.788  14.213
15371W        W86987  35.604  39.827  14.383
15372W        W86988  24.193   3.357  10.940
15373W        W86989  23.265  27.526   0.005
15374W        W86990  38.011  23.055  12.989
15375W        W86991  44.031   7.018  11.573
15376W        W86992  14.432  32.491   2.284
15377W        W86993  32.694  27.499  12.779
15378W        W86994  38.187  14.095   0.782
15379W        W86995  39.793  14.627  11.386
15380W        W86996  40.055  11.846   3.385
15381W        W86997  29.179  41.830   4.557
15382W        W86998  36.072   5.248  14.418
15383W        W86999  43.238   2.347   3.596
15384W        W87000  32.561   5.461  12.622
15385W        W87001  11.376  10.441  13.496
15386W        W87002  10.471  43.758  14.068
15387W        W87003  39.812  14.222   2.877
15388W        W87004  26.001   5.403   1.655
15389W        W87005  24.378  13.052   1.813
15390W        W87006  22.137  32.955   1.751
15391W        W87007  22.786  32.998   1.160
15392W        W87008  26.835  33.825  12.820
15393W        W87009  22.681  27.628   2.804
15394W        W87010  44.032  31.965   0.231
15395W        W87011  43.231  25.548  13.310
15396W        W87012  30.715  14.081  14.469
15397W        W87013  36.023  41.796  13.041
15398W        W87014  44.863  24.601   3.629
15399W        W87015  10.549  29.567   2.789
15400W        W87016  20.694   0.203   3.251
15401W        W87017  16.120   8.094  14.118
15402W        W87018  23.283  20.491   2.344
15403W        W87019  34.089  19.570   0.885
15404W        W87020  44.389  11.281   1.684
15405W        W87021  35.135  26.147   2.350
15406W        W87022  17.345  44.951  14.878
15407W        W87023  32.108  38.778  14.535
15408W        W87024  24.128  24.758   4.173
15409W        W87025   2.209  21.991   3.802
15410W        W87026  12.407   5.433  10.977
15411W        W87027  35.247  26.630   4.141
15412W        W87028   3.819  33.042  10.640
15413W        W87029  30.377  32.673  12.027
15414W        W87030  41.976  13.462   2.028
15415W        W87031  14.623  20.808   1.137
15416W        W87032   7.791  24.072  12.365
15417W        W87033  15.240  17.366   2.347
15418W        W87034  22.176  12.870  12.897
15419W        W87035  38.912  14.330  13.619
15420W        W87036   4.215  17.019   1.820
15421W        W87037  24.277   8.730   1.849
15422W        W87038  25.560  19.786   0.727
15423W        W87039  18.074  29.006  11.151
15424W        W87040  39.103  11.218   4.878
15425W        W87041  27.321  23.242  10.532
15426W        W87042  21.695  22.574  13.466
15427W        W87043  40.465  21.376   4.200
15428W        W87044  39.928   3.498  14.107
15429W        W87045   0.436   1.640   4.697
15430W        W87046  34.012  35.030   4.345
15431W        W87047  40.328  28.107  13.881
15432W        W87048  20.990  13.431  10.823
15433W        W87049  35.505  21.156   2.721
15434W        W87050  37.887  36.509   3.344
15435W        W87051  38.136  18.378   0.305
15436W        W87052  24.652  37.763   1.232
15437W        W87053   9.372  44.727   4.090
15438W        W87054  15.519   5.766  11.581
15439W        W87055  35.389  17.073   4.351
15440W        W87056  18.209   3.758  14.370
15441W        W87057  10.993  33.202  11.231
15442W        W87058   1.485   3.443  13.571
15443W        W87059  20.801  32.712   4.945
15444W        W87060  25.846  36.277  12.399
15445W        W87061  10.298  20.182  10.613
15446W        W87062  20.322  43.435  12.535
15447W        W87063  42.094  24.910   1.010
15448W        W87064  10.123  14.939  12.453
15449W        W87065   5.293  42.549  13.404
15450W        W87066   3.942  37.470  10.839
15451W        W87067  40.350  31.199  11.577
15452W        W87068   1.408  44.982   1.149
15453W        W87069  23.381   3.914   2.945
15454W        W87070   8.272  42.593   3.946
15455W        W87071  24.925   0.513  10.267
15456W        W87072  21.480  25.273  12.382
15457W        W87073   2.338  30.277  12.525
15458W        W87074  11.893   9.516   2.889
15459W        W87075  23.696  36.055   0.740
15460W        W87076   1.561  35.920   3.821
15461W        W87077  32.431  21.174   4.259
15462W        W87078  10.901  41.546   2.870
15463W        W87079  24.573  27.489  10.562
15464W        W87080  35.685  19.058   1.673
15465W        W87081   2.666  24.616  13.947
15466W        W87082  15.817   8.365   3.763
15467W        W87083  41.339  39.778   2.637
15468W        W87084  39.796  38.575   0.080
15469W        W87085  18.250  32.585  11.524
15470W        W87086   3.475   3.269  12.424
15471W        W87087  37.581  28.455  11.949
15472W        W87088  11.113  23.411   3.641
15473W        W87089   4.439  38.414   0.291
15474W        W87090  28.062  21.313   1.361
15475W        W87091  42.344  30.031   1.402
15476W        W87092  31.181  42.753   1.467
15477W        W87093  23.132  38.240   2.273
15478W        W87094  44.489  18.780   2.695
15479W        W87095  43.342  26.822  14.092
15480W        W87096  20.736  34.097  13.861
15481W        W87097   2.744  35.888  14.638
15482W        W87098  43.624  21.520  13.851
15483W        W87099  29.080  18.251  13.114
15484W        W87100   2.494  40.502  12.963
15485W        W87101   6.883  44.293   1.078
15486W        W87102  21.735  32.884  11.976
15487W        W87103   2.495  44.848  11.522
15488W        W87104  29.723  26.204   4.341
15489W        W87105  31.344   2.343  11.534
15490W        W87106  39.834  39.439  12.492
15491W        W87107   6.119   3.328  14.181
15492W        W87108  14.835  22.262   0.858
15493W        W87109  32.070  37.906  12.504
15494W        W87110   7.132   1.346  14.802
15495W        W87111  38.560  12.794   0.416
15496W        W87112  29.905  28.067   4.954
15497W        W87113  24.962  21.590   0.748
15498W        W87114   6.118  44.010   2.741
15499W        W87115  33.829  38.075   4.946
15500W        W87116  29.572  38.282  13.040
15501W        W87117  34.905  22.653   3.812
15502W        W87118  44.957  11.405   4.289
15503W        W87119  31.238  42.474   0.817
15504W        W87120   8.765  15.678   2.279
15505W        W87121  19.217  34.899   0.293
15506W        W87122   0.667   4.837   4.994
15507W        W87123  26.604  30.962   4.229
15508W        W87124  44.424  13.942  12.935
15509W        W87125  20.192   7.579   3.345
15510W        W87126  14.768  23.806   0.675
15511W        W87127   2.951  14.309  12.394
15512W        W87128  35.857  14.715   4.718
15513W        W87129  21.561  19.395  14.495
15514W        W87130  32.540  44.871   4.330
15515W        W87131  34.426   5.526   0.040
15516W        W87132  43.446  18.929   0.483
15517W        W87133  30.942  16.604   2.345
15518W        W87134   9.771   6.385   2.174
15519W        W87135   9.570  36.938   1.743
15520W        W87136  14.407  25.303   9.897
15521W        W87137   6.400   9.934   1.226
15522W        W87138  39.106  36.127   2.423
15523W        W87139  33.362  32.499  12.552
15524W        W87140   2.677  33.057   0.366
15525W        W87141  16.360  44.947  12.498
15526W        W87142  36.079  40.816   2.589
15527W        W87143  21.551  41.856   4.132
15528W        W87144  42.494  31.517  14.393
15529W        W87145  18.658  12.826  14.811
15530W        W87146  11.871  38.593   4.750
15531W        W87147   8.841  26.695   2.429
15532W        W87148  32.133   8.728  11.160
15533W        W87149  31.349  35.977   1.776
15534W        W87150  44.787   3.422  12.560
15535W        W87151  25.955  32.396   1.605
15536W        W87152  34.964   1.190   0.341
15537W        W87153  32.454  27.913  11.084
15538W        W87154  32.879  19.303   2.935
15539W        W87155  44.861  35.369   3.081
15540W        W87156  43.482  17.520   4.609
15541W        W87157  17.711  14.241   3.511
15542W        W87158  39.890  43.486  11.198
15543W        W87159  43.791  29.515  12.117
15544W        W87160  24.867  34.949   2.436
15545W        W87161  26.223  31.352   3.498
15546W        W87162   4.217  44.016  11.035
15547W        W87163  17.683  11.111   2.644
15548W        W87164  39.521  34.444  10.552
15549W        W87165  38.396  44.308   1.308
15550W        W87166  21.263  34.936   3.200
15551W        W87167  39.055  16.415   3.267
15552W        W87168  40.954  11.619  12.630
15553W        W87169  14.218   4.904   1.380
15554W        W87170   4.773  42.666   3.753
15555W        W87171  25.707  35.318   2.746
15556W        W87172  20.090   4.365  14.361
15557W        W87173  43.531   9.202   1.288
15558W        W87174  24.516  37.364  12.508
15559W        W87175  12.833  38.373   1.499
15560W        W87176  20.211  26.022   0.556
15561W        W87177  28.106  29.421  11.530
15562W        W87178  26.025  44.303  14.795
15563W        W87179  27.184   0.999  11.984
15564W        W87180  41.902  38.397   0.786
15565W        W87181  32.278   8.303   3.997
15566W        W87182  38.940  24.836   4.688
15567W        W87183  38.800  18.802   4.198
15568W        W87184  31.261  12.829  14.022
15569W        W87185  40.086  27.998  13.109
15570W        W87186  34.399  28.450   3.235
15571W        W87187   4.483  36.602  11.293
15572W        W87188  13.333  40.027   0.895
15573W        W87189  44.395  19.298  14.713
15574W        W87190  19.357  39.351   1.918
15575W        W87191  39.819  36.800   3.223
15576W        W87192   9.341  41.787   0.145
15577W        W87193  10.233   5.059  11.090
15578W        W87194  24.180  31.113   4.076
15579W        W87195  11.928  35.441   0.794
15580W        W87196   5.211   6.732   4.753
15581W        W87197  10.202  28.488  11.586
15582W        W87198   1.015  17.113   5.086
15583W        W87199  37.923  41.764   0.286
15584W        W87200  43.706  22.134   4.727
15585W        W87201  26.631  30.223  14.881
15586W        W87202  25.665  43.776  11.515
15587W        W87203   0.816   9.684  10.665
15588W        W87204   9.307  32.056   2.735
15589W        W87205   3.744  36.027  11.604
15590W        W87206  20.945   2.388  11.230
15591W        W87207  16.155  14.749   4.635
15592W        W87208   3.749  42.606   4.702
15593W        W87209   3.757  30.427  11.866
15594W        W87210   3.018  15.297   1.702
15595W        W87211  28.557  33.846   1.377
15596W        W87212   0.194   8.781   1.394
15597W        W87213  31.912  17.264  14.028
15598W        W87214   6.266  38.971   1.816
15599W        W87215  18.131  31.599  13.028
15600W        W87216  15.307  25.104  12.880
15601W        W87217   9.761  17.327  14.354
15602W        W87218  11.700   4.012   0.500
15603W        W87219  34.934   0.256   2.832
15604W        W87220  29.023   5.722  13.781
15605W        W87221  13.762   6.164   4.893
15606W        W87222  16.611  39.851  10.733
15607W        W87223  40.603  31.078   4.607
15608W        W87224  25.197   0.539  10.702
15609W        W87225  38.528  30.220   1.361
15610W        W87226  15.008  10.828   2.452
15611W        W87227   3.218  26.743  14.568
15612W        W87228   6.941  44.731  12.051
15613W        W87229  32.196  11.750  11.259
15614W        W87230  22.819   5.663   3.249
15615W        W87231  10.571  23.984  14.991
15616W        W87232  17.861   2.240  13.422
15617W        W87233  41.735  43.971  14.761
15618W        W87234  22.317  25.510  12.454
15619W        W87235  21.854  32.466  14.048
15620W        W87236  15.210  40.775  13.008
15621W        W87237   0.948  29.413  12.776
15622W        W87238  27.332   7.108  13.879
15623W        W87239  16.842   0.375  13.422
15624W        W87240  31.980   3.818   0.813
15625W        W87241  29.376   3.221  12.511
15626W        W87242  31.652   2.901  10.571
15627W        W87243  23.150  20.989  13.541
15628W        W87244  13.093  28.130  12.533
15629W        W87245   5.968  32.593  11.506
15630W        W87246   5.902  28.864   0.863
15631W        W87247  31.630  11.296   0.786
15632W        W87248  33.971  22.757   4.058
15633W        W87249   7.135  33.520  13.068
15634W        W87250  10.269  31.111   1.245
15635W        W87251  10.368  22.443  13.922
15636W        W87252  43.777  20.210   0.705
15637W        W87253  42.809   7.429  12.547
15638W        W87254  25.660   4.278  13.312
15639W        W87255  19.352   0.529  11.028
15640W        W87256  20.973  27.127   0.917
15641W        W87257   8.901   6.306   1.348
15642W        W87258   9.510  36.513   1.291
15643W        W87259   5.601  12.289   2.212
15644W        W87260  38.563  39.408   1.588
15645W        W87261  15.564   3.270  12.477
15646W        W87262  31.982  37.150  10.581
15647W        W87263  21.303  43.102   1.169
15648W        W87264  34.461  23.343   3.742
15649W        W87265  41.529   4.036  10.929
15650W        W87266   7.884  24.065  14.811
15651W        W87267  40.673   6.744   2.268
15652W        W87268  20.123   5.669  13.770
15653W        W87269  32.846   5.371   2.318
15654W        W87270  22.491  44.348   2.255
15655W        W87271  34.875  29.181   1.034
15656W        W87272   4.956  17.778   2.669
15657W        W87273  42.798  42.435  12.792
15658W        W87274  29.506  18.129   0.479
15659W        W87275  11.804   1.755   2.323
15660W        W87276  27.999   9.572   1.394
15661W        W87277   8.859  20.307  14.869
15662W        W87278  24.783   3.370  10.718
15663W        W87279   2.790  28.916   2.230
15664W        W87280  29.271   1.820  10.737
15665W        W87281  32.953  43.856   4.427
15666W        W87282  15.705  32.518   4.468
15667W        W87283  11.550  26.999  13.318
15668W        W87284  23.876  10.137  14.706
15669W        W87285  30.912   0.155  11.653
15670W        W87286  22.172  42.772   0.460
15671W        W87287  38.613  22.583  11.425
15672W        W87288   1.528  36.977   2.091
15673W        W87289  28.231   4.440   0.223
15674W        W87290  26.811  33.516  12.403
15675W        W87291  18.600  35.321   2.274
15676W        W87292   3.403  37.560   0.916
15677W        W87293  37.405   2.369  10.666
15678W        W87294  30.730  33.275  10.197
15679W        W87295  22.433  13.713   1.256
15680W        W87296  15.591   1.522  14.201
15681W        W87297  34.360  38.538  13.074
15682W        W87298   9.663  36.033   2.380
15683W        W87299   1.811  25.228  14.837
15684W        W87300   1.326  41.827   2.635
15685W        W87301  22.989   7.721   1.499
15686W        W87302  19.733  11.864  14.143
15687W        W87303  35.160  41.791   2.833
15688W        W87304  24.849  25.150   1.742
15689W        W87305  31.552  24.507   0.657
15690W        W87306   4.301  26.490   0.901
15691W        W87307  21.927  14.210   1.869
15692W        W87308  40.851  35.006  10.669
15693W        W87309  36.203  10.439   1.483
15694W        W87310  21.925  23.928   9.980
15695W        W87311  15.070  14.357   3.682
15696W        W87312  23.989   4.056  10.814
15697W        W87313  38.134  22.165   3.181
15698W        W87314   9.386  41.538   4.989
15699W        W87315   8.457  41.739   5.010
15700W        W87316  25.541  32.679   1.837
15701W        W87317  14.391  10.495   1.412
15702W        W87318  35.959  33.904   3.831
15703W        W87319  18.255  17.033   3.550
15704W        W87320  20.789  35.061   0.392
15705W        W87321  21.130   1.569   2.789
15706W        W87322  37.248  37.628  11.777
15707W        W87323  13.786  21.114  11.492
15708W        W87324   2.869  17.672   4.605
15709W        W87325  27.168  44.584  13.410
15710W        W87326  16.053  31.976  10.332
15711W        W87327   4.942  18.069  14.942
15712W        W87328  30.871  33.494   3.242
15713W        W87329  15.370  26.996  13.808
15714W        W87330   7.109  13.789   1.322
15715W        W87331  36.600  38.330   3.358
15716W        W87332   3.604  11.863   3.331
15717W        W87333  18.245  20.758   3.638
15718W        W87334  19.537  33.577   4.020
15719W        W87335   3.365  39.078   0.968
15720W        W87336  44.392  41.516  11.148
15721W        W87337   4.400  36.781   3.643
15722W        W87338   9.322  38.548   2.181
15723W        W87339  12.373  36.001   4.898
15724W        W87340   2.487  15.194  12.477
15725W        W87341  34.510  30.140   0.274
15726W        W87342   8.893  14.686   3.122
15727W        W87343   0.041  38.621  12.999
15728W        W87344  13.750  20.086   1.259
15729W        W87345  26.153  37.279  13.456
15730W        W87346  29.981  26.553  10.499
15731W        W87347  22.990  43.274  10.978
15732W        W87348  25.798  14.795   4.196
15733W        W87349  12.709   7.901   2.995
15734W        W87350  39.858  42.292  12.454
15735W        W87351   7.318  39.504   4.222
15736W        W87352   7.892  29.666   2.745
15737W        W87353  36.478   5.130  11.013
15738W        W87354  30.314  27.618   4.610
15739W        W87355  38.416  44.443  11.634
15740W        W87356   3.757  40.604  13.016
15741W        W87357  24.808  28.132  14.308
15742W        W87358   3.095  38.357   4.630
15743W        W87359  12.791  17.712  13.501
15744W        W87360   8.420  35.547  11.523
15745W        W87361  11.758  21.839  10.434
15746W        W87362  36.550  17.162  10.323
15747W        W87363  41.395  21.131   2.490
15748W        W87364  18.811  35.439  10.871
15749W        W87365  27.912  26.458  10.593
15750W        W87366  29.014  38.238   0.885
15751W        W87367  27.417  32.885  10.580
15752W        W87368   5.800  44.068  14.783
15753W        W87369   7.252  14.794  12.112
15754W        W87370  36.389  20.784   1.249
15755W        W87371  20.371  35.421  12.071
15756W        W87372  23.819  14.352  13.989
15757W        W87373  22.186  26.978  13.413
15758W        W87374  25.832  22.822   3.704
15759W        W87375   7.630  38.794   2.605
15760W        W87376  12.294  15.151   2.881
15761W        W87377   3.821  42.854   1.006
15762W        W87378  44.899  26.211   3.637
15763W        W87379   4.897  27.369  10.942
15764W        W87380   8.591   8.463   0.783
15765W        W87381  35.968  33.190  14.251
15766W        W87382  41.518  15.041   3.090
15767W        W87383  18.342  24.510  10.934
15768W        W87384  22.614  38.566   3.168
15769W        W87385  38.970  13.105   3.898
15770W        W87386  36.992  28.302  14.339
15771W        W87387  31.992  21.202   2.144
15772W        W87388  20.585   4.506   0.947
15773W        W87389  12.662  25.239  12.514
15774W        W87390  42.088  16.263   0.273
15775W        W87391  12.786  41.449   4.659
15776W        W87392  28.135  22.830  14.770
15777W        W87393  16.626   1.864   3.119
15778W        W87394  21.181  29.883  14.036
15779W        W87395   9.640  34.808   1.780
15780W        W87396   6.146  43.746   2.302
15781W        W87397  10.777  17.195  13.391
15782W        W87398  14.232   8.897   1.630
15783W        W87399  27.839   8.250   1.753
15784W        W87400  28.224  29.495  13.013
15785W        W87401  10.497   5.458  13.726
15786W        W87402  38.002   6.394  11.157
15787W        W87403  24.355   5.356  11.522
15788W        W87404  19.757  17.273  12.061
15789W        W87405  36.171  23.619   4.380
15790W        W87406  12.230  24.968  12.473
15791W        W87407   4.907  44.014   3.257
15792W        W87408  42.848  40.944  14.987
15793W        W87409  31.152  37.834  14.379
15794W        W87410  32.958  17.746  11.984
15795W        W87411  44.044   6.687   0.223
15796W        W87412   6.820   3.895   3.329
15797W        W87413  20.528   7.082   1.939
15798W        W87414  42.974   4.190   2.067
15799W        W87415  35.329  32.608   3.419
15800W        W87416   9.673  14.653   0.566
15801W        W87417   2.750  31.561  13.681
15802W        W87418   3.208  21.053   2.968
15803W        W87419  12.392  11.486  12.070
15804W        W87420   5.954  27.270  12.185
15805W        W87421  37.002  17.902   1.829
15806W        W87422  44.671  30.371  13.861
15807W        W87423   9.806  44.207  12.540
15808W        W87424   1.940  32.822  12.555
15809W        W87425   4.485  26.127   4.635
15810W        W87426  29.460  26.680  11.184
15811W        W87427  35.592  16.289  12.851
15812W        W87428  29.109  41.324   1.582
15813W        W87429   1.035   1.318  11.550
15814W        W87430  17.542   0.909   3.268
15815W        W87431   8.458  29.728   3.694
15816W        W87432  38.643  30.434  12.043
15817W        W87433  43.751  41.844   2.232
15818W        W87434  10.609  12.078  13.849
15819W        W87435  28.525  41.405  14.014
15820W        W87436  19.751  20.987  13.859
15821W        W87437  39.233  13.704   1.758
15822W        W87438  43.515  32.662  10.409
15823W        W87439   5.407  21.717   1.903
15824W        W87440  17.507   0.976   4.676
15825W        W87441   7.506  41.785  12.869
15826W        W87442  11.515  17.179   2.904
15827W        W87443  34.793  17.876   4.217
15828W        W87444  37.849  44.809  11.597
15829W        W87445  30.088  22.022   3.744
15830W        W87446  15.148  40.560   0.250
15831W        W87447  12.905  11.678  12.072
15832W        W87448  35.565  30.642  12.176
15833W        W87449  42.354  20.391  11.551
15834W        W87450   8.223  12.409  12.855
15835W        W87451  37.058  39.473  12.052
15836W        W87452  21.413   6.887  14.038
15837W        W87453  38.234  42.410   3.127
15838W        W87454  22.143   2.296  10.659
15839W        W87455  32.857   0.713   2.576
15840W        W87456  29.979  38.994  14.127
15841W        W87457  24.690   6.208  14.556
15842W        W87458   8.079  11.650  13.834
15843W        W87459  15.587  12.189   1.962
15844W        W87460  35.913  30.156   0.648
15845W        W87461  44.790  31.559  14.968
15846W        W87462  19.265  42.590  11.010
15847W        W87463  39.941  13.580   3.686
15848W        W87464  23.199  26.451   3.702
15849W        W87465  27.875  19.758  13.768
15850W        W87466  35.772   8.330  12.007
15851W        W87467  40.051  32.394  11.913
15852W        W87468  35.033  28.646  12.615
15853W        W87469  10.655  29.925  11.875
15854W        W87470  16.718   4.511   1.479
15855W        W87471  28.241  12.649   3.647
15856W        W87472   5.400  14.368   5.143
15857W        W87473  39.341  43.878   4.852
15858W        W87474   2.886  29.946  10.738
15859W        W87475  19.620  23.224  13.213
15860W        W87476   5.296  18.691  14.202
15861W        W87477  39.656  23.820  11.927
15862W        W87478  39.974  18.777   3.674
15863W        W87479  25.807   5.251  12.056
15864W        W87480   6.426   7.298   3.357
15865W        W87481   7.142  44.927   3.740
15866W        W87482   5.652  20.626   3.142
15867W        W87483  29.013  11.701  13.386
15868W        W87484  23.079  12.634   4.352
15869W        W87485   7.702   5.176  12.456
15870W        W87486  17.215  27.875  12.079
15871W        W87487  38.868  37.051  14.010
15872W        W87488  32.118  11.428   0.934
15873W        W87489  14.295  21.978  14.463
15874W        W87490  29.573  41.962   0.748
15875W        W87491  23.607  25.509   1.294
15876W        W87492  39.030  42.900  11.524
15877W        W87493  41.707   8.631   4.956
15878W        W87494  44.330  36.609   0.012
15879W        W87495   5.520  15.352   4.050
15880W        W87496  12.812  13.249   2.795
15881W        W87497   9.852  41.439  10.527
15882W        W87498  42.949   1.334   1.665
15883W        W87499  38.582  40.478   4.540
15884W        W87500   5.965  38.819   1.423
15885W        W87501  14.644   7.735   4.538
15886W        W87502  36.566  17.522   2.835
15887W        W87503   5.632  23.891   2.306
15888W        W87504   9.284  29.117   4.513
15889W        W87505  23.306  26.773  12.419
15890W        W87506  23.130  31.400  10.466
15891W        W87507   4.175  44.681   0.087
15892W        W87508  27.589  13.925  14.477
15893W        W87509  23.037  44.539   1.176
15894W        W87510   4.135  15.177  12.432
15895W        W87511  26.107   6.372  14.035
15896W        W87512  11.690  23.548  11.084
15897W        W87513  19.477  25.381  12.382
15898W        W87514   1.030  42.435   0.156
15899W        W87515  13.360  23.653   0.682
15900W        W87516  16.857  44.801  13.878
15901W        W87517  28.373  38.899  11.213
15902W        W87518  40.363  19.626   1.037
15903W        W87519   4.713  18.929  12.904
15904W        W87520   3.903  24.559   3.594
15905W        W87521  36.507  12.740  11.112
15906W        W87522  28.479  15.859  13.369
15907W        W87523  42.792  10.706  11.791
15908W        W87524  24.529  14.738  13.504
15909W        W87525  16.543  12.939   5.010
15910W        W87526  42.451   3.479   2.260
15911W        W87527  13.263  19.591   2.895
15912W        W87528   9.078   1.365   1.281
15913W        W87529  31.561  39.849  11.991
15914W        W87530  16.113  36.958  10.659
15915W        W87531  40.535   0.189   4.142
15916W        W87532  34.530   9.646  11.569
15917W        W87533  20.527  28.960  10.786
15918W        W87534  26.258  40.276  11.115
15919W        W87535   5.856  39.481   4.111
15920W        W87536   1.658  22.788   1.793
15921W        W87537  28.635  19.216   0.487
15922W        W87538  11.064  42.275  10.911
15923W        W87539  41.969  12.158   1.815
15924W        W87540  12.445  33.818  13.830
15925W        W87541  29.434  21.046   1.766
15926W        W87542  26.205  37.044  12.008
15927W        W87543   8.355  35.944   3.779
15928W        W87544  17.925  24.797  11.210
15929W        W87545  17.581  43.841   1.966
15930W        W87546  23.996  21.124  10.310
15931W        W87547  23.239  17.344   1.762
15932W        W87548  32.905  37.605  12.919
15933W        W87549   0.389  34.108   3.253
15934W        W87550  43.860  25.745  11.203
15935W        W87551  10.976  43.455  13.480
15936W        W87552  14.147  30.056  13.423
15937W        W87553  35.188  26.745  11.176
15938W        W87554  20.326  28.621   3.020
15939W        W87555  18.892  16.883  12.088
15940W        W87556  38.064  10.737   0.429
15941W        W87557   0.954  40.700  10.669
15942W        W87558  19.773  25.719  13.350
15943W        W87559  37.755  11.942   2.806
15944W        W87560  34.608   4.799  12.293
15945W        W87561  21.281  18.320  10.382
15946W        W87562  15.245  19.134  11.910
15947W        W87563  41.274  17.293   1.792
15948W        W87564  34.533   5.225   3.242
15949W        W87565  36.519   5.764   0.904
15950W        W87566  42.237  43.216  11.911
15951W        W87567  10.796  17.958   1.025
15952W        W87568  36.906  42.053  14.844
15953W        W87569   5.116  26.765   0.275
15954W        W87570   6.972  11.392  12.110
15955W        W87571  18.708   6.163   1.247
15956W        W87572  19.584  26.125   3.241
15957W        W87573  21.762  12.615  13.051
15958W        W87574   9.282  36.083   4.147
15959W        W87575  36.651  15.179   2.872
15960W        W87576   2.455  16.873  14.905
15961W        W87577  31.217   4.854   3.240
15962W        W87578  13.279  44.750  10.470
15963W        W87579  32.309  11.833   2.243
15964W        W87580  39.448  10.098  12.821
15965W        W87581   1.800  37.892  13.001
15966W        W87582   1.050   2.202  11.596
15967W        W87583  23.300  13.792   2.845
15968W        W87584  32.351   1.324  11.649
15969W        W87585   3.360  34.695  14.806
15970W        W87586   9.764   3.430  10.731
15971W        W87587  12.955  12.862   4.285
15972W        W87588  16.330  30.120   4.926
15973W        W87589  17.081  38.322   2.233
15974W        W87590   3.170  28.007  13.318
15975W        W87591  21.034  40.826   1.999
15976W        W87592   4.853  38.361  14.324
15977W        W87593   5.309  42.861  11.688
15978W        W87594  28.165  34.188  13.598
15979W        W87595  19.007  18.707  10.755
15980W        W87596  30.388  13.569   0.911
15981W        W87597  30.839  13.625   4.871
15982W        W87598  41.300   4.324  12.569
15983W        W87599  24.381   1.702   3.383
15984W        W87600  40.539  23.930   0.759
15985W        W87601  21.685   9.354   3.723
15986W        W87602  15.544  37.858   0.286
15987W        W87603  32.077  26.686   2.180
15988W        W87604  41.289  36.882   2.469
15989W        W87605   7.174  29.499  11.820
15990W        W87606  36.603   3.538  13.458
15991W        W87607  40.018  31.666   3.717
15992W        W87608   3.512  24.171   5.060
15993W        W87609  40.021  37.610   3.511
15994W        W87610  20.993  31.714   0.307
15995W        W87611  42.854  18.256  11.539
15996W        W87612  16.675   7.205  11.209
15997W        W87613  31.922  11.821  13.162
15998W        W87614  10.615  34.854  11.692
15999W        W87615   7.158  12.656   1.232
16000W        W87616  36.484  26.145  12.031
16001W        W87617   9.586  42.719  12.451
16002W        W87618  24.568   2.196   3.323
16003W        W87619  11.040  29.156  13.557
16004W        W87620  21.399  21.278  11.181
16005W        W87621  36.641   4.737   4.977
16006W        W87622  30.388  41.835  14.583
16007W        W87623  26.133  15.305   4.609
16008W        W87624   4.036  43.566  11.489
16009W        W87625  34.558  27.786   1.250
16010W        W87626  29.576  16.168  11.552
16011W        W87627  14.152   1.021  11.708
16012W        W87628  13.853  43.392  10.498
16013W        W87629   5.899  13.849   0.928
16014W        W87630  15.824  25.523   0.779
16015W        W87631   3.578  27.700   3.931
16016W        W87632   7.010  12.207  11.146
16017W        W87633  21.114   1.877  13.511
16018W        W87634  17.453  43.339  11.631
16019W        W87635  27.898  30.698  11.209
16020W        W87636   7.852  12.211   2.732
16021W        W87637  44.390  33.147   4.826
16022W        W87638  40.434  24.244   3.487
16023W        W87639  17.046   7.774   0.678
16024W        W87640  32.998  17.779  10.626
16025W        W87641   3.808  21.569  11.116
16026W        W87642   0.267  14.382  10.501
16027W        W87643   6.234  29.630  14.817
16028W        W87644   9.361  18.081  12.010
16029W        W87645  24.152   1.289   3.182
16030W        W87646  18.504  27.127   1.860
16031W        W87647  16.821   2.914  13.916
16032W        W87648  36.601   5.143   4.645
16033W        W87649   3.486  18.587  10.654
16034W        W87650  33.335   1.639   5.054
16035W        W87651  20.224   5.144  12.100
16036W        W87652  15.001  22.262  12.991
16037W        W87653   1.980  29.558   1.443
16038W        W87654  20.050  13.408  10.722
16039W        W87655  16.177  42.608  14.064
16040W        W87656  34.590   7.300   0.808
16041W        W87657  37.444  19.206   4.854
16042W        W87658  39.900  43.852  14.590
16043W        W87659   5.761  44.188   4.201
16044W        W87660  27.485  29.783   0.011
16045W        W87661  28.409  22.555  13.523
16046W        W87662  40.889  23.031  14.739
16047W        W87663  31.604  31.624  12.399
16048W        W87664   4.247  25.495  13.912
16049W        W87665  29.178  17.229  13.783
16050W        W87666   6.011   6.309   3.661
16051W        W87667  36.021  20.537   3.261
16052W        W87668  30.895  30.026   4.061
16053W        W87669  39.429  26.059   4.624
16054W        W87670  35.458  12.759   2.827
16055W        W87671  31.622  44.067  14.919
16056W        W87672  44.050  31.353  10.740
16057W        W87673  17.559   3.349  13.039
16058W        W87674  14.801  29.974   3.713
16059W        W87675   3.081  36.410  10.786
16060W        W87676   5.894   6.916   2.673
16061W        W87677  19.755  11.700  10.333
16062W        W87678  27.223   2.311   4.652
16063W        W87679  15.742   7.772   1.427
16064W        W87680  20.096   2.253   0.702
16065W        W87681   1.988  33.801   0.390
16066W        W87682  41.784  20.762  13.178
16067W        W87683  37.572  23.435   2.258
16068W        W87684   7.912  40.999  14.005
16069W        W87685  25.083  14.590  11.476
16070W        W87686  31.684  33.395  13.406
16071W        W87687  21.700  41.957  11.649
16072W        W87688   5.120  23.064   2.710
16073W        W87689  16.922  14.126   3.350
16074W        W87690  17.184  41.089  11.550
16075W        W87691  26.520  38.968   1.289
16076W        W87692  23.050  41.397   3.133
16077W        W87693  26.602  15.444   0.956
16078W        W87694  42.836  39.275   4.111
16079W        W87695   1.980  25.558   2.234
16080W        W87696  25.686  16.415  10.395
16081W        W87697  26.761  33.984  13.559
16082W        W87698  41.235   7.723  12.587
16083W        W87699  15.665  29.395  14.969
16084W        W87700  38.534  18.171  12.593
16085W        W87701   9.271  15.874  14.990
16086W        W87702  37.792  38.046  10.659
16087W        W87703  23.438  23.582   1.930
16088W        W87704  23.524  40.542  11.200
16089W        W87705   7.287  16.726   1.919
16090W        W87706  24.676   3.551   1.962
16091W        W87707  40.654   1.651   1.349
16092W        W87708  39.914   8.831  12.920
16093W        W87709  18.809  16.100  13.888
16094W        W87710   9.855  15.405   0.901
16095W        W87711   8.921  36.427  14.759
16096W        W87712  44.265  22.978   1.006
16097W        W87713  10.870  10.802  13.883
16098W        W87714  23.685  35.611   1.971
16099W        W87715  27.229   0.375   3.412
16100W        W87716  39.692  37.464   4.244
16101W        W87717   3.213  33.003   2.629
16102W        W87718   3.803  29.944   4.199
16103W        W87719  41.368   6.973   4.090
16104W        W87720  39.331  22.306   1.279
16105W        W87721  12.188  37.420   2.693
16106W        W87722  34.095  36.604  14.458
16107W        W87723  13.189   9.721  14.540
16108W        W87724   9.617  17.198  12.823
16109W        W87725  18.556  19.268  13.972
16110W        W87726   1.676   5.423  13.898
16111W        W87727  30.748  42.390  10.795
16112W        W87728  24.554  11.648  12.167
16113W        W87729   9.374   9.836   2.264
16114W        W87730  28.264  12.168  13.550
16115W        W87731  13.133  35.043  12.691
16116W        W87732  34.472  42.519   0.910
16117W        W87733   8.924   3.006   4.149
16118W        W87734   3.724  35.432  13.094
16119W        W87735  25.265  40.551   2.247
16120W        W87736  23.961   8.684   4.113
16121W        W87737  28.398   7.492   0.829
16122W        W87738  16.222  35.372   3.608
16123W        W87739  22.529  43.835   4.272
16124W        W87740  11.832  10.816   3.732
16125W        W87741  10.708  33.820  11.565
16126W        W87742  25.970  14.868   0.367
16127W        W87743  36.532  20.629  10.663
16128W        W87744  28.064  37.219   2.307
16129W        W87745   8.601  40.430   4.471
16130W        W87746  11.613  35.206   1.754
16131W        W87747   4.321  38.028   1.857
16132W        W87748  28.628   2.802   0.884
16133W        W87749   7.913  36.293   3.591
16134W        W87750  44.938  42.956  11.593
16135W        W87751  23.749   1.306   3.779
16136W        W87752  17.106  14.866  10.640
16137W        W87753   4.778   6.459   1.420
16138W        W87754   2.094  30.363  14.368
16139W        W87755   1.980  40.314  12.474
16140W        W87756   2.674   4.664   2.317
16141W        W87757  18.369  14.119   2.738
16142W        W87758  37.491  24.022  12.102
16143W        W87759   1.151  31.837   5.021
16144W        W87760  15.386   6.297  10.172
16145W        W87761  26.006  35.580  11.589
16146W        W87762   8.880   5.911  13.916
16147W        W87763  15.575   1.105   3.691
16148W        W87764  27.951  42.872   3.753
16149W        W87765   6.273  38.956   3.129
16150W        W87766  22.811  30.676  12.550
16151W        W87767  35.816  15.444  11.414
16152W        W87768   1.984  13.107   3.664
16153W        W87769  14.763  23.570   3.614
16154W        W87770   4.892  10.053   9.859
16155W        W87771  34.471   7.901  12.514
16156W        W87772  33.737  33.885  11.038
16157W        W87773   1.194  21.142  14.892
16158W        W87774   4.411  35.885  12.389
16159W        W87775   1.906  24.098   1.729
16160W        W87776  36.486   2.262   4.586
16161W        W87777  34.076  31.579   0.919
16162W        W87778  12.751  34.359  13.151
16163W        W87779   4.827  34.702  13.457
16164W        W87780  11.253  44.006   4.560
16165W        W87781  31.623  42.908  12.897
16166W        W87782  28.219   5.979   2.786
16167W        W87783  29.121  30.662  14.292
16168W        W87784  26.379  36.101   4.430
16169W        W87785  13.152  13.656  14.470
16170W        W87786  31.851   7.440  12.450
16171W        W87787  39.798  25.031  12.489
16172W        W87788  11.200   6.928  12.988
16173W        W87789  28.330  22.026   2.742
16174W        W87790  18.307   9.781   2.323
16175W        W87791  40.451  14.225   4.525
16176W        W87792   5.257  31.598  11.963
16177W        W87793  33.479  43.808  11.180
16178W        W87794  27.648   8.374   3.664
16179W        W87795  21.799  24.038   3.544
16180W        W87796  23.564   8.119  11.161
16181W        W87797   3.457  28.357   2.512
16182W        W87798   3.642  44.854  12.190
16183W        W87799   6.733  39.838  14.373
16184W        W87800  41.521  20.334   3.776
16185W        W87801  41.824  10.777   3.631
16186W        W87802   3.551  26.180   1.523
16187W        W87803  44.403  44.098   4.554
16188W        W87804   5.884  31.601  11.679
16189W        W87805   8.349  17.795   1.972
16190W        W87806   0.378  38.953  10.825
16191W        W87807  19.247   7.306  13.889
16192W        W87808  19.808  44.778  14.226
16193W        W87809  39.583   5.280  11.985
16194W        W87810  23.570  39.556  11.191
16195W        W87811  41.033  32.121   2.280
16196W        W87812   5.209  17.672  11.714
16197W        W87813  15.104  34.890  12.129
16198W        W87814  27.067  43.278   3.409
16199W        W87815  43.933  28.703  14.888
16200W        W87816  25.104  30.512   4.639
16201W        W87817  13.358  12.132   4.139
16202W        W87818  32.926   0.007   3.732
16203W        W87819  19.208   4.994   9.934
16204W        W87820   0.872  26.250  13.738
16205W        W87821  15.721  15.109  12.550
16206W        W87822   5.210  15.741  10.698
16207W        W87823  34.113   3.122  11.638
16208W        W87824  24.221  43.766  12.914
16209W        W87825  19.862  23.151  14.043
16210W        W87826  30.591  11.738  13.995
16211W        W87827   9.126   1.262  12.061
16212W        W87828   7.411  40.962  13.828
16213W        W87829  36.551  20.080  14.300
16214W        W87830  25.075  32.092   3.201
16215W        W87831   5.387  30.546   4.601
16216W        W87832  17.334   2.866  12.045
16217W        W87833  21.381   0.232  11.776
16218W        W87834  25.814  40.336  10.752
16219W        W87835  20.000  10.536   1.259
16220W        W87836  30.882  40.448   2.593
16221W        W87837  15.819  17.551  11.136
16222W        W87838  24.525  31.391   3.666
16223W        W87839   7.641  26.640   4.144
16224W        W87840  43.949   4.369   0.193
16225W        W87841  20.250  33.073   1.839
16226W        W87842   4.900  44.059  14.724
16227W        W87843  41.765  14.355  14.733
16228W        W87844  25.474  11.136   3.311
16229W        W87845  17.293  36.306  13.766
16230W        W87846  21.616  11.165  14.259
16231W        W87847  21.006  34.923   3.653
16232W        W87848  38.481  24.807   4.980
16233W        W87849  41.764  28.262   3.535
16234W        W87850  39.872  11.193   5.427
16235W        W87851  21.644   1.205   1.004
16236W        W87852  23.037   1.547   0.269
16237W        W87853  38.252  40.091  13.837
16238W        W87854  27.573  42.443   4.442
16239W        W87855  30.893  43.484   3.673
16240W        W87856  39.522  40.865  12.485
16241W        W87857   7.140   2.447   0.265
16242W        W87858   7.317  13.222  14.973
16243W        W87859   2.546  43.904   3.392
16244W        W87860  19.132  44.979  12.438
16245W        W87861  15.692  20.778  13.109
16246W        W87862  26.748  34.806   2.805
16247W        W87863  39.091  24.587   2.305
16248W        W87864  33.281  22.066  14.311
16249W        W87865  43.543  19.620   0.639
16250W        W87866  42.932   3.002   3.286
16251W        W87867   2.199   8.660   3.803
16252W        W87868  26.020  30.164  11.653
16253W        W87869  15.797  38.033  14.310
16254W        W87870  34.984   2.308  13.960
16255W        W87871  18.710   9.261   4.802
16256W        W87872  11.872   4.327   4.111
16257W        W87873   0.942   5.793   4.556
16258W        W87874  12.931   8.163   1.410
16259W        W87875  36.892   7.538  14.678
16260W        W87876  12.119  20.882  13.424
16261W        W87877   5.890  17.566  13.784
16262W        W87878  11.184  37.603  13.870
16263W        W87879  32.259  28.203   3.717
16264W        W87880  26.233  21.020   4.343
16265W        W87881   3.002  20.600  11.456
16266W        W87882  29.124  37.548  11.605
16267W        W87883  44.726   5.220   4.150
16268W        W87884  33.929  30.581  10.635
16269W        W87885  33.199  29.419   4.122
16270W        W87886  42.718   8.586   3.147
16271W        W87887  36.056  11.570  12.052
16272W        W87888  40.867  22.742  12.355
16273W        W87889  42.543  29.431   3.210
16274W        W87890  22.415  22.304  14.422
16275W        W87891  15.397  23.007   2.891
16276W        W87892  34.124  22.497   3.613
16277W        W87893  25.176   0.369   2.878
16278W        W87894  19.738  35.900   1.308
16279W        W87895   5.825   9.174  14.644
16280W        W87896  27.012  10.601  13.503
16281W        W87897  36.624  44.998  12.806
16282W        W87898  12.824  37.933  14.421
16283W        W87899  44.438  40.020   0.857
16284W        W87900  16.389   3.903   2.307
16285W        W87901   6.845  37.072   4.714
16286W        W87902   6.225  15.755   1.962
16287W        W87903  32.437  41.095  12.463
16288W        W87904  27.423  13.364  12.931
16289W        W87905   1.247  32.161  12.955
16290W        W87906  30.421   0.416   2.795
16291W        W87907  31.556  33.602  12.513
16292W        W87908  21.456  39.789   3.333
16293W        W87909  39.130  41.060  13.593
16294W        W87910   8.354  13.178   3.675
16295W        W87911  33.234  38.462   3.680
16296W        W87912  15.175   5.445   2.692
16297W        W87913   6.486  11.645  10.216
16298W        W87914   9.247  14.826  11.975
16299W        W87915   1.386  42.376   3.714
16300W        W87916  26.590  42.537  11.590
16301W        W87917   5.762  20.530  12.512
16302W        W87918   6.909  28.523   3.733
16303W        W87919  11.644  33.902  11.556
16304W        W87920  33.122  38.828  13.557
16305W        W87921  16.774  36.046  11.931
16306W        W87922   8.893  15.352  14.527
16307W        W87923  34.210   6.414   2.352
16308W        W87924   3.431   5.421  14.272
16309W        W87925   5.802  29.330  13.942
16310W        W87926   8.828  42.634   0.835
16311W        W87927  15.084  29.231  13.019
16312W        W87928  17.712  40.051   0.718
16313W        W87929  10.960  25.115  11.656
16314W        W87930  17.735  22.081   1.433
16315W        W87931   1.466  20.122   4.109
16316W        W87932  42.405  28.610   2.814
16317W        W87933  14.534  24.726  14.036
16318W        W87934   5.820  41.944  11.393
16319W        W87935   4.270  22.751  13.372
16320W        W87936   1.440  28.463   3.303
16321W        W87937  40.446   3.135   4.534
16322W        W87938   0.727  11.369   1.819
16323W        W87939  40.451  20.446  13.511
16324W        W87940   1.697   7.762  13.364
16325W        W87941  38.141  44.741   1.429
16326W        W87942  32.076  15.576   1.018
16327W        W87943  35.855  25.952   0.004
16328W        W87944   1.903   6.347   0.987
16329W        W87945  12.519  30.136  13.464
16330W        W87946  14.912   8.431  13.392
16331W        W87947  30.629  37.579  13.429
16332W        W87948  17.759   5.966  14.794
16333W        W87949  17.368   2.854  12.961
16334W        W87950  19.026  44.026  10.223
16335W        W87951   5.862  18.067   4.552
16336W        W87952  35.903  30.356  14.307
16337W        W87953  39.214  12.327  11.714
16338W        W87954  35.896  28.593   1.386
16339W        W87955  35.341  14.792   2.472
16340W        W87956  39.592   8.151  11.616
16341W        W87957  22.993  29.540  14.867
16342W        W87958   8.703  28.859  14.278
16343W        W87959  21.138   7.508  14.876
16344W        W87960  34.569  14.765  11.188
16345W        W87961  42.760  31.251  12.627
16346W        W87962   5.547   5.166  10.758
16347W        W87963   0.997  22.220  14.472
16348W        W87964   3.297  28.944  13.714
16349W        W87965  18.321  37.050  14.529
16350W        W87966  32.005  26.433   3.139
16351W        W87967  28.429  14.297  11.062
16352W        W87968  14.617   0.412   4.190
16353W        W87969  23.274   5.557  14.328
16354W        W87970  31.867  22.709   0.821
16355W        W87971  16.850  44.405   1.934
16356W        W87972   9.649  42.830  14.432
16357W        W87973  35.383   0.374  13.309
16358W        W87974  37.598  29.767  12.546
16359W        W87975   9.634   2.339  11.829
16360W        W87976  31.908  39.573  14.952
16361W        W87977  14.530  31.625  13.010
16362W        W87978  32.018  26.133   2.276
16363W        W87979  35.600   6.407   1.221
16364W        W87980  10.631  32.894   4.469
16365W        W87981  39.484  41.514  13.131
16366W        W87982  14.590  26.146  11.523
16367W        W87983  38.848  29.410  12.207
16368W        W87984  30.950  41.891  13.317
16369W        W87985  17.158   6.211   1.889
16370W        W87986  27.911  32.389   2.407
16371W        W87987  37.467  13.039  13.450
16372W        W87988  23.141   8.621   3.738
16373W        W87989  10.261  41.502  12.833
16374W        W87990  18.355  30.986  11.226
16375W        W87991  26.453  36.299  11.719
16376W        W87992  24.034  31.151  12.577
16377W        W87993  26.566  20.203   0.277
16378W        W87994  44.511  29.597   1.882
16379W        W87995  35.675  29.477   3.754
16380W        W87996  28.336  44.991   1.646
16381W        W87997  16.836  25.653   2.228
16382W        W87998  13.825  35.450   4.387
16383W        W87999  41.205   4.752  10.357
16384W        W88000  43.994  25.959   2.624
16385W        W88001  27.226  15.110  10.270
16386W        W88002  39.279  15.556   4.651
16387W        W88003  11.290  10.334  14.982
16388W        W88004  15.044  16.704  10.586
16389W        W88005   1.522  23.008   5.288
16390W        W88006   0.314   2.697   3.936
16391W        W88007  36.274  19.060   4.865
16392W        W88008   9.360  20.836   4.231
16393W        W88009  26.230   6.325  12.337
16394W        W88010  21.706  11.241   1.436
16395W        W88011  23.720  41.844   4.147
16396W        W88012  41.914   2.193  12.527
16397W        W88013  42.468  12.093   2.242
16398W        W88014  26.656  16.220   2.380
16399W        W88015  27.943  10.646   4.413
16400W        W88016   4.475  44.707   2.354
16401W        W88017   0.477  28.982  12.590
16402W        W88018  31.483   0.037  10.969
16403W        W88019  13.290  36.363  11.564
16404W        W88020  20.657   3.395   4.316
16405W        W88021  42.369  29.543  13.182
16406W        W88022  33.654   6.095   1.268
16407W        W88023  30.755  36.518   4.059
16408W        W88024   5.622  30.553   2.261
16409W        W88025  33.554  34.928   4.548
16410W        W88026  25.895  34.599   1.276
16411W        W88027  36.185   0.960  12.452
16412W        W88028  10.897  18.601  11.963
16413W        W88029  41.425  44.963  13.485
16414W        W88030  11.347   7.999   1.282
16415W        W88031  39.404  22.257   0.751
16416W        W88032   9.323  12.375   3.643
16417W        W88033   1.483  35.665  14.333
16418W        W88034   2.193  40.466  12.000
16419W        W88035  44.422   0.290   1.458
16420W        W88036  33.641  33.372  12.996
16421W        W88037  12.327   7.171  13.400
16422W        W88038  43.585   4.679  11.659
16423W        W88039  14.657   4.719  11.609
16424W        W88040  28.718   3.345  11.347
16425W        W88041  37.925  35.537   1.294
16426W        W88042  42.934  36.241  10.155
16427W        W88043  28.510  34.393  11.406
16428W        W88044  21.182   5.345  12.750
16429W        W88045  29.994  16.527  13.102
16430W        W88046  20.997  18.932  13.109
16431W        W88047   9.348  31.477   1.423
16432W        W88048  20.511  23.682  13.285
16433W        W88049  18.240  32.374  12.405
16434W        W88050  15.101  43.245   1.517
16435W        W88051  38.137  21.848  11.219
16436W        W88052  27.053   8.531  14.521
16437W        W88053   6.131  11.813   4.582
16438W        W88054  30.731  21.105   9.905
16439W        W88055  23.685  25.540  13.844
16440W        W88056  17.343   5.442   1.181
16441W        W88057  22.284  23.219   3.249
16442W        W88058  43.919  22.122  13.509
16443W        W88059  31.206  27.369  10.235
16444W        W88060  25.535   7.418  11.411
16445W        W88061  23.765  15.283   1.924
16446W        W88062   2.473  23.039  13.155
16447W        W88063  19.415  25.101   3.743
16448W        W88064  36.107  41.440   1.118
16449W        W88065  28.620  42.766  11.110
16450W        W88066  11.265   6.218  12.548
16451W        W88067  19.791  42.440   3.269
16452W        W88068  24.958  13.136  14.682
16453W        W88069  31.675  16.139  11.694
16454W        W88070   2.270  13.655   4.200
16455W        W88071  11.392  25.196   3.648
16456W        W88072  31.941  19.892  10.709
16457W        W88073   3.369  17.346   3.638
16458W        W88074   4.307  31.067   2.192
16459W        W88075  24.573  40.840   1.526
16460W        W88076  41.066  28.221  14.419
16461W        W88077  22.021  18.042  12.138
16462W        W88078  13.974  15.398   4.758
16463W        W88079  37.857  27.643  10.954
16464W        W88080   4.465  23.581   1.456
16465W        W88081  20.767  37.916   1.848
16466W        W88082  36.216  40.032   1.168
16467W        W88083  24.150  14.879  11.973
16468W        W88084  35.128  22.520   3.373
16469W        W88085  32.604  22.277  14.777
16470W        W88086  26.344  29.933   1.365
16471W        W88087  18.079  42.988   4.161
16472W        W88088   1.145  30.641  14.478
16473W        W88089  14.659  29.777  13.860
16474W        W88090   8.818  15.229   0.889
16475W        W88091   1.678   6.747   3.552
16476W        W88092  20.077  41.625  11.427
16477W        W88093  12.251  15.631   3.081
16478W        W88094   0.566  30.631   0.816
16479W        W88095  16.090  13.344  14.019
16480W        W88096   4.723  40.760  14.452
16481W        W88097  12.702  22.208   0.222
16482W        W88098  22.619  19.581   2.328
16483W        W88099  30.869  34.879  14.492
16484W        W88100  21.702  28.660   2.833
16485W        W88101  11.801  15.801   2.238
16486W        W88102  10.854  40.536   3.525
16487W        W88103  24.051  27.636   2.347
16488W        W88104  14.819   1.830  14.983
16489W        W88105  18.337   3.858  14.856
16490W        W88106  20.776  12.574  13.334
16491W        W88107  15.723  27.520  10.114
16492W        W88108  22.633  13.405   0.896
16493W        W88109  25.062   2.983  14.016
16494W        W88110   3.455  38.742  11.021
16495W        W88111  36.553  11.326  11.107
16496W        W88112   6.574  31.464  12.479
16497W        W88113  27.541  15.375   3.229
16498W        W88114  14.522  35.342  13.887
16499W        W88115  21.251  44.528   1.581
16500W        W88116  26.725  17.605   2.165
16501W        W88117  37.003  44.364   1.763
16502W        W88118  31.946  39.328  10.429
16503W        W88119  44.997  13.589   1.517
16504W        W88120  43.981  18.083  14.855
16505W        W88121  30.084  14.414  13.948
16506W        W88122  31.361  16.741  11.975
16507W        W88123   3.357  30.245  13.564
16508W        W88124  16.623   0.741  14.730
16509W        W88125  15.989  41.276   4.013
16510W        W88126  42.077  11.162   1.405
16511W        W88127  16.677  38.451   3.576
16512W        W88128  31.468  23.633  10.701
16513W        W88129  42.763  22.198   0.397
16514W        W88130  26.643  37.090  13.370
16515W        W88131  10.110  21.956  13.448
16516W        W88132  44.798  40.263  14.332
16517W        W88133  10.672  16.031  12.867
16518W        W88134   3.320   4.902   4.681
16519W        W88135  24.486  44.515   1.840
16520W        W88136  11.832   4.886  14.232
16521W        W88137  43.418  15.200  10.822
16522W        W88138   4.189  20.065  13.312
16523W        W88139   9.466  42.068  12.476
16524W        W88140  24.547   4.848   1.174
16525W        W88141  31.624  34.092   3.330
16526W        W88142  20.248  41.987   4.411
16527W        W88143  19.538  16.197   2.856
16528W        W88144   0.227  28.123  11.788
16529W        W88145  43.285   3.512  13.430
16530W        W88146  30.821  30.360  13.527
16531W        W88147  32.407  18.723  13.187
16532W        W88148   2.658  44.790   0.269
16533W        W88149  27.895  36.511   4.604
16534W        W88150  26.435  24.692   0.930
16535W        W88151   7.845   8.819  11.577
16536W        W88152  12.183  18.444   0.406
16537W        W88153  34.703  18.552  10.550
16538W        W88154  25.117   3.304   2.701
16539W        W88155  25.741   5.061   2.872
16540W        W88156  16.640   7.670  10.953
16541W        W88157  30.156   0.028   2.194
16542W        W88158  10.443  18.632  10.642
16543W        W88159  12.910  14.063  12.507
16544W        W88160  15.755   1.756   4.183
16545W        W88161   0.365  42.706  11.985
16546W        W88162  15.143   3.818  12.597
16547W        W88163  41.724  22.011   2.116
16548W        W88164  33.181  27.608   3.834
16549W        W88165  10.170  35.188  12.532
16550W        W88166  19.174  28.768  10.614
16551W        W88167  26.606  28.711  14.349
16552W        W88168  11.880   3.302   4.966
16553W        W88169  34.845   0.643   4.056
16554W        W88170  17.775   6.344  13.694
16555W        W88171  12.121  20.337  14.455
16556W        W88172  18.698  39.589   4.587
16557W        W88173  12.723   2.800   4.013
16558W        W88174  36.261  27.453   0.961
16559W        W88175   8.463  41.564   4.119
16560W        W88176  10.610  36.514  12.155
16561W        W88177  22.575   9.564  13.470
16562W        W88178  21.758  31.077   4.116
16563W        W88179  44.912  18.046   4.767
16564W        W88180  36.361  30.760   3.634
16565W        W88181  44.920  42.953  12.149
16566W        W88182  26.393  13.190   3.083
16567W        W88183  32.913   9.087  10.710
16568W        W88184  33.475  24.736  12.557
16569W        W88185  19.488  31.094   0.839
16570W        W88186  42.924   7.306   3.642
16571W        W88187  18.257   2.229   3.295
16572W        W88188   1.324  10.944  10.684
16573W        W88189  16.662  38.581  12.920
16574W        W88190  19.081   1.806  11.156
16575W        W88191  38.180  10.785  13.087
16576W        W88192  22.365  42.239   4.177
16577W        W88193   7.293  41.017  10.649
16578W        W88194  19.977  43.907   1.268
16579W        W88195  32.729  26.174   2.700
16580W        W88196   6.200  12.412  10.726
16581W        W88197   9.384  32.690   0.042
16582W        W88198  27.614  40.437  10.356
16583W        W88199  17.242  37.161   3.095
16584W        W88200   4.856  21.123   4.372
16585W        W88201  22.737  43.547  12.390
16586W        W88202   9.950   7.727  10.762
16587W        W88203  27.757  29.391  13.762
16588W        W88204  35.415  26.082  12.326
16589W        W88205  32.115  23.469   4.876
16590W        W88206  24.681  21.281   2.917
16591W        W88207  22.254   3.945  12.967
16592W        W88208  17.247  43.499  14.971
16593W        W88209   4.802  29.019   4.537
16594W        W88210  27.973  41.253   0.899
16595W        W88211   5.232  11.510   2.384
16596W        W88212  25.663  18.219   0.676
16597W        W88213   3.269   0.910  11.115
16598W        W88214  22.585  27.988   4.390
16599W        W88215  40.838   6.808  14.508
16600W        W88216  22.657  19.118   0.958
16601W        W88217  19.707   8.678  10.943
16602W        W88218  21.281  26.960  14.476
16603W        W88219  19.176  25.547   2.152
16604W        W88220  16.060  37.406  13.499
16605W        W88221  44.768  16.218  13.787
16606W        W88222  16.202  23.922   2.609
16607W        W88223  21.461   9.649  10.481
16608W        W88224   5.892  12.090  14.025
16609W        W88225  25.471  32.816   0.918
16610W        W88226  31.635  44.857  12.621
16611W        W88227   5.709  27.068  13.829
16612W        W88228   7.289  37.248   1.820
16613W        W88229  31.066  19.432   3.560
16614W        W88230  20.086  38.374  13.780
16615W        W88231   8.402  12.791  11.998
16616W        W88232  42.502  17.144   3.643
16617W        W88233  36.363  34.039  12.977
16618W        W88234  25.676  21.691  14.477
16619W        W88235  23.708  17.697  11.036
16620W        W88236   5.330  38.925  12.387
16621W        W88237  14.408  19.023  10.496
16622W        W88238  17.681   2.220   1.535
16623W        W88239  13.772  44.852  14.711
16624W        W88240   7.782  37.528   0.258
16625W        W88241  24.945  23.256   3.631
16626W        W88242  42.640  31.465  11.769
16627W        W88243  21.098  43.911  11.046
16628W        W88244  10.812  12.634  12.130
16629W        W88245  38.466   2.359   3.179
16630W        W88246  32.960  18.269  11.847
16631W        W88247   3.828  33.448  13.489
16632W        W88248  41.754  18.582   1.542
16633W        W88249   1.841  36.020   2.376
16634W        W88250  32.564  20.205  12.369
16635W        W88251  42.768   2.512  12.129
16636W        W88252  35.169   8.847   1.892
16637W        W88253  27.946  34.020  14.457
16638W        W88254  24.625  30.511  10.897
16639W        W88255  23.793  23.235  12.349
16640W        W88256  44.423  19.579   1.673
16641W        W88257  25.184  30.090   2.322
16642W        W88258  21.053   2.059  14.254
16643W        W88259  36.446   9.709  12.613
16644W        W88260   2.848  36.173   3.838
16645W        W88261  34.057  14.045   3.281
16646W        W88262   2.256   1.459   0.186
16647W        W88263  29.780  18.631   3.243
16648W        W88264  36.800  27.640   2.190
16649W        W88265  21.054  25.881  11.685
16650W        W88266  30.672  32.604  10.651
16651W        W88267  22.597  42.071   3.338
16652W        W88268  39.802   6.650   4.795
16653W        W88269  38.206  20.482   4.468
16654W        W88270  34.966  27.897   3.639
16655W        W88271  18.267  27.614   2.826
16656W        W88272  33.463  25.897  13.626
16657W        W88273  37.657  22.798   1.029
16658W        W88274  11.791  20.962  14.781
16659W        W88275  20.556  36.089  10.722
16660W        W88276  14.220  24.597   2.802
16661W        W88277  27.958  13.413   1.270
16662W        W88278   7.941   0.269  11.535
16663W        W88279  28.354  32.738  13.876
16664W        W88280  26.126  14.323  13.992
16665W        W88281  10.276  16.703   1.169
16666W        W88282  27.132  41.377   0.291
16667W        W88283  29.044  31.383   2.379
16668W        W88284  28.018  25.022  11.576
16669W        W88285  25.992  31.041  13.317
16670W        W88286   1.831  11.764   1.877
16671W        W88287  25.946  15.736   1.921
16672W        W88288  25.633  27.487  12.217
16673W        W88289  42.065  21.081  14.289
16674W        W88290  20.197  19.273  10.715
16675W        W88291  20.215   4.494   4.080
16676W        W88292  43.321  38.051   0.965
16677W        W88293  21.877   4.212  11.223
16678W        W88294   1.865  15.736  12.083
16679W        W88295   1.243   5.904  13.250
16680W        W88296   6.305  17.077   5.018
16681W        W88297   1.733   0.018  11.029
16682W        W88298   7.943  29.133   0.291
16683W        W88299  12.295  44.365  10.526
16684W        W88300  24.461  36.825   1.753
16685W        W88301   3.215  38.375   3.796
16686W        W88302  21.758   0.376  11.458
16687W        W88303   4.677  29.913  11.042
16688W        W88304  30.523  11.180  12.274
16689W        W88305   9.641   6.859  14.299
16690W        W88306  27.534   8.293  14.418
16691W        W88307   1.430  24.047  14.857
16692W        W88308   2.233  20.345   4.213
16693W        W88309   4.762  40.084   0.052
16694W        W88310  44.820   9.475  12.440
16695W        W88311  34.162  14.613  11.457
16696W        W88312  17.714  16.058   2.744
16697W        W88313  27.434  25.895   2.102
16698W        W88314  44.372   9.218  12.588
16699W        W88315  10.849  28.410  13.933
16700W        W88316  43.784  43.280  14.925
16701W        W88317  16.378   4.202  14.298
16702W        W88318  17.756  41.917  13.217
16703W        W88319   5.718  11.854  12.711
16704W        W88320  18.992  19.474   1.198
16705W        W88321  34.426   9.549   4.568
16706W        W88322  30.054  27.122   2.733
16707W        W88323  24.397  37.629   5.109
16708W        W88324  10.937  34.565  14.806
16709W        W88325  11.394   3.878  13.001
16710W        W88326  32.486  14.862   0.370
16711W        W88327  34.983  39.247   4.374
16712W        W88328  33.850  39.922   0.221
16713W        W88329  14.113   9.222  11.652
16714W        W88330   2.788  39.028   0.025
16715W        W88331  10.640  24.113   4.707
16716W        W88332  19.226  43.384   2.082
16717W        W88333  18.137   3.884  12.543
16718W        W88334  32.165  22.131  11.463
16719W        W88335   8.319  22.299  12.928
16720W        W88336  30.285   2.345   4.111
16721W        W88337  17.030  15.771  12.502
16722W        W88338  36.354  44.926   3.619
16723W        W88339  31.510  44.199  10.029
16724W        W88340  23.214  35.617  14.774
16725W        W88341   2.616  23.511  13.317
16726W        W88342  39.364  25.615   2.369
16727W        W88343   9.158  14.195   3.190
16728W        W88344  13.041   7.113   5.635
16729W        W88345  19.073  11.472  13.055
16730W        W88346   8.253  27.003   1.134
16731W        W88347  14.468   0.046  12.846
16732W        W88348   2.054  22.211   4.828
16733W        W88349  34.770  31.548  11.987
16734W        W88350  39.527   2.454  12.074
16735W        W88351  39.849  21.928   2.194
16736W        W88352  18.083  39.956   1.663
16737W        W88353  22.067  19.708  13.845
16738W        W88354  33.134  13.663  12.514
16739W        W88355  42.533   1.824  11.973
16740W        W88356  37.019  12.788  13.421
16741W        W88357  30.866  10.729   2.152
16742W        W88358  19.493   7.078   2.812
16743W        W88359  29.561   1.669   3.764
16744W        W88360   3.932  44.886   4.143
16745W        W88361  33.900  11.118   3.617
16746W        W88362  12.449  43.323  14.951
16747W        W88363   7.633  23.186  11.988
16748W        W88364  40.552   3.453  12.414
16749W        W88365   6.192   1.671   2.255
16750W        W88366  33.507  17.669  10.603
16751W        W88367  19.546  29.029   2.937
16752W        W88368  12.694   3.943   2.300
16753W        W88369  39.465  15.053  13.372
16754W        W88370   2.892  35.222  13.341
16755W        W88371  11.428  44.044   1.340
16756W        W88372  11.437  27.592   0.382
16757W        W88373  32.613  28.819   1.256
16758W        W88374  39.891   7.747   3.840
16759W        W88375  20.006   8.896  11.545
16760W        W88376  18.242   0.994  12.510
16761W        W88377   7.729  34.999   4.639
16762W        W88378  28.466  29.500  11.071
16763W        W88379  41.425  13.143  12.536
16764W        W88380   3.825  39.301   0.870
16765W        W88381  21.801   0.867  12.921
16766W        W88382   8.824  17.699   2.252
16767W        W88383  21.403  29.039  13.717
16768W        W88384  30.445  13.058   0.851
16769W        W88385  23.906  14.821   3.228
16770W        W88386  44.212   1.947  12.953
16771W        W88387  19.205  33.149  14.316
16772W        W88388  38.901  37.548   1.435
16773W        W88389  41.283  41.964   3.153
16774W        W88390  38.814  36.542   2.323
16775W        W88391  28.666  14.254   5.484
16776W        W88392  34.091  43.987  11.509
16777W        W88393  38.994  33.976   3.577
16778W        W88394   4.734   9.068  13.102
16779W        W88395   4.889   1.537  14.736
16780W        W88396  32.326  37.633  14.875
16781W        W88397  32.846  44.034   9.641
16782W        W88398  27.459   0.770   1.190
16783W        W88399  40.528  36.860  11.110
16784W        W88400  39.516  24.277  12.143
16785W        W88401  25.735  30.702   3.854
16786W        W88402  23.147  33.721   2.380
16787W        W88403  26.659  17.061   5.467
16788W        W88404  18.859  38.507   2.797
16789W        W88405  20.259  42.491  13.533
16790W        W88406   8.905   2.738   1.391
16791W        W88407  39.410  33.973  11.983
16792W        W88408  30.164  32.559   0.463
16793W        W88409  16.064  17.976   4.729
16794W        W88410  42.970  12.335   4.615
16795W        W88411   7.630  12.826  11.587
16796W        W88412  32.965  15.123  13.904
16797W        W88413  16.998  32.610   2.904
16798W        W88414  20.229  19.674   3.088
16799W        W88415  36.897  43.774  11.963
16800W        W88416  41.905  16.502  13.809
16801W        W88417  31.702  32.440  10.788
16802W        W88418  42.034  43.587   0.514
16803W        W88419  25.967  23.493   4.149
16804W        W88420   1.464  43.252   3.534
16805W        W88421  17.267  44.484  12.395
16806W        W88422  10.345   2.463  13.585
16807W        W88423   8.874  16.820  10.672
16808W        W88424  41.313  25.100  13.119
16809W        W88425  21.819  32.851   1.305
16810W        W88426  27.658  10.085  10.365
16811W        W88427  17.464  16.758  10.078
16812W        W88428  21.159  37.195   0.079
16813W        W88429   7.237   5.793   4.432
16814W        W88430  23.945  44.753  11.097
16815W        W88431  40.358  11.098  11.959
16816W        W88432  38.056  43.006   2.189
16817W        W88433  13.728  36.785   2.887
16818W        W88434  11.346   7.752   2.697
16819W        W88435  18.446  17.130  12.794
16820W        W88436  37.473  15.856  11.265
16821W        W88437  44.637  38.522   9.716
16822W        W88438  22.481   5.747  14.036
16823W        W88439  33.108  41.059  11.233
16824W        W88440  14.115   4.616   4.162
16825W        W88441  42.023  16.595   4.072
16826W        W88442   5.913  23.215  14.280
16827W        W88443  17.886  17.263  11.167
16828W        W88444   9.039   9.565  12.793
16829W        W88445   2.275  28.123   2.636
16830W        W88446  20.126  15.396  10.709
16831W        W88447  44.358   5.224  10.728
16832W        W88448  32.020  32.683  13.197
16833W        W88449   1.468  24.302   3.651
16834W        W88450  16.807  26.568  12.039
16835W        W88451  39.285  19.114  12.834
16836W        W88452  43.963  35.299  14.918
16837W        W88453   1.046  41.300  14.834
16838W        W88454   4.266  29.407   1.696
16839W        W88455  33.007   1.225  12.334
16840W        W88456  39.907   6.845   0.710
16841W        W88457  10.847  28.089   3.751
16842W        W88458  39.714  39.772   0.481
16843W        W88459   8.220  43.010  10.701
16844W        W88460  18.310  18.777   3.636
16845W        W88461  20.710  25.119   3.050
16846W        W88462   3.995  33.568   2.782
16847W        W88463  19.379  44.110  11.026
16848W        W88464  12.196  39.793  12.025
16849W        W88465  11.421   0.197  11.087
16850W        W88466   2.284  34.434  12.612
16851W        W88467  36.361  31.945  13.947
16852W        W88468  33.589   6.905  14.025
16853W        W88469  29.991  21.679  13.797
16854W        W88470  29.364   1.878   3.297
16855W        W88471   9.699  11.898   0.787
16856W        W88472  37.466  39.965  10.423
16857W        W88473  14.801  11.657   0.283
16858W        W88474  39.230  20.261   2.759
16859W        W88475  33.375   9.671  12.068
16860W        W88476   6.175  16.592  11.892
16861W        W88477  12.261   2.835   2.215
16862W        W88478   0.683  17.155  11.165
16863W        W88479  42.795   3.492   1.869
16864W        W88480  16.259  35.784   5.143
16865W        W88481  36.301  27.274   3.200
16866W        W88482  11.362  16.550   0.974
16867W        W88483   8.345  32.699   2.925
16868W        W88484   5.065   0.147  11.071
16869W        W88485   0.324  40.901  14.589
16870W        W88486  26.593  22.761   4.006
16871W        W88487   1.039  14.819  14.475
16872W        W88488  40.818  40.084   1.309
16873W        W88489   3.002  33.002  11.000
16874W        W88490  27.107  11.709  13.470
16875W        W88491  12.539  26.666  11.854
16876W        W88492  27.441  27.917   1.100
16877W        W88493  16.640   7.607   2.724
16878W        W88494  26.217  36.895  11.119
16879W        W88495  11.529  11.862  11.549
16880W        W88496  15.285   9.438   4.756
16881W        W88497   5.798  44.302  10.718
16882W        W88498  44.783   2.529  12.901
16883W        W88499  41.727   0.760   2.319
16884W        W88500  39.831  23.248   3.297
16885W        W88501  31.128   2.243  11.072
16886W        W88502   1.694  35.869  10.679
16887W        W88503   8.000   6.158  14.334
16888W        W88504  29.608  43.793   3.758
16889W        W88505  21.203  39.332   0.329
16890W        W88506  28.644   3.802  11.076
16891W        W88507   2.765  41.848   2.303
16892W        W88508  18.082  14.344  11.978
16893W        W88509  23.773   3.102   1.854
16894W        W88510  15.787  18.616   4.118
16895W        W88511  11.379   1.265   0.979
16896W        W88512  17.281  36.852  13.605
16897W        W88513  29.120  30.095  10.161
16898W        W88514  32.413   8.847  12.249
16899W        W88515  44.873  11.374  12.970
16900W        W88516   3.764  34.985  11.612
16901W        W88517  28.926  13.610   2.810
16902W        W88518   9.712  25.202   1.228
16903W        W88519   5.648  12.231  12.317
16904W        W88520  17.681  13.667   0.723
16905W        W88521  25.948  13.345  14.471
16906W        W88522   2.529  22.560  10.040
16907W        W88523  19.495   3.642   0.792
16908W        W88524  29.553  33.258  11.073
16909W        W88525   0.843   6.878   4.282
16910W        W88526  17.640  41.880   2.274
16911W        W88527  23.800  28.388   4.066
16912W        W88528   1.213  44.810  13.326
16913W        W88529   1.736  12.371   2.535
16914W        W88530   2.972   7.871   4.219
16915W        W88531  17.217   3.623   0.982
16916W        W88532   4.756  28.435  13.090
16917W        W88533  27.790  16.492   0.860
16918W        W88534  29.249  21.266   0.842
16919W        W88535  43.619  30.670   5.075
16920W        W88536  16.107  12.740   0.895
16921W        W88537  29.954  21.233   2.780
16922W        W88538  12.059  15.921   2.696
16923W        W88539  30.051  21.159   4.637
16924W        W88540  13.245  39.320  13.246
16925W        W88541  15.561   9.792   0.274
16926W        W88542  32.582  18.252  13.341
16927W        W88543  36.995   3.822   4.686
16928W        W88544  15.589  42.431   4.501
16929W        W88545  28.824  37.010   2.882
16930W        W88546  33.549   6.776   3.579
16931W        W88547  39.012   8.747   1.394
16932W        W88548   4.758  35.175  11.580
16933W        W88549   9.769  29.907   1.894
16934W        W88550  22.296  35.054  13.441
16935W        W88551  24.367  36.001  13.989
16936W        W88552  18.746  10.322  13.285
16937W        W88553   2.440  25.847  11.602
16938W        W88554  39.561  42.262   2.822
16939W        W88555  23.653   2.675  14.816
16940W        W88556  12.294   1.363  11.975
16941W        W88557  16.977  24.042   2.474
16942W        W88558  38.114  21.697   3.403
16943W        W88559  39.090  17.223  13.271
16944W        W88560   6.281  19.704  10.762
16945W        W88561  16.857   9.858  14.287
16946W        W88562  42.925  35.511   2.881
16947W        W88563  29.587  42.790   3.720
16948W        W88564  30.203  17.124   4.928
16949W        W88565   8.226  14.049  14.495
16950W        W88566  30.440  40.978  13.990
16951W        W88567  22.577  38.910  11.460
16952W        W88568   4.811   6.288  13.853
16953W        W88569  27.441  10.820   0.255
16954W        W88570  14.727  37.026  13.352
16955W        W88571  25.873  23.125  14.955
16956W        W88572  18.662  12.611   4.671
16957W        W88573  31.371   2.799   3.624
16958W        W88574  28.027  21.993   4.287
16959W        W88575  14.763  17.821  11.592
16960W        W88576  20.235  20.291  13.449
16961W        W88577  15.165  27.947   4.153
16962W        W88578  22.197   7.858  14.300
16963W        W88579  11.369   3.715  12.155
16964W        W88580  22.748  37.821   3.745
16965W        W88581  11.194  42.972   0.679
16966W        W88582   5.731   2.359  12.921
16967W        W88583  15.158   4.277  12.821
16968W        W88584  19.343  23.585   1.027
16969W        W88585  18.128   3.323  13.805
16970W        W88586   9.904  30.445  12.176
16971W        W88587   1.918  22.301  11.627
16972W        W88588  35.581  14.799   2.929
16973W        W88589  40.101  15.296   0.935
16974W        W88590  19.282  21.233   1.444
16975W        W88591  12.235  13.085  13.817
16976W        W88592  16.310  40.242   1.821
16977W        W88593  22.686  26.756   1.626
16978W        W88594  19.171  14.244   5.137
16979W        W88595  28.454  32.227  13.827
16980W        W88596  10.075   4.324   1.836
16981W        W88597   7.589  24.162  12.822
16982W        W88598  42.551  21.199   1.252
16983W        W88599  16.351  33.933  14.027
16984W        W88600  37.160   9.662  11.243
16985W        W88601  13.270  39.345  14.281
16986W        W88602   2.476   5.455  13.507
16987W        W88603  15.123  21.537  13.887
16988W        W88604  36.407   8.138  10.590
16989W        W88605   7.342  30.553  10.880
16990W        W88606  40.440  24.815  11.639
16991W        W88607  21.029  32.024   4.723
16992W        W88608  35.586  40.317   2.295
16993W        W88609  29.790  38.877   5.088
16994W        W88610  37.314  18.044   3.740
16995W        W88611   3.814  41.909   2.261
16996W        W88612  20.727  34.862   4.517
16997W        W88613  30.249  28.513   1.427
16998W        W88614   3.996  10.640  14.010
16999W        W88615  25.078  25.735  14.926
17000W        W88616   7.885  16.081   0.162
17001W        W88617  30.040  13.746  10.714
17002W        W88618  12.597  38.897  14.816
17003W        W88619  40.089  20.627   0.239
17004W        W88620  13.373  17.692  14.828
17005W        W88621  44.933  23.443   2.313
17006W        W88622  35.828   7.471  13.352
17007W        W88623  38.921   0.962   0.300
17008W        W88624  19.028  44.906   0.967
17009W        W88625  28.921  27.426   3.805
17010W        W88626  28.475   4.457   3.295
17011W        W88627  11.752  23.673   0.415
17012W        W88628  15.864  36.072  14.455
17013W        W88629  41.901  25.048  14.284
17014W        W88630  25.573  30.578   1.288
17015W        W88631  34.970   8.889  13.480
17016W        W88632  31.644   3.808  10.648
17017W        W88633  26.204  16.190   4.610
17018W        W88634  35.906  14.480   3.970
17019W        W88635  24.442  20.973  14.460
17020W        W88636  28.414  25.237   0.876
17021W        W88637  30.439  43.737   1.274
17022W        W88638   3.019  15.054   3.671
17023W        W88639  17.970  14.753  11.497
17024W        W88640  32.848  31.523   0.252
17025W        W88641  20.638  26.349   4.541
17026W        W88642  25.780  21.087   4.595
17027W        W88643   6.772  42.329  14.419
17028W        W88644  24.619  35.873  13.549
17029W        W88645  34.376  42.506  12.456
17030W        W88646  22.515   0.216   4.612
17031W        W88647  39.239   9.810   2.709
17032W        W88648  33.467  30.991  11.144
17033W        W88649  26.065  31.944  10.955
17034W        W88650   1.611  26.818   4.929
17035W        W88651   7.339   4.844   3.724
17036W        W88652   0.037  24.746   3.164
17037W        W88653  28.249   1.779  10.736
17038W        W88654  44.783  12.125  12.366
17039W        W88655  19.161  35.880   4.385
17040W        W88656  34.887  12.373  13.203
17041W        W88657   5.500  36.487  12.039
17042W        W88658  11.069  19.763  14.278
17043W        W88659  27.263   2.580   2.667
17044W        W88660  23.261  32.307   0.485
17045W        W88661  31.336  13.299  11.138
17046W        W88662  43.222   7.255  12.842
17047W        W88663   4.232  28.182  10.412
17048W        W88664  28.983  11.336  13.787
17049W        W88665   7.358  13.911  11.383
17050W        W88666  16.322  10.370   2.901
17051W        W88667   7.409  25.533   4.045
17052W        W88668   8.023   4.321   3.844
17053W        W88669  39.260  29.469   2.643
17054W        W88670   1.414  13.149  11.638
17055W        W88671  18.461  26.149  14.971
17056W        W88672  17.745   9.207   2.647
17057W        W88673   5.168  39.914   4.249
17058W        W88674  16.305  16.771  12.987
17059W        W88675  44.479  19.323   0.223
17060W        W88676  17.216  20.978   1.617
17061W        W88677   8.602  10.623   2.706
17062W        W88678  19.353  39.334  13.751
17063W        W88679  39.881  26.926  14.415
17064W        W88680   5.643   1.471  13.829
17065W        W88681  22.275  30.561  11.226
17066W        W88682   8.738  25.785   3.656
17067W        W88683  41.090  10.190   0.744
17068W        W88684  27.630   7.718   0.709
17069W        W88685  38.016  18.029  12.538
17070W        W88686   8.910  30.583  13.060
17071W        W88687  37.459  25.711  14.411
17072W        W88688  35.019  22.989  14.386
17073W        W88689  30.633  11.797   3.792
17074W        W88690  16.803  17.160   1.499
17075W        W88691   3.959  17.964  11.049
17076W        W88692  35.566  25.231  11.482
17077W        W88693  10.646  38.018   3.924
17078W        W88694  41.558  31.237   1.768
17079W        W88695  23.121  11.271   1.274
17080W        W88696   0.682   1.719   0.395
17081W        W88697  27.895  33.534  12.843
17082W        W88698   1.986  31.997  13.426
17083W        W88699  22.897   4.306   0.863
17084W        W88700  15.720   5.186   3.644
17085W        W88701  29.132  15.912  12.956
17086W        W88702  23.240  10.847   1.906
17087W        W88703  12.475  23.231  10.605
17088W        W88704  28.568  11.371   4.063
17089W        W88705   9.312  34.092  14.730
17090W        W88706  17.645  22.283   2.336
17091W        W88707  42.945  31.682   0.862
17092W        W88708  37.101  34.874  13.385
17093W        W88709  19.000   7.223  10.585
17094W        W88710   5.126  39.881  13.781
17095W        W88711  12.118   3.723  12.463
17096W        W88712  15.987   0.084  11.028
17097W        W88713   5.980   6.593  11.701
17098W        W88714  20.236   4.803  14.118
17099W        W88715  18.175  33.838  14.468
17100W        W88716  25.594  40.620  11.113
17101W        W88717   5.918   6.125   4.143
17102W        W88718  40.263  21.667   3.790
17103W        W88719  23.959  11.588   0.896
17104W        W88720  38.379  41.317  14.528
17105W        W88721  38.922  29.658  13.198
17106W        W88722  35.843   9.843   4.592
17107W        W88723  10.650  11.159  12.979
17108W        W88724   3.922  15.818  11.827
17109W        W88725  31.655  10.194   2.275
17110W        W88726  20.169  16.877  10.748
17111W        W88727  43.878  17.336   2.982
17112W        W88728   3.206  25.899  12.357
17113W        W88729  12.348   0.381   2.954
17114W        W88730  37.040  12.291  12.545
17115W        W88731  39.889  26.736   1.480
17116W        W88732  41.802  35.049  10.158
17117W        W88733  15.149   8.954   2.361
17118W        W88734   9.285   8.647   3.198
17119W        W88735  20.075   0.398  12.095
17120W        W88736  17.266  15.150  14.290
17121W        W88737  25.147  15.163  12.289
17122W        W88738  22.093  24.145  12.107
17123W        W88739  30.536   7.710   0.808
17124W        W88740  41.434   1.713  13.931
17125W        W88741  33.053  42.000   0.690
17126W        W88742  26.372  43.912   2.536
17127W        W88743  30.164   3.908  13.427
17128W        W88744  20.746  41.038   2.880
17129W        W88745  31.417  32.097  11.985
17130W        W88746  36.983  10.194   4.857
17131W        W88747  16.405  30.124  13.835
17132W        W88748   5.188  23.994   0.205
17133W        W88749  43.761  27.642  12.608
17134W        W88750  28.991  13.316   1.329
17135W        W88751  36.945  21.352  12.207
17136W        W88752   3.178  29.990  11.531
17137W        W88753  17.254  20.532   2.966
17138W        W88754   1.298  22.271   4.120
17139W        W88755  42.904   9.379   4.617
17140W        W88756   7.824  21.724  13.368
17141W        W88757  34.555  12.871   0.275
17142W        W88758  30.280  31.609   0.467
17143W        W88759  19.953  23.688  11.910
17144W        W88760  44.348  22.407   1.812
17145W        W88761  15.261  16.229   0.507
17146W        W88762  12.586  13.249  11.911
17147W        W88763   8.087  19.929  13.431
17148W        W88764  35.519  12.901  12.009
17149W        W88765  25.650  26.414  11.939
17150W        W88766  24.715  30.493   3.740
17151W        W88767  24.034  23.618  12.079
17152W        W88768  43.769  18.661  11.208
17153W        W88769   2.325  23.712   0.904
17154W        W88770  11.046  16.184  11.004
17155W        W88771  18.353  27.636   1.823
17156W        W88772  15.118   0.540   2.362
17157W        W88773  42.048  33.370  10.195
17158W        W88774  39.243   0.801   2.764
17159W        W88775  11.725  20.748   1.813
17160W        W88776  24.129  40.436   1.886
17161W        W88777  17.079  19.012   3.240
17162W        W88778  13.765  24.396   4.115
17163W        W88779  35.634  22.595   3.341
17164W        W88780   1.246  16.888   4.441
17165W        W88781  33.094  17.610  14.867
17166W        W88782   3.483  41.803   4.146
17167W        W88783  16.037  15.170   1.308
17168W        W88784  33.495   9.853   2.206
17169W        W88785  10.683  34.509  13.012
17170W        W88786  36.521  34.084   1.761
17171W        W88787  24.711  31.651   4.076
17172W        W88788  38.381  41.518   0.389
17173W        W88789  14.232   7.831  12.977
17174W        W88790   3.442  26.364  11.557
17175W        W88791  36.978  17.307   0.945
17176W        W88792  18.339  35.866  13.529
17177W        W88793  27.010  17.096   3.785
17178W        W88794  40.986  42.542   4.288
17179W        W88795  27.885  32.426  12.948
17180W        W88796  24.801  24.778  12.014
17181W        W88797  10.674  29.999  12.405
17182W        W88798  26.480  16.109  14.369
17183W        W88799  42.841   2.145   4.982
17184W        W88800  27.013  42.820  13.895
17185W        W88801  12.220  16.178  10.696
17186W        W88802  28.130  30.453  12.137
17187W        W88803  13.291   3.532  14.349
17188W        W88804  36.189  35.397  11.059
17189W        W88805  11.206  22.103   1.276
17190W        W88806   6.172   6.725  14.409
17191W        W88807   1.739   9.500  13.463
17192W        W88808  24.498   0.813   2.580
17193W        W88809  30.618  34.945  11.173
17194W        W88810  23.493  36.147  13.496
17195W        W88811   3.828   9.860   0.782
17196W        W88812  44.843  28.941   3.043
17197W        W88813   7.248   2.637   1.922
17198W        W88814  32.990  37.524   0.447
17199W        W88815  23.951   6.262   3.167
17200W        W88816   1.857  35.661  13.801
17201W        W88817   2.278   5.192  12.150
17202W        W88818  36.929  33.453  11.597
17203W        W88819  19.799   0.227  14.464
17204W        W88820   1.846   2.942  11.396
17205W        W88821  34.622   6.845  13.636
17206W        W88822  44.440   5.423  14.588
17207W        W88823  43.401  42.896   3.329
17208W        W88824   8.235  37.474  12.952
17209W        W88825  29.200  19.037   0.121
17210W        W88826  29.671  15.860   3.828
17211W        W88827  42.464  33.652   0.408
17212W        W88828  17.304  31.929   1.467
17213W        W88829  42.930  43.731   1.269
17214W        W88830   1.912  43.528   0.340
17215W        W88831  25.114   9.995   2.716
17216W        W88832  34.007  25.668  13.482
17217W        W88833   8.158   3.459   1.072
17218W        W88834  12.545   3.893  14.848
17219W        W88835  28.166  15.017  13.108
17220W        W88836  44.995   8.879   1.858
17221W        W88837  31.769  27.198   3.565
17222W        W88838  37.656   8.351   0.821
17223W        W88839  39.940  10.866   2.428
17224W        W88840   8.851  26.253   2.737
17225W        W88841  10.645  27.043   1.007
17226W        W88842  12.551   7.198   1.341
17227W        W88843  37.068  33.459   2.087
17228W        W88844  25.985   0.316  14.396
17229W        W88845  33.624  34.920   2.255
17230W        W88846   2.567   7.288  13.491
17231W        W88847   6.947  30.761   3.150
17232W        W88848  29.600  14.327   4.608
17233W        W88849   4.646  17.283  13.187
17234W        W88850  30.430  41.453  11.136
17235W        W88851  44.260  36.608   3.067
17236W        W88852  35.115   7.764  14.438
17237W        W88853  35.337   4.892  14.328
17238W        W88854  35.486   6.327  12.645
17239W        W88855  41.450  24.529  11.118
17240W        W88856  43.069  12.098  12.067
17241W        W88857  30.945  33.955  13.445
17242W        W88858  16.326  28.889   2.357
17243W        W88859  11.351   8.729  13.927
17244W        W88860   3.819  38.520   1.440
17245W        W88861   1.482  12.086   3.768
17246W        W88862  40.706  25.328   5.039
17247W        W88863  28.907  14.336   3.189
17248W        W88864  36.869  43.051   3.246
17249W        W88865  40.624  22.579  11.477
17250W        W88866  29.539   5.203  13.877
17251W        W88867   9.189  21.624   4.658
17252W        W88868  16.239   7.994   4.598
17253W        W88869  34.949  25.516   0.176
17254W        W88870  28.164  19.503   0.014
17255W        W88871   5.133  33.989  14.962
17256W        W88872  13.540  36.654  11.143
17257W        W88873  26.630  15.851   0.627
17258W        W88874  30.099  42.977  12.023
17259W        W88875  43.823  12.771  14.837
17260W        W88876   3.658  13.222  13.644
17261W        W88877  35.400  16.763   0.278
17262W        W88878  25.400  38.110   0.388
17263W        W88879   4.862  28.170   3.588
17264W        W88880  20.278  23.239  12.588
17265W        W88881   8.307  35.835  11.089
17266W        W88882  39.358   6.244  11.102
17267W        W88883   8.321   4.307  12.352
17268W        W88884   4.153  28.908  13.969
17269W        W88885   0.269  19.527   1.347
17270W        W88886   6.979  31.909   0.047
17271W        W88887  22.651   2.190   2.883
17272W        W88888  30.993   1.418   2.785
17273W        W88889  34.107  30.164  11.826
17274W        W88890  44.775  10.259   0.149
17275W        W88891  31.745  42.406   3.093
17276W        W88892  22.551  16.079  14.434
17277W        W88893  21.527   8.103   3.161
17278W        W88894   1.128   7.937   0.297
17279W        W88895   0.788  15.272  14.292
17280W        W88896  21.736   4.271  12.425
17281W        W88897  39.123  43.119   3.990
17282W        W88898  15.249  40.060   1.411
17283W        W88899  37.588  34.607   4.591
17284W        W88900  37.400  28.847   3.846
17285W        W88901  19.092  15.814  14.847
17286W        W88902  21.615   9.427  13.090
17287W        W88903  25.208   1.484  14.081
17288W        W88904  41.407  27.070   2.662
17289W        W88905   8.843  18.976  11.697
17290W        W88906  35.037  36.241   0.918
17291W        W88907  40.022  30.006   2.801
17292W        W88908   3.590  39.724   3.689
17293W        W88909   1.925  26.688  14.217
17294W        W88910   5.166  42.497   1.388
17295W        W88911   0.363  37.754   5.486
17296W        W88912   3.518  16.124   1.925
17297W        W88913  25.714   4.803  10.372
17298W        W88914   4.368   5.084  14.627
17299W        W88915  38.070  17.853   0.283
17300W        W88916   2.240   5.919  13.531
17301W        W88917  19.935  15.625   2.167
17302W        W88918  20.153  14.857  10.652
17303W        W88919  42.367  23.649  13.395
17304W        W88920  37.835  13.295  11.459
17305W        W88921  22.955   9.285   1.000
17306W        W88922  37.548  22.158   3.257
17307W        W88923   6.410  38.282  14.070
17308W        W88924  34.011  31.523   1.932
17309W        W88925  12.869  38.507   0.030
17310W        W88926   2.159  35.083   2.276
17311W        W88927  29.964  25.783  13.087
17312W        W88928  28.689  35.369  13.037
17313W        W88929   9.489  30.530  11.856
17314W        W88930  32.187  35.934  11.634
17315W        W88931  17.090  21.517   1.660
17316W        W88932  21.118  39.929   1.547
17317W        W88933  17.338  31.133  13.984
17318W        W88934  24.897   1.820   3.408
17319W        W88935  14.853  34.803  12.664
17320W        W88936  17.092  43.890  13.706
17321W        W88937  35.456  33.279   4.076
17322W        W88938   0.464  14.255  14.872
17323W        W88939  34.464  41.932   2.269
17324W        W88940  30.823  27.579  13.363
17325W        W88941  18.600  22.710   2.833
17326W        W88942  17.736   3.380   4.044
17327W        W88943  31.125  19.681  10.604
17328W        W88944  13.683  36.775  14.151
17329W        W88945   8.402  15.258   3.801
17330W        W88946   5.003  28.619   1.876
17331W        W88947   3.254  44.347  10.422
17332W        W88948  31.831   5.326  13.926
17333W        W88949  11.111   9.762  10.958
17334W        W88950  26.949  24.467   3.863
17335W        W88951   4.665  40.651   4.715
17336W        W88952  42.057  34.969   4.160
17337W        W88953  20.995  32.249  14.010
17338W        W88954   5.855  14.620  12.418
17339W        W88955  17.122  14.344  10.702
17340W        W88956  11.748  25.082  14.943
17341W        W88957  27.043  26.195  11.070
17342W        W88958  40.557  23.626  10.712
17343W        W88959  14.357   7.327  13.401
17344W        W88960   5.892   9.678   0.342
17345W        W88961   1.750  23.153   1.375
17346W        W88962   3.047   3.397   0.171
17347W        W88963  44.790   4.667  12.365
17348W        W88964  17.865  41.441  12.502
17349W        W88965   9.246  29.091  13.010
17350W        W88966  37.849  39.134  12.579
17351W        W88967  14.925   0.765  14.477
17352W        W88968   0.794   8.234   1.486
17353W        W88969   4.415   1.198  11.384
17354W        W88970   9.775  29.294  11.645
17355W        W88971  12.521  29.095  10.711
17356W        W88972  23.762  44.509  13.813
17357W        W88973  24.690  29.246   1.006
17358W        W88974  39.333  27.833  11.143
17359W        W88975  13.372  35.539   4.110
17360W        W88976  18.388  11.739  10.969
17361W        W88977  37.751   4.776   1.392
17362W        W88978   8.651   8.630  13.998
17363W        W88979   6.218  40.817  11.476
17364W        W88980   9.342  44.006   0.025
17365W        W88981  31.013  37.059  13.041
17366W        W88982   0.283  43.038   2.678
17367W        W88983   1.670  19.721   4.729
17368W        W88984  16.590  37.478   0.358
17369W        W88985   0.962  38.148   4.049
17370W        W88986  27.983  42.899  12.038
17371W        W88987  40.031  43.502  13.813
17372W        W88988  43.428   6.920   2.298
17373W        W88989   7.925   9.028   0.170
17374W        W88990  37.516  42.508   5.122
17375W        W88991  17.055  42.428  11.349
17376W        W88992  10.904  17.141   0.617
17377W        W88993  11.646  13.436   0.538
17378W        W88994  43.916  42.726  12.555
17379W        W88995  38.529  35.910  13.724
17380W        W88996  32.138  39.063   2.756
17381W        W88997  13.031  22.716   1.084
17382W        W88998  15.497  40.694   5.351
17383W        W88999  17.096  30.938   4.132
17384W        W89000  30.205   9.185  10.760
17385W        W89001  34.156  19.736   4.575
17386W        W89002  44.495   8.373   3.715
17387W        W89003  28.498  23.169  14.960
17388W        W89004  16.673  21.753   0.458
17389W        W89005  14.619  27.500   0.912
17390W        W89006  43.738  42.694  11.694
17391W        W89007  14.252  31.058   0.981
17392W        W89008  24.791  33.935   2.383
17393W        W89009  44.907   4.918  11.030
17394W        W89010  17.796  43.440   0.806
17395W        W89011  23.991   0.289  13.633
17396W        W89012  23.789  27.589  12.272
17397W        W89013  41.207  37.571  11.468
17398W        W89014  37.450  15.054   0.999
17399W        W89015  30.247  18.549  12.142
17400W        W89016  11.640   7.208   2.571
17401W        W89017  16.399   3.751  14.035
17402W        W89018  15.744  32.585   3.442
17403W        W89019  38.321  24.580  12.914
17404W        W89020  14.855   9.139   2.772
17405W        W89021   1.747  13.234   1.897
17406W        W89022  28.064  12.234  12.920
17407W        W89023  38.245  10.126  11.681
17408W        W89024  40.530  22.794  13.862
17409W        W89025  43.958  18.045  12.024
17410W        W89026   2.303  42.257   3.829
17411W        W89027  44.295  39.000  13.880
17412W        W89028   0.987  19.536   1.826
17413W        W89029  29.589  32.901   4.186
17414W        W89030  35.526  42.696   1.945
17415W        W89031   7.756  23.504   0.686
17416W        W89032  33.483  34.818  14.379
17417W        W89033   5.452   9.367   2.429
17418W        W89034  21.765  28.714  12.443
17419W        W89035   6.929  33.788  14.227
17420W        W89036  35.311  36.547  12.009
17421W        W89037   2.309   9.211   0.763
17422W        W89038  34.632   5.921   4.627
17423W        W89039  18.834  17.950  14.471
17424W        W89040  41.764   6.645   1.405
17425W        W89041  24.219   0.454  10.694
17426W        W89042  41.470  23.716   3.128
17427W        W89043  32.010  31.667  10.666
17428W        W89044  25.592   8.423   4.993
17429W        W89045  22.865   8.120  13.130
17430W        W89046  23.062  32.671   2.584
17431W        W89047  21.275  43.050  14.431
17432W        W89048  18.248  16.122   2.343
17433W        W89049   2.819  13.411  14.060
17434W        W89050  25.377   9.206   3.106
17435W        W89051  38.459   3.816   4.871
17436W        W89052  32.352  40.116  12.461
17437W        W89053  20.633  24.953   4.260
17438W        W89054   3.368  20.736  14.702
17439W        W89055  26.905   7.120  11.106
17440W        W89056  31.620  14.601   3.698
17441W        W89057  30.627   3.345  13.930
17442W        W89058  22.638  25.906  12.393
17443W        W89059   0.365  44.687  11.158
17444W        W89060  22.042  44.159  14.564
17445W        W89061  26.518  40.589  13.348
17446W        W89062  39.047  20.715  13.913
17447W        W89063  20.893   8.138   0.554
17448W        W89064  20.664   8.450   1.319
17449W        W89065  38.482  24.555   3.389
17450W        W89066  42.036  39.913   1.986
17451W        W89067  31.594  20.607   1.484
17452W        W89068  26.752  30.623   2.851
17453W        W89069  11.322   0.662  11.914
17454W        W89070  16.082  15.336   9.705
17455W        W89071  33.064  23.096   2.158
17456W        W89072   0.912  31.472   2.698
17457W        W89073  40.407  35.812   2.863
17458W        W89074  30.708  15.573   0.888
17459W        W89075  33.545  36.607  13.546
17460W        W89076  12.742  20.743  12.040
17461W        W89077  21.099  23.004   3.966
17462W        W89078  33.345  37.576   1.447
17463W        W89079  27.879  28.688  12.408
17464W        W89080  31.138   5.231   2.905
17465W        W89081  38.469   8.651   0.056
17466W        W89082   8.804  40.522  12.396
17467W        W89083  12.100  13.252   3.667
17468W        W89084  16.494  16.631   5.137
17469W        W89085  11.318  32.024   4.106
17470W        W89086  36.772  41.462   3.579
17471W        W89087   5.984  30.623   1.274
17472W        W89088  21.506  31.940  10.366
17473W        W89089   2.223  13.323  14.555
17474W        W89090  15.055  14.757   2.822
17475W        W89091  17.281  19.122   4.931
17476W        W89092  25.920  30.217  12.969
17477W        W89093  18.309   6.383   4.576
17478W        W89094   0.991  25.706   4.262
17479W        W89095   1.717  31.999   0.800
17480W        W89096   6.224   3.190   3.409
17481W        W89097  32.075  30.487   2.825
17482W        W89098  15.310   1.965  14.047
17483W        W89099  36.495  20.499  13.951
17484W        W89100  16.614  38.537  12.022
17485W        W89101   9.476   3.807  11.996
17486W        W89102   4.345  20.211   0.572
17487W        W89103  20.447  22.226   4.085
17488W        W89104  41.491  25.728  13.620
17489W        W89105  24.939  13.517   3.853
17490W        W89106  10.826  38.575  12.541
17491W        W89107  44.097  14.270  11.422
17492W        W89108  24.518  44.759  12.695
17493W        W89109  10.771  32.148  13.834
17494W        W89110  27.481   7.653   2.569
17495W        W89111  27.894  28.151   2.955
17496W        W89112  34.542  14.178   3.096
17497W        W89113  12.137   1.765   0.001
17498W        W89114  44.365   6.196   1.750
17499W        W89115  32.990  28.902   9.849
17500W        W89116  22.451  30.518  12.915
17501W        W89117  41.836  14.344  14.051
17502W        W89118  21.748  31.498   3.304
17503W        W89119  28.517   8.692   3.170
17504W        W89120  29.873  23.852   1.008
17505W        W89121  30.514  13.138  11.102
17506W        W89122  26.151  41.135  10.818
17507W        W89123   8.890  18.976   4.166
17508W        W89124  44.793  42.788   3.146
17509W        W89125  44.502  40.413   3.327
17510W        W89126  36.816   5.051  14.820
17511W        W89127   0.098  42.981   0.857
17512W        W89128  28.051  13.161   3.570
17513W        W89129  14.032  42.783  13.555
17514W        W89130  18.719  36.407   4.430
17515W        W89131   9.383  19.172   3.062
17516W        W89132  14.458  30.118  11.035
17517W        W89133   1.042   0.094  13.729
17518W        W89134  17.342  26.058  12.548
17519W        W89135  34.097  39.227   3.752
17520W        W89136   4.838   7.371   3.293
17521W        W89137  42.345   8.068   1.425
17522W        W89138  29.948  32.232   1.894
17523W        W89139  10.626  29.014   0.770
17524W        W89140  29.707  33.242   2.757
17525W        W89141  42.515  11.621   4.167
17526W        W89142  20.054  12.948  14.860
17527W        W89143  15.560   8.446  11.561
17528W        W89144  26.180   1.539  13.848
17529W        W89145  19.737  13.329   0.543
17530W        W89146  24.959   6.292   3.326
17531W        W89147  13.455  22.660  14.255
17532W        W89148  34.199   3.288  11.164
17533W        W89149  28.515  33.864  12.816
17534W        W89150   1.314  42.977  11.790
17535W        W89151   6.808  29.457   2.837
17536W        W89152   3.338   8.605   5.190
17537W        W89153  14.366  25.535  14.587
17538W        W89154  39.779  28.077   4.855
17539W        W89155  34.242   3.020  12.187
17540W        W89156  10.428  11.291   3.567
17541W        W89157  33.969  11.194  12.602
17542W        W89158  23.771   4.988  11.118
17543W        W89159  15.620  26.715   1.466
17544W        W89160   0.352  33.609   1.909
17545W        W89161  19.998  20.517  11.411
17546W        W89162  10.214  36.090  12.945
17547W        W89163  36.125  44.362   2.775
17548W        W89164   3.636  37.877   1.675
17549W        W89165  30.648  34.875  12.060
17550W        W89166  15.086  12.608   4.072
17551W        W89167  36.671  24.507   4.415
17552W        W89168  26.177  35.919  13.851
17553W        W89169  18.736  12.513   5.196
17554W        W89170  17.050  31.588   4.513
17555W        W89171  33.804  10.092  13.862
17556W        W89172   1.321  16.105  14.329
17557W        W89173  40.482  20.966  11.938
17558W        W89174  13.867  43.815  12.588
17559W        W89175  25.990   3.830  12.461
17560W        W89176  14.303  29.573  13.488
17561W        W89177  21.600   5.842   2.396
17562W        W89178  21.505  35.934   0.419
17563W        W89179   3.871   4.986   1.424
17564W        W89180  20.191   8.825   3.829
17565W        W89181   7.624  16.247  13.828
17566W        W89182  18.724   1.229  10.693
17567W        W89183  21.463  22.196   4.871
17568W        W89184   3.864   1.371  14.536
17569W        W89185  21.771  13.314   1.701
17570W        W89186  19.934  20.498   1.477
17571W        W89187  13.177  25.014  11.527
17572W        W89188  42.806  34.983  11.995
17573W        W89189   5.694  34.144   1.200
17574W        W89190   6.234  29.473  12.003
17575W        W89191  16.406  32.031   2.127
17576W        W89192  43.485   1.846   2.936
17577W        W89193  10.949  25.115   3.436
17578W        W89194   2.816  22.180   1.213
17579W        W89195  32.500  19.308  10.651
17580W        W89196  23.845  18.621  13.987
17581W        W89197  17.625  37.816   4.825
17582W        W89198  33.733  35.882   0.292
17583W        W89199   2.830  25.890  11.074
17584W        W89200  30.888  33.329  11.033
17585W        W89201  12.792   9.276  10.793
17586W        W89202   9.353   5.845  10.629
17587W        W89203   1.516  22.791   2.698
17588W        W89204   6.360   5.416   1.169
17589W        W89205  40.022  29.642   0.288
17590W        W89206  35.356  22.311  13.810
17591W        W89207  27.584  36.878  13.716
17592W        W89208  23.694  34.046   0.239
17593W        W89209  34.070  35.543  13.095
17594W        W89210  44.394  40.316   1.689
17595W        W89211   4.656   4.305   3.264
17596W        W89212  40.123  26.197   2.390
17597W        W89213   7.875   8.759   1.174
17598W        W89214   7.743  38.143  10.870
17599W        W89215   9.244  37.917   2.246
17600W        W89216  43.281  37.212   4.616
17601W        W89217   6.617  44.848   3.724
17602W        W89218   6.879   8.981  13.893
17603W        W89219  35.884  18.448  12.051
17604W        W89220  11.834  10.228  13.034
17605W        W89221  23.177  19.186   1.125
17606W        W89222  32.150  29.594  12.512
17607W        W89223  40.727  39.472   2.908
17608W        W89224  43.336  24.357   2.251
17609W        W89225  19.004   9.640  11.040
17610W        W89226   3.342  38.655  13.087
17611W        W89227  44.373  37.066  14.011
17612W        W89228  15.615  38.485  13.899
17613W        W89229  38.988  30.503  12.464
17614W        W89230  29.562  40.569   1.797
17615W        W89231  43.944  26.720   1.314
17616W        W89232  33.452  22.562  10.694
17617W        W89233  40.402  11.015   3.217
17618W        W89234  40.602  37.243  14.801
17619W        W89235  40.466  28.746  13.021
17620W        W89236  27.105  13.806   1.704
17621W        W89237  36.925  44.954  11.658
17622W        W89238  40.979  19.161  13.978
17623W        W89239  12.839   6.505  14.465
17624W        W89240  23.221  30.356   2.451
17625W        W89241  11.897   7.191   1.693
17626W        W89242  44.685  30.571   2.746
17627W        W89243  12.898  30.532  12.422
17628W        W89244  41.932   9.507  10.889
17629W        W89245  20.658  14.154   5.088
17630W        W89246  21.766  38.071   3.712
17631W        W89247  23.698  17.758  13.975
17632W        W89248   2.972  34.195   0.686
17633W        W89249  23.467  41.000  14.360
17634W        W89250  24.959  11.887  13.470
17635W        W89251   2.966   9.880   1.199
17636W        W89252  27.322  36.271  12.496
17637W        W89253  19.034  35.284  13.934
17638W        W89254   7.837  40.701   1.028
17639W        W89255  40.549  28.921  13.517
17640W        W89256  38.509  38.515   4.649
17641W        W89257  13.902   3.380   0.032
17642W        W89258  40.428   4.641   3.766
17643W        W89259  22.650   1.243  11.734
17644W        W89260  28.133   5.776   3.239
17645W        W89261  27.045  31.771  12.814
17646W        W89262  18.594  23.206   0.748
17647W        W89263   9.814  38.073   3.865
17648W        W89264  35.904  39.507   3.357
17649W        W89265  35.105   1.641   2.701
17650W        W89266   7.368  37.958   3.166
17651W        W89267  19.817  37.975   3.246
17652W        W89268   2.328  40.728   0.244
17653W        W89269  23.707  10.269  13.851
17654W        W89270  16.055   4.758  13.380
17655W        W89271  22.636  32.382  12.157
17656W        W89272   4.386   5.741  12.426
17657W        W89273   4.690   1.036   5.118
17658W        W89274  15.123  24.131  12.662
17659W        W89275  16.255  19.871  10.697
17660W        W89276   8.213   7.067  14.405
17661W        W89277  25.522  35.420   3.260
17662W        W89278  37.023   0.918  13.135
17663W        W89279   2.742  39.242  12.597
17664W        W89280  20.093   6.184   2.339
17665W        W89281  24.638  11.154  14.449
17666W        W89282  14.039   3.815  10.534
17667W        W89283  21.293  10.692  11.845
17668W        W89284   0.673   3.465   2.085
17669W        W89285  39.906  25.003   4.521
17670W        W89286  44.267  14.785   1.839
17671W        W89287  26.500   1.456  11.477
17672W        W89288  27.359   1.290   3.145
17673W        W89289   1.038   2.031  13.540
17674W        W89290  41.791  42.422  12.893
17675W        W89291   9.419  40.005  14.209
17676W        W89292   5.045  30.242  13.366
17677W        W89293   1.676  18.190   3.740
17678W        W89294  30.162   7.715   3.124
17679W        W89295  24.145  38.566   4.821
17680W        W89296  37.541  41.976   1.834
17681W        W89297  39.853   6.112  12.391
17682W        W89298   9.431  43.210   1.279
17683W        W89299   0.128  37.904  12.431
17684W        W89300  39.040  29.110   4.710
17685W        W89301  33.656   2.228   3.635
17686W        W89302  33.098  25.285   0.576
17687W        W89303  24.016  25.226   1.448
17688W        W89304   6.422  11.781   0.267
17689W        W89305  43.012  37.879  11.492
17690W        W89306   8.860   2.103   1.206
17691W        W89307   2.797  26.001   0.386
17692W        W89308  42.159  26.146  14.320
17693W        W89309  31.209  23.571   2.332
17694W        W89310  40.818   9.948  11.648
17695W        W89311  44.696  28.160  13.909
17696W        W89312  30.141  32.956   3.855
17697W        W89313   3.512   9.374  12.590
17698W        W89314  43.326  13.362   3.089
17699W        W89315   6.120  35.913   1.918
17700W        W89316  43.376  21.819  14.260
17701W        W89317  19.260  43.258  10.584
17702W        W89318  10.580  29.125  11.232
17703W        W89319  38.513  36.409   4.051
17704W        W89320   5.383  30.985  14.229
17705W        W89321   6.139  14.263  10.661
17706W        W89322  20.084  23.524  13.016
17707W        W89323  10.726  34.807   5.057
17708W        W89324  14.808  11.243  11.563
17709W        W89325  41.439  44.331   2.407
17710W        W89326  37.219  43.238  12.478
17711W        W89327  30.020  31.055   0.005
17712W        W89328   9.261  35.190   2.356
17713W        W89329  33.901  38.768   1.496
17714W        W89330   9.411  33.906   4.288
17715W        W89331   1.920  21.771  12.776
17716W        W89332  34.529  23.148   0.977
17717W        W89333  36.447  21.101   4.485
17718W        W89334   1.008  26.825   4.151
17719W        W89335  14.572   4.415  14.067
17720W        W89336  39.693  16.715  13.163
17721W        W89337  39.603  41.984  13.333
17722W        W89338  41.180  43.942  13.174
17723W        W89339  17.766  30.407   0.402
17724W        W89340   6.098  39.939  14.026
17725W        W89341   7.162   5.831   1.454
17726W        W89342  20.776   9.541  12.026
17727W        W89343  40.345   5.302  12.649
17728W        W89344  18.685  12.914  11.550
17729W        W89345   7.236  36.031   0.138
17730W        W89346  39.937  10.971  14.412
17731W        W89347   9.822   0.016  12.089
17732W        W89348  34.330   2.989  14.016
17733W        W89349  27.902  44.406  14.815
17734W        W89350  19.652  24.036   0.171
17735W        W89351   3.683   7.474   1.821
17736W        W89352  38.426  18.525   1.742
17737W        W89353   9.212  34.474   3.217
17738W        W89354   6.841  35.903  11.991
17739W        W89355  31.920  35.579  11.925
17740W        W89356  21.042  17.113  13.378
17741W        W89357  32.589  18.549   2.810
17742W        W89358  28.461  36.807  11.056
17743W        W89359   4.044  24.789  11.776
17744W        W89360  33.170  28.055  12.390
17745W        W89361  30.456  11.693   2.217
17746W        W89362  10.648  38.128  13.227
17747W        W89363  10.828  17.168   2.077
17748W        W89364  36.870  19.523   3.671
17749W        W89365  31.130   1.871   2.532
17750W        W89366   4.172  20.970   3.856
17751W        W89367  11.841   6.876  10.861
17752W        W89368   9.132  30.980   3.203
17753W        W89369   6.765  13.730   2.941
17754W        W89370   8.668   0.828   1.789
17755W        W89371  27.073  28.784   1.414
17756W        W89372  35.169   2.627   0.672
17757W        W89373   0.540  34.490  14.318
17758W        W89374  37.954  30.255   1.174
17759W        W89375  26.042  35.554   2.333
17760W        W89376  14.712  19.490   4.971
17761W        W89377  10.697  19.835  11.594
17762W        W89378   4.033   2.877  11.716
17763W        W89379  41.020  14.786   2.934
17764W        W89380  16.529   8.643   0.915
17765W        W89381   8.926  23.979  11.953
17766W        W89382  42.854  38.127  14.386
17767W        W89383   7.348  38.738  13.941
17768W        W89384  10.768  34.200  13.447
17769W        W89385   6.423  32.005  10.066
17770W        W89386  20.285  31.489   4.709
17771W        W89387   3.623  13.225   1.730
17772W        W89388  32.584  14.831  13.717
17773W        W89389  32.963  28.478   4.168
17774W        W89390  42.728   0.298   0.215
17775W        W89391  23.237   0.868  11.155
17776W        W89392  43.682  12.421  10.645
17777W        W89393  19.103  34.113   4.565
17778W        W89394  40.518   8.791   3.606
17779W        W89395   2.263  18.117  12.409
17780W        W89396  35.756  21.731   3.939
17781W        W89397  32.564  34.130   3.167
17782W        W89398   1.251   9.078   1.901
17783W        W89399  44.989  17.024   4.119
17784W        W89400  21.694  15.096  13.720
17785W        W89401   8.058  24.263  13.823
17786W        W89402  23.235  33.135   0.891
17787W        W89403   7.334   3.000  12.838
17788W        W89404  20.002  35.564   4.155
17789W        W89405  40.317  19.640  10.673
17790W        W89406   7.676   9.614  12.599
17791W        W89407  34.580  43.038   1.805
17792W        W89408  37.808  23.663  13.178
17793W        W89409  24.215  20.742   2.870
17794W        W89410  17.750  29.193   3.198
17795W        W89411   6.442  31.001   4.149
17796W        W89412  36.381  10.635  13.528
17797W        W89413   2.741  30.429   0.263
17798W        W89414   1.954  21.551  10.725
17799W        W89415  16.257  35.828  12.574
17800W        W89416  20.383   7.080   3.236
17801W        W89417  44.543  28.523   1.823
17802W        W89418  44.437  31.164  13.558
17803W        W89419  40.793  39.951  14.790
17804W        W89420  27.892  44.788   0.820
17805W        W89421  11.374  38.142  14.591
17806W        W89422  10.473  38.974   0.556
17807W        W89423   8.322   0.418   4.727
17808W        W89424  19.152  40.299  13.433
17809W        W89425  39.868  20.751  12.432
17810W        W89426  14.498  41.848   1.864
17811W        W89427  40.486  43.326   1.928
17812W        W89428   6.401  11.700   2.250
17813W        W89429  13.464  17.204   4.613
17814W        W89430   9.307  11.232  11.972
17815W        W89431  11.296   1.493  14.027
17816W        W89432  14.859  33.004  12.185
17817W        W89433  32.293  31.434  11.877
17818W        W89434  24.056  24.199  11.927
17819W        W89435   9.805  35.051   1.362
17820W        W89436  44.175  23.449  14.050
17821W        W89437  28.209  10.129   3.146
17822W        W89438  41.157  21.374  11.197
17823W        W89439  17.821  44.428  13.784
17824W        W89440   7.628   3.364   1.000
17825W        W89441  36.937  41.290  10.589
17826W        W89442   4.502   4.662  11.176
17827W        W89443   9.359   7.919   1.270
17828W        W89444   0.856  40.420   0.363
17829W        W89445   6.092  41.427   4.228
17830W        W89446  21.643  41.283   4.800
17831W        W89447  18.769  16.224   2.299
17832W        W89448  37.299  11.497  13.355
17833W        W89449  21.484  28.675   3.704
17834W        W89450  13.195  14.570  14.467
17835W        W89451  15.729  26.403  12.862
17836W        W89452   9.795   6.746  10.511
17837W        W89453  33.341  40.073  11.691
17838W        W89454  30.581  29.128   2.445
17839W        W89455  11.092   1.034  12.158
17840W        W89456  15.609  41.822  12.346
17841W        W89457  19.796  14.346   1.395
17842W        W89458  19.438  38.022  11.554
17843W        W89459   9.165   1.307   0.417
17844W        W89460  18.548  30.394   2.417
17845W        W89461   6.660  38.144  11.154
17846W        W89462  23.537  23.035   1.913
17847W        W89463  31.068  34.438  13.535
17848W        W89464   8.833  23.462  11.959
17849W        W89465  27.436  44.308   4.130
17850W        W89466  21.631  26.091   0.022
17851W        W89467  20.212  30.565   1.753
17852W        W89468  16.541  23.104  12.873
17853W        W89469  30.989  26.737   3.302
17854W        W89470  28.102  37.137   3.676
17855W        W89471  29.979   8.311  13.899
17856W        W89472  30.540  29.838   1.959
17857W        W89473  18.343   6.985  11.244
17858W        W89474  15.656  36.979   4.240
17859W        W89475  26.622  26.151   5.042
17860W        W89476  43.231   2.776   1.491
17861W        W89477  29.833  42.403  10.611
17862W        W89478  10.924  34.595  10.596
17863W        W89479  17.981  16.577   5.119
17864W        W89480  44.460  32.771   2.366
17865W        W89481  29.194  31.653   1.540
17866W        W89482  35.575  29.492  11.708
17867W        W89483   4.294  41.026  14.792
17868W        W89484  22.989  18.073  13.903
17869W        W89485  28.311  33.592   5.154
17870W        W89486  39.265   9.832   1.822
17871W        W89487  13.185  18.614   2.466
17872W        W89488   1.369  36.064  11.409
17873W        W89489  42.337  19.469   3.252
17874W        W89490  21.028  18.626  10.725
17875W        W89491  26.136  38.776   0.299
17876W        W89492  36.561  37.228  14.339
17877W        W89493  23.020  39.118   1.307
17878W        W89494  42.341  15.039   2.430
17879W        W89495   9.171  26.223  10.364
17880W        W89496  33.855  35.137   3.242
17881W        W89497  31.464  16.698  13.108
17882W        W89498  25.325   3.277   0.377
17883W        W89499  18.800  11.838   3.234
17884W        W89500   9.106  40.279  13.123
17885W        W89501  14.049  18.524   1.864
17886W        W89502  40.014  23.946  13.576
17887W        W89503  22.921   8.659   2.453
17888W        W89504   0.178   6.486  11.372
17889W        W89505   6.477   3.515  13.805
17890W        W89506   9.148  43.918   3.651
17891W        W89507  13.178  18.615   0.733
17892W        W89508  44.567   4.796  11.443
17893W        W89509  30.167  38.100   4.221
17894W        W89510  16.053  23.998  12.524
17895W        W89511  32.495  23.645  12.304
17896W        W89512  32.502  20.675   1.576
17897W        W89513   6.211  18.821  12.059
17898W        W89514  39.525  10.835  11.648
17899W        W89515  17.178  35.663  12.087
17900W        W89516  34.649  37.527  13.837
17901W        W89517  33.512  33.902  10.560
17902W        W89518   1.047   0.555   4.764
17903W        W89519  21.500   3.432   4.887
17904W        W89520  42.222  14.730  13.482
17905W        W89521  44.677  17.654   0.705
17906W        W89522  44.364  39.033  11.052
17907W        W89523  44.861   7.837  10.591
17908W        W89524  33.898  24.655  14.876
17909W        W89525  22.966  16.091  14.784
17910W        W89526  24.699   5.198  12.337
17911W        W89527  10.359   6.785   3.406
17912W        W89528  18.568   4.215  11.912
17913W        W89529  19.062  13.737  12.928
17914W        W89530  44.254  11.337  12.358
17915W        W89531  16.095   4.174   3.195
17916W        W89532  40.257   8.400  10.999
17917W        W89533   2.281  40.896   9.964
17918W        W89534  17.814  19.846  10.933
17919W        W89535   2.301  27.278   4.767
17920W        W89536  12.608  39.353   0.923
17921W        W89537  43.698   8.807  13.857
17922W        W89538  19.790  11.024  14.337
17923W        W89539  22.205   9.385   3.714
17924W        W89540  33.092  21.976  12.681
17925W        W89541   1.806  21.640  14.258
17926W        W89542  29.626   4.709  11.570
17927W        W89543  18.023  37.487  14.472
17928W        W89544  23.191  26.920  11.010
17929W        W89545   7.636   8.097  11.067
17930W        W89546  34.348  23.491   2.372
17931W        W89547  35.826  15.951   4.188
17932W        W89548   4.981  19.367  12.868
17933W        W89549  23.494   3.272  13.161
17934W        W89550  39.191  30.261   4.039
17935W        W89551  35.807  43.793  10.678
17936W        W89552  35.909   3.395   3.539
17937W        W89553  43.833  42.187  14.318
17938W        W89554  40.169  37.480   4.013
17939W        W89555  10.900  28.724  11.239
17940W        W89556  37.506  44.829   0.719
17941W        W89557  29.438  20.717  10.877
17942W        W89558  36.099  10.296   2.388
17943W        W89559  19.506  27.439  12.123
17944W        W89560  25.416   6.827   0.840
17945W        W89561  36.370  33.523   3.835
17946W        W89562   6.490  21.259   0.737
17947W        W89563  26.043   0.611  11.582
17948W        W89564  22.779  21.877   3.288
17949W        W89565  29.919  32.400  12.054
17950W        W89566   7.786  41.383  14.373
17951W        W89567  16.855   7.771   3.163
17952W        W89568  18.528  20.344   0.874
17953W        W89569   7.438   2.176   1.727
17954W        W89570  21.665  13.799  14.408
17955W        W89571  37.867  12.041   1.881
17956W        W89572  21.039  40.854  12.404
17957W        W89573  31.984   0.893   4.480
17958W        W89574  32.615   8.308   0.948
17959W        W89575  26.213  17.270  11.277
17960W        W89576  33.379  39.531   4.120
17961W        W89577  16.643   6.246  11.434
17962W        W89578  20.972   1.915  12.058
17963W        W89579  31.646  14.792  13.886
17964W        W89580  43.519  21.087   3.273
17965W        W89581  43.290   6.051  11.090
17966W        W89582  26.012   7.678   3.549
17967W        W89583  37.332  44.907  10.346
17968W        W89584  14.550  13.661  12.183
17969W        W89585  23.258  12.614   2.291
17970W        W89586  33.944  31.838  11.339
17971W        W89587  39.047  30.283  13.318
17972W        W89588  22.763  11.994   2.609
17973W        W89589  32.581  30.454   2.796
17974W        W89590   8.940   1.444   3.300
17975W        W89591  31.267  12.808  10.198
17976W        W89592  32.978  23.387  11.604
17977W        W89593  13.071  30.929  10.422
17978W        W89594  43.015   4.587   4.594
17979W        W89595  36.962  18.316   0.891
17980W        W89596  18.704   0.238  12.568
17981W        W89597  40.716   5.012  10.475
17982W        W89598  43.765   2.208  11.091
17983W        W89599  40.906  18.621   3.831
17984W        W89600  12.758  20.309  13.759
17985W        W89601  42.782  33.530  14.341
17986W        W89602  38.874  40.497  10.685
17987W        W89603  33.528  38.325   0.728
17988W        W89604  16.359  44.317   0.341
17989W        W89605  14.368  11.449   3.284
17990W        W89606  18.206  29.469   3.191
17991W        W89607  42.971  16.223  11.129
17992W        W89608  12.047  16.803  11.562
17993W        W89609   5.846  16.486   2.272
17994W        W89610   3.323  13.222   3.100
17995W        W89611   2.278  23.067   2.289
17996W        W89612  15.223  26.471  13.553
17997W        W89613  22.315  23.605  10.162
17998W        W89614  24.829  39.010   3.776
17999W        W89615  40.959  42.938   0.266
18000W        W89616  44.317  18.483  11.583
18001W        W89617  10.183  33.098   1.348
18002W        W89618  14.127   0.965   1.412
18003W        W89619  10.746  35.159  12.210
18004W        W89620  39.695  26.945  11.443
18005W        W89621  20.132  27.940   2.447
18006W        W89622  13.296  15.170  10.629
18007W        W89623  17.604  30.504  12.063
18008W        W89624  13.784  29.622  11.994
18009W        W89625   0.014   2.363  12.491
18010W        W89626  10.814  22.797   2.959
18011W        W89627  15.302  38.034   2.811
18012W        W89628  37.901  17.854   1.420
18013W        W89629  22.615   4.392   0.370
18014W        W89630  44.947  39.406  13.381
18015W        W89631  28.587   4.706   3.764
18016W        W89632  41.774  22.483  13.285
18017W        W89633  11.841  29.077  14.646
18018W        W89634  27.065  10.214  14.843
18019W        W89635   7.924   6.683  10.967
18020W        W89636  11.230  22.683   1.264
18021W        W89637   6.677  43.925   2.769
18022W        W89638  28.565  34.316  10.917
18023W        W89639  41.512  18.200   1.290
18024W        W89640  11.066  32.416  14.231
18025W        W89641   7.250  27.743   1.423
18026W        W89642  41.220  27.708   4.535
18027W        W89643  13.141   4.634  10.253
18028W        W89644  24.920  33.182   1.888
18029W        W89645  35.352  14.576   4.573
18030W        W89646  28.042  34.616  12.661
18031W        W89647  20.708  36.565   0.638
18032W        W89648   5.532  18.711  13.208
18033W        W89649  17.808  15.245  11.478
18034W        W89650  43.487   2.006  12.235
18035W        W89651  43.264  37.247  12.054
18036W        W89652  15.331  26.557  11.222
18037W        W89653  33.771   1.047   2.232
18038W        W89654  28.439   8.639  11.343
18039W        W89655  37.000  41.894  12.165
18040W        W89656  34.043  17.797   4.396
18041W        W89657  16.634  33.141  14.985
18042W        W89658  44.534  13.299  14.854
18043W        W89659  10.647  37.957   3.404
18044W        W89660  15.057   8.151   3.316
18045W        W89661   9.734  25.778  14.702
18046W        W89662  19.276  29.352  14.346
18047W        W89663  36.774  40.864  10.306
18048W        W89664  17.034  44.490   0.927
18049W        W89665  11.597  42.683   0.400
18050W        W89666  10.914  12.442  11.403
18051W        W89667  15.376  22.527   4.117
18052W        W89668  18.246  41.937   5.047
18053W        W89669  11.196  29.543   1.989
18054W        W89670   7.185  29.940  11.542
18055W        W89671  23.633  13.700  11.227
18056W        W89672  43.042  36.485   4.620
18057W        W89673  37.099  43.098  11.034
18058W        W89674   7.463  35.844   4.525
18059W        W89675  39.469  25.918  13.329
18060W        W89676  22.554  21.742   1.764
18061W        W89677  39.896  10.960   9.934
18062W        W89678   9.215  34.035   0.241
18063W        W89679  42.554  10.169   4.876
18064W        W89680  35.725   5.568  13.661
18065W        W89681   0.683  14.645   1.804
18066W        W89682   2.458  43.769  13.874
18067W        W89683   2.216  38.467  13.038
18068W        W89684  28.238   2.348   2.856
18069W        W89685   1.209   1.922   4.391
18070W        W89686  26.550  10.265  14.086
18071W        W89687  14.119  26.936   4.185
18072W        W89688  20.782  18.381   0.160
18073W        W89689  19.988  37.986  13.104
18074W        W89690  21.061   8.549  14.822
18075W        W89691   9.300  20.027   2.296
18076W        W89692  42.936  44.041  14.854
18077W        W89693  23.791  28.901   4.626
18078W        W89694  35.990   8.476   2.004
18079W        W89695  31.870  21.340  14.386
18080W        W89696  34.907  41.270   3.737
18081W        W89697  11.325  22.745   4.186
18082W        W89698  21.778  10.739   4.153
18083W        W89699  33.864  18.859   2.399
18084W        W89700  10.389  11.629  11.083
18085W        W89701  43.463  19.691   1.627
18086W        W89702  29.190  43.732  12.545
18087W        W89703  27.970  44.945   3.130
18088W        W89704  30.672  36.213   4.899
18089W        W89705   9.693   2.981  10.511
18090W        W89706  22.364  31.114  14.096
18091W        W89707  14.832   1.395   0.376
18092W        W89708  18.388  27.099   4.676
18093W        W89709  21.209  16.100   0.976
18094W        W89710  34.473   4.048  11.108
18095W        W89711  21.777  30.025   1.285
18096W        W89712  29.990  17.226   3.472
18097W        W89713  14.207  42.685   4.654
18098W        W89714  12.597  40.057  11.699
18099W        W89715  14.685   3.490   5.483
18100W        W89716  21.696   0.725   1.403
18101W        W89717  36.040   3.813   0.503
18102W        W89718  35.838  16.907   0.504
18103W        W89719  11.278   2.377  13.450
18104W        W89720   3.704   3.905  12.716
18105W        W89721  33.157   9.478   2.119
18106W        W89722  13.374  11.235  13.789
18107W        W89723  31.450  38.004  11.576
18108W        W89724  39.357  12.340   0.423
18109W        W89725  36.040   3.441   1.835
18110W        W89726  29.903  17.080  10.909
18111W        W89727  11.877  24.295  13.308
18112W        W89728  21.189  24.324  11.567
18113W        W89729  34.875  29.434  14.275
18114W        W89730  30.674  38.805   4.247
18115W        W89731   1.588  43.079   1.514
18116W        W89732  22.412  41.281   5.100
18117W        W89733  37.513   5.784   0.938
18118W        W89734  32.650  31.709   3.166
18119W        W89735   4.152  17.589   2.702
18120W        W89736  39.079  27.662  13.439
18121W        W89737  26.038  22.132   1.230
18122W        W89738   6.395   8.749  14.418
18123W        W89739  31.571  33.526   4.553
18124W        W89740  37.026  44.047  13.435
18125W        W89741  33.941  41.203  11.551
18126W        W89742  18.484  38.661  11.038
18127W        W89743  31.808  31.887   2.834
18128W        W89744  26.711  31.305  11.956
18129W        W89745  42.236  24.168  12.098
18130W        W89746  34.432  35.923  14.484
18131W        W89747  25.064  30.691  10.645
18132W        W89748  29.588   2.219  10.706
18133W        W89749  10.809   8.570  12.996
18134W        W89750  11.383   3.349   1.067
18135W        W89751  39.981   1.937  13.484
18136W        W89752  32.500  28.112   2.359
18137W        W89753   4.918  11.092   2.275
18138W        W89754  42.282  22.601  13.500
18139W        W89755  15.179  42.136  14.354
18140W        W89756  26.868  43.516  10.445
18141W        W89757  32.145  38.535   2.724
18142W        W89758  22.309   7.943   2.698
18143W        W89759   5.389  20.054  14.839
18144W        W89760  12.207  39.817  11.481
18145W        W89761  37.384  11.233   4.004
18146W        W89762  37.953  18.905  10.665
18147W        W89763  23.460  44.813  13.147
18148W        W89764  29.669  19.156   0.528
18149W        W89765  14.344  19.317  13.846
18150W        W89766   4.296   3.814  14.973
18151W        W89767  31.883  30.193   1.712
18152W        W89768   2.884  40.459   4.960
18153W        W89769  12.151  42.257  14.062
18154W        W89770  40.038  28.067  14.324
18155W        W89771  30.327  21.025   4.189
18156W        W89772  10.583  32.338  12.569
18157W        W89773  33.591  26.834   4.880
18158W        W89774  11.701  15.112  12.941
18159W        W89775  21.121  26.229  10.806
18160W        W89776  36.345  36.859   4.676
18161W        W89777  23.950  20.505  12.933
18162W        W89778  18.820   1.350   3.446
18163W        W89779  16.181  28.665   4.450
18164W        W89780  35.370  44.744   2.753
18165W        W89781   6.414  41.901  12.644
18166W        W89782  25.136  27.475  13.475
18167W        W89783  11.739  39.585  11.540
18168W        W89784   3.495  16.740   1.011
18169W        W89785   6.453  12.851  11.959
18170W        W89786  29.550  15.040   9.957
18171W        W89787  31.718  39.915   1.833
18172W        W89788  14.530   5.422  10.342
18173W        W89789  27.059  28.162   2.857
18174W        W89790   5.326   1.308   1.610
18175W        W89791  24.889  26.664  10.522
18176W        W89792   0.502  43.909   3.147
18177W        W89793  26.070   9.597  10.660
18178W        W89794  23.576  29.142   3.620
18179W        W89795  14.015  28.561   1.340
18180W        W89796  23.919  44.649  14.920
18181W        W89797  19.590  10.272  10.512
18182W        W89798  20.205   2.750   0.557
18183W        W89799  39.662  16.698   0.458
18184W        W89800  40.353  33.962  11.181
18185W        W89801   6.817  10.753   4.183
18186W        W89802  28.729  32.460  14.657
18187W        W89803  24.956  17.060  11.979
18188W        W89804  14.135  29.862   0.256
18189W        W89805  31.409  24.559   4.750
18190W        W89806  24.551  35.709   4.183
18191W        W89807  19.984   5.329   0.298
18192W        W89808  30.066   7.797   4.678
18193W        W89809  14.374   0.337   1.948
18194W        W89810  24.996  26.683   9.985
18195W        W89811   2.504   2.382  14.757
18196W        W89812  16.127   6.220   4.164
18197W        W89813   3.762  22.489   4.743
18198W        W89814  44.408  13.811   3.631
18199W        W89815   5.671  40.377   1.113
18200W        W89816  11.758  43.010   4.684
18201W        W89817   3.553   2.853  14.605
18202W        W89818  12.801  16.749  11.962
18203W        W89819   7.161  14.534  14.839
18204W        W89820  31.920   4.015   0.321
18205W        W89821  30.391   6.866  10.802
18206W        W89822  26.469  27.849  12.096
18207W        W89823  39.290  14.303  12.143
18208W        W89824  15.779   2.887  13.933
18209W        W89825  14.229  31.599   1.724
18210W        W89826  20.163  11.163   3.152
18211W        W89827   3.527  27.903   4.648
18212W        W89828  34.190  12.777  13.496
18213W        W89829  24.225  21.572   3.259
18214W        W89830  37.458  32.032   3.110
18215W        W89831   5.296   6.517   4.292
18216W        W89832  26.162  13.599  10.050
18217W        W89833   7.034  13.318  11.164
18218W        W89834  13.813  19.843   1.718
18219W        W89835  17.736  40.817   3.314
18220W        W89836  39.288  27.034  14.793
18221W        W89837  24.598  16.242   4.860
18222W        W89838  30.680  32.796  13.136
18223W        W89839  40.444   8.439  10.525
18224W        W89840  26.864  17.739   4.157
18225W        W89841   3.856  28.558  10.323
18226W        W89842  42.916  42.077   3.081
18227W        W89843  22.262  14.749  11.434
18228W        W89844  11.575  43.035  11.678
18229W        W89845  32.590  15.305   1.675
18230W        W89846  33.911   1.539   1.357
18231W        W89847  12.174  42.900   2.879
18232W        W89848  34.988  13.550  11.008
18233W        W89849  13.378  36.989   1.670
18234W        W89850  16.735  31.484  12.937
18235W        W89851   7.121   3.841  11.664
18236W        W89852  41.246  28.528   2.654
18237W        W89853  26.066  22.206   0.188
18238W        W89854  11.319  12.934  11.541
18239W        W89855  27.327  30.325   1.261
18240W        W89856   6.958   3.817  12.586
18241W        W89857  41.313  13.623   3.309
18242W        W89858   1.285   7.477   3.143
18243W        W89859  31.994  36.095  14.017
18244W        W89860  34.988   6.373   3.065
18245W        W89861  29.531  19.053  11.485
18246W        W89862   4.686   7.611   2.820
18247W        W89863   9.589  25.083   0.739
18248W        W89864  28.988  39.346   4.264
18249W        W89865   3.012  41.982   2.736
18250W        W89866  18.153  12.358   2.718
18251W        W89867   0.283  20.482   3.155
18252W        W89868   1.302  25.781   1.364
18253W        W89869  44.382  14.296  13.958
18254W        W89870  22.548  30.924   1.443
18255W        W89871  33.467  23.634   0.306
18256W        W89872  39.115  42.728   0.804
18257W        W89873  38.011  13.835  13.356
18258W        W89874   2.473  40.020  12.137
18259W        W89875  23.653  12.524  14.290
18260W        W89876  26.674  37.737  11.145
18261W        W89877  28.221  43.396  12.984
18262W        W89878  13.075  32.548  12.126
18263W        W89879  12.589  14.356   3.381
18264W        W89880  36.594   7.184  10.930
18265W        W89881  18.498  26.405   1.334
18266W        W89882  26.554  16.695   2.606
18267W        W89883  31.303  41.369   2.906
18268W        W89884  32.063  31.428  13.080
18269W        W89885   4.707  22.651   3.159
18270W        W89886   3.599  19.654   4.360
18271W        W89887  26.841  15.613   0.194
18272W        W89888   7.276   4.449  13.972
18273W        W89889  44.517  42.435   1.789
18274W        W89890  43.546  28.992   0.944
18275W        W89891   5.166  31.100   2.864
18276W        W89892   7.662   3.908   4.056
18277W        W89893  33.187   9.832  12.504
18278W        W89894  11.639  14.099  10.658
18279W        W89895  17.807  23.769   3.791
18280W        W89896  33.846  41.365  14.929
18281W        W89897  33.038  41.118   1.764
18282W        W89898  38.244  43.394  10.726
18283W        W89899   0.967  32.006  13.365
18284W        W89900  31.911  25.179  13.864
18285W        W89901  38.846  26.496   4.177
18286W        W89902   2.436  14.240  14.581
18287W        W89903  11.785  26.502   1.186
18288W        W89904  10.923  36.373  14.886
18289W        W89905  16.136   3.311   0.867
18290W        W89906  10.864  32.823  14.494
18291W        W89907  26.499  33.940  14.500
18292W        W89908  13.896  10.907  13.974
18293W        W89909  25.070  15.660   4.305
18294W        W89910  23.684  30.433   3.681
18295W        W89911   3.800  44.157   3.527
18296W        W89912   8.717  35.508  10.632
18297W        W89913  10.316   0.966  13.969
18298W        W89914  44.523  33.145  12.088
18299W        W89915  10.350   8.466  13.248
18300W        W89916  21.510  17.724   3.616
18301W        W89917  37.837  37.039  13.680
18302W        W89918  33.319  34.942   4.098
18303W        W89919  20.903   6.633   2.284
18304W        W89920  12.710  17.152   1.264
18305W        W89921   6.712  29.046  13.777
18306W        W89922  25.978  35.817  14.379
18307W        W89923  20.988  17.625   4.904
18308W        W89924  31.379  14.163   4.590
18309W        W89925  13.557   7.799   3.310
18310W        W89926   5.776  23.452   3.742
18311W        W89927  20.369  14.782   0.840
18312W        W89928  28.364  20.556  13.041
18313W        W89929  20.537  12.393   3.142
18314W        W89930  35.016  18.864  14.891
18315W        W89931  40.117  41.162  13.086
18316W        W89932  11.960  43.877   4.317
18317W        W89933   1.978  15.171   1.683
18318W        W89934  44.625   0.982  12.069
18319W        W89935   5.360   3.388  11.837
18320W        W89936   1.870   9.196   1.021
18321W        W89937  39.204   9.006  11.234
18322W        W89938  31.892  16.779  13.364
18323W        W89939  26.007  11.331  11.236
18324W        W89940  35.891  12.852   3.631
18325W        W89941   2.853  12.629   1.699
18326W        W89942   8.823  31.098   0.373
18327W        W89943   8.219   8.250  14.106
18328W        W89944  35.436   2.687  11.603
18329W        W89945  20.050  27.585  14.507
18330W        W89946   5.821  37.129  11.230
18331W        W89947  42.486  25.864  12.482
18332W        W89948   6.354  29.458   3.233
18333W        W89949  13.418  38.858  14.487
18334W        W89950  28.491  16.227   1.767
18335W        W89951  10.175   3.397   1.708
18336W        W89952  42.259  10.368  12.985
18337W        W89953  16.826  44.228   9.657
18338W        W89954  25.082   5.464  14.905
18339W        W89955  16.959   0.772  13.863
18340W        W89956  23.515  14.739   2.830
18341W        W89957  33.541  16.647  11.619
18342W        W89958  27.652  28.493   4.590
18343W        W89959  30.880  43.861   0.903
18344W        W89960   8.301  10.697  13.361
18345W        W89961   8.797  16.528   0.423
18346W        W89962  29.545  31.441  13.732
18347W        W89963  27.263  30.838   2.614
18348W        W89964  12.797  33.487   2.748
18349W        W89965  25.670  31.765  11.226
18350W        W89966  42.997  42.204  12.337
18351W        W89967   2.361  35.552  14.490
18352W        W89968  28.524  25.987   2.102
18353W        W89969   3.986  33.135   0.737
18354W        W89970  17.542  15.190   0.902
18355W        W89971  42.428  35.484   2.126
18356W        W89972  39.701  15.682   0.363
18357W        W89973  23.037  14.359  10.905
18358W        W89974  37.425  37.230  10.373
18359W        W89975  17.167  22.747   2.976
18360W        W89976   6.031  13.850  10.977
18361W        W89977  12.139  37.003   3.716
18362W        W89978  35.007  20.634   1.972
18363W        W89979  28.094   4.536  12.098
18364W        W89980  11.249  25.568   0.810
18365W        W89981   9.166   6.828  11.540
18366W        W89982  40.532  29.443   3.323
18367W        W89983  27.539  39.880  10.557
18368W        W89984   2.462   0.456   4.556
18369W        W89985   9.496   6.728   3.982
18370W        W89986  15.671   1.747  12.566
18371W        W89987  17.572  22.161   4.023
18372W        W89988   4.322   5.764  13.968
18373W        W89989  16.107  31.716   0.726
18374W        W89990  36.506  37.595   2.391
18375W        W89991  28.427  12.574  12.881
18376W        W89992  41.272  27.662   1.206
18377W        W89993  36.513  36.842   2.681
18378W        W89994  22.256  13.099   3.220
18379W        W89995   9.630  35.870   0.218
18380W        W89996  15.723  41.655   3.797
18381W        W89997  22.047   5.185  12.453
18382W        W89998  22.719  12.670  11.326
18383W        W89999  22.985  40.501  14.002
18384W        W90000  10.158  16.112   0.467
18385W        W90001  35.496   4.875  12.833
18386W        W90002  31.121   8.511  10.717
18387W        W90003  39.829  42.550  11.598
18388W        W90004  39.917  40.801  11.977
18389W        W90005   2.990  15.869   3.243
18390W        W90006  39.976   3.723   4.193
18391W        W90007  10.418  44.456  12.986
18392W        W90008  29.727  11.226   0.357
18393W        W90009   2.037  22.601   0.055
18394W        W90010   4.328  18.257   0.172
18395W        W90011  10.755  14.340   3.011
18396W        W90012  16.031   2.901  14.383
18397W        W90013  28.584  29.434   3.023
18398W        W90014   5.834  14.141   2.777
18399W        W90015  23.402  32.175  11.400
18400W        W90016  37.773  22.605   1.902
18401W        W90017  13.336  37.969  10.236
18402W        W90018  37.386  36.830   2.589
18403W        W90019  30.824   8.981  14.811
18404W        W90020   9.917  24.444   2.818
18405W        W90021  28.085  30.347  13.849
18406W        W90022   9.975   3.186  13.724
18407W        W90023  30.422  26.074  12.117
18408W        W90024   1.657  44.966  10.156
18409W        W90025   4.649   3.005   3.113
18410W        W90026  26.599  33.002  14.065
18411W        W90027  29.768  44.073  12.720
18412W        W90028   9.185  24.981  12.021
18413W        W90029  29.027  13.029  12.412
18414W        W90030  40.279  14.157  10.605
18415W        W90031  10.435  40.828   3.425
18416W        W90032  34.042   0.723   3.727
18417W        W90033  20.756  13.390  13.740
18418W        W90034  43.897   5.284  13.883
18419W        W90035  20.951  33.398   0.007
18420W        W90036  20.117  29.000   0.296
18421W        W90037  21.514  22.176  12.512
18422W        W90038  13.212  27.549  11.574
18423W        W90039  40.397  32.394  10.913
18424W        W90040  38.210  32.396   3.338
18425W        W90041  28.131  14.028  12.650
18426W        W90042  18.452  37.517  14.792
18427W        W90043  22.596  24.176  11.968
18428W        W90044  44.483  44.252  12.971
18429W        W90045  22.691   8.146  10.721
18430W        W90046  16.504  32.529   1.903
18431W        W90047  20.293  33.196  11.187
18432W        W90048   1.930  24.243  13.505
18433W        W90049   5.180  23.661  10.407
18434W        W90050  23.215   2.486   0.052
18435W        W90051  17.297  17.157  14.317
18436W        W90052  34.900  24.013   3.920
18437W        W90053  36.663  14.149  12.947
18438W        W90054  27.491  37.594   1.718
18439W        W90055   4.716  24.192   2.058
18440W        W90056  21.306  18.137   3.030
18441W        W90057  32.954  26.547   1.931
18442W        W90058   3.716  12.678  11.114
18443W        W90059  28.623  32.079   0.497
18444W        W90060  27.853  23.292  14.011
18445W        W90061  14.828  31.039   4.576
18446W        W90062  20.087  26.616   5.050
18447W        W90063  19.018  26.403   1.210
18448W        W90064   6.238  20.983   4.141
18449W        W90065  10.213   0.422  12.806
18450W        W90066  31.998  20.604   1.805
18451W        W90067  19.814  33.085  12.047
18452W        W90068  34.549  24.327  14.908
18453W        W90069  14.993   4.721  13.535
18454W        W90070  43.002  25.264   1.733
18455W        W90071  14.363  40.967   0.645
18456W        W90072  12.167  36.819  12.125
18457W        W90073   7.787   7.774   0.039
18458W        W90074  36.998  25.014  14.124
18459W        W90075   8.744  15.837   1.647
18460W        W90076  13.813  41.730   1.253
18461W        W90077   9.760   3.276  13.257
18462W        W90078  29.708  33.988  14.939
18463W        W90079   0.306   1.467  14.998
18464W        W90080  17.208  22.702  12.916
18465W        W90081  38.580  32.534  12.059
18466W        W90082  44.370  31.438   1.332
18467W        W90083  27.986  13.187  10.393
18468W        W90084  37.602  26.708   4.168
18469W        W90085   3.384   5.849   2.316
18470W        W90086  18.069   9.770   2.810
18471W        W90087   9.909  21.754   3.776
18472W        W90088   0.970  21.790   2.296
18473W        W90089  34.991  23.709   4.727
18474W        W90090  24.195   8.651  13.975
18475W        W90091  43.888  14.668  11.147
18476W        W90092  23.190  14.785  10.698
18477W        W90093   7.970   9.088   5.055
18478W        W90094  31.457  30.532   5.218
18479W        W90095   7.347  32.388   2.982
18480W        W90096  38.597  38.422  12.559
18481W        W90097  12.364  41.741   4.584
18482W        W90098  42.022  37.229  13.769
18483W        W90099   5.494  35.319  12.016
18484W        W90100   1.950  20.631  11.525
18485W        W90101  10.148  11.254   2.171
18486W        W90102  22.241  41.909   0.897
18487W        W90103   2.009  16.203   2.610
18488W        W90104  44.412   8.769  13.383
18489W        W90105  17.786  15.152  14.005
18490W        W90106  31.810  20.127   1.646
18491W        W90107  29.373  15.422   3.694
18492W        W90108   8.644   6.464   3.321
18493W        W90109  20.040  10.140  10.278
18494W        W90110   9.292  37.968  11.748
18495W        W90111   7.095   9.415   3.241
18496W        W90112  32.889  26.177  11.174
18497W        W90113  21.811  28.008  12.837
18498W        W90114   1.212  36.300  13.732
18499W        W90115  24.984   3.743  12.487
18500W        W90116  22.302  28.077   2.297
18501W        W90117   2.839  23.550   1.814
18502W        W90118  37.025   8.126   2.398
18503W        W90119  13.881  36.163   2.161
18504W        W90120  11.183   7.803   1.733
18505W        W90121  20.483   4.720   1.860
18506W        W90122  28.126  30.982   2.222
18507W        W90123   7.215  26.584   3.749
18508W        W90124   8.250  13.481   4.532
18509W        W90125  38.109  22.567  13.140
18510W        W90126  32.439   1.159   2.172
18511W        W90127  24.625   5.718   0.878
18512W        W90128  22.428  27.970   1.226
18513W        W90129  12.548  22.587  13.474
18514W        W90130  29.564  16.566  12.813
18515W        W90131  24.826  14.146  12.996
18516W        W90132  32.618  22.095  10.509
18517W        W90133  36.355  43.758  12.757
18518W        W90134   3.106  11.899   3.143
18519W        W90135  27.714  35.861  11.396
18520W        W90136  11.406   3.741   1.884
18521W        W90137  24.044  19.672   1.943
18522W        W90138   3.252  30.656   0.264
18523W        W90139  36.068   9.658   0.720
18524W        W90140  37.039  40.519   4.208
18525W        W90141  44.540  33.964   3.440
18526W        W90142  27.477  43.744   4.078
18527W        W90143  23.426  20.541   0.916
18528W        W90144  14.473   4.327   3.964
18529W        W90145  25.775   1.235   2.945
18530W        W90146  18.551  33.223   3.690
18531W        W90147   0.721   1.939  12.753
18532W        W90148  19.756  42.760  13.995
18533W        W90149   3.729   3.676   0.811
18534W        W90150  12.407  38.789  14.300
18535W        W90151  24.966  36.413   4.621
18536W        W90152   5.212  25.483   2.906
18537W        W90153  13.564   9.292   2.369
18538W        W90154  10.556  42.279   1.815
18539W        W90155   7.216  33.307   2.937
18540W        W90156  17.109  25.123   4.621
18541W        W90157   2.386  17.005   1.896
18542W        W90158  13.901  24.635   2.404
18543W        W90159  22.387  27.567   2.371
18544W        W90160  43.015  13.714  12.256
18545W        W90161  12.573  32.465  13.326
18546W        W90162  30.050  30.327   2.916
18547W        W90163  20.715  18.696   2.465
18548W        W90164  14.506  24.696  14.662
18549W        W90165   4.722   7.904   3.305
18550W        W90166  37.279   4.925   4.181
18551W        W90167  43.357  14.745  11.072
18552W        W90168  24.477  21.067   2.172
18553W        W90169  15.012  36.442   0.387
18554W        W90170  20.937   2.414  12.695
18555W        W90171  15.227  16.832   4.716
18556W        W90172  12.270   2.965   4.814
18557W        W90173   1.193  22.574   0.639
18558W        W90174   2.944  25.434  10.157
18559W        W90175  34.237  20.037  13.346
18560W        W90176  24.056  21.589  11.427
18561W        W90177  33.121  14.226   4.503
18562W        W90178  17.514  35.453   0.029
18563W        W90179  33.808   3.021  13.975
18564W        W90180  38.272   7.160  13.816
18565W        W90181  21.270  11.734  12.845
18566W        W90182  44.388  13.338  11.253
18567W        W90183   8.485  26.095  10.489
18568W        W90184  22.589  33.595  10.728
18569W        W90185   8.129  25.950  12.155
18570W        W90186  19.774  28.225   3.305
18571W        W90187   0.384  43.798  13.962
18572W        W90188  24.647  23.943   0.535
18573W        W90189  41.285  12.647  12.487
18574W        W90190  25.537  10.239   0.774
18575W        W90191   1.563  41.484   3.337
18576W        W90192   9.836  11.576   4.130
18577W        W90193  38.470  18.168  14.464
18578W        W90194  37.378  19.143   3.008
18579W        W90195  25.748  39.832   0.994
18580W        W90196  37.963  17.760  12.069
18581W        W90197  29.688  20.707  14.830
18582W        W90198  38.700  30.135   3.092
18583W        W90199   8.388   6.814  12.954
18584W        W90200   6.216  29.931  13.964
18585W        W90201   9.786  39.865  12.642
18586W        W90202  40.319  17.892   0.374
18587W        W90203  26.065  36.061  11.967
18588W        W90204  17.033  10.118   0.951
18589W        W90205  42.689  15.760  12.345
18590W        W90206  39.084   1.318   4.404
18591W        W90207  43.358  15.563  13.480
18592W        W90208  39.632  28.215   3.503
18593W        W90209   7.055  32.316   3.413
18594W        W90210  16.193  18.361   5.078
18595W        W90211  23.610  12.304   0.962
18596W        W90212  31.563  32.539   1.805
18597W        W90213   6.795  24.207   3.102
18598W        W90214  36.960  42.829  12.649
18599W        W90215  37.551   2.497  13.129
18600W        W90216  20.565  26.431  10.098
18601W        W90217  15.185  36.523  12.124
18602W        W90218  44.400  34.565  12.919
18603W        W90219  30.064  14.708  12.909
18604W        W90220  15.677  16.388   5.394
18605W        W90221  36.466  42.000  13.441
18606W        W90222  12.526  36.932   4.299
18607W        W90223   3.360  31.744   3.225
18608W        W90224  36.596  15.987   4.588
18609W        W90225  15.177  32.834   0.845
18610W        W90226  39.925   1.791   0.711
18611W        W90227   8.818  16.036   0.227
18612W        W90228  16.861  31.785   1.242
18613W        W90229  11.620   6.800   1.509
18614W        W90230  24.006  23.236   1.859
18615W        W90231   7.706  32.218  10.481
18616W        W90232  41.318  28.761   4.738
18617W        W90233   3.755  33.418  10.293
18618W        W90234  36.437  28.512  14.485
18619W        W90235   5.234  44.336   1.941
18620W        W90236   3.937  40.028   2.783
18621W        W90237  38.309  39.909  13.063
18622W        W90238  43.576  20.061   3.993
18623W        W90239  16.322  44.377  14.471
18624W        W90240  17.243  21.007   2.709
18625W        W90241   2.265  12.779  10.727
18626W        W90242  36.857   1.036   2.394
18627W        W90243  25.121  34.132   4.600
18628W        W90244  40.305  28.616   0.913
18629W        W90245  26.413  10.310  12.513
18630W        W90246  21.179   5.761  12.418
18631W        W90247  29.286   1.281   4.717
18632W        W90248   3.401  33.519   0.185
18633W        W90249  27.838  36.700   3.614
18634W        W90250   3.481  18.026  11.837
18635W        W90251  32.653  26.696   3.824
18636W        W90252   9.887  13.365  13.315
18637W        W90253  11.863  43.377   3.266
18638W        W90254   4.849   9.445  12.549
18639W        W90255  37.523  23.638  12.429
18640W        W90256   5.743  33.355  12.096
18641W        W90257  30.887   1.066  14.445
18642W        W90258  36.347  18.145  13.102
18643W        W90259  27.032  36.505   5.004
18644W        W90260   7.168  44.993  10.757
18645W        W90261   5.280   2.254   1.838
18646W        W90262  39.061  13.354   5.003
18647W        W90263   2.758   1.017   3.757
18648W        W90264  41.263   7.159  14.547
18649W        W90265  18.039  41.906  14.872
18650W        W90266  25.087   1.981   0.266
18651W        W90267   8.667  27.419  12.859
18652W        W90268   6.311  24.427  10.742
18653W        W90269  40.809  25.067   0.355
18654W        W90270  20.766   0.445  11.152
18655W        W90271  44.207   1.932  13.790
18656W        W90272  36.423  41.203  14.095
18657W        W90273  19.058  39.844   0.294
18658W        W90274   6.222  24.309   1.254
18659W        W90275  40.718  28.953   4.287
18660W        W90276  44.979  32.675   2.363
18661W        W90277   9.535  24.958   4.163
18662W        W90278  19.238  25.172   4.207
18663W        W90279  23.993   4.975  14.273
18664W        W90280  21.328   1.075  11.969
18665W        W90281  23.667  41.024  11.038
18666W        W90282  38.511  41.888  12.585
18667W        W90283  13.258  15.642   4.596
18668W        W90284   3.578  18.688   3.260
18669W        W90285  19.185  15.675  11.571
18670W        W90286  24.013  15.223   1.439
18671W        W90287  44.264  42.357   4.196
18672W        W90288   6.962   2.730   1.400
18673W        W90289  44.797  15.071   3.632
18674W        W90290  25.136  29.635   1.048
18675W        W90291  36.489  33.840   2.655
18676W        W90292  41.291  28.850  14.495
18677W        W90293   7.967  18.610  12.094
18678W        W90294   0.795   4.958  14.825
18679W        W90295  24.516  13.089  14.410
18680W        W90296  16.943  24.156  12.297
18681W        W90297  30.821   8.081   2.751
18682W        W90298   6.895  18.663   3.443
18683W        W90299  38.775   0.676   2.556
18684W        W90300  26.794  13.659   4.459
18685W        W90301  38.725   5.261  10.535
18686W        W90302  23.895   7.809   4.643
18687W        W90303  30.536   9.120   1.462
18688W        W90304  40.459  22.285  13.991
18689W        W90305  20.044  35.986  11.576
18690W        W90306  16.767  20.034   1.891
18691W        W90307   9.387  29.616  11.441
18692W        W90308  29.934   1.395   4.957
18693W        W90309  34.547   5.630   1.271
18694W        W90310  21.441   8.793  11.935
18695W        W90311  25.099  31.995   1.207
18696W        W90312  39.865  16.129   2.201
18697W        W90313   6.874   9.400   2.765
18698W        W90314  34.313  24.974   4.654
18699W        W90315  29.889   0.222   1.723
18700W        W90316  44.088   7.220   3.188
18701W        W90317  12.485   6.128   4.098
18702W        W90318  31.068  28.340  12.004
18703W        W90319  43.907  43.215   3.235
18704W        W90320  23.287   9.780   2.808
18705W        W90321   6.348  14.738  10.701
18706W        W90322  16.757  23.067   3.613
18707W        W90323   0.650   3.899  11.167
18708W        W90324  22.670  30.464  13.410
18709W        W90325  35.047  20.555   1.417
18710W        W90326  12.095   5.911  11.693
18711W        W90327  35.456  24.622   2.261
18712W        W90328   5.773  42.213  12.073
18713W        W90329   2.441  36.139  13.356
18714W        W90330  44.673  16.023  14.259
18715W        W90331   0.721  29.624  11.882
18716W        W90332  37.914  41.341  13.811
18717W        W90333  21.511   1.726   1.685
18718W        W90334  36.102  13.183  10.694
18719W        W90335  43.386  41.595   4.912
18720W        W90336  26.813  43.991  10.690
18721W        W90337  27.002  14.528   3.469
18722W        W90338  30.510  13.522  10.758
18723W        W90339  19.057  17.662  12.289
18724W        W90340  33.088  18.430   0.277
18725W        W90341   1.316  14.443  10.762
18726W        W90342  40.721  35.853   0.327
18727W        W90343  15.591  17.236  11.975
18728W        W90344  30.511  12.986  10.614
18729W        W90345  16.720  22.825   2.695
18730W        W90346  19.841  41.887   0.057
18731W        W90347  29.918  44.669   4.654
18732W        W90348  33.617  21.619   4.420
18733W        W90349  20.307   1.203   0.680
18734W        W90350  30.520  10.832  14.536
18735W        W90351  30.476   4.374   4.307
18736W        W90352  22.680  38.634   4.564
18737W        W90353  22.995  15.258   1.338
18738W        W90354  10.837  37.172   0.774
18739W        W90355  13.012   0.278  14.345
18740W        W90356  13.606  34.940   0.887
18741W        W90357   0.972  29.125   0.350
18742W        W90358   6.801  19.232   0.974
18743W        W90359  32.014  20.141   4.180
18744W        W90360   3.925  17.063   0.868
18745W        W90361  14.850   4.815   0.361
18746W        W90362  33.403  10.679   0.191
18747W        W90363  19.853  15.237  12.234
18748W        W90364  12.751  11.723   1.793
18749W        W90365  11.702  15.967  10.731
18750W        W90366   9.818  26.982   0.736
18751W        W90367  25.964   4.913   2.415
18752W        W90368  11.173   3.711   1.425
18753W        W90369  30.356  38.355  14.750
18754W        W90370   7.396  31.556   1.636
18755W        W90371  18.800  11.949   2.378
18756W        W90372   2.785   2.375   3.585
18757W        W90373  27.988  34.408  13.142
18758W        W90374  39.112  35.557   3.289
18759W        W90375  40.434  27.175   1.098
18760W        W90376   7.707   9.402   3.315
18761W        W90377  24.173   4.572   3.812
18762W        W90378  18.058   1.378   1.215
18763W        W90379  33.651  43.234  12.980
18764W        W90380  38.518  39.450  13.001
18765W        W90381  23.801  18.750   4.097
18766W        W90382   9.812  33.284  13.521
18767W        W90383   1.324   2.800   5.061
18768W        W90384  13.886   1.522  12.400
18769W        W90385   3.982  13.586  14.900
18770W        W90386  17.018  35.717   4.868
18771W        W90387  22.635  36.087  14.856
18772W        W90388  28.790  24.654   0.371
18773W        W90389  13.227  29.783   4.578
18774W        W90390  10.653  12.715   4.628
18775W        W90391   9.963  20.698   3.677
18776W        W90392   8.098  40.846  12.122
18777W        W90393  22.015  43.865   2.598
18778W        W90394  33.748  33.510   4.645
18779W        W90395  37.340  21.661  11.973
18780W        W90396  24.279  32.393   4.533
18781W        W90397  37.009  27.903   1.733
18782W        W90398   7.813  14.319   0.926
18783W        W90399  10.745  20.467  10.483
18784W        W90400  22.012  36.835   4.174
18785W        W90401  26.950  31.110  14.468
18786W        W90402  37.068  39.059  14.731
18787W        W90403  42.879  18.322   1.070
18788W        W90404   8.107  40.590   4.535
18789W        W90405  24.031  30.010  14.870
18790W        W90406   7.834  34.346   0.392
18791W        W90407  26.923  19.873  14.302
18792W        W90408  15.332   0.867  10.690
18793W        W90409   7.381  25.004   0.786
18794W        W90410  42.857  44.353  10.434
18795W        W90411  38.769  19.592  11.130
18796W        W90412  19.725  18.793  11.967
18797W        W90413  31.958   9.485   0.865
18798W        W90414  31.404  10.805  12.069
18799W        W90415   3.005  17.140  10.701
18800W        W90416  28.691   5.850   4.344
18801W        W90417  16.299   3.645   4.168
18802W        W90418  43.511  20.482  13.861
18803W        W90419  42.412  32.947   2.458
18804W        W90420  43.204   7.643  11.173
18805W        W90421  13.728  44.038  14.903
18806W        W90422  36.532  42.919  13.364
18807W        W90423  35.602  35.148   2.500
18808W        W90424  12.370  14.654  12.020
18809W        W90425  27.473   7.499   0.274
18810W        W90426  19.868  29.533  11.589
18811W        W90427  10.681  10.419  10.281
18812W        W90428   3.240  42.600  12.629
18813W        W90429   4.818  39.097  11.171
18814W        W90430   4.390  11.852   2.383
18815W        W90431  13.894  41.757   0.090
18816W        W90432   4.517  24.681  11.574
18817W        W90433  38.838  28.547  13.330
18818W        W90434   2.951  39.957  13.024
18819W        W90435  14.589  14.167  14.719
18820W        W90436  36.367  42.860   4.577
18821W        W90437  30.278   9.430  13.300
18822W        W90438  18.726  20.655  13.601
18823W        W90439  25.564  19.713   4.556
18824W        W90440  15.637  31.584  11.133
18825W        W90441  32.651  25.149  12.837
18826W        W90442  37.327  11.189  12.945
18827W        W90443  18.695  25.701   2.001
18828W        W90444   3.840  34.035   2.883
18829W        W90445   4.001   3.407  14.851
18830W        W90446  27.194   4.310  12.481
18831W        W90447  32.219  33.949   1.389
18832W        W90448   4.831   6.436   9.894
18833W        W90449  31.349  13.230  12.420
18834W        W90450  18.012  25.465  11.932
18835W        W90451   7.588  20.304   1.892
18836W        W90452  41.007  37.157   2.790
18837W        W90453  42.573  33.394  10.261
18838W        W90454  22.299  12.725  11.616
18839W        W90455   7.859   4.541   0.200
18840W        W90456  10.860  18.305  14.358
18841W        W90457  15.267  11.088  12.399
18842W        W90458  22.319  16.678   2.674
18843W        W90459  42.582  21.073   0.724
18844W        W90460   2.649  43.904  14.339
18845W        W90461   9.271  28.528  10.499
18846W        W90462   8.169  19.601   1.232
18847W        W90463  12.658  23.012   4.206
18848W        W90464  25.495  30.960  14.366
18849W        W90465  17.275  22.015   2.989
18850W        W90466  22.984  32.569   1.442
18851W        W90467  31.940  41.069  12.998
18852W        W90468  30.007   4.144   1.259
18853W        W90469  42.918  11.337  10.619
18854W        W90470  26.211  15.656  14.370
18855W        W90471  34.146  15.009  11.891
18856W        W90472  23.616  42.366   2.426
18857W        W90473   9.438   4.345  11.712
18858W        W90474   1.208   1.789   1.404
18859W        W90475  29.756  36.795  10.663
18860W        W90476   0.362  39.038  13.001
18861W        W90477  29.502  39.351  12.627
18862W        W90478  23.820  29.348  12.994
18863W        W90479  29.837  30.479   3.379
18864W        W90480  35.863  36.495   2.791
18865W        W90481  16.861  10.342   1.405
18866W        W90482   6.206  19.636   2.386
18867W        W90483   8.007  17.489   1.261
18868W        W90484  33.742  30.601   0.648
18869W        W90485   5.959  13.215  13.669
18870W        W90486  22.554  35.001  10.545
18871W        W90487  29.669  14.187  14.242
18872W        W90488  16.192   9.422  10.636
18873W        W90489   1.283  26.591   2.853
18874W        W90490  14.034   5.337   0.225
18875W        W90491  11.838  21.850   3.195
18876W        W90492  41.320  40.583  14.329
18877W        W90493  23.284  41.090   2.759
18878W        W90494   2.683  15.241  12.948
18879W        W90495   4.441  38.483  11.574
18880W        W90496  23.689  18.274   1.838
18881W        W90497  25.760  42.828   1.863
18882W        W90498  25.579  11.127   4.782
18883W        W90499  20.191  20.099  12.979
18884W        W90500  35.164  26.433  14.366
18885W        W90501  38.547  21.630   4.218
18886W        W90502  16.759   5.261   2.079
18887W        W90503  37.200  16.630  12.953
18888W        W90504  37.794   1.880  14.119
18889W        W90505  42.508  11.220   0.599
18890W        W90506  38.641  11.257  13.256
18891W        W90507  34.877  25.026  14.295
18892W        W90508  26.575  20.723   2.417
18893W        W90509  22.006  40.423   4.768
18894W        W90510  25.705  28.538  14.557
18895W        W90511  35.089  30.318   2.802
18896W        W90512  32.700   1.245  13.940
18897W        W90513   9.430  36.113  12.555
18898W        W90514  39.369  28.508  10.357
18899W        W90515  44.712  35.940  10.659
18900W        W90516  12.338  32.883   2.627
18901W        W90517   6.274   6.767   0.820
18902W        W90518  10.333   6.233  12.069
18903W        W90519  35.097   0.835   1.688
18904W        W90520  22.722   4.354  12.470
18905W        W90521  37.972  42.310   1.889
18906W        W90522   4.136   8.142   0.207
18907W        W90523  38.263   9.542   2.833
18908W        W90524   2.722  13.153   0.391
18909W        W90525  25.738  39.610  14.203
18910W        W90526  35.574  38.305  13.993
18911W        W90527   5.409  36.237   3.823
18912W        W90528  31.311  12.137  14.481
18913W        W90529   4.867  31.060  13.379
18914W        W90530   6.669  26.034  14.054
18915W        W90531  29.017  12.172   0.798
18916W        W90532  10.834  33.341  11.702
18917W        W90533  26.560  33.468  14.296
18918W        W90534   4.277   5.709   1.901
18919W        W90535  20.870  43.409  12.475
18920W        W90536  38.821  25.331  13.424
18921W        W90537  27.446  32.129   2.320
18922W        W90538   6.190  44.949  11.113
18923W        W90539  28.693  19.274  14.958
18924W        W90540  22.415  42.468  14.079
18925W        W90541  26.182  34.582   2.243
18926W        W90542  37.529  28.320   3.698
18927W        W90543   9.269   2.231   0.870
18928W        W90544   2.756  21.734   1.481
18929W        W90545  41.933  16.819   3.222
18930W        W90546  26.694   6.833  10.693
18931W        W90547  42.314  21.261   2.772
18932W        W90548  18.594  13.574   2.802
18933W        W90549  23.122  21.663   2.894
18934W        W90550  38.332  28.035  11.347
18935W        W90551  34.595   2.783   0.054
18936W        W90552   2.361   3.461   3.256
18937W        W90553  44.315  40.807   1.990
18938W        W90554  41.765  21.718   1.445
18939W        W90555  26.056  26.974   0.441
18940W        W90556  38.481  10.121  12.162
18941W        W90557  20.358  19.578   1.791
18942W        W90558  35.571   9.386   3.873
18943W        W90559  43.228  34.952   0.429
18944W        W90560  44.408  40.254  12.481
18945W        W90561  30.049  43.331  13.609
18946W        W90562  35.129  22.774  11.986
18947W        W90563   4.391  38.862   4.771
18948W        W90564  23.398  20.940   3.980
18949W        W90565   7.138  35.539   4.234
18950W        W90566   5.722  17.850   1.565
18951W        W90567   6.919  41.329  11.553
18952W        W90568  33.899  25.977  13.891
18953W        W90569  35.496  18.287   1.485
18954W        W90570  24.827  12.578  11.698
18955W        W90571   5.273  34.405  11.312
18956W        W90572  30.903   2.378  14.448
18957W        W90573  38.106  11.660  12.061
18958W        W90574  44.049   3.212  14.140
18959W        W90575  15.845   3.907  12.333
18960W        W90576  33.410  37.656  11.174
18961W        W90577  43.794  42.843   4.624
18962W        W90578   8.962  36.906   3.359
18963W        W90579  37.445  39.615   4.118
18964W        W90580  35.623   4.833  11.832
18965W        W90581  11.346  39.841  14.629
18966W        W90582  29.060  41.809   0.705
18967W        W90583  16.212   0.911  11.870
18968W        W90584  16.093  16.688  11.622
18969W        W90585  36.087  25.995  11.666
18970W        W90586   8.751  14.075  11.018
18971W        W90587   5.218  39.752   3.740
18972W        W90588   9.393  43.725   1.405
18973W        W90589  44.352  25.944   4.619
18974W        W90590  19.706  25.649  12.765
18975W        W90591  27.527  37.088   0.975
18976W        W90592  36.929   0.690   3.623
18977W        W90593  20.110  27.045   1.383
18978W        W90594  23.571   4.999   2.233
18979W        W90595  29.558   7.848   0.320
18980W        W90596   4.950  28.643   2.784
18981W        W90597  40.536   8.707   1.351
18982W        W90598   6.965  10.900  12.014
18983W        W90599  11.263   6.800   3.328
18984W        W90600  11.388  10.792  13.891
18985W        W90601   0.996  23.169  12.358
18986W        W90602  42.911   7.837   3.653
18987W        W90603  40.358  17.755   1.659
18988W        W90604  14.608  31.583  14.878
18989W        W90605  24.825  40.426   1.336
18990W        W90606  18.582  39.016  13.825
18991W        W90607  16.581  40.817  13.470
18992W        W90608   6.829  24.215   4.655
18993W        W90609  17.750  34.939  10.747
18994W        W90610  26.060  18.970   0.694
18995W        W90611  44.882  35.535   9.823
18996W        W90612  41.463  12.523   4.241
18997W        W90613  11.258   8.296  11.467
18998W        W90614  21.703  44.231   2.835
18999W        W90615  26.922  13.968   3.085
19000W        W90616  22.782  36.918  14.366
19001W        W90617  43.312  34.096  14.823
19002W        W90618  36.060  17.512  12.498
19003W        W90619  27.261  26.672  13.432
19004W        W90620  27.614  43.825  11.317
19005W        W90621  44.985  13.685   2.035
19006W        W90622   8.214   0.366   3.716
19007W        W90623   3.923   8.297   1.263
19008W        W90624   0.294  22.534   0.451
19009W        W90625  34.278  26.581  10.562
19010W        W90626  11.306   0.472   1.645
19011W        W90627  22.456  38.879  10.947
19012W        W90628  43.385   6.767   0.910
19013W        W90629  15.051  38.047  12.587
19014W        W90630  23.212  14.102   0.811
19015W        W90631  18.408   3.816   4.501
19016W        W90632  29.483  16.449   0.771
19017W        W90633  20.769  23.728  12.311
19018W        W90634  24.682   3.301  14.412
19019W        W90635  14.590  41.712   3.723
19020W        W90636  16.357  44.416  13.320
19021W        W90637  43.914  44.466   2.834
19022W        W90638   0.506  12.469   2.471
19023W        W90639  19.683   9.210  10.633
19024W        W90640  37.037  23.845   3.170
19025W        W90641   8.194  40.270  13.438
19026W        W90642  31.008  22.108   3.714
19027W        W90643  15.122  28.174  14.241
19028W        W90644  41.527  12.868   4.621
19029W        W90645  13.236   2.713   1.312
19030W        W90646   3.405  13.552   0.840
19031W        W90647  26.983   3.407  12.975
19032W        W90648   3.198  26.569   0.840
19033W        W90649   8.534  21.918   1.497
19034W        W90650   1.006   0.464  12.178
19035W        W90651  12.328  38.333   2.359
19036W        W90652   0.339  44.843   2.717
19037W        W90653  27.091  33.856   1.758
19038W        W90654  12.722  43.326   1.399
19039W        W90655  10.959   9.286  11.098
19040W        W90656  42.999   5.589   4.601
19041W        W90657  44.956  35.187   0.865
19042W        W90658  16.826   0.232   2.833
19043W        W90659  15.850  17.130  11.539
19044W        W90660  41.698   0.983  10.154
19045W        W90661  14.055   8.411   4.189
19046W        W90662  35.837  22.568   0.914
19047W        W90663   4.253  44.221   3.296
19048W        W90664   2.357   7.385   4.587
19049W        W90665  20.666  16.636  14.919
19050W        W90666  19.677  40.870  14.844
19051W        W90667   3.692  19.356   0.874
19052W        W90668  30.464  13.975  10.506
19053W        W90669   9.887  10.635  14.008
19054W        W90670  33.248  34.404  10.579
19055W        W90671  11.645  28.690   3.260
19056W        W90672  15.352  37.027  14.495
19057W        W90673  29.550  37.095  12.085
19058W        W90674  16.310  40.350  14.950
19059W        W90675  13.507  25.554   1.960
19060W        W90676  25.120  10.768   3.372
19061W        W90677  19.448  12.700  11.148
19062W        W90678   1.840  15.057  12.496
19063W        W90679  12.577   5.216   4.038
19064W        W90680  34.032  21.794   1.408
19065W        W90681  36.305  37.682  14.928
19066W        W90682  33.586   1.294  14.773
19067W        W90683  35.759   6.007   0.917
19068W        W90684  37.259   0.858   3.249
19069W        W90685  36.198  13.311  11.535
19070W        W90686   2.716  30.646   1.707
19071W        W90687  17.795  29.548  12.562
19072W        W90688  20.156  12.859  12.514
19073W        W90689  11.151  22.482  10.598
19074W        W90690  30.557  26.961   0.240
19075W        W90691  17.783  24.530  14.293
19076W        W90692  11.120  22.486   0.332
19077W        W90693  43.066  11.854  12.537
19078W        W90694   7.161  28.373   3.322
19079W        W90695  10.377  29.714   2.319
19080W        W90696  32.489  14.756   0.917
19081W        W90697  16.124   8.852   1.731
19082W        W90698   1.648   9.922  13.059
19083W        W90699  34.317  11.418  10.579
19084W        W90700   5.208   0.874  11.309
19085W        W90701  34.795  17.764   3.234
19086W        W90702  31.470   0.434   5.015
19087W        W90703  14.558  23.953  14.450
19088W        W90704   3.894  43.435   4.865
19089W        W90705  40.104  19.524   0.020
19090W        W90706   9.579  29.094  14.326
19091W        W90707  14.574  19.248  13.382
19092W        W90708  14.159   1.583  11.132
19093W        W90709   2.413  28.527  13.357
19094W        W90710  38.850  17.636  12.488
19095W        W90711   2.149   0.697  12.842
19096W        W90712   7.573  27.979   4.680
19097W        W90713  43.579  28.757   4.179
19098W        W90714  21.642   8.874  11.178
19099W        W90715   6.796   4.803   1.249
19100W        W90716   3.833  26.257  10.650
19101W        W90717  26.657  26.544   0.905
19102W        W90718  35.584  21.037   1.841
19103W        W90719  16.634  16.254  12.051
19104W        W90720  25.678   8.168  14.381
19105W        W90721  12.098   4.457   1.676
19106W        W90722   8.769  23.245  12.444
19107W        W90723   4.871  31.186   1.309
19108W        W90724  43.910  14.710   1.445
19109W        W90725  33.374  22.454  12.024
19110W        W90726   9.279  12.823   4.869
19111W        W90727  27.020  36.765   4.233
19112W        W90728  17.666  25.177  11.452
19113W        W90729  28.266  44.474  13.364
19114W        W90730   2.811  42.873   5.249
19115W        W90731  12.758  23.079  14.354
19116W        W90732  22.107   6.914  13.942
19117W        W90733  10.197  23.279  12.549
19118W        W90734   8.949  37.817   3.980
19119W        W90735  32.181   9.226   2.214
19120W        W90736  41.750  33.562   1.860
19121W        W90737  18.605  20.387  10.477
19122W        W90738  43.997   7.693   4.157
19123W        W90739  27.610  35.941   2.931
19124W        W90740  38.814   7.876  13.545
19125W        W90741  19.715  29.622  13.388
19126W        W90742  37.085  19.798   0.703
19127W        W90743   5.547  41.336   2.265
19128W        W90744  24.623  37.501  11.649
19129W        W90745   2.389  40.231  13.961
19130W        W90746  29.577  21.670  11.108
19131W        W90747  29.515   8.111   2.818
19132W        W90748  26.434   3.164  13.490
19133W        W90749   6.462  41.504  12.332
19134W        W90750  33.683  21.636  11.125
19135W        W90751  38.426  31.418  13.507
19136W        W90752   2.157  11.695   3.246
19137W        W90753  19.079  19.068   4.046
19138W        W90754  14.686   6.785  10.498
19139W        W90755  43.821   2.264   4.185
19140W        W90756   5.675  32.349  14.873
19141W        W90757  35.161  12.175   4.769
19142W        W90758  42.734  14.201   4.416
19143W        W90759  10.254  17.051  13.525
19144W        W90760   7.797  32.688   2.248
19145W        W90761  27.941   6.930   5.100
19146W        W90762  43.695  19.897  13.148
19147W        W90763  22.708   1.463   0.775
19148W        W90764  44.427  42.000   1.472
19149W        W90765  21.090  31.488  13.102
19150W        W90766  35.911  35.611  11.680
19151W        W90767  11.674  23.224   1.890
19152W        W90768  37.541   7.859   3.168
19153W        W90769  33.871  19.167  12.927
19154W        W90770  15.343  15.787   9.640
19155W        W90771  44.801  29.329  10.907
19156W        W90772  30.576  21.202   4.629
19157W        W90773   2.487  14.451  12.159
19158W        W90774  11.085  41.313   3.366
19159W        W90775  44.290  21.780   4.198
19160W        W90776  20.189  20.047  14.809
19161W        W90777  16.668   5.035   1.510
19162W        W90778  28.945  27.289   4.714
19163W        W90779   9.166  13.552  11.770
19164W        W90780   8.821  24.842  13.969
19165W        W90781   1.339  12.687   2.412
19166W        W90782  10.470  26.609  10.415
19167W        W90783  34.473   0.309   0.459
19168W        W90784  30.925  14.857  12.151
19169W        W90785  12.812   3.352  10.675
19170W        W90786  21.210  12.674  10.225
19171W        W90787   8.140  34.909   1.802
19172W        W90788  22.522   2.777  14.056
19173W        W90789  10.323  41.473   4.590
19174W        W90790  28.530  26.687  14.366
19175W        W90791   4.504  11.659  12.936
19176W        W90792  40.964  28.046  13.344
19177W        W90793  21.783  23.055   3.185
19178W        W90794  36.051  33.105  12.737
19179W        W90795  30.452  42.241   1.349
19180W        W90796  44.177  38.392  11.299
19181W        W90797   3.970  27.697   3.603
19182W        W90798   9.385  40.741  13.003
19183W        W90799  16.748   0.963   2.749
19184W        W90800   2.054   2.302  12.515
19185W        W90801  34.730   1.187  13.440
19186W        W90802  40.034  25.754  12.913
19187W        W90803  27.080  31.614   1.001
19188W        W90804  31.236  10.276   4.182
19189W        W90805  40.470  20.691   2.116
19190W        W90806  26.890  17.654  12.601
19191W        W90807  19.979   2.221  12.473
19192W        W90808  30.712  15.175   3.478
19193W        W90809  12.343  11.164   3.907
19194W        W90810  20.825  13.303  12.041
19195W        W90811  22.213  19.090  11.602
19196W        W90812   7.314  13.661  10.542
19197W        W90813  14.661  34.604   0.340
19198W        W90814   0.931  12.351  13.593
19199W        W90815  42.788  29.880  13.247
19200W        W90816  15.146   1.329  14.018
19201W        W90817  38.511  28.401   4.786
19202W        W90818  30.547  14.207  13.993
19203W        W90819  30.121  26.001   4.122
19204W        W90820  23.309  44.689  14.141
19205W        W90821   1.786  32.607  12.016
19206W        W90822   1.180  36.125  12.455
19207W        W90823  43.856  15.827   4.440
19208W        W90824  16.183  42.928   2.959
19209W        W90825  44.333  38.532  10.671
19210W        W90826  16.285   0.274   4.675
19211W        W90827  27.028  37.842  14.446
19212W        W90828  10.710  19.123   4.778
19213W        W90829  21.890   5.042  14.518
19214W        W90830  11.586  15.620  13.157
19215W        W90831  30.913   0.517   2.703
19216W        W90832  26.148   2.928  14.728
19217W        W90833  32.038  32.670  11.742
19218W        W90834   3.011  37.232  14.285
19219W        W90835   0.084  32.074  10.291
19220W        W90836  40.071  28.720  12.028
19221W        W90837   0.648  25.343   0.219
19222W        W90838  26.949  44.843   1.868
19223W        W90839  31.063  14.168   0.268
19224W        W90840  39.391  10.541   0.157
19225W        W90841  20.239  22.997   1.272
19226W        W90842  18.643  12.910   2.232
19227W        W90843   6.608  21.559   2.918
19228W        W90844  43.231   7.181   5.009
19229W        W90845  12.548   3.084   1.799
19230W        W90846  13.989  39.318  11.895
19231W        W90847   1.785  21.973   2.612
19232W        W90848  20.583   7.379   3.628
19233W        W90849   9.853  36.063   1.416
19234W        W90850   4.601  25.712   3.146
19235W        W90851  35.114   9.323   4.116
19236W        W90852   8.910   0.053   3.193
19237W        W90853  42.471  13.567  12.397
19238W        W90854   2.963  32.917  12.461
19239W        W90855  41.008  29.474   0.271
19240W        W90856  17.750  39.561   0.437
19241W        W90857   4.406  23.089   1.364
19242W        W90858   2.842  31.582   2.931
19243W        W90859   6.899  21.597  10.629
19244W        W90860  19.707  30.363   1.359
19245W        W90861  39.578  41.044  10.833
19246W        W90862   6.704  37.638  11.224
19247W        W90863  25.108  44.338   1.357
19248W        W90864  34.560  13.049   2.828
19249W        W90865   9.533  10.397   3.289
19250W        W90866  12.287   4.408  10.145
19251W        W90867   6.373  29.197  12.446
19252W        W90868  15.090  25.740  11.133
19253W        W90869  16.393  39.349  14.551
19254W        W90870  31.423  44.247  12.541
19255W        W90871   8.732  19.199   4.625
19256W        W90872  11.931   1.872  12.849
19257W        W90873  20.155  26.522   0.474
19258W        W90874  25.961  10.327  11.144
19259W        W90875  26.688  15.623  11.561
19260W        W90876  17.202  18.736   2.104
19261W        W90877  28.099   3.694   1.966
19262W        W90878   7.540  28.635   0.315
19263W        W90879  26.185  14.038   3.201
19264W        W90880  10.346  16.353  11.569
19265W        W90881  29.862  29.117  12.571
19266W        W90882  27.396   5.142  11.642
19267W        W90883   4.153  15.701  14.775
19268W        W90884  17.968  12.907   1.645
19269W        W90885   7.702   5.770  14.051
19270W        W90886  19.203  44.183  12.911
19271W        W90887  33.562  43.416   3.297
19272W        W90888  39.951  40.552   4.382
19273W        W90889  40.122  24.404   2.171
19274W        W90890   9.971  24.142  12.986
19275W        W90891  32.597   9.978   1.662
19276W        W90892  19.850  36.012  11.106
19277W        W90893  40.579  12.705  11.958
19278W        W90894  32.454  39.370  14.823
19279W        W90895  39.200  14.720   1.322
19280W        W90896  13.372  23.569   0.178
19281W        W90897  10.956  23.069  13.457
19282W        W90898  32.996  44.509   3.607
19283W        W90899  19.567  41.026   4.526
19284W        W90900  30.474   1.450  14.459
19285W        W90901  17.313  16.998   4.619
19286W        W90902  31.957  30.499   3.344
19287W        W90903  36.687  17.287  13.586
19288W        W90904  19.700   5.138  12.978
19289W        W90905  15.388  15.131  14.437
19290W        W90906   1.800   2.686   4.330
19291W        W90907  32.656  32.612   0.334
19292W        W90908  18.153   1.168   0.736
19293W        W90909  43.853  37.484   3.154
19294W        W90910  17.895  17.636   4.205
19295W        W90911  40.992   0.091  11.106
19296W        W90912   7.872  36.080  13.956
19297W        W90913  17.674  30.353   4.841
19298W        W90914  30.416   6.894   0.500
19299W        W90915  40.384  34.828  12.911
19300W        W90916  36.701  21.703   2.345
19301W        W90917   0.515  22.084   2.306
19302W        W90918  28.609  37.117   1.463
19303W        W90919  14.489  11.205   0.324
19304W        W90920  42.544   3.198  10.524
19305W        W90921  39.009  37.865   2.177
19306W        W90922  23.119  39.400  11.400
19307W        W90923  14.521  22.542  13.455
19308W        W90924   3.421  24.440   0.437
19309W        W90925  27.474  22.449   2.425
19310W        W90926  11.106  24.722   1.437
19311W        W90927   6.900  14.861   0.939
19312W        W90928  27.725  28.886   0.020
19313W        W90929  10.693  34.338  11.461
19314W        W90930  20.601  37.303  11.141
19315W        W90931  29.659   3.406   3.705
19316W        W90932  18.208  31.412  13.491
19317W        W90933  42.041  16.212   4.420
19318W        W90934   0.735  30.559   3.685
19319W        W90935  37.737  14.851   4.135
19320W        W90936  32.739  32.179  12.909
19321W        W90937  10.700  33.026  13.133
19322W        W90938   1.340  15.651  12.131
19323W        W90939  39.683  40.296   2.388
19324W        W90940  17.566  37.973  14.756
19325W        W90941  15.004   0.192  12.526
19326W        W90942  41.309  20.749  13.420
19327W        W90943  20.013  28.054  10.778
19328W        W90944  21.245  19.298   3.752
19329W        W90945  32.206  26.543  11.979
19330W        W90946  41.509  25.756  14.531
19331W        W90947  15.230   5.178   4.149
19332W        W90948  18.783   6.824   3.743
19333W        W90949   4.314   6.388  10.529
19334W        W90950  17.075   8.390   2.967
19335W        W90951   3.093  34.828  12.884
19336W        W90952  43.516   8.312   1.188
19337W        W90953  11.278  32.050  13.929
19338W        W90954  16.813  42.429   4.286
19339W        W90955  29.518  14.099   4.147
19340W        W90956   1.020  39.799  10.451
19341W        W90957  27.119  27.877   3.803
19342W        W90958   2.242  31.868  13.001
19343W        W90959  21.586  14.067  11.908
19344W        W90960  22.096  29.668   2.208
19345W        W90961  39.305   4.791   0.070
19346W        W90962  14.844  11.910  12.452
19347W        W90963   6.355  34.126  14.741
19348W        W90964  44.333  19.839  14.711
19349W        W90965  20.727  40.367   3.432
19350W        W90966   4.905  33.105  14.589
19351W        W90967  35.620  27.714  14.718
19352W        W90968  27.661  34.007  12.989
19353W        W90969  32.991  13.466   1.258
19354W        W90970  33.831  13.233  11.646
19355W        W90971  31.441  14.239   1.073
19356W        W90972  36.466   4.191  14.757
19357W        W90973  36.516   8.332   3.224
19358W        W90974  38.572  22.470  11.937
19359W        W90975  19.072  32.016   3.550
19360W        W90976  12.081  36.659   4.184
19361W        W90977  21.458  33.434   2.648
19362W        W90978  42.391  29.195   4.076
19363W        W90979  35.488  35.970   3.034
19364W        W90980  17.676   2.708   0.479
19365W        W90981   1.054   0.917   0.884
19366W        W90982   8.089  20.069   0.838
19367W        W90983   3.726  26.580  14.530
19368W        W90984  14.595  35.916   2.830
19369W        W90985  13.571  34.785  13.985
19370W        W90986   0.186   5.661  14.759
19371W        W90987  13.657  10.018   3.165
19372W        W90988  19.088  10.610   3.030
19373W        W90989   8.577  18.047  12.495
19374W        W90990   7.150   1.262  10.715
19375W        W90991  44.186  16.037  14.404
19376W        W90992  39.449  36.072   0.734
19377W        W90993  22.161  29.706  12.352
19378W        W90994  37.405   5.696   0.442
19379W        W90995  44.002   0.482   1.206
19380W        W90996   3.267  28.620  11.150
19381W        W90997   0.388   3.613  12.907
19382W        W90998  11.125   5.420  13.038
19383W        W90999  27.273  44.933   4.884
19384W        W91000  10.273  40.394  10.364
19385W        W91001  36.072  10.356   4.707
19386W        W91002   7.376  29.546  12.849
19387W        W91003  39.024  28.005  10.284
19388W        W91004  11.063  22.543  14.239
19389W        W91005  32.386  40.481   3.727
19390W        W91006  13.156  16.772  12.347
19391W        W91007  41.370  40.598  11.135
19392W        W91008   9.389  10.211   2.652
19393W        W91009   6.342  26.398   5.140
19394W        W91010   6.927   8.183  10.699
19395W        W91011  14.613  28.104   4.586
19396W        W91012  40.304   7.803  11.686
19397W        W91013  10.824   1.712   3.799
19398W        W91014  42.770  31.943   3.218
19399W        W91015  25.697  27.643  13.508
19400W        W91016  25.494   3.744  12.497
19401W        W91017  11.536   8.852   9.978
19402W        W91018  43.429  15.016   4.266
19403W        W91019  21.224   8.152   2.284
19404W        W91020  36.409  37.087  13.310
19405W        W91021  22.090  37.602   3.756
19406W        W91022  36.975  16.300   3.776
19407W        W91023   7.938  19.024  14.559
19408W        W91024   6.233  39.114  14.306
19409W        W91025   1.995   4.159   4.095
19410W        W91026  12.709   2.781   2.500
19411W        W91027  16.683  19.574   2.146
19412W        W91028   7.194  43.926  12.428
19413W        W91029  26.640   8.628   3.132
19414W        W91030   8.401  27.254   4.001
19415W        W91031  21.588   7.128   0.746
19416W        W91032  20.622  40.302  13.480
19417W        W91033  32.540  31.143  11.230
19418W        W91034  19.776  11.178   4.579
19419W        W91035  43.052  14.302  10.600
19420W        W91036   2.771  19.177   0.194
19421W        W91037   5.289  43.110   3.232
19422W        W91038  17.453  37.222   3.643
19423W        W91039  16.809  41.976   2.598
19424W        W91040  43.119  13.424  10.986
19425W        W91041  12.795   8.789  14.770
19426W        W91042   1.835  23.089   4.517
19427W        W91043  23.110  23.996  14.215
19428W        W91044  41.338  27.937   2.307
19429W        W91045  41.889   9.768  13.468
19430W        W91046  27.486   4.221  13.949
19431W        W91047  12.793  30.449   4.145
19432W        W91048   4.333   3.190   2.753
19433W        W91049  37.323   1.714  14.233
19434W        W91050  38.340  33.945   0.870
19435W        W91051  30.040   9.260  14.270
19436W        W91052   0.603  43.892  14.422
19437W        W91053  26.434  28.017   4.573
19438W        W91054  39.939  44.100   2.862
19439W        W91055  22.819  16.540   4.535
19440W        W91056  18.044  13.732   2.303
19441W        W91057   4.182   7.208   0.216
19442W        W91058  12.858  12.531   1.475
19443W        W91059  17.258  20.963   5.020
19444W        W91060  23.213   8.818  14.355
19445W        W91061  18.997   6.895   3.269
19446W        W91062   4.378   1.492   3.686
19447W        W91063  42.474  42.882  13.913
19448W        W91064   8.731   3.252   4.568
19449W        W91065  28.308  26.144  13.998
19450W        W91066   7.599  32.418   3.423
19451W        W91067  33.466  39.826   4.705
19452W        W91068  11.824  21.473   2.355
19453W        W91069  39.866  32.543  14.541
19454W        W91070  26.416   5.940  13.982
19455W        W91071  14.050  20.750  13.316
19456W        W91072   4.134  19.099   0.717
19457W        W91073  17.147  34.609  12.941
19458W        W91074  37.339  23.620  13.408
19459W        W91075  12.135  16.622   0.232
19460W        W91076  12.611  37.934   0.907
19461W        W91077   0.466  21.783   2.816
19462W        W91078  37.869  14.071  11.959
19463W        W91079  23.595  21.889  12.116
19464W        W91080  32.705  13.825  11.247
19465W        W91081  29.947   3.694   2.450
19466W        W91082  17.741  42.260   3.823
19467W        W91083  28.134  19.465  10.306
19468W        W91084  35.420  19.726   1.394
19469W        W91085  14.838  11.657  12.914
19470W        W91086  23.129   1.703  13.411
19471W        W91087   5.237  20.057  11.509
19472W        W91088  32.022  13.312  11.969
19473W        W91089  41.085  29.877   2.901
19474W        W91090  27.713  27.156   1.307
19475W        W91091  32.669   4.706  11.124
19476W        W91092   7.795   4.234   4.839
19477W        W91093  40.580   5.202  11.668
19478W        W91094  30.522  12.937  14.368
19479W        W91095  36.086  17.260  10.596
19480W        W91096  17.487   6.403   0.396
19481W        W91097  27.208  30.109   1.703
19482W        W91098  25.733   9.246   4.252
19483W        W91099   1.194  11.593  11.515
19484W        W91100  32.839  17.838  13.543
19485W        W91101  12.713   5.807   3.336
19486W        W91102   6.139   1.349  13.909
19487W        W91103  42.387  13.670  10.639
19488W        W91104  18.488  19.226   2.231
19489W        W91105  35.472  43.520  10.377
19490W        W91106  13.571  33.378   2.401
19491W        W91107   2.408   8.241  12.586
19492W        W91108  17.107  11.787   0.397
19493W        W91109  24.522  13.596  14.281
19494W        W91110  43.290  31.926   3.069
19495W        W91111  10.748  28.963   4.121
19496W        W91112   5.337  11.764   2.832
19497W        W91113  10.682  15.098   4.336
19498W        W91114  35.582  38.345   3.235
19499W        W91115  34.980  44.420   1.521
19500W        W91116   9.093  43.455  10.606
19501W        W91117  38.114  20.654  14.961
19502W        W91118  24.265  35.082  11.044
19503W        W91119  39.721  34.252   4.743
19504W        W91120  19.363  34.765   2.628
19505W        W91121  39.444  26.491   0.860
19506W        W91122   5.104  35.372  12.944
19507W        W91123  18.648   0.956   4.614
19508W        W91124  38.460  19.060   0.887
19509W        W91125   2.227  38.653  12.183
19510W        W91126  16.423  16.575  10.137
19511W        W91127  23.930  36.132  14.314
19512W        W91128   8.154  13.165   0.617
19513W        W91129  34.722  44.999  14.858
19514W        W91130  39.876  40.288  13.227
19515W        W91131  44.781  39.240   0.399
19516W        W91132  22.460  40.745  12.054
19517W        W91133  42.772   1.552  14.775
19518W        W91134  41.486  19.296  13.283
19519W        W91135  44.330  18.136   1.526
19520W        W91136  37.611  43.036   4.233
19521W        W91137  26.603  29.682  11.119
19522W        W91138  40.110  39.924  14.027
19523W        W91139  19.643  25.026   2.072
19524W        W91140  38.334  17.781   3.130
19525W        W91141  32.877  41.874  12.021
19526W        W91142  19.086  43.752   9.802
19527W        W91143  31.582  24.149   5.018
19528W        W91144   7.388   9.831   4.943
19529W        W91145  35.656  29.945  10.827
19530W        W91146  44.410  17.070   1.321
19531W        W91147   5.717  24.502  13.107
19532W        W91148   2.773  33.900   2.869
19533W        W91149  26.600   9.751   3.418
19534W        W91150  32.604   9.743   4.150
19535W        W91151  35.144  29.556  13.807
19536W        W91152  16.233   9.570  13.496
19537W        W91153  10.751  42.772   4.875
19538W        W91154  24.853  21.103  12.089
19539W        W91155   6.308  32.627  12.680
19540W        W91156  40.599  30.666   1.862
19541W        W91157  41.107  30.540  11.724
19542W        W91158  36.746   3.788   3.067
19543W        W91159  29.531  39.294   4.314
19544W        W91160   1.283   0.525   0.433
19545W        W91161   3.915   0.208   2.880
19546W        W91162  12.607  37.453  14.463
19547W        W91163  17.296  30.986  14.874
19548W        W91164   1.071   6.752  11.605
19549W        W91165  29.311  26.048  13.916
19550W        W91166  42.531   1.733  14.355
19551W        W91167  34.064  15.176   1.788
19552W        W91168  25.096  27.160  11.623
19553W        W91169  35.131  26.996   5.001
19554W        W91170  30.230  12.029  13.520
19555W        W91171  11.285  40.284   0.326
19556W        W91172   3.002  11.158   2.397
19557W        W91173  12.313  38.389   0.944
19558W        W91174  42.998   0.881   2.774
19559W        W91175  24.744  26.151  14.432
19560W        W91176  27.908  12.470   3.144
19561W        W91177  12.563  21.644   2.676
19562W        W91178  32.471  15.332  14.626
19563W        W91179  32.550   8.358  13.040
19564W        W91180  21.515  20.691   2.684
19565W        W91181  10.177   6.266  10.613
19566W        W91182  17.579  14.602  10.643
19567W        W91183  13.799  44.419  13.103
19568W        W91184  34.581   8.025   0.509
19569W        W91185  37.044   1.776   3.651
19570W        W91186  16.349   6.755   2.620
19571W        W91187  21.739  15.820   4.224
19572W        W91188  28.586  25.625  14.560
19573W        W91189  18.672  42.885  14.750
19574W        W91190  41.844  29.976   1.511
19575W        W91191   9.645  18.036   3.236
19576W        W91192  37.317   6.821  12.552
19577W        W91193  39.503  23.575  10.705
19578W        W91194   8.810   6.361  14.609
19579W        W91195  20.751  44.972   1.395
19580W        W91196   4.900  41.601  10.168
19581W        W91197  11.381   7.509   4.153
19582W        W91198  36.776  24.485   2.672
19583W        W91199  25.715   8.356   4.166
19584W        W91200   2.821  31.038   4.661
19585W        W91201  19.538  23.682  10.525
19586W        W91202  43.379  41.401  14.354
19587W        W91203  21.451  11.083   0.646
19588W        W91204   7.758  30.593   3.277
19589W        W91205  29.993  44.256   0.001
19590W        W91206  34.974  28.738   1.319
19591W        W91207  17.168   7.812  13.313
19592W        W91208  41.189  24.076  11.116
19593W        W91209  38.772  10.137  14.446
19594W        W91210   3.432  33.424  11.659
19595W        W91211  15.079   5.917   3.662
19596W        W91212  29.902  31.773   2.832
19597W        W91213  26.064   0.026   3.561
19598W        W91214  36.928  40.881   1.313
19599W        W91215  26.682  39.867   0.676
19600W        W91216  22.835   9.772   1.200
19601W        W91217   6.022   1.681   2.742
19602W        W91218  27.708   9.100  12.059
19603W        W91219  25.627   6.402   1.316
19604W        W91220  37.964  14.260   2.161
19605W        W91221   6.980  33.344   3.600
19606W        W91222   1.266  13.642  11.512
19607W        W91223  12.204  19.651   3.160
19608W        W91224  22.870   3.901   2.879
19609W        W91225  42.502   4.783  13.805
19610W        W91226  16.583  32.434   2.437
19611W        W91227  31.045  31.001  10.328
19612W        W91228  10.167  42.231  10.893
19613W        W91229   3.815  27.111  12.104
19614W        W91230  19.875  34.442   3.739
19615W        W91231  32.635  13.565  12.598
19616W        W91232  41.417  28.259  13.352
19617W        W91233  29.946  44.097   0.512
19618W        W91234   4.879  37.048   3.792
19619W        W91235  17.599  20.650   4.277
19620W        W91236  39.104  29.551  14.082
19621W        W91237  44.900  38.731   3.701
19622W        W91238   8.674  15.678   2.782
19623W        W91239  30.620  13.618  12.295
19624W        W91240  43.517  24.106   4.814
19625W        W91241  42.970  37.629  14.386
19626W        W91242  17.053  26.573  14.314
19627W        W91243  17.828  30.997  11.139
19628W        W91244  21.565   4.903  14.023
19629W        W91245  19.404  39.526   2.896
19630W        W91246  25.931  36.540  12.911
19631W        W91247   7.958  23.214  12.914
19632W        W91248  33.598   1.163  11.141
19633W        W91249  12.882  17.720   0.007
19634W        W91250  42.832  16.126  14.107
19635W        W91251  37.995  40.857   0.764
19636W        W91252   9.330   6.133  12.036
19637W        W91253  20.086  41.795  12.884
19638W        W91254  23.242   2.062  12.544
19639W        W91255   4.353  38.539   3.710
19640W        W91256   1.656  36.359  12.862
19641W        W91257  31.898  14.139  12.543
19642W        W91258  37.084   6.208  13.283
19643W        W91259   3.545  32.611  13.263
19644W        W91260  25.176  39.640  12.508
19645W        W91261   3.132  34.880  13.712
19646W        W91262  22.226   8.090   0.261
19647W        W91263  10.521  44.543   0.219
19648W        W91264   3.012  19.120  11.127
19649W        W91265   2.951   2.479   2.301
19650W        W91266  22.491  24.903   4.285
19651W        W91267  40.977  24.070  12.156
19652W        W91268   5.294  40.790  14.002
19653W        W91269  29.396  33.185  13.358
19654W        W91270  17.275  31.876  11.128
19655W        W91271   7.528  36.394  11.140
19656W        W91272  17.555  32.409   2.397
19657W        W91273  35.502   1.632  13.129
19658W        W91274  28.964  10.633  11.975
19659W        W91275  44.249   8.610  10.651
19660W        W91276   0.786  17.753  12.978
19661W        W91277   6.991  44.282  11.131
19662W        W91278  30.847  13.547  13.590
19663W        W91279   4.414  13.705   4.159
19664W        W91280  19.350  32.481  11.045
19665W        W91281  38.924  19.083  14.263
19666W        W91282  20.999  41.619  11.956
19667W        W91283  34.473  22.329  13.367
19668W        W91284   3.728  11.306   2.627
19669W        W91285  27.528  32.208   4.758
19670W        W91286  34.842   3.385   1.184
19671W        W91287  33.839   3.730   4.786
19672W        W91288  14.922   1.427   2.300
19673W        W91289  23.195  39.635  14.661
19674W        W91290  21.055  15.046   4.044
19675W        W91291  26.763  20.027  14.805
19676W        W91292  40.747   4.612   0.058
19677W        W91293   8.660  25.623  10.740
19678W        W91294   6.393   2.715   2.460
19679W        W91295  30.374   3.899   0.975
19680W        W91296  23.352  18.784  13.933
19681W        W91297  10.809  26.202  13.044
19682W        W91298  30.161  34.623  13.465
19683W        W91299  18.057   0.414  13.891
19684W        W91300  35.100  28.148  12.426
19685W        W91301  29.781  39.327  13.069
19686W        W91302  44.309  19.821   2.141
19687W        W91303  20.582  15.152   3.813
19688W        W91304  30.678  32.298   3.749
19689W        W91305  11.894  31.970   2.841
19690W        W91306  15.274  14.061   3.272
19691W        W91307  13.850  12.513   2.446
19692W        W91308   5.438  17.650  12.682
19693W        W91309  44.790  15.821  10.140
19694W        W91310  16.844  38.384  11.538
19695W        W91311  27.931  13.771   2.848
19696W        W91312  35.520   2.863  14.877
19697W        W91313   9.680  33.039   3.179
19698W        W91314  30.946  18.792  10.741
19699W        W91315  44.982  17.803   2.666
19700W        W91316  15.509  24.460  11.465
19701W        W91317  14.768  32.015   4.647
19702W        W91318  16.168   5.173  12.061
19703W        W91319  42.468  39.165  13.786
19704W        W91320   5.329  44.490   0.385
19705W        W91321  34.884  19.501  11.097
19706W        W91322  38.476  42.931  11.583
19707W        W91323  31.156  11.175   5.178
19708W        W91324  28.039  20.759  10.225
19709W        W91325  41.035   8.417   0.370
19710W        W91326  21.461  30.408   0.324
19711W        W91327  26.931  13.223   4.763
19712W        W91328   3.712  14.664   1.838
19713W        W91329  18.854  15.346  10.755
19714W        W91330  32.180  12.944   3.681
19715W        W91331   7.543   5.504   4.133
19716W        W91332  36.517  39.702  14.894
19717W        W91333  32.165  32.487   0.193
19718W        W91334  19.351  30.651  11.018
19719W        W91335  25.587  36.513  13.287
19720W        W91336  14.246  42.064   2.271
19721W        W91337  18.182  13.607  13.985
19722W        W91338  44.617  12.611   2.691
19723W        W91339  43.873  12.697   0.351
19724W        W91340  18.168  19.605  10.644
19725W        W91341  20.228   0.955   0.234
19726W        W91342  32.264  43.339   1.185
19727W        W91343  37.459   6.970  13.568
19728W        W91344  33.134  43.461   3.623
19729W        W91345  10.716  12.374  14.909
19730W        W91346  15.992  21.642  13.465
19731W        W91347  21.542  33.104   2.200
19732W        W91348  16.088   5.252  14.547
19733W        W91349  40.543  26.913   0.185
19734W        W91350  26.348  17.610   4.131
19735W        W91351  24.132  24.672   3.232
19736W        W91352   8.214  10.102  10.547
19737W        W91353   9.858  31.690  10.765
19738W        W91354  26.629  26.108   2.242
19739W        W91355  20.945  44.350   2.374
19740W        W91356  38.115   5.388  14.238
19741W        W91357  27.873  18.994  11.100
19742W        W91358  19.774  41.304  11.142
19743W        W91359  42.363  37.302   2.446
19744W        W91360  26.256  32.961   2.249
19745W        W91361  29.192  20.111  12.996
19746W        W91362  14.209  27.672   4.439
19747W        W91363   0.385  27.150  13.626
19748W        W91364  34.348  29.776   1.249
19749W        W91365  24.603  28.978  14.032
19750W        W91366   8.474   2.437   1.318
19751W        W91367   9.081  35.979   0.361
19752W        W91368  24.988  31.121  14.404
19753W        W91369   0.332  18.883   2.296
19754W        W91370  24.257  28.680  11.905
19755W        W91371  32.661  25.938   1.316
19756W        W91372  42.577   8.766  12.883
19757W        W91373  29.534  24.416   2.557
19758W        W91374  27.075  19.075  10.622
19759W        W91375  13.684  33.487   1.401
19760W        W91376  27.006   4.461  14.976
19761W        W91377  32.318  35.454  12.610
19762W        W91378  30.086  23.645   0.410
19763W        W91379  11.180  29.107   3.838
19764W        W91380   6.841  12.283  12.591
19765W        W91381  25.128  21.565   3.144
19766W        W91382  10.533   7.733   0.871
19767W        W91383  42.901  17.288   3.323
19768W        W91384   3.818  17.065  14.964
19769W        W91385  42.925  18.970   5.070
19770W        W91386   9.399  21.149  13.386
19771W        W91387  44.296  14.647  13.569
19772W        W91388  30.927   7.189  14.464
19773W        W91389  24.040  37.901  13.109
19774W        W91390  40.991  33.519   4.540
19775W        W91391   9.180  16.810   2.661
19776W        W91392  35.568  12.166  14.278
19777W        W91393  22.341  44.819  12.596
19778W        W91394  21.717  33.403   3.118
19779W        W91395   4.691  20.318  14.279
19780W        W91396  22.429  22.997   3.683
19781W        W91397  22.554  19.808  10.799
19782W        W91398  39.354  12.849   1.391
19783W        W91399  33.945  20.758   2.658
19784W        W91400   8.115  41.519  13.960
19785W        W91401  10.165  11.187  13.561
19786W        W91402  29.408  29.666  12.579
19787W        W91403  20.053  23.249  10.634
19788W        W91404  44.456  32.494   0.241
19789W        W91405   1.212  21.253  13.979
19790W        W91406   5.699  27.497  12.585
19791W        W91407  38.399  25.393  12.562
19792W        W91408  14.367   9.373  14.832
19793W        W91409  14.576  16.647  11.495
19794W        W91410  40.901  12.155  13.534
19795W        W91411   0.384  20.140   4.515
19796W        W91412  31.134  31.397  12.577
19797W        W91413  36.333   9.133  13.241
19798W        W91414  20.098  37.440  14.315
19799W        W91415  12.596   5.041  13.079
19800W        W91416  44.750  26.641  14.274
19801W        W91417   9.805  12.659  12.076
19802W        W91418  27.928   8.969  11.594
19803W        W91419  25.531   8.188  11.901
19804W        W91420  27.104  12.214   5.006
19805W        W91421  39.878  23.009  11.280
19806W        W91422   5.173  32.890  10.184
19807W        W91423  17.813  43.015   0.371
19808W        W91424  42.091  41.402  14.901
19809W        W91425  20.602  43.954   4.408
19810W        W91426  43.465  10.479   0.342
19811W        W91427  17.355   0.399   0.508
19812W        W91428  29.757   3.927   3.763
19813W        W91429  39.600  25.167  11.262
19814W        W91430  20.371  42.894   2.855
19815W        W91431  17.194  10.242   4.530
19816W        W91432  23.868  26.720   1.405
19817W        W91433  11.511  41.440  13.121
19818W        W91434  22.520  20.682   4.548
19819W        W91435  41.930  31.606   0.898
19820W        W91436  36.940  40.333  13.603
19821W        W91437  40.571  31.353  11.083
19822W        W91438  18.065  19.101   3.326
19823W        W91439  30.592  44.833   5.263
19824W        W91440   1.499  19.926   3.635
19825W        W91441  24.844   8.367   4.589
19826W        W91442  44.889   8.651   0.976
19827W        W91443  37.851  43.915   1.898
19828W        W91444  44.416  10.804   1.472
19829W        W91445  10.694  13.589   1.329
19830W        W91446   6.493  30.528   3.217
19831W        W91447  36.112  33.499  11.241
19832W        W91448  39.998   9.594   4.102
19833W        W91449  44.356   3.156  12.451
19834W        W91450  36.873  20.181  13.805
19835W        W91451  26.725  32.230   3.709
19836W        W91452  39.118  27.334   4.157
19837W        W91453   4.922  19.581   1.819
19838W        W91454  39.854  41.317  13.523
19839W        W91455  41.881   2.766  13.368
19840W        W91456  28.175   4.724  14.786
19841W        W91457  13.212  35.325   0.843
19842W        W91458  18.038   7.053   2.909
19843W        W91459  38.976  20.813  14.805
19844W        W91460  24.788  26.590  12.205
19845W        W91461   7.703  17.144  12.985
19846W        W91462  37.224  43.026  14.034
19847W        W91463   6.781  11.295   4.179
19848W        W91464  21.322  32.734  13.775
19849W        W91465   6.325  22.000  13.115
19850W        W91466  29.905  20.511  14.384
19851W        W91467  43.272  41.474   0.662
19852W        W91468  32.009   2.943  11.571
19853W        W91469   9.391  27.229  11.568
19854W        W91470  22.573  40.105  12.483
19855W        W91471  32.595   8.861   4.663
19856W        W91472  30.167   9.718  11.505
19857W        W91473  36.071   5.908   4.089
19858W        W91474  16.274  43.392   3.183
19859W        W91475   4.866  43.603  12.008
19860W        W91476  10.289  19.199   4.054
19861W        W91477  21.277   9.166   1.629
19862W        W91478  44.380  35.354   9.687
19863W        W91479  14.059  31.602   4.585
19864W        W91480  26.392  40.480   4.745
19865W        W91481  17.684  12.564  10.754
19866W        W91482  15.244  14.853  12.453
19867W        W91483  34.069  39.462  12.145
19868W        W91484  18.849  19.506   4.252
19869W        W91485  41.030  31.479  13.840
19870W        W91486   9.193  41.454  13.718
19871W        W91487  38.972  17.309  10.658
19872W        W91488   6.341  27.356   4.306
19873W        W91489  26.904  25.596  12.164
19874W        W91490  36.413  28.204   2.834
19875W        W91491  31.005  44.171   2.985
19876W        W91492   9.216  16.896  11.057
19877W        W91493   5.098  11.505   0.822
19878W        W91494  34.563  24.685   0.283
19879W        W91495  25.980  31.177  11.595
19880W        W91496   3.059   9.789   2.779
19881W        W91497  26.557  40.387  14.820
19882W        W91498  16.175  24.730   3.339
19883W        W91499   0.369  35.152   4.659
19884W        W91500   3.367  10.131   0.730
19885W        W91501   0.523  22.954  10.627
19886W        W91502  33.385  23.621  13.777
19887W        W91503  13.447  18.233  12.187
19888W        W91504  16.608  13.188   2.871
19889W        W91505  38.015   8.153  10.608
19890W        W91506  11.584  31.117   4.763
19891W        W91507  13.373  43.324   4.590
19892W        W91508  23.998  40.508  10.536
19893W        W91509  32.341  41.754   3.091
19894W        W91510  22.506   0.120   3.671
19895W        W91511  39.104   6.848  12.573
19896W        W91512  23.436  28.261  14.911
19897W        W91513   9.952  14.321   2.216
19898W        W91514  14.339  17.054  13.300
19899W        W91515  37.599  35.481  14.424
19900W        W91516  30.657  16.721   4.276
19901W        W91517  23.007  10.090  12.054
19902W        W91518   3.377  24.279   3.786
19903W        W91519  19.358  13.640  11.206
19904W        W91520  44.086   4.696  14.721
19905W        W91521  30.118   3.777   4.123
19906W        W91522  25.720  21.077   1.656
19907W        W91523  31.508  43.405  11.582
19908W        W91524  25.457  29.873  14.362
19909W        W91525  38.234  40.024   3.272
19910W        W91526  44.819  25.688   2.224
19911W        W91527  11.860  43.793  13.295
19912W        W91528  21.133   5.177   3.515
19913W        W91529  32.405  37.522  10.704
19914W        W91530  30.486  44.861   0.760
19915W        W91531  33.444  25.647  14.791
19916W        W91532  18.720  34.951   0.912
19917W        W91533   3.509  41.432  13.900
19918W        W91534   8.657  17.979   3.219
19919W        W91535  38.596  16.711  14.553
19920W        W91536  40.428   8.423  13.945
19921W        W91537  26.995  15.199  12.118
19922W        W91538  27.031   0.394   1.422
19923W        W91539  33.601   5.075  11.005
19924W        W91540  22.977  24.693   1.468
19925W        W91541  22.242  36.573  11.059
19926W        W91542  40.025  42.199   3.657
19927W        W91543   0.505  38.139   3.159
19928W        W91544   6.686   9.287   1.756
19929W        W91545  38.330  29.035  11.809
19930W        W91546  34.689  17.228  10.977
19931W        W91547  34.461  28.543   1.842
19932W        W91548  19.445  34.504   4.655
19933W        W91549  39.002  44.999   3.259
19934W        W91550   1.368   9.641  11.379
19935W        W91551  30.550  35.620   2.512
19936W        W91552   2.087  35.755  13.333
19937W        W91553   4.208  34.660   0.347
19938W        W91554  20.831  14.525  14.953
19939W        W91555  34.927  20.677  13.934
19940W        W91556  31.164  43.848  14.873
19941W        W91557  30.995   3.164   2.754
19942W        W91558  37.579  25.587  13.214
19943W        W91559   7.257   0.363  12.404
19944W        W91560  32.029  44.968   2.412
19945W        W91561   9.743  21.465   1.341
19946W        W91562  12.668   2.549  11.717
19947W        W91563  23.190   8.188   2.346
19948W        W91564  41.961  39.034  13.855
19949W        W91565  33.138  33.040   4.149
19950W        W91566  27.075   4.903  14.238
19951W        W91567  10.242  41.354  10.846
19952W        W91568  35.615  16.531   0.804
19953W        W91569  10.799   6.417   3.939
19954W        W91570   3.559  38.334   4.866
19955W        W91571  44.264  14.163  12.413
19956W        W91572  40.010  35.524   1.893
19957W        W91573  39.973  12.760  12.581
19958W        W91574  21.186   2.438  14.987
19959W        W91575  30.218  13.505   0.436
19960W        W91576  35.425  11.296   0.706
19961W        W91577  43.922   1.390  12.424
19962W        W91578  15.139  39.696  14.158
19963W        W91579  25.872  19.653   2.250
19964W        W91580  20.089  34.474   0.802
19965W        W91581   8.984  42.949  11.169
19966W        W91582  24.954   2.644   1.886
19967W        W91583  12.435  31.994   0.497
19968W        W91584  35.144   6.352  13.465
19969W        W91585  33.624  16.778   1.313
19970W        W91586  34.550  18.731  14.434
19971W        W91587  37.942  19.032   4.689
19972W        W91588  31.658  19.286  14.896
19973W        W91589  31.040  21.522   1.690
19974W        W91590  14.276  13.626   4.560
19975W        W91591  33.683  22.782  14.309
19976W        W91592  26.959   2.455  12.983
19977W        W91593  31.330  35.160   3.275
19978W        W91594  20.764   2.112   0.031
19979W        W91595  35.897  15.330   2.331
19980W        W91596  25.046  33.616  14.895
19981W        W91597  13.760  19.574   1.255
19982W        W91598   7.309  39.995  13.625
19983W        W91599   5.515  22.737  11.450
19984W        W91600  44.492  27.590   1.268
19985W        W91601  12.834  27.119   0.283
19986W        W91602  34.641  16.201  11.735
19987W        W91603  30.716  16.498  13.928
19988W        W91604   8.738  37.259   2.819
19989W        W91605  28.177  33.699  12.434
19990W        W91606   1.938  29.302   4.132
19991W        W91607   6.688  36.154  11.098
19992W        W91608   3.399  26.386  12.244
19993W        W91609  41.311   3.362   0.875
19994W        W91610   0.544  41.256   2.404
19995W        W91611  41.397   9.677  13.303
19996W        W91612  32.182   4.660  10.332
19997W        W91613  28.228   8.393   0.801
19998W        W91614  17.231   2.399   0.328
19999W        W91615  12.688  21.180   3.408
20000W        W91616  32.524  43.289   0.749
20001W        W91617  23.249  42.064   2.714
20002W        W91618  44.564  41.502  14.989
20003W        W91619  29.607   3.456   2.829
20004W        W91620   0.559  17.340  11.820
20005W        W91621  44.003  26.451   3.824
20006W        W91622   0.972  20.658   1.158
20007W        W91623  41.954   8.679   0.969
20008W        W91624  30.365  39.516   0.964
20009W        W91625   3.407   7.870  10.616
20010W        W91626  35.280  28.989   0.785
20011W        W91627  24.657  24.439   4.598
20012W        W91628  42.484   0.157  10.644
20013W        W91629  26.245   6.710   3.116
20014W        W91630   1.177  38.429  12.898
20015W        W91631   4.803   6.964   1.414
20016W        W91632  25.177  27.791  13.011
20017W        W91633  22.186  11.375   0.440
20018W        W91634  35.667  37.631   4.317
20019W        W91635  23.226  15.554  10.742
20020W        W91636  43.805  13.575  12.512
20021W        W91637  19.321  15.342  10.977
20022W        W91638  37.425   8.074   1.722
20023W        W91639  26.732  35.883   4.100
20024W        W91640  40.503  38.116  10.691
20025W        W91641  36.643   6.379  13.522
20026W        W91642  39.591  36.436  14.276
20027W        W91643  17.756  40.508  13.906
20028W        W91644  23.684  13.030  14.173
20029W        W91645  40.612  36.767   2.842
20030W        W91646  24.132   3.160   2.916
20031W        W91647   3.734  13.819   1.350
20032W        W91648   9.444   6.278   2.684
20033W        W91649   9.486  35.391  14.246
20034W        W91650  44.086  38.742   9.822
20035W        W91651  42.738  32.039   4.489
20036W        W91652  11.420  11.671   3.136
20037W        W91653  17.829  33.968  11.472
20038W        W91654  38.300  19.296  11.568
20039W        W91655  41.060  15.219   1.296
20040W        W91656  24.592  19.724   2.692
20041W        W91657  24.205  15.541  14.763
20042W        W91658  25.601  19.134   0.941
20043W        W91659   5.161  17.520   0.354
20044W        W91660  31.021  25.789   4.564
20045W        W91661  30.476   0.951   2.754
20046W        W91662   5.734   9.417   3.787
20047W        W91663  27.633   9.395  11.213
20048W        W91664  13.232  31.119  14.890
20049W        W91665  26.544  32.896  11.608
20050W        W91666  15.707  28.468   2.255
20051W        W91667  41.913  35.900  13.147
20052W        W91668  42.456  41.789   1.881
20053W        W91669  25.562  40.301  11.957
20054W        W91670  25.769  12.314   4.134
20055W        W91671  18.961  29.550   3.646
20056W        W91672  30.697  41.014  11.202
20057W        W91673  37.026   5.797   0.785
20058W        W91674  25.603  39.445   0.668
20059W        W91675  36.431  41.089   3.707
20060W        W91676  23.711   8.233  12.287
20061W        W91677  29.235  22.699   1.340
20062W        W91678   0.799  31.474   1.367
20063W        W91679  42.551  37.919  13.505
20064W        W91680  20.099  11.741   3.895
20065W        W91681   7.230  44.948   1.764
20066W        W91682  42.677  18.583   3.708
20067W        W91683  15.801  44.884   0.951
20068W        W91684  21.869  10.513  14.854
20069W        W91685  22.975  30.099  10.442
20070W        W91686   7.281  21.961   4.659
20071W        W91687   7.907  36.912   0.859
20072W        W91688  13.352  40.432   1.768
20073W        W91689   6.187   9.410  14.939
20074W        W91690  17.727  28.457   4.205
20075W        W91691  40.074  16.146   4.520
20076W        W91692  13.554  36.805  11.653
20077W        W91693  15.826  10.326  13.858
20078W        W91694  44.470  40.900   0.440
20079W        W91695  21.964   5.852  13.952
20080W        W91696  12.646  10.743   0.283
20081W        W91697  31.049  32.057   3.476
20082W        W91698  21.833  21.320  12.891
20083W        W91699  11.403  17.828   4.134
20084W        W91700  31.624  16.655  11.520
20085W        W91701  42.116  10.357   3.778
20086W        W91702  14.693  13.365   0.488
20087W        W91703  34.134  20.810  10.403
20088W        W91704  39.721  16.270   0.808
20089W        W91705  44.919  34.542   0.001
20090W        W91706  11.525   5.408   2.239
20091W        W91707  41.870  26.387   1.653
20092W        W91708  23.992   9.230   4.759
20093W        W91709  11.029   7.921   0.873
20094W        W91710  31.984  26.376  10.657
20095W        W91711  32.091  29.988  13.326
20096W        W91712  21.074  41.493   1.231
20097W        W91713   9.811  35.801   4.847
20098W        W91714  18.273  26.943   3.829
20099W        W91715  10.642  38.952   4.659
20100W        W91716  33.448  13.945   1.868
20101W        W91717  44.676  35.652  14.407
20102W        W91718  13.080  24.676  13.837
20103W        W91719  15.252  41.948  11.950
20104W        W91720  18.808  25.518  12.937
20105W        W91721  17.565  32.887   0.266
20106W        W91722  11.110   0.664  10.973
20107W        W91723  25.021  41.969  14.398
20108W        W91724  33.931  38.514  11.350
20109W        W91725  36.248  12.783  11.584
20110W        W91726  34.999  42.372  11.386
20111W        W91727  15.277  35.454   4.589
20112W        W91728  11.706  31.733  13.886
20113W        W91729  32.619  12.028   1.271
20114W        W91730  16.998  22.339   3.277
20115W        W91731  22.944  19.616  13.864
20116W        W91732   2.475   5.617  14.855
20117W        W91733  37.323  36.313   4.141
20118W        W91734  32.003   5.813  13.787
20119W        W91735  24.489   4.882   3.580
20120W        W91736   6.664  14.138  11.698
20121W        W91737   3.613  27.484   0.394
20122W        W91738  35.563  39.835  11.542
20123W        W91739  19.156   0.080   3.663
20124W        W91740  26.053  41.503   1.709
20125W        W91741  15.095  37.177  11.506
20126W        W91742  12.912  28.649  14.500
20127W        W91743  22.546  43.070  10.692
20128W        W91744  36.295  22.627  13.997
20129W        W91745  32.899   5.858  11.977
20130W        W91746  32.615  41.335  12.034
20131W        W91747  21.959  34.068   0.830
20132W        W91748  24.371  26.460   4.556
20133W        W91749  39.348  33.638  10.909
20134W        W91750  31.903   9.375   1.800
20135W        W91751  29.298  30.634   3.338
20136W        W91752  21.286  13.266   1.970
20137W        W91753  23.527  30.481   4.313
20138W        W91754  16.698   7.592   1.880
20139W        W91755  11.825  41.449   0.871
20140W        W91756  18.021  33.730   4.099
20141W        W91757  28.608   9.443   0.404
20142W        W91758  41.255  23.956  13.890
20143W        W91759   7.641   3.421  10.275
20144W        W91760  23.860  19.711   3.547
20145W        W91761  13.889  16.664   3.969
20146W        W91762  38.948  20.260  14.816
20147W        W91763  31.506  20.514  14.522
20148W        W91764  20.756  27.861  10.462
20149W        W91765  26.697  20.839  11.573
20150W        W91766   9.808  37.688  14.398
20151W        W91767  27.043   6.440   3.473
20152W        W91768  30.591  43.841  12.544
20153W        W91769  39.878  20.952   1.765
20154W        W91770  10.458  35.926  14.876
20155W        W91771  41.513   9.984   2.231
20156W        W91772  41.019   8.977  10.744
20157W        W91773  12.100   5.882   4.848
20158W        W91774  20.316  37.506  12.425
20159W        W91775  11.889  41.384  13.510
20160W        W91776   3.494  40.029  12.078
20161W        W91777  24.783   0.756   2.158
20162W        W91778  20.721   2.805   4.094
20163W        W91779   5.044  24.436  12.606
20164W        W91780  25.241  41.857   4.629
20165W        W91781   4.444  35.784  14.030
20166W        W91782  38.462  37.179  11.892
20167W        W91783  34.001  23.756   1.665
20168W        W91784  39.885  34.455   3.771
20169W        W91785  24.870   2.106   1.935
20170W        W91786  22.760  31.436   3.130
20171W        W91787  41.019  17.383   0.488
20172W        W91788  30.912  19.600  14.730
20173W        W91789   9.587   1.487  11.965
20174W        W91790  42.769  38.788  14.038
20175W        W91791  13.228   5.379   0.782
20176W        W91792   1.552  42.293   0.221
20177W        W91793  26.700  15.302   1.880
20178W        W91794  27.927  23.262  14.960
20179W        W91795  18.630  44.357  14.979
20180W        W91796   8.090   7.882  11.177
20181W        W91797  44.064  40.308  12.853
20182W        W91798  25.118  44.877  13.829
20183W        W91799  29.189  44.551  13.835
20184W        W91800  19.833  15.224   2.846
20185W        W91801   0.178  16.275   3.817
20186W        W91802   6.418  13.202  13.314
20187W        W91803  11.537  44.468  11.517
20188W        W91804   5.085  24.162  11.926
20189W        W91805  31.069  27.094  12.503
20190W        W91806  11.649  38.984   1.328
20191W        W91807  41.750  39.536  13.363
20192W        W91808  21.362  12.194   2.402
20193W        W91809  42.103   5.698   0.507
20194W        W91810  16.577  28.161  11.091
20195W        W91811  12.896   4.896   1.858
20196W        W91812  34.663   1.401   5.452
20197W        W91813  19.374  23.581   3.636
20198W        W91814  37.780   6.357   1.624
20199W        W91815  14.376  16.024  14.962
20200W        W91816  27.506  32.417   3.181
20201W        W91817   9.799  40.677  13.876
20202W        W91818  26.029   6.278   0.521
20203W        W91819  31.583   0.700  11.513
20204W        W91820   2.308  25.781   5.452
20205W        W91821  21.649  14.592   2.379
20206W        W91822  23.079  13.792  14.472
20207W        W91823   8.253   4.456  13.327
20208W        W91824   3.900  12.688  10.590
20209W        W91825   1.660  12.320  12.462
20210W        W91826  34.526  20.808   2.000
20211W        W91827  10.905   3.204   2.846
20212W        W91828   1.308   9.798   2.693
20213W        W91829   8.112  12.194  11.021
20214W        W91830  44.824  37.893  14.260
20215W        W91831  21.394  10.352   2.899
20216W        W91832  23.590  34.372  12.992
20217W        W91833  14.177  27.788  13.996
20218W        W91834  39.796  26.009  11.480
20219W        W91835  22.070  12.075   3.544
20220W        W91836   2.878  37.890  13.561
20221W        W91837   8.170  22.760   3.313
20222W        W91838  31.102  35.364   4.664
20223W        W91839  42.871   5.898   0.500
20224W        W91840   6.474  37.369   3.658
20225W        W91841  44.997   4.494   0.259
20226W        W91842  32.404  26.535   4.251
20227W        W91843  39.698  13.094  14.994
20228W        W91844   6.146   2.237  11.352
20229W        W91845   0.981  35.163  10.704
20230W        W91846  29.592  29.108  10.451
20231W        W91847   9.698  24.022   4.702
20232W        W91848  24.249   7.493   0.898
20233W        W91849  20.796  10.787  11.625
20234W        W91850   0.783  26.507   3.189
20235W        W91851   8.448  18.243   0.823
20236W        W91852  44.190  28.408  13.793
20237W        W91853   1.379  25.404  11.615
20238W        W91854   9.232  27.965   0.902
20239W        W91855  41.570   1.534   0.455
20240W        W91856  40.294  39.274   2.688
20241W        W91857  14.531  28.577  13.468
20242W        W91858  31.467  28.516  13.937
20243W        W91859  15.462   6.194  13.493
20244W        W91860  32.343  19.868   2.196
20245W        W91861  28.066  21.062   4.226
20246W        W91862  29.068  34.950   3.998
20247W        W91863   9.933  19.859  13.561
20248W        W91864  28.114  17.858   0.673
20249W        W91865  10.201  44.828   0.773
20250W        W91866  36.599  22.835  11.039
20251W        W91867  20.025   4.625  10.021
20252W        W91868  12.897  13.763   2.777
20253W        W91869  29.604  33.164   0.411
20254W        W91870  23.177  41.738   4.495
20255W        W91871  26.301  19.037  14.846
20256W        W91872   7.327   6.849   0.033
20257W        W91873   4.656  34.076   2.288
20258W        W91874  23.954  29.720  11.131
20259W        W91875  37.111  32.648   1.519
20260W        W91876   0.512  22.960  13.084
20261W        W91877  43.599  27.904   2.784
20262W        W91878   7.447  34.942  14.807
20263W        W91879  31.549  37.028  14.599
20264W        W91880   5.249  13.183  13.680
20265W        W91881  27.896   3.769  14.407
20266W        W91882  21.036  38.809  11.914
20267W        W91883  18.010  17.789  10.425
20268W        W91884  15.332   2.861   2.285
20269W        W91885   8.610  17.647  12.910
20270W        W91886   9.443  25.070   1.984
20271W        W91887  13.296  41.538  10.673
20272W        W91888  26.202  36.421  13.988
20273W        W91889  14.341  26.030  13.431
20274W        W91890  25.095  34.913   5.317
20275W        W91891  13.798  34.601  11.156
20276W        W91892  41.522  23.709  13.270
20277W        W91893  42.738  14.215  11.441
20278W        W91894   8.676  43.771  10.611
20279W        W91895   3.981  30.596   1.423
20280W        W91896  19.827  16.092  13.722
20281W        W91897  18.216  22.188  13.327
20282W        W91898  39.103  19.764  14.878
20283W        W91899  20.626  12.682  10.638
20284W        W91900  12.120  34.105   0.239
20285W        W91901  17.743  42.352  12.545
20286W        W91902  21.996   2.970   3.220
20287W        W91903  16.430  29.060   0.991
20288W        W91904  20.689  34.985  12.109
20289W        W91905   0.424  20.242  14.979
20290W        W91906  44.155  23.628   1.671
20291W        W91907  43.894   9.721   0.268
20292W        W91908  29.914  12.378   2.202
20293W        W91909  19.041  38.384  14.705
20294W        W91910  25.370   4.285   1.718
20295W        W91911  23.799  36.563   3.728
20296W        W91912  29.184   8.323  10.649
20297W        W91913  36.958  14.139  11.863
20298W        W91914  39.894  17.763  11.989
20299W        W91915  33.899  14.148  12.526
20300W        W91916  15.333  25.204  13.723
20301W        W91917  31.647  33.716   1.894
20302W        W91918  29.426   4.248  13.538
20303W        W91919  22.131  24.796   0.342
20304W        W91920  30.490  43.653   2.283
20305W        W91921  28.663  37.573  10.685
20306W        W91922  41.513  17.185   4.594
20307W        W91923   5.500  40.456  12.481
20308W        W91924  14.438  39.438   3.052
20309W        W91925  18.269  42.296   3.117
20310W        W91926  29.134  12.863   1.135
20311W        W91927  19.814   1.816  14.052
20312W        W91928  26.140  10.615  10.696
20313W        W91929  28.389  17.062   2.904
20314W        W91930  13.110  20.259  14.226
20315W        W91931  29.052  37.521   2.204
20316W        W91932  18.507   7.372   3.885
20317W        W91933   6.174  42.385  14.486
20318W        W91934  43.460  44.765   2.360
20319W        W91935  19.634  30.531   4.051
20320W        W91936   5.026  23.556  12.671
20321W        W91937   4.787   3.433  10.670
20322W        W91938  28.452  30.492  12.558
20323W        W91939  10.968  35.306   4.102
20324W        W91940   3.289  32.881  11.433
20325W        W91941  39.243  24.023   3.694
20326W        W91942  12.562  31.993   2.326
20327W        W91943   3.500  21.641  11.553
20328W        W91944  39.827  27.036   3.689
20329W        W91945  18.759   5.481   1.760
20330W        W91946   5.271  42.077  11.174
20331W        W91947  29.727  32.081  11.679
20332W        W91948   7.312  18.476   0.320
20333W        W91949  18.320  19.738  11.119
20334W        W91950  12.581   0.946   3.657
20335W        W91951  14.254  21.982  10.781
20336W        W91952  34.917  38.332   3.822
20337W        W91953  18.287  26.581   0.887
20338W        W91954  29.507  19.848   1.029
20339W        W91955  30.867   2.717   3.660
20340W        W91956  29.141  37.479   3.625
20341W        W91957  23.200   5.020  11.966
20342W        W91958  44.763  34.639  12.516
20343W        W91959  12.292  10.274  11.136
20344W        W91960  20.217  27.575   1.473
20345W        W91961  44.931  13.195  10.633
20346W        W91962  13.787  22.950  13.335
20347W        W91963  38.297  34.439  14.030
20348W        W91964  44.411  22.521  11.212
20349W        W91965   8.257  12.201  14.446
20350W        W91966  20.511  20.195   0.862
20351W        W91967  10.631  26.450  13.451
20352W        W91968  23.197  16.364   0.775
20353W        W91969  12.045   7.711  11.540
20354W        W91970  28.120  41.768   0.895
20355W        W91971  15.898  23.030   4.628
20356W        W91972  39.926  19.222  13.138
20357W        W91973  35.413  21.169   5.111
20358W        W91974  33.073  25.184  10.277
20359W        W91975  17.232   8.930  11.484
20360W        W91976  35.521  42.682   3.199
20361W        W91977   4.243  35.038   3.242
20362W        W91978  15.726  15.188  14.025
20363W        W91979   5.231   6.727   0.349
20364W        W91980  21.607   9.124   0.954
20365W        W91981   8.754   8.296  12.887
20366W        W91982   6.865  16.398   0.831
20367W        W91983  25.240   4.989  14.860
20368W        W91984  23.549  36.439  11.945
20369W        W91985  31.676  31.614  11.101
20370W        W91986  19.737  21.275   3.684
20371W        W91987   9.364   7.275   2.626
20372W        W91988  41.534  11.339  14.903
20373W        W91989   1.238   2.143   1.792
20374W        W91990  12.925   1.881  12.484
20375W        W91991   0.765  21.004   2.679
20376W        W91992  38.281  37.528   3.654
20377W        W91993  28.949   2.871   1.269
20378W        W91994  39.191  21.135   0.213
20379W        W91995  27.302  20.940   5.022
20380W        W91996  36.558  41.777   5.008
20381W        W91997  19.871  35.281   3.207
20382W        W91998  42.784  42.139   4.425
20383W        W91999  16.704  21.536  14.999
20384W        W92000   8.235  38.869   3.750
20385W        W92001  29.031   2.256  13.615
20386W        W92002  11.716  43.750  11.118
20387W        W92003  25.441   2.363   1.266
20388W        W92004   8.321  36.616  13.884
20389W        W92005  41.103  18.128  14.593
20390W        W92006   6.889  20.406  12.359
20391W        W92007   1.069   0.856   2.352
20392W        W92008  44.728   0.202   3.180
20393W        W92009  31.903  21.805  13.562
20394W        W92010  34.191  21.034  11.604
20395W        W92011   3.916   6.631  11.636
20396W        W92012  14.038   3.908   1.056
20397W        W92013  31.511   5.645  11.709
20398W        W92014  32.874  36.708   2.460
20399W        W92015  40.923   2.304   1.718
20400W        W92016  16.865  32.706   4.163
20401W        W92017  15.950  34.877  13.780
20402W        W92018   3.282  19.491  12.033
20403W        W92019  29.046   5.127  13.331
20404W        W92020  13.465  12.746   1.649
20405W        W92021  35.511  32.596  13.906
20406W        W92022   9.833  23.585   2.891
20407W        W92023  42.210  10.848  14.850
20408W        W92024  37.907  24.320   2.256
20409W        W92025  34.939  15.370   3.305
20410W        W92026   6.829   0.446   2.192
20411W        W92027  18.523  22.526   2.322
20412W        W92028   0.326  31.101   0.771
20413W        W92029  19.751  33.229   2.670
20414W        W92030  35.997  24.993  11.661
20415W        W92031   6.566  17.280   3.071
20416W        W92032  16.302  34.388   2.442
20417W        W92033  18.237  43.505  14.818
20418W        W92034   8.694  30.086   1.377
20419W        W92035  34.928  26.999   2.118
20420W        W92036  30.016  11.364   2.285
20421W        W92037   1.634   2.660   0.798
20422W        W92038  40.054   5.014   1.277
20423W        W92039   7.397  33.166   4.307
20424W        W92040  34.918  35.200  12.041
20425W        W92041  21.215  30.010  12.637
20426W        W92042  19.382  44.430  11.433
20427W        W92043  12.887  41.631  12.007
20428W        W92044   4.388   0.268  14.381
20429W        W92045  36.925   1.432  12.885
20430W        W92046  13.332  38.506   3.317
20431W        W92047  10.540  39.740   3.260
20432W        W92048   1.280  19.533  11.111
20433W        W92049  24.932  24.637   0.933
20434W        W92050  17.174  37.297   2.310
20435W        W92051  11.151  13.866  13.437
20436W        W92052  29.669   3.900  11.091
20437W        W92053  24.438  15.773  11.655
20438W        W92054  35.524  35.968  13.376
20439W        W92055  10.724  28.219  11.213
20440W        W92056   2.117  13.176  12.335
20441W        W92057  36.794   1.339  10.369
20442W        W92058   9.751  21.001   0.661
20443W        W92059  13.322  26.435  14.452
20444W        W92060  24.300  10.698  10.605
20445W        W92061  42.048  35.494   4.775
20446W        W92062  21.567  35.349  13.363
20447W        W92063  37.842  31.916   1.815
20448W        W92064   7.779  14.243   3.590
20449W        W92065  15.786   6.204   9.729
20450W        W92066   5.210  16.808  12.248
20451W        W92067  41.670  17.139  10.752
20452W        W92068   6.471   1.436   2.831
20453W        W92069  32.402  30.605   0.328
20454W        W92070  28.530  40.006  14.390
20455W        W92071  26.308  36.337  12.622
20456W        W92072  17.085   3.018  14.346
20457W        W92073  43.826  15.861   2.463
20458W        W92074  19.381  39.731  11.675
20459W        W92075  38.320  43.479  13.458
20460W        W92076  32.994  43.416  12.046
20461W        W92077  14.795  10.475   3.740
20462W        W92078   4.394  19.194  11.589
20463W        W92079  16.802  39.827  13.399
20464W        W92080   3.452   2.346  14.831
20465W        W92081   3.219  33.042   1.312
20466W        W92082  40.495   9.844  14.125
20467W        W92083  33.877  21.102  13.402
20468W        W92084  33.174  38.063  11.979
20469W        W92085  30.063  29.632   4.553
20470W        W92086  31.991  27.555   4.641
20471W        W92087  20.438  28.423  13.366
20472W        W92088  18.341  34.032   0.536
20473W        W92089  43.046   5.893   2.797
20474W        W92090  24.601  19.764  12.481
20475W        W92091  43.376   0.864   3.847
20476W        W92092   6.582  37.771   4.985
20477W        W92093   9.155   6.669  14.324
20478W        W92094  18.317  28.147  10.649
20479W        W92095  41.333  13.843   4.684
20480W        W92096  41.843  31.652  11.522
20481W        W92097  31.753   8.800   0.103
20482W        W92098  17.488  16.112   0.744
20483W        W92099  39.030  38.483   4.497
20484W        W92100   7.887   0.769   4.100
20485W        W92101  35.515  30.082   2.499
20486W        W92102  13.839  14.526  12.602
20487W        W92103  15.522  40.085  11.398
20488W        W92104  14.391  34.750  10.545
20489W        W92105  24.599   0.173   0.273
20490W        W92106  23.316  41.432   1.338
20491W        W92107  16.102  31.405  13.443
20492W        W92108  14.729  19.280  11.504
20493W        W92109   3.959  22.415  14.257
20494W        W92110  17.519  26.763   0.234
20495W        W92111  33.971   1.046  14.518
20496W        W92112  14.044  25.754  11.127
20497W        W92113  38.081  24.166  11.291
20498W        W92114  22.504  42.404   0.965
20499W        W92115  20.999  18.551   4.940
20500W        W92116   3.869  42.589  14.302
20501W        W92117  38.052  26.225  12.704
20502W        W92118  44.429   1.264  11.003
20503W        W92119  24.234   1.463  13.845
20504W        W92120  43.444  24.556   2.743
20505W        W92121  29.565  22.005   2.400
20506W        W92122   7.162  25.032  11.924
20507W        W92123   3.444  25.415  12.363
20508W        W92124   0.427  44.514   2.330
20509W        W92125   6.275  28.072   1.775
20510W        W92126  35.345  22.938   3.622
20511W        W92127  26.320  43.716   1.866
20512W        W92128  38.549   7.930  12.231
20513W        W92129  29.881  34.578  12.078
20514W        W92130  42.474  14.676  10.569
20515W        W92131   2.753  27.404   1.053
20516W        W92132  32.680   4.255   3.009
20517W        W92133  29.496  26.662   4.242
20518W        W92134  35.362  37.894   3.143
20519W        W92135  14.309  23.487  13.443
20520W        W92136  15.015  44.426  12.311
20521W        W92137  10.830   9.691  11.376
20522W        W92138  30.775   9.085   5.015
20523W        W92139  24.269  40.469   1.394
20524W        W92140   9.891   7.983  13.453
20525W        W92141  18.170   8.048  14.270
20526W        W92142  37.485  31.052  13.962
20527W        W92143   4.369  21.598  12.937
20528W        W92144  19.006  39.546  11.963
20529W        W92145  15.692   1.477   4.654
20530W        W92146  18.763  30.582  11.753
20531W        W92147  19.082  32.936   1.528
20532W        W92148  40.241  21.539  12.461
20533W        W92149  44.438  30.441  11.719
20534W        W92150   7.609  11.369   3.251
20535W        W92151  38.901  25.554  12.554
20536W        W92152   4.681  10.362   0.328
20537W        W92153  19.907  31.793  10.750
20538W        W92154  37.101  37.672   2.748
20539W        W92155   6.712  12.086  14.916
20540W        W92156  37.440  36.697   3.106
20541W        W92157  24.450  39.161  13.068
20542W        W92158   1.888  35.657  14.710
20543W        W92159  39.403  34.929  10.692
20544W        W92160  28.896  33.043   5.007
20545W        W92161  14.036  22.001   4.061
20546W        W92162  31.832  30.031   2.710
20547W        W92163  16.765  33.616   3.522
20548W        W92164   2.789  18.121  14.710
20549W        W92165  20.095  27.797   3.308
20550W        W92166  33.242   7.279   4.617
20551W        W92167  44.809  11.901   0.281
20552W        W92168  12.406  36.688  13.410
20553W        W92169  25.980  31.457  12.527
20554W        W92170   1.964  13.406   2.884
20555W        W92171  27.513  35.775  11.860
20556W        W92172  26.137  21.643  11.956
20557W        W92173  31.519   7.800  11.894
20558W        W92174  36.128   9.289   2.631
20559W        W92175  12.797  27.705   4.199
20560W        W92176  29.690  21.202  14.655
20561W        W92177   5.872  43.421   2.583
20562W        W92178  33.416  26.709  13.914
20563W        W92179  30.564  11.569   0.910
20564W        W92180  12.782   1.243  14.443
20565W        W92181  35.917  27.353   4.041
20566W        W92182  30.925  39.865   1.748
20567W        W92183   8.171  34.351  11.066
20568W        W92184  43.597  24.436   1.361
20569W        W92185  39.063  20.407   1.488
20570W        W92186  35.915  44.877   0.410
20571W        W92187  37.117  17.683  11.878
20572W        W92188  17.787  10.864   3.611
20573W        W92189   8.876  40.000   2.923
20574W        W92190   4.546  23.713  12.462
20575W        W92191  10.679  22.220  12.189
20576W        W92192  41.918  33.257  14.772
20577W        W92193  29.009  23.071   0.192
20578W        W92194  38.834  14.850  12.706
20579W        W92195   0.329   5.226  11.927
20580W        W92196  25.166   7.740  11.584
20581W        W92197   3.280  29.990   3.971
20582W        W92198  34.339  28.590   0.508
20583W        W92199   5.205  22.626  10.235
20584W        W92200  21.479  19.204  14.007
20585W        W92201  23.996  10.794   1.244
20586W        W92202   4.157   4.958   3.262
20587W        W92203  15.782  32.110   3.661
20588W        W92204  43.469   4.495   2.404
20589W        W92205  26.678  29.461   4.395
20590W        W92206  25.651  29.261   4.598
20591W        W92207  18.227   6.026   2.890
20592W        W92208  20.101  17.512   2.330
20593W        W92209   7.190  41.738  12.002
20594W        W92210   7.343  23.146   4.524
20595W        W92211   3.686   0.671   2.907
20596W        W92212   7.769  18.249   3.784
20597W        W92213  22.284  19.761   2.771
20598W        W92214  34.354  40.527  10.805
20599W        W92215  20.102   1.003  11.568
20600W        W92216  23.672  20.020   2.935
20601W        W92217   5.046  21.690  14.902
20602W        W92218  35.977  14.140   4.879
20603W        W92219  31.877  13.674   0.813
20604W        W92220  15.975  12.377   4.331
20605W        W92221  37.949   9.642   2.153
20606W        W92222  43.842  43.065   2.039
20607W        W92223   2.247   7.713  13.300
20608W        W92224  27.735   3.439   2.811
20609W        W92225   2.755  16.630   1.808
20610W        W92226  10.715   2.198  10.554
20611W        W92227  19.586   9.363  13.470
20612W        W92228  30.426  17.147  12.471
20613W        W92229  16.529  44.409  13.984
20614W        W92230   0.034  11.908   4.268
20615W        W92231  12.158  16.724  12.539
20616W        W92232  44.442  36.099   2.219
20617W        W92233  12.104  24.100  12.857
20618W        W92234   1.111  15.821   0.663
20619W        W92235   0.476  23.516   3.624
20620W        W92236   3.991  17.447  11.159
20621W        W92237   6.475  37.007  14.749
20622W        W92238   9.955  21.664  13.895
20623W        W92239  15.066  10.594  12.342
20624W        W92240  37.418  42.853   4.707
20625W        W92241  15.083  44.478   4.071
20626W        W92242  15.559  33.462   0.331
20627W        W92243  14.184   1.032   3.182
20628W        W92244  24.023  37.537  12.509
20629W        W92245  23.083   3.439   4.593
20630W        W92246  40.981  29.190  11.977
20631W        W92247  37.405  29.959  14.585
20632W        W92248  20.055  44.348  14.353
20633W        W92249  25.227   2.393  12.746
20634W        W92250   2.964  39.570   2.641
20635W        W92251  38.071   4.342   0.305
20636W        W92252  42.794  19.569   0.302
20637W        W92253  15.660  35.170  13.373
20638W        W92254  14.092  19.077  13.397
20639W        W92255  21.228   8.735   3.572
20640W        W92256  25.457  44.325   1.752
20641W        W92257  26.987   6.372  14.613
20642W        W92258  15.816   1.170   2.205
20643W        W92259   2.824   7.535   2.758
20644W        W92260  12.440  33.648   3.313
20645W        W92261  24.203  30.603   1.473
20646W        W92262  27.800  35.938   9.884
20647W        W92263  32.428   7.779   4.553
20648W        W92264   6.593  39.621  11.182
20649W        W92265  19.088  39.378   0.002
20650W        W92266  40.545  44.020   1.290
20651W        W92267   5.789  19.321  11.667
20652W        W92268  22.462  10.628  12.507
20653W        W92269  12.063  15.430   2.483
20654W        W92270  21.850  35.066   0.416
20655W        W92271  31.927  11.850  13.842
20656W        W92272  34.383  22.598   1.645
20657W        W92273  10.390  25.697  10.805
20658W        W92274  32.898  23.473  12.575
20659W        W92275  40.829   1.192   4.634
20660W        W92276  23.935  26.087  11.033
20661W        W92277  27.898  26.975  11.556
20662W        W92278  36.031   5.310  13.353
20663W        W92279  12.411  26.007  14.396
20664W        W92280   6.381  21.208   3.249
20665W        W92281  25.676  43.255   3.206
20666W        W92282   3.912  15.785   0.246
20667W        W92283  42.486  15.040   3.271
20668W        W92284  17.071  42.971   0.831
20669W        W92285  12.319  25.055  11.573
20670W        W92286  35.954  32.978   0.281
20671W        W92287  23.115   4.901   2.495
20672W        W92288  17.678  21.107  11.614
20673W        W92289  41.311  32.183   3.359
20674W        W92290  30.982  37.896   4.429
20675W        W92291  16.385  12.305   0.925
20676W        W92292  33.421  38.981   1.535
20677W        W92293  42.189  10.412  11.208
20678W        W92294   3.026   0.715   0.436
20679W        W92295  40.908  43.478  13.257
20680W        W92296  14.087  38.472  14.452
20681W        W92297  24.119  17.368   4.164
20682W        W92298  43.616  38.398  13.925
20683W        W92299  42.991  27.897  11.999
20684W        W92300   3.498  40.469  13.564
20685W        W92301  16.326  14.739  14.355
20686W        W92302  21.752  33.365   1.244
20687W        W92303  21.557  43.739   2.852
20688W        W92304  28.871  11.958  11.689
20689W        W92305  41.525  25.627   4.143
20690W        W92306  12.610  44.617  12.926
20691W        W92307   4.713  18.543   4.086
20692W        W92308   3.074   3.763   1.797
20693W        W92309   8.716  25.284   3.600
20694W        W92310  35.973  12.696  12.897
20695W        W92311   0.901  39.594   2.894
20696W        W92312   4.731  14.123   2.233
20697W        W92313  21.325  36.835  12.076
20698W        W92314  33.832  31.711  13.485
20699W        W92315   2.829   4.785  14.220
20700W        W92316  33.408  14.824   2.307
20701W        W92317   0.266   2.677  14.088
20702W        W92318   7.294  35.401   4.745
20703W        W92319  21.567   4.384   0.218
20704W        W92320   9.458  35.901  10.281
20705W        W92321  13.128  34.101  12.393
20706W        W92322  21.305  11.554  11.107
20707W        W92323  41.445   8.751  14.750
20708W        W92324   0.980   8.827   2.728
20709W        W92325  31.035  19.411  12.961
20710W        W92326  23.240  33.633   4.423
20711W        W92327   5.027  29.232  14.183
20712W        W92328  15.607  36.173   4.583
20713W        W92329  42.779  32.705   2.745
20714W        W92330  17.045  25.672   3.779
20715W        W92331  30.678  36.994  11.096
20716W        W92332  18.044  28.656   2.798
20717W        W92333   1.223   3.872  10.553
20718W        W92334  34.403  32.914  12.021
20719W        W92335  30.830  36.511   0.067
20720W        W92336   8.412  13.698   2.524
20721W        W92337  29.529   8.115  10.990
20722W        W92338  32.636  12.251   4.624
20723W        W92339   7.162  18.287  14.093
20724W        W92340  10.753   9.703   0.827
20725W        W92341  37.668  13.873  14.345
20726W        W92342  40.844   8.378  11.023
20727W        W92343  15.779  34.563   3.676
20728W        W92344  28.099  31.456   2.473
20729W        W92345  16.748  40.839   4.100
20730W        W92346  25.701  19.636  13.953
20731W        W92347  18.789  22.920   9.906
20732W        W92348  32.995   6.279   0.024
20733W        W92349  22.115  23.037   0.508
20734W        W92350  29.376   9.965   3.747
20735W        W92351   2.945   4.139   3.134
20736W        W92352  43.506  39.114  10.958
20737W        W92353  22.770  21.906  14.328
20738W        W92354   2.928  13.860  14.977
20739W        W92355  16.953  29.454  14.968
20740W        W92356  42.338  22.094  12.474
20741W        W92357  19.064   9.611   0.251
20742W        W92358  12.644  25.693  12.025
20743W        W92359  40.930   9.775  14.953
20744W        W92360  22.047  28.205  10.952
20745W        W92361  34.937   2.641  11.126
20746W        W92362  24.869  14.895   5.009
20747W        W92363  28.984  15.857   3.212
20748W        W92364  13.425  23.430  13.777
20749W        W92365   0.822  12.743   2.160
20750W        W92366   9.762  22.126   1.175
20751W        W92367  23.964  23.212   0.477
20752W        W92368   3.748  33.075   1.214
20753W        W92369   9.210  11.636  11.597
20754W        W92370   0.568   3.845  12.479
20755W        W92371  23.641  44.464   0.335
20756W        W92372   8.190  10.338   1.008
20757W        W92373  22.652  38.561   0.758
20758W        W92374  43.101  26.537  12.854
20759W        W92375  42.447  10.898  12.106
20760W        W92376  42.890  31.355  14.903
20761W        W92377  20.763  33.794   2.231
20762W        W92378  15.277  41.552   2.233
20763W        W92379  11.687   4.731  12.948
20764W        W92380  28.183  11.363  11.985
20765W        W92381  26.282  44.451  10.849
20766W        W92382  34.121  27.271   2.388
20767W        W92383  43.114  35.958   3.108
20768W        W92384  15.367  16.380   4.986
20769W        W92385  35.431   6.451   3.799
20770W        W92386  37.994  11.561  14.326
20771W        W92387  42.558   1.043  11.059
20772W        W92388  16.308  26.117   2.850
20773W        W92389   4.774  27.362   3.174
20774W        W92390  16.607  31.969  14.819
20775W        W92391  14.755  17.813  13.596
20776W        W92392  10.909  32.011   0.404
20777W        W92393  24.773  20.205   0.941
20778W        W92394  41.061   2.236   0.056
20779W        W92395  41.867  16.658  11.629
20780W        W92396  38.004   1.755   3.708
20781W        W92397  26.953  15.810  12.768
20782W        W92398  23.161   2.720  13.102
20783W        W92399  32.692  29.745   9.821
20784W        W92400  16.069   1.873   3.131
20785W        W92401  38.370  14.952   0.836
20786W        W92402   0.257   2.683   3.331
20787W        W92403  13.392  29.244   4.661
20788W        W92404  10.597  37.410   0.316
20789W        W92405  25.926  24.224   1.602
20790W        W92406   4.564  38.032  10.466
20791W        W92407  22.749  13.250  12.128
20792W        W92408  38.070  35.477   3.171
20793W        W92409  14.628   3.910   4.230
20794W        W92410  27.414  13.996   5.485
20795W        W92411   3.450   0.604  12.852
20796W        W92412   2.326   7.743   3.438
20797W        W92413  34.547   3.637  14.770
20798W        W92414  20.204   4.386  12.855
20799W        W92415   0.558  10.726   4.866
20800W        W92416   5.630  25.622  10.660
20801W        W92417  28.109  36.963   4.855
20802W        W92418   7.824  27.393  11.908
20803W        W92419  11.933   8.800  14.572
20804W        W92420  27.318  13.538   4.826
20805W        W92421  14.750  28.984   0.958
20806W        W92422  42.286   9.675   1.675
20807W        W92423  21.609  13.145   4.690
20808W        W92424   9.204  39.860   0.870
20809W        W92425   8.344  41.337  14.409
20810W        W92426  15.997   5.994   2.820
20811W        W92427  35.915  34.334  11.508
20812W        W92428   0.514   7.309   4.143
20813W        W92429   6.723   2.391   3.654
20814W        W92430  21.110   0.952   2.847
20815W        W92431  44.261  39.894  10.177
20816W        W92432  25.570  14.759  12.038
20817W        W92433   1.029  32.912  12.464
20818W        W92434   0.348  43.741  12.598
20819W        W92435  11.411   8.728   0.665
20820W        W92436  22.696   1.043  12.417
20821W        W92437   9.837  19.682   2.834
20822W        W92438   4.896  39.303  13.462
20823W        W92439   3.649  37.455   3.875
20824W        W92440  15.078   0.370  14.200
20825W        W92441  35.483  34.631   2.402
20826W        W92442  25.306  22.059  14.442
20827W        W92443  20.767  13.840   4.656
20828W        W92444  42.756   8.174  13.524
20829W        W92445  13.675  25.216   4.462
20830W        W92446  22.069  15.253  14.021
20831W        W92447   5.253  13.370  10.712
20832W        W92448   0.289  21.150   4.419
20833W        W92449  44.420   7.761  12.840
20834W        W92450   7.692   4.975   1.786
20835W        W92451  22.729  42.820  10.237
20836W        W92452  12.368  27.065   2.148
20837W        W92453   2.959  30.560  11.862
20838W        W92454  42.560  20.112  12.524
20839W        W92455  16.102  32.434   2.206
20840W        W92456  19.713  24.246   3.304
20841W        W92457  40.425  16.738  10.359
20842W        W92458   3.307  26.605  14.083
20843W        W92459   4.624   3.996  14.458
20844W        W92460  27.734  28.486   4.087
20845W        W92461  17.295  12.320  14.959
20846W        W92462  14.719   5.232  14.399
20847W        W92463  27.912  31.508   0.924
20848W        W92464   9.224   0.818   0.221
20849W        W92465  43.040  13.098  12.891
20850W        W92466  40.327  41.522  13.397
20851W        W92467   9.299  31.811   1.807
20852W        W92468  24.624   9.278  10.797
20853W        W92469  36.385  10.052  10.671
20854W        W92470  22.404  19.474  12.801
20855W        W92471  25.287   4.907  14.358
20856W        W92472   5.878  36.891   3.110
20857W        W92473  37.257   5.334  10.387
20858W        W92474  22.085  36.327   1.944
20859W        W92475   2.961  29.693   2.682
20860W        W92476   2.652   4.201   0.467
20861W        W92477  18.757  27.458   0.398
20862W        W92478  11.236  22.031  11.461
20863W        W92479  33.327  35.577   1.516
20864W        W92480  40.878  21.499  11.905
20865W        W92481   7.371  12.373  12.820
20866W        W92482  11.539  43.902  12.410
20867W        W92483  40.490   7.204  14.477
20868W        W92484  28.316  44.550   3.303
20869W        W92485  38.475   7.403  12.157
20870W        W92486  37.474  26.257  10.543
20871W        W92487  25.894  12.794   4.244
20872W        W92488   5.766   5.633  11.702
20873W        W92489  28.045  26.944  14.408
20874W        W92490  38.623  41.338   3.646
20875W        W92491   7.780  29.111   5.052
20876W        W92492  38.153  37.002  13.260
20877W        W92493  26.562  10.614   4.164
20878W        W92494  28.466  34.752  10.655
20879W        W92495   4.011  15.168  14.783
20880W        W92496  37.425  17.602  14.343
20881W        W92497   1.215  13.759  12.406
20882W        W92498  37.587  30.566  10.657
20883W        W92499  18.499  32.533   4.625
20884W        W92500   6.972   5.879  13.950
20885W        W92501  15.090   1.395  14.888
20886W        W92502  10.333  10.294   4.336
20887W        W92503  41.469   0.545   1.902
20888W        W92504  28.970   3.326   1.554
20889W        W92505  29.354  24.094   3.947
20890W        W92506  16.769  20.040  14.784
20891W        W92507   5.753  33.663   1.015
20892W        W92508  30.094  35.439  10.723
20893W        W92509  32.091  38.808   1.014
20894W        W92510  31.469   0.757  12.808
20895W        W92511  33.327   9.232   0.937
20896W        W92512  28.329  22.704   1.423
20897W        W92513  11.120   3.882   4.149
20898W        W92514  38.918  44.305  11.536
20899W        W92515  28.534  22.257   4.610
20900W        W92516  20.005  41.016   3.129
20901W        W92517   4.257  13.115   3.652
20902W        W92518   6.435  40.536   1.787
20903W        W92519  10.640   8.776  10.397
20904W        W92520   8.458  34.114   0.112
20905W        W92521  31.213  35.053  12.915
20906W        W92522  13.371  19.704  12.491
20907W        W92523  11.703  42.179   0.327
20908W        W92524  39.125  38.651  14.300
20909W        W92525  20.286   1.461  13.478
20910W        W92526  14.331  23.240   3.734
20911W        W92527  24.987  36.818  11.804
20912W        W92528  41.086  42.362  11.058
20913W        W92529   1.682  37.465  14.310
20914W        W92530  10.727  13.563   4.011
20915W        W92531  25.572  41.945   5.007
20916W        W92532  41.876  17.633   1.912
20917W        W92533  31.569  19.313   4.446
20918W        W92534   5.456  42.178  11.654
20919W        W92535  41.875   2.711  12.484
20920W        W92536   5.484  20.019  12.081
20921W        W92537  44.081  25.936   3.782
20922W        W92538  37.020   9.643   4.166
20923W        W92539  34.332  37.043   2.348
20924W        W92540  18.108   7.385   1.657
20925W        W92541  23.192  41.872  11.973
20926W        W92542   6.941  41.283   3.297
20927W        W92543  17.988  21.745  13.927
20928W        W92544  31.646   7.922  12.387
20929W        W92545   1.176  40.119   3.111
20930W        W92546   9.149  26.461  12.871
20931W        W92547   9.300   9.827  11.553
20932W        W92548  10.596  38.290  14.517
20933W        W92549  26.191  29.146  11.864
20934W        W92550   3.570   5.416  11.137
20935W        W92551   9.332  12.345   4.627
20936W        W92552  21.390  31.462  12.118
20937W        W92553   5.173  31.790   1.300
20938W        W92554  29.574  22.150   0.966
20939W        W92555  34.892  11.578  12.404
20940W        W92556   9.656  30.549  14.576
20941W        W92557  44.904  20.305   2.815
20942W        W92558  32.491  23.892   1.812
20943W        W92559  14.351  17.169   5.123
20944W        W92560  17.808  18.190  11.298
20945W        W92561  12.640  23.509  11.115
20946W        W92562  13.410   8.849  11.183
20947W        W92563  37.408  11.957   0.783
20948W        W92564  11.914  36.937   2.665
20949W        W92565  36.841   5.271   3.424
20950W        W92566  33.799  28.945  12.511
20951W        W92567  39.079  11.204   4.359
20952W        W92568   8.258   4.780   3.342
20953W        W92569   1.957  20.645  10.598
20954W        W92570   7.629  41.891  11.265
20955W        W92571  40.051  31.548  10.433
20956W        W92572  43.929  35.597   4.711
20957W        W92573   7.346   4.843   1.371
20958W        W92574   0.623  31.435   4.239
20959W        W92575  26.116  33.110  14.802
20960W        W92576  13.076   4.350  11.147
20961W        W92577  26.455  21.151   2.693
20962W        W92578   0.329  10.941   2.223
20963W        W92579  17.190  12.027   5.037
20964W        W92580  31.636   6.704  12.926
20965W        W92581  33.652  39.938   3.439
20966W        W92582  41.524  18.941  12.886
20967W        W92583   3.773  29.891  14.684
20968W        W92584  32.630   2.947   2.219
20969W        W92585   3.888   9.020  13.364
20970W        W92586  19.096  20.229  13.463
20971W        W92587   0.389  34.543   0.197
20972W        W92588   7.244  42.267  11.120
20973W        W92589  13.142  43.851   4.562
20974W        W92590  43.971  26.254  11.420
20975W        W92591  38.602  24.536   2.465
20976W        W92592   4.003  30.013  12.107
20977W        W92593  26.992  12.671   2.666
20978W        W92594  35.824  15.846  11.745
20979W        W92595  15.068  42.935   0.720
20980W        W92596  14.641  20.084  11.948
20981W        W92597  25.012  35.486  13.500
20982W        W92598  32.093  16.963  11.578
20983W        W92599   8.127   8.728  12.415
20984W        W92600  43.841  28.188   4.910
20985W        W92601  43.640  27.498  10.961
20986W        W92602  14.801  31.817   4.152
20987W        W92603  34.919  43.734   2.157
20988W        W92604   9.067  39.410   1.651
20989W        W92605   2.730  14.182  13.324
20990W        W92606  44.224  25.499  13.546
20991W        W92607   5.631  34.785   0.073
20992W        W92608  44.324   0.693   2.413
20993W        W92609   5.734  13.297  12.832
20994W        W92610   8.326   3.883  12.616
20995W        W92611  26.200  10.260  12.020
20996W        W92612  28.002  27.195  11.096
20997W        W92613  26.379  16.822  11.055
20998W        W92614  38.462  17.857  12.164
20999W        W92615  38.999  17.829  10.764
21000W        W92616  27.361   7.405  11.959
21001W        W92617  43.928  38.159  11.711
21002W        W92618  30.007  21.377  13.372
21003W        W92619   2.324  28.199  13.762
21004W        W92620  19.611  41.845   5.028
21005W        W92621  41.294  30.658   1.335
21006W        W92622  40.442  10.283  10.979
21007W        W92623   8.139  22.244  12.432
21008W        W92624  26.677   8.785  14.899
21009W        W92625  22.940  32.274   4.588
21010W        W92626  14.324  32.033   1.441
21011W        W92627   9.376  41.224   2.394
21012W        W92628  33.927  27.394  11.540
21013W        W92629  17.761  28.954   1.918
21014W        W92630  13.111  25.509  14.225
21015W        W92631  28.328  22.653   3.425
21016W        W92632  12.066  28.043   0.456
21017W        W92633  41.493   4.555   2.815
21018W        W92634  13.424  40.771  14.478
21019W        W92635   6.352  19.703   0.561
21020W        W92636  42.199  35.090  14.829
21021W        W92637  10.891  43.790  11.752
21022W        W92638  44.831  20.205   0.297
21023W        W92639  37.034  33.591   1.226
21024W        W92640  39.880  14.316  10.922
21025W        W92641  12.333  30.708  12.640
21026W        W92642   6.307   2.889  10.590
21027W        W92643   5.389  44.912  12.865
21028W        W92644   8.765  41.667   1.869
21029W        W92645  10.274  28.698   1.424
21030W        W92646  41.259   6.686   1.309
21031W        W92647  21.224  20.740  11.534
21032W        W92648  43.353  22.743   3.349
21033W        W92649   0.435  11.819   3.492
21034W        W92650   0.465  42.148   4.479
21035W        W92651  42.593  35.116   4.187
21036W        W92652  19.094  26.031   4.330
21037W        W92653  11.323  17.640  12.606
21038W        W92654  10.215  35.686  12.631
21039W        W92655   5.670  19.608   2.369
21040W        W92656  31.495  12.777   2.649
21041W        W92657  26.131  31.476  11.178
21042W        W92658  34.250  31.443   4.552
21043W        W92659   1.015  13.007   1.752
21044W        W92660  28.920  20.441   4.644
21045W        W92661  11.702  22.246   1.377
21046W        W92662  31.192  23.105  10.993
21047W        W92663  13.262  12.656  11.545
21048W        W92664   4.672  23.140  14.342
21049W        W92665  20.628  41.046  10.683
21050W        W92666  10.232   5.332  14.846
21051W        W92667  44.794  41.932  12.394
21052W        W92668  23.961  26.650   2.421
21053W        W92669  28.997  16.637   0.885
21054W        W92670  33.355  14.783  12.938
21055W        W92671  15.414  33.917  13.097
21056W        W92672  22.784  29.623   0.940
21057W        W92673  22.955   6.668  13.625
21058W        W92674   1.746  32.002  12.928
21059W        W92675  25.514  13.347  13.114
21060W        W92676  24.198   3.210   4.558
21061W        W92677  25.156   9.734   3.242
21062W        W92678  29.460  32.139  12.102
21063W        W92679  24.703  21.135   0.800
21064W        W92680  22.081  32.650   3.603
21065W        W92681  41.822  20.721  12.659
21066W        W92682  37.719  28.822   2.580
21067W        W92683  19.804  13.464  13.382
21068W        W92684  43.363  33.973   3.815
21069W        W92685  36.424   1.808  14.016
21070W        W92686  13.783  30.480   0.794
21071W        W92687  38.356  19.956   3.803
21072W        W92688  21.550   5.928   1.499
21073W        W92689  18.569  36.322  12.821
21074W        W92690  29.590   5.558   3.697
21075W        W92691  41.800  17.794   1.374
21076W        W92692  34.360  12.126   2.731
21077W        W92693  14.049  14.193   4.171
21078W        W92694  21.496  28.258  12.487
21079W        W92695  12.851  12.788  10.761
21080W        W92696  32.606  18.750   4.270
21081W        W92697  11.857  17.740  11.642
21082W        W92698  34.909   0.815  10.301
21083W        W92699   7.740   3.545  13.370
21084W        W92700  27.539   5.175   1.900
21085W        W92701  11.157  25.253   2.380
21086W        W92702  43.743  39.435  13.015
21087W        W92703  19.271   2.329   2.679
21088W        W92704  30.134  11.124  14.337
21089W        W92705  17.652  13.198   2.912
21090W        W92706   8.861  28.669  14.734
21091W        W92707  16.427   7.294  13.536
21092W        W92708  21.042  25.166  13.783
21093W        W92709  41.380   3.922   0.425
21094W        W92710  19.943   5.206  13.954
21095W        W92711   0.329  39.580   0.772
21096W        W92712   1.732   3.506  11.134
21097W        W92713   8.055  23.764  11.439
21098W        W92714  32.335  43.098  11.084
21099W        W92715  17.111  29.524   1.479
21100W        W92716   5.309   6.439  13.731
21101W        W92717  26.660  34.182  11.133
21102W        W92718  29.970   1.300  14.401
21103W        W92719   0.785  37.931   2.289
21104W        W92720  20.703   5.166  11.925
21105W        W92721  10.400   1.100   4.466
21106W        W92722  25.259   2.949  13.551
21107W        W92723  28.703  42.274  14.777
21108W        W92724  39.456  15.939   1.328
21109W        W92725  14.708  10.840  14.083
21110W        W92726  43.372   3.276   4.635
21111W        W92727   6.908  37.169   3.433
21112W        W92728  31.444  12.547  11.949
21113W        W92729   4.873  38.974  12.122
21114W        W92730  35.144   9.276   3.605
21115W        W92731  19.000  18.776   4.750
21116W        W92732   9.304  30.851   0.374
21117W        W92733  37.050  34.877   3.766
21118W        W92734  29.430  39.968   3.238
21119W        W92735   6.324   9.112  11.594
21120W        W92736  24.677  21.013   3.688
21121W        W92737  19.498  29.753   2.727
21122W        W92738  29.628  29.699   5.389
21123W        W92739  36.511  12.329   3.668
21124W        W92740  36.275  23.658   4.874
21125W        W92741  19.164   7.314  11.447
21126W        W92742  12.910  44.631   4.621
21127W        W92743  39.257  42.408  11.595
21128W        W92744  27.591  38.951   3.805
21129W        W92745  17.228  42.745   4.350
21130W        W92746   6.002  10.569   1.196
21131W        W92747  19.449  28.641   3.269
21132W        W92748  25.162   7.119  10.698
21133W        W92749  31.309  26.104  14.060
21134W        W92750   7.663  29.385   1.418
21135W        W92751  17.537  27.959   1.830
21136W        W92752  15.277  26.781   3.321
21137W        W92753   5.199  12.284  10.673
21138W        W92754  28.208  18.565  13.090
21139W        W92755   6.525   0.417  13.787
21140W        W92756  42.733  37.412  10.411
21141W        W92757  14.767  39.965  11.273
21142W        W92758  35.441   0.024   0.313
21143W        W92759  16.623  44.351   3.872
21144W        W92760  22.229  14.158   1.005
21145W        W92761  35.539  44.091  11.622
21146W        W92762  35.862  18.803   4.485
21147W        W92763  30.688  38.544   1.777
21148W        W92764  34.159  28.930   2.966
21149W        W92765  29.818  42.268   0.307
21150W        W92766  22.070  12.002   4.064
21151W        W92767  39.846  22.933  11.790
21152W        W92768  44.628  26.387  13.359
21153W        W92769  23.986  43.826   0.259
21154W        W92770  42.518  23.642  12.903
21155W        W92771  16.732  39.107   1.867
21156W        W92772  31.718  12.357   0.814
21157W        W92773   5.206  14.362  10.664
21158W        W92774   6.555   1.912   1.956
21159W        W92775  17.634  31.646  12.429
21160W        W92776  43.905  26.660   1.934
21161W        W92777  24.221  13.876   3.185
21162W        W92778   0.988   5.833   4.052
21163W        W92779  34.638  15.627   3.646
21164W        W92780  27.283  31.622  14.301
21165W        W92781  26.440  32.690   3.934
21166W        W92782  21.577  26.432  10.994
21167W        W92783  25.040   9.112  11.634
21168W        W92784   7.742  21.376  13.781
21169W        W92785  42.497  16.944  12.149
21170W        W92786   8.080  16.249   4.533
21171W        W92787  25.526  25.070   2.392
21172W        W92788  15.249  10.219   3.705
21173W        W92789  38.163  12.731  12.089
21174W        W92790  20.590  16.195  12.362
21175W        W92791  26.796   1.213   0.452
21176W        W92792  23.106  25.627  11.622
21177W        W92793   5.714  30.593  13.551
21178W        W92794   7.959  10.212   1.486
21179W        W92795  26.727  14.882   0.919
21180W        W92796  37.577  29.220   1.293
21181W        W92797  36.518   9.200   1.721
21182W        W92798  13.144  21.518   0.357
21183W        W92799  17.646  40.596  11.848
21184W        W92800  32.089  26.305  13.642
21185W        W92801  25.568  37.323   0.884
21186W        W92802  42.197  13.804  13.336
21187W        W92803   1.419  43.491  11.692
21188W        W92804  21.615  15.337   1.269
21189W        W92805   1.840  29.102  11.950
21190W        W92806  35.466  33.609  14.055
21191W        W92807  21.480  22.052   1.002
21192W        W92808  40.866  28.748   1.293
21193W        W92809  23.251   9.897   9.948
21194W        W92810  22.941  15.891   2.875
21195W        W92811  20.145  38.349  14.294
21196W        W92812  10.869  15.370   0.200
21197W        W92813  25.007  37.297  13.869
21198W        W92814  39.874  33.718  11.951
21199W        W92815  25.915  17.649  11.089
21200W        W92816   9.260  42.341   1.508
21201W        W92817  18.306  44.373   0.911
21202W        W92818  30.654  12.631   2.253
21203W        W92819  41.351   1.889   4.458
21204W        W92820   4.714  20.501  13.544
21205W        W92821  23.992  43.513   0.944
21206W        W92822  36.242  28.907   0.752
21207W        W92823  13.591  26.874  11.583
21208W        W92824  35.497   1.004   0.274
21209W        W92825  30.233   0.520   2.307
21210W        W92826  35.992  24.670   1.602
21211W        W92827  41.557  25.103  14.686
21212W        W92828   0.317   4.685   3.270
21213W        W92829  28.083  41.041  14.045
21214W        W92830   6.528  34.598   4.098
21215W        W92831  23.232  29.408  13.417
21216W        W92832  43.354   4.511   1.904
21217W        W92833  39.951  39.855   2.342
21218W        W92834  26.533  29.705   0.285
21219W        W92835  15.748  40.055   2.806
21220W        W92836   9.142  27.428   0.040
21221W        W92837  19.848  32.481  11.212
21222W        W92838  12.750  22.479  11.923
21223W        W92839   6.587  23.580  10.957
21224W        W92840   7.311  22.788   1.317
21225W        W92841   0.461  35.994   2.440
21226W        W92842  16.684  30.959  12.967
21227W        W92843  26.407  33.101   3.603
21228W        W92844  23.705  31.796   1.892
21229W        W92845  11.381  12.598  14.663
21230W        W92846   0.338  23.780   4.706
21231W        W92847  24.125   1.276   1.743
21232W        W92848  17.195  40.869   4.394
21233W        W92849  20.282  38.347  13.318
21234W        W92850  13.110  35.555  11.905
21235W        W92851  27.150  14.398   4.703
21236W        W92852  10.603  24.621  11.591
21237W        W92853  15.182   4.739  13.045
21238W        W92854  20.520  15.590  11.043
21239W        W92855  37.440  12.303   3.614
21240W        W92856  27.030  36.418  12.088
21241W        W92857  37.656  28.949  13.023
21242W        W92858  26.105  16.308  10.665
21243W        W92859  12.052  42.435  11.156
21244W        W92860   7.862  24.834   2.699
21245W        W92861   6.878  26.674   3.362
21246W        W92862   9.606  26.026   0.980
21247W        W92863  26.707   5.690   0.359
21248W        W92864  24.189  16.964  14.802
21249W        W92865  35.664  38.887   2.247
21250W        W92866  43.817  18.697  14.208
21251W        W92867  28.632   6.284  11.853
21252W        W92868  14.569  14.309   3.612
21253W        W92869   4.961  44.001  11.450
21254W        W92870   3.307  13.107   4.743
21255W        W92871  33.370  35.441   3.879
21256W        W92872  32.587   6.639  14.980
21257W        W92873  16.646   7.829   1.399
21258W        W92874  14.055   5.853   3.658
21259W        W92875   7.892  39.008   1.370
21260W        W92876   4.752  18.414  12.907
21261W        W92877   4.114  19.093   0.160
21262W        W92878  39.369   9.650  10.584
21263W        W92879  22.348  13.265  12.532
21264W        W92880  36.924  44.360  10.609
21265W        W92881   3.472  21.473  12.402
21266W        W92882   0.481  14.476  13.230
21267W        W92883  43.246  11.141  13.830
21268W        W92884  36.452  36.588   2.214
21269W        W92885  17.772  14.883  12.340
21270W        W92886  13.063  15.687   2.753
21271W        W92887  33.486   9.648   1.727
21272W        W92888   0.623  12.794  12.526
21273W        W92889  18.926  22.975  13.938
21274W        W92890  25.114  41.846  11.338
21275W        W92891  26.184  40.395  14.446
21276W        W92892  41.814   2.431  14.321
21277W        W92893  41.019  38.099  10.610
21278W        W92894  31.459  18.611   1.473
21279W        W92895   5.830  19.182   3.595
21280W        W92896  15.855  10.036   3.119
21281W        W92897  43.249  22.687  14.491
21282W        W92898  17.273  25.648   1.257
21283W        W92899  26.367  16.690   5.049
21284W        W92900  33.372   9.168  11.463
21285W        W92901  26.051   0.514   3.360
21286W        W92902  29.159  13.375  11.098
21287W        W92903  40.045  12.937   0.414
21288W        W92904  40.921  31.490   4.716
21289W        W92905  25.618  17.076  14.780
21290W        W92906  18.845   1.425  13.211
21291W        W92907  16.243  32.717  11.973
21292W        W92908  25.168  18.569  14.516
21293W        W92909  33.573  44.385  14.934
21294W        W92910  22.971  38.397  14.419
21295W        W92911  25.140  35.896   0.345
21296W        W92912  13.129  11.263   0.226
21297W        W92913   1.948  40.885   0.553
21298W        W92914   6.375  37.890  11.926
21299W        W92915   9.238  33.080  12.445
21300W        W92916  12.873  12.719  12.105
21301W        W92917   7.911  24.323   3.587
21302W        W92918  38.194  18.402  14.032
21303W        W92919  26.691  37.569   2.311
21304W        W92920  33.971  26.952   0.500
21305W        W92921  13.422  31.965  11.065
21306W        W92922  24.031  10.203   1.012
21307W        W92923   3.435  38.570   0.999
21308W        W92924  11.180  18.737   2.778
21309W        W92925   3.391  37.904   3.631
21310W        W92926  28.617  31.366  14.779
21311W        W92927  20.008   5.504   4.144
21312W        W92928  23.350  29.852   2.553
21313W        W92929  37.442  38.995   1.685
21314W        W92930  22.770  38.821   3.652
21315W        W92931   8.353  34.000   3.265
21316W        W92932   9.260  25.543  14.722
21317W        W92933  29.385  34.761  11.995
21318W        W92934  22.413  31.384  12.024
21319W        W92935  10.486  12.615  10.076
21320W        W92936  40.858  24.817   4.206
21321W        W92937   1.898   7.109   4.109
21322W        W92938  25.020   6.900  12.015
21323W        W92939  15.845   5.979  12.106
21324W        W92940  30.024  31.535   3.651
21325W        W92941   2.843  42.251  12.644
21326W        W92942  29.077  15.651   1.149
21327W        W92943   8.571  11.292   3.380
21328W        W92944  29.638  41.735  12.874
21329W        W92945  13.683   9.244   2.911
21330W        W92946  28.955  27.133  12.731
21331W        W92947  39.362  20.184  10.553
21332W        W92948  13.230  27.755   4.545
21333W        W92949  11.951  36.477  14.986
21334W        W92950   8.173   1.768   2.368
21335W        W92951  36.346  17.696   0.358
21336W        W92952   8.180  43.517   4.126
21337W        W92953  44.250  24.567  12.580
21338W        W92954  12.937   6.296  10.237
21339W        W92955  22.938  44.795  13.803
21340W        W92956  14.715  36.904   2.653
21341W        W92957  24.291  28.186   4.169
21342W        W92958  16.646   9.374  14.280
21343W        W92959  44.570   9.616  12.892
21344W        W92960   0.822   8.419  13.532
21345W        W92961  15.938  35.130   0.541
21346W        W92962   9.626  40.292  12.968
21347W        W92963  27.231  34.642  11.605
21348W        W92964   4.766  35.311  14.880
21349W        W92965  42.743  12.092   0.458
21350W        W92966  22.799   5.352  14.357
21351W        W92967  16.779  11.072   1.761
21352W        W92968  19.194  25.988   2.897
21353W        W92969  10.881  31.169   1.969
21354W        W92970  20.262   0.018  14.339
21355W        W92971  24.961  43.435   0.416
21356W        W92972  34.127  44.774  14.098
21357W        W92973  17.811  16.784  10.995
21358W        W92974  35.545  11.696   3.426
21359W        W92975   9.870  21.739  12.054
21360W        W92976   6.703  42.399   0.947
21361W        W92977   3.936  38.642   0.251
21362W        W92978  23.156   5.913   1.641
21363W        W92979  43.744   6.391   0.878
21364W        W92980  28.072  14.084  12.126
21365W        W92981  20.529  18.626  10.979
21366W        W92982  41.905  43.032   3.691
21367W        W92983  40.519  32.208   2.166
21368W        W92984  13.694  25.014  11.949
21369W        W92985  39.866  29.193   2.103
21370W        W92986  17.081  38.459  11.000
21371W        W92987  29.588  39.355   2.083
21372W        W92988  26.654  28.958  11.543
21373W        W92989  37.992   6.916   3.351
21374W        W92990  29.030  37.658   0.305
21375W        W92991   0.020   2.837  14.903
21376W        W92992  25.080  18.023   4.802
21377W        W92993  10.749   6.588  11.954
21378W        W92994  39.546  37.570  12.041
21379W        W92995  41.510  37.581   3.688
21380W        W92996  13.804  22.079  12.600
21381W        W92997  26.619  18.043  10.827
21382W        W92998  37.171  35.954   2.477
21383W        W92999   1.771  15.958  10.715
21384W        W93000  35.974   7.490   3.162
21385W        W93001  12.318  18.692  10.854
21386W        W93002  36.470  20.822   4.915
21387W        W93003  24.417  43.474   4.266
21388W        W93004   5.652   8.713   4.127
21389W        W93005  31.455   0.995  11.918
21390W        W93006   6.152  23.448  11.638
21391W        W93007  44.208   5.672   3.586
21392W        W93008  37.870   1.425  11.690
21393W        W93009  35.507   0.536   1.350
21394W        W93010  20.573  26.265   0.250
21395W        W93011  17.267   8.879   3.198
21396W        W93012  33.941  10.401  13.452
21397W        W93013  22.649   1.905  13.482
21398W        W93014   7.453  16.968   4.488
21399W        W93015   1.474  35.125  14.394
21400W        W93016  10.240  37.839  11.598
21401W        W93017  18.601  33.258  10.776
21402W        W93018   3.182   5.374  12.918
21403W        W93019  23.076   1.193  13.429
21404W        W93020  44.464  15.965  11.344
21405W        W93021  18.175  15.640   3.256
21406W        W93022  40.197  15.301  11.075
21407W        W93023   4.832   3.432   1.221
21408W        W93024  11.386   6.711  14.362
21409W        W93025   2.050  28.993  12.402
21410W        W93026   1.636  37.483   4.972
21411W        W93027  14.178  37.018  13.434
21412W        W93028  21.564  41.009  14.509
21413W        W93029  43.501  30.877  12.669
21414W        W93030   1.700  17.811   4.640
21415W        W93031  41.880  28.315  12.555
21416W        W93032  15.295  26.703  14.562
21417W        W93033  24.534  39.608   2.483
21418W        W93034  36.586  41.540   2.807
21419W        W93035  38.954  35.184   2.329
21420W        W93036  36.441  24.188  14.194
21421W        W93037  34.333  24.295  11.383
21422W        W93038  19.256  26.997   0.228
21423W        W93039  14.412  12.352   2.629
21424W        W93040  43.318  34.427  11.783
21425W        W93041  14.665   9.793  12.441
21426W        W93042  24.133  29.369  12.565
21427W        W93043  33.475  31.629   3.561
21428W        W93044  40.394  11.632  11.886
21429W        W93045  26.685  18.359  12.945
21430W        W93046   1.311  42.069  14.820
21431W        W93047   8.791  34.908  12.056
21432W        W93048  37.300  34.077   2.379
21433W        W93049  21.921  39.377  13.479
21434W        W93050  35.897  16.550   1.310
21435W        W93051  12.563  16.876   3.774
21436W        W93052  29.148   1.454  13.976
21437W        W93053  24.235  25.538   2.652
21438W        W93054  26.737  44.183  14.249
21439W        W93055  10.551  15.817   2.753
21440W        W93056  26.943  15.158  11.590
21441W        W93057  19.667  28.593   1.852
21442W        W93058  25.580  25.694  11.405
21443W        W93059   3.370  41.362   3.118
21444W        W93060  24.195   8.228   1.415
21445W        W93061  19.047  41.458   1.303
21446W        W93062   9.758   7.435  12.992
21447W        W93063  30.913   6.888  10.728
21448W        W93064   8.868   5.428   3.894
21449W        W93065  43.425  12.614   2.294
21450W        W93066   0.685   8.173   3.014
21451W        W93067  12.069  30.560   2.048
21452W        W93068  43.846  41.513   4.642
21453W        W93069  12.340  32.057  12.519
21454W        W93070  32.606   0.291   4.044
21455W        W93071  41.331  40.055  12.965
21456W        W93072  40.476  17.235  10.132
21457W        W93073   7.235  14.574  13.995
21458W        W93074  32.427  24.881   2.317
21459W        W93075  41.344  23.782   2.613
21460W        W93076  34.285   2.084   5.129
21461W        W93077  22.046   9.467  10.715
21462W        W93078  26.971  43.414   2.467
21463W        W93079  34.414   5.110  14.741
21464W        W93080  27.566  18.591   2.914
21465W        W93081  31.401  28.019  14.118
21466W        W93082  12.840  13.865   3.310
21467W        W93083  44.296  43.307  14.990
21468W        W93084  12.887  21.764   0.777
21469W        W93085  11.280  11.163   2.242
21470W        W93086  30.436  31.844  13.524
21471W        W93087  19.870  18.579   3.644
21472W        W93088   1.011   2.959  13.783
21473W        W93089  30.591  19.683  13.800
21474W        W93090  14.688   6.160  11.914
21475W        W93091  18.033  24.495   1.786
21476W        W93092   2.838  23.746   0.734
21477W        W93093  41.946  36.438  14.524
21478W        W93094  16.338  26.798  12.056
21479W        W93095  43.377  22.839  11.109
21480W        W93096   2.221  38.609   2.729
21481W        W93097  20.255   5.709   2.167
21482W        W93098  44.178  18.227   2.007
21483W        W93099  27.167   7.647  10.654
21484W        W93100  16.264  13.203  10.712
21485W        W93101  42.743  43.477  11.123
21486W        W93102  20.162  29.213   3.200
21487W        W93103   1.701   1.055  13.943
21488W        W93104  40.654  30.248   0.198
21489W        W93105  28.595  21.623  14.925
21490W        W93106  32.994  18.736   1.192
21491W        W93107   7.871  35.943  13.434
21492W        W93108  24.371   1.961   2.046
21493W        W93109  14.685  42.214  11.094
21494W        W93110  17.733  22.939  13.352
21495W        W93111  17.297  32.597  12.532
21496W        W93112  28.461  11.287  11.544
21497W        W93113  28.458  13.617  14.967
21498W        W93114  27.180  11.853  11.169
21499W        W93115  17.178   7.695  11.394
21500W        W93116  34.129  27.458   1.342
21501W        W93117  26.215  12.358   4.606
21502W        W93118   3.287  22.103  10.007
21503W        W93119  13.225  32.052  10.243
21504W        W93120  11.554  13.111  11.993
21505W        W93121   4.272  25.140   1.621
21506W        W93122  24.126   2.766   1.654
21507W        W93123  13.622  29.479  13.906
21508W        W93124  43.611  11.200   2.097
21509W        W93125  31.230   2.565   0.794
21510W        W93126  16.077  31.465   4.716
21511W        W93127  42.446  34.107   2.723
21512W        W93128  13.370   5.301  12.000
21513W        W93129  37.006  34.061   0.900
21514W        W93130  24.380   8.673   0.729
21515W        W93131  15.253   3.265   0.410
21516W        W93132  40.219  32.737  11.246
21517W        W93133  29.497  29.526   1.838
21518W        W93134  10.808  25.462  14.775
21519W        W93135  13.578  21.878  13.042
21520W        W93136  39.943  34.846  11.659
21521W        W93137   9.727  17.306  12.344
21522W        W93138  31.677  19.782   4.712
21523W        W93139  14.223  18.788   0.353
21524W        W93140   1.199  27.505   0.762
21525W        W93141   6.707  32.526  14.037
21526W        W93142   9.864  44.733  12.520
21527W        W93143  44.643  34.401   3.686
21528W        W93144  14.287  38.504   1.147
21529W        W93145  29.375  19.715  10.260
21530W        W93146  16.326  39.607   4.535
21531W        W93147  40.974   3.115  11.961
21532W        W93148  35.439  24.323  11.159
21533W        W93149   9.453  25.317  10.762
21534W        W93150  27.054  17.130  10.101
21535W        W93151  38.360  35.541   3.607
21536W        W93152  41.478  41.048  12.917
21537W        W93153   4.464  43.441  10.708
21538W        W93154   7.433  17.547   3.394
21539W        W93155  33.673  38.120  11.096
21540W        W93156  38.333   4.217  13.926
21541W        W93157  44.592  19.610   3.111
21542W        W93158   4.223  13.212  13.544
21543W        W93159  30.000  12.825  14.371
21544W        W93160  19.757  34.308  14.715
21545W        W93161  20.791  22.025  14.965
21546W        W93162  27.581  14.658   0.759
21547W        W93163  15.202  42.802   1.790
21548W        W93164  30.453  14.079   0.846
21549W        W93165   4.280  34.885  10.755
21550W        W93166  16.524  18.553  11.208
21551W        W93167  21.052  17.650   3.886
21552W        W93168  17.166  14.750  11.941
21553W        W93169  36.955  43.471   0.258
21554W        W93170  26.575   9.705   9.840
21555W        W93171  19.208  40.310  12.892
21556W        W93172   2.648  16.042  11.547
21557W        W93173   5.664  28.413  11.350
21558W        W93174  15.761  21.220   4.671
21559W        W93175  26.986  22.668  11.017
21560W        W93176  14.028   7.918   2.354
21561W        W93177  24.445   8.478   4.229
21562W        W93178   8.617  35.676   0.925
21563W        W93179  16.040   8.342   4.249
21564W        W93180  17.156  31.188  12.866
21565W        W93181  19.349  19.679   4.388
21566W        W93182  20.013   6.325  13.387
21567W        W93183  27.086   6.885  13.446
21568W        W93184  27.686   4.689   3.662
21569W        W93185   9.874   0.287  11.611
21570W        W93186  14.063  43.059   0.504
21571W        W93187  35.204  19.246  13.515
21572W        W93188   6.672  41.977  13.692
21573W        W93189   0.055   3.857  12.589
21574W        W93190   6.221  44.711  11.569
21575W        W93191  29.627  44.831   1.465
21576W        W93192   7.951   9.672  14.733
21577W        W93193  13.002  39.504  11.048
21578W        W93194   2.047   6.815   1.327
21579W        W93195   5.019   0.908   3.175
21580W        W93196   4.994   0.117  12.109
21581W        W93197   0.367   6.945  12.685
21582W        W93198  35.116  16.903   3.137
21583W        W93199   1.760  33.107  12.989
21584W        W93200  36.326  15.770   3.043
21585W        W93201  32.981  25.256   2.858
21586W        W93202  40.828  41.333  11.172
21587W        W93203  37.514  15.296   1.452
21588W        W93204  18.292  12.847   2.617
21589W        W93205  33.038  28.489  14.986
21590W        W93206  41.787  43.575  11.916
21591W        W93207  26.939  13.244   5.264
21592W        W93208  33.403  11.551   0.254
21593W        W93209  22.514  37.945  11.169
21594W        W93210  26.870  26.535  12.610
21595W        W93211  16.016  34.612   4.692
21596W        W93212  30.921   8.119   1.823
21597W        W93213  19.924  41.953  12.419
21598W        W93214  14.335  30.989  11.022
21599W        W93215   2.449  16.543   2.772
21600W        W93216  23.726  44.800  12.060
21601W        W93217  27.027  30.434  12.900
21602W        W93218  44.785  17.196  11.411
21603W        W93219   4.636  25.573  10.638
21604W        W93220   0.311  35.042  12.500
21605W        W93221  12.364  26.829  13.115
21606W        W93222   9.699   7.129   0.973
21607W        W93223  36.462  21.964  13.413
21608W        W93224  17.564  26.067  11.275
21609W        W93225  24.282  37.809   2.604
21610W        W93226   0.754  29.438   1.299
21611W        W93227  28.991  40.718  13.986
21612W        W93228   0.804  34.843  13.412
21613W        W93229  10.764  36.875  14.296
21614W        W93230  38.606   8.101   0.773
21615W        W93231   6.794  39.322   4.585
21616W        W93232  10.954  26.655   4.534
21617W        W93233  42.945  25.491   4.735
21618W        W93234   7.373  30.955   2.879
21619W        W93235  36.545  25.820  14.413
21620W        W93236  33.581   2.602  12.623
21621W        W93237  16.523  33.844  12.069
21622W        W93238  10.319  31.194   0.705
21623W        W93239  43.645  39.921   0.849
21624W        W93240  17.302  27.303   4.012
21625W        W93241  19.964  31.866   3.825
21626W        W93242  43.947  22.061  11.393
21627W        W93243  23.602  22.389   4.116
21628W        W93244  15.089   0.845  11.601
21629W        W93245   3.341   1.156   1.266
21630W        W93246   9.927  43.242  13.480
21631W        W93247  32.392  29.172   3.104
21632W        W93248  14.367  24.727   0.564
21633W        W93249  27.501  40.960   0.357
21634W        W93250   3.741  43.823  14.900
21635W        W93251  38.028   7.385  11.100
21636W        W93252  41.473  31.741   3.123
21637W        W93253  40.626  43.045  13.216
21638W        W93254  41.494  37.598   4.537
21639W        W93255  21.255   5.296   2.393
21640W        W93256  30.003  10.846   2.259
21641W        W93257  21.645   2.941   4.067
21642W        W93258   5.264  10.782   3.837
21643W        W93259  31.572  10.292  14.624
21644W        W93260  31.036   4.912   1.458
21645W        W93261  26.462  30.626  10.208
21646W        W93262   6.065  35.077  12.069
21647W        W93263  23.719   2.137   2.137
21648W        W93264  18.160  25.552   3.665
21649W        W93265  10.600   5.311  12.214
21650W        W93266   7.313  32.378   4.683
21651W        W93267  10.311  14.038   2.907
21652W        W93268  15.370   0.107  14.539
21653W        W93269  11.865  23.473   0.893
21654W        W93270  37.433  36.968   4.780
21655W        W93271  37.859  25.641   4.595
21656W        W93272  19.669   1.564   1.691
21657W        W93273  15.736  20.082   4.657
21658W        W93274  22.087  35.575   0.295
21659W        W93275  10.449   4.786  14.767
21660W        W93276  24.761  23.810  11.074
21661W        W93277  38.613  42.779   0.863
21662W        W93278  11.737   8.085   2.648
21663W        W93279  43.875  10.276  14.008
21664W        W93280  44.491  42.080   4.925
21665W        W93281   1.409  15.740  11.182
21666W        W93282  26.895   3.388   4.177
21667W        W93283   4.225  14.523   1.776
21668W        W93284  19.696  29.139   3.425
21669W        W93285  27.724  17.396   5.025
21670W        W93286   7.667  37.548   3.214
21671W        W93287  40.396  18.549  13.539
21672W        W93288   8.873  10.734   2.267
21673W        W93289   4.915  16.268   1.812
21674W        W93290  32.376   3.360  12.083
21675W        W93291  14.096  27.077  10.692
21676W        W93292  18.266  40.346   0.512
21677W        W93293   2.807   0.379  10.701
21678W        W93294  32.020  19.419  10.495
21679W        W93295  31.912  35.929   1.797
21680W        W93296  35.952  37.109   4.923
21681W        W93297  21.023  33.389  11.567
21682W        W93298  19.221   0.755   0.145
21683W        W93299   2.973  42.525   2.697
21684W        W93300  15.282  35.926  10.780
21685W        W93301   6.252   0.535   3.663
21686W        W93302  24.980  21.690  13.927
21687W        W93303  41.434  29.348  14.450
21688W        W93304   1.153  36.063  10.391
21689W        W93305  40.946  12.164  10.647
21690W        W93306  29.513  40.826  12.880
21691W        W93307   8.638  17.543  12.414
21692W        W93308  10.741  42.778  11.986
21693W        W93309   5.626  20.230  14.404
21694W        W93310  12.792  10.112  12.934
21695W        W93311  40.898  43.343   1.219
21696W        W93312   4.592  19.813  14.218
21697W        W93313   4.873  25.695  11.424
21698W        W93314  35.804  12.862   1.540
21699W        W93315  14.693  19.004   0.237
21700W        W93316   2.667  13.453  13.528
21701W        W93317  20.085  29.359  14.918
21702W        W93318  17.472  21.395   2.424
21703W        W93319   7.185   5.195   0.431
21704W        W93320   8.181  11.240   2.312
21705W        W93321  32.391   4.462   1.493
21706W        W93322  19.078  44.960   0.436
21707W        W93323  39.375  27.998   2.790
21708W        W93324  29.674  40.354  10.494
21709W        W93325  15.828  14.699   2.105
21710W        W93326   9.871  21.536  11.533
21711W        W93327  26.864   3.902   2.601
21712W        W93328  41.061  41.613  11.552
21713W        W93329  26.737  35.470   3.769
21714W        W93330  20.811  16.817   2.631
21715W        W93331  33.053  24.671   1.731
21716W        W93332  20.105  17.199  11.464
21717W        W93333  10.322  43.567  11.932
21718W        W93334  29.435   5.791  13.492
21719W        W93335  37.654   3.992   4.227
21720W        W93336   5.803  17.358   1.717
21721W        W93337  39.332   2.072   2.154
21722W        W93338   5.204   5.259  13.131
21723W        W93339  33.421  10.849   1.440
21724W        W93340   0.457  20.543   1.370
21725W        W93341  39.670  18.764   0.391
21726W        W93342  39.061  17.287  11.561
21727W        W93343  15.626   7.182  10.674
21728W        W93344  20.260  33.886  13.806
21729W        W93345  12.250  37.323  12.271
21730W        W93346  29.671  17.648  14.923
21731W        W93347   4.903  12.916   1.329
21732W        W93348   3.300  32.241   9.897
21733W        W93349  23.447  36.081   1.836
21734W        W93350   1.211   4.394   4.486
21735W        W93351  17.684   8.412   4.626
21736W        W93352  19.590   5.573   2.869
21737W        W93353  12.247  36.380  12.395
21738W        W93354  33.889   8.902   1.763
21739W        W93355  40.778  10.507   4.821
21740W        W93356  22.747   4.290  13.965
21741W        W93357  40.994  24.306  12.625
21742W        W93358  15.358   5.520  14.968
21743W        W93359   5.265  42.013  13.338
21744W        W93360  11.055  30.162   0.446
21745W        W93361  19.350  38.887  14.885
21746W        W93362  24.110   2.856  10.908
21747W        W93363  15.866  28.209   5.010
21748W        W93364  13.618  14.112  12.833
21749W        W93365  13.738   1.903   2.471
21750W        W93366  14.606  36.424   3.585
21751W        W93367  16.567   7.100  13.087
21752W        W93368  32.204  44.198  10.394
21753W        W93369   7.016  33.912   0.232
21754W        W93370  32.564  40.998   1.891
21755W        W93371   4.190  43.328  12.937
21756W        W93372   5.767  43.229  12.071
21757W        W93373  42.072   1.908   2.250
21758W        W93374  27.518  19.718  13.368
21759W        W93375  18.699  43.538   3.375
21760W        W93376  26.782  22.954   0.431
21761W        W93377  42.335  20.509  11.054
21762W        W93378  25.172  33.473  12.436
21763W        W93379  37.525  44.724   0.183
21764W        W93380  25.670  43.824  12.897
21765W        W93381  37.058  19.168   2.209
21766W        W93382  34.619  37.248  11.016
21767W        W93383  31.981  37.944   0.753
21768W        W93384  44.437  29.466  11.448
21769W        W93385  24.549  35.974   4.649
21770W        W93386   0.562  23.785   1.581
21771W        W93387  39.727  37.629  11.112
21772W        W93388  32.500  28.562   4.421
21773W        W93389  25.168  26.245  14.888
21774W        W93390  15.764  27.647  11.166
21775W        W93391  17.066  40.215  11.283
21776W        W93392  28.094  22.103   0.299
21777W        W93393  34.964  21.118  14.569
21778W        W93394  30.994  27.710   1.624
21779W        W93395  21.714  35.143   1.641
21780W        W93396   9.422  44.839   1.846
21781W        W93397  21.364   7.216  12.913
21782W        W93398  19.212   3.638  11.505
21783W        W93399   0.369  36.044   0.162
21784W        W93400  15.583  20.760  14.398
21785W        W93401  15.130   3.866   1.897
21786W        W93402  12.120  22.484  11.556
21787W        W93403   4.117   9.396   3.676
21788W        W93404  10.818   2.867  14.620
21789W        W93405  18.234   0.256   4.663
21790W        W93406  34.382  22.143  12.421
21791W        W93407  42.727   6.901  13.936
21792W        W93408  34.369   9.230  14.784
21793W        W93409  41.848   3.354  14.247
21794W        W93410  38.163   3.394   4.723
21795W        W93411  11.965   4.391  14.365
21796W        W93412  33.407  27.958   2.382
21797W        W93413  18.269  35.049  13.594
21798W        W93414   1.495   3.291  11.541
21799W        W93415  18.712  44.581  10.664
21800W        W93416  14.608  43.080  14.659
21801W        W93417  29.523  17.991  13.050
21802W        W93418   0.903  11.600   4.124
21803W        W93419   3.479  14.180   3.303
21804W        W93420  26.597  19.532  11.357
21805W        W93421   5.501  21.022   0.895
21806W        W93422   5.282  41.825  11.963
21807W        W93423  27.391  23.681   4.088
21808W        W93424  26.196   7.223   3.378
21809W        W93425  35.060  33.537   3.209
21810W        W93426  26.191  11.807  11.209
21811W        W93427  34.906   1.175  10.716
21812W        W93428  27.238  10.617  13.955
21813W        W93429   8.752   4.382  13.266
21814W        W93430  23.022  30.004   0.112
21815W        W93431  43.394   2.896  11.461
21816W        W93432  13.653  11.224  10.727
21817W        W93433  41.916  23.721   2.907
21818W        W93434   9.391  23.052  14.882
21819W        W93435  25.157  43.528  10.533
21820W        W93436   3.198  44.345  13.785
21821W        W93437   1.376   0.850   2.800
21822W        W93438   4.759  11.417  12.068
21823W        W93439  12.999   5.490   1.597
21824W        W93440  26.163  14.077   2.689
21825W        W93441   8.332   2.948   2.754
21826W        W93442   5.973  32.242  10.181
21827W        W93443  12.102  42.708  10.256
21828W        W93444  31.974  11.369  14.495
21829W        W93445  39.204   8.814  14.589
21830W        W93446  30.606  34.841   1.269
21831W        W93447  31.565  43.547  10.077
21832W        W93448  26.189  19.840  11.212
21833W        W93449  10.589  29.567   0.373
21834W        W93450  40.392  33.250  14.355
21835W        W93451  18.184   9.852   1.207
21836W        W93452  24.944  17.556  12.902
21837W        W93453  43.673  36.935  12.041
21838W        W93454  30.069   2.670   2.679
21839W        W93455  44.896  10.915  14.453
21840W        W93456   3.408  29.575   3.659
21841W        W93457  12.922  34.586  13.596
21842W        W93458  19.680  33.388  12.457
21843W        W93459  28.192  35.831  14.426
21844W        W93460  40.995   8.003  14.530
21845W        W93461  39.079  41.326   0.831
21846W        W93462   5.734  23.224   4.220
21847W        W93463  20.564  34.481  13.415
21848W        W93464  32.438  13.569  12.129
21849W        W93465  41.479  28.636  13.019
21850W        W93466   7.996  14.675  14.555
21851W        W93467  16.581  14.240   0.388
21852W        W93468   7.156   5.200  12.485
21853W        W93469  33.626  22.962   0.779
21854W        W93470  41.599  17.236   3.687
21855W        W93471  28.412  28.125  13.114
21856W        W93472  25.101  10.131   1.192
21857W        W93473  33.418  33.603   5.042
21858W        W93474  43.565  28.960  12.472
21859W        W93475   0.184  17.706   0.811
21860W        W93476   7.475  27.074  11.541
21861W        W93477   4.970   7.122   2.863
21862W        W93478   7.014  19.196   4.156
21863W        W93479  43.620  10.655  11.925
21864W        W93480  21.382  19.729   1.702
21865W        W93481  14.845  39.255  14.324
21866W        W93482  16.118  12.667  14.753
21867W        W93483  40.749  21.192   4.593
21868W        W93484   9.375   3.322   0.741
21869W        W93485  30.610  18.338   3.888
21870W        W93486  25.690  14.729   3.249
21871W        W93487  32.387  33.368   3.674
21872W        W93488  23.708   5.241  12.884
21873W        W93489  41.017  29.918   0.579
21874W        W93490   2.567  42.732  13.097
21875W        W93491  31.653  27.622   3.305
21876W        W93492   0.252  31.866  10.745
21877W        W93493  24.291  42.998   3.357
21878W        W93494  25.284  33.005  11.225
21879W        W93495  37.626   8.834   4.162
21880W        W93496  19.138  37.352  14.618
21881W        W93497   2.860  30.338  13.719
21882W        W93498  32.930   4.049  14.305
21883W        W93499  30.974  28.656  13.833
21884W        W93500   0.246  28.167  13.844
21885W        W93501  35.458   3.458  13.782
21886W        W93502  35.592  27.021   4.274
21887W        W93503  18.250  29.769  11.629
21888W        W93504  14.334   3.300  13.385
21889W        W93505  10.878  39.396   4.824
21890W        W93506   9.313  11.891  14.465
21891W        W93507   6.450  14.608   0.949
21892W        W93508  13.137  13.120  10.498
21893W        W93509   1.475  13.122  13.589
21894W        W93510   3.156  38.029   1.813
21895W        W93511  21.200   3.488   1.740
21896W        W93512  31.425  31.785  14.549
21897W        W93513  42.448   0.433   4.166
21898W        W93514  14.506  32.868  13.886
21899W        W93515   4.299  16.268   4.145
21900W        W93516  28.435  24.075   2.747
21901W        W93517  41.743  16.813  12.114
21902W        W93518  15.309  22.642  11.599
21903W        W93519   4.398  18.798  14.462
21904W        W93520  31.452  36.788  12.997
21905W        W93521   5.674  10.041  13.088
21906W        W93522  31.593  39.820  13.942
21907W        W93523  33.073   9.744   3.931
21908W        W93524  30.207   3.376  11.572
21909W        W93525   2.312  37.792  14.796
21910W        W93526  22.548  30.086   0.913
21911W        W93527  27.846  37.712  11.999
21912W        W93528   9.865   4.901  12.919
21913W        W93529  31.252  21.236  11.954
21914W        W93530  26.413  24.035  14.033
21915W        W93531  21.774  28.911   0.386
21916W        W93532  23.138  35.084  12.902
21917W        W93533  38.160  29.488   3.634
21918W        W93534   0.319  42.251  13.947
21919W        W93535  36.782   1.923  12.161
21920W        W93536   9.178  31.720  14.964
21921W        W93537  13.787  38.520  12.539
21922W        W93538  11.723  10.850   1.447
21923W        W93539  16.210  32.419   3.643
21924W        W93540  38.900  20.191  13.337
21925W        W93541  42.030   7.406   3.646
21926W        W93542  15.048  31.125  14.258
21927W        W93543  15.138  35.985   4.415
21928W        W93544  11.552  41.407  11.176
21929W        W93545  37.540   5.819  11.654
21930W        W93546  14.157   3.351   5.463
21931W        W93547   8.244   9.854  13.042
21932W        W93548   7.742  40.382   0.243
21933W        W93549  15.379  33.885  13.663
21934W        W93550  25.562  34.619   3.735
21935W        W93551  11.621  36.923  13.827
21936W        W93552   2.573  43.651  11.128
21937W        W93553  35.458  34.762   1.884
21938W        W93554  37.590   0.824  14.413
21939W        W93555  33.134  10.725  11.369
21940W        W93556  35.573   1.526  11.532
21941W        W93557  42.478  31.859   4.077
21942W        W93558  19.709  38.447   4.061
21943W        W93559  30.252  11.143   4.657
21944W        W93560  28.947  25.583  13.826
21945W        W93561  18.240   6.671   0.458
21946W        W93562  33.010  43.550  12.934
21947W        W93563  30.984  24.715   1.352
21948W        W93564  44.277  34.689  10.219
21949W        W93565  39.301   2.965  13.342
21950W        W93566  27.218  24.146  10.623
21951W        W93567  19.066  35.095   1.276
21952W        W93568  36.996  31.939   0.765
21953W        W93569  20.006  38.279  12.353
21954W        W93570  10.294  31.130   3.811
21955W        W93571  40.368   4.892   4.192
21956W        W93572  44.420   4.900   2.280
21957W        W93573   1.407  10.647   4.677
21958W        W93574  37.005   6.099   2.566
21959W        W93575   9.724   9.666   4.905
21960W        W93576  15.769  27.199   1.353
21961W        W93577  16.076  19.353  12.445
21962W        W93578   8.837  11.639  14.522
21963W        W93579  18.084   8.732   0.872
21964W        W93580   7.791  12.902  13.454
21965W        W93581  33.407   9.752  14.493
21966W        W93582  34.159  12.537   0.356
21967W        W93583  33.557  44.356   5.291
21968W        W93584  19.355  23.782  14.572
21969W        W93585  12.866  31.847   2.708
21970W        W93586  21.227   9.885   2.810
21971W        W93587   2.009  10.239  10.561
21972W        W93588  21.703  27.119   2.832
21973W        W93589  10.626   5.009   4.123
21974W        W93590  23.627  27.174  14.081
21975W        W93591  42.802  30.674   0.436
21976W        W93592  31.678  23.181  13.031
21977W        W93593  24.030  28.130  10.838
21978W        W93594  26.938  29.682   1.811
21979W        W93595  29.691  10.907  14.193
21980W        W93596   1.008  11.221   0.487
21981W        W93597  27.058  18.323  10.965
21982W        W93598  36.945  23.708   1.824
21983W        W93599  21.469  25.268   0.300
21984W        W93600  26.410   7.448  11.187
21985W        W93601  44.270   4.205  14.689
21986W        W93602  16.707  39.276   4.666
21987W        W93603  30.485  42.830  10.619
21988W        W93604  42.848  32.955   2.215
21989W        W93605   1.248  10.282  11.187
21990W        W93606  33.062  35.680  12.133
21991W        W93607  43.323  17.598   2.276
21992W        W93608  42.372  14.805   1.844
21993W        W93609  17.715  17.527  12.393
21994W        W93610  44.896  36.590  11.468
21995W        W93611  34.849  15.773  11.493
21996W        W93612  21.925  30.737   4.803
21997W        W93613   3.252  21.727   5.178
21998W        W93614  36.416  29.593   0.294
21999W        W93615  35.398  38.583  14.976
22000W        W93616  11.594  12.162  14.472
22001W        W93617   4.759   7.696  10.763
22002W        W93618   9.093   0.755  11.977
22003W        W93619  30.113   1.321  11.780
22004W        W93620  19.571  12.607   4.697
22005W        W93621   7.373   8.003   3.593
22006W        W93622  13.311  33.921  13.732
22007W        W93623  10.676  27.308   2.209
22008W        W93624  44.739  19.735  12.519
22009W        W93625  30.236  38.459   1.340
22010W        W93626  21.416  39.829   4.317
22011W        W93627   2.815  40.367   0.706
22012W        W93628  18.188  28.993   1.286
22013W        W93629  36.522  39.921   2.187
22014W        W93630  33.362  31.575   0.288
22015W        W93631   0.035   4.602  11.466
22016W        W93632  16.107  38.547   1.373
22017W        W93633  28.899  32.520   4.638
22018W        W93634  36.053   3.875  10.561
22019W        W93635  43.965  25.248   1.680
22020W        W93636  23.830  18.711   5.386
22021W        W93637  16.745  26.173   1.354
22022W        W93638  18.582  38.468  11.516
22023W        W93639   8.860  17.965   1.774
22024W        W93640  34.032  27.740  13.309
22025W        W93641  26.335  25.169   2.764
22026W        W93642  27.331   6.242   4.216
22027W        W93643  22.554  37.118   1.759
22028W        W93644  41.501   6.146   3.882
22029W        W93645  18.217  13.277   4.788
22030W        W93646  13.806  40.266   0.285
22031W        W93647  13.269  33.303   2.838
22032W        W93648  33.059  17.592   4.099
22033W        W93649  42.747  27.541   3.669
22034W        W93650  13.488  10.158  14.344
22035W        W93651  10.270  16.263   2.963
22036W        W93652   4.364  31.033   0.042
22037W        W93653  25.354   7.798   0.927
22038W        W93654  44.907  39.935   2.872
22039W        W93655  13.794  10.250  14.797
22040W        W93656  17.334  20.800  13.861
22041W        W93657   9.672  17.743   0.823
22042W        W93658   0.156  39.496   2.276
22043W        W93659  22.961   9.257  12.399
22044W        W93660  35.132   8.499   5.223
22045W        W93661  31.633  22.695  13.530
22046W        W93662  40.614  35.584  11.699
22047W        W93663  17.631   4.148  14.526
22048W        W93664  14.346  16.104  11.486
22049W        W93665  28.514  33.315   1.426
22050W        W93666  40.807  11.354  11.767
22051W        W93667   1.422  21.182  12.082
22052W        W93668  12.856  21.681  12.490
22053W        W93669   5.845   3.373  11.640
22054W        W93670  11.372   1.885   2.925
22055W        W93671  36.393  15.187  14.530
22056W        W93672   8.764  20.273  11.945
22057W        W93673   3.794  34.465   2.617
22058W        W93674   0.465   6.347  13.384
22059W        W93675  33.726  19.670  12.024
22060W        W93676  38.792  25.796  11.433
22061W        W93677  43.409  21.768   4.121
22062W        W93678  29.883  37.914   3.808
22063W        W93679  27.685  11.104   4.507
22064W        W93680  28.678   8.051  13.281
22065W        W93681  34.137  23.603   0.293
22066W        W93682  18.489   3.688  11.870
22067W        W93683  15.390  34.075   0.573
22068W        W93684  44.345  10.219   4.472
22069W        W93685   1.077  10.383  12.011
22070W        W93686  43.207  18.083   2.893
22071W        W93687  20.062  19.172   4.276
22072W        W93688  43.517  36.850   0.461
22073W        W93689  36.869  13.587  13.901
22074W        W93690   7.168  25.207   1.215
22075W        W93691   9.427  18.589  12.097
22076W        W93692  30.965  14.683  10.808
22077W        W93693  15.219  20.258   4.544
22078W        W93694  30.441  43.000   2.685
22079W        W93695  43.893  38.411   2.256
22080W        W93696   8.722  20.747   2.232
22081W        W93697   8.726   1.562   0.521
22082W        W93698  24.547  29.511  12.867
22083W        W93699   6.476   1.040   1.442
22084W        W93700  26.010  27.571   3.496
22085W        W93701  19.600  34.794  10.239
22086W        W93702  31.165  29.800  14.361
22087W        W93703  14.678   2.383  10.874
22088W        W93704  16.785  22.712  10.489
22089W        W93705  10.644  30.988   3.224
22090W        W93706  30.043  44.431   4.215
22091W        W93707  13.718  16.724   1.861
22092W        W93708   9.921  20.814   4.537
22093W        W93709  16.880  28.966  11.982
22094W        W93710  23.175   4.539  11.638
22095W        W93711  25.271  36.266  14.570
22096W        W93712   2.663  39.908   3.063
22097W        W93713   9.338  19.754   0.314
22098W        W93714   0.383  22.246  13.988
22099W        W93715  12.146   1.823  11.248
22100W        W93716  16.542  23.106  11.451
22101W        W93717  12.179  12.108   3.309
22102W        W93718  44.938  25.435  14.260
22103W        W93719  25.191   1.500  12.376
22104W        W93720  24.999  11.663   0.476
22105W        W93721  37.844   6.748   2.781
22106W        W93722   5.852  25.610  11.116
22107W        W93723  34.602  43.838  12.145
22108W        W93724  13.541   1.631  13.324
22109W        W93725  23.135  19.598  13.389
22110W        W93726  29.610  22.284  13.290
22111W        W93727  40.034  13.821  14.451
22112W        W93728   2.773  17.308  12.850
22113W        W93729   2.909  19.854  12.036
22114W        W93730  32.055  20.302   5.214
22115W        W93731   6.347  20.146  13.041
22116W        W93732   9.831  34.048  14.001
22117W        W93733   5.821  14.687  10.620
22118W        W93734  31.957  21.605   1.764
22119W        W93735   0.221  23.735   5.557
22120W        W93736  13.361  22.198  14.431
22121W        W93737  27.963  13.406   2.115
22122W        W93738   8.598  40.930  12.655
22123W        W93739  35.876  27.604   4.644
22124W        W93740   5.806  25.220   4.514
22125W        W93741  40.998  43.821   1.394
22126W        W93742  30.209   6.201   3.292
22127W        W93743  39.216  40.308   2.589
22128W        W93744   9.175  38.851   0.005
22129W        W93745  33.677   8.842   2.245
22130W        W93746  27.670   7.460   1.886
22131W        W93747  43.068   8.402  12.523
22132W        W93748  38.001  13.339  14.280
22133W        W93749  32.995   6.352  12.072
22134W        W93750  25.396  27.463   2.610
22135W        W93751   3.143  13.878  14.495
22136W        W93752  32.679  18.198   5.100
22137W        W93753  22.796   6.712   2.272
22138W        W93754  26.189  36.838   4.966
22139W        W93755  25.701  36.518  14.372
22140W        W93756  16.527  43.523  11.609
22141W        W93757  13.022   1.900   4.919
22142W        W93758   5.223   2.146  11.787
22143W        W93759   9.555   8.380  11.698
22144W        W93760   5.368  31.075  11.991
22145W        W93761  16.232  19.132   0.261
22146W        W93762   5.699   0.033  14.693
22147W        W93763  39.428  23.392   0.701
22148W        W93764  34.940   4.366  13.675
22149W        W93765  12.078  31.123  11.455
22150W        W93766  42.112   5.340   3.999
22151W        W93767   8.301   6.271   3.667
22152W        W93768  11.100  12.211  12.036
22153W        W93769  26.448  18.031  10.323
22154W        W93770   3.462  28.542  10.670
22155W        W93771  39.527  10.539  12.574
22156W        W93772   6.297   4.564  12.553
22157W        W93773  29.931  17.584   4.856
22158W        W93774  38.299   0.437   4.710
22159W        W93775  21.011  26.351   4.886
22160W        W93776  20.140  39.555   0.510
22161W        W93777   0.888  35.801   3.171
22162W        W93778  36.787  16.000  12.365
22163W        W93779  43.028  30.518  10.735
22164W        W93780  25.463   1.720  12.787
22165W        W93781  37.019  24.563  10.549
22166W        W93782  43.252   2.277  11.125
22167W        W93783  31.505   5.423  11.237
22168W        W93784  43.091  33.893   1.993
22169W        W93785  34.600  28.803  12.892
22170W        W93786   6.039  35.337  13.141
22171W        W93787  30.158  13.859   1.284
22172W        W93788   9.749  26.776  11.586
22173W        W93789   2.856   3.263   0.653
22174W        W93790  23.297  11.680  14.440
22175W        W93791  17.283  33.291   2.307
22176W        W93792  38.428  33.791  11.669
22177W        W93793   4.238  16.518   4.614
22178W        W93794  19.757  37.072  14.526
22179W        W93795  19.938  33.453   3.094
22180W        W93796  20.538  11.629  12.339
22181W        W93797   0.461  34.407  11.681
22182W        W93798   8.366  17.540   2.444
22183W        W93799   1.409  16.090   0.332
22184W        W93800  16.804  42.787   1.230
22185W        W93801   8.619  29.512  11.641
22186W        W93802  12.490   2.971  11.408
22187W        W93803   8.348   3.842   1.385
22188W        W93804   5.689   6.922  13.469
22189W        W93805  12.250  23.918  12.377
22190W        W93806  29.682  23.042  10.472
22191W        W93807  15.746  26.927  12.930
22192W        W93808   6.878  32.421   1.859
22193W        W93809  20.831  29.132  12.992
22194W        W93810  29.121   2.864  14.116
22195W        W93811  21.167  29.129   4.072
22196W        W93812  24.448  41.102  12.031
22197W        W93813  11.598  21.211   0.640
22198W        W93814  24.920  15.183   4.170
22199W        W93815   3.376   6.732  13.507
22200W        W93816   8.965  15.478  13.136
22201W        W93817  24.197  21.104  13.504
22202W        W93818  34.580  25.262  12.068
22203W        W93819  27.168  31.438   3.307
22204W        W93820  36.832  29.013  11.644
22205W        W93821   9.512   9.227   4.647
22206W        W93822  39.026  11.878   4.701
22207W        W93823  20.724  41.968   0.529
22208W        W93824  26.859  28.588  12.441
22209W        W93825   8.395  12.075   3.959
22210W        W93826  10.256  17.007  11.193
22211W        W93827  36.556  18.528  13.402
22212W        W93828   1.897  42.105  11.159
22213W        W93829  18.972   6.344   1.704
22214W        W93830  25.225  34.244   0.733
22215W        W93831   5.174  20.291   2.874
22216W        W93832  23.460  18.764  14.926
22217W        W93833  22.981   4.465  14.984
22218W        W93834  31.671  26.504  11.968
22219W        W93835  32.477  43.989   2.861
22220W        W93836   3.557  35.432   0.386
22221W        W93837  10.127  16.258   4.906
22222W        W93838  36.160   2.958   2.948
22223W        W93839  34.968  13.386   1.172
22224W        W93840  41.996   7.392  14.129
22225W        W93841  29.507   1.488  13.589
22226W        W93842  28.193  42.775   4.628
22227W        W93843  20.347  16.090  13.786
22228W        W93844  14.930  38.468  14.723
22229W        W93845  18.131  33.384  10.932
22230W        W93846   9.110  24.203   2.865
22231W        W93847  27.602  36.142   0.639
22232W        W93848  41.442   2.725  13.919
22233W        W93849   1.738   0.333  10.592
22234W        W93850  38.047  23.752   4.609
22235W        W93851  26.091  19.286   4.567
22236W        W93852  12.139  21.123  13.881
22237W        W93853  17.186  34.019   3.523
22238W        W93854  28.171   4.208   2.285
22239W        W93855  20.675  20.093   0.362
22240W        W93856  12.754  25.900  13.993
22241W        W93857  41.860  29.722  11.580
22242W        W93858  23.743   0.013   3.873
22243W        W93859  11.035  43.696  13.954
22244W        W93860  15.326  39.594   0.306
22245W        W93861  33.357  38.133   4.075
22246W        W93862  32.309  22.494   0.926
22247W        W93863  34.506  35.633  12.825
22248W        W93864  32.474  19.296   4.850
22249W        W93865   3.719  34.220  13.937
22250W        W93866  18.556  29.431   2.787
22251W        W93867  44.709  26.630   4.848
22252W        W93868  26.381  19.379  12.923
22253W        W93869  40.838  27.531  11.107
22254W        W93870  13.071  12.088  13.826
22255W        W93871   7.463  39.828  13.163
22256W        W93872  12.261  37.653   1.293
22257W        W93873   8.382  15.122  12.309
22258W        W93874  28.406  42.819  14.473
22259W        W93875   2.025   9.652  13.897
22260W        W93876   6.756  18.258  13.663
22261W        W93877  24.399  10.234  12.547
22262W        W93878  39.313  38.970  12.088
22263W        W93879  40.427  43.912  14.446
22264W        W93880  22.840  11.218  12.109
22265W        W93881  26.435  22.611   1.850
22266W        W93882  15.651   4.295  12.604
22267W        W93883  23.572  32.349  12.018
22268W        W93884  33.881  22.229  12.112
22269W        W93885   8.705  12.419   4.229
22270W        W93886  34.763  39.617  14.258
22271W        W93887  40.780  41.427   2.739
22272W        W93888  22.493   7.404   2.772
22273W        W93889  10.200  33.555  13.305
22274W        W93890  14.068  44.108   0.348
22275W        W93891  10.844  20.088   1.847
22276W        W93892   2.975   0.883   1.903
22277W        W93893   4.850  22.924   3.593
22278W        W93894   5.918   3.949  14.778
22279W        W93895  33.651  40.609  14.444
22280W        W93896  21.053  43.405  11.134
22281W        W93897   1.135   2.789   2.421
22282W        W93898  15.716  22.574   3.518
22283W        W93899  44.390  29.046  11.088
22284W        W93900  28.200  39.372  12.035
22285W        W93901  28.411  39.840   2.874
22286W        W93902  22.132  28.586  14.545
22287W        W93903   3.781  44.383  11.909
22288W        W93904   1.828  44.428  13.570
22289W        W93905   1.664  17.713  10.742
22290W        W93906  13.232  30.833  14.044
22291W        W93907  12.172  35.881  12.475
22292W        W93908  33.753  31.384  11.184
22293W        W93909  44.922  23.506   0.278
22294W        W93910  33.437  18.368   3.088
22295W        W93911  13.186   4.168   4.138
22296W        W93912  37.048  23.185   2.158
22297W        W93913  22.305   1.359   2.696
22298W        W93914  26.146  17.499  12.008
22299W        W93915  19.534  13.062  10.477
22300W        W93916  44.975  37.376  13.241
22301W        W93917  44.321  19.676  10.792
22302W        W93918  12.863   8.739   2.829
22303W        W93919  12.797  37.412   2.329
22304W        W93920   7.631   8.342   0.871
22305W        W93921  32.330   0.310  11.651
22306W        W93922  13.103  14.179   1.189
22307W        W93923  15.656   2.885  10.699
22308W        W93924   6.252  12.694  11.153
22309W        W93925  25.466  21.139  14.444
22310W        W93926   4.965  14.194  14.028
22311W        W93927  17.164  15.138  13.007
22312W        W93928  39.484  30.550  13.538
22313W        W93929  44.423   8.762  14.786
22314W        W93930  43.428  10.319   3.884
22315W        W93931  26.802  27.355  11.544
22316W        W93932  44.378  37.846   3.691
22317W        W93933   5.638  43.957   4.659
22318W        W93934  20.255   0.555  13.424
22319W        W93935   0.305  22.989  11.103
22320W        W93936  18.068  16.619  12.651
22321W        W93937   1.735  27.550   0.766
22322W        W93938  16.250  18.319   2.178
22323W        W93939   9.590  26.211  14.012
22324W        W93940  33.330  14.141  10.392
22325W        W93941  30.037   8.715  12.472
22326W        W93942   5.810  11.602   0.001
22327W        W93943   9.900  37.042   3.634
22328W        W93944  27.912   7.262   2.324
22329W        W93945  33.110  38.586   2.828
22330W        W93946  28.212   6.000   3.707
22331W        W93947  21.006  42.855  13.050
22332W        W93948  19.568  22.077  13.267
22333W        W93949  28.140   7.443  14.227
22334W        W93950   2.741  15.566   4.220
22335W        W93951  35.352  29.898  12.862
22336W        W93952  29.645  25.992   3.875
22337W        W93953  39.051  22.285   0.263
22338W        W93954  24.244  34.478  13.459
22339W        W93955  34.548  27.186   2.676
22340W        W93956  20.253  30.436  13.134
22341W        W93957  33.038  11.280   1.747
22342W        W93958  29.441  41.061   3.384
22343W        W93959   6.875  29.540  13.080
22344W        W93960  23.063  38.078  12.022
22345W        W93961  37.393  21.326  10.905
22346W        W93962  19.762  43.982   2.332
22347W        W93963  19.537  12.542   2.848
22348W        W93964   9.113  38.925   0.968
22349W        W93965  14.566  30.661   1.507
22350W        W93966  26.121  26.542  13.404
22351W        W93967   7.639   7.358   1.820
22352W        W93968   3.344  43.303   0.283
22353W        W93969   4.834  21.368  13.024
22354W        W93970   4.351  27.427   0.952
22355W        W93971  30.461  28.212   2.298
22356W        W93972   2.721  28.537  14.857
22357W        W93973  10.348  23.620   1.679
22358W        W93974  41.500   1.217   4.249
22359W        W93975  28.533  36.892  14.994
22360W        W93976  40.878   8.799   0.833
22361W        W93977   7.438  15.041  12.521
22362W        W93978  16.084  41.245  14.122
22363W        W93979   9.280  23.763  13.264
22364W        W93980  36.420  33.412  11.627
22365W        W93981  32.105   8.381  14.300
22366W        W93982  22.029  37.894   3.305
22367W        W93983  28.330  16.408   5.020
22368W        W93984  13.394  20.209   1.671
22369W        W93985  40.336  11.389   4.204
22370W        W93986   6.410   6.953  10.047
22371W        W93987  44.376  28.972  14.988
22372W        W93988  12.602  40.953  11.640
22373W        W93989  20.501   9.683   1.781
22374W        W93990  25.970   3.426  12.134
22375W        W93991  35.044  24.540  10.893
22376W        W93992  32.164  25.167   1.032
22377W        W93993  39.142  24.403   4.861
22378W        W93994  21.515  15.478   3.822
22379W        W93995  43.024  26.752   0.628
22380W        W93996   9.281  26.444   2.414
22381W        W93997  24.925  43.038  13.506
22382W        W93998  42.483  14.216   0.474
22383W        W93999  43.767  18.386   0.772
22384W        W94000  23.217  22.648   4.419
22385W        W94001  20.275  43.523  13.491
22386W        W94002  32.002  38.498  10.702
22387W        W94003  12.352  36.344   2.190
22388W        W94004  13.339   8.854  12.904
22389W        W94005   0.383   0.871  13.554
22390W        W94006  10.793  10.922  10.522
22391W        W94007  24.605  21.517   4.391
22392W        W94008   7.721  21.471   0.321
22393W        W94009  29.147  11.128   2.796
22394W        W94010  18.306   4.649  14.003
22395W        W94011  34.862  35.291   3.131
22396W        W94012  21.119   1.214   0.275
22397W        W94013  37.459  16.554   4.560
22398W        W94014  28.165  39.373  11.151
22399W        W94015   3.505  28.036  14.987
22400W        W94016  40.344  16.242   2.853
22401W        W94017   2.603  35.691   1.464
22402W        W94018  38.812   7.635   0.917
22403W        W94019   5.348  30.113   2.768
22404W        W94020  13.015   9.971   1.440
22405W        W94021  11.013  23.502  12.295
22406W        W94022  16.539  23.979   0.722
22407W        W94023  19.265  27.653  11.432
22408W        W94024  34.405   1.735  11.166
22409W        W94025  17.999  25.400  12.828
22410W        W94026  19.078   1.040   3.860
22411W        W94027   4.246  10.356   2.616
22412W        W94028  14.702   6.852  13.790
22413W        W94029  33.916   2.018   2.352
22414W        W94030  33.917  20.146  10.696
22415W        W94031   8.736  11.894  11.626
22416W        W94032  31.649  28.276   1.811
22417W        W94033   1.346  15.965  12.890
22418W        W94034  23.612  14.041  12.077
22419W        W94035   8.731   0.352  11.963
22420W        W94036  29.594  28.690  14.213
22421W        W94037  22.782   7.396   1.917
22422W        W94038  21.765   3.307  10.703
22423W        W94039   6.400  10.683  12.821
22424W        W94040  37.073   0.583  12.419
22425W        W94041  19.067   7.593   1.142
22426W        W94042  35.145  22.746   4.263
22427W        W94043  15.641   2.357   2.983
22428W        W94044  23.777  32.964  12.936
22429W        W94045  23.692  21.085   3.557
22430W        W94046  20.039  37.322   2.951
22431W        W94047  43.546  30.336  11.532
22432W        W94048  36.540  42.062   1.528
22433W        W94049  16.034   7.199   4.058
22434W        W94050   0.303  17.858   1.777
22435W        W94051  21.690  37.853  13.507
22436W        W94052   7.698   3.593   0.195
22437W        W94053  25.169  30.648  12.025
22438W        W94054  34.458  21.623  12.538
22439W        W94055  13.649  37.432   1.646
22440W        W94056  26.690  37.085   0.414
22441W        W94057  22.695  30.913   3.145
22442W        W94058   8.876  20.667   4.171
22443W        W94059  13.303  10.750   4.813
22444W        W94060  15.675  15.708  14.040
22445W        W94061  40.989   1.720  13.537
22446W        W94062  31.020  25.232   2.248
22447W        W94063   3.861  13.624   4.181
22448W        W94064  36.829  34.109  11.158
22449W        W94065   8.104  40.756  12.627
22450W        W94066  27.917  33.943   0.576
22451W        W94067  38.903  16.821  13.564
22452W        W94068  25.695   3.063  14.981
22453W        W94069  11.177   6.278   2.668
22454W        W94070  30.478  16.596  14.419
22455W        W94071   3.752  11.877  12.563
22456W        W94072  16.185  35.158   0.983
22457W        W94073  15.646   7.800  13.538
22458W        W94074   4.666  34.940  12.026
22459W        W94075   2.063  11.173  12.456
22460W        W94076   5.026   6.245   3.941
22461W        W94077   8.385  27.687   1.038
22462W        W94078  36.952  38.571  14.058
22463W        W94079  15.081  37.887  13.529
22464W        W94080  12.365   9.861  12.055
22465W        W94081  21.507  22.723   4.118
22466W        W94082   4.337  17.248  14.086
22467W        W94083  10.737  12.897  14.904
22468W        W94084  43.003  32.214   2.715
22469W        W94085  14.040  44.882   3.621
22470W        W94086  34.334  37.905  14.091
22471W        W94087  35.242  37.461  12.959
22472W        W94088  30.661  17.651  13.617
22473W        W94089  35.955  31.725  14.507
22474W        W94090   7.962  31.628  12.930
22475W        W94091   6.782  35.302   4.529
22476W        W94092  18.524  15.602   4.608
22477W        W94093  24.505  20.316   0.486
22478W        W94094  42.741  21.031  12.182
22479W        W94095  36.478  29.312   9.902
22480W        W94096  10.234  23.082  12.082
22481W        W94097  30.583  34.245   2.607
22482W        W94098  40.845  34.462   3.683
22483W        W94099  22.426   5.174   0.951
22484W        W94100  15.603   6.265  10.889
22485W        W94101  29.683   6.702  13.831
22486W        W94102  16.886  28.600   3.673
22487W        W94103  39.998  36.773  11.529
22488W        W94104  19.329  27.494   1.950
22489W        W94105  20.252  35.619   3.697
22490W        W94106   5.261  20.106   1.042
22491W        W94107  37.569  31.970   3.786
22492W        W94108   0.363  34.344  13.054
22493W        W94109   3.733  41.329   4.056
22494W        W94110  40.155  33.781   4.342
22495W        W94111  25.695  25.427  13.525
22496W        W94112  42.495  21.650   3.681
22497W        W94113  18.690  24.295  13.499
22498W        W94114  16.712  42.774  11.565
22499W        W94115  11.914  17.521   0.315
22500W        W94116  36.286   0.200   2.970
22501W        W94117  25.865  19.778  14.426
22502W        W94118   1.901  33.498   1.870
22503W        W94119  43.250  12.947   2.647
22504W        W94120   7.639  13.331  12.328
22505W        W94121   5.009  10.266   4.655
22506W        W94122  35.035   2.633   3.614
22507W        W94123  33.030  27.307  13.527
22508W        W94124  31.178   1.392   1.739
22509W        W94125  24.964  23.512   2.814
22510W        W94126  22.517  19.867  12.482
22511W        W94127  27.003  33.562  14.549
22512W        W94128  36.454  33.942   0.013
22513W        W94129  39.237  30.046   3.191
22514W        W94130  20.213  34.912  14.979
22515W        W94131  21.487  18.296  12.615
22516W        W94132  43.798  33.258   0.367
22517W        W94133  12.934  36.047   1.877
22518W        W94134  32.868   1.323   1.010
22519W        W94135  32.084  25.377  10.641
22520W        W94136   3.982  11.352   4.550
22521W        W94137  23.122  35.526   0.281
22522W        W94138  19.704  36.424  13.952
22523W        W94139  30.841   9.853  11.045
22524W        W94140  26.292  30.990   2.291
22525W        W94141  13.262  39.489   1.831
22526W        W94142  30.963   7.417   0.733
22527W        W94143   1.756   7.414  11.262
22528W        W94144  29.479  29.172  11.894
22529W        W94145   1.669  42.953   2.252
22530W        W94146   5.938  22.719  14.064
22531W        W94147  17.401  23.908   0.404
22532W        W94148   4.370  44.836   1.019
22533W        W94149  43.265  10.650   2.891
22534W        W94150  11.862  24.219   1.198
22535W        W94151  38.340  12.245   0.534
22536W        W94152  19.135   3.734   2.942
22537W        W94153  43.796  31.680  14.018
22538W        W94154  40.270  16.771   3.621
22539W        W94155  17.970  18.754  12.366
22540W        W94156  16.401   3.340   3.447
22541W        W94157  39.085  23.168  12.405
22542W        W94158  41.536  34.071  13.610
22543W        W94159   4.734  14.370   1.761
22544W        W94160   8.200  38.918  14.063
22545W        W94161  43.511   0.244  11.660
22546W        W94162  37.013  17.914   4.488
22547W        W94163  28.962  30.306  12.837
22548W        W94164   5.777   1.026  12.402
22549W        W94165  42.227  40.740  14.589
22550W        W94166  44.240  20.982   3.723
22551W        W94167  22.622  39.600  12.466
22552W        W94168  17.109  42.999  14.943
22553W        W94169  21.665  36.587   1.782
22554W        W94170  24.103  24.755   1.285
22555W        W94171  34.625   0.919   9.866
22556W        W94172  36.834  26.666   2.347
22557W        W94173  29.446  33.898  14.478
22558W        W94174  15.897  33.922   4.114
22559W        W94175   5.461  39.355   0.344
22560W        W94176  11.770  37.866  14.410
22561W        W94177   8.315  23.539   3.608
22562W        W94178  19.773  27.424   1.254
22563W        W94179  44.043  23.014   3.742
22564W        W94180  32.513   3.307  14.464
22565W        W94181   6.412  36.856   3.311
22566W        W94182   3.488  32.116  13.435
22567W        W94183  30.441  34.569  14.838
22568W        W94184  38.420   1.745   2.327
22569W        W94185   3.153  24.938   5.655
22570W        W94186  22.184  18.628   3.142
22571W        W94187  14.287  14.276   5.036
22572W        W94188  41.295  19.311   2.323
22573W        W94189   2.238   4.977   0.669
22574W        W94190  36.052  21.327  12.473
22575W        W94191  11.144  14.325   4.037
22576W        W94192  21.572   2.002  11.120
22577W        W94193  34.124  43.458  13.696
22578W        W94194  19.304  35.408   0.303
22579W        W94195  22.019  27.723  13.566
22580W        W94196  19.010  31.578  12.171
22581W        W94197  16.569  12.634   0.008
22582W        W94198  27.040  42.991  11.910
22583W        W94199  32.929  10.262  12.590
22584W        W94200  33.186  41.459   4.390
22585W        W94201  24.376  23.031  11.655
22586W        W94202  12.753  32.494   4.548
22587W        W94203  25.897  37.496   1.700
22588W        W94204  20.623   6.921   4.869
22589W        W94205  30.911  42.838  13.324
22590W        W94206  29.370  19.315   2.787
22591W        W94207  16.934  34.112  14.639
22592W        W94208  10.686  12.235   1.707
22593W        W94209  24.581  33.426  13.001
22594W        W94210   1.480   5.781  11.550
22595W        W94211  27.497  15.132   0.267
22596W        W94212   9.448  30.586   1.202
22597W        W94213  17.553  21.610   1.472
22598W        W94214   8.975  17.036   3.461
22599W        W94215  10.209  19.669   0.508
22600W        W94216  37.269   1.853   4.113
22601W        W94217  35.964  18.823   2.801
22602W        W94218  25.120  17.064  11.054
22603W        W94219   2.560   4.849  10.041
22604W        W94220  31.946  15.258   2.297
22605W        W94221  29.190   8.789   4.576
22606W        W94222   5.430   6.937   0.763
22607W        W94223  27.787  21.472  11.059
22608W        W94224  34.736  31.556  11.121
22609W        W94225  24.785  23.006   2.268
22610W        W94226  12.964   5.893   1.955
22611W        W94227  41.429   8.818  10.487
22612W        W94228  24.939  43.959  13.598
22613W        W94229  34.898  38.788  14.951
22614W        W94230  40.560  17.663  13.357
22615W        W94231  18.213  26.011   2.780
22616W        W94232  19.994  30.227  12.070
22617W        W94233  42.606  28.289  11.153
22618W        W94234  28.289  41.252   4.552
22619W        W94235  12.633   2.476  11.213
22620W        W94236  22.825   7.399   9.797
22621W        W94237   6.141   5.314  14.684
22622W        W94238  16.434  15.316  14.566
22623W        W94239   2.443   8.834  13.922
22624W        W94240  11.901  38.312  11.097
22625W        W94241  17.598   8.451  13.036
22626W        W94242  10.214  12.139   0.585
22627W        W94243  30.875  24.964   0.441
22628W        W94244   7.405  18.646   2.308
22629W        W94245  24.288  33.027  12.881
22630W        W94246  25.831  40.506  11.554
22631W        W94247   9.669  37.790   1.959
22632W        W94248  24.243  28.578  10.971
22633W        W94249  12.686   2.498  14.772
22634W        W94250  20.313  25.661  10.780
22635W        W94251  38.859  31.975  13.539
22636W        W94252  38.050  17.323   3.271
22637W        W94253  42.376   6.936  10.726
22638W        W94254   7.691  30.066  13.136
22639W        W94255  32.492  27.552  10.738
22640W        W94256  24.517   2.821   0.339
22641W        W94257   4.445  25.540   1.930
22642W        W94258   4.263   5.303  11.992
22643W        W94259  38.966  32.654  14.327
22644W        W94260  22.671  13.703  10.372
22645W        W94261   4.494  44.384  14.786
22646W        W94262   6.803  35.378  10.572
22647W        W94263  18.789  30.452  12.776
22648W        W94264  43.864  27.096  10.742
22649W        W94265  21.747  42.373  11.938
22650W        W94266  15.244   9.881  10.758
22651W        W94267  40.249   7.535  12.136
22652W        W94268   4.181   1.976   2.226
22653W        W94269  29.911  24.642   3.330
22654W        W94270  17.042  39.160  13.326
22655W        W94271  36.651  31.782   2.145
22656W        W94272  30.585  25.460  10.620
22657W        W94273  16.629   5.464   4.135
22658W        W94274  11.625   5.892   4.093
22659W        W94275  33.391  29.263  14.969
22660W        W94276  18.749  36.315   2.913
22661W        W94277  35.024  24.194  12.074
22662W        W94278  29.307   7.417  12.115
22663W        W94279  34.676  30.524  13.917
22664W        W94280  25.812  42.049   0.858
22665W        W94281  25.059  13.299   2.838
22666W        W94282  24.474  14.287   4.088
22667W        W94283  39.527  19.264   4.118
22668W        W94284  27.885   9.425  12.427
22669W        W94285  20.259  44.459   3.101
22670W        W94286  20.020  19.252   0.984
22671W        W94287  30.655   9.804   3.737
22672W        W94288   9.776  16.299  12.894
22673W        W94289  19.862  43.950   0.352
22674W        W94290  19.627  26.962  13.013
22675W        W94291  15.095   3.696   4.209
22676W        W94292  28.473  39.350   4.134
22677W        W94293  29.476  37.025   3.124
22678W        W94294  41.760  30.963   1.379
22679W        W94295  43.774  31.141   4.224
22680W        W94296  41.106  36.344  12.172
22681W        W94297   8.221  22.523   2.834
22682W        W94298  14.801  16.173   0.236
22683W        W94299  16.922   0.327  10.037
22684W        W94300   9.277  20.625  11.368
22685W        W94301  39.661  19.937  12.514
22686W        W94302  20.986  29.105  12.121
22687W        W94303   5.444  32.426   3.547
22688W        W94304  36.484  18.089  10.061
22689W        W94305  24.573  11.852  12.860
22690W        W94306  24.021  43.186   1.374
22691W        W94307   6.148  41.407  11.954
22692W        W94308  27.988  41.815  12.405
22693W        W94309  13.395  34.856  14.938
22694W        W94310   7.570  18.500  11.112
22695W        W94311  18.774  25.214  10.206
22696W        W94312  41.965  20.826   3.485
22697W        W94313   8.694  36.810  11.708
22698W        W94314  29.803  16.382  11.046
22699W        W94315  27.586   0.000  12.653
22700W        W94316  19.180  36.358   2.630
22701W        W94317  38.424   6.352  13.439
22702W        W94318  32.868  29.952   1.854
22703W        W94319  12.926   5.380   2.095
22704W        W94320  37.309  11.722   2.649
22705W        W94321  32.164  10.777   3.700
22706W        W94322   7.649  29.615   2.295
22707W        W94323  40.379  44.934   4.563
22708W        W94324  18.757   4.433   2.029
22709W        W94325  10.793  34.505   2.827
22710W        W94326  33.018  11.556  12.359
22711W        W94327  41.028  25.146  14.876
22712W        W94328  27.652  18.752  11.495
22713W        W94329  24.794  30.037  11.044
22714W        W94330  21.533  25.068  13.970
22715W        W94331  10.229  15.604  14.247
22716W        W94332   7.326  36.603   2.034
22717W        W94333   5.873  34.496   4.679
22718W        W94334  17.759  42.538  10.262
22719W        W94335   7.774  24.653  13.981
22720W        W94336  26.437  10.797   5.032
22721W        W94337  26.556  32.571  12.606
22722W        W94338  32.087  21.908  12.019
22723W        W94339  20.758   1.095  14.899
22724W        W94340  28.417   6.614  14.427
22725W        W94341  11.115  18.074  13.952
22726W        W94342   8.867  38.244   2.097
22727W        W94343  32.202  38.508   0.552
22728W        W94344  19.522  36.503   1.806
22729W        W94345   9.933  10.307  11.127
22730W        W94346  31.182  19.756  10.010
22731W        W94347  34.648  19.829  10.768
22732W        W94348  43.596  36.670  11.599
22733W        W94349  27.181   3.140  13.384
22734W        W94350   1.274  12.099   1.809
22735W        W94351   6.223  38.412  11.964
22736W        W94352  30.598   1.673  13.923
22737W        W94353  42.216  26.622   1.987
22738W        W94354  17.749  22.132   2.815
22739W        W94355  11.628  38.462  10.673
22740W        W94356   6.305  22.441   2.619
22741W        W94357  13.811   4.385  13.009
22742W        W94358  17.829  20.638  11.851
22743W        W94359  20.528  12.574   2.627
22744W        W94360   1.689  15.911  11.628
22745W        W94361  26.798   8.348   4.167
22746W        W94362   3.357  28.698   2.912
22747W        W94363  30.357  37.575  10.220
22748W        W94364  35.359  21.281   3.236
22749W        W94365   1.674  10.158  10.941
22750W        W94366   3.428   4.765   3.633
22751W        W94367  19.220  28.430  14.488
22752W        W94368  11.712  37.365   2.440
22753W        W94369  26.731  31.182  13.779
22754W        W94370  28.950  35.993   1.422
22755W        W94371  44.665  24.648   1.763
22756W        W94372  42.049  34.034   1.841
22757W        W94373  39.068  43.958  14.896
22758W        W94374  37.552   0.442   4.125
22759W        W94375  34.248  14.683   4.172
22760W        W94376  37.800   2.605  12.390
22761W        W94377  38.446  25.893  12.601
22762W        W94378  14.216  19.832   0.390
22763W        W94379  26.664  28.210  14.373
22764W        W94380   9.148  42.046  12.897
22765W        W94381  11.226   5.492   0.897
22766W        W94382  21.704  29.923  14.413
22767W        W94383  26.633   5.457   4.164
22768W        W94384   0.476  37.939  13.725
22769W        W94385  17.732  39.364  14.281
22770W        W94386  32.475  15.848   2.820
22771W        W94387   3.173  39.704   0.388
22772W        W94388  28.528  16.125   4.176
22773W        W94389  33.568  26.027  10.727
22774W        W94390  16.836  40.405  12.576
22775W        W94391   9.964  34.367   1.713
22776W        W94392  13.822  37.081   2.461
22777W        W94393  26.091  25.209  13.800
22778W        W94394  13.313   6.152  12.189
22779W        W94395  11.165  27.735  14.519
22780W        W94396  28.239   2.620   3.303
22781W        W94397  22.213  36.300  13.580
22782W        W94398  36.972  24.122  11.997
22783W        W94399  34.666  36.981   0.484
22784W        W94400  29.913  33.141  13.391
22785W        W94401  11.611  17.812   3.454
22786W        W94402  12.164  27.731  14.792
22787W        W94403  12.813  37.399   4.047
22788W        W94404   7.407   5.845   3.409
22789W        W94405  38.932  28.656   3.098
22790W        W94406  38.419   3.384  14.507
22791W        W94407  42.726  18.755   0.808
22792W        W94408  24.491  32.403  11.924
22793W        W94409  25.942   5.972  12.597
22794W        W94410   2.342   7.462   2.455
22795W        W94411  14.223   5.309  12.833
22796W        W94412  39.612  11.819  12.832
22797W        W94413  23.251   7.296   1.687
22798W        W94414   5.771  44.946  11.498
22799W        W94415   5.613  39.683  12.056
22800W        W94416  25.662  35.936  11.667
22801W        W94417  28.203  32.678  12.593
22802W        W94418  35.878  26.200   1.761
22803W        W94419  38.144  29.114   4.314
22804W        W94420  12.109  43.902  14.464
22805W        W94421  16.179  24.772   2.823
22806W        W94422  18.141  12.257   3.786
22807W        W94423   1.342  19.339   3.249
22808W        W94424  10.724   6.372   0.912
22809W        W94425  37.484  32.985  12.901
22810W        W94426  20.019  22.525   3.182
22811W        W94427   4.989  29.062   3.620
22812W        W94428  38.129  41.296  11.469
22813W        W94429  39.950  26.469   0.686
22814W        W94430  10.678   0.251   2.780
22815W        W94431  16.914  23.157   4.947
22816W        W94432  28.982  16.353   1.903
22817W        W94433   5.416   5.321  12.070
22818W        W94434  34.659  15.640  10.729
22819W        W94435  23.017   7.941   4.232
22820W        W94436  35.802  43.866   2.915
22821W        W94437  39.297   6.644   3.619
22822W        W94438  39.332  35.340   3.776
22823W        W94439  28.566  20.732   4.394
22824W        W94440  16.508  17.525  14.878
22825W        W94441   0.269  17.305  12.277
22826W        W94442  39.077  34.485   0.370
22827W        W94443  11.357  19.390   1.674
22828W        W94444   0.016  14.950   4.575
22829W        W94445   2.740  34.549   1.806
22830W        W94446  36.450  44.967  10.873
22831W        W94447  31.521  11.212  14.237
22832W        W94448  23.088  31.438  14.402
22833W        W94449  24.051  23.174  11.286
22834W        W94450  10.330  26.462  11.896
22835W        W94451  36.531  20.658   3.222
22836W        W94452  17.276  29.453  12.646
22837W        W94453  40.145   8.605  14.339
22838W        W94454  35.551  14.622  10.668
22839W        W94455   2.448   8.600  11.908
22840W        W94456  39.232   4.750  12.118
22841W        W94457   0.092  19.632  10.381
22842W        W94458  35.656  18.088   2.733
22843W        W94459   9.836  36.087  10.567
22844W        W94460   0.797  41.760   0.990
22845W        W94461  22.647   6.207   2.326
22846W        W94462   0.756  34.459  12.511
22847W        W94463  25.164   8.777  13.618
22848W        W94464  32.174  33.172   3.271
22849W        W94465   8.898  10.173   1.763
22850W        W94466   0.155  34.437  13.528
22851W        W94467  19.247  35.991   1.165
22852W        W94468  18.633  15.669   1.052
22853W        W94469  11.948  19.810   0.913
22854W        W94470  14.144  21.605   0.237
22855W        W94471  20.596  21.258   4.415
22856W        W94472   5.689  30.544   0.404
22857W        W94473  39.978  34.026   0.300
22858W        W94474   5.852  36.835  14.280
22859W        W94475   9.175  10.622  11.524
22860W        W94476   8.165  13.498  12.969
22861W        W94477  44.383  44.362   0.338
22862W        W94478  18.111  44.531  14.969
22863W        W94479  14.537   8.331   2.912
22864W        W94480  23.558  24.512   2.896
22865W        W94481  42.062  30.567   4.089
22866W        W94482  21.334   9.085  13.919
22867W        W94483   1.196  35.446  12.137
22868W        W94484  10.942  23.470   0.840
22869W        W94485  31.192   4.920  13.388
22870W        W94486  31.950  39.698  13.237
22871W        W94487  11.939  25.029   1.324
22872W        W94488  26.942  14.645  11.606
22873W        W94489   3.221  29.843   1.433
22874W        W94490  11.522  15.308   4.231
22875W        W94491  20.668  28.531  12.162
22876W        W94492  26.708   1.290   1.777
22877W        W94493   0.471  30.212  14.090
22878W        W94494  25.049   0.757  12.037
22879W        W94495  27.130  25.036  13.337
22880W        W94496  37.466  36.189   1.791
22881W        W94497  40.312  43.453   0.521
22882W        W94498  13.700   3.873   3.276
22883W        W94499  21.329   8.204   4.959
22884W        W94500  14.768  35.181   4.523
22885W        W94501   2.594  37.796  12.541
22886W        W94502   0.428  30.517  10.887
22887W        W94503   0.973  16.245   2.888
22888W        W94504   8.388  17.886  11.238
22889W        W94505  39.928   2.771   1.667
22890W        W94506  28.651  15.579   5.467
22891W        W94507  25.310  41.297  13.936
22892W        W94508  31.781   8.837   2.630
22893W        W94509   0.103   0.763  12.150
22894W        W94510   1.709  20.521  12.006
22895W        W94511  18.186  18.208   0.867
22896W        W94512  21.307  11.152  12.032
22897W        W94513   6.604   7.828  10.450
22898W        W94514  35.087   7.034   2.276
22899W        W94515  36.167  40.460   0.723
22900W        W94516  13.358   1.977  10.656
22901W        W94517  16.986  42.554   2.218
22902W        W94518  15.255  21.575   4.093
22903W        W94519  15.171   9.352   4.228
22904W        W94520  25.752  25.342   5.149
22905W        W94521  25.225   2.642  11.584
22906W        W94522   8.811  38.279   3.803
22907W        W94523  16.084  26.637  14.204
22908W        W94524   8.649   9.618  12.229
22909W        W94525  41.586  40.580   0.175
22910W        W94526  36.891  27.070  13.541
22911W        W94527  13.367  22.434  12.495
22912W        W94528  39.733  10.253  14.127
22913W        W94529   4.611   1.664  11.524
22914W        W94530   5.734  11.198   0.455
22915W        W94531   7.107  17.269   3.072
22916W        W94532  30.963  40.980   0.315
22917W        W94533  16.740  17.212  10.233
22918W        W94534  13.854  20.719   4.659
22919W        W94535   6.674   4.824   4.230
22920W        W94536  15.086  35.982   2.628
22921W        W94537  13.172  25.745   2.716
22922W        W94538   2.403  30.604  11.128
22923W        W94539   4.629  28.898  11.410
22924W        W94540  31.122  36.229  11.637
22925W        W94541  21.417   9.899  12.991
22926W        W94542   9.203  15.606   1.714
22927W        W94543  39.893  24.957  14.836
22928W        W94544  16.359   9.219  13.842
22929W        W94545  41.967  36.925   2.710
22930W        W94546  27.215   1.109   0.811
22931W        W94547  12.756  22.847  13.871
22932W        W94548  15.563   4.199  13.099
22933W        W94549  19.328   4.742   0.354
22934W        W94550  24.540  20.335   2.776
22935W        W94551  20.241  22.590   0.956
22936W        W94552   4.753   2.294   1.806
22937W        W94553  15.721   8.916  14.381
22938W        W94554  34.572  10.076   4.092
22939W        W94555  33.364  27.969  11.132
22940W        W94556  10.590  30.987  12.639
22941W        W94557  20.258  16.291  11.379
22942W        W94558  18.430  36.739  10.786
22943W        W94559  14.270   4.405  11.511
22944W        W94560   1.343  27.477  13.800
22945W        W94561  28.570  36.096  10.570
22946W        W94562  40.391   2.979   1.823
22947W        W94563   7.332  28.500  12.595
22948W        W94564   4.412  15.446   3.168
22949W        W94565  41.182   5.864   4.180
22950W        W94566  43.865  15.334  14.705
22951W        W94567  19.368  30.974  12.936
22952W        W94568   4.995  12.819  12.521
22953W        W94569   5.382  11.180   2.740
22954W        W94570   5.895  29.228   2.180
22955W        W94571  35.265   8.861  12.758
22956W        W94572  40.030  40.669   3.838
22957W        W94573  14.288   5.580   3.209
22958W        W94574  34.958   7.224  11.537
22959W        W94575  29.590  38.024   2.077
22960W        W94576   6.560  27.637   2.767
22961W        W94577  29.585   5.806   2.676
22962W        W94578  22.126   3.390   1.191
22963W        W94579  35.696  23.613   3.241
22964W        W94580   9.361  27.895  14.974
22965W        W94581  29.455   0.445   4.187
22966W        W94582  30.151  39.513   3.836
22967W        W94583   7.722  38.599   1.738
22968W        W94584  12.695  12.523   4.624
22969W        W94585   0.580  10.654  12.549
22970W        W94586  36.019  27.017   1.342
22971W        W94587  34.557   3.276   2.153
22972W        W94588  40.932  10.663   0.953
22973W        W94589  44.311  32.909  14.072
22974W        W94590   9.751  22.922  12.898
22975W        W94591  22.653  37.347  12.950
22976W        W94592   0.872  16.764   1.415
22977W        W94593  32.463  17.370   1.766
22978W        W94594  42.361  13.630  14.301
22979W        W94595   2.550  35.518   4.597
22980W        W94596  14.730  31.622  10.696
22981W        W94597  36.609   8.819  11.103
22982W        W94598  26.394  39.333   3.714
22983W        W94599  25.885  43.845   0.451
22984W        W94600  35.703   8.561  12.805
22985W        W94601  23.205  38.327  13.429
22986W        W94602  21.168   1.517  12.792
22987W        W94603  17.068   0.829  12.136
22988W        W94604   0.350  28.628  10.930
22989W        W94605   6.589   3.938  11.742
22990W        W94606  26.581  14.389   3.176
22991W        W94607  18.774   6.651   4.589
22992W        W94608  20.563  41.838  12.129
22993W        W94609  26.148  31.421   2.993
22994W        W94610  27.056  21.519   4.274
22995W        W94611  38.866  32.107   1.775
22996W        W94612   4.455  18.828   2.356
22997W        W94613  26.415  38.009   1.336
22998W        W94614  20.522  31.154   2.669
22999W        W94615  30.049   6.306   2.268
23000W        W94616   0.520  16.139   0.254
23001W        W94617  40.692  32.710  12.522
23002W        W94618   7.761  21.990  12.682
23003W        W94619  12.931  13.756  14.017
23004W        W94620  19.281  41.991  11.677
23005W        W94621  13.745   7.654  10.960
23006W        W94622  29.552  26.957  13.044
23007W        W94623  38.119  27.211  12.256
23008W        W94624  22.496  17.653   3.240
23009W        W94625  31.639   2.878   3.191
23010W        W94626  37.419  23.690  14.409
23011W        W94627  20.228  30.017   3.660
23012W        W94628  22.243  36.920   0.310
23013W        W94629  15.219  23.729   3.415
23014W        W94630  17.136  41.901   3.544
23015W        W94631  31.931   3.781   4.712
23016W        W94632  33.642  21.480   2.948
23017W        W94633  32.693  43.677   3.256
23018W        W94634  28.990  15.175   1.438
23019W        W94635  35.786   9.794   2.673
23020W        W94636   3.662   2.082  11.796
23021W        W94637   9.781  32.945   0.669
23022W        W94638  31.603  32.346   1.324
23023W        W94639  39.059   9.396  12.132
23024W        W94640  37.803  33.048   1.217
23025W        W94641   1.812  37.854   2.971
23026W        W94642   5.743  32.379  11.044
23027W        W94643  27.474  16.526  13.397
23028W        W94644   7.986  38.386  11.851
23029W        W94645  28.779  33.511   0.454
23030W        W94646  28.140  29.155  14.869
23031W        W94647  32.639   1.332  10.282
23032W        W94648  43.777  13.969   2.038
23033W        W94649   6.200  30.154  12.664
23034W        W94650   1.883  31.814  11.015
23035W        W94651  29.604  42.482   0.824
23036W        W94652  38.374  35.462   4.455
23037W        W94653  34.761  23.037   2.720
23038W        W94654  34.800  16.617   4.946
23039W        W94655  37.585  33.899   3.764
23040W        W94656  38.534  44.770   1.067
23041W        W94657  16.275  12.048  12.611
23042W        W94658   9.689  22.007   3.270
23043W        W94659  14.113   0.434   4.101
23044W        W94660  21.050  18.098   4.680
23045W        W94661  18.236  12.104  13.374
23046W        W94662  18.652  15.757   2.489
23047W        W94663  23.193  23.755   2.342
23048W        W94664   6.658  35.999   4.020
23049W        W94665  18.126  15.293   2.872
23050W        W94666  18.164  34.085  12.621
23051W        W94667  17.499  11.454  11.442
23052W        W94668   7.763  42.737   1.950
23053W        W94669  20.598  36.303  13.194
23054W        W94670  19.147  39.953   4.708
23055W        W94671   1.952  11.021  11.188
23056W        W94672  20.060  37.096   3.406
23057W        W94673  11.631  26.991   2.451
23058W        W94674  43.278  17.912   0.402
23059W        W94675  39.189   8.759  10.763
23060W        W94676  27.578   6.730   2.907
23061W        W94677  33.531  11.061  12.060
23062W        W94678  29.910  12.117   0.212
23063W        W94679  34.661  35.203   0.141
23064W        W94680  22.777  11.699   4.588
23065W        W94681  28.254   3.471  11.167
23066W        W94682  26.413  10.562  11.115
23067W        W94683  36.639   0.879  11.236
23068W        W94684  27.147  44.386   2.717
23069W        W94685  30.355  40.434   2.481
23070W        W94686  22.056   2.732  14.909
23071W        W94687   0.329  36.926  14.486
23072W        W94688   3.333  20.187   0.418
23073W        W94689  27.170  22.138   2.171
23074W        W94690  33.137  15.040  11.226
23075W        W94691  38.067   5.387  14.774
23076W        W94692   2.382   8.237  13.521
23077W        W94693  19.790  18.361   3.192
23078W        W94694  25.511  25.080   0.377
23079W        W94695   2.635  36.037  12.086
23080W        W94696  12.619   2.224   4.804
23081W        W94697  41.950   9.894   3.607
23082W        W94698  19.548  18.196   3.829
23083W        W94699  11.382  18.674   3.806
23084W        W94700  44.926  20.435  14.282
23085W        W94701  15.074  43.505   2.462
23086W        W94702  41.879  24.459   0.720
23087W        W94703  28.110  23.271  14.477
23088W        W94704  20.809  38.304  11.164
23089W        W94705  41.794  44.005   4.582
23090W        W94706  26.891  35.417  12.624
23091W        W94707  20.849  11.638   1.881
23092W        W94708   1.962  20.118   2.786
23093W        W94709  31.381  23.601  12.854
23094W        W94710  11.553  16.280  11.107
23095W        W94711  11.050  18.660   4.215
23096W        W94712   9.150  34.456  11.180
23097W        W94713   4.444  22.558  14.409
23098W        W94714  22.091   0.542   4.546
23099W        W94715   8.772   7.898  12.041
23100W        W94716  22.481  31.216  12.596
23101W        W94717  36.878   9.914   2.839
23102W        W94718  35.108   1.309  10.254
23103W        W94719  19.003  27.506   0.984
23104W        W94720  36.346  13.250  12.877
23105W        W94721  14.507   2.163   4.966
23106W        W94722  25.142   5.315  11.070
23107W        W94723  42.215   6.171   0.717
23108W        W94724  16.094  41.675  14.432
23109W        W94725  34.567  31.352  12.886
23110W        W94726  39.492  43.790   0.464
23111W        W94727   7.384   0.732   1.417
23112W        W94728  42.842  41.432  14.250
23113W        W94729  21.292   2.941   4.961
23114W        W94730  43.810  11.065  10.510
23115W        W94731   7.246  13.579  13.726
23116W        W94732  36.476  14.694   0.755
23117W        W94733  15.374  16.179   3.357
23118W        W94734   2.272  26.613  10.931
23119W        W94735  36.821  25.330   3.863
23120W        W94736  42.100  23.161  14.798
23121W        W94737  24.465  26.969   3.331
23122W        W94738  40.031  17.490   0.213
23123W        W94739  33.679  13.216   3.146
23124W        W94740   6.538  43.967   0.791
23125W        W94741   5.314   4.384   4.055
23126W        W94742  15.165   3.362  12.813
23127W        W94743   3.797  24.113  13.779
23128W        W94744  26.138  22.690  14.988
23129W        W94745   9.965  21.008   3.195
23130W        W94746   0.969   2.226   2.252
23131W        W94747  40.233   1.939  11.974
23132W        W94748  25.466  21.242   2.482
23133W        W94749  13.858  12.590  10.800
23134W        W94750  19.109   6.862   1.500
23135W        W94751  22.410  16.578   3.592
23136W        W94752  41.958  19.772  12.063
23137W        W94753   4.284  24.688   1.901
23138W        W94754  44.966  43.379  12.484
23139W        W94755  25.532  36.809   0.825
23140W        W94756  34.736   0.927  13.981
23141W        W94757  16.008  11.201  11.922
23142W        W94758   9.837  34.385  10.545
23143W        W94759  12.253  21.568  11.668
23144W        W94760   0.321  32.220   0.749
23145W        W94761  11.774   2.119   5.097
23146W        W94762  33.601  30.732   4.505
23147W        W94763  28.140  17.641   4.757
23148W        W94764   1.301   7.607   3.644
23149W        W94765  14.655  23.285   0.694
23150W        W94766  17.304  16.425   9.703
23151W        W94767  26.783  36.770  11.067
23152W        W94768  42.860   4.754  11.109
23153W        W94769  27.647  28.960   4.346
23154W        W94770  29.095  14.718   0.698
23155W        W94771   7.750  22.796   4.574
23156W        W94772  30.020  22.684  12.514
23157W        W94773  39.211  16.875   2.246
23158W        W94774  10.168  17.469  12.071
23159W        W94775  22.676   6.820  11.203
23160W        W94776  31.495  22.763   3.363
23161W        W94777  32.107  37.415   0.726
23162W        W94778  22.371  24.313   0.738
23163W        W94779   0.172  10.429  12.212
23164W        W94780  20.615  23.040   3.789
23165W        W94781  32.160  33.420   2.790
23166W        W94782  41.782  34.682   2.666
23167W        W94783  33.619   1.038  12.530
23168W        W94784  43.426  14.418   2.216
23169W        W94785  21.088  24.975  12.310
23170W        W94786  27.073  26.891  14.225
23171W        W94787  27.050  33.025   4.683
23172W        W94788  41.084  15.655   4.971
23173W        W94789  42.825  31.539  13.994
23174W        W94790  11.319   2.900   2.812
23175W        W94791  33.645  37.506  14.631
23176W        W94792  38.955   9.268   1.790
23177W        W94793  27.239  23.985   2.086
23178W        W94794   0.248   2.370  14.840
23179W        W94795   7.178   9.597  12.431
23180W        W94796   5.044  40.632   5.075
23181W        W94797   7.110   1.224   4.072
23182W        W94798   8.277  36.307  13.459
23183W        W94799  15.586  10.296  11.552
23184W        W94800  18.291  42.968  13.463
23185W        W94801  28.529  15.245   2.222
23186W        W94802   9.073  17.310  10.778
23187W        W94803  28.682  10.308  10.622
23188W        W94804  17.634  43.233  14.719
23189W        W94805   0.919   2.827   4.114
23190W        W94806  13.400  43.010   2.770
23191W        W94807  17.917   8.874  13.107
23192W        W94808   2.934  23.599   2.648
23193W        W94809  33.913  23.970   4.036
23194W        W94810  10.895  18.608   3.647
23195W        W94811  19.712  17.901  14.205
23196W        W94812  18.738   0.251   0.700
23197W        W94813  43.489  28.079  14.521
23198W        W94814   1.272  44.952   5.441
23199W        W94815  27.691  44.822   1.360
23200W        W94816   3.016  28.440   1.255
23201W        W94817  21.008  38.809   1.412
23202W        W94818  31.739  43.054  10.068
23203W        W94819  31.425  26.622   3.947
23204W        W94820  12.220  12.172  11.142
23205W        W94821   7.830  33.268   3.278
23206W        W94822  20.595  36.059  14.559
23207W        W94823   9.793  21.556   1.895
23208W        W94824  41.603  34.495   0.561
23209W        W94825   8.655  15.090   0.325
23210W        W94826  40.080  13.498   1.363
23211W        W94827  23.021   2.064   0.269
23212W        W94828  19.750  40.472  14.276
23213W        W94829  25.152  24.091   0.438
23214W        W94830   6.102  21.138  13.129
23215W        W94831  38.885  23.115  11.417
23216W        W94832   9.859  31.079   0.927
23217W        W94833   0.824  13.364   0.864
23218W        W94834  27.464  38.488   1.877
23219W        W94835  16.644   1.431  13.118
23220W        W94836  20.800  26.124  12.084
23221W        W94837  30.530  12.427  14.964
23222W        W94838   8.301  32.155  12.092
23223W        W94839  44.977   8.120   2.906
23224W        W94840  39.729   8.197  14.873
23225W        W94841   3.662  37.481   4.619
23226W        W94842  30.570  10.828  13.396
23227W        W94843   9.314  36.484  11.939
23228W        W94844  21.490  14.856   1.946
23229W        W94845  15.468   8.475  14.155
23230W        W94846  38.544  17.602   3.551
23231W        W94847  23.585  44.383   1.893
23232W        W94848  12.871  37.428  11.588
23233W        W94849  36.075  23.109  14.079
23234W        W94850  37.732   4.568  12.187
23235W        W94851   6.661  29.514   0.749
23236W        W94852  27.182  36.584  13.863
23237W        W94853  19.690  26.992  10.928
23238W        W94854  28.017  43.515  11.184
23239W        W94855   5.334  24.122  10.596
23240W        W94856  20.859   6.215   0.261
23241W        W94857  35.768   9.363  11.022
23242W        W94858   2.979  12.999  12.311
23243W        W94859  42.813   7.760   0.747
23244W        W94860  11.741  17.477  10.477
23245W        W94861  10.061  14.802   0.251
23246W        W94862  15.356  25.068   1.322
23247W        W94863  33.615   4.886   4.525
23248W        W94864  41.433  38.011   0.752
23249W        W94865   7.906  16.116  11.418
23250W        W94866  10.340  27.684  10.721
23251W        W94867   3.274  38.035   2.645
23252W        W94868  30.591  35.456   4.290
23253W        W94869  35.908  21.364   3.630
23254W        W94870  25.124  11.123  11.476
23255W        W94871  43.970  15.179  12.631
23256W        W94872  29.495  41.129  10.899
23257W        W94873  27.207  11.736   3.174
23258W        W94874  17.071   9.638   1.154
23259W        W94875  17.805  41.662   5.183
23260W        W94876  22.041  25.216  14.446
23261W        W94877  18.601   5.967   1.713
23262W        W94878  22.475  44.850   2.840
23263W        W94879  44.286  29.120   3.722
23264W        W94880  36.011  42.324   0.855
23265W        W94881  23.582   0.459   3.000
23266W        W94882   5.219  10.823  13.462
23267W        W94883  38.316  10.661   3.277
23268W        W94884  27.713  10.646  13.710
23269W        W94885  42.683  24.997  13.001
23270W        W94886  23.669  32.967   1.145
23271W        W94887  41.933  37.846   5.052
23272W        W94888  37.630  33.886  13.509
23273W        W94889   4.965  44.588  14.655
23274W        W94890   6.673  20.932  11.507
23275W        W94891  16.010  19.012   4.636
23276W        W94892  22.141   7.007   3.716
23277W        W94893   5.236  13.724   3.595
23278W        W94894   6.800  37.649   1.330
23279W        W94895  44.699  30.395  12.523
23280W        W94896  27.103  42.388  14.477
23281W        W94897  43.785   6.797  13.873
23282W        W94898  37.056   6.085   2.067
23283W        W94899  39.018  16.244   3.779
23284W        W94900  39.766   8.619   0.869
23285W        W94901   5.479   5.669  12.968
23286W        W94902  42.328   2.473   3.727
23287W        W94903  34.987  30.102   0.558
23288W        W94904  20.947  38.536   1.892
23289W        W94905  16.755  40.081   3.856
23290W        W94906  37.073  31.460   0.278
23291W        W94907  27.171  44.248  10.179
23292W        W94908   2.055   1.198  13.578
23293W        W94909  33.083  25.293  13.093
23294W        W94910  10.423   9.637  10.314
23295W        W94911  25.641  25.647  12.612
23296W        W94912   3.175  18.853   0.021
23297W        W94913  14.204  24.429   1.283
23298W        W94914  23.726  25.672   3.276
23299W        W94915  10.775  43.115   0.419
23300W        W94916  28.524  16.775  10.918
23301W        W94917   6.313  18.656   2.712
23302W        W94918   5.744  34.527   0.859
23303W        W94919  31.071  44.499   3.877
23304W        W94920  11.165   5.687   3.956
23305W        W94921   4.399  11.847   4.007
23306W        W94922  41.380  19.088  14.295
23307W        W94923   3.915  24.476   0.254
23308W        W94924  34.056  28.818   4.719
23309W        W94925  35.490  16.138  13.882
23310W        W94926  24.499   1.987   3.791
23311W        W94927  13.364  28.290  10.089
23312W        W94928  21.037  31.205   5.048
23313W        W94929  32.672  17.115  13.214
23314W        W94930  22.194  34.338  11.216
23315W        W94931  40.106  22.981   3.632
23316W        W94932  38.990  42.093  12.662
23317W        W94933   2.022  16.609  11.216
23318W        W94934  36.071  33.954  14.663
23319W        W94935  35.016   2.483  12.391
23320W        W94936  41.574  35.394   3.337
23321W        W94937  26.600  37.247   2.707
23322W        W94938  14.068   1.309   3.616
23323W        W94939  24.041  21.700  11.920
23324W        W94940  27.819  24.202  12.056
23325W        W94941  31.761  40.846   0.087
23326W        W94942  30.889  39.117  13.877
23327W        W94943  24.415  22.085   4.967
23328W        W94944  28.463  26.000   2.634
23329W        W94945  14.611  24.954   1.935
23330W        W94946  19.246  18.729  13.996
23331W        W94947  20.696  33.423  12.537
23332W        W94948  25.545   4.724   1.311
23333W        W94949  40.155  28.481   1.837
23334W        W94950  14.284  23.857  12.494
23335W        W94951  43.601  36.055   3.809
23336W        W94952  28.134  29.060   4.506
23337W        W94953   0.869  36.988  14.301
23338W        W94954  41.872  22.475  13.801
23339W        W94955   5.316  44.054   0.079
23340W        W94956   7.135  43.988   3.623
23341W        W94957  43.285   4.962  12.857
23342W        W94958  30.023  34.056  12.090
23343W        W94959  18.787  30.482  14.365
23344W        W94960  24.079  35.025   0.881
23345W        W94961  11.838  24.012   3.992
23346W        W94962  16.705  17.840   3.776
23347W        W94963  44.952  24.611  13.969
23348W        W94964   9.501   3.814  14.137
23349W        W94965  20.580  28.529   4.627
23350W        W94966   0.532  24.809   3.271
23351W        W94967  11.874  15.133   2.033
23352W        W94968  12.039  12.496   1.910
23353W        W94969   5.891  13.263   3.220
23354W        W94970  12.664  44.836   1.304
23355W        W94971   3.145   4.209  11.185
23356W        W94972  18.952  13.605   0.507
23357W        W94973  13.217  11.404  12.817
23358W        W94974   2.483   3.370   4.954
23359W        W94975  40.904  39.537  14.469
23360W        W94976  42.969  44.543   0.845
23361W        W94977   5.368  11.894  14.990
23362W        W94978  38.103  39.574   0.374
23363W        W94979  43.170  38.625  10.399
23364W        W94980  17.877  18.289  13.509
23365W        W94981  11.084  27.236  14.487
23366W        W94982  10.758  15.484  14.712
23367W        W94983  11.792  12.875  13.948
23368W        W94984  18.954  26.056  14.868
23369W        W94985  36.445  16.208   0.406
23370W        W94986  37.407  37.082  13.931
23371W        W94987  36.796   8.754   4.533
23372W        W94988  14.459   9.309   3.278
23373W        W94989   2.400   5.384   2.310
23374W        W94990   4.873   4.329   1.262
23375W        W94991  19.483  32.992   1.872
23376W        W94992   9.894   6.340  14.713
23377W        W94993  15.500  34.971  14.033
23378W        W94994  31.832  16.986   1.305
23379W        W94995   7.005  39.336  11.978
23380W        W94996  38.551  30.023  11.626
23381W        W94997  29.448  27.135  12.565
23382W        W94998   7.130  39.812   1.845
23383W        W94999   3.768  43.677   3.778
23384W        W95000  37.148  32.490  11.582
23385W        W95001  42.527  37.514  11.151
23386W        W95002   5.808   7.246   3.424
23387W        W95003  25.696  40.596   4.062
23388W        W95004  22.758  33.423   1.457
23389W        W95005  25.204  36.428  13.603
23390W        W95006  19.728  35.555  10.411
23391W        W95007  16.178  32.691   3.184
23392W        W95008   1.529  14.197  14.869
23393W        W95009  38.505  20.495  13.448
23394W        W95010  40.930  34.343   1.098
23395W        W95011   4.844  32.004  13.097
23396W        W95012  33.364  32.974  12.845
23397W        W95013  28.244   4.277  12.514
23398W        W95014  43.244   4.950  14.835
23399W        W95015  20.739  24.694   4.696
23400W        W95016  28.706   5.856   1.109
23401W        W95017  16.336   1.489   0.770
23402W        W95018  31.043  27.345   4.633
23403W        W95019   1.392  17.655   0.257
23404W        W95020  25.989  20.732   0.824
23405W        W95021  13.069   0.486   1.688
23406W        W95022   6.784  38.876  13.449
23407W        W95023  31.425  23.524  11.604
23408W        W95024  34.690  39.921   4.254
23409W        W95025  21.997  14.018   3.266
23410W        W95026   8.657  14.696   3.606
23411W        W95027  29.951   9.167   3.626
23412W        W95028  18.168  29.221   4.349
23413W        W95029   0.144  26.461  11.124
23414W        W95030  21.171  31.882   1.816
23415W        W95031   9.165  15.155   0.445
23416W        W95032  27.576   7.148  11.474
23417W        W95033  25.692   0.301   0.259
23418W        W95034  35.767   1.513  10.617
23419W        W95035  19.844  30.919   0.513
23420W        W95036  25.978  43.976  12.475
23421W        W95037  41.814  26.369   3.491
23422W        W95038   0.359  39.600   1.719
23423W        W95039   6.132  44.279   1.955
23424W        W95040  21.853  22.559  10.246
23425W        W95041  20.230   1.355   2.978
23426W        W95042  15.963  30.866   0.388
23427W        W95043  29.927  33.633  14.236
23428W        W95044  38.799  23.333  13.323
23429W        W95045  23.548  27.570  11.380
23430W        W95046  11.191  41.287  12.473
23431W        W95047  39.399  16.599   4.120
23432W        W95048  28.625   7.359   1.868
23433W        W95049  30.705  20.377   0.308
23434W        W95050  29.926   5.242  12.000
23435W        W95051  36.984  41.821  13.500
23436W        W95052   2.508  21.587  11.591
23437W        W95053  10.643   0.732   0.776
23438W        W95054  28.653  10.390   4.142
23439W        W95055  20.957   4.744  12.093
23440W        W95056   5.612  29.666  10.921
23441W        W95057   2.375  42.987  11.730
23442W        W95058  17.673   7.610   3.525
23443W        W95059  30.195  19.993   0.213
23444W        W95060  19.583  30.532   0.330
23445W        W95061  11.937  41.893   3.379
23446W        W95062  24.427  37.799   0.419
23447W        W95063  30.593  31.171  10.528
23448W        W95064  15.724  25.009   2.888
23449W        W95065  15.492  15.861  10.711
23450W        W95066   6.085  14.509  11.100
23451W        W95067  17.763  23.438   1.440
23452W        W95068   6.868   0.206   4.319
23453W        W95069  29.258  38.752  11.583
23454W        W95070  11.887   8.876  10.421
23455W        W95071   6.443  32.854   0.220
23456W        W95072  37.325  15.304   3.718
23457W        W95073  35.088  22.188   2.707
23458W        W95074  21.636   7.379   3.733
23459W        W95075  18.090  12.629   3.153
23460W        W95076   3.869  29.087   3.616
23461W        W95077  20.755  10.341   4.617
23462W        W95078  41.311  20.822   1.679
23463W        W95079  11.376  37.545   3.813
23464W        W95080  21.348  30.487  12.432
23465W        W95081  43.800  13.919  11.657
23466W        W95082  44.015  27.018   0.179
23467W        W95083  16.980  23.778   1.620
23468W        W95084  28.944   6.645  13.431
23469W        W95085  12.301  30.389   0.351
23470W        W95086  10.833  39.881  13.281
23471W        W95087  31.610   6.375  11.076
23472W        W95088  36.321  43.870   2.829
23473W        W95089  21.240  28.481   0.930
23474W        W95090   1.044   8.430  10.495
23475W        W95091  13.879   3.671   2.818
23476W        W95092  11.621  20.307  12.651
23477W        W95093  36.133  14.199   2.373
23478W        W95094  23.211   3.716  12.082
23479W        W95095  42.458  29.471  12.681
23480W        W95096   5.012  26.062   3.746
23481W        W95097   0.886   5.829  12.834
23482W        W95098  21.057  43.226   3.187
23483W        W95099  31.503  11.888   0.890
23484W        W95100  21.208  10.603   4.594
23485W        W95101   3.916  17.309   4.667
23486W        W95102  34.525   0.177  10.282
23487W        W95103  14.705  41.332  11.500
23488W        W95104  37.155   4.775  13.474
23489W        W95105  29.017  17.258  12.830
23490W        W95106  15.311   2.761   3.939
23491W        W95107  43.463  33.517   4.009
23492W        W95108  38.762  38.189   3.591
23493W        W95109  41.544  29.186  12.433
23494W        W95110   8.013  33.854   0.521
23495W        W95111  10.364  29.424  14.041
23496W        W95112  16.340  16.086   4.197
23497W        W95113  36.862  40.823  10.823
23498W        W95114  41.801  13.620  13.003
23499W        W95115   7.894  31.979   0.384
23500W        W95116  29.798  19.279  13.425
23501W        W95117  21.613  31.658  13.988
23502W        W95118  12.410  43.176   0.771
23503W        W95119   4.760   9.835  12.213
23504W        W95120  44.599  35.793   3.595
23505W        W95121  30.325  33.127  11.786
23506W        W95122  17.101  15.775   1.501
23507W        W95123  36.592   7.823   0.431
23508W        W95124  31.106  32.590  14.493
23509W        W95125   0.277  18.218   2.768
23510W        W95126  30.359  26.595  11.974
23511W        W95127  11.915   9.695   4.589
23512W        W95128  44.485   0.459   5.053
23513W        W95129  44.692  27.016  10.393
23514W        W95130   6.316  10.977   4.260
23515W        W95131  16.832  39.010   4.235
23516W        W95132  13.905  32.458   2.215
23517W        W95133   2.302  43.712  13.390
23518W        W95134  20.065  10.140  13.754
23519W        W95135  40.725  25.244  14.269
23520W        W95136   2.162  43.612   4.991
23521W        W95137  42.356  35.892   5.169
23522W        W95138  37.797  19.717  12.086
23523W        W95139  26.568  40.165   4.363
23524W        W95140   4.919  42.353   0.479
23525W        W95141  40.963  37.374  10.316
23526W        W95142  17.587  26.128  11.786
23527W        W95143  36.477   2.265   4.074
23528W        W95144  29.211  39.435   2.411
23529W        W95145  43.874  16.761  10.573
23530W        W95146  10.183   5.795   0.292
23531W        W95147  10.144  34.637  14.357
23532W        W95148  41.811   6.174  12.150
23533W        W95149  38.912  28.836   4.056
23534W        W95150   5.646  38.085   4.547
23535W        W95151  35.457  15.766   1.312
23536W        W95152   0.106  13.193   0.520
23537W        W95153  30.905   7.870  13.879
23538W        W95154  15.142  13.512   0.219
23539W        W95155  39.873  44.172   3.403
23540W        W95156  11.331  38.948   2.750
23541W        W95157   5.709  29.131   2.651
23542W        W95158  20.816  10.108   1.869
23543W        W95159   9.798   8.056   2.858
23544W        W95160  43.092   4.343  12.554
23545W        W95161  16.216  12.060   1.346
23546W        W95162  30.103  43.993   2.093
23547W        W95163  37.866  23.082   0.327
23548W        W95164  43.667  44.283  11.493
23549W        W95165  40.008  31.030  12.940
23550W        W95166  21.923  37.313  11.594
23551W        W95167  11.226  37.619   1.433
23552W        W95168  18.902  42.993   1.865
23553W        W95169  14.777  38.488  12.496
23554W        W95170  15.156  16.620   2.689
23555W        W95171   3.998   4.353  11.532
23556W        W95172  19.687  31.666   0.803
23557W        W95173  34.476  28.534   4.597
23558W        W95174  12.598  43.295  11.127
23559W        W95175  37.420   0.534  14.791
23560W        W95176  16.274  11.767   1.962
23561W        W95177  41.947  35.801   2.416
23562W        W95178  41.592  44.447  11.974
23563W        W95179  41.856   7.167  10.611
23564W        W95180  13.321  25.567  14.692
23565W        W95181  23.687  12.764  13.356
23566W        W95182   9.628  18.327   1.457
23567W        W95183   8.289  10.618  14.912
23568W        W95184  36.401  20.739   2.282
23569W        W95185  34.964  30.934   4.570
23570W        W95186   8.720  16.307  10.719
23571W        W95187  30.926   3.273  14.384
23572W        W95188  28.207  37.879  11.662
23573W        W95189  38.320  13.416   1.512
23574W        W95190  44.272  16.079   4.209
23575W        W95191  36.984  10.734  10.523
23576W        W95192  10.369  40.802  14.602
23577W        W95193  37.997  17.770  10.768
23578W        W95194  39.792  18.045  11.097
23579W        W95195  19.778  26.576   1.776
23580W        W95196   9.915   2.525   0.310
23581W        W95197  27.382  43.493  14.576
23582W        W95198  14.340   9.980  12.089
23583W        W95199  33.130  41.828   2.615
23584W        W95200  37.376  18.568   0.185
23585W        W95201  36.439  40.007  13.483
23586W        W95202  26.673  26.999   3.671
23587W        W95203  34.070  27.936   1.113
23588W        W95204  35.012  19.736  13.442
23589W        W95205  31.924   9.180  13.841
23590W        W95206  38.945  36.515  10.088
23591W        W95207  16.746  33.942   4.515
23592W        W95208   6.788   2.443  11.616
23593W        W95209  36.418  10.930   3.232
23594W        W95210   6.287  29.161   4.661
23595W        W95211  30.189  31.568  13.114
23596W        W95212  25.854  44.798   3.137
23597W        W95213   7.314  17.721  12.653
23598W        W95214   5.365  17.311  14.888
23599W        W95215   7.328   6.909  11.956
23600W        W95216   1.906  27.695  12.995
23601W        W95217  17.723  32.850   0.743
23602W        W95218   6.638  37.874   2.637
23603W        W95219   6.695   4.892  10.965
23604W        W95220  20.270  11.279  14.879
23605W        W95221  32.128  42.834  12.821
23606W        W95222   6.179   2.394   4.779
23607W        W95223  30.474   6.562  11.473
23608W        W95224  29.864  25.435  11.132
23609W        W95225   2.952  15.677   0.872
23610W        W95226  37.072   5.645  12.604
23611W        W95227   2.357  29.155  11.105
23612W        W95228  42.784   4.031   3.461
23613W        W95229  43.912  37.383   1.724
23614W        W95230   9.410  42.809   2.295
23615W        W95231   3.051  17.133  11.587
23616W        W95232  10.410  10.724   2.220
23617W        W95233  36.577  13.189  14.904
23618W        W95234   4.284   5.249  13.167
23619W        W95235  21.587   3.507   0.482
23620W        W95236  13.645  34.078   0.657
23621W        W95237  32.933  15.042   2.361
23622W        W95238  13.357   5.496   2.833
23623W        W95239   1.298   9.162  11.653
23624W        W95240  16.595  28.536  13.146
23625W        W95241  19.008  36.587  10.756
23626W        W95242  39.448   9.295  14.504
23627W        W95243  10.538   2.759   1.002
23628W        W95244   6.974   8.412  11.968
23629W        W95245  11.872  41.028  11.179
23630W        W95246  16.055  33.044   2.782
23631W        W95247  21.713  18.642   4.115
23632W        W95248  35.117  39.722   4.494
23633W        W95249   4.186  25.037  11.310
23634W        W95250   4.308  33.321  11.465
23635W        W95251  26.086  42.445  10.816
23636W        W95252  22.709  40.757   0.338
23637W        W95253  18.049   7.632  13.284
23638W        W95254  16.758  14.433  11.862
23639W        W95255   4.880  28.917   1.219
23640W        W95256  15.780  31.544  12.449
23641W        W95257  40.052  26.827  12.144
23642W        W95258   9.925  22.151   4.613
23643W        W95259  40.993  18.082   3.816
23644W        W95260   9.024  37.375   1.222
23645W        W95261   6.435   5.916  12.353
23646W        W95262  34.378  24.149   1.745
23647W        W95263   3.786  21.752  12.914
23648W        W95264   9.319  13.825   2.146
23649W        W95265   0.737   7.465   1.794
23650W        W95266  16.146   7.727  10.822
23651W        W95267  40.435  39.625   2.323
23652W        W95268  39.586  35.098   2.759
23653W        W95269  17.296  24.012  14.865
23654W        W95270  34.404  35.385   1.486
23655W        W95271  15.988  26.393  12.423
23656W        W95272  35.416  16.729   2.197
23657W        W95273  42.806  38.088   2.170
23658W        W95274  16.740   5.941  12.049
23659W        W95275  38.362  13.619  12.592
23660W        W95276  10.902  11.678  13.850
23661W        W95277  26.482  21.054   0.272
23662W        W95278  15.756  23.559  13.854
23663W        W95279   2.871   6.165   4.709
23664W        W95280  42.272  31.470   3.752
23665W        W95281   7.832  14.705   4.939
23666W        W95282  23.152  32.381  14.479
23667W        W95283  18.870   1.837   4.524
23668W        W95284  42.285  29.426   4.553
23669W        W95285  34.625  41.764  13.287
23670W        W95286  11.316  12.422   2.261
23671W        W95287  26.579  25.980   1.284
23672W        W95288   0.896  38.055   5.124
23673W        W95289  32.291  38.079   2.907
23674W        W95290  23.350  21.825   3.452
23675W        W95291  26.960   0.348  12.971
23676W        W95292  36.207  20.558   0.632
23677W        W95293  13.533  35.794   2.985
23678W        W95294  19.798  43.379  12.593
23679W        W95295  33.909   1.699  11.979
23680W        W95296  22.981  24.212   2.322
23681W        W95297  40.313  12.163  14.428
23682W        W95298   0.436  40.783  13.915
23683W        W95299  42.898  26.443  11.887
23684W        W95300  16.281  17.041   1.323
23685W        W95301  28.438  24.377  14.419
23686W        W95302  34.595  24.295   1.283
23687W        W95303   6.713  26.432  12.872
23688W        W95304  42.847  40.399  10.716
23689W        W95305  40.867  24.616   1.294
23690W        W95306  40.456  22.271  14.542
23691W        W95307  42.333  35.058   1.851
23692W        W95308   1.422  42.977  13.820
23693W        W95309  35.903   5.837  13.251
23694W        W95310  14.510  19.122   3.168
23695W        W95311   9.249  33.383   3.129
23696W        W95312  17.030  29.652   3.696
23697W        W95313  26.350  28.276   4.116
23698W        W95314  29.593  25.172   2.371
23699W        W95315  14.133  11.502   2.805
23700W        W95316   0.444  27.568   3.751
23701W        W95317  41.435  25.141   2.865
23702W        W95318  37.974  40.259   1.843
23703W        W95319  24.003  17.085  14.324
23704W        W95320  13.313   8.124   2.328
23705W        W95321  16.151  24.077  12.017
23706W        W95322   0.261  14.063  14.436
23707W        W95323   3.809  20.056   2.268
23708W        W95324   1.014   6.495  11.102
23709W        W95325  13.874  10.689   1.837
23710W        W95326  13.201   3.300  10.206
23711W        W95327  44.738   1.841   4.178
23712W        W95328  33.024  21.538   3.167
23713W        W95329  33.694  13.791   4.053
23714W        W95330  11.250  18.220   3.422
23715W        W95331  10.357  27.025  14.644
23716W        W95332  36.419   7.228  11.558
23717W        W95333  34.809  28.109   2.680
23718W        W95334   8.929   6.341  11.765
23719W        W95335   3.939  34.967   1.914
23720W        W95336   8.155  12.682  14.743
23721W        W95337  10.037  26.711   1.617
23722W        W95338  25.934   5.276   0.153
23723W        W95339   6.883  19.826   3.729
23724W        W95340   0.756  20.501   2.637
23725W        W95341  23.724  42.939   4.565
23726W        W95342   0.221  13.478  11.443
23727W        W95343  43.358  39.833   0.447
23728W        W95344  15.235  40.339   3.258
23729W        W95345  34.027  20.104  12.037
23730W        W95346  38.344  38.483  13.019
23731W        W95347  39.794  24.730  12.068
23732W        W95348  39.367  34.564  13.409
23733W        W95349   4.677  28.897  14.011
23734W        W95350  13.193  21.888  10.659
23735W        W95351  22.617  21.030   3.301
23736W        W95352  24.110  23.600   3.318
23737W        W95353  44.391   1.469   4.342
23738W        W95354   5.690  24.064   0.268
23739W        W95355  12.813  20.821  13.823
23740W        W95356  39.988   7.349  12.872
23741W        W95357  32.794   1.670  10.649
23742W        W95358  15.680  38.070   1.335
23743W        W95359  33.122  16.022   0.688
23744W        W95360  11.230   9.439  12.317
23745W        W95361   2.396  10.819  14.443
23746W        W95362  27.358   7.341  11.054
23747W        W95363   2.653  13.158   1.799
23748W        W95364  27.699  23.246  10.919
23749W        W95365  14.315  10.406   1.927
23750W        W95366  39.999  42.941  10.499
23751W        W95367  38.791   8.270   2.352
23752W        W95368   0.272  24.216   9.995
23753W        W95369  11.902  39.565  12.968
23754W        W95370  30.131  28.759  12.032
23755W        W95371  30.238   6.846   3.715
23756W        W95372  29.947   1.530   4.210
23757W        W95373  31.906  35.651   1.364
23758W        W95374  36.397  26.687  10.649
23759W        W95375  21.705   0.436  13.205
23760W        W95376   1.955  32.435  11.567
23761W        W95377  12.093  18.294   3.697
23762W        W95378  19.598  35.990  10.652
23763W        W95379  40.507   3.989   1.959
23764W        W95380  40.942  24.582  10.924
23765W        W95381  32.189  29.527  13.554
23766W        W95382   1.454  18.498  14.368
23767W        W95383  12.759  38.944  11.212
23768W        W95384  30.796  17.063  14.401
23769W        W95385  31.086  24.706   0.848
23770W        W95386  29.084  20.433   3.707
23771W        W95387  35.291  36.304   5.149
23772W        W95388  30.645   4.992   2.871
23773W        W95389   8.810  38.632  14.358
23774W        W95390  42.098  43.989   0.163
23775W        W95391   3.280  16.655   0.500
23776W        W95392  16.740  10.154   0.302
23777W        W95393   1.671  23.218   0.414
23778W        W95394   7.609  22.294  14.037
23779W        W95395  25.208  41.309  14.830
23780W        W95396  28.908   0.310   1.845
23781W        W95397   3.223  20.196  13.497
23782W        W95398   2.493  14.247  12.638
23783W        W95399  37.532  14.218   2.446
23784W        W95400   9.632  12.771   4.511
23785W        W95401  15.438  12.555  11.558
23786W        W95402   7.818  31.867  13.355
23787W        W95403  31.597   7.669   1.827
23788W        W95404  33.481  23.541   4.077
23789W        W95405  32.390  30.399  12.587
23790W        W95406  23.930  25.225   4.133
23791W        W95407  28.660  32.636  13.448
23792W        W95408  31.873  33.600   4.145
23793W        W95409  11.702  14.635   3.366
23794W        W95410   3.298  25.711   0.677
23795W        W95411  32.475   9.928  14.028
23796W        W95412  14.787  15.822   4.135
23797W        W95413  20.575  35.431   2.360
23798W        W95414  44.259  24.453   3.216
23799W        W95415  13.386  39.908   3.657
23800W        W95416  43.463  15.347  10.314
23801W        W95417  12.912  30.151   4.826
23802W        W95418   2.788  32.025   4.234
23803W        W95419  21.957  11.744  10.585
23804W        W95420   8.744  35.449  13.621
23805W        W95421  25.737  22.880  11.596
23806W        W95422  18.923  16.305  13.440
23807W        W95423  28.369  15.165   3.134
23808W        W95424   3.379  30.456  11.516
23809W        W95425   3.386   2.026   2.790
23810W        W95426  20.123  29.067   0.786
23811W        W95427  33.011  30.390  12.182
23812W        W95428  10.591  19.715  12.433
23813W        W95429   9.645   3.409  11.655
23814W        W95430   1.803  20.006   0.371
23815W        W95431  40.337  40.312   1.211
23816W        W95432  20.786  24.172   4.685
23817W        W95433  12.188  22.087   1.509
23818W        W95434  35.916  12.815   4.148
23819W        W95435   6.155  17.771  10.677
23820W        W95436  42.820   6.899  12.576
23821W        W95437  25.039  42.164  12.622
23822W        W95438  28.636  29.632  14.320
23823W        W95439   5.585  27.522  14.908
23824W        W95440  43.912  24.227   0.718
23825W        W95441   2.698  15.690   1.888
23826W        W95442   2.734  27.121   1.526
23827W        W95443  21.244  29.725  11.310
23828W        W95444  43.432  15.250  12.809
23829W        W95445  28.484  35.112   0.937
23830W        W95446  16.750  19.012   1.961
23831W        W95447   0.740  24.691   2.449
23832W        W95448  13.739  13.843   0.434
23833W        W95449  18.891   3.315  10.599
23834W        W95450  26.609  11.364  10.676
23835W        W95451   1.871  34.529  13.995
23836W        W95452  38.243  35.804  13.243
23837W        W95453  38.910  22.681   4.667
23838W        W95454  21.793  17.660  14.797
23839W        W95455  38.866  18.780   1.734
23840W        W95456  19.167  29.287  10.516
23841W        W95457   9.275  21.953   0.428
23842W        W95458   4.876   0.370  10.629
23843W        W95459  12.872  38.918   0.815
23844W        W95460  36.878   0.901  13.641
23845W        W95461  22.072  36.976   3.188
23846W        W95462  25.977  21.026   0.373
23847W        W95463   2.727  20.583   2.043
23848W        W95464   8.584  25.024   3.187
23849W        W95465  17.681  26.247   0.364
23850W        W95466  13.252  26.003   1.200
23851W        W95467  29.455  22.970   2.172
23852W        W95468  22.186  39.673  14.230
23853W        W95469  36.424  36.319  12.645
23854W        W95470  40.343  42.430  11.571
23855W        W95471  32.712   3.291  11.171
23856W        W95472  18.243  38.592  12.349
23857W        W95473  32.069  36.228   4.172
23858W        W95474   8.835  11.824   3.248
23859W        W95475  39.084  42.800  14.854
23860W        W95476  15.201  23.629  10.391
23861W        W95477  37.159  25.162   2.406
23862W        W95478  24.185  44.827  13.851
23863W        W95479  16.501  18.785   4.620
23864W        W95480   3.407  20.271   1.465
23865W        W95481  37.464  14.230  13.924
23866W        W95482  35.223  41.924  11.549
23867W        W95483  38.040  22.100  13.323
23868W        W95484  31.359  14.013  12.908
23869W        W95485   6.657  22.812   3.307
23870W        W95486   8.331  16.031   2.215
23871W        W95487  18.687  32.411  13.381
23872W        W95488  10.591  25.614  12.200
23873W        W95489  36.351   6.176  11.633
23874W        W95490  30.182  36.167  12.484
23875W        W95491  33.360  18.550  12.406
23876W        W95492  32.594  29.158  14.511
23877W        W95493  20.811  32.239   2.794
23878W        W95494  15.521   9.329   2.352
23879W        W95495   6.183  32.091   5.226
23880W        W95496  37.572  32.459  10.798
23881W        W95497   8.333  16.331  12.410
23882W        W95498   3.855   7.676   4.364
23883W        W95499  41.553  41.930  10.793
23884W        W95500  17.176  36.627  11.487
23885W        W95501   4.272  44.761  12.797
23886W        W95502  37.033   2.920  14.469
23887W        W95503  15.727  24.179  10.629
23888W        W95504   3.843  13.401   3.706
23889W        W95505   2.271  44.442  14.350
23890W        W95506  39.950  38.148  14.342
23891W        W95507  41.747  33.387  13.338
23892W        W95508  15.769   0.679  13.819
23893W        W95509  29.944  26.000  12.296
23894W        W95510   1.379  42.824  10.083
23895W        W95511  27.216  16.639   4.668
23896W        W95512  32.751  34.313  10.624
23897W        W95513  39.297  13.174   1.870
23898W        W95514  11.205   7.891   4.486
23899W        W95515  20.039  25.428   2.833
23900W        W95516   9.991  24.345  13.933
23901W        W95517  14.276  11.361   3.820
23902W        W95518  27.751  14.367  10.008
23903W        W95519  18.251  34.546   0.467
23904W        W95520  36.618  44.863   3.197
23905W        W95521   4.008  36.491  13.626
23906W        W95522  13.378   6.307  11.581
23907W        W95523   5.485  10.654   2.798
23908W        W95524  34.455   3.902   3.627
23909W        W95525  26.278  38.301   2.691
23910W        W95526  21.817  13.513   3.591
23911W        W95527  12.205  10.478   2.929
23912W        W95528  10.283  12.654  14.818
23913W        W95529  18.265  35.078  13.061
23914W        W95530  43.952  22.603   1.335
23915W        W95531  36.556  32.422  13.886
23916W        W95532  31.928  19.951  12.084
23917W        W95533   7.654   6.437   0.910
23918W        W95534  27.531  42.414  12.438
23919W        W95535   1.716  35.929   4.718
23920W        W95536  36.329   2.554  13.469
23921W        W95537  35.798  19.029   1.172
23922W        W95538   1.422   9.682  12.440
23923W        W95539  15.981  19.863   3.262
23924W        W95540   8.178  14.068   2.201
23925W        W95541  20.043  15.732  11.170
23926W        W95542  26.042   3.690   4.190
23927W        W95543   9.601  34.029   0.584
23928W        W95544   7.188  20.202   1.238
23929W        W95545  15.090  12.340  12.888
23930W        W95546  35.926  16.045  14.532
23931W        W95547  31.689  43.941  12.895
23932W        W95548  16.117  34.634  12.892
23933W        W95549  24.867   7.845  14.292
23934W        W95550  40.175   9.514  14.432
23935W        W95551  25.199  11.738   3.844
23936W        W95552  10.713  30.535   2.267
23937W        W95553   2.277  14.249  10.744
23938W        W95554  24.007  14.257  12.808
23939W        W95555  21.141  37.112   1.870
23940W        W95556  39.730  10.857  14.885
23941W        W95557  10.322   4.901   0.762
23942W        W95558  24.036  14.760   2.731
23943W        W95559  35.482   5.199   3.205
23944W        W95560  18.441  37.891   4.948
23945W        W95561  25.445  27.399  13.900
23946W        W95562  10.941   5.123  11.032
23947W        W95563   5.190  29.107   2.731
23948W        W95564  31.590  36.110  12.418
23949W        W95565  16.829  23.399   1.323
23950W        W95566  31.079   9.650  12.379
23951W        W95567  40.322  12.033   1.334
23952W        W95568  41.292   8.202  11.258
23953W        W95569  27.923  31.178   4.491
23954W        W95570   1.908   1.959  13.905
23955W        W95571  18.167  42.210  13.383
23956W        W95572  17.723  16.261  11.035
23957W        W95573  19.656  33.642   0.739
23958W        W95574  16.094   2.801   1.115
23959W        W95575  32.181  37.329   3.786
23960W        W95576  19.662  13.850   3.331
23961W        W95577  14.690   3.379   4.044
23962W        W95578  24.220   8.141  14.856
23963W        W95579  27.292  23.209   2.804
23964W        W95580  38.022  30.640  13.307
23965W        W95581  41.047  29.703  11.966
23966W        W95582  36.546   4.654  13.063
23967W        W95583  12.455  18.776  10.347
23968W        W95584  20.221  22.336   0.517
23969W        W95585  44.368  32.536  11.228
23970W        W95586  17.523  44.522   4.113
23971W        W95587   1.069   0.925  12.915
23972W        W95588   7.641  33.881   3.809
23973W        W95589  44.369  36.841  14.518
23974W        W95590  17.550  28.259  12.146
23975W        W95591  20.580  23.143   0.266
23976W        W95592  43.724  31.485   2.492
23977W        W95593  24.998  36.420  12.125
23978W        W95594  10.806  24.943  12.451
23979W        W95595  23.386  34.449   0.855
23980W        W95596  26.207   3.994   3.775
23981W        W95597  15.771  42.413  14.968
23982W        W95598  36.285   3.312  10.699
23983W        W95599   1.806   2.671   4.862
23984W        W95600  41.136  35.554  11.012
23985W        W95601  21.484  31.083   3.125
23986W        W95602  20.502  31.700  11.908
23987W        W95603  38.623  10.375   9.846
23988W        W95604  32.985  43.927  11.349
23989W        W95605  30.934  44.278   1.877
23990W        W95606   4.775  27.364   1.526
23991W        W95607  38.037  16.715  11.959
23992W        W95608  24.786  16.059  11.902
23993W        W95609  27.085  34.907  13.542
23994W        W95610   5.705  12.406  10.581
23995W        W95611  25.650  40.024  11.536
23996W        W95612  29.384  16.974   0.877
23997W        W95613  17.559  44.727   3.629
23998W        W95614  10.155   2.570   1.300
23999W        W95615   0.145  25.605   3.709
24000W        W95616   3.776   9.105  14.312
24001W        W95617  10.716  35.502  13.808
24002W        W95618  14.126  15.628  11.537
24003W        W95619  35.559  23.971  12.153
24004W        W95620  37.870  39.366  13.954
24005W        W95621  20.532   0.451   4.682
24006W        W95622  34.873  15.695  13.165
24007W        W95623  41.735  27.774   3.713
24008W        W95624  29.946  18.206  13.324
24009W        W95625   1.528  15.529   0.457
24010W        W95626  34.806  14.627  14.346
24011W        W95627  33.503  18.143   4.472
24012W        W95628  23.435  39.028   0.317
24013W        W95629  33.167  37.071   4.636
24014W        W95630  19.948  30.158   3.240
24015W        W95631   2.533  34.910  11.114
24016W        W95632  24.420   8.316  11.491
24017W        W95633   6.699   4.915  12.989
24018W        W95634  36.493  38.262  11.106
24019W        W95635  20.141  21.663  13.262
24020W        W95636  10.321  32.568   0.288
24021W        W95637  26.118  22.673  12.483
24022W        W95638  30.934  29.883  13.398
24023W        W95639  23.622   2.258   0.313
24024W        W95640  39.388   6.251  12.098
24025W        W95641  17.759  16.374   0.379
24026W        W95642  43.226   0.851   4.500
24027W        W95643  37.382  26.887  13.621
24028W        W95644  37.364  10.454   9.709
24029W        W95645   0.573   2.817  13.231
24030W        W95646  35.618  18.565   1.035
24031W        W95647  27.027  20.661   2.169
24032W        W95648  28.525  11.721  13.454
24033W        W95649   5.616  44.361  13.119
24034W        W95650   1.253  18.609  13.883
24035W        W95651  28.326   0.829   2.624
24036W        W95652  27.439  22.117  11.581
24037W        W95653  32.148  11.287   4.161
24038W        W95654  32.918  21.992   0.774
24039W        W95655  34.554  14.729   3.773
24040W        W95656  21.704  20.511  11.281
24041W        W95657  32.699  28.499  13.311
24042W        W95658  24.972  13.699   2.508
24043W        W95659  33.511  37.900   1.036
24044W        W95660  16.105  43.809   3.914
24045W        W95661  23.269  26.990  11.939
24046W        W95662   3.754  15.726  10.872
24047W        W95663  24.247  13.683   2.698
24048W        W95664  11.492  19.552   0.290
24049W        W95665   4.267  28.074  11.404
24050W        W95666  35.985  14.661  12.013
24051W        W95667   8.776  23.234  11.114
24052W        W95668  36.046  23.926   2.902
24053W        W95669   1.446   7.508   2.139
24054W        W95670  23.794  15.627  12.013
24055W        W95671  42.355  41.365   0.948
24056W        W95672  33.002  42.814   2.656
24057W        W95673  29.538  43.989   5.013
24058W        W95674  40.573   7.423   3.292
24059W        W95675  35.867  28.277  11.941
24060W        W95676   0.593   9.622   2.174
24061W        W95677  42.122  32.100   0.798
24062W        W95678  26.986  23.483  13.686
24063W        W95679  14.460  25.703   0.885
24064W        W95680  42.510  40.498   0.341
24065W        W95681  16.748  27.123   1.433
24066W        W95682  21.716  12.594   2.499
24067W        W95683  33.636  28.720   3.644
24068W        W95684  29.517  12.101   0.989
24069W        W95685   3.412   9.106  11.653
24070W        W95686  34.397  33.680   2.389
24071W        W95687   1.317  10.141   0.317
24072W        W95688   5.920   8.042   3.561
24073W        W95689  16.801  30.189  14.477
24074W        W95690  26.597  42.776  12.054
24075W        W95691   3.991  41.593  13.989
24076W        W95692  32.472  22.594  10.562
24077W        W95693  25.074  26.146  13.996
24078W        W95694   5.329  10.787   3.301
24079W        W95695   0.681  33.206   1.896
24080W        W95696   2.488   4.530   4.684
24081W        W95697  38.974  38.522  10.746
24082W        W95698  20.635  16.854  11.697
24083W        W95699   5.087  29.597  10.924
24084W        W95700  23.949   6.749  11.402
24085W        W95701  31.521  23.911  14.769
24086W        W95702   3.961   3.898   2.075
24087W        W95703  11.408  25.117  13.428
24088W        W95704   6.147  26.096  14.842
24089W        W95705  41.296  34.333  12.976
24090W        W95706  33.577  27.010   3.086
24091W        W95707  41.238  26.658  10.516
24092W        W95708   3.758  21.993  10.190
24093W        W95709   8.652  16.887  13.188
24094W        W95710  37.539   7.780  12.455
24095W        W95711   7.161  38.848  12.138
24096W        W95712  27.195  15.435  14.371
24097W        W95713  27.351  27.008  14.997
24098W        W95714  13.162  26.200   3.590
24099W        W95715   3.546  35.438   1.412
24100W        W95716  32.490  34.585  12.068
24101W        W95717  16.760  39.372   0.321
24102W        W95718  15.375  35.058   1.391
24103W        W95719  14.246  38.439   1.671
24104W        W95720   3.914  32.079   2.239
24105W        W95721  20.353  39.134  13.803
24106W        W95722   4.011   5.323   1.067
24107W        W95723  10.493  42.050   5.259
24108W        W95724  16.174  44.032  14.126
24109W        W95725  42.887  13.212   2.907
24110W        W95726  25.906  33.470  11.919
24111W        W95727  44.416  29.936  14.041
24112W        W95728  41.575  10.166  13.517
24113W        W95729  36.974   7.024   0.841
24114W        W95730   8.187  34.846  13.538
24115W        W95731  23.895  16.315  12.087
24116W        W95732  15.785  23.989   3.839
24117W        W95733   9.636  35.483  14.835
24118W        W95734  28.696  28.434  14.906
24119W        W95735  28.236  27.629  13.206
24120W        W95736  16.440  34.124  14.513
24121W        W95737   3.310  27.580  14.888
24122W        W95738   2.771  40.475   0.189
24123W        W95739  17.152  29.558   0.959
24124W        W95740  44.707  19.110  11.241
24125W        W95741  31.874  10.398   1.100
24126W        W95742  10.968   0.671   2.696
24127W        W95743   5.063  20.362  11.117
24128W        W95744  32.920  13.291   2.163
24129W        W95745  30.106   9.699   1.903
24130W        W95746  27.749   5.776   3.610
24131W        W95747   7.865  41.487  12.643
24132W        W95748  15.680  21.622  13.922
24133W        W95749  29.678  32.661   1.805
24134W        W95750  13.269  25.528  11.538
24135W        W95751   1.324  23.843   2.884
24136W        W95752  18.677   1.794   1.636
24137W        W95753  22.018  39.213   2.315
24138W        W95754   1.781  23.279   2.326
24139W        W95755  11.155  11.260   0.440
24140W        W95756  18.235  23.662  11.625
24141W        W95757  15.538   6.428   3.143
24142W        W95758   3.900  21.907  14.217
24143W        W95759   8.743   0.328   3.624
24144W        W95760  29.983  12.212   1.204
24145W        W95761   0.998  17.336  11.532
24146W        W95762  10.839  38.943   0.184
24147W        W95763  34.067  37.324   1.932
24148W        W95764  20.146  31.866  13.969
24149W        W95765  32.434   7.503   3.734
24150W        W95766  37.584  32.053   1.363
24151W        W95767  17.146  16.654  12.879
24152W        W95768  25.015   1.422   1.403
24153W        W95769  32.403  33.461   1.485
24154W        W95770   4.778  16.095   4.216
24155W        W95771   1.304  42.914  13.317
24156W        W95772  30.146  24.296  14.079
24157W        W95773  32.391  13.703   0.734
24158W        W95774  15.976  27.566  12.477
24159W        W95775  29.567  27.482  13.042
24160W        W95776  12.655  41.954  11.479
24161W        W95777  34.080   2.777  14.957
24162W        W95778  18.964   2.006   3.843
24163W        W95779  22.228  44.392  10.670
24164W        W95780  12.631  39.231   3.585
24165W        W95781   5.653  28.003  14.257
24166W        W95782  14.953  38.927   1.847
24167W        W95783  25.198   6.622  11.598
24168W        W95784   3.845  13.927   3.664
24169W        W95785  40.207  23.797  12.899
24170W        W95786  12.857  39.883  14.956
24171W        W95787  18.849  15.508   3.745
24172W        W95788  38.806  23.777  10.179
24173W        W95789  40.770  36.109   4.542
24174W        W95790  21.820   1.332  14.769
24175W        W95791  27.954  44.425  13.825
24176W        W95792  27.077  44.956  12.486
24177W        W95793   6.880  40.981   2.428
24178W        W95794  13.749  20.321   2.688
24179W        W95795   1.014  13.005   3.775
24180W        W95796  21.786   5.608   4.135
24181W        W95797  14.220  27.731   2.442
24182W        W95798  26.210   6.767   0.681
24183W        W95799  30.602  35.475   4.809
24184W        W95800  28.527  33.318  14.364
24185W        W95801  19.100  20.117   1.682
24186W        W95802  25.038   6.448  12.884
24187W        W95803   6.687  16.491  14.873
24188W        W95804  30.189   1.342   1.876
24189W        W95805  30.098  25.622   1.870
24190W        W95806  20.039   4.423  10.864
24191W        W95807  18.783  15.076   0.347
24192W        W95808  44.150   8.829  10.183
24193W        W95809  43.235  32.541   3.682
24194W        W95810   0.699  25.999   3.080
24195W        W95811   5.484  29.160   0.257
24196W        W95812  34.348   1.206  14.195
24197W        W95813  12.784  35.995   4.570
24198W        W95814  26.542  24.301  12.484
24199W        W95815   3.994  10.623   2.242
24200W        W95816  31.493  11.214  14.750
24201W        W95817  19.326   9.225  13.910
24202W        W95818  30.159  16.731  11.217
24203W        W95819  11.225   7.211  10.870
24204W        W95820  39.616  17.825   4.216
24205W        W95821  30.653  43.044   4.634
24206W        W95822  26.966  18.108  10.461
24207W        W95823  17.557  37.372  14.264
24208W        W95824  26.168  38.307   3.192
24209W        W95825  43.649  23.501   4.954
24210W        W95826  31.517  16.360  10.763
24211W        W95827  11.288  26.874   4.194
24212W        W95828  28.469  29.169  11.848
24213W        W95829  10.055  30.137   2.242
24214W        W95830  19.216  30.962   4.284
24215W        W95831  20.657  38.014  10.584
24216W        W95832   3.373   0.695   9.855
24217W        W95833  37.309  39.301   1.284
24218W        W95834  41.367  35.454   3.827
24219W        W95835  14.315  27.226   1.221
24220W        W95836  43.049  17.327  10.561
24221W        W95837  44.872   3.287   4.528
24222W        W95838  41.951   6.901  14.317
24223W        W95839   7.782   2.559   1.691
24224W        W95840  27.790  13.995   1.285
24225W        W95841   9.796  41.374  12.591
24226W        W95842   9.487   4.549  12.973
24227W        W95843  43.943   0.263   0.724
24228W        W95844   3.411  16.126  14.235
24229W        W95845   9.461  16.714  12.883
24230W        W95846  31.104  33.367  12.648
24231W        W95847  36.065  41.320   2.826
24232W        W95848  11.824  29.665  13.779
24233W        W95849  15.500  32.829   1.671
24234W        W95850  25.632  21.996  11.275
24235W        W95851  21.738  42.814   1.189
24236W        W95852  21.767   4.710   4.048
24237W        W95853  27.251  16.162  12.539
24238W        W95854   0.651  24.626  12.488
24239W        W95855  40.311  17.068   4.140
24240W        W95856   8.319  21.146  11.526
24241W        W95857  34.404  17.162   1.991
24242W        W95858  17.889  32.249  11.593
24243W        W95859  37.086  24.592  13.309
24244W        W95860  16.943  37.455  11.960
24245W        W95861  36.626  26.793  14.348
24246W        W95862   5.872   4.866   1.309
24247W        W95863  37.254  25.603  13.869
24248W        W95864  28.821  21.237  13.389
24249W        W95865  32.684  44.097   5.198
24250W        W95866  12.247   9.683   1.190
24251W        W95867  34.841   1.408  12.501
24252W        W95868  17.652  39.324  11.657
24253W        W95869  11.889  31.034  12.412
24254W        W95870  31.451   0.348  14.871
24255W        W95871  15.161  28.699  13.030
24256W        W95872  41.302  37.612  12.588
24257W        W95873  28.656  36.375   2.460
24258W        W95874  34.105  19.093  11.632
24259W        W95875   5.489  17.212   2.093
24260W        W95876  10.492  16.488   2.187
24261W        W95877  30.511  14.975   2.174
24262W        W95878  29.101   4.996   4.654
24263W        W95879  20.273  12.371  12.629
24264W        W95880   1.452  38.592   3.241
24265W        W95881   7.292  30.909  12.884
24266W        W95882  42.805  40.712  11.376
24267W        W95883  36.096  27.043  12.454
24268W        W95884  13.680   3.270  10.020
24269W        W95885  14.170  17.200   1.379
24270W        W95886   9.107  13.067  13.066
24271W        W95887  28.980  33.557   1.320
24272W        W95888  34.368  11.592   0.399
24273W        W95889  33.179  10.661  12.401
24274W        W95890  40.572  14.965   2.238
24275W        W95891   9.321  35.570   4.121
24276W        W95892  10.505   4.104   3.780
24277W        W95893  11.130  40.559   4.280
24278W        W95894  15.335  16.630  10.144
24279W        W95895   7.825  16.682  14.467
24280W        W95896  19.548   9.739   0.056
24281W        W95897  14.317  19.634   4.604
24282W        W95898  18.226  44.529   1.445
24283W        W95899  37.078  41.956   2.832
24284W        W95900  13.815  28.675  12.446
24285W        W95901  12.684  43.997  10.601
24286W        W95902   0.546  17.789  14.487
24287W        W95903   4.139   7.803   1.368
24288W        W95904  41.559  33.183   2.346
24289W        W95905   3.351  43.031   0.740
24290W        W95906  31.334  34.848  14.264
24291W        W95907   0.596   5.717  11.079
24292W        W95908  30.169  40.341   4.690
24293W        W95909   9.256  40.436   2.084
24294W        W95910   7.361  41.995   1.866
24295W        W95911  33.141  10.194   4.158
24296W        W95912   8.603  20.332   2.629
24297W        W95913   2.388   4.992  12.597
24298W        W95914  28.967  23.178   4.596
24299W        W95915  33.620  24.995  12.983
24300W        W95916  12.699  37.502  12.067
24301W        W95917  41.010  17.613   4.694
24302W        W95918  44.208  27.289   3.977
24303W        W95919  41.801   1.929   0.695
24304W        W95920  26.889  42.492  13.477
24305W        W95921  30.591   5.813   1.976
24306W        W95922  37.301   7.289   1.559
24307W        W95923  42.011  28.160   3.976
24308W        W95924  42.985   9.590   3.482
24309W        W95925  11.654  36.945  12.920
24310W        W95926  32.598  11.730  12.605
24311W        W95927   7.159  22.713   3.290
24312W        W95928  17.232  37.311  13.363
24313W        W95929  19.431  19.682  11.188
24314W        W95930  41.387  30.384  12.145
24315W        W95931  31.522  27.550  12.856
24316W        W95932  38.226  23.720   1.549
24317W        W95933  28.995  13.284  13.359
24318W        W95934  24.653  30.104  12.414
24319W        W95935  16.059  37.865  11.556
24320W        W95936  31.710  35.853  11.510
24321W        W95937   1.712  17.200  12.007
24322W        W95938  19.516   6.113  12.376
24323W        W95939  35.472  36.511   3.132
24324W        W95940  12.871  35.328   0.467
24325W        W95941   0.136  43.866  14.655
24326W        W95942  12.230  11.255  14.290
24327W        W95943  44.881  17.846   3.819
24328W        W95944   0.905  39.215  13.473
24329W        W95945  39.082  37.381   2.473
24330W        W95946  10.703  35.593  13.297
24331W        W95947   3.145  21.551   2.834
24332W        W95948  29.702  39.784   0.290
24333W        W95949  31.377  21.492  11.540
24334W        W95950  34.580  29.208  11.580
24335W        W95951   8.599  30.083  13.898
24336W        W95952  24.497  15.815   3.212
24337W        W95953  34.770  31.875  14.273
24338W        W95954  18.802  39.452  13.253
24339W        W95955  44.078  37.580  10.282
24340W        W95956  17.706  23.192   3.190
24341W        W95957  22.299  29.647  13.274
24342W        W95958   5.338  27.409  10.655
24343W        W95959  29.202   3.302   4.465
24344W        W95960   1.438   7.193  14.977
24345W        W95961  15.673  39.614  11.157
24346W        W95962  13.771   6.564  10.589
24347W        W95963  39.768  13.665   5.441
24348W        W95964  18.209  32.129  14.013
24349W        W95965  10.443  28.023   4.064
24350W        W95966  15.746   3.845  11.815
24351W        W95967  37.077  33.852   3.745
24352W        W95968  35.299  32.951   1.718
24353W        W95969  26.516  11.083   3.037
24354W        W95970  25.591   9.357  10.631
24355W        W95971  23.506  22.425  11.942
24356W        W95972  20.292  13.580   2.219
24357W        W95973   6.901  18.334  11.135
24358W        W95974  36.407   0.503   1.513
24359W        W95975  24.527  25.562  10.653
24360W        W95976  34.535  42.848  14.534
24361W        W95977  40.689  44.186  11.076
24362W        W95978  19.192  14.888  10.775
24363W        W95979  27.641  20.165  10.678
24364W        W95980  30.147  14.927  14.088
24365W        W95981   2.848  39.297  10.646
24366W        W95982  32.656  10.725  12.452
24367W        W95983  19.511   8.237  11.099
24368W        W95984  30.887  39.831   2.783
24369W        W95985  28.192  43.805  10.739
24370W        W95986  39.818  24.206   4.201
24371W        W95987   2.517  24.593   4.873
24372W        W95988  27.428  38.522  12.935
24373W        W95989   7.251  14.259  13.416
24374W        W95990   2.904   0.199   1.334
24375W        W95991   0.176  23.992   2.952
24376W        W95992   0.693   2.344   4.072
24377W        W95993  38.076   9.645  14.299
24378W        W95994  20.786   0.802   5.089
24379W        W95995  13.731   3.216  11.582
24380W        W95996  40.291  31.593   1.887
24381W        W95997  33.253   2.274   1.725
24382W        W95998   8.188  30.233   2.825
24383W        W95999  18.137   5.247   0.160
24384W        W96000  28.302  21.543   4.115
24385W        W96001  21.772  25.182   3.212
24386W        W96002  17.371   5.990  11.063
24387W        W96003   4.904  42.122  12.108
24388W        W96004  35.014  24.209  13.652
24389W        W96005  14.086  42.849  14.075
24390W        W96006  19.956   4.815  14.554
24391W        W96007  11.426  35.831  12.452
24392W        W96008  12.018  42.867  11.470
24393W        W96009  11.637  24.686  14.572
24394W        W96010   1.273   8.801  10.825
24395W        W96011  15.703   1.463   0.263
24396W        W96012  28.844  31.544   1.902
24397W        W96013  43.737  15.781  14.437
24398W        W96014  35.397  15.002  14.753
24399W        W96015  21.279  18.040   0.904
24400W        W96016  14.292  11.706  14.079
24401W        W96017  40.154   1.324   0.557
24402W        W96018  37.915  40.397  14.898
24403W        W96019  15.407   7.106   1.889
24404W        W96020  43.991   7.795  13.230
24405W        W96021  27.060  28.153  14.045
24406W        W96022  28.532  40.891  13.785
24407W        W96023  17.564  25.473  12.546
24408W        W96024  35.391  14.404   4.097
24409W        W96025  18.742  20.843  12.203
24410W        W96026  20.006  37.843   2.326
24411W        W96027  15.232  31.582  12.474
24412W        W96028  31.914  42.439   0.212
24413W        W96029  24.870  13.108   4.182
24414W        W96030  41.762  30.076   4.120
24415W        W96031  39.763  28.496  14.481
24416W        W96032  42.007  33.567  11.106
24417W        W96033  37.600   7.246  12.603
24418W        W96034  12.209  23.081   2.686
24419W        W96035   3.384  30.707  12.121
24420W        W96036  44.512   2.749  14.962
24421W        W96037  38.245  20.908  14.255
24422W        W96038  12.686  11.829  12.530
24423W        W96039  23.650  27.597   3.258
24424W        W96040  42.890  15.854   3.177
24425W        W96041  16.734  12.553  12.495
24426W        W96042  11.565  19.608  13.492
24427W        W96043  33.423  41.965  11.917
24428W        W96044  27.799   4.862  11.184
24429W        W96045  24.581   4.450  13.471
24430W        W96046  17.037  18.008   4.133
24431W        W96047  38.648   6.355  12.999
24432W        W96048  34.553  23.440   4.625
24433W        W96049  41.933  20.806  12.162
24434W        W96050  13.893  28.618   4.316
24435W        W96051  23.105  44.608   4.869
24436W        W96052  35.983  36.383   0.614
24437W        W96053  41.694   6.922   4.799
24438W        W96054  13.302  28.561  12.331
24439W        W96055  28.482  34.609  12.406
24440W        W96056  16.666   9.908  12.154
24441W        W96057   1.282  22.906   3.361
24442W        W96058  44.804  10.026  14.669
24443W        W96059  25.136  21.840  11.215
24444W        W96060  37.973   4.496  14.289
24445W        W96061  12.270   8.744  14.999
24446W        W96062  36.169  14.639  12.509
24447W        W96063  26.093  35.674  10.550
24448W        W96064  14.669  42.952  10.659
24449W        W96065  36.394  40.970   0.514
24450W        W96066  28.263  32.492  14.369
24451W        W96067  19.187   6.423   1.226
24452W        W96068  42.491  23.924   3.274
24453W        W96069  41.161  44.753  12.054
24454W        W96070  10.008  28.532  13.037
24455W        W96071  24.173   7.655  12.994
24456W        W96072  20.724   5.918  11.153
24457W        W96073  21.129  25.408   4.984
24458W        W96074  35.698  10.712   2.911
24459W        W96075  10.911  22.617   1.852
24460W        W96076  20.229  35.313  14.160
24461W        W96077  16.643   8.607   2.762
24462W        W96078   0.944  33.101   1.450
24463W        W96079   9.420  28.215   4.361
24464W        W96080   8.823  26.968   0.731
24465W        W96081  26.479  21.564  11.106
24466W        W96082  23.796  17.240  11.330
24467W        W96083  14.303  20.572   4.918
24468W        W96084  37.151   3.429   4.398
24469W        W96085  37.441  33.837   2.846
24470W        W96086  41.119  22.198   1.808
24471W        W96087  34.578  20.559   3.906
24472W        W96088  42.520  21.686   4.688
24473W        W96089  28.633  40.947  14.293
24474W        W96090  22.209  28.372  12.855
24475W        W96091   8.736  22.085   1.019
24476W        W96092   4.332  29.314  11.590
24477W        W96093  42.793  38.261  11.767
24478W        W96094  13.777   1.750  12.884
24479W        W96095   9.436  29.189   1.210
24480W        W96096   6.151  37.989   2.769
24481W        W96097  21.934   4.690   1.728
24482W        W96098  17.774  10.633   2.816
24483W        W96099   2.871  13.915  12.797
24484W        W96100  19.306   1.602  13.000
24485W        W96101  24.078  39.444   4.590
24486W        W96102  29.913   3.415  13.459
24487W        W96103  13.912   1.450  11.893
24488W        W96104   1.790  10.310   3.164
24489W        W96105  23.437  14.062   2.301
24490W        W96106  16.361  14.034  14.945
24491W        W96107   4.717   0.712   5.539
24492W        W96108   0.867  12.231   2.121
24493W        W96109  21.356  34.452  10.667
24494W        W96110   7.495   6.763   1.918
24495W        W96111  43.460  34.349  10.761
24496W        W96112  17.803  19.198  13.134
24497W        W96113  12.814  13.680  12.153
24498W        W96114  11.762  38.445  12.629
24499W        W96115  28.089   7.031   3.708
24500W        W96116  24.481   2.464   1.881
24501W        W96117  20.355  15.133   2.827
24502W        W96118   7.965  30.074  12.716
24503W        W96119  41.386  43.530  13.475
24504W        W96120  40.791  27.338   3.619
24505W        W96121  14.277  38.639   0.431
24506W        W96122  20.402   4.735   3.659
24507W        W96123  25.189  14.266   4.856
24508W        W96124  38.507  24.711   3.916
24509W        W96125  27.491   4.113  11.578
24510W        W96126   7.989  17.207  13.903
24511W        W96127  31.036   7.878  12.885
24512W        W96128  19.187  33.631   4.401
24513W        W96129  22.450  36.275  11.536
24514W        W96130  35.272   4.408  13.290
24515W        W96131  18.099  37.785   4.562
24516W        W96132  32.015  30.905  13.438
24517W        W96133  27.588  16.775   2.402
24518W        W96134   4.893   7.640  11.636
24519W        W96135  31.447  32.150   2.138
24520W        W96136  11.757   0.032  14.853
24521W        W96137  10.261  13.866   0.311
24522W        W96138  31.971   0.146  13.382
24523W        W96139   7.894   7.797   2.028
24524W        W96140   8.589  20.774  14.925
24525W        W96141  40.771  28.878  11.642
24526W        W96142  41.824  38.021  14.986
24527W        W96143  36.298  18.187   3.566
24528W        W96144  33.910   7.429  14.634
24529W        W96145  38.229  36.931   3.619
24530W        W96146  38.747   9.791   1.813
24531W        W96147  22.065  40.934   1.844
24532W        W96148  27.143  34.395   3.679
24533W        W96149  11.851  43.465  11.561
24534W        W96150  40.497   6.272   4.527
24535W        W96151   8.271  13.782  13.944
24536W        W96152  20.927   0.019  13.478
24537W        W96153  40.930   7.681  14.087
24538W        W96154  25.636   8.789  11.410
24539W        W96155  42.979  27.182  13.925
24540W        W96156  31.580  26.727  12.461
24541W        W96157  13.631  15.153  11.598
24542W        W96158   1.200   6.191   1.616
24543W        W96159  35.314  22.477   1.679
24544W        W96160  22.343   8.687  11.624
24545W        W96161  19.496  18.792   0.852
24546W        W96162  43.613   0.464  12.470
24547W        W96163  30.175  14.136  14.367
24548W        W96164  38.586  38.304  13.456
24549W        W96165  42.460  26.910   2.362
24550W        W96166   8.386   3.199  11.266
24551W        W96167  11.517   1.463   4.919
24552W        W96168  39.433  29.088   3.428
24553W        W96169   5.407  11.319  11.527
24554W        W96170  42.362   9.693  11.602
24555W        W96171  32.266  22.110  10.085
24556W        W96172  17.663  13.259  13.131
24557W        W96173  22.666  25.453  11.017
24558W        W96174  29.375  22.284   3.375
24559W        W96175  35.447  37.593   2.444
24560W        W96176  23.948  41.535   3.221
24561W        W96177   3.671  21.090  10.689
24562W        W96178  14.195   3.675  10.980
24563W        W96179  12.821  26.416   1.699
24564W        W96180  26.150   3.420  11.120
24565W        W96181  29.938  38.301  13.414
24566W        W96182  18.691  23.460  12.504
24567W        W96183   3.733  28.133   1.709
24568W        W96184  31.623  39.247   0.945
24569W        W96185  44.471  18.353   2.417
24570W        W96186  37.554  28.936  10.563
24571W        W96187  35.941  10.583  14.333
24572W        W96188  12.304  27.170   0.344
24573W        W96189  27.445  22.543   1.902
24574W        W96190  22.689  24.413   4.272
24575W        W96191  44.916  27.176  13.920
24576W        W96192  39.293  43.927   1.759
24577W        W96193  13.785  40.892   3.925
24578W        W96194  25.501  30.160   3.187
24579W        W96195  35.549  29.205  12.647
24580W        W96196   4.623   3.157   0.714
24581W        W96197   3.914  19.058  14.479
24582W        W96198  27.417   8.330  14.939
24583W        W96199   0.172  12.962  11.597
24584W        W96200  31.924   1.000  12.884
24585W        W96201  32.883  35.592   1.196
24586W        W96202  35.526  17.528   4.554
24587W        W96203  10.349  38.062   0.037
24588W        W96204   2.255   0.702  13.798
24589W        W96205   2.367   0.836  13.315
24590W        W96206  20.084  30.992   4.626
24591W        W96207  33.204  39.082   4.353
24592W        W96208  28.940   5.563   2.596
24593W        W96209  39.350  22.542  10.543
24594W        W96210  44.873   6.766   3.262
24595W        W96211  42.034  28.137  14.001
24596W        W96212   1.050   3.245   0.400
24597W        W96213  30.245   8.375  13.432
24598W        W96214  34.659  24.150  14.064
24599W        W96215  12.204   3.513   0.696
24600W        W96216   0.235  36.914   4.029
24601W        W96217  15.703  42.105   4.104
24602W        W96218  16.903  23.554   3.619
24603W        W96219  33.543  29.068   0.928
24604W        W96220  11.323   8.651   2.217
24605W        W96221  38.322  29.455   2.367
24606W        W96222  15.579  30.620  10.344
24607W        W96223  14.983  39.024   2.743
24608W        W96224  23.650   2.203  12.244
24609W        W96225  37.156  24.057  12.507
24610W        W96226  44.377  44.730  11.528
24611W        W96227  10.026  37.970   2.302
24612W        W96228   7.408  38.860   0.050
24613W        W96229   4.402  19.193  13.720
24614W        W96230  35.971   5.183   1.880
24615W        W96231  28.555  13.134   3.688
24616W        W96232  33.109   8.483   2.270
24617W        W96233  35.059  26.061   4.641
24618W        W96234  28.871  43.925   0.141
24619W        W96235  21.147  40.565   4.663
24620W        W96236   3.516  39.712  11.074
24621W        W96237  30.132  30.938  10.585
24622W        W96238   0.351   0.229   1.286
24623W        W96239   4.228   7.158  12.244
24624W        W96240  12.468  11.533   4.272
24625W        W96241  23.540  41.494  14.426
24626W        W96242  33.848  34.347  13.076
24627W        W96243  17.726   6.686   1.802
24628W        W96244  27.631   6.644   4.307
24629W        W96245  20.155  19.146   1.947
24630W        W96246  36.093   5.115  11.836
24631W        W96247  18.514   6.232   0.420
24632W        W96248  13.121   2.759  14.573
24633W        W96249  27.060  17.373  14.514
24634W        W96250   0.738  30.100  10.963
24635W        W96251  32.452  26.861   1.324
24636W        W96252   2.345   4.918   1.175
24637W        W96253  28.399  43.458  10.432
24638W        W96254  42.229  34.505  11.864
24639W        W96255  31.091   5.827   1.777
24640W        W96256  40.373  38.490   3.590
24641W        W96257  17.043  17.551  14.845
24642W        W96258  24.230  43.492  13.388
24643W        W96259   2.541  13.753   3.360
24644W        W96260  35.022  33.331  13.990
24645W        W96261  30.961  21.361   0.317
24646W        W96262  12.735  26.295  11.354
24647W        W96263  33.442   6.462  12.516
24648W        W96264  16.203   7.526   4.414
24649W        W96265   4.221   4.290   1.341
24650W        W96266  24.592  19.989  14.254
24651W        W96267   1.223  12.717  10.552
24652W        W96268  38.825  20.569   1.044
24653W        W96269   7.714  10.503  12.715
24654W        W96270   7.933  28.383   1.241
24655W        W96271  15.536  40.479   2.259
24656W        W96272  44.850   2.531  14.343
24657W        W96273   7.055   4.960  13.926
24658W        W96274  39.824   5.627   4.348
24659W        W96275   7.228  29.808   1.304
24660W        W96276   5.885   8.513  13.416
24661W        W96277  42.333  28.126  12.437
24662W        W96278  26.649  39.778   4.039
24663W        W96279   0.940  14.556   4.459
24664W        W96280  41.362   3.364  10.254
24665W        W96281  43.438  29.983  12.599
24666W        W96282  25.103  14.897   1.697
24667W        W96283  18.286  12.625  13.338
24668W        W96284  16.203  36.446  10.746
24669W        W96285  39.904   3.650   1.301
24670W        W96286  17.144  33.328   0.984
24671W        W96287  34.035   3.256  13.569
24672W        W96288  10.843   1.262  14.771
24673W        W96289  19.614  26.630  11.711
24674W        W96290  14.482  22.315   3.198
24675W        W96291  37.791  15.127   2.431
24676W        W96292  39.633  14.113  13.390
24677W        W96293  15.638  10.414  12.856
24678W        W96294  39.060   0.314  12.556
24679W        W96295   8.298   2.261   2.312
24680W        W96296  42.239  41.465   2.238
24681W        W96297  33.973  41.731  11.632
24682W        W96298  31.133  34.819   1.227
24683W        W96299  33.710  21.589   3.878
24684W        W96300  31.327  36.010   0.300
24685W        W96301  39.868  17.239   1.936
24686W        W96302   3.789  43.103  14.328
24687W        W96303  40.309  36.603   3.268
24688W        W96304   9.819   1.993   3.685
24689W        W96305  12.658   0.015  11.458
24690W        W96306   8.755  44.232   2.780
24691W        W96307   6.203  44.249   3.176
24692W        W96308  13.988   3.227   4.016
24693W        W96309  30.383  28.703   4.501
24694W        W96310   0.290   9.967   2.530
24695W        W96311  29.480  34.116  10.896
24696W        W96312  14.740  37.626   4.954
24697W        W96313  19.026   9.708  11.911
24698W        W96314  10.366  13.567  11.979
24699W        W96315   6.550   1.982   0.278
24700W        W96316   5.950   5.429   4.537
24701W        W96317  41.569  21.200  13.407
24702W        W96318  41.015  33.485   3.630
24703W        W96319   9.821  40.510   1.284
24704W        W96320   1.514  29.120  12.390
24705W        W96321  24.002  13.083  13.079
24706W        W96322  35.491  27.114   0.957
24707W        W96323  43.767   1.387   4.595
24708W        W96324  25.362  41.404   4.912
24709W        W96325   8.716  35.555   0.382
24710W        W96326  30.560  44.199   2.228
24711W        W96327  42.253  28.647  12.391
24712W        W96328   8.769   5.800  12.922
24713W        W96329  34.403  24.062  14.492
24714W        W96330  42.992  21.971  12.099
24715W        W96331  20.056  29.728   2.305
24716W        W96332  44.429  16.219  12.306
24717W        W96333  30.568  25.934   3.868
24718W        W96334   4.828  18.802   4.514
24719W        W96335  25.972  30.509  13.771
24720W        W96336  34.891   7.279  13.537
24721W        W96337  10.997  21.583  13.196
24722W        W96338  42.832  38.828  14.961
24723W        W96339  32.945   8.368  11.117
24724W        W96340  20.484   9.403   3.668
24725W        W96341  21.545  18.734  11.726
24726W        W96342  11.203  41.314   4.629
24727W        W96343  14.659  42.984  11.550
24728W        W96344  31.476  16.578   2.169
24729W        W96345  38.981   4.180  11.512
24730W        W96346  41.727   7.569  12.601
24731W        W96347  44.853  24.715  10.695
24732W        W96348  24.234  25.655   3.192
24733W        W96349  12.617   5.641   0.376
24734W        W96350  17.371  14.133   4.154
24735W        W96351  36.331  42.000   4.618
24736W        W96352  17.304  22.368   1.952
24737W        W96353  44.241   8.697   3.213
24738W        W96354  39.836  41.518  10.800
24739W        W96355  19.486  24.624   1.728
24740W        W96356  42.956  42.878   3.651
24741W        W96357  13.166  33.797   4.545
24742W        W96358  26.421  30.467  11.520
24743W        W96359  31.849  41.251  14.310
24744W        W96360  20.461   1.354  12.075
24745W        W96361  25.395  33.559  11.912
24746W        W96362  29.108  27.461  12.343
24747W        W96363  23.741  43.818  11.293
24748W        W96364  44.438  12.554   0.898
24749W        W96365  27.474  35.135   4.083
24750W        W96366  29.653  20.065   1.654
24751W        W96367  33.322  22.578   0.873
24752W        W96368  10.608  32.893  14.948
24753W        W96369  37.465  36.454  14.790
24754W        W96370  12.839  29.566  12.252
24755W        W96371  22.589  26.426  10.165
24756W        W96372  24.942  26.677   2.244
24757W        W96373  43.934  36.379   1.750
24758W        W96374  37.106  22.710   0.212
24759W        W96375  29.182  23.449   4.226
24760W        W96376  15.051  18.380   3.641
24761W        W96377  20.909  42.862   2.756
24762W        W96378   8.827   1.178  10.904
24763W        W96379  34.723  16.581   3.268
24764W        W96380   5.281  20.282  10.401
24765W        W96381  32.471  29.449  14.016
24766W        W96382   6.135   8.783  12.080
24767W        W96383  39.982  19.616   1.978
24768W        W96384  29.761   0.213  11.000
24769W        W96385  39.019  14.508   0.373
24770W        W96386  32.925   6.257   4.087
24771W        W96387  12.822  17.528  10.667
24772W        W96388  28.762  16.136   5.014
24773W        W96389  35.556  41.849   2.483
24774W        W96390  13.573  31.656  12.065
24775W        W96391   3.046  30.829   1.294
24776W        W96392  22.507  24.285   2.517
24777W        W96393  30.977   7.430   9.961
24778W        W96394  44.495  36.248  11.598
24779W        W96395  20.565  13.624   1.755
24780W        W96396   2.159   4.292  14.698
24781W        W96397   1.076  33.129   2.893
24782W        W96398  21.734  23.163  10.760
24783W        W96399  20.781  38.430   2.378
24784W        W96400  14.778  39.792   0.369
24785W        W96401  32.996  15.628   0.984
24786W        W96402  38.903   4.361  12.063
24787W        W96403  41.111  35.450   2.453
24788W        W96404  20.239  21.255   2.748
24789W        W96405  20.700  22.731  13.478
24790W        W96406  24.532  26.512  14.768
24791W        W96407  31.087  13.589   4.372
24792W        W96408  15.625  10.505  10.111
24793W        W96409  35.552  42.514   3.716
24794W        W96410  22.764  35.162   0.772
24795W        W96411   5.395  27.074  11.041
24796W        W96412  34.985  34.095   1.202
24797W        W96413  44.809   6.439   5.209
24798W        W96414  19.567  40.273  13.770
24799W        W96415  21.860  25.895   2.467
24800W        W96416  42.249  23.099  13.348
24801W        W96417  23.868  24.706   0.790
24802W        W96418  44.772  33.044   2.698
24803W        W96419  16.187  44.336  11.853
24804W        W96420   8.380  26.406   4.695
24805W        W96421  32.005  20.742  12.996
24806W        W96422  22.674   8.849   9.971
24807W        W96423  22.629  40.233  11.200
24808W        W96424  42.413  35.103   4.685
24809W        W96425  42.870  36.108  12.466
24810W        W96426  32.263  24.670   5.081
24811W        W96427  24.267  10.362  11.623
24812W        W96428  26.287  34.455   0.010
24813W        W96429  29.606   4.679  12.550
24814W        W96430  10.438   5.022  12.594
24815W        W96431  44.985  38.481  14.832
24816W        W96432  30.745  34.052  14.110
24817W        W96433  25.697  12.386  11.701
24818W        W96434  25.084  26.662  13.929
24819W        W96435  29.586   2.843  14.320
24820W        W96436  18.890  13.424   2.270
24821W        W96437  19.803  24.067  12.211
24822W        W96438  25.574  31.219   1.762
24823W        W96439  41.034   1.417  10.432
24824W        W96440  32.914  10.114  13.079
24825W        W96441  39.000  34.081  12.821
24826W        W96442  28.118  44.201   2.489
24827W        W96443  31.108  14.187  13.764
24828W        W96444  12.289  29.338   3.270
24829W        W96445   4.301  15.690   2.690
24830W        W96446  12.804  29.576   3.916
24831W        W96447  25.437  23.638   2.615
24832W        W96448   5.281  10.346  11.414
24833W        W96449  42.400  16.219  14.860
24834W        W96450  12.031  33.696   1.727
24835W        W96451   4.861   3.462   2.864
24836W        W96452  37.875   0.700  13.455
24837W        W96453  15.747  43.086  11.720
24838W        W96454  17.705  10.620   0.671
24839W        W96455  12.647  13.492   2.352
24840W        W96456  24.779  40.886   3.833
24841W        W96457   8.646  28.880  13.409
24842W        W96458  12.540  25.525  12.982
24843W        W96459  37.433  36.811  12.517
24844W        W96460  35.017  33.166   1.324
24845W        W96461  29.555   9.464  14.351
24846W        W96462  24.777  34.151   1.892
24847W        W96463   1.045  19.743   3.473
24848W        W96464  27.682  14.224   4.654
24849W        W96465  19.283   6.730   2.447
24850W        W96466  16.058  14.222  14.480
24851W        W96467  29.103  29.882  13.179
24852W        W96468  12.181  43.337   4.568
24853W        W96469   4.384  16.059   4.816
24854W        W96470  23.076   6.111   3.312
24855W        W96471  26.231  13.803  13.959
24856W        W96472  31.934   9.393  14.305
24857W        W96473  15.581  31.135  10.522
24858W        W96474  21.425  39.242  13.450
24859W        W96475  42.425  17.578   3.351
24860W        W96476   8.017  17.733  10.910
24861W        W96477  35.049  43.593   1.257
24862W        W96478  15.265  25.735  14.719
24863W        W96479  23.066  24.204   1.321
24864W        W96480  19.697  27.475  11.154
24865W        W96481  23.469  41.477  10.424
24866W        W96482  40.022   0.538   2.580
24867W        W96483  24.144  29.952  13.389
24868W        W96484  28.133  12.309  11.999
24869W        W96485  29.989  40.757  12.624
24870W        W96486  31.171  16.194  13.783
24871W        W96487  14.771  41.758  11.774
24872W        W96488  35.392   4.804  13.826
24873W        W96489  27.050  15.005  13.018
24874W        W96490  29.971  22.830   3.322
24875W        W96491  10.270  34.833  13.868
24876W        W96492   7.367   3.393   0.542
24877W        W96493  16.299  28.805  13.501
24878W        W96494   7.866  36.790   4.497
24879W        W96495  19.707  28.577  14.341
24880W        W96496  11.134   5.722  12.624
24881W        W96497  11.294  32.652   0.995
24882W        W96498  18.124  40.010   2.188
24883W        W96499  42.832   6.270   3.484
24884W        W96500   3.662  27.270   3.574
24885W        W96501  27.228  44.903  13.016
24886W        W96502   2.866  38.416  11.526
24887W        W96503  43.672  10.808   3.168
24888W        W96504   9.095   3.296  12.844
24889W        W96505  17.589  36.417  14.956
24890W        W96506  28.330  10.648  14.333
24891W        W96507  10.872  29.952   2.719
24892W        W96508   9.224  26.980  13.374
24893W        W96509   5.279  10.683   2.318
24894W        W96510   9.429  28.170   0.443
24895W        W96511  23.971   9.723  10.560
24896W        W96512  41.205  31.914   4.564
24897W        W96513   5.607  13.074  11.138
24898W        W96514  17.227  39.788  13.943
24899W        W96515  23.127  27.082  13.794
24900W        W96516  21.605  30.578  10.419
24901W        W96517   0.418  13.650   2.292
24902W        W96518  11.229   2.697   0.407
24903W        W96519  30.151  23.540  14.487
24904W        W96520  38.536  40.354   4.048
24905W        W96521  33.370  14.608   4.261
24906W        W96522  16.325  30.884   3.875
24907W        W96523  15.821  43.559   1.807
24908W        W96524  20.251  44.981   1.617
24909W        W96525   2.796  36.953  13.873
24910W        W96526   1.913  38.023   0.487
24911W        W96527  36.591  34.364   0.285
24912W        W96528   1.646  35.173   2.063
24913W        W96529  39.417   3.545   2.531
24914W        W96530   1.999  14.068  12.685
24915W        W96531   5.681  22.399  11.090
24916W        W96532   9.820   5.802  12.638
24917W        W96533  27.496  12.539  13.805
24918W        W96534  28.539   6.728  11.607
24919W        W96535  35.898  42.415  11.941
24920W        W96536  33.328  17.702   2.341
24921W        W96537  16.926  39.925  12.108
24922W        W96538  32.943  11.300   3.637
24923W        W96539  26.554  10.329  13.558
24924W        W96540  39.841  20.595   3.346
24925W        W96541  41.794   8.137   2.256
24926W        W96542  40.743  19.230  14.811
24927W        W96543   4.053   1.399  11.063
24928W        W96544  38.973  25.817  13.537
24929W        W96545  41.367  13.541  14.398
24930W        W96546  20.693   7.809  14.696
24931W        W96547  18.172  21.742   4.545
24932W        W96548  24.749  19.317  11.547
24933W        W96549  25.680  39.138  14.427
24934W        W96550  20.241  22.642   4.401
24935W        W96551  32.406  11.185   4.983
24936W        W96552  15.059   4.188  10.238
24937W        W96553  33.378   0.872   4.469
24938W        W96554  27.921  36.156   1.449
24939W        W96555  15.867  37.764   3.670
24940W        W96556   5.540  28.574   4.035
24941W        W96557  40.723  16.611   0.379
24942W        W96558  30.753  41.273   3.269
24943W        W96559   1.370  29.243   0.687
24944W        W96560  12.304  43.970   0.373
24945W        W96561  12.046  33.329   3.362
24946W        W96562  19.958  28.267  13.433
24947W        W96563  36.099  26.131  14.454
24948W        W96564  16.666   9.074  12.756
24949W        W96565  27.651  35.707   1.594
24950W        W96566  42.477   8.656   2.719
24951W        W96567  12.383  43.090   3.289
24952W        W96568  34.464  29.302  12.972
24953W        W96569   8.821   8.645  14.493
24954W        W96570  26.637  34.405   1.199
24955W        W96571  28.930  25.615  11.111
24956W        W96572  31.069   8.882   4.097
24957W        W96573  30.100  42.581   2.408
24958W        W96574  43.757   8.743  10.940
24959W        W96575  12.071  21.601  12.156
24960W        W96576  14.251  15.764   4.524
24961W        W96577  28.346   1.762   4.306
24962W        W96578  16.058  44.390  13.754
24963W        W96579  40.300  23.526  12.447
24964W        W96580   6.659  41.944   1.206
24965W        W96581  20.824  32.431   1.952
24966W        W96582  34.393  39.816  10.711
24967W        W96583  23.271  39.010   3.663
24968W        W96584   8.443  29.596   0.975
24969W        W96585  21.230  12.648  13.074
24970W        W96586  14.608  44.276   2.807
24971W        W96587  29.089  29.414  14.113
24972W        W96588  27.161   6.583  10.655
24973W        W96589   6.393  44.225   0.286
24974W        W96590  31.012  13.221   0.930
24975W        W96591   2.771  42.909  10.169
24976W        W96592  11.427   0.066   4.766
24977W        W96593  15.253  24.191   3.714
24978W        W96594  37.344  16.074  13.555
24979W        W96595  34.934  38.464  10.902
24980W        W96596   6.952  44.496   3.524
24981W        W96597   2.449  37.332   2.033
24982W        W96598  22.034  24.881  11.539
24983W        W96599  21.778  34.434   4.038
24984W        W96600  15.508  33.609   3.491
24985W        W96601  23.068  38.966  13.994
24986W        W96602   8.851   7.918   5.037
24987W        W96603  15.204  18.395  14.778
24988W        W96604  40.466   5.678   3.727
24989W        W96605  42.969   9.222  13.980
24990W        W96606  15.255   9.296  13.078
24991W        W96607  13.638  26.272  11.055
24992W        W96608  21.292  38.831  14.289
24993W        W96609  23.021  42.697   4.953
24994W        W96610  21.583  23.546   3.381
24995W        W96611  36.123  16.753   1.726
24996W        W96612   2.930  31.699  14.457
24997W        W96613  21.802  20.971  11.068
24998W        W96614  14.717  30.229  11.482
24999W        W96615  44.113  35.420   5.169
25000W        W96616  17.988  30.164   3.582
25001W        W96617  43.502  33.939   1.706
25002W        W96618  38.086  10.303   4.079
25003W        W96619  33.560  42.804   1.704
25004W        W96620  13.818  18.680   2.758
25005W        W96621  18.587  31.776   1.448
25006W        W96622  36.361  32.605  11.158
25007W        W96623  11.760   6.074  13.803
25008W        W96624   5.327  39.911   2.369
25009W        W96625  17.770  35.505   4.424
25010W        W96626  21.591  10.311   4.417
25011W        W96627   4.678  19.571   1.324
25012W        W96628  40.108   3.820  11.193
25013W        W96629   2.581  38.277   4.597
25014W        W96630  10.726  36.613   3.861
25015W        W96631  36.721  15.244  12.049
25016W        W96632  11.338  31.151  13.532
25017W        W96633  24.888  11.409  14.821
25018W        W96634  15.337   1.345  12.516
25019W        W96635  28.835  40.526  13.526
25020W        W96636  27.019   4.822   0.384
25021W        W96637  21.249  37.047   2.744
25022W        W96638  29.522  31.558   4.961
25023W        W96639  33.453  19.187   2.310
25024W        W96640  32.152  40.543  13.872
25025W        W96641  41.110  31.616  13.333
25026W        W96642  21.575  41.670   0.517
25027W        W96643  28.747  29.424  10.622
25028W        W96644  27.878  32.787  14.714
25029W        W96645  31.404   3.330  12.201
25030W        W96646  17.445  30.273  13.886
25031W        W96647  41.455  17.584  11.423
25032W        W96648  13.074   3.903   4.555
25033W        W96649   3.763   6.194   2.344
25034W        W96650  21.565   0.677   0.903
25035W        W96651   6.324  26.702   3.189
25036W        W96652   7.702  26.595   3.605
25037W        W96653  35.552  19.573   3.834
25038W        W96654  32.311  16.843   2.803
25039W        W96655   6.840   7.275   1.202
25040W        W96656  26.554   1.034  13.722
25041W        W96657  26.017  34.565   3.176
25042W        W96658   0.742  15.106  10.361
25043W        W96659  18.699  44.229  13.736
25044W        W96660  23.568  27.339   2.736
25045W        W96661  10.168   3.055   3.589
25046W        W96662   3.014  27.941   3.705
25047W        W96663   9.702   8.646   2.789
25048W        W96664  26.245  21.512  14.527
25049W        W96665   4.222  16.595   3.746
25050W        W96666  12.619   0.486  14.021
25051W        W96667  41.235  14.820  12.797
25052W        W96668   3.891   4.961  13.959
25053W        W96669   5.797  35.119   4.112
25054W        W96670  39.003   9.739  11.613
25055W        W96671  12.528   8.919  13.304
25056W        W96672  31.417  12.165  12.343
25057W        W96673  27.162   9.294   1.293
25058W        W96674  33.519  16.393  11.156
25059W        W96675   6.454  10.898   0.847
25060W        W96676  38.557  15.259   1.793
25061W        W96677  44.739  19.142  12.056
25062W        W96678  13.067  42.915   1.399
25063W        W96679  40.098  20.639   3.907
25064W        W96680  39.970  28.037   2.015
25065W        W96681  34.057   3.974   2.358
25066W        W96682  44.753  13.280  11.623
25067W        W96683   6.627  18.021   4.194
25068W        W96684  30.067  43.389   2.584
25069W        W96685  35.118  17.328  12.493
25070W        W96686   1.600  44.064  10.323
25071W        W96687  20.236  31.436   0.760
25072W        W96688   1.866   4.531  13.837
25073W        W96689  24.937  12.750  14.008
25074W        W96690  13.518  21.794   1.672
25075W        W96691  30.084  43.387   1.126
25076W        W96692   2.942  13.753   1.238
25077W        W96693  14.325   9.739   0.890
25078W        W96694  30.166   8.180  14.389
25079W        W96695  34.192  19.111   1.812
25080W        W96696  20.679   0.196  12.954
25081W        W96697   6.922  21.666  13.879
25082W        W96698  37.464  32.103  11.746
25083W        W96699  10.854   4.166  13.625
25084W        W96700   8.793  38.046  11.021
25085W        W96701   0.983  10.729   2.332
25086W        W96702  15.994  40.526   4.244
25087W        W96703  17.569  17.542   1.250
25088W        W96704  38.314  40.964  12.309
25089W        W96705   4.391   2.229   4.114
25090W        W96706  38.979  40.102  11.654
25091W        W96707  18.412  23.054  13.886
25092W        W96708  15.492   8.647  10.521
25093W        W96709   8.623  12.338  13.238
25094W        W96710  44.473   1.345   1.845
25095W        W96711  16.599   5.382   3.132
25096W        W96712  35.290  19.068   0.284
25097W        W96713  44.943  15.307   1.885
25098W        W96714  29.613  36.578  11.987
25099W        W96715  36.454  13.375  11.971
25100W        W96716  25.665  34.539   2.306
25101W        W96717  39.844  22.533  13.333
25102W        W96718  33.496  41.581  13.573
25103W        W96719  22.080   2.685  12.407
25104W        W96720   7.367  41.928   3.768
25105W        W96721  19.681   7.215   4.715
25106W        W96722  19.256  17.593   1.455
25107W        W96723  10.773  40.357  13.516
25108W        W96724  21.279  37.516   9.936
25109W        W96725  22.695  21.019  14.765
25110W        W96726  43.012  38.178   5.594
25111W        W96727  39.799  12.578  11.493
25112W        W96728  42.810   0.058   0.705
25113W        W96729  40.058  25.933   1.761
25114W        W96730   2.962   5.228   0.358
25115W        W96731   0.030  32.980   0.248
25116W        W96732   9.864   5.271   1.582
25117W        W96733  25.101  40.141   1.738
25118W        W96734   6.910  22.529  14.914
25119W        W96735  30.351  29.116  13.768
25120W        W96736  25.719  44.341   2.315
25121W        W96737  21.191  31.645  11.162
25122W        W96738  35.812  13.652   0.889
25123W        W96739   4.422  41.836  11.994
25124W        W96740  11.351  28.351  12.026
25125W        W96741   9.023  21.263   2.889
25126W        W96742   2.171  19.773  12.466
25127W        W96743  12.254  33.678  14.289
25128W        W96744  33.927  11.413   4.042
25129W        W96745  42.816   9.187   3.168
25130W        W96746  30.196   4.793  13.409
25131W        W96747   3.659  43.695  10.659
25132W        W96748   0.213  37.911   4.622
25133W        W96749  22.735  14.361   3.728
25134W        W96750  41.278  38.857   1.868
25135W        W96751   5.702   6.304  12.872
25136W        W96752  37.891  14.608  11.846
25137W        W96753  17.831  31.939  12.816
25138W        W96754   6.594   4.429   2.681
25139W        W96755  34.048  17.606   1.420
25140W        W96756  43.924  26.592  10.625
25141W        W96757  12.680  24.717  12.466
25142W        W96758  39.098   6.303   3.256
25143W        W96759  10.166  36.573   4.308
25144W        W96760  19.144   7.692  12.686
25145W        W96761  13.354  13.222  12.369
25146W        W96762  32.982   8.851   1.879
25147W        W96763   5.971  28.943  14.454
25148W        W96764  12.149  33.922  11.550
25149W        W96765  25.051  35.097   3.717
25150W        W96766  29.765  18.929   4.888
25151W        W96767   6.678  19.628   4.161
25152W        W96768  24.520  42.911   1.347
25153W        W96769   4.791   2.241   4.944
25154W        W96770   0.898  44.842  10.629
25155W        W96771  29.137  26.667   3.370
25156W        W96772  36.149  37.953   2.500
25157W        W96773  28.343   1.203  14.235
25158W        W96774  12.780  41.999   0.763
25159W        W96775   0.383  36.425  11.508
25160W        W96776   7.262  20.778   0.269
25161W        W96777  31.328  12.071  11.760
25162W        W96778   2.513  23.550   1.390
25163W        W96779  39.024  11.199   3.841
25164W        W96780  36.635  43.318   4.680
25165W        W96781  15.596  22.129  13.851
25166W        W96782  38.551  19.532  13.186
25167W        W96783  22.555   7.328   3.659
25168W        W96784  10.234   0.551  11.353
25169W        W96785  23.083  30.113   1.610
25170W        W96786   2.841  15.559  12.411
25171W        W96787  19.484   0.026  13.274
25172W        W96788  18.805  21.986   1.479
25173W        W96789   0.923  36.564   4.377
25174W        W96790   0.907  23.062  14.053
25175W        W96791  10.937  41.055   1.741
25176W        W96792  16.139  41.407   4.486
25177W        W96793  37.736  10.299  10.060
25178W        W96794   3.279  16.985   2.865
25179W        W96795  25.998  26.232   3.274
25180W        W96796  22.287  42.228   1.698
25181W        W96797  31.309  44.874   3.163
25182W        W96798  13.173   2.340  14.851
25183W        W96799   5.790  29.720   3.867
25184W        W96800  19.504  21.478   1.872
25185W        W96801   3.194  36.021   3.073
25186W        W96802  43.245  26.117  12.069
25187W        W96803  44.403  42.808   0.867
25188W        W96804  40.430  27.563   1.872
25189W        W96805   4.151  19.238  12.047
25190W        W96806  13.275  42.878   2.288
25191W        W96807  29.259  29.134   5.468
25192W        W96808  15.138   4.945  10.711
25193W        W96809  16.232  28.983  14.429
25194W        W96810  31.114  33.875  12.557
25195W        W96811  21.746   4.820  11.757
25196W        W96812  33.188  32.621   2.695
25197W        W96813  21.721  23.037   0.017
25198W        W96814  34.750  12.853  10.709
25199W        W96815  44.578   7.362  13.937
25200W        W96816  44.824  33.422   0.540
25201W        W96817  20.743  29.723  11.570
25202W        W96818   1.192  23.549   4.631
25203W        W96819   4.982  17.200   1.976
25204W        W96820  18.061  22.732  14.566
25205W        W96821  10.505  38.308   9.986
25206W        W96822   3.244   1.885  13.541
25207W        W96823   5.465  11.796  14.027
25208W        W96824   9.745   0.283   3.291
25209W        W96825  17.259   8.623  14.447
25210W        W96826  25.444  36.801  12.898
25211W        W96827  21.032   5.780  10.532
25212W        W96828  44.476  23.452   0.975
25213W        W96829  19.099   3.688   1.683
25214W        W96830  18.761   0.123   9.669
25215W        W96831  10.733  27.647  10.369
25216W        W96832  13.735   4.851   3.187
25217W        W96833   1.723   4.720   1.902
25218W        W96834  26.449   1.414   4.220
25219W        W96835  15.712  14.144  12.468
25220W        W96836  31.567  27.224  12.449
25221W        W96837  27.043  40.104  14.891
25222W        W96838  27.938  14.876   1.134
25223W        W96839  43.196   8.662   1.450
25224W        W96840  24.885  23.084  11.496
25225W        W96841   6.087  30.991  12.043
25226W        W96842  28.225  33.309  13.882
25227W        W96843  21.583  32.848   4.751
25228W        W96844  22.165   4.056  11.627
25229W        W96845  21.329  38.332   0.560
25230W        W96846  44.977  21.030   2.061
25231W        W96847   8.201  26.780  12.497
25232W        W96848  15.820  38.012  10.563
25233W        W96849  17.204  31.695  12.754
25234W        W96850   6.216  12.133   5.091
25235W        W96851  28.998  38.849   2.649
25236W        W96852  10.216  13.652  14.789
25237W        W96853  29.252   4.941   1.251
25238W        W96854  24.684  39.058   4.738
25239W        W96855   3.358  10.930   3.888
25240W        W96856  17.374  20.030   2.150
25241W        W96857  33.969  27.372  14.357
25242W        W96858  35.437   9.769   3.084
25243W        W96859  15.894  11.802  11.264
25244W        W96860  17.839  42.808  14.473
25245W        W96861  35.126  39.292   0.140
25246W        W96862   7.487  16.180  11.689
25247W        W96863  34.574   3.295   1.621
25248W        W96864   9.873  14.839   3.798
25249W        W96865  17.937  22.564   0.864
25250W        W96866  11.398   9.787   0.793
25251W        W96867  16.254  16.895   3.721
25252W        W96868   7.859   2.550   3.612
25253W        W96869  21.664  39.492   1.510
25254W        W96870   0.891  15.780  11.121
25255W        W96871  18.648  13.811  13.877
25256W        W96872  21.279   3.400  14.716
25257W        W96873  21.224  13.651   2.324
25258W        W96874  21.168  26.153  14.804
25259W        W96875  27.296  42.339   0.108
25260W        W96876  10.221   7.283  10.726
25261W        W96877  14.437  34.666   3.730
25262W        W96878  29.057  29.975   4.617
25263W        W96879  43.927  28.453  14.444
25264W        W96880  32.320  11.259  10.139
25265W        W96881  37.290   9.359  14.135
25266W        W96882  12.690  19.774   3.270
25267W        W96883  21.105   0.152  10.468
25268W        W96884  13.189  27.206  13.936
25269W        W96885  35.549   3.912   3.705
25270W        W96886   2.385  31.567   1.699
25271W        W96887  31.689  44.448   5.058
25272W        W96888  24.567  22.498   4.655
25273W        W96889   9.144  38.278  10.733
25274W        W96890   2.467  42.535   2.793
25275W        W96891  36.096  20.910  11.478
25276W        W96892  29.280  14.318   0.447
25277W        W96893  38.989  16.874   2.736
25278W        W96894  24.587   9.186  14.363
25279W        W96895   3.989   2.274   0.732
25280W        W96896  29.956  24.179   2.152
25281W        W96897  31.142  41.822   4.034
25282W        W96898  21.574  16.618  10.981
25283W        W96899  39.952  19.276  10.560
25284W        W96900  14.811   9.692  11.923
25285W        W96901   2.150  44.939  14.481
25286W        W96902  11.043   8.127   3.273
25287W        W96903  40.599   6.672  12.901
25288W        W96904  43.937  22.149   1.639
25289W        W96905  15.573  30.578   0.673
25290W        W96906  38.572  29.285   3.406
25291W        W96907  20.758  30.433  13.305
25292W        W96908  30.846  13.125   2.350
25293W        W96909   3.322  37.023   4.605
25294W        W96910   7.146  20.523   1.692
25295W        W96911   0.374   0.683  14.552
25296W        W96912   4.136  23.496  13.738
25297W        W96913  36.562  35.413  13.868
25298W        W96914  11.238  38.243  12.579
25299W        W96915  23.783  36.383   2.124
25300W        W96916   8.241  36.294   1.861
25301W        W96917   6.808  27.658   2.247
25302W        W96918  16.729  34.648  14.250
25303W        W96919   6.879   9.740   1.329
25304W        W96920  12.084  33.962  14.697
25305W        W96921   3.369   4.885   1.429
25306W        W96922  38.985  23.917   4.976
25307W        W96923   1.933  43.998   1.741
25308W        W96924  43.870  16.557  12.884
25309W        W96925  37.194  22.115   1.417
25310W        W96926   6.664  30.513   4.129
25311W        W96927  30.117  14.733   0.950
25312W        W96928  29.004  40.811   3.581
25313W        W96929  36.102  13.431  14.906
25314W        W96930   7.937  38.464  12.359
25315W        W96931  27.954  23.612  12.591
25316W        W96932   0.318  11.699  14.396
25317W        W96933  15.923  27.690   1.258
25318W        W96934  39.391  28.094  10.694
25319W        W96935  17.284  41.006  14.231
25320W        W96936  18.720  12.390  11.530
25321W        W96937  37.676   8.735   2.962
25322W        W96938  39.901  33.376  13.890
25323W        W96939  43.356   6.193   1.761
25324W        W96940  27.454  12.508   3.425
25325W        W96941  34.131  43.977  10.563
25326W        W96942  36.864  19.936   1.801
25327W        W96943  20.590  34.571   1.689
25328W        W96944  14.141  14.897   2.777
25329W        W96945  35.810   4.399  13.363
25330W        W96946  27.130  44.061  11.977
25331W        W96947  25.954  42.297  11.633
25332W        W96948  44.910  30.183   3.692
25333W        W96949   5.980  12.989  13.191
25334W        W96950  21.125  24.417   2.782
25335W        W96951  28.931  10.187  11.066
25336W        W96952  36.514  11.314  10.252
25337W        W96953  15.773  35.441  11.489
25338W        W96954  39.483  11.334   3.612
25339W        W96955  31.767  38.405   0.891
25340W        W96956   6.666   5.240   0.368
25341W        W96957  41.038   5.001  12.548
25342W        W96958   9.694   0.480   3.785
25343W        W96959  23.922  17.236  11.860
25344W        W96960  30.077  10.620  14.470
25345W        W96961  38.282   7.976   4.124
25346W        W96962   0.318  25.190   4.551
25347W        W96963   8.291   1.029  13.921
25348W        W96964  25.419   7.463  12.416
25349W        W96965  38.065  37.052  10.957
25350W        W96966  26.113  31.960   0.303
25351W        W96967  15.280  24.637   3.432
25352W        W96968   8.101   3.259  12.112
25353W        W96969  12.937  30.024  11.095
25354W        W96970  41.391  41.343  12.479
25355W        W96971   3.958  40.300   2.340
25356W        W96972  10.499  12.091   9.959
25357W        W96973  24.632  12.664   2.806
25358W        W96974  19.818  25.977   2.156
25359W        W96975  40.606  30.498  11.846
25360W        W96976   2.219  32.873  12.999
25361W        W96977  31.611   2.367   3.425
25362W        W96978  18.330  14.185   0.739
25363W        W96979  19.586  27.657  14.298
25364W        W96980  13.211  28.254   4.720
25365W        W96981  25.085  14.560   2.236
25366W        W96982  21.213   5.945   2.908
25367W        W96983  40.793  44.531   3.151
25368W        W96984  16.257  11.681   4.676
25369W        W96985   1.965  18.059   3.332
25370W        W96986   6.264  14.408   2.775
25371W        W96987   8.343  13.363  14.761
25372W        W96988  44.351  23.392   2.823
25373W        W96989  44.098  37.419   3.686
25374W        W96990  21.559   0.218  12.779
25375W        W96991   3.265   4.811   0.425
25376W        W96992  18.948  23.847  13.570
25377W        W96993  15.379   0.389   1.729
25378W        W96994  25.888   9.166   3.134
25379W        W96995  23.934  30.056  10.710
25380W        W96996   7.216  22.642   4.626
25381W        W96997  23.663  21.714  12.620
25382W        W96998  17.594  44.287  11.116
25383W        W96999  13.885  35.382  10.791
25384W        W97000  27.031  37.464   0.779
25385W        W97001  25.628  34.497  11.194
25386W        W97002  20.598  37.440   1.194
25387W        W97003  18.254  44.530  13.483
25388W        W97004  12.733  11.839  13.516
25389W        W97005  41.838  37.075   4.683
25390W        W97006  16.575  22.526   2.314
25391W        W97007  29.980  31.502  11.668
25392W        W97008  27.531  14.152   1.742
25393W        W97009  25.273   9.156   2.377
25394W        W97010   8.806  17.375  13.290
25395W        W97011   5.644  38.556   0.824
25396W        W97012  32.467  34.518  11.043
25397W        W97013  17.367  10.835  11.578
25398W        W97014  38.001   0.809   1.620
25399W        W97015  34.497  36.267   1.259
25400W        W97016  30.990  14.217   0.780
25401W        W97017   5.814  18.708  10.474
25402W        W97018  37.380   6.696  10.848
25403W        W97019  11.646   5.208   2.715
25404W        W97020  22.718  22.898   3.251
25405W        W97021  20.707   7.668  12.959
25406W        W97022  12.300  36.178   1.368
25407W        W97023  42.646  36.866   0.474
25408W        W97024   2.970  18.366  11.902
25409W        W97025  29.528  43.468   1.570
25410W        W97026  34.788  10.308  12.955
25411W        W97027  40.280   7.676  14.362
25412W        W97028  34.173  19.135   4.217
25413W        W97029  29.388  24.265  13.507
25414W        W97030  42.029  22.131   3.254
25415W        W97031  16.359  37.220  12.059
25416W        W97032  25.586   2.230   3.158
25417W        W97033  11.504  40.055  10.650
25418W        W97034  23.228  42.268  11.314
25419W        W97035   1.570  14.529  11.382
25420W        W97036  13.807  10.154   4.530
25421W        W97037   2.806  20.850   0.396
25422W        W97038  11.599  40.568   4.051
25423W        W97039   2.485  41.999   2.746
25424W        W97040  31.635  35.577   0.358
25425W        W97041  31.555  27.671   0.412
25426W        W97042  13.624  16.313  12.011
25427W        W97043  24.013  25.753  11.979
25428W        W97044  22.587  16.715   3.132
25429W        W97045  37.826   4.940   4.201
25430W        W97046  31.938   1.218  12.015
25431W        W97047  10.761  17.590   3.321
25432W        W97048  35.837  13.281  12.851
25433W        W97049  43.835  36.388   5.002
25434W        W97050   4.402  19.441   4.683
25435W        W97051  39.626  37.016   2.766
25436W        W97052  40.239  43.885   4.836
25437W        W97053   5.605  26.669  10.740
25438W        W97054  16.389  44.302  11.385
25439W        W97055   6.690  33.508   4.545
25440W        W97056  13.809   9.153   1.375
25441W        W97057  17.987  29.438  14.718
25442W        W97058  24.382  19.643  12.944
25443W        W97059  27.899  13.617   3.812
25444W        W97060   8.384  41.767  14.731
25445W        W97061  39.521  39.082   3.431
25446W        W97062   9.678  38.373   4.240
25447W        W97063   5.253  24.707  13.863
25448W        W97064  44.913  34.033   2.582
25449W        W97065   8.271  10.762   0.453
25450W        W97066   3.902  11.737  12.094
25451W        W97067  19.593  43.773  12.341
25452W        W97068  22.223  26.126  12.042
25453W        W97069  11.216  35.616  13.872
25454W        W97070   9.884   8.617   3.695
25455W        W97071   4.679  39.561   3.698
25456W        W97072   5.335  31.019   1.161
25457W        W97073  26.764  19.760  12.950
25458W        W97074  20.504  39.456  11.577
25459W        W97075  40.920  34.626  14.548
25460W        W97076   6.770  28.420  12.451
25461W        W97077   4.936  37.837   2.141
25462W        W97078  30.850  24.537   3.904
25463W        W97079  23.505  38.772  12.973
25464W        W97080   2.992  29.188   0.498
25465W        W97081  10.275   8.495  10.652
25466W        W97082   1.606  29.194   3.737
25467W        W97083  32.518  37.287   1.662
25468W        W97084  30.120   7.295  10.703
25469W        W97085  23.300  20.966  13.008
25470W        W97086  31.385   4.324  10.738
25471W        W97087  39.351  17.322  11.986
25472W        W97088  22.688  18.475   3.186
25473W        W97089  18.953  12.394   0.654
25474W        W97090   6.359  36.530   4.167
25475W        W97091  27.134  29.008  11.729
25476W        W97092  23.655  28.457  14.387
25477W        W97093  35.892  26.996   2.232
25478W        W97094  33.928  20.208   4.687
25479W        W97095  44.560   9.811   1.875
25480W        W97096  28.602   2.949   3.431
25481W        W97097  17.170  23.592  13.641
25482W        W97098  42.634  42.074   3.947
25483W        W97099  27.558  31.957  10.703
25484W        W97100  21.445  27.405   3.186
25485W        W97101   2.708  24.740   0.816
25486W        W97102  36.613  14.139   4.727
25487W        W97103  13.644   4.505   3.571
25488W        W97104  35.935  24.130  11.212
25489W        W97105  15.102  28.050  12.607
25490W        W97106   4.650   9.763  11.728
25491W        W97107  41.943   2.381  10.797
25492W        W97108  19.173  37.838   0.933
25493W        W97109  42.470  36.388   2.079
25494W        W97110   2.540  10.682   3.335
25495W        W97111  37.099  27.638   1.278
25496W        W97112  35.239  19.818  10.917
25497W        W97113  29.244   8.497   0.880
25498W        W97114  25.559  30.549   2.328
25499W        W97115  23.399  21.036   1.286
25500W        W97116  35.206   5.966   3.782
25501W        W97117  34.151  31.058  10.451
25502W        W97118  18.160  44.855   4.355
25503W        W97119  30.540  36.526  13.472
25504W        W97120  15.356   6.743   0.418
25505W        W97121  43.731  43.832  13.832
25506W        W97122   5.181  27.172  12.511
25507W        W97123  19.063   3.412  14.348
25508W        W97124  28.535   6.173   1.506
25509W        W97125  37.047  41.584   4.930
25510W        W97126  35.320   6.326   4.540
25511W        W97127   5.656  33.875  12.123
25512W        W97128  23.240  22.385   4.966
25513W        W97129   7.361  29.576   2.775
25514W        W97130  13.621  32.472  13.516
25515W        W97131  17.570  12.053   2.473
25516W        W97132  14.076  35.424  14.358
25517W        W97133  22.786  32.522   1.932
25518W        W97134  31.958   2.572  10.290
25519W        W97135  14.667  21.762   3.287
25520W        W97136  32.413   6.041   1.001
25521W        W97137  18.798  10.770   3.845
25522W        W97138   7.114   0.344   2.625
25523W        W97139   7.335  10.713  14.885
25524W        W97140  44.790  29.665  14.642
25525W        W97141   3.533  17.341  11.573
25526W        W97142  23.754  18.658   2.204
25527W        W97143  35.079  35.142  14.385
25528W        W97144  17.228  34.056   4.727
25529W        W97145  35.717  10.426   1.666
25530W        W97146  33.493  24.543  13.145
25531W        W97147   3.752  39.195   3.719
25532W        W97148  36.810   4.378  13.425
25533W        W97149  26.867   6.831   4.272
25534W        W97150   5.002  33.096   1.452
25535W        W97151  33.515  43.849   3.565
25536W        W97152   4.316  29.583  13.002
25537W        W97153  27.411  32.835  11.674
25538W        W97154  42.152  30.745   4.777
25539W        W97155  33.292  28.197   2.830
25540W        W97156  31.777  38.389  14.534
25541W        W97157  21.750   0.662   4.136
25542W        W97158  44.389   6.851   1.487
25543W        W97159  22.410  16.689  13.304
25544W        W97160  16.849  18.259   2.811
25545W        W97161  14.412  32.623  14.917
25546W        W97162  22.739  36.458   3.579
25547W        W97163  23.948  20.604   0.859
25548W        W97164  42.741  24.053   2.846
25549W        W97165  26.941   0.383   2.974
25550W        W97166  39.771  33.062   0.805
25551W        W97167  38.472  39.295   2.074
25552W        W97168  25.389  36.933  10.705
25553W        W97169  41.398  37.751   0.128
25554W        W97170   0.869   2.499   1.788
25555W        W97171  31.556  14.151   0.029
25556W        W97172  42.088  35.420  10.853
25557W        W97173  36.311  19.597   2.252
25558W        W97174  32.205  36.840  13.326
25559W        W97175  42.847  26.298   0.921
25560W        W97176   3.042  18.592  14.591
25561W        W97177   5.070  16.438   2.695
25562W        W97178  33.598  30.407   4.094
25563W        W97179   2.083  31.617   0.883
25564W        W97180  39.066   1.012  14.790
25565W        W97181  33.156   1.448  10.331
25566W        W97182  14.493  42.133  11.560
25567W        W97183   3.738  18.859   1.696
25568W        W97184   8.442  11.333  11.117
25569W        W97185  39.638  19.606  14.015
25570W        W97186  30.613  36.350  12.143
25571W        W97187  33.930  14.959   1.323
25572W        W97188  16.690  13.400   1.086
25573W        W97189  40.387  17.212  13.567
25574W        W97190  39.622  33.071   2.748
25575W        W97191  23.522  25.087   0.217
25576W        W97192  31.647  17.674   4.128
25577W        W97193  25.072  16.751  11.561
25578W        W97194   1.380   0.912  14.319
25579W        W97195  43.049  27.409   4.062
25580W        W97196  41.039  18.364  11.388
25581W        W97197   5.865  36.625  11.257
25582W        W97198  10.193  37.261   1.416
25583W        W97199   0.927   6.227  10.641
25584W        W97200   1.178  34.025   3.430
25585W        W97201  19.960   8.328  12.810
25586W        W97202  36.731  28.598  11.936
25587W        W97203  18.646  35.822  12.995
25588W        W97204  43.765  15.449   1.587
25589W        W97205  13.304  19.037  13.000
25590W        W97206  23.799  12.245  13.869
25591W        W97207  18.109  43.530  10.261
25592W        W97208   2.059   6.365  12.561
25593W        W97209  25.498  34.047  12.691
25594W        W97210   6.393  41.963   1.666
25595W        W97211  31.454  14.202  13.382
25596W        W97212  36.055  44.080   3.714
25597W        W97213  30.175  19.548   2.302
25598W        W97214  39.331  39.200  13.881
25599W        W97215   0.383  37.188  12.973
25600W        W97216  37.710  10.482  12.564
25601W        W97217   9.747  35.999   3.856
25602W        W97218  12.360  37.824  12.387
25603W        W97219  28.585   9.364   0.935
25604W        W97220  17.328  13.738  14.521
25605W        W97221  35.308  12.144  13.387
25606W        W97222  34.964  33.073   4.402
25607W        W97223  36.463  43.853  12.237
25608W        W97224   7.765   2.802  11.444
25609W        W97225  12.725  18.190  11.557
25610W        W97226  41.526  42.429   4.055
25611W        W97227  25.229  31.506  13.525
25612W        W97228  26.999  37.671   3.164
25613W        W97229  30.384   3.168   1.567
25614W        W97230  35.524  24.615  10.696
25615W        W97231  29.584  35.867   3.260
25616W        W97232  17.631  15.399  11.013
25617W        W97233  44.483  31.654  11.499
25618W        W97234  39.639  31.002   3.194
25619W        W97235  42.599  27.736  11.136
25620W        W97236  33.053  24.263   4.572
25621W        W97237   1.466  24.657   4.021
25622W        W97238  32.521   7.734   3.274
25623W        W97239  36.614  44.056  13.125
25624W        W97240  42.381  39.398  11.531
25625W        W97241  18.167  43.994  12.602
25626W        W97242   3.997  20.514  14.935
25627W        W97243  12.632  32.506  12.446
25628W        W97244  38.800   5.596  12.556
25629W        W97245  20.706  22.609   0.742
25630W        W97246   8.985  15.967   5.156
25631W        W97247  25.083  33.157  10.212
25632W        W97248  42.954  44.003   0.810
25633W        W97249  29.940   1.842  11.566
25634W        W97250   4.172  31.161   4.607
25635W        W97251  31.386   6.653  10.713
25636W        W97252  16.748  39.270  10.391
25637W        W97253   1.937  15.988  13.992
25638W        W97254  25.103  29.119  11.510
25639W        W97255  15.768  42.851   1.229
25640W        W97256   3.283   7.660   0.356
25641W        W97257  43.002  24.105   4.681
25642W        W97258  27.613  28.650  10.664
25643W        W97259  34.240   6.215   0.970
25644W        W97260  25.651  28.437  13.030
25645W        W97261  31.927  44.698  14.322
25646W        W97262  32.395   0.422   0.766
25647W        W97263  31.021  39.708  14.750
25648W        W97264   5.943  29.692   1.476
25649W        W97265  15.696  12.888   0.183
25650W        W97266  18.075  15.101   3.348
25651W        W97267  19.636  32.591   0.514
25652W        W97268  39.443  22.607   1.716
25653W        W97269  40.473  25.930  11.938
25654W        W97270   9.662   0.840  14.954
25655W        W97271   3.220  32.980  14.031
25656W        W97272  27.966  14.359  11.710
25657W        W97273  27.434  43.027   3.080
25658W        W97274   9.796   0.984  10.726
25659W        W97275  39.974  41.971   1.968
25660W        W97276  30.125  12.112   3.756
25661W        W97277  39.854  16.744   1.766
25662W        W97278  30.528  21.199   0.557
25663W        W97279  24.636  12.849  11.240
25664W        W97280  35.363  24.978  14.698
25665W        W97281   8.244  14.044   0.895
25666W        W97282  30.348  13.302   2.361
25667W        W97283  11.900  15.315  14.458
25668W        W97284  41.414  11.690   0.768
25669W        W97285  43.621  20.771  12.913
25670W        W97286  22.640   1.504  12.179
25671W        W97287   2.170  39.827   2.908
25672W        W97288  29.126   4.522  12.232
25673W        W97289  24.994  15.154  12.797
25674W        W97290   1.513  18.142  11.934
25675W        W97291  20.156  14.221   2.796
25676W        W97292  14.006  22.008   1.752
25677W        W97293   4.183  13.147  14.483
25678W        W97294  40.265  18.261  14.704
25679W        W97295  18.990  40.893   3.064
25680W        W97296   9.341  14.644   1.722
25681W        W97297  19.779   7.109  13.092
25682W        W97298  40.721  16.334  13.654
25683W        W97299  14.057  27.586   3.450
25684W        W97300  43.910  31.046  11.899
25685W        W97301   5.231  24.229   2.221
25686W        W97302  16.616  25.667   4.115
25687W        W97303  34.881  17.041   1.189
25688W        W97304   8.873  39.349  13.089
25689W        W97305  16.267   2.938   1.616
25690W        W97306  27.694  39.383   2.236
25691W        W97307  41.765  10.158   1.360
25692W        W97308  34.014  26.277   9.929
25693W        W97309   8.990  17.211   1.350
25694W        W97310  30.423  34.741   3.063
25695W        W97311   5.209   3.044   3.726
25696W        W97312  24.932   7.665  12.491
25697W        W97313   6.610  31.109   3.601
25698W        W97314  26.038  44.334   3.256
25699W        W97315   1.490  13.545   0.229
25700W        W97316   5.075  16.709  14.475
25701W        W97317  17.404  28.702   3.679
25702W        W97318  14.202  12.727  12.445
25703W        W97319  20.898  31.390   1.875
25704W        W97320   4.709   7.135  12.001
25705W        W97321  22.539  14.406  13.881
25706W        W97322  20.170  32.231   4.254
25707W        W97323  25.957   4.928  13.833
25708W        W97324   6.311  23.076   1.807
25709W        W97325  28.701  15.030   0.628
25710W        W97326  33.656  39.080   5.022
25711W        W97327  22.503  25.586   1.804
25712W        W97328   1.446  39.406  13.321
25713W        W97329  33.883  23.234  14.410
25714W        W97330  42.789  36.555   4.189
25715W        W97331   8.417  25.627  11.881
25716W        W97332  42.066  32.937  10.526
25717W        W97333  17.473  19.508   4.640
25718W        W97334  42.614  18.303  14.533
25719W        W97335  37.236  21.232   5.055
25720W        W97336  23.229  37.453  14.061
25721W        W97337  11.796  35.845   3.322
25722W        W97338  29.744   5.704  14.931
25723W        W97339  29.040  34.271  12.069
25724W        W97340  26.271  29.655  14.183
25725W        W97341  13.915  26.785  14.092
25726W        W97342   5.880  18.065  14.962
25727W        W97343  10.711  41.475  14.542
25728W        W97344  20.781  43.788  12.792
25729W        W97345   6.399   2.910   0.019
25730W        W97346  15.795   7.911  11.134
25731W        W97347  24.640  25.884  13.946
25732W        W97348  32.468  33.874  11.821
25733W        W97349  26.706  32.532   0.954
25734W        W97350   5.878  31.391   2.278
25735W        W97351   0.755  43.122  14.883
25736W        W97352  39.448  10.900   2.690
25737W        W97353   6.891  42.400   2.329
25738W        W97354  29.810  18.103   4.130
25739W        W97355  23.965  44.480   4.122
25740W        W97356  37.430   9.816   4.710
25741W        W97357   2.743  31.963  14.019
25742W        W97358   9.425  40.021   4.209
25743W        W97359  10.328   3.930   5.014
25744W        W97360  24.480  43.294  12.976
25745W        W97361  33.086  40.048  11.070
25746W        W97362  17.952  32.646   0.005
25747W        W97363  11.113  40.385  13.951
25748W        W97364   6.050   1.928   0.448
25749W        W97365  36.661   6.325  14.457
25750W        W97366  24.688  30.575  13.299
25751W        W97367  36.531   7.373   2.378
25752W        W97368  42.292   5.265   2.777
25753W        W97369  23.553   8.641   4.521
25754W        W97370   2.292  27.575  13.312
25755W        W97371   2.509  16.025   2.716
25756W        W97372  34.115  15.526  12.075
25757W        W97373   6.744  29.499  12.128
25758W        W97374  34.492   8.813   0.078
25759W        W97375  38.855  38.357  13.006
25760W        W97376  36.550  39.550   0.386
25761W        W97377  31.468  11.681  14.002
25762W        W97378  34.145   7.515   4.181
25763W        W97379   9.790  27.653   1.273
25764W        W97380   3.340  43.555   0.765
25765W        W97381  35.074   4.452  11.631
25766W        W97382  11.600   3.272   2.025
25767W        W97383  31.821  27.996  10.281
25768W        W97384  28.639  37.821   0.017
25769W        W97385  15.839  43.090   3.320
25770W        W97386  30.867  41.332   4.276
25771W        W97387  24.136  21.673   2.761
25772W        W97388  33.350  23.783  12.478
25773W        W97389   6.029  34.190   3.314
25774W        W97390  38.752  13.865  10.173
25775W        W97391  42.193  22.739   2.857
25776W        W97392   1.316   7.406  13.950
25777W        W97393  37.080  31.081   4.726
25778W        W97394   1.340  11.645   3.206
25779W        W97395  44.914  31.892  11.120
25780W        W97396   0.846  30.094   1.895
25781W        W97397  15.870  31.921   1.296
25782W        W97398  41.531  40.399   4.867
25783W        W97399  29.861  40.872  10.609
25784W        W97400  21.716  19.766   2.121
25785W        W97401   9.947  26.547   3.740
25786W        W97402  29.426  10.948   3.671
25787W        W97403  29.614   6.052   3.874
25788W        W97404  17.496  20.462  12.376
25789W        W97405   8.477  33.994  14.077
25790W        W97406  12.902  37.511   0.939
25791W        W97407  15.754  35.601   3.722
25792W        W97408  21.935  33.605   2.685
25793W        W97409   5.251  29.400   0.865
25794W        W97410   9.863  20.287   4.608
25795W        W97411  44.943  12.686   3.166
25796W        W97412   3.215   6.225  11.736
25797W        W97413  11.784  37.955   4.817
25798W        W97414   2.895  24.563   3.076
25799W        W97415   5.865   7.803   2.167
25800W        W97416   0.797  18.215   1.291
25801W        W97417  26.359  38.298   1.765
25802W        W97418  29.599  28.665  14.717
25803W        W97419  42.624  12.597   0.405
25804W        W97420  17.836  31.515   3.455
25805W        W97421   7.588  13.893  13.527
25806W        W97422  36.696  30.575   0.463
25807W        W97423  25.135  35.313  11.541
25808W        W97424  10.890   3.278  13.767
25809W        W97425  18.333  41.490  14.904
25810W        W97426  27.589   1.774   2.413
25811W        W97427  31.974  39.689  10.802
25812W        W97428  16.677  10.585   1.845
25813W        W97429  27.077  37.099  13.845
25814W        W97430   8.877  16.866  14.512
25815W        W97431   3.220  36.849   0.338
25816W        W97432  31.876   6.816   3.402
25817W        W97433   3.654  17.074   9.939
25818W        W97434  18.624   7.430   2.618
25819W        W97435  26.599  40.667  11.092
25820W        W97436  32.169  27.180  13.382
25821W        W97437  25.213  14.810  13.954
25822W        W97438  16.183  24.483  10.537
25823W        W97439  13.624  18.600  13.102
25824W        W97440  40.832   7.609   1.486
25825W        W97441  13.344  31.847   1.363
25826W        W97442   2.892  35.200  12.415
25827W        W97443  38.793  44.537   2.313
25828W        W97444   9.525  40.066   1.241
25829W        W97445   6.285   1.359  10.930
25830W        W97446  25.972  21.673  13.557
25831W        W97447  32.705  26.198   3.640
25832W        W97448  40.137   3.125  12.569
25833W        W97449  37.929   8.310  13.544
25834W        W97450   3.334   8.193   2.134
25835W        W97451  16.496  43.310  12.377
25836W        W97452  12.234  15.186  12.098
25837W        W97453  29.707  32.645  14.227
25838W        W97454  19.526  15.733   4.622
25839W        W97455  10.309   4.734   4.579
25840W        W97456  31.648   0.439  10.590
25841W        W97457   2.876  24.567   1.728
25842W        W97458  29.467   8.807   3.579
25843W        W97459   4.424  33.832  13.511
25844W        W97460   7.722  37.655  13.049
25845W        W97461  16.831  40.072   0.799
25846W        W97462  25.608  41.472  14.317
25847W        W97463  29.982  10.632   0.010
25848W        W97464  10.098  17.245  10.761
25849W        W97465  14.320  41.992  12.009
25850W        W97466  41.408  15.811   1.332
25851W        W97467  18.163  42.093   0.350
25852W        W97468  15.844  15.773   5.502
25853W        W97469  44.899  44.757  13.519
25854W        W97470  18.180  27.899   2.270
25855W        W97471  34.749  41.721   1.459
25856W        W97472   4.658  31.146   4.949
25857W        W97473  18.101  34.748   3.211
25858W        W97474  17.612  40.500  13.394
25859W        W97475  23.439  36.087  14.475
25860W        W97476  38.833  23.595  11.664
25861W        W97477  19.794  15.352   4.313
25862W        W97478  39.554  32.791   0.413
25863W        W97479  19.675  25.804   2.798
25864W        W97480  12.357   8.837   2.915
25865W        W97481   4.351   5.652   1.280
25866W        W97482  22.760   1.017   4.133
25867W        W97483  39.372  16.327  14.011
25868W        W97484   3.519   7.722   2.282
25869W        W97485  32.048  25.879  10.698
25870W        W97486  35.786   4.048  11.147
25871W        W97487  36.109   6.980   3.278
25872W        W97488  14.686  10.817   4.786
25873W        W97489  26.991  33.914   0.210
25874W        W97490   9.268  42.335  11.538
25875W        W97491  11.842  24.185   5.084
25876W        W97492  19.797  22.583   4.157
25877W        W97493  14.242  32.052  12.962
25878W        W97494  42.378  40.382   0.869
25879W        W97495  17.045   2.276  14.854
25880W        W97496   4.322   4.278   1.887
25881W        W97497  14.080  29.976  14.390
25882W        W97498   6.410  24.193   2.292
25883W        W97499  27.586  37.772  13.935
25884W        W97500   9.258  10.420   0.228
25885W        W97501  26.742  44.507  10.607
25886W        W97502  32.080   1.693   1.789
25887W        W97503   6.650   0.882   4.868
25888W        W97504  32.122  20.540  11.319
25889W        W97505  14.098  25.648  11.980
25890W        W97506  13.015   8.502  11.162
25891W        W97507  32.563  35.657  14.968
25892W        W97508  35.038  37.143  11.279
25893W        W97509  37.640  36.022   2.271
25894W        W97510  22.033  19.428  14.313
25895W        W97511  13.413   1.707  12.505
25896W        W97512  12.677  23.165  12.893
25897W        W97513  36.115  41.341  13.268
25898W        W97514  18.245  14.277   4.618
25899W        W97515   6.100  19.599  14.560
25900W        W97516  25.455  13.257  14.569
25901W        W97517  23.261  34.916  11.101
25902W        W97518  22.042  32.716   4.941
25903W        W97519  32.014  17.855  11.816
25904W        W97520  13.254   0.324  12.662
25905W        W97521  41.414  32.466  11.800
25906W        W97522  33.510  28.761  10.779
25907W        W97523  43.888  14.064  12.782
25908W        W97524  24.012  36.115   3.536
25909W        W97525  25.581   8.521  13.417
25910W        W97526  16.821  40.995   1.943
25911W        W97527  42.294  38.353  13.392
25912W        W97528   6.897  44.796  14.404
25913W        W97529  22.141  37.466   1.543
25914W        W97530  27.643  13.881   5.037
25915W        W97531  17.540  17.720   2.822
25916W        W97532   3.077  36.661   3.574
25917W        W97533  34.294  27.866  11.112
25918W        W97534  32.000  20.931  12.097
25919W        W97535  42.778  12.751   2.618
25920W        W97536  12.691  32.350  11.401
25921W        W97537  30.849  24.994   3.638
25922W        W97538  43.747  44.374   1.565
25923W        W97539  41.278   0.999   2.118
25924W        W97540  16.203  31.562   2.312
25925W        W97541   3.336  23.160   1.182
25926W        W97542  11.214  26.180   1.296
25927W        W97543  26.243  42.426   0.903
25928W        W97544  41.405  29.088   2.101
25929W        W97545  13.759   6.055   5.392
25930W        W97546  16.809  34.169  14.133
25931W        W97547  42.814  38.426   4.297
25932W        W97548  34.973   7.780   2.817
25933W        W97549  22.257  39.414   2.794
25934W        W97550  23.825  28.098  13.011
25935W        W97551  19.655  16.743   4.687
25936W        W97552   8.893  27.447  13.342
25937W        W97553  14.919  27.490  11.243
25938W        W97554  34.109  22.544   4.514
25939W        W97555  33.358  14.295  13.497
25940W        W97556   2.018  16.771  12.080
25941W        W97557  37.006  27.161   4.897
25942W        W97558  25.437  40.556   1.723
25943W        W97559  15.339   8.864   2.833
25944W        W97560   5.696  18.733   3.851
25945W        W97561   2.388   8.797   4.668
25946W        W97562  39.153  20.823   5.157
25947W        W97563  44.844  44.816  11.341
25948W        W97564  17.214  21.253   4.116
25949W        W97565  26.179  18.495  12.955
25950W        W97566  15.786   9.442  13.242
25951W        W97567   5.096  38.037   4.614
25952W        W97568  34.521  20.550   3.378
25953W        W97569  37.547  37.341   1.296
25954W        W97570  42.929  42.710  14.406
25955W        W97571   2.435  25.563  11.136
25956W        W97572  19.079  42.989   4.055
25957W        W97573  31.252  21.634   2.879
25958W        W97574  27.412  35.476  12.550
25959W        W97575   4.633  43.034  13.945
25960W        W97576   5.390  37.537   1.769
25961W        W97577  11.279   8.231  13.650
25962W        W97578  19.490  31.722   4.693
25963W        W97579  14.101  36.312   0.682
25964W        W97580  26.041   5.361   3.171
25965W        W97581  18.810  14.903   2.162
25966W        W97582  28.946  17.874  11.461
25967W        W97583  13.384  33.527   4.128
25968W        W97584   0.206  39.513  12.093
25969W        W97585  42.541  21.476   3.169
25970W        W97586   3.348  13.488   1.365
25971W        W97587  31.955  30.891   4.646
25972W        W97588   6.545  42.478   0.467
25973W        W97589  23.846   6.512   0.025
25974W        W97590  34.553  19.071  12.886
25975W        W97591   2.694  21.342   0.170
25976W        W97592  27.411  13.129  12.135
25977W        W97593  22.990  14.335   3.256
25978W        W97594  21.772  43.849   1.267
25979W        W97595  35.602  44.774   4.297
25980W        W97596  21.723  10.631   2.635
25981W        W97597  20.025  34.976   0.984
25982W        W97598  33.024   6.220   1.810
25983W        W97599  41.369   6.187   2.301
25984W        W97600  41.853  44.008   1.697
25985W        W97601  37.579  13.537  13.491
25986W        W97602  25.844  12.146   0.045
25987W        W97603  19.221   9.004  13.379
25988W        W97604  26.042  22.947   3.214
25989W        W97605  30.391  22.538  14.304
25990W        W97606  21.818   6.635   4.181
25991W        W97607  14.296  21.395   3.318
25992W        W97608  44.922  40.852   4.219
25993W        W97609  23.658  41.182  13.893
25994W        W97610  37.491   2.065  11.078
25995W        W97611   6.805   5.729  12.044
25996W        W97612   2.251  28.572  10.510
25997W        W97613  38.445  14.803  11.923
25998W        W97614  19.946  14.605   4.110
25999W        W97615  22.570  23.194  12.047
26000W        W97616   1.892  38.549   4.179
26001W        W97617  34.572  22.952  11.750
26002W        W97618  20.754  26.245   3.735
26003W        W97619  21.684  33.885   1.270
26004W        W97620  23.967  11.193   4.697
26005W        W97621   3.039  18.572  12.362
26006W        W97622  11.370  26.672   1.482
26007W        W97623  22.721  34.543  11.470
26008W        W97624  17.489  27.097  10.665
26009W        W97625   4.781  16.718  10.911
26010W        W97626   7.392  43.814  12.942
26011W        W97627  14.850  38.536  11.579
26012W        W97628   3.614  15.263   4.320
26013W        W97629  18.459  43.438  11.547
26014W        W97630  28.158  12.698   4.146
26015W        W97631  31.495  35.948  10.715
26016W        W97632   5.733   8.355   4.531
26017W        W97633  33.886  29.369  12.844
26018W        W97634  25.889   4.671   5.072
26019W        W97635  19.681  32.875   0.067
26020W        W97636  11.582   2.740   0.823
26021W        W97637   7.279  23.196  10.713
26022W        W97638  42.336  13.289   1.690
26023W        W97639  41.978  22.460   0.264
26024W        W97640  27.165  14.099   2.616
26025W        W97641   4.450   7.792  11.841
26026W        W97642  43.595   4.277  12.524
26027W        W97643   0.379   5.738  12.419
26028W        W97644  41.334   3.830   3.516
26029W        W97645   1.721  22.283  13.413
26030W        W97646  24.181  38.021   3.152
26031W        W97647  35.788  20.014   4.128
26032W        W97648  19.493   6.303   1.638
26033W        W97649  43.306  25.127   4.525
26034W        W97650  28.860  16.832   4.504
26035W        W97651  17.745  43.848   3.807
26036W        W97652  26.511   7.937   4.260
26037W        W97653  41.816   4.775   3.280
26038W        W97654  17.307  41.583   3.125
26039W        W97655  41.677  14.280   2.735
26040W        W97656  43.045  32.574   1.913
26041W        W97657  43.984  41.641  12.338
26042W        W97658  19.558  39.980  12.523
26043W        W97659  29.561  34.778   2.835
26044W        W97660   6.174  16.205  13.955
26045W        W97661  22.516  31.638  10.786
26046W        W97662  18.075  12.446  12.011
26047W        W97663  35.137  14.345  12.896
26048W        W97664  23.642  38.052   3.828
26049W        W97665  18.830  26.240  11.088
26050W        W97666  35.555  24.044   2.730
26051W        W97667  20.264  17.114  11.980
26052W        W97668  16.832  18.668  10.053
26053W        W97669   5.488  27.660   3.812
26054W        W97670  14.665  20.757  11.597
26055W        W97671  31.401  43.898  13.882
26056W        W97672  22.123  24.584   2.795
26057W        W97673  11.925   4.075   1.362
26058W        W97674  14.454  37.804   2.506
26059W        W97675  32.185  24.679  12.021
26060W        W97676  22.696  43.790  11.901
26061W        W97677   3.463  19.803   0.068
26062W        W97678  21.465  31.466   0.407
26063W        W97679  42.682  14.196   2.814
26064W        W97680  43.895  44.367   0.087
26065W        W97681  34.586  18.620  14.964
26066W        W97682  25.257  12.609   1.665
26067W        W97683  29.372  41.395   1.048
26068W        W97684  26.244  24.763   0.428
26069W        W97685  16.023  44.812  13.412
26070W        W97686  13.303  31.381   3.291
26071W        W97687  32.406   3.367  10.748
26072W        W97688  35.066  36.969  13.563
26073W        W97689   7.879  38.305   2.382
26074W        W97690   9.329  36.499   3.884
26075W        W97691  16.866  28.006   4.152
26076W        W97692  18.067  18.195  13.029
26077W        W97693  29.885  41.834   3.336
26078W        W97694  22.621   0.946  13.380
26079W        W97695  21.891  29.487   4.036
26080W        W97696  17.013  25.415   3.302
26081W        W97697   1.838  29.175   2.371
26082W        W97698  28.960  18.151  11.034
26083W        W97699   6.086  23.185  13.800
26084W        W97700  11.325   7.978  11.908
26085W        W97701  36.501   2.254   5.094
26086W        W97702   2.834  39.430   3.131
26087W        W97703   3.652  10.128   3.384
26088W        W97704  11.659  41.577   4.558
26089W        W97705   4.871  28.108   0.484
26090W        W97706  39.862  13.353  14.233
26091W        W97707  17.298  10.178   3.299
26092W        W97708   0.436  15.574  14.103
26093W        W97709  35.167  11.864  14.420
26094W        W97710  19.217  18.651   1.894
26095W        W97711  20.252  22.673   3.877
26096W        W97712   5.846  17.363   0.766
26097W        W97713   2.503   6.871  10.644
26098W        W97714  36.865  38.373  13.060
26099W        W97715  18.544  28.907   4.161
26100W        W97716  18.757  31.883   3.947
26101W        W97717  33.961   0.943   4.536
26102W        W97718  21.500  15.086  11.131
26103W        W97719  16.049  43.551  12.429
26104W        W97720   5.844  25.578  11.997
26105W        W97721   6.134  42.571   3.785
26106W        W97722  44.568  25.781   3.662
26107W        W97723  10.316  33.339  13.758
26108W        W97724  37.611  26.694  11.242
26109W        W97725  39.722   4.200  14.387
26110W        W97726  17.020  37.971  13.897
26111W        W97727  34.413  27.604  10.703
26112W        W97728  13.768   1.944   1.475
26113W        W97729  10.733  33.467   2.370
26114W        W97730   3.669  22.470  11.088
26115W        W97731  44.709  35.158  13.425
26116W        W97732  35.768   2.720  14.257
26117W        W97733  42.005  21.056  11.659
26118W        W97734  28.278  18.470  14.899
26119W        W97735   9.868  12.346  11.668
26120W        W97736  42.440  15.129  14.929
26121W        W97737  24.238  29.176  11.705
26122W        W97738  33.393  11.867   1.134
26123W        W97739  40.727   3.382   4.130
26124W        W97740  14.093  31.515  14.798
26125W        W97741  13.262  41.290   2.263
26126W        W97742   0.663  33.081   0.987
26127W        W97743  33.601   7.974   0.543
26128W        W97744  43.172  10.760   1.664
26129W        W97745  35.160  37.240   2.756
26130W        W97746   3.496  27.476   4.381
26131W        W97747  39.888  43.532   4.636
26132W        W97748  34.421   4.726   1.360
26133W        W97749   3.373  30.019   4.501
26134W        W97750  33.881  26.276   0.041
26135W        W97751  37.486  30.643  12.731
26136W        W97752  20.148  12.633   4.551
26137W        W97753   7.691  20.463  14.401
26138W        W97754  37.932  35.972   3.185
26139W        W97755  38.826   0.148  12.052
26140W        W97756  33.636  32.588   1.850
26141W        W97757  14.870   3.797   5.066
26142W        W97758  29.100  41.679  12.966
26143W        W97759  38.567   3.347   5.073
26144W        W97760  32.602   3.702  14.084
26145W        W97761  36.209   5.817   4.633
26146W        W97762  22.017  43.470   4.505
26147W        W97763  30.177  14.037   3.784
26148W        W97764   5.088  21.748  13.285
26149W        W97765  25.057  10.419   3.986
26150W        W97766  27.105  13.677   2.222
26151W        W97767   9.092  14.646  13.808
26152W        W97768   4.496  21.589   2.702
26153W        W97769  21.098  18.031  14.925
26154W        W97770  37.284  33.915   4.644
26155W        W97771  24.266  21.847   3.689
26156W        W97772  25.654  41.058   0.805
26157W        W97773  18.294  15.203  13.795
26158W        W97774   5.982   4.007   3.113
26159W        W97775  12.700  37.144  12.496
26160W        W97776  41.837  27.443   0.243
26161W        W97777   3.999   5.199  11.390
26162W        W97778   5.026   4.574  11.393
26163W        W97779   4.506  34.819   2.796
26164W        W97780  36.096  12.340   3.976
26165W        W97781  16.017  18.948  11.690
26166W        W97782  26.941   2.466   4.185
26167W        W97783  25.686   8.228   2.157
26168W        W97784  19.449  41.117  14.463
26169W        W97785  26.080   3.935  13.930
26170W        W97786  10.816  38.525   2.289
26171W        W97787   0.276   5.653   1.729
26172W        W97788  40.732  24.248  11.252
26173W        W97789   5.252   0.967   3.628
26174W        W97790  33.157  22.195   2.230
26175W        W97791  16.287  13.109  11.572
26176W        W97792  11.954   9.300  11.202
26177W        W97793  40.711  19.360   4.482
26178W        W97794  13.533  24.035   0.320
26179W        W97795  28.601  18.163   3.951
26180W        W97796  22.004  32.326   2.383
26181W        W97797   1.616  28.661  12.136
26182W        W97798  19.811  34.839  14.668
26183W        W97799  41.545   2.250  12.958
26184W        W97800  15.834  35.969   1.148
26185W        W97801   4.680  19.293  12.019
26186W        W97802  12.446  34.865   1.390
26187W        W97803  11.779  42.371   3.280
26188W        W97804  15.582  29.149   0.948
26189W        W97805  38.129  41.145  13.352
26190W        W97806  41.531  36.185  10.628
26191W        W97807  16.639  44.923   1.636
26192W        W97808  43.713   3.685  11.066
26193W        W97809   0.859  13.761   3.359
26194W        W97810  17.653  39.455  13.769
26195W        W97811   2.538  18.525   3.114
26196W        W97812  28.118   3.121   3.237
26197W        W97813   6.353  43.334  10.566
26198W        W97814  27.101  10.931  11.452
26199W        W97815  29.933  42.914   2.762
26200W        W97816  28.481  35.669   1.898
26201W        W97817  20.072   4.462  11.373
26202W        W97818   2.965   0.883   0.951
26203W        W97819  20.263  28.281   3.432
26204W        W97820  34.185  14.188   3.765
26205W        W97821  34.840  20.118  14.733
26206W        W97822  39.971  16.071   1.247
26207W        W97823   8.249  41.277   2.676
26208W        W97824  35.106   1.601   3.812
26209W        W97825  27.150  44.216  12.466
26210W        W97826  35.576  26.259   0.333
26211W        W97827  23.629  28.066  10.493
26212W        W97828   5.414  18.264  13.490
26213W        W97829  26.141  33.497  12.362
26214W        W97830  12.499  28.094  11.571
26215W        W97831  41.984  44.528   4.608
26216W        W97832  17.253   9.161  13.436
26217W        W97833  42.844  13.232   2.397
26218W        W97834  11.195  24.946  14.505
26219W        W97835  23.813  32.087   3.677
26220W        W97836  44.524  16.096   2.604
26221W        W97837  27.488  15.534  10.919
26222W        W97838  28.698  24.659  12.044
26223W        W97839  25.166   7.915  12.109
26224W        W97840  33.410  20.225   4.847
26225W        W97841  33.673  33.575   2.858
26226W        W97842   6.068  40.424   1.448
26227W        W97843  14.281  41.005  12.020
26228W        W97844   8.421  16.186   2.705
26229W        W97845   3.789   9.330   0.745
26230W        W97846   4.497  40.044   2.831
26231W        W97847  32.376  23.108  10.714
26232W        W97848  34.416  43.800  12.855
26233W        W97849  38.515  30.647   0.241
26234W        W97850  37.209   3.491  11.714
26235W        W97851   8.298  28.018  13.833
26236W        W97852  39.288   8.296   2.162
26237W        W97853  10.744   3.832  10.765
26238W        W97854  39.408  13.764  13.824
26239W        W97855  14.684   2.418   0.634
26240W        W97856  44.549  30.423   2.235
26241W        W97857  40.269   6.770  14.307
26242W        W97858   8.829   8.271   2.322
26243W        W97859  16.693  10.373  14.360
26244W        W97860  15.924  27.679   5.162
26245W        W97861   2.289  33.543   1.271
26246W        W97862  43.412  20.832   0.202
26247W        W97863   9.730  33.861   1.933
26248W        W97864   7.830  30.128   1.873
26249W        W97865   6.182  16.286  11.471
26250W        W97866  12.442  17.897   3.690
26251W        W97867  20.346  30.483  13.637
26252W        W97868  31.829  34.447   3.006
26253W        W97869  19.508  18.692  10.610
26254W        W97870  23.132  30.203   3.468
26255W        W97871  38.585  28.793   0.327
26256W        W97872   8.433  43.369   1.464
26257W        W97873  13.576  36.452  12.891
26258W        W97874  27.220  43.454   0.955
26259W        W97875  16.772  14.410  14.937
26260W        W97876  43.388   8.191   3.746
26261W        W97877  31.449  12.920   1.728
26262W        W97878  42.928  33.203   2.679
26263W        W97879  43.962  26.196  14.033
26264W        W97880  43.484  22.408   1.012
26265W        W97881  18.980  26.555  13.387
26266W        W97882   0.812  37.356  11.145
26267W        W97883   8.671  11.096   0.315
26268W        W97884  34.058  40.514   0.907
26269W        W97885   9.465   9.168  11.172
26270W        W97886  37.483   2.707   4.473
26271W        W97887  25.216  14.446   1.409
26272W        W97888   3.552   2.616  11.709
26273W        W97889   8.327  21.097   4.579
26274W        W97890  35.556   5.368  11.085
26275W        W97891  16.214  18.780   1.655
26276W        W97892  18.292  40.476   4.137
26277W        W97893  38.482  38.090  11.696
26278W        W97894  16.874   4.346  13.395
26279W        W97895  44.718  15.127   1.300
26280W        W97896  38.317  43.311   4.437
26281W        W97897  38.122   8.882  13.331
26282W        W97898   0.014  22.084   0.308
26283W        W97899  28.509  30.365  13.559
26284W        W97900  42.278  11.627   0.342
26285W        W97901  11.292  26.592   0.972
26286W        W97902  16.034  23.760  13.482
26287W        W97903  13.049  24.059   0.116
26288W        W97904   4.242  30.914  10.677
26289W        W97905  15.199  18.684   3.213
26290W        W97906  31.077   6.767   3.587
26291W        W97907  11.931  11.002  14.753
26292W        W97908  14.725  37.373   2.434
26293W        W97909  17.923  22.304   3.627
26294W        W97910  24.112   6.625  12.961
26295W        W97911  23.532  31.940  12.301
26296W        W97912  11.900  42.866   3.320
26297W        W97913  39.305   8.345   1.187
26298W        W97914   1.810  40.421   1.612
26299W        W97915  24.836  33.628   5.164
26300W        W97916   1.166  34.104  11.321
26301W        W97917  43.198  21.081  12.931
26302W        W97918  40.070  29.559  11.944
26303W        W97919  12.928   4.376   2.045
26304W        W97920  27.217  10.866   1.287
26305W        W97921  36.468  32.009   1.322
26306W        W97922  17.495  25.638   3.440
26307W        W97923  35.272  39.984  11.120
26308W        W97924  18.878  43.466   2.459
26309W        W97925  13.439  38.903  12.514
26310W        W97926  42.693  43.467  12.009
26311W        W97927  31.541  19.213   0.771
26312W        W97928  28.938  44.515  11.175
26313W        W97929   9.603  35.580   1.363
26314W        W97930  21.651  40.800   4.627
26315W        W97931  21.480  37.497   2.874
26316W        W97932  11.821   6.746  11.361
26317W        W97933   7.080  15.687  14.335
26318W        W97934  37.868  13.343   1.240
26319W        W97935  20.737  28.474   3.277
26320W        W97936   0.844  30.547  11.196
26321W        W97937   2.157  43.747  12.419
26322W        W97938  12.871  35.023  10.528
26323W        W97939   4.917  11.743   3.164
26324W        W97940   1.053   1.732  13.095
26325W        W97941  26.985  36.493  14.882
26326W        W97942   3.787  29.070  12.557
26327W        W97943  14.608  19.241   3.674
26328W        W97944  30.546  16.163   3.123
26329W        W97945  27.132  36.817   0.280
26330W        W97946  28.583  16.212   3.246
26331W        W97947  13.220  18.077   4.163
26332W        W97948  34.898  14.063   1.710
26333W        W97949  14.904  39.639  14.838
26334W        W97950  31.676  26.738  14.469
26335W        W97951  15.122   0.511   4.198
26336W        W97952  18.092  38.897   0.967
26337W        W97953   2.905  44.517   4.522
26338W        W97954  30.535  43.416   0.361
26339W        W97955  32.778  28.965  12.372
26340W        W97956  17.787  23.533  13.048
26341W        W97957  41.340  16.231  12.959
26342W        W97958  41.468  20.635   2.675
26343W        W97959  14.534  23.195  13.052
26344W        W97960  25.231  26.079   1.787
26345W        W97961  39.629  12.392   4.102
26346W        W97962  19.548  37.586   2.332
26347W        W97963   7.781  31.142   3.673
26348W        W97964  34.162   7.241   1.850
26349W        W97965   6.524  31.975  12.411
26350W        W97966  24.507   8.658  13.001
26351W        W97967  35.493   9.568  11.595
26352W        W97968  32.189   5.947  13.331
26353W        W97969  29.668   0.489   0.372
26354W        W97970  30.149   7.329   2.776
26355W        W97971  16.199   2.800  11.252
26356W        W97972  21.573  15.768   2.972
26357W        W97973  13.141  19.354   4.634
26358W        W97974  29.361  40.581  14.381
26359W        W97975  30.519  26.965   5.184
26360W        W97976  11.634   0.880   1.764
26361W        W97977  41.820   6.062  13.991
26362W        W97978  44.902  10.335   2.568
26363W        W97979   1.912  20.178   3.841
26364W        W97980   6.829  39.478   4.085
26365W        W97981   1.397   3.465   4.303
26366W        W97982  10.390  32.644  12.955
26367W        W97983   8.476  25.159  12.910
26368W        W97984   0.467   3.523   1.599
26369W        W97985   4.903  41.875  10.657
26370W        W97986   6.723   8.944  13.390
26371W        W97987  37.351  39.150  12.637
26372W        W97988  26.990   5.949   3.687
26373W        W97989  19.523  20.100  13.762
26374W        W97990  32.492  34.396   5.149
26375W        W97991   4.466  34.944   0.689
26376W        W97992  11.557  41.017  10.717
26377W        W97993  27.397  11.734   2.682
26378W        W97994  20.702  32.004   0.681
26379W        W97995  28.442  32.159   4.351
26380W        W97996  33.315  43.059  10.926
26381W        W97997  14.317  16.771   4.645
26382W        W97998   7.860  14.828   0.930
26383W        W97999  11.347  36.046  11.987
26384W        W98000  12.193   9.767  14.363
26385W        W98001  32.244  26.407   5.194
26386W        W98002  17.806   4.755   3.236
26387W        W98003   4.161   1.956  11.563
26388W        W98004  10.123  13.607   2.670
26389W        W98005  29.030   2.831   1.782
26390W        W98006  29.047   6.809   4.164
26391W        W98007   7.134  22.951  11.836
26392W        W98008  21.088  17.998  12.404
26393W        W98009  10.324   6.217   0.017
26394W        W98010  30.626  27.197  11.676
26395W        W98011  37.913  22.109  13.809
26396W        W98012   8.206  29.167   4.515
26397W        W98013  13.099  41.949   2.815
26398W        W98014  27.981  35.543  13.448
26399W        W98015  15.168  21.682   3.199
26400W        W98016   2.783  25.431   3.674
26401W        W98017  11.601   1.420   4.381
26402W        W98018  24.228  32.395  13.939
26403W        W98019  13.820   8.736  13.013
26404W        W98020  27.758  18.561  14.222
26405W        W98021  30.392  21.982  13.885
26406W        W98022  36.367  27.496   1.885
26407W        W98023  17.299  11.341   1.387
26408W        W98024   0.315  11.198   0.664
26409W        W98025  24.537  35.410   4.619
26410W        W98026  34.003   6.867   2.222
26411W        W98027  29.723  10.769   4.100
26412W        W98028  19.003   3.996  14.889
26413W        W98029  42.265  35.534  14.574
26414W        W98030  32.570  18.026   2.710
26415W        W98031  15.266  11.586  14.313
26416W        W98032  29.884  30.138   0.038
26417W        W98033  42.449   2.251  12.974
26418W        W98034  43.978  16.018  10.994
26419W        W98035  38.115  19.699  12.963
26420W        W98036  36.078  40.598   4.170
26421W        W98037  23.216  11.161   2.675
26422W        W98038  19.216  19.967   1.171
26423W        W98039  24.295  23.994   0.129
26424W        W98040  30.025  11.335  12.324
26425W        W98041  16.892  16.340   4.987
26426W        W98042  39.491  39.797   1.261
26427W        W98043   6.692   1.494   3.350
26428W        W98044  12.440  43.209  12.926
26429W        W98045  36.124  15.156   0.000
26430W        W98046  41.074  18.355   2.329
26431W        W98047  16.653  18.525  10.515
26432W        W98048  40.981  18.001  13.282
26433W        W98049   3.406   2.243  11.393
26434W        W98050  18.720  23.866   4.605
26435W        W98051  25.810   6.687   4.596
26436W        W98052  38.528  23.297   0.704
26437W        W98053  11.917  17.603  13.923
26438W        W98054  25.619  37.102  14.988
26439W        W98055  14.825   2.464   3.150
26440W        W98056  32.050  40.067  14.843
26441W        W98057   5.960  18.477  12.547
26442W        W98058  34.861  17.328   1.803
26443W        W98059  18.124   4.231   2.655
26444W        W98060  19.646   7.829   2.658
26445W        W98061  40.292  17.131   3.232
26446W        W98062  12.093   5.453   2.774
26447W        W98063  19.690   6.060   2.800
26448W        W98064  20.478  38.323   3.716
26449W        W98065  21.157  12.066   1.945
26450W        W98066  20.238   1.359   4.814
26451W        W98067  39.868   8.764  13.917
26452W        W98068  38.966  30.595  10.779
26453W        W98069  26.262   8.442  11.138
26454W        W98070   3.899  40.514   3.211
26455W        W98071   2.031  43.905  11.542
26456W        W98072  34.986  28.545  11.124
26457W        W98073   6.427   1.274  12.571
26458W        W98074   0.873  31.063   1.820
26459W        W98075  10.244  35.479  13.587
26460W        W98076   5.645  27.354  11.532
26461W        W98077  37.799  20.377  10.818
26462W        W98078  37.400  29.553   3.116
26463W        W98079  12.392  16.625   4.229
26464W        W98080  31.899  17.742   0.340
26465W        W98081  12.746  15.634  12.606
26466W        W98082  18.485  44.000   2.212
26467W        W98083  30.249   8.652  11.402
26468W        W98084  36.872  13.663   1.161
26469W        W98085   1.491   8.350  10.775
26470W        W98086  19.014   9.478   1.334
26471W        W98087  43.990   8.638   2.761
26472W        W98088  13.234  12.198   3.631
26473W        W98089  28.529  24.710   4.657
26474W        W98090  11.937   0.990  14.527
26475W        W98091  31.478  37.575   3.274
26476W        W98092  29.777  16.090   5.037
26477W        W98093  35.338  12.902   2.315
26478W        W98094  16.196  26.934   2.356
26479W        W98095  18.638  33.928  14.714
26480W        W98096  21.241  39.779  12.991
26481W        W98097  28.275  36.506  10.666
26482W        W98098  21.620  22.852   0.521
26483W        W98099   9.692  16.699   2.815
26484W        W98100  32.967  22.472  12.642
26485W        W98101  25.600   8.695   4.538
26486W        W98102  40.612  42.272  11.995
26487W        W98103   3.402  17.732  13.122
26488W        W98104  29.702  36.176   4.086
26489W        W98105   2.508  32.613   4.963
26490W        W98106  39.259  39.704  11.107
26491W        W98107  18.517  35.459   3.736
26492W        W98108   1.174   8.521   1.247
26493W        W98109  14.184  39.580   4.033
26494W        W98110  40.464  14.575  14.309
26495W        W98111  33.985   7.142  12.557
26496W        W98112  17.887  11.765  10.989
26497W        W98113   5.452  41.405  10.607
26498W        W98114   2.166  37.648   3.403
26499W        W98115  14.521  28.395   1.359
26500W        W98116   3.422  36.644   2.617
26501W        W98117  17.190  15.290  12.508
26502W        W98118  44.816   0.418   4.649
26503W        W98119  33.118  14.281  13.005
26504W        W98120   2.848  22.179   0.700
26505W        W98121  31.681   2.323   3.941
26506W        W98122  15.660   1.946   0.500
26507W        W98123  16.709   1.512   1.491
26508W        W98124  37.012  28.709   4.688
26509W        W98125  33.589  29.997  13.354
26510W        W98126   0.741  14.912  11.052
26511W        W98127  20.517  36.594   2.362
26512W        W98128  34.204  32.942  13.200
26513W        W98129  32.966  33.401  11.561
26514W        W98130  38.604  41.007  11.530
26515W        W98131  28.532  33.861  11.197
26516W        W98132   2.403  37.287  14.884
26517W        W98133   2.525  24.512  10.687
26518W        W98134  21.329  11.070  10.349
26519W        W98135  33.941   4.690   3.670
26520W        W98136  35.124   6.773   0.289
26521W        W98137  41.131  28.498  13.987
26522W        W98138  35.117   6.709  13.071
26523W        W98139   1.209  44.204  12.449
26524W        W98140  13.157  43.337  13.402
26525W        W98141  41.556   6.833  12.993
26526W        W98142  19.478  35.397  12.469
26527W        W98143   5.981  42.445   1.689
26528W        W98144  27.581  40.945  10.548
26529W        W98145  30.998  35.265  13.365
26530W        W98146   3.864  42.836   1.581
26531W        W98147  36.991  39.194   1.838
26532W        W98148   1.603   2.642   2.590
26533W        W98149  34.624  38.244   2.786
26534W        W98150  42.505  11.636  13.470
26535W        W98151   4.637  22.095   1.645
26536W        W98152   5.104  16.809   4.671
26537W        W98153   2.676   8.808  11.451
26538W        W98154  44.501  37.574  13.369
26539W        W98155  13.264  19.888   4.565
26540W        W98156  30.351   2.841  12.574
26541W        W98157   1.914  11.349   2.204
26542W        W98158  33.618  31.006  10.629
26543W        W98159  15.569  32.181   3.163
26544W        W98160   8.040   1.806   1.828
26545W        W98161  18.560  25.023  10.644
26546W        W98162  36.452  32.018   3.160
26547W        W98163   1.290  32.484   4.618
26548W        W98164   3.244   3.467  12.010
26549W        W98165  29.658  19.492   2.354
26550W        W98166  25.660   7.190   1.773
26551W        W98167  20.790  37.608  12.596
26552W        W98168  38.570  33.692   0.209
26553W        W98169  41.462   0.294   2.389
26554W        W98170  18.632  22.266  14.337
26555W        W98171  31.079  24.954  11.544
26556W        W98172  37.519  37.551   5.022
26557W        W98173  20.050  37.061  13.824
26558W        W98174  24.638   2.795   4.769
26559W        W98175  35.806  16.202   4.758
26560W        W98176   7.472   6.758  14.020
26561W        W98177  42.313  11.378  14.049
26562W        W98178   4.873  11.783   2.608
26563W        W98179  19.772  36.305  12.720
26564W        W98180   7.276  43.604  13.426
26565W        W98181  14.158  29.288  12.010
26566W        W98182  38.441  36.781   4.681
26567W        W98183   8.168  10.936   1.852
26568W        W98184  20.855  30.076   0.772
26569W        W98185   1.765  12.917   2.689
26570W        W98186  18.835  24.942  12.837
26571W        W98187  36.911  35.625  10.729
26572W        W98188   9.241  31.972  11.065
26573W        W98189  42.017  33.482   3.605
26574W        W98190   9.230  17.342  10.296
26575W        W98191   3.302  18.281  13.340
26576W        W98192  38.515  36.362  10.638
26577W        W98193   5.265  32.645  11.901
26578W        W98194  15.988  24.328   0.064
26579W        W98195  35.697  29.088  13.655
26580W        W98196  33.813  41.723  13.189
26581W        W98197  22.783   6.867  13.130
26582W        W98198  21.159  37.614   0.995
26583W        W98199  13.743  21.563  12.651
26584W        W98200   1.455  43.401  13.526
26585W        W98201  27.726   2.774   4.217
26586W        W98202  40.193  25.312   4.235
26587W        W98203   7.242  27.149  12.496
26588W        W98204   2.435   2.187   4.187
26589W        W98205  32.874  33.427   2.299
26590W        W98206  13.720  42.722   4.231
26591W        W98207  40.338  21.197   1.969
26592W        W98208  20.011  27.641   0.071
26593W        W98209  31.478  25.162  14.152
26594W        W98210  42.980   2.438   0.342
26595W        W98211   5.582   1.012   2.006
26596W        W98212  43.780  10.741  14.951
26597W        W98213  11.488  39.401  14.987
26598W        W98214  24.761  42.981   0.850
26599W        W98215  35.378  30.097   4.974
26600W        W98216   8.739  43.990   3.251
26601W        W98217  22.261  30.397  12.046
26602W        W98218  17.543  33.336   0.609
26603W        W98219  36.870  21.654  11.763
26604W        W98220  32.649  38.593  13.495
26605W        W98221  14.262  39.937  12.955
26606W        W98222  18.870   0.375   0.229
26607W        W98223  34.023  32.053  13.828
26608W        W98224  12.880   8.679   1.184
26609W        W98225  36.863  11.109  14.852
26610W        W98226  15.569  14.367   3.621
26611W        W98227  38.540  14.626   2.602
26612W        W98228  17.683  39.996  13.844
26613W        W98229  44.738  12.852   2.235
26614W        W98230  28.447  18.803  12.111
26615W        W98231  23.581  35.030  12.460
26616W        W98232  38.289  34.386  11.056
26617W        W98233  26.229  24.818  11.207
26618W        W98234   7.791  34.344   3.374
26619W        W98235  15.660   1.010  14.893
26620W        W98236  33.401   8.842   0.545
26621W        W98237  39.002  20.107   4.103
26622W        W98238  44.668  13.657   4.050
26623W        W98239   2.679  18.737  14.927
26624W        W98240  43.418  18.677  13.287
26625W        W98241   2.599  34.855  12.744
26626W        W98242  12.879  33.376   5.052
26627W        W98243  40.757   5.977  12.423
26628W        W98244   6.719  38.353   4.085
26629W        W98245  23.601  30.936   3.229
26630W        W98246  27.727   5.406   2.337
26631W        W98247  21.036  23.433   1.207
26632W        W98248  11.802  24.292  10.535
26633W        W98249   5.917  39.322   3.052
26634W        W98250  31.462  14.610  14.351
26635W        W98251  28.146   4.890  10.781
26636W        W98252  20.875   4.476  13.374
26637W        W98253   1.461  36.525   4.507
26638W        W98254  41.462  13.766   1.365
26639W        W98255  37.102   6.560   2.375
26640W        W98256  20.779  10.967   3.366
26641W        W98257  37.760  34.606  11.055
26642W        W98258  38.133  22.133  12.814
26643W        W98259  30.910   7.588   2.602
26644W        W98260  22.393   2.250  12.515
26645W        W98261  11.189  24.291   3.328
26646W        W98262  14.187   6.600   3.200
26647W        W98263  17.712  12.209   3.467
26648W        W98264  21.981  26.721  10.948
26649W        W98265   9.304   3.703   2.415
26650W        W98266  30.042  20.541  13.046
26651W        W98267  18.520  11.907  11.571
26652W        W98268   4.979  21.087  11.645
26653W        W98269  29.207  28.767  12.100
26654W        W98270  20.191   2.609  14.384
26655W        W98271   4.234  41.092  13.405
26656W        W98272   1.371   8.094   3.758
26657W        W98273  24.159  36.290   3.040
26658W        W98274   6.689   0.967  11.516
26659W        W98275   8.890  38.375   2.962
26660W        W98276  35.633   8.702   4.965
26661W        W98277  20.278  31.873  12.574
26662W        W98278  11.120  19.219   2.601
26663W        W98279  34.828  37.396   4.571
26664W        W98280  24.715  31.886  11.064
26665W        W98281  34.177  36.141  11.655
26666W        W98282  18.158  16.112   4.568
26667W        W98283  11.832  11.897  10.150
26668W        W98284  41.440   2.730   3.394
26669W        W98285  12.645  35.747  12.609
26670W        W98286   3.345  31.122   4.540
26671W        W98287  38.705  28.535   2.604
26672W        W98288  40.174  33.959   0.784
26673W        W98289  28.892  44.177  13.992
26674W        W98290  24.552  19.569  14.943
26675W        W98291  30.582  18.283   2.305
26676W        W98292  23.119  23.665   1.499
26677W        W98293   4.488  36.541   0.062
26678W        W98294  14.675  38.373  11.130
26679W        W98295  21.146   4.280  12.403
26680W        W98296  38.646  29.658  14.438
26681W        W98297  13.719  32.572   4.172
26682W        W98298  40.399  15.730   4.525
26683W        W98299  24.702  26.917  11.806
26684W        W98300  10.278   5.312   0.448
26685W        W98301  24.721  22.538  13.911
26686W        W98302  12.301  10.590  10.567
26687W        W98303  33.544   0.306   0.312
26688W        W98304  38.776  25.256   3.729
26689W        W98305   3.412   2.915   1.334
26690W        W98306  24.575   9.250  12.673
26691W        W98307  13.409   5.886  14.302
26692W        W98308  34.238  30.588   1.940
26693W        W98309  33.443   4.373  13.594
26694W        W98310   2.406   0.327   5.060
26695W        W98311   4.592  34.827  14.851
26696W        W98312  36.890  29.800   3.213
26697W        W98313  21.943   3.683  12.566
26698W        W98314  39.577  39.889  12.487
26699W        W98315  34.470  25.517   1.846
26700W        W98316  36.619  25.764   2.183
26701W        W98317  17.195  26.077   0.492
26702W        W98318   9.300   5.694  12.878
26703W        W98319  36.303   4.481  13.472
26704W        W98320  30.001  33.864   4.135
26705W        W98321  12.248  31.620   0.849
26706W        W98322  34.992  23.248  12.935
26707W        W98323  40.765  16.733  11.530
26708W        W98324  35.393   8.685  13.740
26709W        W98325   3.239  36.150  14.753
26710W        W98326   5.010  14.715  12.765
26711W        W98327  38.730  24.906  14.319
26712W        W98328  43.467  17.192  11.145
26713W        W98329   8.411  26.003  11.004
26714W        W98330  25.782  26.577  14.419
26715W        W98331   8.750  28.660   1.223
26716W        W98332  15.316   5.747  11.103
26717W        W98333  33.092  21.897   1.782
26718W        W98334  43.416   7.801   2.903
26719W        W98335  26.625  12.361  11.582
26720W        W98336  11.679  41.540  14.514
26721W        W98337  13.027  12.718   1.948
26722W        W98338  27.488  15.217  12.460
26723W        W98339  17.766  10.611  13.777
26724W        W98340  36.958   5.155   2.441
26725W        W98341  31.638  11.569   4.895
26726W        W98342   6.407  38.340   4.532
26727W        W98343   8.308  23.803  14.970
26728W        W98344  42.427  33.868  13.770
26729W        W98345  11.388  30.032   1.977
26730W        W98346   1.710   2.620  12.357
26731W        W98347  11.918  43.377   0.823
26732W        W98348  41.089  24.617   0.326
26733W        W98349  11.233  39.855   1.140
26734W        W98350   8.898   0.992  11.570
26735W        W98351  26.192  22.119  13.322
26736W        W98352  40.113  38.946   3.056
26737W        W98353  30.352   0.284  13.953
26738W        W98354  38.820  39.367  11.160
26739W        W98355   2.390  18.051  13.840
26740W        W98356  23.936   7.259   0.009
26741W        W98357  12.425  34.503   3.751
26742W        W98358  17.747   3.856  12.969
26743W        W98359  31.919  31.523  14.592
26744W        W98360  42.910  25.252   1.114
26745W        W98361  38.569  17.118  13.316
26746W        W98362  38.776  19.517   0.429
26747W        W98363   8.701   1.392  11.806
26748W        W98364  24.941  33.551  14.349
26749W        W98365  34.901  38.452  11.441
26750W        W98366  16.256  13.242   0.848
26751W        W98367  33.195  28.498  12.063
26752W        W98368  39.551  26.141  11.036
26753W        W98369  30.098  33.882  10.706
26754W        W98370  23.059  21.238  10.532
26755W        W98371  12.557  16.080  11.086
26756W        W98372  23.144   2.999   4.316
26757W        W98373  43.795  23.414   3.499
26758W        W98374  44.781  41.481   4.516
26759W        W98375   4.343  29.533   3.640
26760W        W98376   4.183  25.916  12.537
26761W        W98377  10.386  32.074   0.490
26762W        W98378  36.143   3.787  12.100
26763W        W98379  22.127  44.592  14.248
26764W        W98380  14.439  38.466  14.886
26765W        W98381  20.214  17.321   3.771
26766W        W98382  32.547  38.655  10.512
26767W        W98383  17.185  34.406  11.892
26768W        W98384  43.835  10.056   3.666
26769W        W98385  16.959  32.415   1.678
26770W        W98386  19.744  40.029  11.466
26771W        W98387  15.988  14.680  12.390
26772W        W98388  23.535   0.223   2.544
26773W        W98389   4.303  26.494   3.355
26774W        W98390  23.461  21.270  11.440
26775W        W98391   5.386  31.953   4.571
26776W        W98392   9.310  20.641   0.630
26777W        W98393  36.579  39.028   2.834
26778W        W98394  11.632  43.229   0.420
26779W        W98395  26.176   2.178  12.460
26780W        W98396  13.860  35.731   4.825
26781W        W98397  40.442  35.409  13.866
26782W        W98398  10.622  23.582   3.580
26783W        W98399  24.665  44.351   0.383
26784W        W98400  41.317   5.180  10.649
26785W        W98401  41.896  36.830  12.981
26786W        W98402  17.553  25.156   4.186
26787W        W98403  37.930   9.175  10.546
26788W        W98404  23.511  35.444  14.040
26789W        W98405   8.551   7.817  14.236
26790W        W98406  34.480  38.137   1.694
26791W        W98407   8.674  29.325   2.704
26792W        W98408  29.257   9.791  13.945
26793W        W98409   4.948  35.029   4.565
26794W        W98410   3.175  44.801   0.263
26795W        W98411  22.792  14.150  12.038
26796W        W98412  40.555  16.870   1.299
26797W        W98413  18.745  23.231   2.916
26798W        W98414  10.681  35.883   0.580
26799W        W98415  35.849  24.633  11.099
26800W        W98416  42.004  18.001  11.666
26801W        W98417   0.842   0.558   2.737
26802W        W98418  26.335   2.490   0.049
26803W        W98419   7.005   2.550   4.089
26804W        W98420   8.329  26.331   3.040
26805W        W98421  38.348   3.861  14.724
26806W        W98422   8.010   1.281  13.537
26807W        W98423  36.163  42.876  11.976
26808W        W98424  39.754  29.430  11.540
26809W        W98425  28.507  25.060  10.672
26810W        W98426  33.058  10.350  14.376
26811W        W98427  27.184  28.673   2.820
26812W        W98428  38.500  21.454   0.925
26813W        W98429   8.598  21.131   5.009
26814W        W98430  15.768   4.674   3.611
26815W        W98431  12.933  25.662  12.467
26816W        W98432  25.946   0.401  12.996
26817W        W98433  30.581  33.150   2.290
26818W        W98434   0.152   1.789   0.378
26819W        W98435   8.137  43.951   3.840
26820W        W98436  39.497  23.746   1.505
26821W        W98437   9.773   2.545   4.335
26822W        W98438  32.449  25.714   0.896
26823W        W98439  15.158  29.559   2.148
26824W        W98440  31.256  41.809  14.798
26825W        W98441  30.685  40.126   3.301
26826W        W98442  18.860  23.732  14.429
26827W        W98443  15.708   1.213   4.199
26828W        W98444  24.899  42.919  14.510
26829W        W98445  27.417  22.360   4.323
26830W        W98446  33.893  13.674   1.982
26831W        W98447  10.116  35.502   1.342
26832W        W98448   8.712   1.884  12.518
26833W        W98449   2.422  25.321  11.599
26834W        W98450  33.420  30.097  10.432
26835W        W98451  40.525   0.292  13.439
26836W        W98452  27.951  24.502  11.655
26837W        W98453  31.004  40.049   0.783
26838W        W98454  31.178  14.063   3.575
26839W        W98455  20.604  24.163   1.321
26840W        W98456  42.493  43.755   0.920
26841W        W98457   6.076  28.969  12.072
26842W        W98458  15.628  12.696   0.685
26843W        W98459  23.253   3.729   3.800
26844W        W98460   7.188  39.035   3.426
26845W        W98461  30.669   2.832  14.384
26846W        W98462  18.287  28.604  10.357
26847W        W98463   6.183  30.735   2.855
26848W        W98464  13.896  24.484   0.490
26849W        W98465  26.215  22.479   2.331
26850W        W98466  31.518  39.936  10.967
26851W        W98467  36.881  41.316  11.518
26852W        W98468  36.061  29.864  13.354
26853W        W98469   3.384  17.091  12.022
26854W        W98470  14.352  19.584  12.621
26855W        W98471  28.005  40.319   1.893
26856W        W98472  22.056  25.023  13.148
26857W        W98473   3.627  36.450  14.462
26858W        W98474  24.520  24.696  14.452
26859W        W98475  12.084  32.458  13.483
26860W        W98476  43.342   4.214  14.578
26861W        W98477  17.282   2.401  12.669
26862W        W98478  23.696  16.316   2.776
26863W        W98479  38.584  18.122   3.463
26864W        W98480  20.284  42.200  14.849
26865W        W98481  41.586  30.261   1.857
26866W        W98482  34.377  11.043   3.380
26867W        W98483  34.142  21.697   2.972
26868W        W98484   0.792  31.053   5.020
26869W        W98485  38.327  12.743   2.677
26870W        W98486   7.735  21.021   2.321
26871W        W98487  35.887  23.602  13.799
26872W        W98488   3.272   9.228  12.152
26873W        W98489  20.068  40.075  14.392
26874W        W98490   5.384  34.874   4.877
26875W        W98491  32.499  14.568  14.348
26876W        W98492   3.389  27.944  11.929
26877W        W98493  42.398  23.599   1.623
26878W        W98494  12.658  43.587   3.683
26879W        W98495  10.702  11.727   1.859
26880W        W98496  44.524  42.241  13.306
26881W        W98497  12.826  24.612   4.518
26882W        W98498  18.300  37.844  13.447
26883W        W98499  17.029  27.904   1.848
26884W        W98500  17.450  31.936  14.983
26885W        W98501   6.074  44.847   2.243
26886W        W98502  42.287  17.123  14.941
26887W        W98503  41.337  16.572  12.332
26888W        W98504  28.878  22.428   4.253
26889W        W98505  16.229  21.149   3.945
26890W        W98506  17.092   2.392  13.116
26891W        W98507  34.959  15.265  13.539
26892W        W98508  28.046  22.740  14.278
26893W        W98509   8.330  19.220  10.452
26894W        W98510  17.045  36.927  10.288
26895W        W98511  35.117  27.116  13.319
26896W        W98512  40.199  39.947   0.467
26897W        W98513  30.652  36.084  14.775
26898W        W98514  16.104  27.906  14.997
26899W        W98515  31.515  28.381   0.860
26900W        W98516  27.520  18.263   1.963
26901W        W98517  29.442  25.964   0.722
26902W        W98518  39.314  23.787  11.121
26903W        W98519  22.898  18.565  14.026
26904W        W98520  21.972  35.987   0.616
26905W        W98521   0.293   8.406   0.743
26906W        W98522  33.761  12.202  14.512
26907W        W98523   4.693  43.878   1.418
26908W        W98524  16.051   9.129  11.033
26909W        W98525  39.489  20.684   1.346
26910W        W98526  15.570  30.095  13.434
26911W        W98527  15.968  36.315  14.000
26912W        W98528  14.368  42.582  11.368
26913W        W98529  17.724  10.226   4.268
26914W        W98530  19.396  31.635   1.880
26915W        W98531   3.268   2.927  12.062
26916W        W98532   1.413  29.329  11.221
26917W        W98533  24.453  39.196  13.853
26918W        W98534  11.423  15.102  14.526
26919W        W98535   6.865  30.230   2.356
26920W        W98536   6.534   6.820  13.029
26921W        W98537  28.616   6.717   3.434
26922W        W98538  35.055   5.575  10.289
26923W        W98539   6.840  16.002  12.891
26924W        W98540  35.485  41.410  14.514
26925W        W98541  41.333  38.587  13.007
26926W        W98542  28.606  31.334  10.422
26927W        W98543  24.471  37.666  12.956
26928W        W98544   4.505  40.063   1.009
26929W        W98545  18.678  18.267   0.662
26930W        W98546   7.088  27.167   2.225
26931W        W98547  29.385  30.371   2.061
26932W        W98548  37.392   5.496  13.762
26933W        W98549  32.026  40.293  10.436
26934W        W98550  28.172   3.897   1.432
26935W        W98551  37.098  12.819  10.734
26936W        W98552  34.878   7.373  10.638
26937W        W98553   3.309  23.574   0.885
26938W        W98554  30.490  35.949   4.493
26939W        W98555   7.393  15.264   4.868
26940W        W98556  40.851  42.919   1.869
26941W        W98557  24.505  18.733   0.933
26942W        W98558  41.767  36.074   2.840
26943W        W98559  30.934  26.504   2.831
26944W        W98560  34.084   4.427   3.228
26945W        W98561   4.680  18.153   3.177
26946W        W98562  29.103  22.990  13.596
26947W        W98563  35.443   4.686  10.878
26948W        W98564  33.280   6.919  13.600
26949W        W98565  39.402  33.544   3.809
26950W        W98566  17.629  18.466   2.261
26951W        W98567  39.279  23.737   3.253
26952W        W98568   6.754   0.218  12.061
26953W        W98569   7.595  10.032  14.904
26954W        W98570  15.116  22.682  14.911
26955W        W98571  23.671  26.234  12.979
26956W        W98572  29.707  23.943  12.087
26957W        W98573  15.267  10.640  11.310
26958W        W98574  44.493   2.349  14.009
26959W        W98575   3.693  44.006  11.077
26960W        W98576  44.876  22.322  11.120
26961W        W98577  13.694   2.172   4.319
26962W        W98578  31.350  42.715   0.345
26963W        W98579  31.339  33.421  14.370
26964W        W98580  18.827  28.918   2.234
26965W        W98581  39.863   4.742   4.141
26966W        W98582  13.761  36.349   1.393
26967W        W98583  21.105  31.334   2.705
26968W        W98584  32.152  28.900  10.602
26969W        W98585  30.758  13.243  13.160
26970W        W98586  43.850  11.810   3.783
26971W        W98587  36.912   0.872   1.487
26972W        W98588   7.723  40.495   2.370
26973W        W98589   5.754  12.584  14.019
26974W        W98590  32.425   7.852  12.976
26975W        W98591  10.337  15.619   2.328
26976W        W98592  25.234  16.320   2.791
26977W        W98593  15.818  18.578  12.954
26978W        W98594  11.630  24.425  12.858
26979W        W98595  26.126  25.690   3.417
26980W        W98596  43.460  35.958   0.814
26981W        W98597  40.819  17.851   0.514
26982W        W98598   9.326  40.863  14.382
26983W        W98599  38.598   1.854  14.569
26984W        W98600  16.337   0.324   1.782
26985W        W98601  18.537  25.598   2.775
26986W        W98602   1.701  33.350   0.416
26987W        W98603  16.312  35.314   2.733
26988W        W98604  44.306  36.555  11.033
26989W        W98605  41.801  32.049  14.436
26990W        W98606  17.811   5.734   2.305
26991W        W98607  32.205  24.162  11.715
26992W        W98608  13.217  33.522   0.996
26993W        W98609  42.255  10.233   1.213
26994W        W98610  15.574   7.306  14.261
26995W        W98611  10.451   4.214  12.897
26996W        W98612  43.748   4.370   3.738
26997W        W98613  35.927  14.006  14.819
26998W        W98614  23.312  19.758   4.149
26999W        W98615  43.545  34.011   3.334
27000W        W98616   2.797   7.974   1.850
27001W        W98617  19.404  14.667   4.964
27002W        W98618   7.849  34.970   4.117
27003W        W98619   7.420  13.626  12.693
27004W        W98620  20.080  28.937  11.560
27005W        W98621  37.272  40.189   3.150
27006W        W98622  28.424   8.418  12.035
27007W        W98623  24.906  13.772   0.484
27008W        W98624  16.302  18.776   2.676
27009W        W98625  37.908  30.352   5.064
27010W        W98626  17.695  26.063  13.922
27011W        W98627   9.629  30.143  10.703
27012W        W98628  40.863  34.692   4.144
27013W        W98629  22.628   2.289  14.300
27014W        W98630  19.332   1.786   1.337
27015W        W98631  33.627  43.718   1.372
27016W        W98632  40.944  37.739  11.980
27017W        W98633  25.386  37.695   3.705
27018W        W98634  42.126  22.253  10.368
27019W        W98635  24.081  33.352   0.917
27020W        W98636  28.905  38.250  14.456
27021W        W98637  42.113  25.944   4.287
27022W        W98638  43.349  11.100  10.783
27023W        W98639  36.647  33.512   3.399
27024W        W98640  20.439  27.252   1.028
27025W        W98641   6.318  16.664   2.494
27026W        W98642  15.673  42.311  11.004
27027W        W98643  25.972  40.934  13.594
27028W        W98644  38.085   1.768   1.771
27029W        W98645  25.749  31.512   3.303
27030W        W98646  20.580  41.853   3.220
27031W        W98647  36.296  38.166  14.671
27032W        W98648  11.061  15.697  12.985
27033W        W98649  43.492  37.094  14.983
27034W        W98650  34.029  38.556   4.793
27035W        W98651   0.185  38.974  14.886
27036W        W98652  30.920  43.032   1.103
27037W        W98653   3.632   5.726   0.647
27038W        W98654  38.299   7.813   1.757
27039W        W98655  36.377   9.655   1.916
27040W        W98656   8.280   8.337   4.611
27041W        W98657  40.066  32.851  10.762
27042W        W98658  41.730  30.356   3.688
27043W        W98659  22.785  29.088   0.554
27044W        W98660  26.701  41.992  12.962
27045W        W98661  37.471  19.535   9.715
27046W        W98662   9.921  32.069  12.864
27047W        W98663  16.205   9.828   4.159
27048W        W98664  16.058  44.279  10.656
27049W        W98665  19.680   0.441  13.039
27050W        W98666  26.717  36.970   1.263
27051W        W98667  12.843  26.518   3.349
27052W        W98668  10.890   3.483   3.282
27053W        W98669  18.178  14.374   1.204
27054W        W98670  16.143   5.278  13.499
27055W        W98671   8.450  42.225  12.209
27056W        W98672  36.748  35.318   3.967
27057W        W98673  44.923  30.860  12.578
27058W        W98674   8.273   0.689  11.578
27059W        W98675  24.555  13.575  11.909
27060W        W98676  18.076  42.057  10.990
27061W        W98677  10.803  17.643  12.480
27062W        W98678  44.863  10.835   2.416
27063W        W98679  36.193   0.548   2.198
27064W        W98680   6.684  14.142   2.611
27065W        W98681  15.816  19.100   1.883
27066W        W98682  37.283   6.231   3.719
27067W        W98683  40.774   1.165   2.114
27068W        W98684  35.646  40.523  11.092
27069W        W98685  40.738  13.263  11.117
27070W        W98686  22.219  31.224  11.572
27071W        W98687  43.552   5.421   2.305
27072W        W98688   3.659   8.668   2.339
27073W        W98689  10.796  10.596  11.460
27074W        W98690  23.270  18.147  11.699
27075W        W98691  14.779   6.694   2.312
27076W        W98692  33.172  24.767   4.612
27077W        W98693  18.536  40.961   2.795
27078W        W98694  15.368  18.571   2.695
27079W        W98695  24.212  35.964  11.019
27080W        W98696  22.949   3.413   3.069
27081W        W98697  21.157  11.688   2.291
27082W        W98698  34.390  43.460  12.430
27083W        W98699   1.200  41.589  12.736
27084W        W98700  27.156  26.252   2.406
27085W        W98701   5.890  18.758  13.937
27086W        W98702   1.868  31.062   2.573
27087W        W98703   0.821  34.096   1.290
27088W        W98704  19.211  27.912  13.345
27089W        W98705  22.737  37.556   3.302
27090W        W98706   4.687  19.844   2.298
27091W        W98707   3.223  29.930   5.016
27092W        W98708   0.181  31.313  12.547
27093W        W98709  42.207  13.191  14.004
27094W        W98710  42.954   5.147  11.934
27095W        W98711  20.666  44.316  11.003
27096W        W98712   7.740  32.375  11.922
27097W        W98713  22.128  43.541  14.477
27098W        W98714  43.263   7.947   0.464
27099W        W98715  18.661   3.435   5.155
27100W        W98716  31.399  41.435  13.405
27101W        W98717   4.443  31.044  11.600
27102W        W98718   1.715  16.849   0.347
27103W        W98719  11.693  10.138   4.223
27104W        W98720  39.356   4.130  11.148
27105W        W98721  30.232   8.918   0.936
27106W        W98722  36.308  28.167   1.302
27107W        W98723  27.147  26.730   4.588
27108W        W98724   7.776   9.945   4.118
27109W        W98725  30.028   6.452   0.678
27110W        W98726  11.541  31.887   4.992
27111W        W98727   1.367  34.398   2.942
27112W        W98728   5.830  16.826   1.700
27113W        W98729  26.569  30.191  11.118
27114W        W98730  34.454  31.956  12.028
27115W        W98731   2.816   9.282   0.423
27116W        W98732  18.643  34.791  12.803
27117W        W98733   2.162  21.328   4.347
27118W        W98734  34.871  38.201   0.857
27119W        W98735  35.657  42.833  12.100
27120W        W98736  43.519   2.951  14.211
27121W        W98737  11.472  34.470  14.857
27122W        W98738   1.862  25.142   3.621
27123W        W98739  27.590  38.698   4.239
27124W        W98740  14.723  41.424   1.692
27125W        W98741  40.057  32.553   0.537
27126W        W98742   5.920  27.159  14.763
27127W        W98743  43.683  20.763  11.182
27128W        W98744  30.414   1.633  11.525
27129W        W98745  40.745  37.026   4.608
27130W        W98746   3.198  17.281   1.321
27131W        W98747  19.656   8.877  14.968
27132W        W98748  35.184  37.598   0.326
27133W        W98749   1.932  36.242  13.342
27134W        W98750   9.146  15.346   1.277
27135W        W98751  27.574  38.082   0.868
27136W        W98752  39.536   8.732   1.430
27137W        W98753  30.732  26.032   1.431
27138W        W98754  10.278  38.430   2.199
27139W        W98755  42.826  25.667   3.105
27140W        W98756  16.016   9.669   1.315
27141W        W98757  37.096  25.297   3.428
27142W        W98758  22.789  14.617   4.630
27143W        W98759   6.352  30.940  13.815
27144W        W98760   5.674   8.160  11.148
27145W        W98761  28.905  40.371  14.393
27146W        W98762  33.188   3.330   3.698
27147W        W98763  12.771   9.599  12.884
27148W        W98764  36.281  27.726   4.039
27149W        W98765   9.410  43.677  11.902
27150W        W98766  31.808  21.785  10.683
27151W        W98767  26.570  43.539   2.819
27152W        W98768  16.140  19.732  14.532
27153W        W98769  13.889  23.114  12.509
27154W        W98770  15.484  39.844   1.016
27155W        W98771   7.956  19.072   0.527
27156W        W98772  27.383  26.115   0.648
27157W        W98773  20.965  23.477   0.312
27158W        W98774  20.173  37.076   0.135
27159W        W98775  24.667  31.821  13.649
27160W        W98776  16.303  22.726   1.936
27161W        W98777  43.014  16.702  12.836
27162W        W98778  27.999  28.220  14.805
27163W        W98779  33.089   2.494  14.492
27164W        W98780  13.233   5.835  10.951
27165W        W98781  34.561  28.698  11.535
27166W        W98782  11.584  33.915   3.849
27167W        W98783  35.880   9.260  13.474
27168W        W98784  15.236  10.297   4.257
27169W        W98785   6.351   0.382   0.478
27170W        W98786  13.316  18.018   1.834
27171W        W98787  41.778  17.287  13.440
27172W        W98788  43.030   1.783   2.677
27173W        W98789  42.031  42.319   1.201
27174W        W98790  33.238  26.260   2.708
27175W        W98791  35.801  40.507  13.685
27176W        W98792  12.599  32.898   1.310
27177W        W98793   1.673   2.941  14.909
27178W        W98794  41.408  17.593  10.898
27179W        W98795  25.007  44.972  12.491
27180W        W98796  33.901  32.159   4.153
27181W        W98797  19.309  34.632  10.677
27182W        W98798  13.571  20.795  14.241
27183W        W98799  42.183  24.899   3.246
27184W        W98800  28.047  22.792   2.614
27185W        W98801   4.420   2.845  12.599
27186W        W98802   7.881   9.286   1.483
27187W        W98803   9.679  24.710  11.410
27188W        W98804  42.377  14.237  13.080
27189W        W98805  44.266  43.502   0.836
27190W        W98806  43.259   8.881  11.650
27191W        W98807  14.653  14.799  13.750
27192W        W98808  27.708  33.386  10.830
27193W        W98809  28.626  13.513  13.067
27194W        W98810  11.121  35.058  11.396
27195W        W98811  10.614   8.250   0.074
27196W        W98812  30.513   5.232  12.853
27197W        W98813   6.920  37.727   3.547
27198W        W98814  11.282   4.689  13.600
27199W        W98815  32.564  34.067   0.654
27200W        W98816   1.707  38.000   4.910
27201W        W98817   8.171  38.099   1.410
27202W        W98818   5.361   5.571  11.037
27203W        W98819  19.824   9.833   2.376
27204W        W98820  36.655   6.595  13.019
27205W        W98821  23.008  44.516   2.222
27206W        W98822  41.726   2.377  12.083
27207W        W98823  41.175  19.312   1.822
27208W        W98824   6.777  16.985   3.947
27209W        W98825  19.526  38.475  12.350
27210W        W98826  37.600  14.682  10.766
27211W        W98827  37.333  21.111   3.654
27212W        W98828  15.180  15.591  10.092
27213W        W98829   2.979  27.053   2.440
27214W        W98830  10.454  12.829  11.036
27215W        W98831  36.426  12.286   0.539
27216W        W98832   3.265   3.305   1.931
27217W        W98833  34.638   5.352  14.290
27218W        W98834   1.780  35.462   0.200
27219W        W98835  11.458  19.054  13.809
27220W        W98836  14.807  25.417   3.142
27221W        W98837  24.376  42.213   4.013
27222W        W98838  35.559  42.337   2.322
27223W        W98839   6.196  40.547   3.791
27224W        W98840  12.259   4.276   3.755
27225W        W98841  37.885  36.572  13.500
27226W        W98842  21.780  19.898  14.364
27227W        W98843  16.090  28.819  12.718
27228W        W98844  31.397  21.027   4.126
27229W        W98845  36.125  39.333  10.992
27230W        W98846  42.724  13.394  13.192
27231W        W98847   4.326  15.027  14.383
27232W        W98848  29.025  38.920  14.039
27233W        W98849  24.610  26.681  11.197
27234W        W98850  42.954  39.095   0.390
27235W        W98851  40.777  42.486   0.435
27236W        W98852   1.248  32.082   0.385
27237W        W98853  44.759  20.352  10.729
27238W        W98854   8.940  32.379   2.889
27239W        W98855  26.210  27.423  12.326
27240W        W98856  39.053  33.164  14.461
27241W        W98857   9.587  25.658  13.391
27242W        W98858   9.326  28.916  14.975
27243W        W98859  34.842  24.311   1.947
27244W        W98860  25.119  43.992  14.100
27245W        W98861  44.439   1.907   4.625
27246W        W98862  24.528  26.104  10.716
27247W        W98863  31.895  38.955   1.468
27248W        W98864   7.218  32.428  10.594
27249W        W98865  25.383   2.995   0.842
27250W        W98866  17.162  44.982   0.781
27251W        W98867  19.084  38.386  11.404
27252W        W98868  29.484  13.798  12.485
27253W        W98869  24.487   8.113  11.031
27254W        W98870  27.161   6.232   0.867
27255W        W98871  41.873  14.359  11.631
27256W        W98872  11.321  44.763   4.361
27257W        W98873   9.374  19.437   4.630
27258W        W98874   7.925   0.751   4.654
27259W        W98875  38.862  18.330  14.862
27260W        W98876  40.831  27.908   0.937
27261W        W98877   8.327  44.524   0.962
27262W        W98878  27.936  33.429   4.814
27263W        W98879  26.922  23.526   5.059
27264W        W98880  30.686  39.097   1.844
27265W        W98881  14.640  25.367   5.063
27266W        W98882  14.067  25.097   0.349
27267W        W98883  37.543   9.403  12.759
27268W        W98884  26.160   3.485  12.794
27269W        W98885  34.649  39.348  10.793
27270W        W98886   1.098   4.525  12.107
27271W        W98887  14.057  26.090   3.096
27272W        W98888   4.179  23.529   1.023
27273W        W98889  11.929  18.825  13.712
27274W        W98890   0.041  32.444   1.910
27275W        W98891  23.426  31.930  10.607
27276W        W98892   4.199  31.619  12.895
27277W        W98893  18.033   4.276  12.825
27278W        W98894   1.038  11.174   3.849
27279W        W98895  28.557  43.748   1.420
27280W        W98896  38.834  10.745   3.656
27281W        W98897  25.866  11.128   1.254
27282W        W98898  14.612   6.894   3.186
27283W        W98899  38.740  38.988   5.124
27284W        W98900   3.523  27.652  11.022
27285W        W98901  10.624  27.374  13.488
27286W        W98902  19.402  42.879  14.382
27287W        W98903   8.363  23.495  12.137
27288W        W98904  32.464  14.918  12.798
27289W        W98905  21.796  27.703  12.430
27290W        W98906  11.035  24.429  12.426
27291W        W98907  15.899   3.374  11.600
27292W        W98908  20.661  21.259  11.651
27293W        W98909  17.503  44.034  13.986
27294W        W98910  40.743   6.457  11.564
27295W        W98911  18.990  26.001   3.389
27296W        W98912   6.272   9.257  12.972
27297W        W98913  31.114  29.705   9.950
27298W        W98914  23.816  20.607  11.188
27299W        W98915  18.294  20.248   1.344
27300W        W98916  30.723  12.178  11.208
27301W        W98917  15.301  26.645  13.034
27302W        W98918  12.264  23.112  14.215
27303W        W98919  30.633  20.581  10.306
27304W        W98920   0.293  21.789   1.898
27305W        W98921  19.625  29.668   0.808
27306W        W98922   1.663  29.126   4.578
27307W        W98923  25.662  26.044   4.772
27308W        W98924  26.662  44.175  10.163
27309W        W98925  13.244  32.824   1.795
27310W        W98926  20.014   0.808   2.113
27311W        W98927  39.036  38.568  13.456
27312W        W98928  15.688  26.393  14.403
27313W        W98929   7.914  33.394   1.861
27314W        W98930   7.479  41.801  14.411
27315W        W98931  28.509  35.656  11.647
27316W        W98932   1.527  14.155   4.179
27317W        W98933  14.886  18.294   0.935
27318W        W98934  37.389  28.005   2.806
27319W        W98935   9.222   4.292   1.138
27320W        W98936  33.427  32.600  14.427
27321W        W98937  36.672   5.888  11.929
27322W        W98938  24.539   6.355  12.915
27323W        W98939  18.592  30.756  14.779
27324W        W98940  10.248  30.715   4.488
27325W        W98941  22.785  21.021  13.915
27326W        W98942  16.291  38.454  14.452
27327W        W98943  40.656  41.590   1.330
27328W        W98944  32.577  35.226   3.423
27329W        W98945  16.482  43.877   9.841
27330W        W98946   1.853  44.302  10.698
27331W        W98947  18.145  21.064   0.713
27332W        W98948  32.031   1.501   2.275
27333W        W98949  30.579  42.716   5.045
27334W        W98950   4.559  40.571  14.905
27335W        W98951  39.868  20.586  13.017
27336W        W98952  15.690  15.759  11.669
27337W        W98953  35.076  17.151   2.678
27338W        W98954  23.166   4.967   1.452
27339W        W98955  30.661   0.240   2.305
27340W        W98956  18.997  32.626  12.936
27341W        W98957  13.821   6.433   1.995
27342W        W98958  12.262  24.097  10.670
27343W        W98959  25.694   4.085   4.085
27344W        W98960   4.183   7.240   2.234
27345W        W98961  29.348  19.720   1.923
27346W        W98962   0.903   9.809   4.899
27347W        W98963   2.943  22.501  12.046
27348W        W98964  17.671  14.069   1.260
27349W        W98965  41.826  14.592   3.909
27350W        W98966   3.417   4.398   4.399
27351W        W98967  30.332   7.355   3.750
27352W        W98968  23.646  42.489  14.490
27353W        W98969  18.849  11.723   1.912
27354W        W98970  30.998  21.224   2.649
27355W        W98971  39.252  12.673   3.864
27356W        W98972   2.847  19.648   3.484
27357W        W98973  25.934  33.149   3.811
27358W        W98974   4.395  44.998   2.888
27359W        W98975   9.869  43.166   3.555
27360W        W98976  16.080  35.475   0.185
27361W        W98977  32.892  40.577   0.235
27362W        W98978  13.354  18.706   0.255
27363W        W98979  16.373  44.165  10.245
27364W        W98980  14.658  35.078   0.579
27365W        W98981   4.927   0.326  12.908
27366W        W98982  11.111  22.531  11.410
27367W        W98983  42.957   2.962   0.106
27368W        W98984  41.304  28.491   1.183
27369W        W98985  36.169  24.594  14.324
27370W        W98986  33.214  36.925   2.127
27371W        W98987  31.895  13.180   4.087
27372W        W98988  18.468  41.084  10.241
27373W        W98989  25.164  28.482  13.466
27374W        W98990  12.178   7.640   4.153
27375W        W98991  18.713  24.667   0.870
27376W        W98992  26.230  30.587   2.772
27377W        W98993  32.495   9.767   2.138
27378W        W98994  10.164   9.340  13.859
27379W        W98995   4.941  19.577  13.344
27380W        W98996   6.580  20.290  14.286
27381W        W98997  26.334  18.738   3.864
27382W        W98998  32.407  28.927  11.059
27383W        W98999  32.873  44.312  10.976
27384W        W99000   2.046  38.411   2.298
27385W        W99001  12.601  32.496   0.323
27386W        W99002  32.482  27.130   4.061
27387W        W99003  11.230  14.639  14.744
27388W        W99004  19.457   2.397   0.047
27389W        W99005  16.712  28.956  11.469
27390W        W99006  40.298  44.560  12.362
27391W        W99007   3.934  34.574  13.046
27392W        W99008   4.948  32.171   0.431
27393W        W99009  26.994  24.859  14.202
27394W        W99010  12.588  18.120   1.419
27395W        W99011   8.815  37.439   3.304
27396W        W99012  40.612  23.950  12.554
27397W        W99013  17.461  43.648   4.539
27398W        W99014  31.938   0.228  11.136
27399W        W99015  28.321  23.459   3.979
27400W        W99016  39.853  25.657   3.740
27401W        W99017   9.236  28.413  14.998
27402W        W99018  31.249  10.813  11.135
27403W        W99019  20.276  11.135  13.426
27404W        W99020  42.747   8.446   0.012
27405W        W99021  16.471   8.702  11.854
27406W        W99022  32.693  20.757   0.470
27407W        W99023  15.513  38.988   2.744
27408W        W99024  31.933   2.850   2.767
27409W        W99025  22.987  10.720   2.368
27410W        W99026  12.798  38.807   2.320
27411W        W99027  13.174  43.981  12.960
27412W        W99028  17.392  36.141  12.054
27413W        W99029  23.236  32.637  13.983
27414W        W99030  22.740   9.316   4.526
27415W        W99031  30.381  41.330   0.773
27416W        W99032  28.598  12.390   1.701
27417W        W99033  22.682  29.873   1.390
27418W        W99034   0.336  13.975  13.095
27419W        W99035   0.101   2.381  10.800
27420W        W99036   4.416   0.671  11.430
27421W        W99037   3.136  43.075  12.440
27422W        W99038  39.837  19.785  13.431
27423W        W99039  22.331  22.615  10.403
27424W        W99040  10.115  27.501  11.157
27425W        W99041  33.832  25.466  14.425
27426W        W99042  38.672   7.136  12.541
27427W        W99043  22.703  10.568   0.790
27428W        W99044  19.766   7.834  11.478
27429W        W99045  29.158   0.453  14.681
27430W        W99046  32.950   6.138  14.082
27431W        W99047  11.166  36.582   0.450
27432W        W99048  25.084  43.705   2.494
27433W        W99049   6.715  22.066   0.411
27434W        W99050  22.772   1.281  14.370
27435W        W99051  23.494   7.063  12.574
27436W        W99052  16.131  40.537  13.546
27437W        W99053   2.789  32.989  11.487
27438W        W99054  27.738  16.175   2.248
27439W        W99055   3.932  29.567  11.808
27440W        W99056  16.848  11.688   3.130
27441W        W99057  11.401   5.102  13.330
27442W        W99058   4.841   9.006   1.511
27443W        W99059  16.728  39.795  11.617
27444W        W99060   2.322  38.426  10.764
27445W        W99061  42.084  30.695  11.576
27446W        W99062  12.439   2.004   1.715
27447W        W99063  21.580  11.906  14.824
27448W        W99064  17.561  25.047  10.966
27449W        W99065   0.527  37.864  11.627
27450W        W99066  14.546   5.311   0.252
27451W        W99067   9.205   6.327   4.593
27452W        W99068   0.577  29.119  10.675
27453W        W99069  20.304  11.175   4.473
27454W        W99070  31.852  18.039   4.840
27455W        W99071   6.361  43.579  11.032
27456W        W99072  21.692  31.144  14.095
27457W        W99073  24.918  22.067   2.627
27458W        W99074  12.402  13.023  10.666
27459W        W99075  21.732  25.670   1.338
27460W        W99076  32.590  32.487   3.657
27461W        W99077  37.257  16.696   3.575
27462W        W99078  23.299  37.430   2.234
27463W        W99079   4.421  21.504   3.209
27464W        W99080  24.024  29.240   0.348
27465W        W99081  30.364  30.037  13.314
27466W        W99082   4.911  40.033   1.442
27467W        W99083   1.202  29.709   1.113
27468W        W99084  20.567  11.338  13.005
27469W        W99085  35.928  40.330   3.756
27470W        W99086   3.260   1.382  10.620
27471W        W99087  21.838  14.292   1.337
27472W        W99088  25.857  28.051  10.669
27473W        W99089  37.893  39.841   0.906
27474W        W99090  39.017  33.986   0.205
27475W        W99091  18.320  17.393   3.990
27476W        W99092   1.195  22.778  11.119
27477W        W99093  34.558  36.402   4.578
27478W        W99094  32.556  44.583  12.542
27479W        W99095  30.320   3.734  13.873
27480W        W99096  39.387  14.282  13.810
27481W        W99097  11.656   1.212  11.157
27482W        W99098   9.189  43.120  13.842
27483W        W99099   8.165  26.585   0.220
27484W        W99100   3.735  38.957   2.732
27485W        W99101  19.006  42.570   4.775
27486W        W99102  13.049  16.758  11.468
27487W        W99103  34.232  28.887   3.468
27488W        W99104  14.336  11.344   4.354
27489W        W99105   1.796  27.398  13.450
27490W        W99106  13.183  36.396   0.845
27491W        W99107  38.390  25.088  12.144
27492W        W99108   0.751  29.076  13.407
27493W        W99109  41.363  18.373   1.785
27494W        W99110   2.454   1.727  10.595
27495W        W99111  13.287  16.293  14.415
27496W        W99112  42.351  43.455  13.457
27497W        W99113  38.584  25.274   0.340
27498W        W99114  26.626   6.660  11.543
27499W        W99115  31.888   3.231  12.096
27500W        W99116   0.896   9.348   4.677
27501W        W99117  12.784  37.787   1.386
27502W        W99118  13.627  23.715  12.139
27503W        W99119  38.561  31.950   4.577
27504W        W99120  12.128  36.616  13.834
27505W        W99121   2.910   0.038   0.649
27506W        W99122  44.268   6.198   2.688
27507W        W99123  24.506   9.456  11.687
27508W        W99124  32.398  28.985   4.146
27509W        W99125  21.480  30.511  11.425
27510W        W99126   0.305  17.656  13.203
27511W        W99127   3.681  36.330   4.151
27512W        W99128  28.301   6.604  11.177
27513W        W99129  15.198   6.106  14.004
27514W        W99130   6.896  43.448   4.535
27515W        W99131   6.196  17.952   2.296
27516W        W99132  14.910  35.491   2.754
27517W        W99133  11.916  26.154  12.037
27518W        W99134  40.313  19.611  10.151
27519W        W99135  25.188  12.390  13.425
27520W        W99136  30.619  25.426   0.615
27521W        W99137  10.431   2.008  11.426
27522W        W99138  31.581  27.952  14.978
27523W        W99139  10.426  24.043  13.986
27524W        W99140  33.671   9.376   1.313
27525W        W99141  13.829   9.870  10.535
27526W        W99142  17.643   1.480  13.881
27527W        W99143   8.876  19.815  13.053
27528W        W99144  17.916  31.732   1.675
27529W        W99145  35.229  11.330   1.195
27530W        W99146  38.369   1.397  14.474
27531W        W99147  36.955  39.804   4.787
27532W        W99148   6.445  42.270   4.743
27533W        W99149   1.047  16.820  14.906
27534W        W99150  28.996  31.494   3.715
27535W        W99151  12.501  15.275   4.390
27536W        W99152  37.710  17.130   0.575
27537W        W99153  18.858  43.017   4.532
27538W        W99154  29.319  24.694  14.506
27539W        W99155  15.955  29.491   4.115
27540W        W99156  41.309  21.256   1.972
27541W        W99157  12.610  40.490  13.744
27542W        W99158  13.189  27.550  12.202
27543W        W99159  32.723   6.700  13.084
27544W        W99160  32.123  19.297   1.268
27545W        W99161  12.179  19.144  10.599
27546W        W99162  23.142  17.099   3.719
27547W        W99163  35.015  35.793  12.905
27548W        W99164  25.504  11.391  10.721
27549W        W99165   2.201   5.208   4.091
27550W        W99166  17.657  20.152  11.573
27551W        W99167  13.341  19.879  11.426
27552W        W99168   6.445  20.788   1.043
27553W        W99169  28.941  22.205  14.690
27554W        W99170  37.045  17.479  12.497
27555W        W99171  35.026  16.709  10.489
27556W        W99172  30.644  42.540   4.524
27557W        W99173  34.564   7.924   2.545
27558W        W99174  39.347  40.634  13.846
27559W        W99175  39.395  44.986   4.198
27560W        W99176  35.396  11.784   4.398
27561W        W99177   2.363  21.467   1.643
27562W        W99178  36.163  11.092  13.445
27563W        W99179  39.992  21.476   0.481
27564W        W99180  34.051  14.170   4.774
27565W        W99181  42.873  42.091  11.022
27566W        W99182  29.896  28.626  10.748
27567W        W99183  44.758  22.503  14.747
27568W        W99184  22.170  15.814   2.213
27569W        W99185   3.865  14.660  11.714
27570W        W99186  20.427  10.264  11.013
27571W        W99187   2.255  21.081   0.977
27572W        W99188  20.736   9.847   1.316
27573W        W99189  11.385  24.068  12.584
27574W        W99190  34.855  15.587   2.836
27575W        W99191  33.973  27.668   2.701
27576W        W99192  26.316  25.232  14.790
27577W        W99193  38.495  27.917  14.317
27578W        W99194  41.842  23.266  10.220
27579W        W99195  36.498   0.796  11.803
27580W        W99196  39.779  12.581  10.629
27581W        W99197  17.842  31.626  11.610
27582W        W99198  24.433  40.811  11.606
27583W        W99199  12.255   2.410  14.447
27584W        W99200  12.815  43.826   1.348
27585W        W99201   1.472  31.588  11.543
27586W        W99202  30.588  16.600   0.852
27587W        W99203   5.846  36.802  13.418
27588W        W99204  18.839  38.917   2.360
27589W        W99205  28.864  27.090   4.231
27590W        W99206  27.437   7.464   1.430
27591W        W99207   5.375  26.998  11.928
27592W        W99208  25.539   1.899   4.026
27593W        W99209  22.112  16.204  12.512
27594W        W99210   6.369  13.073   3.193
27595W        W99211  11.558  37.834  13.336
27596W        W99212  41.923   0.986   4.017
27597W        W99213   0.965  18.517  13.392
27598W        W99214  39.798  35.252  10.775
27599W        W99215  16.473   4.272   2.837
27600W        W99216  23.194  23.557  13.924
27601W        W99217   7.464   1.138   2.720
27602W        W99218   5.911  31.788  13.930
27603W        W99219  30.433  39.884  12.958
27604W        W99220   1.800  14.122   3.747
27605W        W99221  30.945  43.500  12.747
27606W        W99222   2.700  19.794  13.908
27607W        W99223  35.410  36.950  10.985
27608W        W99224  42.380  10.137  12.535
27609W        W99225  39.824  21.257  12.539
27610W        W99226  20.590  28.957   3.375
27611W        W99227   4.733   5.182  12.887
27612W        W99228  17.271  36.029   0.860
27613W        W99229   6.920  18.730   4.378
27614W        W99230  33.607   9.226   3.792
27615W        W99231  43.088  19.932   4.792
27616W        W99232  22.571   1.445  12.709
27617W        W99233  23.464  26.464   1.198
27618W        W99234   9.531  33.713   0.996
27619W        W99235  13.144   0.947   0.790
27620W        W99236  24.709   2.344  12.530
27621W        W99237  33.380  13.224  12.490
27622W        W99238  23.292  44.444   2.661
27623W        W99239   2.285  27.514   0.803
27624W        W99240  43.983   5.458  14.360
27625W        W99241  17.512  10.628   3.244
27626W        W99242  17.120  35.467   0.774
27627W        W99243  29.891   2.099  11.108
27628W        W99244  24.446  18.514   3.205
27629W        W99245  43.396  20.586  11.600
27630W        W99246  29.924  28.880   3.187
27631W        W99247  28.380  22.605   4.210
27632W        W99248  27.123  19.613   5.320
27633W        W99249   7.241  38.819  11.263
27634W        W99250  20.685  30.403  14.220
27635W        W99251  21.951  21.430  11.392
27636W        W99252  24.429   9.392  12.211
27637W        W99253  18.610  34.207  12.032
27638W        W99254  18.090  43.870  14.483
27639W        W99255  32.695  44.665   0.244
27640W        W99256  21.269   6.353   1.533
27641W        W99257  36.631  19.589  12.078
27642W        W99258   0.253  28.521  12.410
27643W        W99259  17.714   9.108   3.842
27644W        W99260   5.828  26.654  14.994
27645W        W99261  25.901   9.180  14.734
27646W        W99262  39.860  38.349  12.787
27647W        W99263  12.400  25.530  13.856
27648W        W99264   7.435   1.642   2.862
27649W        W99265  44.261  29.446  12.388
27650W        W99266  21.620   1.549   4.841
27651W        W99267  43.802  44.761   0.822
27652W        W99268  15.440  35.078   0.406
27653W        W99269  12.828   4.656   5.304
27654W        W99270  13.132  12.459  11.083
27655W        W99271  25.140  38.617  12.410
27656W        W99272  43.798  39.869  14.074
27657W        W99273  44.344  10.898  13.302
27658W        W99274  40.859  39.711  13.427
27659W        W99275   8.237  13.530   4.026
27660W        W99276  14.227  15.372  13.586
27661W        W99277  10.139  23.168   3.784
27662W        W99278  10.901  30.455  13.321
27663W        W99279  37.896  27.825   2.817
27664W        W99280  36.566  36.048  14.948
27665W        W99281   0.831  32.475   0.741
27666W        W99282  41.208  43.049  13.307
27667W        W99283  41.679   9.268   0.672
27668W        W99284   9.959  37.408  11.429
27669W        W99285  19.730   2.947   3.727
27670W        W99286   7.533   8.754  13.115
27671W        W99287   1.540  34.490  12.119
27672W        W99288  11.282  14.192  13.849
27673W        W99289  20.136   1.710   0.711
27674W        W99290  21.529  16.146   3.875
27675W        W99291  31.115  23.973  11.545
27676W        W99292  40.554   5.742  12.872
27677W        W99293  39.744  44.006   2.384
27678W        W99294  11.747  25.162  11.084
27679W        W99295  23.717   4.482  11.618
27680W        W99296  39.088  26.385   1.782
27681W        W99297  17.653  16.065   1.231
27682W        W99298   3.976   4.857  12.936
27683W        W99299   8.930   0.734   2.682
27684W        W99300  18.713  34.894  13.802
27685W        W99301   3.209  26.734   3.740
27686W        W99302  36.779  24.493   1.298
27687W        W99303  23.164  40.589   1.480
27688W        W99304  18.246  33.475   1.454
27689W        W99305  31.025   9.435  13.919
27690W        W99306  27.498  15.573  13.510
27691W        W99307  36.975  32.475  13.527
27692W        W99308   3.155  43.439  13.083
27693W        W99309   8.347  19.491  11.337
27694W        W99310  22.158  22.576   2.359
27695W        W99311  42.219   8.654   4.977
27696W        W99312   1.314  41.794  13.387
27697W        W99313   1.537  43.417  10.937
27698W        W99314  17.776  31.520   2.934
27699W        W99315  16.803  26.102  14.439
27700W        W99316  11.175  32.708  14.929
27701W        W99317  29.703  18.519  12.116
27702W        W99318  44.447  27.652   3.700
27703W        W99319  14.373  26.409   0.597
27704W        W99320  32.838  24.249   3.734
27705W        W99321  21.624  16.128  11.105
27706W        W99322   4.407  31.032  13.079
27707W        W99323  10.566  28.436  14.816
27708W        W99324  27.463   0.357  13.037
27709W        W99325   8.181   3.839   4.187
27710W        W99326  42.960  13.779  11.308
27711W        W99327  43.396  30.987   3.899
27712W        W99328  29.894  17.763   0.439
27713W        W99329  39.457  43.253  11.977
27714W        W99330  38.794   1.817  11.712
27715W        W99331   1.456  15.295   2.822
27716W        W99332   8.150  14.690   1.356
27717W        W99333  31.838  36.513   2.758
27718W        W99334  22.238  43.016   4.592
27719W        W99335  34.852  37.049   2.206
27720W        W99336   1.907  29.897   0.841
27721W        W99337  29.853  44.491  14.078
27722W        W99338  35.781   6.561   3.313
27723W        W99339  39.310   0.391  12.076
27724W        W99340   9.080  37.983   0.986
27725W        W99341  32.953  44.195   0.894
27726W        W99342  18.253  17.083  14.831
27727W        W99343  17.625  28.885  11.373
27728W        W99344  29.602  11.065   4.541
27729W        W99345  20.348  13.077   2.074
27730W        W99346  13.172  28.359   1.201
27731W        W99347   2.387  40.772  11.099
27732W        W99348  29.072  15.064   4.508
27733W        W99349   0.847  15.233  13.794
27734W        W99350  25.184  10.808   4.820
27735W        W99351  27.875  12.119  12.397
27736W        W99352  12.745  28.595   2.981
27737W        W99353   4.963  19.811   2.732
27738W        W99354  21.541  34.047  13.505
27739W        W99355  44.192  19.413   3.478
27740W        W99356   9.326  14.768   3.894
27741W        W99357  24.046  24.236   2.168
27742W        W99358  18.608  27.244  14.818
27743W        W99359  21.198   6.862  13.486
27744W        W99360  23.018   0.776  14.870
27745W        W99361  41.820  42.003   0.842
27746W        W99362  27.164  38.005   4.578
27747W        W99363  10.379  26.041  11.543
27748W        W99364  43.620   9.593   2.908
27749W        W99365  36.424  36.978   1.713
27750W        W99366  24.293  27.154  13.297
27751W        W99367   7.311  43.868   1.949
27752W        W99368  36.445  41.283   3.223
27753W        W99369  12.436  17.111  12.044
27754W        W99370  42.997   2.036  12.068
27755W        W99371  38.888   0.435   3.817
27756W        W99372  26.063  15.056   5.060
27757W        W99373  20.898   1.484  11.179
27758W        W99374  44.285  21.878   1.913
27759W        W99375   6.331  10.161   2.598
27760W        W99376  41.533   7.818  14.869
27761W        W99377   0.743   6.428   1.784
27762W        W99378   8.378   2.753   3.631
27763W        W99379  34.446  27.623   0.400
27764W        W99380   9.851  35.624  13.905
27765W        W99381   3.754  21.726  12.001
27766W        W99382  42.010  40.141   2.439
27767W        W99383  32.059  18.685   0.227
27768W        W99384  34.602  38.014  13.619
27769W        W99385   8.187  21.156   0.486
27770W        W99386  14.715  16.004   0.718
27771W        W99387  14.037  31.919   0.772
27772W        W99388  25.742  39.023  12.520
27773W        W99389   3.481  20.333  12.397
27774W        W99390  28.126  10.570   2.300
27775W        W99391   8.492  12.694   2.317
27776W        W99392  42.021  31.697   1.784
27777W        W99393  10.368  15.544  11.097
27778W        W99394  20.788  39.770  11.908
27779W        W99395  41.973  34.330  13.509
27780W        W99396   6.873  14.894   2.295
27781W        W99397  36.874  16.349   2.298
27782W        W99398  41.318  27.907   0.748
27783W        W99399  36.046  31.764   4.465
27784W        W99400  30.552  37.105   3.224
27785W        W99401  29.825  26.012  13.937
27786W        W99402  16.669  18.509   9.598
27787W        W99403  14.291  38.277   2.687
27788W        W99404  10.668  19.326   1.214
27789W        W99405  28.094   5.298  11.148
27790W        W99406  24.641  19.208   2.761
27791W        W99407  40.452   3.022   0.945
27792W        W99408  15.629  41.398  11.367
27793W        W99409   1.949   7.425   3.673
27794W        W99410   0.704  23.671  14.840
27795W        W99411  14.362  11.020  11.352
27796W        W99412  31.911  19.013  13.979
27797W        W99413   9.549  38.789   3.249
27798W        W99414  38.544  15.042   4.501
27799W        W99415   8.109  34.608  12.875
27800W        W99416   7.969  44.802   0.156
27801W        W99417  43.812  43.494  12.888
27802W        W99418  21.278  20.133   3.981
27803W        W99419   4.449  37.830   1.382
27804W        W99420  31.966  21.307  13.559
27805W        W99421  27.378  36.058   4.813
27806W        W99422  13.341  41.822   2.348
27807W        W99423  33.435  33.244  13.602
27808W        W99424  16.108  44.044   0.805
27809W        W99425  28.462  29.370   4.204
27810W        W99426   2.788  32.365   1.685
27811W        W99427  29.282  43.075   1.281
27812W        W99428  25.049  40.405  14.869
27813W        W99429  13.767  14.299  13.785
27814W        W99430  34.860  36.719   0.914
27815W        W99431  33.027  32.349  13.312
27816W        W99432  14.746  29.815  14.802
27817W        W99433  11.367  24.951  11.368
27818W        W99434   2.009  44.741  13.962
27819W        W99435  30.433  41.796   0.994
27820W        W99436  37.514  35.524   2.422
27821W        W99437  30.867  31.067  11.330
27822W        W99438  31.996  27.371  10.693
27823W        W99439  28.031   4.994   5.076
27824W        W99440  21.232   9.087   4.830
27825W        W99441  25.539  22.481   3.936
27826W        W99442  38.068  29.140   3.266
27827W        W99443  36.047   3.636   0.016
27828W        W99444  38.255  33.674  14.784
27829W        W99445  44.229  23.171   3.273
27830W        W99446  20.024   5.356  11.224
27831W        W99447  38.419  13.822  12.089
27832W        W99448  22.595  14.197  10.212
27833W        W99449  11.445  30.374   3.302
27834W        W99450  30.871   6.645   0.257
27835W        W99451  16.590  44.776   3.599
27836W        W99452  11.256  32.185  12.032
27837W        W99453   6.664  17.812   0.886
27838W        W99454  36.773   0.445  11.468
27839W        W99455  40.750  28.106  12.368
27840W        W99456  13.654  21.213   2.358
27841W        W99457   1.962  36.991  14.579
27842W        W99458  17.434  15.753   4.368
27843W        W99459   1.254  43.256   1.883
27844W        W99460  20.055  18.286   4.039
27845W        W99461  30.438  44.028   4.849
27846W        W99462  21.734  16.125   2.288
27847W        W99463  26.063   5.453   3.680
27848W        W99464  32.585  27.466  13.266
27849W        W99465  41.800   8.641  11.201
27850W        W99466  33.694   9.308  11.886
27851W        W99467  12.554   3.509  11.664
27852W        W99468  21.271  38.492  13.468
27853W        W99469  33.977  17.604   0.320
27854W        W99470   1.742  36.193  11.068
27855W        W99471  16.231   8.936  14.241
27856W        W99472  24.807  32.825  11.054
27857W        W99473  16.509  42.254  12.588
27858W        W99474   7.725   0.331   4.408
27859W        W99475   1.980  39.310  11.005
27860W        W99476  25.049  44.293  12.002
27861W        W99477  35.568  23.764  14.370
27862W        W99478  34.513  13.749  11.229
27863W        W99479  19.124  44.285   9.785
27864W        W99480  34.428   8.172  14.417
27865W        W99481  21.994   0.205   0.869
27866W        W99482  17.642  41.833   3.460
27867W        W99483  18.571  21.053   0.371
27868W        W99484  30.155  41.578  13.933
27869W        W99485   5.273  42.591   3.228
27870W        W99486  24.152  13.576  12.457
27871W        W99487  30.090  34.557   4.795
27872W        W99488  34.722   7.807  11.723
27873W        W99489  33.094  16.843  13.887
27874W        W99490  41.249   4.808  12.100
27875W        W99491  44.667  14.720  14.871
27876W        W99492  33.689  12.728  13.612
27877W        W99493  13.577  35.361  11.875
27878W        W99494   4.246   4.580  13.876
27879W        W99495  44.825   4.692  13.755
27880W        W99496  14.727  17.982   3.618
27881W        W99497   2.127  14.721  13.946
27882W        W99498  22.419  18.784  13.927
27883W        W99499  22.008  14.624   4.145
27884W        W99500  26.432   9.254  14.803
27885W        W99501  32.482  18.501   3.749
27886W        W99502  35.444  14.565   0.009
27887W        W99503  35.544  28.423  10.977
27888W        W99504  31.055  32.651   0.871
27889W        W99505  40.002  38.408   1.777
27890W        W99506  44.292   0.513  12.022
27891W        W99507  29.058  16.128   0.942
27892W        W99508  17.467  32.393   0.781
27893W        W99509  28.916   2.457  14.960
27894W        W99510  25.167  20.832  10.955
27895W        W99511   2.019  14.548  14.477
27896W        W99512  23.156  23.452  14.930
27897W        W99513  23.081  33.576  12.062
27898W        W99514   8.186  30.844   1.230
27899W        W99515  25.850  34.609  12.042
27900W        W99516   7.750  22.237   4.639
27901W        W99517  17.015  42.957   4.787
27902W        W99518  36.877  25.057  14.611
27903W        W99519  11.843  21.628   0.833
27904W        W99520   5.116  13.246  13.075
27905W        W99521  43.407  41.569   3.792
27906W        W99522   5.058   6.914  12.466
27907W        W99523  24.104  13.575   3.620
27908W        W99524   0.491   6.451   2.241
27909W        W99525  37.350  11.300  11.584
27910W        W99526   2.716  17.868  10.663
27911W        W99527  39.499   2.669   4.013
27912W        W99528   2.702  32.094  10.891
27913W        W99529  34.148  31.313   0.453
27914W        W99530  35.881   9.214  11.522
27915W        W99531  24.097  36.281   0.502
27916W        W99532   2.254   4.783  11.424
27917W        W99533  32.406   3.536   0.883
27918W        W99534  36.986  39.316  10.645
27919W        W99535  36.332  15.320   3.793
27920W        W99536  34.922  26.641  13.383
27921W        W99537  26.624  44.907  14.813
27922W        W99538  24.113   5.188   0.243
27923W        W99539  11.336  40.189   2.596
27924W        W99540  12.184  15.754   4.569
27925W        W99541  12.919  11.968  11.090
27926W        W99542  33.852  13.651  11.987
27927W        W99543  37.550  34.969   3.666
27928W        W99544  35.911  12.793   3.111
27929W        W99545  32.683   9.676   1.262
27930W        W99546  25.142  43.891   2.969
27931W        W99547  36.036  43.508  12.400
27932W        W99548  34.701  35.840   2.396
27933W        W99549  25.567   3.173  14.025
27934W        W99550  25.605   9.858   1.186
27935W        W99551   3.468   7.883   3.555
27936W        W99552   1.958  30.515  11.879
27937W        W99553  21.104  14.958  14.986
27938W        W99554  11.631   8.344  12.152
27939W        W99555   8.165  27.342   3.167
27940W        W99556  14.787  25.645  10.715
27941W        W99557   2.328  15.838  12.868
27942W        W99558  23.492  26.953   1.024
27943W        W99559   8.176  41.356  11.408
27944W        W99560  10.174  34.517   2.956
27945W        W99561  42.776  43.185  14.272
27946W        W99562   8.416  11.782   0.458
27947W        W99563  39.756   6.842   0.198
27948W        W99564  34.865   9.721   4.349
27949W        W99565   9.662  29.996  12.170
27950W        W99566  18.793  15.366  14.919
27951W        W99567  27.647  22.815  12.147
27952W        W99568   5.245  27.724  12.563
27953W        W99569  21.219   7.973   0.927
27954W        W99570  42.053   8.422   3.700
27955W        W99571  44.642  39.593  12.973
27956W        W99572  41.068   1.494   4.252
27957W        W99573  20.583  17.613   2.095
27958W        W99574  38.403  16.595   0.903
27959W        W99575  10.242  10.595   0.937
27960W        W99576   2.752  41.925  14.880
27961W        W99577  17.551  30.955  13.144
27962W        W99578  36.355  41.219   0.073
27963W        W99579  21.517  35.147  11.737
27964W        W99580   8.134  44.224   1.932
27965W        W99581  21.216  35.229   1.856
27966W        W99582  37.428  37.014  14.830
27967W        W99583  20.408  13.555  11.059
27968W        W99584  39.300  17.603   4.543
27969W        W99585   5.793  17.560   4.553
27970W        W99586  10.246  14.147  11.450
27971W        W99587   3.929  25.023   3.156
27972W        W99588  31.165   8.867   0.711
27973W        W99589  42.919  26.962  11.878
27974W        W99590  15.370  31.053  10.987
27975W        W99591  34.161  39.977  14.813
27976W        W99592  30.296   5.280   3.156
27977W        W99593  10.196  22.649   3.616
27978W        W99594  32.863  22.065   4.225
27979W        W99595  42.983  44.504   4.123
27980W        W99596  17.037  29.132   3.642
27981W        W99597  15.607  27.523  12.108
27982W        W99598  25.679  37.289   2.683
27983W        W99599  31.659   2.261   0.771
27984W        W99600  24.767   4.933  13.290
27985W        W99601  11.717  20.649  14.372
27986W        W99602  32.103  23.663   3.878
27987W        W99603  41.898  28.153  14.513
27988W        W99604  34.453   1.454   0.744
27989W        W99605  23.507  22.755  13.515
27990W        W99606  33.118  29.432   0.435
27991W        W99607  38.274   3.857  13.363
27992W        W99608  13.662   2.659   4.463
27993W        W99609  31.643  10.724   3.640
27994W        W99610   4.753   5.404  14.413
27995W        W99611   7.578   4.104  11.840
27996W        W99612   1.409  13.945  10.665
27997W        W99613  41.917  33.016   1.208
27998W        W99614  37.516   1.736   2.287
27999W        W99615  27.190  27.538   3.381
28000W        W99616   2.983  11.776  10.968
28001W        W99617  30.127  33.544   2.615
28002W        W99618  10.122  19.674   3.288
28003W        W99619   5.238  30.568  11.955
28004W        W99620   1.687  33.966   2.732
28005W        W99621   0.797  13.613  14.401
28006W        W99622   1.614  23.840  10.698
28007W        W99623  30.663  44.300  12.113
28008W        W99624  13.020  14.991   1.403
28009W        W99625   4.877  27.932  14.949
28010W        W99626  30.193   1.024   2.294
28011W        W99627  26.945   8.052   1.824
28012W        W99628  43.016  19.948   5.339
28013W        W99629   4.039  23.536   3.287
28014W        W99630  15.811  21.697   3.254
28015W        W99631  22.459  41.504  14.309
28016W        W99632  23.445  18.320  10.366
28017W        W99633   2.470  27.025  11.166
28018W        W99634   5.449   2.840  14.042
28019W        W99635  38.367  13.296   0.358
28020W        W99636   9.885  10.299  13.191
28021W        W99637  12.739  14.539   1.265
28022W        W99638  29.190  41.740  13.902
28023W        W99639  24.011  25.232  10.804
28024W        W99640   3.773  24.196   4.619
28025W        W99641  10.684  20.358  11.694
28026W        W99642  11.167  40.003  12.123
28027W        W99643  25.695  41.039   1.636
28028W        W99644  42.327   9.300   3.387
28029W        W99645  20.452  31.137   3.171
28030W        W99646  41.797   3.000   4.808
28031W        W99647   7.373  39.028   1.378
28032W        W99648  21.564  17.287  12.406
28033W        W99649   4.329  31.415  10.758
28034W        W99650   5.941  38.634   2.394
28035W        W99651  34.479  14.620  14.748
28036W        W99652  26.057  34.520  14.552
28037W        W99653  43.231   9.263   1.724
28038W        W99654  41.986  35.975  14.801
28039W        W99655  40.332  30.102  10.540
28040W        W99656  39.032   3.748   0.846
28041W        W99657  27.144  34.023  11.054
28042W        W99658  31.882  15.371  13.050
28043W        W99659  22.495  19.184  13.587
28044W        W99660  32.270  43.752   2.347
28045W        W99661   2.159  11.432  11.991
28046W        W99662  29.390  42.227  13.939
28047W        W99663   2.207  27.223   2.262
28048W        W99664  40.013  32.396  14.061
28049W        W99665  22.916   0.005   0.062
28050W        W99666  41.718   4.918   0.764
28051W        W99667  21.253  22.305  13.395
28052W        W99668   2.560  21.092  11.759
28053W        W99669  44.776   3.289   0.799
28054W        W99670  20.150  28.420  14.009
28055W        W99671  35.963  11.075   0.157
28056W        W99672  23.843  19.671  14.369
28057W        W99673  17.192  27.737  11.582
28058W        W99674  13.156  22.029  13.925
28059W        W99675  20.175   9.875  11.673
28060W        W99676  20.306   7.094   1.449
28061W        W99677  25.990   6.201   4.255
28062W        W99678  17.250  35.643  10.332
28063W        W99679  14.866  13.907  11.868
28064W        W99680  30.114   4.334   0.803
28065W        W99681  30.662  10.359   4.159
28066W        W99682  13.364  23.269  10.384
28067W        W99683  37.841  24.067   0.007
28068W        W99684  20.126  18.749  13.467
28069W        W99685  12.983  41.149   0.777
28070W        W99686  19.720  17.988  11.015
28071W        W99687  19.029  15.365   0.891
28072W        W99688  21.738  35.852   1.066
28073W        W99689  40.387  32.386  14.707
28074W        W99690  21.927  35.933  13.808
28075W        W99691  34.157  12.200   4.607
28076W        W99692  16.792  32.573  12.392
28077W        W99693  19.735  12.695   3.310
28078W        W99694  32.100  24.591  14.833
28079W        W99695  22.986  19.318  14.355
28080W        W99696  13.093  26.744  13.013
28081W        W99697  37.859  44.478   0.495
28082W        W99698  33.575  28.247  10.757
28083W        W99699   1.219  27.533   9.804
28084W        W99700  35.590  14.105   3.123
28085W        W99701   9.705  37.282   4.857
28086W        W99702   6.315  21.181  11.213
28087W        W99703  24.230  20.960  12.981
28088W        W99704  27.512  28.360  13.738
28089W        W99705  33.971   2.978  14.471
28090W        W99706  20.539   0.456   1.375
28091W        W99707  10.311  28.166  12.333
28092W        W99708  42.502   8.647   3.602
28093W        W99709  37.602  10.428   2.388
28094W        W99710  32.225  40.610  11.073
28095W        W99711   5.079  24.194   1.691
28096W        W99712  18.070   0.237  11.431
28097W        W99713  42.757  19.471  13.428
28098W        W99714  16.293  38.319   4.870
28099W        W99715  23.726   9.245   3.786
28100W        W99716  33.516  42.268  13.127
28101W        W99717  33.043   0.315  11.246
28102W        W99718  25.644  16.267  10.916
28103W        W99719   5.372   7.509   2.144
28104W        W99720  38.668  12.703  12.223
28105W        W99721   4.128  30.926  12.506
28106W        W99722  22.583  11.297  13.016
28107W        W99723  42.805  38.966  10.545
28108W        W99724  17.096  27.397   4.826
28109W        W99725  12.037  22.330   3.156
28110W        W99726   9.157  21.818   4.150
28111W        W99727  16.560  10.382  11.604
28112W        W99728  13.742  34.816   0.324
28113W        W99729  44.453  27.067  14.253
28114W        W99730  33.706  37.241  11.101
28115W        W99731  41.724  37.819  12.814
28116W        W99732  29.605   4.151   1.873
28117W        W99733   9.246  34.134  12.399
28118W        W99734   4.747  20.679   4.634
28119W        W99735  29.759  21.142   0.984
28120W        W99736  15.609  11.970   0.038
28121W        W99737  27.200  34.146   3.228
28122W        W99738   5.866  38.880  12.435
28123W        W99739  43.776  30.826   0.013
28124W        W99740   3.390   3.094  11.604
28125W        W99741  31.354  31.925   2.594
28126W        W99742  10.188  24.259  14.424
28127W        W99743  20.321  33.060  12.039
28128W        W99744  38.398  29.832   2.029
28129W        W99745  24.726  28.137   0.267
28130W        W99746   9.784  31.986   1.821
28131W        W99747  38.663  16.673  13.090
28132W        W99748  33.155  34.384  13.737
28133W        W99749  16.561  25.133   2.805
28134W        W99750  11.174  28.371   3.363
28135W        W99751  30.180   6.458  12.973
28136W        W99752  38.483  42.369   1.783
28137W        W99753  21.695  44.326  13.395
28138W        W99754  29.931  17.260   3.988
28139W        W99755  15.028  28.383  13.468
28140W        W99756  13.243  32.309  10.724
28141W        W99757  23.429  27.538  11.884
28142W        W99758  35.108   1.857   1.155
28143W        W99759  37.558  11.685  12.963
28144W        W99760  22.226   2.024  11.639
28145W        W99761  17.011  15.586   3.269
28146W        W99762  41.253  22.106   2.294
28147W        W99763   1.435  43.914  13.732
28148W        W99764  41.792  18.113   2.759
28149W        W99765  42.272  26.284  12.709
28150W        W99766  22.263  32.475   1.951
28151W        W99767  13.604  18.642   2.148
28152W        W99768   9.415  43.498   0.791
28153W        W99769  41.138  39.049  13.840
28154W        W99770  15.171  17.529  13.767
28155W        W99771  25.719   5.220   4.595
28156W        W99772   6.190   7.909  14.983
28157W        W99773  35.556  15.784  14.291
28158W        W99774  14.231  11.343   4.953
28159W        W99775  14.952   0.370  11.517
28160W        W99776  40.243  36.345   2.838
28161W        W99777  43.864  22.620   3.442
28162W        W99778  15.017   4.272   0.339
28163W        W99779  37.188  43.485  11.601
28164W        W99780   9.213  25.421   3.606
28165W        W99781  27.480  24.075  11.120
28166W        W99782  10.804   5.844   0.754
28167W        W99783  44.856   8.561   0.010
28168W        W99784  16.280  12.195  14.945
28169W        W99785  14.628  28.680   2.287
28170W        W99786  43.294  34.918  11.928
28171W        W99787  35.555   5.251  14.013
28172W        W99788   4.993  29.971  11.977
28173W        W99789  22.189  42.794  14.420
28174W        W99790   1.433   2.457   1.427
28175W        W99791  36.443   0.820   4.743
28176W        W99792   1.342  18.478  13.016
28177W        W99793   7.639  39.631   1.927
28178W        W99794  17.629   5.719  14.346
28179W        W99795  15.715  11.140   4.977
28180W        W99796  39.585  23.058  14.860
28181W        W99797  40.553   7.834  14.770
28182W        W99798  29.187   0.490  12.035
28183W        W99799  35.813   8.883   2.733
28184W        W99800  23.741   2.606   1.970
28185W        W99801   1.748  44.812   0.811
28186W        W99802  36.491   2.263  14.776
28187W        W99803  16.345   1.935  13.946
28188W        W99804   7.009  18.748   2.009
28189W        W99805   6.641  25.068   0.371
28190W        W99806   6.451   5.380  12.098
28191W        W99807  25.319  43.605   3.376
28192W        W99808  42.298  41.393  11.114
28193W        W99809   3.998   1.348   4.122
28194W        W99810  31.832  37.631   4.099
28195W        W99811  38.319   4.978   3.336
28196W        W99812  43.134  19.970  10.983
28197W        W99813  34.918  16.359  12.574
28198W        W99814  33.012   7.770   4.567
28199W        W99815  30.563  26.924   2.798
28200W        W99816  39.771  12.307  11.065
28201W        W99817  38.966  21.308  14.659
28202W        W99818  16.593  28.920  12.786
28203W        W99819  34.019  17.066   4.675
28204W        W99820  10.324  39.000   2.925
28205W        W99821  36.536  21.965  12.032
28206W        W99822  43.791  22.979   0.412
28207W        W99823  44.138  39.790  12.897
28208W        W99824  29.141  18.620  10.873
28209W        W99825   8.112  14.762   0.297
28210W        W99826  13.198  28.527   2.190
28211W        W99827  18.836   2.780  11.588
28212W        W99828  27.290  36.134  11.565
28213W        W99829  23.454  38.966   2.726
28214W        W99830  35.986  14.517   0.707
28215W        W99831  32.491  26.783  14.847
28216W        W99832  22.652   5.702  13.500
28217W        W99833   5.485  36.303   4.709
28218W        W99834   6.374  38.761  12.418
28219W        W99835   5.701   3.415   2.279
28220W        W99836  22.008  41.428  11.929
28221W        W99837  42.355  36.597  12.915
28222W        W99838  15.508  14.722  13.910
28223W        W99839  23.081   3.931  11.611
28224W        W99840   8.414  10.818  11.063
28225W        W99841  39.544  10.861  12.957
28226W        W99842  21.285   0.717   3.885
28227W        W99843  16.627  31.542  13.466
28228W        W99844  24.791  39.941   4.010
28229W        W99845  43.789  24.067   1.739
28230W        W99846  41.991   4.057  12.067
28231W        W99847  24.274  31.533  13.463
28232W        W99848  43.426  16.567  10.380
28233W        W99849  35.662   8.977   1.867
28234W        W99850  17.307  18.244   0.731
28235W        W99851   5.169   3.861  12.039
28236W        W99852  30.612  42.287   0.861
28237W        W99853  25.622  41.612   2.695
28238W        W99854  25.242  17.587   2.396
28239W        W99855  22.206   0.539  12.991
28240W        W99856  30.189  37.062   1.514
28241W        W99857  12.204  39.369  11.721
28242W        W99858  20.050  40.402  12.855
28243W        W99859  39.323  23.255  11.106
28244W        W99860  13.229  14.942   0.840
28245W        W99861  24.462  17.352  10.585
28246W        W99862  44.429  17.882   4.745
28247W        W99863  25.556  34.521   1.650
28248W        W99864  35.523   3.011   1.506
28249W        W99865  34.414  32.694  14.441
28250W        W99866  27.578  34.716   4.806
28251W        W99867   1.295  31.428   1.248
28252W        W99868  20.038  35.816  12.041
28253W        W99869  25.459  17.164  10.685
28254W        W99870  30.662   3.955   4.067
28255W        W99871  21.978  36.484  11.490
28256W        W99872   1.776  41.090  13.463
28257W        W99873   3.474   4.954  12.845
28258W        W99874  24.967  35.048   0.548
28259W        W99875  33.468  19.902  13.979
28260W        W99876  10.120  38.524  14.478
28261W        W99877  42.906  27.429  14.392
28262W        W99878  26.089  23.239   2.691
28263W        W99879  10.320  15.261   1.047
28264W        W99880   8.806   7.771  12.949
28265W        W99881  26.859  27.127  11.044
28266W        W99882  10.938  29.030   2.565
28267W        W99883  26.215   7.408   4.794
28268W        W99884  12.357  38.524   3.295
28269W        W99885  13.790  39.039  13.854
28270W        W99886  12.136   6.982   4.534
28271W        W99887  10.379  41.859   4.252
28272W        W99888  32.807   1.596  12.003
28273W        W99889  31.067  26.946  10.494
28274W        W99890  29.103  29.402   3.770
28275W        W99891  43.068  40.813  10.965
28276W        W99892   9.586  17.752  11.157
28277W        W99893  40.370   9.701   4.621
28278W        W99894  11.435   3.769   3.743
28279W        W99895  43.010  16.545   1.724
28280W        W99896  31.082  33.585   3.696
28281W        W99897  14.693  15.686  10.229
28282W        W99898   1.734  31.037  13.083
28283W        W99899  37.797  21.272  13.373
28284W        W99900  34.930  28.533   2.422
28285W        W99901   5.093   9.142   3.321
28286W        W99902  10.839  12.584  13.891
28287W        W99903  33.568  20.640   3.368
28288W        W99904  13.738  16.055   5.362
28289W        W99905   5.531  40.407  11.594
28290W        W99906   2.757  25.390   2.159
28291W        W99907  18.732  13.164  11.113
28292W        W99908   5.551  15.152   3.193
28293W        W99909  35.813  44.687  13.382
28294W        W99910  41.499  19.471  12.810
28295W        W99911   1.259   9.900  10.446
28296W        W99912  43.448  10.161  12.026
28297W        W99913  24.399   9.330  14.833
28298W        W99914  19.618  38.581   2.079
28299W        W99915  34.510  34.334  13.591
28300W        W99916  44.688  22.559  12.131
28301W        W99917  42.711  13.242  13.964
28302W        W99918   4.119  24.735   5.478
28303W        W99919   2.670  27.138   2.035
28304W        W99920   6.431   3.377   0.752
28305W        W99921   4.487   0.185  11.516
28306W        W99922  24.779  41.732   4.168
28307W        W99923  30.565  24.959   0.876
28308W        W99924  36.330  29.590  12.987
28309W        W99925   3.792  19.733   3.887
28310W        W99926   6.327  10.910   2.884
28311W        W99927  40.617  28.366  14.647
28312W        W99928  28.211  16.151   4.599
28313W        W99929   6.322  38.957   3.634
28314W        W99930  17.989  20.324  12.211
28315W        W99931   9.374  38.052   0.016
28316W        W99932   9.108   2.002  10.473
28317W        W99933  42.619  27.345  13.587
28318W        W99934  12.290  25.144   2.317
28319W        W99935  20.203  35.454  11.155
28320W        W99936  18.737  40.448   3.195
28321W        W99937  31.511  13.836  11.613
28322W        W99938  22.719  36.596  14.822
28323W        W99939  25.674  35.056  13.961
28324W        W99940  21.348  20.118   0.197
28325W        W99941  32.550  41.264   3.136
28326W        W99942  36.185  31.537   2.204
28327W        W99943  31.185  19.841   4.553
28328W        W99944  42.368  43.260   0.825
28329W        W99945  22.824  21.952   1.382
28330W        W99946  39.537  44.007  10.694
28331W        W99947  29.263  41.644  12.110
28332W        W99948  17.288  40.607   1.914
28333W        W99949  23.752  25.862  12.516
28334W        W99950   4.327  16.736  10.652
28335W        W99951  39.815  11.341   4.244
28336W        W99952  33.330  27.170   1.786
28337W        W99953  42.281  20.864   4.118
28338W        W99954  27.192  22.687  12.417
28339W        W99955  34.626  16.643  11.392
28340W        W99956   2.653  43.026   2.756
28341W        W99957  26.696  19.562  10.849
28342W        W99958  25.203  19.400   4.786
28343W        W99959  36.296   4.427   2.624
28344W        W99960  36.142  29.976  14.600
28345W        W99961  25.403  40.497  12.393
28346W        W99962   2.789   5.618  10.731
28347W        W99963   8.531   6.904  12.393
28348W        W99964  32.705   5.313   4.425
28349W        W99965   1.353   8.280   0.818
28350W        W99966  25.198  40.811   2.705
28351W        W99967  15.711   2.732   1.470
28352W        W99968  18.364  36.966   1.789
28353W        W99969  30.093   1.744  12.067
28354W        W99970  42.010   5.297  12.184
28355W        W99971  15.083   1.033  11.104
28356W        W99972  12.546  27.699   3.744
28357W        W99973  10.059   8.887  13.579
28358W        W99974  21.167  30.337  10.604
28359W        W99975   1.711  16.718   2.009
28360W        W99976   8.227  18.218  10.469
28361W        W99977   3.878  22.570   9.797
28362W        W99978   6.307  44.868   1.258
28363W        W99979  43.868   2.926  12.226
28364W        W99980  12.730  13.679  11.653
28365W        W99981  11.702   3.476   3.394
28366W        W99982  20.267  32.542   1.952
28367W        W99983  14.201  23.318   0.938
28368W        W99984  10.031  14.416   4.604
28369W        W99985  10.625   5.339  10.714
28370W        W99986   8.671   6.949  13.425
28371W        W99987  12.692   6.998  11.735
28372W        W99988  33.778  33.651   0.982
28373W        W99989  17.711   0.249   0.908
28374W        W99990  28.035  37.288   0.970
28375W        W99991  18.855   8.639  13.341
28376W        W99992  35.431  40.018   2.695
28377W        W99993   5.171   6.707   3.782
28378W        W99994  28.479  30.546   3.739
28379W        W99995  17.881   4.096   0.818
28380W        W99996  32.435  16.457  12.025
28381W        W99997   0.030  24.674   4.496
28382W        W99998   2.863   1.248   0.505
28383W        W99999  41.727  42.012  11.719
28384W        W    0   8.883  28.017   2.919
28385W        W    1  18.866   0.566   4.019
28386W        W    2  25.058  30.750  12.936
28387W        W    3   6.347  31.653  10.503
28388W        W    4  44.339   9.890   3.636
28389W        W    5  15.566  18.069  11.065
28390W        W    6   6.113   7.874  10.569
28391W        W    7  15.807   0.400   0.868
28392W        W    8   2.536  10.939  11.104
28393W        W    9  35.878  27.559  12.920
28394W        W   10   1.380  31.898  11.036
28395W        W   11  37.041  10.935   0.433
28396W        W   12   1.507  36.316   0.074
28397W        W   13  17.174  34.108   1.332
28398W        W   14  31.575  19.428   3.296
28399W        W   15  20.801   1.463  13.460
28400W        W   16  14.642  44.748  11.168
28401W        W   17  39.803  19.088  14.953
28402W        W   18  14.168   3.194  11.845
28403W        W   19   7.172   0.896   4.879
28404W        W   20  28.141  28.562   3.184
28405W        W   21  21.534  16.605   3.637
28406W        W   22   5.491   5.511   0.935
28407W        W   23  24.236  38.920   4.454
28408W        W   24  28.677  15.767  10.290
28409W        W   25  37.871  37.834   0.813
28410W        W   26  35.121   6.360  14.353
28411W        W   27  19.761  19.798  14.104
28412W        W   28  33.825   9.770   0.469
28413W        W   29   3.281   1.828  10.961
28414W        W   30  34.292   4.442  12.608
28415W        W   31  34.556   7.359  12.448
28416W        W   32   3.838   9.355   2.866
28417W        W   33  36.267   0.239  14.806
28418W        W   34  18.840  44.066  11.960
28419W        W   35  39.164   7.933   2.516
28420W        W   36   1.951  17.166   2.129
28421W        W   37  14.679  28.160   4.066
28422W        W   38  23.141  19.519   2.408
28423W        W   39  44.257   2.832   1.278
28424W        W   40  35.524  34.019  10.788
28425W        W   41  37.860  17.233  10.214
28426W        W   42  41.939  26.584  14.533
28427W        W   43  26.617  44.566   1.397
28428W        W   44  41.327   1.294   3.304
28429W        W   45  24.099  24.137   3.137
28430W        W   46  27.121  30.480   4.798
28431W        W   47  30.091  20.957   2.364
28432W        W   48  17.852  21.592  11.777
28433W        W   49  42.276  32.453  10.676
28434W        W   50  19.648  30.573   0.854
28435W        W   51  41.375  33.861  13.152
28436W        W   52  21.685   1.374  10.685
28437W        W   53  18.109  41.618   1.311
28438W        W   54  40.778  37.701  14.044
28439W        W   55  21.027   0.983  10.558
28440W        W   56   7.617   0.944   0.353
28441W        W   57  24.396  14.083  10.127
28442W        W   58  30.200  43.451  12.175
28443W        W   59  36.900  20.806  13.961
28444W        W   60   6.344  31.040   2.462
28445W        W   61   1.163  12.070  14.503
28446W        W   62  21.606  28.983   3.259
28447W        W   63  15.647  13.325  14.294
28448W        W   64  36.480  25.213   1.063
28449W        W   65  28.061  34.812   0.979
28450W        W   66  18.204   3.653   4.022
28451W        W   67  18.185  22.032  14.317
28452W        W   68   1.590   1.559   5.054
28453W        W   69  41.787  43.487   2.461
28454W        W   70  30.804   4.796   4.939
28455W        W   71  16.122  42.279   4.999
28456W        W   72  14.688  24.128   3.889
28457W        W   73  21.090  41.030   3.770
28458W        W   74  16.620   4.931  11.942
28459W        W   75  41.333  18.288  12.528
28460W        W   76  18.709   3.524  13.495
28461W        W   77  37.419  38.409   2.628
28462W        W   78   6.364  44.720  12.919
28463W        W   79  19.082  24.669   2.682
28464W        W   80   1.970  25.146  10.324
28465W        W   81   9.199   3.990   4.496
28466W        W   82   9.886  26.677   1.129
28467W        W   83   7.914  40.353   4.110
28468W        W   84  12.271   9.107  10.771
28469W        W   85   2.717  10.230  11.969
28470W        W   86  19.697   3.799   0.345
28471W        W   87   4.799  12.190   2.917
28472W        W   88   4.730  41.323   1.475
28473W        W   89  28.140  40.777   4.663
28474W        W   90  10.904  11.586  11.099
28475W        W   91  15.784  21.036   0.491
28476W        W   92  14.175  13.554  14.328
28477W        W   93   7.632  19.257   3.615
28478W        W   94  34.593  40.198  13.857
28479W        W   95  30.032  19.637  14.847
28480W        W   96   2.319  20.049   0.317
28481W        W   97  32.582   8.875  13.090
28482W        W   98  10.745  26.977   0.486
28483W        W   99  21.542  40.984   2.310
28484W        W  100  29.476   5.718  14.048
28485W        W  101  21.985  40.550   3.672
28486W        W  102  24.706  16.299   0.555
28487W        W  103  42.904  11.930  14.284
28488W        W  104  40.942  28.447   0.353
28489W        W  105  20.389  16.821   3.609
28490W        W  106  29.163   2.014   3.761
28491W        W  107  22.746  37.503  13.742
28492W        W  108  17.250  28.355   4.061
28493W        W  109  16.981  13.157   4.108
28494W        W  110  42.300  44.398   0.413
28495W        W  111   7.490  42.698  12.052
28496W        W  112   1.414  40.443  10.711
28497W        W  113  38.909   8.171   5.158
28498W        W  114  27.579  38.589   0.724
28499W        W  115  20.980  33.883  11.617
28500W        W  116  24.621  27.523  13.596
28501W        W  117   1.947  43.757   2.758
28502W        W  118  34.612  15.250  13.093
28503W        W  119  31.685  17.162  13.020
28504W        W  120  33.379  12.856   0.729
28505W        W  121  41.094  34.220  11.686
28506W        W  122  19.319  35.986   2.244
28507W        W  123  34.055  25.452   0.298
28508W        W  124  41.729  34.414   1.708
28509W        W  125  43.855  26.939  13.399
28510W        W  126  36.350  39.512   2.765
28511W        W  127  17.632  17.436  10.501
28512W        W  128   9.513  14.873   0.104
28513W        W  129  40.877  34.101  11.199
28514W        W  130  29.729  12.137  13.479
28515W        W  131  34.928  21.660  14.832
28516W        W  132  15.069  16.669  12.350
28517W        W  133  29.105  44.784  10.756
28518W        W  134  12.661  42.927   1.718
28519W        W  135  28.664  26.965  10.590
28520W        W  136   6.231  29.778  11.337
28521W        W  137  36.452  34.595   1.719
28522W        W  138  42.076  20.591  14.091
28523W        W  139  12.044  28.661  14.882
28524W        W  140  31.790  20.634  12.499
28525W        W  141  33.999  12.395  13.196
28526W        W  142   7.132  26.901  13.862
28527W        W  143   6.286   3.990   2.689
28528W        W  144   1.258   2.989  12.086
28529W        W  145  42.704   2.304  11.137
28530W        W  146  36.353  36.606  13.552
28531W        W  147  11.636  30.139  10.976
28532W        W  148  44.926  18.363  10.749
28533W        W  149  33.043  38.788  14.492
28534W        W  150  13.891   8.394  14.342
28535W        W  151  14.471  35.025   0.056
28536W        W  152  31.089  19.694  12.162
28537W        W  153  38.494  17.438   4.030
28538W        W  154  11.657  29.074   4.083
28539W        W  155  29.314  11.077  11.208
28540W        W  156   6.943  18.305   0.758
28541W        W  157  40.961  40.838   3.641
28542W        W  158   5.378  29.459  10.516
28543W        W  159  35.096  39.313  12.833
28544W        W  160  38.433   3.021   1.772
28545W        W  161   2.994  44.525  11.221
28546W        W  162  38.411  35.473   0.873
28547W        W  163  29.054  10.840   3.281
28548W        W  164  12.644  24.763   2.234
28549W        W  165   8.419  44.928  14.921
28550W        W  166   5.290   5.423  11.556
28551W        W  167  13.636  32.476  12.268
28552W        W  168  10.116  25.237   0.925
28553W        W  169  43.228  32.056  13.935
28554W        W  170  39.266  28.129  12.608
28555W        W  171  16.907  34.994   0.518
28556W        W  172  13.632  32.915   2.168
28557W        W  173  27.012   8.577   0.369
28558W        W  174  41.877   4.279  14.217
28559W        W  175  10.899  11.620  12.931
28560W        W  176  42.881   7.638   2.227
28561W        W  177   7.807   8.178  12.813
28562W        W  178  41.425  32.320   2.025
28563W        W  179  44.450   5.168   3.714
28564W        W  180  14.491   0.823   1.756
28565W        W  181  32.408   9.492   1.695
28566W        W  182  17.078   1.160   1.592
28567W        W  183  13.229  18.226   4.647
28568W        W  184  14.744  21.816  12.858
28569W        W  185  23.420  10.701  11.670
28570W        W  186   7.724  34.883   1.475
28571W        W  187  14.190  28.663  11.263
28572W        W  188  34.041  36.987  10.451
28573W        W  189  33.941  30.075   1.070
28574W        W  190  32.598  22.088  12.532
28575W        W  191   0.197  25.933  10.998
28576W        W  192  40.945  17.125  12.875
28577W        W  193  34.803  36.091   0.454
28578W        W  194  18.606  43.036  10.364
28579W        W  195  39.936  22.237  12.519
28580W        W  196   7.073  34.000  13.349
28581W        W  197  33.486  24.190  13.516
28582W        W  198  43.703  30.193   3.094
28583W        W  199  33.534  20.501  12.960
28584W        W  200  26.167  29.436   1.256
28585W        W  201   3.992  32.187  11.671
28586W        W  202  24.189  39.399  13.465
28587W        W  203   6.611   3.293  14.314
28588W        W  204  11.156  27.146   4.657
28589W        W  205  24.003  20.095  13.655
28590W        W  206  28.057  19.193  12.529
28591W        W  207  19.856  19.698   4.886
28592W        W  208  36.717  21.977  12.949
28593W        W  209   5.893  41.959   3.687
28594W        W  210  12.285  28.683  12.374
28595W        W  211  14.096  19.334   2.442
28596W        W  212  11.203  20.102   2.695
28597W        W  213  16.540  15.290  13.664
28598W        W  214  38.157  24.651   1.039
28599W        W  215  23.172   3.903   4.275
28600W        W  216  38.435  41.955   3.004
28601W        W  217  28.407  36.311  13.277
28602W        W  218   8.919  17.714  10.507
28603W        W  219   3.232  36.576   4.060
28604W        W  220   7.699  13.141   2.359
28605W        W  221   8.503  24.048  13.768
28606W        W  222  12.645  13.004   1.410
28607W        W  223  24.793  41.632  12.552
28608W        W  224  37.281  31.636   4.539
28609W        W  225  42.493  10.219  10.806
28610W        W  226  23.581  25.994   1.486
28611W        W  227   2.275   6.861  14.370
28612W        W  228  22.549   8.065  12.201
28613W        W  229   0.736  10.841   1.886
28614W        W  230   0.247  36.379  14.780
28615W        W  231  27.441   2.054  14.029
28616W        W  232  20.295  11.403   1.380
28617W        W  233  41.351   0.454  14.544
28618W        W  234  24.000   5.411   0.690
28619W        W  235  40.652  35.481  11.213
28620W        W  236  37.406  12.187   4.123
28621W        W  237  43.724  15.927   1.439
28622W        W  238  23.688  40.416   0.333
28623W        W  239  33.930   0.382  13.511
28624W        W  240  30.413  11.354  11.496
28625W        W  241   9.421  29.188  12.535
28626W        W  242   7.722  28.364  14.389
28627W        W  243  40.568  31.840   1.369
28628W        W  244  42.442  30.705   2.191
28629W        W  245  15.385  13.919   3.768
28630W        W  246   5.594  36.414  14.427
28631W        W  247  18.177  31.397   2.301
28632W        W  248  24.962  43.592  11.001
28633W        W  249  41.065  42.367   3.771
28634W        W  250  11.916   8.182   1.342
28635W        W  251  20.499  17.598  14.444
28636W        W  252  15.965  38.270  14.876
28637W        W  253  22.561  22.142   0.934
28638W        W  254  16.052  44.045  12.555
28639W        W  255  42.876  20.559   1.304
28640W        W  256  34.080   7.360   0.672
28641W        W  257   5.597   3.407   3.719
28642W        W  258  28.270   5.892  10.447
28643W        W  259  31.958  32.392   2.647
28644W        W  260  43.522  36.828  13.993
28645W        W  261  34.634  43.287   1.352
28646W        W  262   5.845  31.153   1.236
28647W        W  263  32.055   9.696  13.614
28648W        W  264  15.180   9.140   1.414
28649W        W  265  42.510  14.668   0.219
28650W        W  266  41.291  32.676   2.553
28651W        W  267  34.368  27.108   3.802
28652W        W  268   1.288  23.457   5.149
28653W        W  269  31.347  19.125   0.274
28654W        W  270   9.284  36.365  13.419
28655W        W  271  33.532  10.198   1.761
28656W        W  272  33.186   0.523  12.808
28657W        W  273  26.543  40.991   4.716
28658W        W  274   3.214  31.276  11.132
28659W        W  275  17.204  21.028   0.175
28660W        W  276  17.102   2.940   3.767
28661W        W  277  19.250   4.153  13.999
28662W        W  278  43.001  22.723   1.755
28663W        W  279  17.418  22.271   3.551
28664W        W  280  38.379  12.339  14.522
28665W        W  281  21.079   5.822   2.417
28666W        W  282  43.795   1.242   2.209
28667W        W  283  32.213  32.863   3.692
28668W        W  284  36.643   8.476  11.525
28669W        W  285  27.965   9.632   2.394
28670W        W  286  15.568  44.673   1.395
28671W        W  287  44.061  13.573   0.260
28672W        W  288  17.477  39.899  11.254
28673W        W  289  12.198  18.787   1.822
28674W        W  290  24.994  38.075   3.708
28675W        W  291  25.660  40.594   2.611
28676W        W  292  27.619   3.953  13.467
28677W        W  293   3.869  23.222   1.319
28678W        W  294  22.774  23.647  11.441
28679W        W  295  32.587  38.804   2.781
28680W        W  296  43.680  17.735   0.808
28681W        W  297  33.613  34.167  13.545
28682W        W  298   1.742  30.909  12.147
28683W        W  299  37.405  31.958  10.770
28684W        W  300  29.425  43.591   4.186
28685W        W  301   9.692  15.838  10.614
28686W        W  302  40.150  42.271   2.353
28687W        W  303   5.412   8.007   2.232
28688W        W  304  15.744  40.974   0.459
28689W        W  305  39.004   0.485   2.131
28690W        W  306  21.111  42.479   4.538
28691W        W  307  38.468  41.723  12.085
28692W        W  308  24.956  19.802  13.392
28693W        W  309  15.659  13.282  14.825
28694W        W  310  41.460   3.476  13.169
28695W        W  311  19.507  10.113   0.808
28696W        W  312   7.737  14.514  14.988
28697W        W  313  37.453  41.603  13.588
28698W        W  314  34.974   3.269   5.119
28699W        W  315  39.093  35.520  13.481
28700W        W  316  40.276   1.352  14.299
28701W        W  317  17.478  10.183   2.215
28702W        W  318  17.670  21.326  14.512
28703W        W  319  25.675  40.007   0.508
28704W        W  320   6.174  26.340  12.704
28705W        W  321  29.849  21.458  10.721
28706W        W  322  41.607  19.829   0.724
28707W        W  323  30.381  44.447  11.221
28708W        W  324  26.159  12.610  11.611
28709W        W  325  27.595   5.366  11.207
28710W        W  326  39.034  28.093   0.488
28711W        W  327  37.864  14.547   3.719
28712W        W  328   2.782  10.295   2.877
28713W        W  329  14.760   6.854  12.748
28714W        W  330   9.379  23.034   4.141
28715W        W  331   8.199  19.610  14.768
28716W        W  332  13.125  10.121   2.261
28717W        W  333  22.147  37.423   1.044
28718W        W  334  24.655  28.554   4.297
28719W        W  335   4.533  18.566   1.906
28720W        W  336  18.856  14.599  14.449
28721W        W  337  32.532  25.670   4.827
28722W        W  338   0.962  38.410   3.200
28723W        W  339  15.044  39.008  11.604
28724W        W  340  43.124  22.990   2.181
28725W        W  341  14.700  28.542  12.127
28726W        W  342   5.671  23.159  12.836
28727W        W  343  24.710  31.545  14.441
28728W        W  344   2.164  13.609  13.464
28729W        W  345  25.279  18.831  11.829
28730W        W  346  16.118  30.433  14.127
28731W        W  347   3.803  40.072  12.841
28732W        W  348  14.008  38.013  13.476
28733W        W  349   9.335  26.916  14.287
28734W        W  350  25.651  16.034   2.915
28735W        W  351  37.788  20.275  14.774
28736W        W  352  43.419  22.605  13.355
28737W        W  353  20.700   0.959   1.352
28738W        W  354  25.206   6.177   2.333
28739W        W  355   6.253   0.839  12.335
28740W        W  356  41.060  22.997   2.794
28741W        W  357  25.122  27.003   4.640
28742W        W  358  32.854  12.387  10.633
28743W        W  359  22.096  13.302   1.227
28744W        W  360  42.854  43.457   4.061
28745W        W  361  12.232  15.554  12.494
28746W        W  362  44.833  26.601   0.294
28747W        W  363   8.285  24.603   3.338
28748W        W  364  44.255  32.943  13.108
28749W        W  365  13.185  32.892  13.960
28750W        W  366  32.372  30.089   1.848
28751W        W  367   3.175  16.697  14.450
28752W        W  368  29.130  28.612   3.374
28753W        W  369   3.534  10.391   2.271
28754W        W  370  34.324  41.050   2.157
28755W        W  371   5.877   1.380   4.779
28756W        W  372  22.053  33.545   3.700
28757W        W  373  22.826  39.046  12.544
28758W        W  374  11.635  28.413   1.343
28759W        W  375   3.618  39.051   4.213
28760W        W  376  33.527  33.445   0.242
28761W        W  377  26.057  10.085  14.692
28762W        W  378  36.819  14.831   0.321
28763W        W  379  24.916   1.354  10.977
28764W        W  380  34.110  38.788   1.977
28765W        W  381  26.738   2.815   1.215
28766W        W  382  29.849  22.045  12.914
28767W        W  383   8.153  13.237   2.135
28768W        W  384   9.883  31.525   1.222
28769W        W  385  15.497  19.247   1.484
28770W        W  386  11.653  21.777  10.938
28771W        W  387  21.224  42.240   2.295
28772W        W  388  35.892  33.391  11.714
28773W        W  389  21.917  39.815   4.252
28774W        W  390  38.487  39.477   4.570
28775W        W  391   4.756  16.002  11.221
28776W        W  392  15.751   8.239  14.974
28777W        W  393  36.839  22.766  13.169
28778W        W  394  32.755  40.803   3.275
28779W        W  395  16.213  18.845   2.169
28780W        W  396   6.228  27.605   3.175
28781W        W  397  39.542  29.565   3.627
28782W        W  398  19.809  14.881   1.325
28783W        W  399  22.100  24.212  13.610
28784W        W  400   7.426  14.708   3.170
28785W        W  401  42.339  33.066   4.562
28786W        W  402   6.361  23.078  11.342
28787W        W  403  38.312  32.360  13.658
28788W        W  404   9.425  38.463  12.987
28789W        W  405  11.261  35.525  11.575
28790W        W  406  44.572   9.777   0.063
28791W        W  407  44.106  35.046   4.067
28792W        W  408  25.101   8.190   0.221
28793W        W  409  34.622   4.988  13.780
28794W        W  410  24.928  44.802   0.430
28795W        W  411   8.843  33.646   4.028
28796W        W  412   7.000   6.585   1.929
28797W        W  413  25.748  15.735  14.553
28798W        W  414  37.567   9.652  14.459
28799W        W  415  21.220  23.259  14.887
28800W        W  416  43.555  16.706   1.706
28801W        W  417   6.807  39.304   0.281
28802W        W  418  13.361  16.713  10.209
28803W        W  419  42.561  25.535   2.636
28804W        W  420  38.258   5.871  13.585
28805W        W  421  29.879  11.015  12.926
28806W        W  422  32.064  22.533   3.363
28807W        W  423  31.621  27.537  11.427
28808W        W  424  35.900   2.273   2.265
28809W        W  425  37.051  38.936  11.959
28810W        W  426   8.677  27.174  11.996
28811W        W  427  37.561  13.217   4.571
28812W        W  428   4.930   7.624  14.876
28813W        W  429  33.152  17.706   1.848
28814W        W  430  12.088  22.326   2.355
28815W        W  431   9.230  14.549   0.812
28816W        W  432  41.476  28.243   1.918
28817W        W  433  32.931  17.883  11.481
28818W        W  434  28.548   6.828   1.847
28819W        W  435  13.682  11.640  12.425
28820W        W  436   3.955   3.367   4.860
28821W        W  437  28.420  13.293   4.171
28822W        W  438   0.691   4.283  14.301
28823W        W  439  36.068  30.025   1.251
28824W        W  440   3.579  21.030   2.241
28825W        W  441  35.161  15.820  11.083
28826W        W  442  37.390  38.338   2.111
28827W        W  443  13.822  17.171   5.257
28828W        W  444   9.238  11.843   1.779
28829W        W  445  15.679  28.459   1.695
28830W        W  446  14.100  18.795   2.303
28831W        W  447  27.546  17.770  13.828
28832W        W  448  42.914  36.568   1.833
28833W        W  449   0.528  31.420  10.719
28834W        W  450  26.133  20.556   3.571
28835W        W  451  37.096   7.396   2.852
28836W        W  452   3.256   7.658  14.267
28837W        W  453  35.918  43.103   2.115
28838W        W  454  14.428  38.909   1.879
28839W        W  455  11.260   2.544  12.401
28840W        W  456  27.106   7.143   0.187
28841W        W  457  20.009  23.807   0.469
28842W        W  458  44.797  18.156   4.242
28843W        W  459  35.203  16.326  14.930
28844W        W  460   3.954  10.274  12.469
28845W        W  461  19.749  22.162  12.346
28846W        W  462  41.432   7.863   4.177
28847W        W  463   2.396  43.783   4.211
28848W        W  464  24.064  29.112  13.847
28849W        W  465   1.619   2.249  14.232
28850W        W  466  35.738  16.108   1.666
28851W        W  467   6.567  20.432  11.407
28852W        W  468   1.246  26.743   1.409
28853W        W  469  34.403  34.866  13.535
28854W        W  470  19.221  38.870   1.948
28855W        W  471  37.015   4.220  11.215
28856W        W  472   1.073   2.336   5.062
28857W        W  473  23.932   8.337   3.320
28858W        W  474  11.220   2.236  11.900
28859W        W  475  31.769  31.301   5.418
28860W        W  476  33.488  18.722   2.088
28861W        W  477  35.552  34.668   3.823
28862W        W  478  11.182  20.700  10.617
28863W        W  479  44.013  42.297  13.420
28864W        W  480   8.419  16.657   4.448
28865W        W  481  13.668  35.431   1.035
28866W        W  482  23.166  39.397  10.893
28867W        W  483   5.855  43.943  11.868
28868W        W  484  43.259   1.722  13.142
28869W        W  485   4.714   5.679  10.737
28870W        W  486  41.005  35.816  13.439
28871W        W  487  10.008   7.694  14.837
28872W        W  488  13.796   1.547   2.864
28873W        W  489  42.290  22.210   2.808
28874W        W  490   2.818   4.654   0.218
28875W        W  491  35.433  21.336   0.362
28876W        W  492  24.794  36.032  11.841
28877W        W  493  44.806  19.850  10.759
28878W        W  494  13.431  21.753   0.746
28879W        W  495  15.227  30.962  12.886
28880W        W  496   2.860  14.745   4.336
28881W        W  497  40.831  26.717   2.330
28882W        W  498  21.530  16.672  13.079
28883W        W  499   8.670  34.959  13.417
28884W        W  500  14.773  33.558  14.355
28885W        W  501  36.531  33.399   2.901
28886W        W  502  20.113  15.980   0.141
28887W        W  503  16.813  32.171   4.276
28888W        W  504  30.016  20.825  13.573
28889W        W  505   3.310   7.431   1.414
28890W        W  506  37.795  18.360   1.270
28891W        W  507  41.235  41.223   4.543
28892W        W  508  11.091  43.993  13.466
28893W        W  509  43.049  23.944   2.437
28894W        W  510  41.658   5.761   2.319
28895W        W  511  10.708   2.398  11.964
28896W        W  512  38.637  33.360   1.503
28897W        W  513  19.733  41.066  11.598
28898W        W  514   7.154  32.256  14.037
28899W        W  515  23.637  31.516   4.197
28900W        W  516  17.173  30.962   0.757
28901W        W  517  11.039   2.823  11.094
28902W        W  518  29.090  19.077  14.634
28903W        W  519  17.521  22.567   1.491
28904W        W  520  37.316  21.809  10.791
28905W        W  521  37.800  41.549   4.380
28906W        W  522  29.684  24.024  10.160
28907W        W  523   5.220  13.325  14.608
28908W        W  524  43.449  42.065  12.066
28909W        W  525  10.725  36.907  11.490
28910W        W  526  37.532   0.295  13.214
28911W        W  527   8.160  30.520   4.213
28912W        W  528   9.598   1.538   2.161
28913W        W  529  24.174  43.311   4.719
28914W        W  530   4.944  21.650   4.542
28915W        W  531  17.735  35.844  14.459
28916W        W  532  36.347  24.765  11.154
28917W        W  533  13.828  39.518   1.460
28918W        W  534  36.255  26.392   4.179
28919W        W  535  19.012  32.816   2.122
28920W        W  536  21.967  12.500  12.106
28921W        W  537  25.494  40.941  11.520
28922W        W  538   0.445  13.327   3.864
28923W        W  539  41.973  30.569   0.843
28924W        W  540  24.466  29.658  11.075
28925W        W  541  40.779  41.846  14.775
28926W        W  542  31.063  16.276   3.318
28927W        W  543  25.218  31.493  11.303
28928W        W  544   8.452  31.995   3.752
28929W        W  545  39.350  10.699   0.917
28930W        W  546  41.088  16.148   4.510
28931W        W  547   2.403  39.823  14.936
28932W        W  548   8.514  30.039  14.818
28933W        W  549  22.834   9.117  12.892
28934W        W  550  15.254  13.115  10.682
28935W        W  551   8.961  38.393  13.916
28936W        W  552  32.043   7.570   1.143
28937W        W  553  32.042  10.830   0.835
28938W        W  554  14.142  44.514  10.254
28939W        W  555   3.688  11.295   3.129
28940W        W  556  24.072  16.865  13.848
28941W        W  557  33.544  30.949   2.125
28942W        W  558  34.661  41.449  14.019
28943W        W  559  23.945  33.483  10.683
28944W        W  560  22.680  37.098  11.616
28945W        W  561   7.938  37.058  13.832
28946W        W  562  11.700  26.122  12.934
28947W        W  563  15.681  29.945   3.266
28948W        W  564  23.712   1.448   2.884
28949W        W  565  39.332  15.288  12.014
28950W        W  566  24.246  39.812  11.961
28951W        W  567  10.021   4.310   4.766
28952W        W  568  12.565  32.731   4.115
28953W        W  569  16.052  43.903   2.257
28954W        W  570  20.969  33.890   4.157
28955W        W  571   6.967  42.234   4.609
28956W        W  572  33.299  20.466  14.795
28957W        W  573   0.897  27.256  12.371
28958W        W  574   3.656  33.507  12.264
28959W        W  575  29.238  10.836   4.201
28960W        W  576   3.335  34.018  14.446
28961W        W  577  27.373  10.002  12.976
28962W        W  578   4.868   6.783   1.918
28963W        W  579   7.876  25.691   0.362
28964W        W  580   2.765  40.784   3.387
28965W        W  581   7.364   7.164   4.992
28966W        W  582  24.454  31.982  14.556
28967W        W  583  18.387  40.166  12.888
28968W        W  584  12.308  16.227  14.186
28969W        W  585   2.296  26.781   4.686
28970W        W  586  43.316   6.823  11.623
28971W        W  587   5.609  38.901  12.895
28972W        W  588  17.252   8.227  14.775
28973W        W  589  40.518  15.137   3.633
28974W        W  590  22.030  19.294  12.047
28975W        W  591  15.220   1.974   4.068
28976W        W  592  27.477  19.937   2.114
28977W        W  593  41.348  26.783  13.389
28978W        W  594   8.941   6.111   1.825
28979W        W  595  14.992  19.551   1.408
28980W        W  596  42.462   3.033   0.223
28981W        W  597   1.636  22.753  10.243
28982W        W  598  11.867   1.636   2.843
28983W        W  599  18.646  21.643   2.717
28984W        W  600  11.306  27.477   2.778
28985W        W  601  15.318  14.310   2.810
28986W        W  602  27.197  25.911  13.229
28987W        W  603  31.406   5.299  12.103
28988W        W  604  40.928  29.259   1.227
28989W        W  605  16.754  24.408  10.645
28990W        W  606  20.587  35.809  13.061
28991W        W  607   2.532  17.202   3.231
28992W        W  608  25.217   5.442  14.411
28993W        W  609  22.169   9.874   3.407
28994W        W  610  40.870  16.571   2.704
28995W        W  611   5.137  41.208  11.353
28996W        W  612   4.471  36.516   4.200
28997W        W  613  30.782  38.812  14.401
28998W        W  614  26.167  41.239  12.984
28999W        W  615   1.890  26.487   3.985
29000W        W  616  40.442  34.399   0.927
29001W        W  617   7.289  24.278   2.343
29002W        W  618  43.057  27.132   1.667
29003W        W  619  38.225   5.957   5.026
29004W        W  620   0.476  19.290  13.326
29005W        W  621  43.840   5.849   4.363
29006W        W  622  19.156  26.042  13.924
29007W        W  623  42.973   6.660  13.545
29008W        W  624  37.249  20.260   3.614
29009W        W  625  32.050  28.384  10.569
29010W        W  626  13.837  35.007   1.395
29011W        W  627  19.145  21.054  12.436
29012W        W  628  15.658   1.942  14.483
29013W        W  629   3.485  39.594  10.551
29014W        W  630  35.149   1.718  12.765
29015W        W  631   4.140  11.618   0.730
29016W        W  632  43.473   4.746   9.895
29017W        W  633  21.095  12.915  10.678
29018W        W  634  14.813  38.683   3.481
29019W        W  635   4.209   1.204   9.576
29020W        W  636  40.971  31.713  12.541
29021W        W  637  17.704  25.449  10.642
29022W        W  638  14.621  18.677   2.360
29023W        W  639   2.892  31.142   4.140
29024W        W  640  44.207   3.028   0.287
29025W        W  641  20.248  14.587   1.314
29026W        W  642  17.040   9.446  11.587
29027W        W  643  30.370   2.954   0.823
29028W        W  644  40.045   0.417   4.066
29029W        W  645  19.704  23.985   2.280
29030W        W  646  19.448  39.819   1.733
29031W        W  647  34.320  37.770   4.187
29032W        W  648  32.971   0.640   4.160
29033W        W  649  34.448  17.304  11.445
29034W        W  650  29.047  43.468   0.341
29035W        W  651   2.251  16.763  10.770
29036W        W  652  29.535  28.872   1.688
29037W        W  653  10.810   1.127  13.799
29038W        W  654  29.150  24.285   2.216
29039W        W  655  32.001   1.668   0.941
29040W        W  656   6.204  11.770   0.915
29041W        W  657   2.950   9.685   0.719
29042W        W  658   8.195  21.647  11.687
29043W        W  659  22.180  25.657  11.058
29044W        W  660  31.967   6.832  14.152
29045W        W  661   1.564  32.814  11.184
29046W        W  662  37.908   9.632  11.642
29047W        W  663  14.283   0.939  10.746
29048W        W  664   8.844  33.212   0.327
29049W        W  665  36.640  15.116   4.158
29050W        W  666  32.993  44.015  13.937
29051W        W  667  14.075   7.176   1.405
29052W        W  668  25.244  41.330  12.508
29053W        W  669  33.161  18.373  14.384
29054W        W  670  11.034   4.892   2.289
29055W        W  671   1.168  43.322   2.637
29056W        W  672  17.205  37.037  14.075
29057W        W  673  23.545  26.749  13.801
29058W        W  674  33.551   5.456   0.781
29059W        W  675   4.766  34.929   4.100
29060W        W  676  11.169  38.014  11.576
29061W        W  677  11.855  21.555  12.975
29062W        W  678   1.090  36.219   0.355
29063W        W  679  26.772  20.660   0.406
29064W        W  680  27.141  28.628   2.297
29065W        W  681  44.338  14.260   2.660
29066W        W  682  17.004   6.074  10.685
29067W        W  683  28.656  38.408  10.681
29068W        W  684  14.643   3.722  13.263
29069W        W  685  40.979  28.524  13.109
29070W        W  686   1.183  29.135   2.824
29071W        W  687  31.655  15.873  10.838
29072W        W  688  34.482  33.881   2.925
29073W        W  689  33.109  16.402  11.480
29074W        W  690  11.885   6.223   2.359
29075W        W  691  17.019  41.005   3.692
29076W        W  692  19.148   4.934   2.422
29077W        W  693  12.814  22.807  10.591
29078W        W  694  35.915  16.028   1.204
29079W        W  695  30.765  23.035   2.690
29080W        W  696  35.678   9.297   2.335
29081W        W  697   4.424  16.401  11.161
29082W        W  698  43.084  33.901  10.656
29083W        W  699  37.842  26.905  10.209
29084W        W  700   4.362  22.950  11.868
29085W        W  701  17.272  32.375   4.100
29086W        W  702  32.628   5.678  11.589
29087W        W  703  13.595   8.193  13.939
29088W        W  704  16.810   2.535  11.356
29089W        W  705   4.175  15.555  11.470
29090W        W  706  41.063  15.761   2.357
29091W        W  707   9.882  44.516  11.176
29092W        W  708   1.545   3.597  12.316
29093W        W  709   7.164  41.881  13.919
29094W        W  710  38.532  21.650   1.403
29095W        W  711  17.432  30.603   1.735
29096W        W  712  24.034  19.230   1.378
29097W        W  713   2.797  43.113  12.836
29098W        W  714  42.787  42.952   1.951
29099W        W  715  13.339  29.907  13.738
29100W        W  716  27.893  35.376  10.734
29101W        W  717  39.198  12.303   2.679
29102W        W  718  36.941  19.197  10.673
29103W        W  719  34.349   3.790  13.124
29104W        W  720   6.726  30.005  13.869
29105W        W  721   3.964  21.561   1.802
29106W        W  722  38.388   5.762   2.407
29107W        W  723  35.342  25.094   3.714
29108W        W  724  39.041  21.483  12.900
29109W        W  725  28.943  40.282   0.683
29110W        W  726  11.729   0.104   4.164
29111W        W  727  35.512  40.085  13.023
29112W        W  728   2.462   9.656  11.183
29113W        W  729  13.095   2.694  11.962
29114W        W  730  21.304  30.540   2.440
29115W        W  731  14.622  37.312   0.351
29116W        W  732  41.876  18.309   3.246
29117W        W  733  41.406  36.386   1.782
29118W        W  734  22.642  44.965  10.989
29119W        W  735  27.189  39.434  13.547
29120W        W  736  37.131  43.933   3.158
29121W        W  737   3.729  10.362  11.538
29122W        W  738  34.342  27.074  11.517
29123W        W  739   3.637   2.387  14.364
29124W        W  740  38.298   5.329   2.721
29125W        W  741  25.228  40.498  14.361
29126W        W  742  29.994   4.377   3.525
29127W        W  743  15.310   2.887  13.002
29128W        W  744  20.311  11.194   2.640
29129W        W  745  30.974  29.172  11.667
29130W        W  746  31.168  43.060   3.839
29131W        W  747  11.792   6.500  11.801
29132W        W  748   9.363  33.918   3.265
29133W        W  749  34.916   6.805  11.257
29134W        W  750  20.894  10.385  10.836
29135W        W  751  40.612   3.288   1.372
29136W        W  752  30.572  23.231   1.873
29137W        W  753  17.047  13.418   3.670
29138W        W  754   7.867   9.605  13.493
29139W        W  755  16.108  27.870   3.774
29140W        W  756   1.368  16.963   1.321
29141W        W  757  19.618   8.706   2.814
29142W        W  758   2.964  16.621   2.625
29143W        W  759  15.577   4.294  11.059
29144W        W  760  34.478  38.846  10.725
29145W        W  761  21.978   8.814   2.213
29146W        W  762  44.519  20.621  12.521
29147W        W  763  36.980  18.416  11.402
29148W        W  764   9.397   1.278   0.868
29149W        W  765  42.470  30.163   2.286
29150W        W  766   3.506  10.708  11.207
29151W        W  767  11.760  35.406   1.290
29152W        W  768   3.456  39.655   0.820
29153W        W  769  30.626  18.286   0.676
29154W        W  770   6.685  27.060  14.065
29155W        W  771  29.629  44.764  10.791
29156W        W  772  34.283  10.295  13.850
29157W        W  773  12.493  41.003  12.531
29158W        W  774   7.135   0.770   2.920
29159W        W  775   0.164   7.398  10.535
29160W        W  776  41.244  19.349  14.756
29161W        W  777   2.492  38.963   0.510
29162W        W  778  21.563  30.775   0.670
29163W        W  779   7.010  36.904  12.115
29164W        W  780  43.975  18.655   2.598
29165W        W  781  33.903   5.815   0.877
29166W        W  782  28.741  20.159  11.919
29167W        W  783  41.149   3.165  12.838
29168W        W  784   4.587  23.635   9.747
29169W        W  785   6.867  39.007  14.818
29170W        W  786   3.752  13.780  12.247
29171W        W  787  14.660  29.153   0.468
29172W        W  788  21.222  37.384   0.548
29173W        W  789  24.538  43.466   1.760
29174W        W  790  30.066  30.968  11.799
29175W        W  791  22.009  39.497   4.669
29176W        W  792   4.130  13.007   0.845
29177W        W  793  10.343  15.804   3.222
29178W        W  794   5.900   1.829  12.086
29179W        W  795  29.579  44.402   9.815
29180W        W  796  34.394   7.866  13.160
29181W        W  797  23.247  29.976   3.931
29182W        W  798  22.305  32.219   3.780
29183W        W  799  39.619   4.810  13.898
29184W        W  800  31.419   5.357   1.435
29185W        W  801  33.103  29.886  10.108
29186W        W  802  38.061   7.694   3.744
29187W        W  803  36.069  41.581  12.409
29188W        W  804  14.671  37.380  13.990
29189W        W  805  17.175   5.157  11.089
29190W        W  806  12.600  14.008   2.401
29191W        W  807  25.494   2.821  12.630
29192W        W  808  13.301  42.764  14.731
29193W        W  809   4.892  24.629  12.143
29194W        W  810  13.968  14.489  12.116
29195W        W  811   5.780  27.496  14.397
29196W        W  812  35.900  18.127   2.261
29197W        W  813   3.222   0.835  12.430
29198W        W  814  12.592   7.887   0.744
29199W        W  815   9.940  36.125  12.500
29200W        W  816  41.278   3.335  11.166
29201W        W  817  26.456  34.003   0.902
29202W        W  818  34.561  10.643  12.389
29203W        W  819  41.217  27.078  12.601
29204W        W  820  24.927  12.252   2.137
29205W        W  821   8.753  13.237  11.666
29206W        W  822  35.646  44.956  12.515
29207W        W  823  33.609   5.279  14.438
29208W        W  824   3.431  36.117   2.633
29209W        W  825  35.696   8.860  12.081
29210W        W  826   2.760  21.298   2.210
29211W        W  827  26.561  20.359  11.470
29212W        W  828   8.368  26.068  13.070
29213W        W  829   3.138  13.252  13.462
29214W        W  830   6.614   8.261  14.331
29215W        W  831  30.774  30.090   0.892
29216W        W  832  27.022  39.862   1.890
29217W        W  833   0.490   1.768   3.283
29218W        W  834  42.506  11.358   3.718
29219W        W  835  36.012  16.784  11.660
29220W        W  836  38.529  39.209  10.339
29221W        W  837  18.716  13.472   4.742
29222W        W  838   0.597  35.233   5.559
29223W        W  839  28.172  43.967  12.583
29224W        W  840  21.596  32.528  13.349
29225W        W  841  32.808   5.670  14.267
29226W        W  842  32.085   9.972  10.670
29227W        W  843  17.022  26.523  12.532
29228W        W  844  30.935  37.930  11.490
29229W        W  845  24.514  36.713   1.235
29230W        W  846  23.171  31.399  14.911
29231W        W  847  31.328  35.565   3.605
29232W        W  848  11.198  44.580  11.947
29233W        W  849   5.813  38.812  13.391
29234W        W  850  26.643  11.638  14.272
29235W        W  851  44.692  17.744  13.912
29236W        W  852  27.164  30.933  12.672
29237W        W  853  19.316  15.240  14.065
29238W        W  854  40.035  17.613   0.742
29239W        W  855  24.709   9.921  11.548
29240W        W  856   1.838  14.886  11.661
29241W        W  857  17.519   7.611  14.925
29242W        W  858  16.903   2.415   3.268
29243W        W  859  13.894  10.281  13.440
29244W        W  860   1.922  11.356   0.889
29245W        W  861  32.670  32.929   1.233
29246W        W  862  20.232  28.111  14.902
29247W        W  863  44.694   5.831  14.807
29248W        W  864  39.435  17.639  12.437
29249W        W  865  35.820   3.207  10.944
29250W        W  866  26.988   1.879   0.258
29251W        W  867  34.208  12.349  11.177
29252W        W  868  30.171   3.500  14.772
29253W        W  869  38.005  33.872  11.995
29254W        W  870  25.124   1.962   2.520
29255W        W  871  16.101  30.055  13.419
29256W        W  872  18.573  30.875  12.565
29257W        W  873  10.629  16.212   0.281
29258W        W  874  10.887  16.191  12.380
29259W        W  875  16.279  33.637   3.018
29260W        W  876  13.836  24.092  11.353
29261W        W  877  17.857  14.109   2.634
29262W        W  878  41.836  38.105   3.696
29263W        W  879  19.110  14.049  13.824
29264W        W  880  38.093   5.788  11.644
29265W        W  881  31.168  27.433  11.697
29266W        W  882  25.984  40.415  13.511
29267W        W  883  21.696   8.492   4.690
29268W        W  884   4.876  14.508   3.202
29269W        W  885  24.676   3.451   4.583
29270W        W  886   0.457  17.199   3.396
29271W        W  887  42.810  25.234  10.996
29272W        W  888  44.942  16.818  12.219
29273W        W  889  30.522  13.753   3.135
29274W        W  890  39.023  28.114  13.119
29275W        W  891  23.744  40.090   0.766
29276W        W  892   5.812  34.467   2.056
29277W        W  893  25.081   9.854  13.420
29278W        W  894  18.024   9.727   1.688
29279W        W  895  42.008   4.237  14.959
29280W        W  896   9.400  16.903   1.302
29281W        W  897  35.404  13.361   4.053
29282W        W  898  43.404  38.345   2.379
29283W        W  899  19.331  22.726   2.398
29284W        W  900  33.522  15.060  11.605
29285W        W  901  26.730  43.765  12.068
29286W        W  902   0.408  27.869  12.212
29287W        W  903   8.333  38.061   2.176
29288W        W  904  36.177  10.097   2.873
29289W        W  905  28.662  12.653  12.450
29290W        W  906  14.521  38.963  11.627
29291W        W  907  37.783  27.665  13.107
29292W        W  908  35.607  23.487  10.536
29293W        W  909  14.084   5.231  10.610
29294W        W  910   5.925   2.993  11.269
29295W        W  911   3.347  42.510   0.823
29296W        W  912  34.331  14.791  13.027
29297W        W  913  12.744  27.481   4.657
29298W        W  914   5.711  24.677   2.862
29299W        W  915  28.613   9.841   1.858
29300W        W  916  27.484   7.018   0.519
29301W        W  917  37.729  33.406   1.858
29302W        W  918   2.392  39.143  14.343
29303W        W  919  35.400   7.948   0.905
29304W        W  920  26.640   7.711   4.705
29305W        W  921   3.486  13.998  14.911
29306W        W  922  19.818  43.775  12.937
29307W        W  923   9.206  21.106  12.157
29308W        W  924  25.906  30.973   1.319
29309W        W  925  34.189  11.630   2.764
29310W        W  926  23.613  43.896   1.062
29311W        W  927  25.926  13.631   3.840
29312W        W  928  43.046  15.651  11.989
29313W        W  929  32.992  41.582   0.369
29314W        W  930  14.177  20.233  13.340
29315W        W  931   9.422   7.897  10.720
29316W        W  932  34.941   9.830   2.863
29317W        W  933  34.865  27.505   4.545
29318W        W  934  44.002  11.411   0.859
29319W        W  935  44.483  37.479  11.967
29320W        W  936   1.002  25.811   0.943
29321W        W  937  42.071   9.728   1.221
29322W        W  938  41.137  19.171  12.620
29323W        W  939   4.667  10.652  14.862
29324W        W  940  28.173   4.750   9.984
29325W        W  941   5.350  35.629   4.151
29326W        W  942  33.940  38.005  14.466
29327W        W  943  12.821   9.034  12.861
29328W        W  944  18.658  21.791  10.687
29329W        W  945  36.975   9.791   1.205
29330W        W  946  15.558  44.842  10.882
29331W        W  947  28.873  12.172  12.546
29332W        W  948  19.890  42.788   3.655
29333W        W  949  18.731   9.693  11.488
29334W        W  950  36.838  31.857  10.119
29335W        W  951   6.931   3.537   4.124
29336W        W  952  27.738  32.781   1.164
29337W        W  953  16.490  27.631   4.240
29338W        W  954  24.423  43.961  14.514
29339W        W  955   6.291   4.382   0.858
29340W        W  956  42.084  21.604  12.439
29341W        W  957  21.541  42.761   3.740
29342W        W  958   0.026  35.628   3.830
29343W        W  959  37.055  10.804  11.855
29344W        W  960  19.344  19.602  13.683
29345W        W  961  27.095   8.358  13.639
29346W        W  962   5.735   8.221  13.804
29347W        W  963  41.029  43.571   3.404
29348W        W  964  13.685  41.982   4.580
29349W        W  965  15.341  22.163   4.506
29350W        W  966   2.977   2.341   0.884
29351W        W  967  17.419   6.135  14.052
29352W        W  968  39.978  21.428  14.907
29353W        W  969   1.740  15.349  14.471
29354W        W  970  28.078  24.267   3.587
29355W        W  971  25.090   7.264   4.152
29356W        W  972  42.811  15.857  12.838
29357W        W  973  20.366  21.616  12.809
29358W        W  974   1.394  40.897   2.761
29359W        W  975  36.352  19.717  10.699
29360W        W  976  11.818  39.981   2.250
29361W        W  977  31.570   8.816   2.138
29362W        W  978  32.150   2.884   3.265
29363W        W  979  30.334   6.264   1.825
29364W        W  980  21.493  20.717   3.612
29365W        W  981  14.383  13.276  11.172
29366W        W  982   9.144  17.637  12.964
29367W        W  983   1.287  12.335   1.343
29368W        W  984   2.046  14.204  14.913
29369W        W  985  43.345  39.908  14.307
29370W        W  986   9.135   2.675  11.739
29371W        W  987  23.487  18.190   0.945
29372W        W  988  13.343  12.561   4.437
29373W        W  989  14.102  40.388   4.611
29374W        W  990  19.283  26.447   4.066
29375W        W  991  14.784  44.401  14.461
29376W        W  992  15.259  13.246   1.015
29377W        W  993  10.012  23.918   1.405
29378W        W  994   1.880   7.206   2.273
29379W        W  995  33.613  36.869  10.751
29380W        W  996  28.576  29.701   4.599
29381W        W  997  13.391  17.991   5.061
29382W        W  998   1.457  29.167  13.923
29383W        W  999  44.125  25.342  10.375
29384W        W 1000  18.490   8.299  11.959
29385W        W 1001  42.441  38.251   2.483
29386W        W 1002  21.708  33.490  14.414
29387W        W 1003  36.603  34.704  14.242
29388W        W 1004  41.284  19.046  11.993
29389W        W 1005  27.675  26.013  14.217
29390W        W 1006  41.049   4.330   0.372
29391W        W 1007  20.601  34.193  11.579
29392W        W 1008  14.344  33.011   0.247
29393W        W 1009  29.995  22.596   0.352
29394W        W 1010  43.479  40.478   1.681
29395W        W 1011  13.175  23.649  12.940
29396W        W 1012   4.288  18.866  11.024
29397W        W 1013  36.915  23.019   1.163
29398W        W 1014  41.793  38.861   1.004
29399W        W 1015  29.527  33.525   1.814
29400W        W 1016   2.973   9.654  11.987
29401W        W 1017  44.459  38.627   2.339
29402W        W 1018   8.754   2.399  11.227
29403W        W 1019   6.709  23.126   0.489
29404W        W 1020   0.849  26.184  12.426
29405W        W 1021  34.933   0.752   4.549
29406W        W 1022   1.911  35.383  14.264
29407W        W 1023  14.858  27.381  13.136
29408W        W 1024  26.396  11.216  13.829
29409W        W 1025  14.553  14.202   1.113
29410W        W 1026  32.825  33.187   1.649
29411W        W 1027  30.928  27.408  11.236
29412W        W 1028  39.079  23.124   3.829
29413W        W 1029  33.818  44.780   0.872
29414W        W 1030  11.172  28.257  13.442
29415W        W 1031  36.669  34.512   1.253
29416W        W 1032  28.590  26.591  11.214
29417W        W 1033  31.087  44.993   4.018
29418W        W 1034  32.411   9.227  14.447
29419W        W 1035  22.994  34.859   1.995
29420W        W 1036  35.953   6.257  12.900
29421W        W 1037   4.116  27.204  14.107
29422W        W 1038  27.428   6.380  11.927
29423W        W 1039  34.313  30.108   1.806
29424W        W 1040  35.914  27.194   0.296
29425W        W 1041  43.191  42.243  13.110
29426W        W 1042  30.329  21.879  12.470
29427W        W 1043  22.437  11.432   0.894
29428W        W 1044  16.074  40.594   3.530
29429W        W 1045   6.982  40.114   3.424
29430W        W 1046  17.171  43.088   3.945
29431W        W 1047  25.818  34.479  12.592
29432W        W 1048   5.954   9.578   2.905
29433W        W 1049  38.383  28.764   1.345
29434W        W 1050  21.323  30.078  13.544
29435W        W 1051  13.696  18.786  13.590
29436W        W 1052   5.228  18.597   4.256
29437W        W 1053  22.196  29.468  13.746
29438W        W 1054  21.476  38.610   1.833
29439W        W 1055  36.825  44.475  11.473
29440W        W 1056  25.464  19.223  14.447
29441W        W 1057  37.939  25.202  12.401
29442W        W 1058  32.119   6.224   3.604
29443W        W 1059  26.084  11.307  12.130
29444W        W 1060   1.423  34.590   2.463
29445W        W 1061  43.993  30.172  11.772
29446W        W 1062   3.648  13.141  14.338
29447W        W 1063   1.231  34.197   4.391
29448W        W 1064  24.576  10.257   1.005
29449W        W 1065  35.002  11.646   4.001
29450W        W 1066   2.588  25.774  10.314
29451W        W 1067  42.742   9.428   1.684
29452W        W 1068  41.296  18.108   4.636
29453W        W 1069  20.946   7.305   2.701
29454W        W 1070  11.584  27.881  11.493
29455W        W 1071  44.413  29.881   4.832
29456W        W 1072   9.573  18.096  13.914
29457W        W 1073  15.524  26.744   2.769
29458W        W 1074  38.343  12.020   4.165
29459W        W 1075  36.105  37.358   2.625
29460W        W 1076  31.965   6.045   0.726
29461W        W 1077  41.581   2.901  14.407
29462W        W 1078  35.034  32.915   0.307
29463W        W 1079  43.739  36.875  13.417
29464W        W 1080  38.074   2.981   2.163
29465W        W 1081   9.101   2.999  12.155
29466W        W 1082   3.480  26.152   1.003
29467W        W 1083   3.836  25.671  12.167
29468W        W 1084   5.927  34.978   1.012
29469W        W 1085  20.225  39.351   1.519
29470W        W 1086   6.664  17.675  11.567
29471W        W 1087   4.293  35.971   0.525
29472W        W 1088  35.426  43.422  10.877
29473W        W 1089  40.382  13.582   1.797
29474W        W 1090  39.571  11.849   3.682
29475W        W 1091  10.275   2.888   0.373
29476W        W 1092  19.520  26.044  10.619
29477W        W 1093  35.643  20.149  11.448
29478W        W 1094  29.382  43.239  12.425
29479W        W 1095   2.316  37.839  11.223
29480W        W 1096  26.966  22.609  13.406
29481W        W 1097   8.751  31.113  12.376
29482W        W 1098  27.626  35.582   4.341
29483W        W 1099  31.963  18.297  10.305
29484W        W 1100   5.436  33.819   1.515
29485W        W 1101  25.576   5.263   1.937
29486W        W 1102  24.754  17.697  12.411
29487W        W 1103   8.722  10.709  13.007
29488W        W 1104   4.955   8.732   0.507
29489W        W 1105  24.998   0.993  10.607
29490W        W 1106  25.966  18.231   0.239
29491W        W 1107  10.782  36.353  14.378
29492W        W 1108  28.458  43.885  12.127
29493W        W 1109  27.890  43.751   2.706
29494W        W 1110   4.731  39.773  10.401
29495W        W 1111  25.720  33.376  13.235
29496W        W 1112  23.488  12.302  13.485
29497W        W 1113   2.570   9.828  14.146
29498W        W 1114   6.274   2.202   3.325
29499W        W 1115  24.526   9.608  11.186
29500W        W 1116  41.511  38.075  10.833
29501W        W 1117  20.163   5.896   4.908
29502W        W 1118  31.531  39.017   4.714
29503W        W 1119  25.145   0.755   3.250
29504W        W 1120  25.501   6.323   3.252
29505W        W 1121   4.319   1.461   1.000
29506W        W 1122  16.567  24.423   4.050
29507W        W 1123   1.956  12.243   0.578
29508W        W 1124  41.931  36.476  11.510
29509W        W 1125  23.606   5.740   1.814
29510W        W 1126  17.743   3.561   0.919
29511W        W 1127  43.934  44.319   0.583
29512W        W 1128  29.923  36.365   5.054
29513W        W 1129  13.713  42.231   0.297
29514W        W 1130  30.578  39.264   3.639
29515W        W 1131   1.730   3.788   4.571
29516W        W 1132  19.662   2.299  11.611
29517W        W 1133   6.225  20.580   2.746
29518W        W 1134  13.119  43.822   3.681
29519W        W 1135  10.726  35.024  14.021
29520W        W 1136  32.144   5.982   3.158
29521W        W 1137  19.265  13.235   0.281
29522W        W 1138  18.054  36.885   3.007
29523W        W 1139  41.451  29.696   0.421
29524W        W 1140  44.316  31.487  13.001
29525W        W 1141  36.921  43.738   1.752
29526W        W 1142  32.441  15.035  10.949
29527W        W 1143   3.507  19.176   3.890
29528W        W 1144  38.489  15.664   1.414
29529W        W 1145  23.669  14.091   1.526
29530W        W 1146  12.363  43.345  12.075
29531W        W 1147  20.697  39.312   4.248
29532W        W 1148  36.954   1.746  10.679
29533W        W 1149  16.499  25.690  11.085
29534W        W 1150  18.289  26.878   2.270
29535W        W 1151   7.287  34.642   4.097
29536W        W 1152  24.721  21.695   0.291
29537W        W 1153   8.789  33.730   0.400
29538W        W 1154   1.193  15.363   2.043
29539W        W 1155  39.056  18.243   2.922
29540W        W 1156  16.375  38.573  14.951
29541W        W 1157   4.951  26.422  13.558
29542W        W 1158  21.058  23.443  11.414
29543W        W 1159   8.450   8.965  12.735
29544W        W 1160   4.774  38.859  14.438
29545W        W 1161  16.980  27.530   4.333
29546W        W 1162  44.424  29.583  13.344
29547W        W 1163   7.823  41.283  12.167
29548W        W 1164  25.766   6.871  14.772
29549W        W 1165  29.090   7.161  10.639
29550W        W 1166  21.494  41.169   1.372
29551W        W 1167  13.380   1.498   0.308
29552W        W 1168  13.913  19.502  11.239
29553W        W 1169  41.271  43.465  12.901
29554W        W 1170  16.179  34.597   1.394
29555W        W 1171  15.511  34.543   0.787
29556W        W 1172  33.106   2.431  11.296
29557W        W 1173  34.837  14.377   1.308
29558W        W 1174   7.619  18.963  11.946
29559W        W 1175   3.803  36.422   1.229
29560W        W 1176  43.992  32.444  14.988
29561W        W 1177  15.601   9.959   1.692
29562W        W 1178  29.097  29.350  14.931
29563W        W 1179  20.119  33.099  14.260
29564W        W 1180  21.725  14.089  12.821
29565W        W 1181   9.657  30.686  10.584
29566W        W 1182  38.416  40.234   2.214
29567W        W 1183  22.599  40.046  14.770
29568W        W 1184  13.408  24.075  11.058
29569W        W 1185  19.010  32.920  10.768
29570W        W 1186  37.556  12.706  10.079
29571W        W 1187  22.149   5.098   4.495
29572W        W 1188  23.711  20.030  12.044
29573W        W 1189  27.432  36.919   2.881
29574W        W 1190   0.532   8.996  12.941
29575W        W 1191  39.384   5.373   3.092
29576W        W 1192  19.622  18.259  12.883
29577W        W 1193   1.890  42.810  13.994
29578W        W 1194  37.864  16.536  11.483
29579W        W 1195  11.315  32.687  12.087
29580W        W 1196  25.257   4.317   4.650
29581W        W 1197  37.998  24.002  12.167
29582W        W 1198  19.959  16.476   2.109
29583W        W 1199  20.629  11.742  14.022
29584W        W 1200  26.461   1.747  12.541
29585W        W 1201  21.685  41.317  12.332
29586W        W 1202  41.001  21.496  13.823
29587W        W 1203  34.084  41.818  14.862
29588W        W 1204   2.210  23.986   3.272
29589W        W 1205  17.818  43.479   2.282
29590W        W 1206  15.222  16.124   5.413
29591W        W 1207   3.890  13.285  11.714
29592W        W 1208   4.358  10.563   0.737
29593W        W 1209  25.744  17.998  10.725
29594W        W 1210  22.702  37.985  11.663
29595W        W 1211   9.130  22.551  13.491
29596W        W 1212  39.074  34.406   1.267
29597W        W 1213   9.736  37.818   4.898
29598W        W 1214  26.176   4.891  14.332
29599W        W 1215   2.763  29.955  11.243
29600W        W 1216  19.120   8.029   2.717
29601W        W 1217   7.414  18.678  12.763
29602W        W 1218   3.139  27.078  13.963
29603W        W 1219  33.414  30.979   0.798
29604W        W 1220  26.120  30.785   4.201
29605W        W 1221  16.518  36.117  12.926
29606W        W 1222   1.088  23.016   2.895
29607W        W 1223   2.949  33.436  11.263
29608W        W 1224  14.287  16.135   0.446
29609W        W 1225  44.080   0.774  12.408
29610W        W 1226  20.227  32.454  11.553
29611W        W 1227   9.212  29.633   1.249
29612W        W 1228   2.629  18.504   1.253
29613W        W 1229  41.991  17.320   3.189
29614W        W 1230  11.249  17.498  11.670
29615W        W 1231  20.187  24.968   1.329
29616W        W 1232  24.767   6.329  11.630
29617W        W 1233  10.897   8.670   3.705
29618W        W 1234   4.144  44.849  10.660
29619W        W 1235  40.604  19.194   2.693
29620W        W 1236  44.856  22.082  12.011
29621W        W 1237  17.200  29.655  11.645
29622W        W 1238   6.192  41.447   1.582
29623W        W 1239   1.681  23.515   4.779
29624W        W 1240  25.890   7.707  14.406
29625W        W 1241   2.984  26.219  14.762
29626W        W 1242   8.291  42.374   1.388
29627W        W 1243  11.884  18.689  13.191
29628W        W 1244  38.280  21.197   4.167
29629W        W 1245  40.429  37.536  14.397
29630W        W 1246  29.525  26.593   1.375
29631W        W 1247  12.592  38.564   0.484
29632W        W 1248  24.144  29.895  12.408
29633W        W 1249  22.323   0.418  14.464
29634W        W 1250  33.224  36.256  14.366
29635W        W 1251  36.015  42.746  10.607
29636W        W 1252  39.020  41.499  11.837
29637W        W 1253  34.046   0.174  11.151
29638W        W 1254  42.400   2.242   3.265
29639W        W 1255   0.742  39.728  10.882
29640W        W 1256   9.651  31.024  11.916
29641W        W 1257  31.169   5.576  10.032
29642W        W 1258  41.426   1.986  13.444
29643W        W 1259  10.724  31.456   2.679
29644W        W 1260  39.078  33.609   2.354
29645W        W 1261  29.053  39.034   1.283
29646W        W 1262  29.456  33.745  11.252
29647W        W 1263  27.734  42.954   4.446
29648W        W 1264  27.397   5.396  13.962
29649W        W 1265   7.174  30.450   4.090
29650W        W 1266  27.011   9.616   4.624
29651W        W 1267  25.871   0.783   0.633
29652W        W 1268  30.844  37.414   1.348
29653W        W 1269  17.937  39.668  12.164
29654W        W 1270  10.466   2.538   3.202
29655W        W 1271  10.884  16.581  10.720
29656W        W 1272  32.608  25.541   4.018
29657W        W 1273  10.815  14.956  14.880
29658W        W 1274  10.481  35.417   2.717
29659W        W 1275  22.478  16.236  14.940
29660W        W 1276  11.126   3.718  13.494
29661W        W 1277  15.306   0.575  11.197
29662W        W 1278  11.033  13.107   2.725
29663W        W 1279   1.676  13.779  13.484
29664W        W 1280   1.341  34.449   0.500
29665W        W 1281   1.841  33.694   4.835
29666W        W 1282  36.574  19.986   2.491
29667W        W 1283  14.611  33.982   2.591
29668W        W 1284  38.922   8.492   0.892
29669W        W 1285  15.684  26.513  14.903
29670W        W 1286  11.896  28.520  12.014
29671W        W 1287  39.030  12.859  11.024
29672W        W 1288  44.572   9.757   0.957
29673W        W 1289  44.408   8.185   1.256
29674W        W 1290  19.680  37.571   4.190
29675W        W 1291  44.833  39.020   2.840
29676W        W 1292  35.341   9.564  14.469
29677W        W 1293  19.051   9.279  11.608
29678W        W 1294   6.819  10.364   4.973
29679W        W 1295  32.566  41.317  12.931
29680W        W 1296  24.453  28.639  12.377
29681W        W 1297  20.197  34.055   1.412
29682W        W 1298  27.228  13.909  13.777
29683W        W 1299  25.268   5.846   3.187
29684W        W 1300   9.183  41.078  13.356
29685W        W 1301   7.284  11.536   2.493
29686W        W 1302   3.968   1.810   1.715
29687W        W 1303  37.923  25.101  11.904
29688W        W 1304   4.789  25.132   1.802
29689W        W 1305   8.639  32.484  12.931
29690W        W 1306  23.701  30.573   0.018
29691W        W 1307   1.215  21.338   5.300
29692W        W 1308  34.959  17.997  11.152
29693W        W 1309  31.685  24.759  11.984
29694W        W 1310  16.805  15.304   3.694
29695W        W 1311   6.439   4.815   0.003
29696W        W 1312  41.751  18.613   1.042
29697W        W 1313  14.140  34.617   4.596
29698W        W 1314  23.169  44.286   0.247
29699W        W 1315  41.559   5.333   4.831
29700W        W 1316  22.034  37.433   4.629
29701W        W 1317  41.422   7.275  10.892
29702W        W 1318  36.807  35.418   1.293
29703W        W 1319  28.178  42.744   3.319
29704W        W 1320  36.461  40.928  12.608
29705W        W 1321  19.214  29.142   3.904
29706W        W 1322  21.688   5.548  13.615
29707W        W 1323  15.158  21.646  11.168
29708W        W 1324  35.630  21.900  10.703
29709W        W 1325   8.937  21.941   0.018
29710W        W 1326  23.167  28.335  12.482
29711W        W 1327  19.073  21.205   0.386
29712W        W 1328  29.554  29.860   2.821
29713W        W 1329  26.191  43.367   3.181
29714W        W 1330  39.142  42.179  11.133
29715W        W 1331   0.824  16.163  12.614
29716W        W 1332  40.308  13.606  13.023
29717W        W 1333  40.033  44.646  11.930
29718W        W 1334  13.141  41.821  11.543
29719W        W 1335  39.850  37.675   4.683
29720W        W 1336  15.571   6.248   0.372
29721W        W 1337  30.104  37.440   3.723
29722W        W 1338  11.202  18.202  10.605
29723W        W 1339  24.890  21.177  10.676
29724W        W 1340  28.504  43.691   3.260
29725W        W 1341  10.008  39.027  13.995
29726W        W 1342  13.606  43.470   2.863
29727W        W 1343  33.417   5.433   3.692
29728W        W 1344  20.878  10.849  12.130
29729W        W 1345  35.034   7.065  14.878
29730W        W 1346  35.500  18.055   4.784
29731W        W 1347  35.204  30.434   0.242
29732W        W 1348  20.346  17.519  12.299
29733W        W 1349   1.773  40.819   2.430
29734W        W 1350  15.196   3.407   2.351
29735W        W 1351  14.244  34.304   1.050
29736W        W 1352  42.497  17.948  11.778
29737W        W 1353  36.518  41.998  11.508
29738W        W 1354   3.756  15.710  14.300
29739W        W 1355  25.946  34.294   3.613
29740W        W 1356  19.868  37.414   1.931
29741W        W 1357  43.970  40.519   1.451
29742W        W 1358   5.772  38.017  12.717
29743W        W 1359  31.999  32.441  14.713
29744W        W 1360   3.146  23.429  10.247
29745W        W 1361  16.649  37.149  11.029
29746W        W 1362   4.314  20.413   4.900
29747W        W 1363  21.780  15.073   0.854
29748W        W 1364  37.978  44.808  14.907
29749W        W 1365  24.936  32.032   0.712
29750W        W 1366  20.016   1.019  13.380
29751W        W 1367   9.891  18.045  12.863
29752W        W 1368  26.619   7.907   0.991
29753W        W 1369  22.100  39.101  13.062
29754W        W 1370  18.227  18.369  13.878
29755W        W 1371  20.819  10.340  14.867
29756W        W 1372   6.315  29.707   4.635
29757W        W 1373  37.023  15.149   1.285
29758W        W 1374  15.350  34.968   2.315
29759W        W 1375  29.129  32.535  10.802
29760W        W 1376  10.471  38.782  13.892
29761W        W 1377  20.109  24.871  11.650
29762W        W 1378   0.234  16.811  13.591
29763W        W 1379  21.166  38.433  14.589
29764W        W 1380   8.165  36.867   3.606
29765W        W 1381  43.016  29.100   3.317
29766W        W 1382  13.538  41.967   1.672
29767W        W 1383  25.995   1.330  13.394
29768W        W 1384   7.845  21.504  10.860
29769W        W 1385  16.903  18.097   1.607
29770W        W 1386  41.785   4.349   3.555
29771W        W 1387  23.148  19.421   4.940
29772W        W 1388  18.382  13.333   2.389
29773W        W 1389  22.432   4.709  13.871
29774W        W 1390  38.577  23.598   1.883
29775W        W 1391  21.016  12.775  11.932
29776W        W 1392  39.318   9.964  10.982
29777W        W 1393   5.621  43.851   2.712
29778W        W 1394   9.328  17.661   4.051
29779W        W 1395  34.200  34.368   2.944
29780W        W 1396  28.508  23.168   1.318
29781W        W 1397   4.010  30.064  14.271
29782W        W 1398  22.568   9.674   2.214
29783W        W 1399   2.310  28.197   0.637
29784W        W 1400   6.188  15.416  12.662
29785W        W 1401  39.465  29.184  13.807
29786W        W 1402  16.088  33.482  11.130
29787W        W 1403   4.956   4.957   1.692
29788W        W 1404  40.762  15.808  11.536
29789W        W 1405  35.532  35.658   2.301
29790W        W 1406  15.748  38.849   0.621
29791W        W 1407  22.150  16.212  14.116
29792W        W 1408  36.996  36.718  13.745
29793W        W 1409   6.320  42.747   0.908
29794W        W 1410   2.054  17.377  11.573
29795W        W 1411   9.412  31.965  12.957
29796W        W 1412  29.107  42.886   4.572
29797W        W 1413  30.234  17.659  14.529
29798W        W 1414  34.999  15.026  12.064
29799W        W 1415  44.020  33.207  11.912
29800W        W 1416  19.780  26.222   4.688
29801W        W 1417  40.013  43.280   3.464
29802W        W 1418  36.032  12.516  11.173
29803W        W 1419   6.735  37.065   2.967
29804W        W 1420  20.005  19.616   1.414
29805W        W 1421   7.419  25.482  11.992
29806W        W 1422  17.928  14.149  12.426
29807W        W 1423  15.301   1.972  14.846
29808W        W 1424  44.400  22.628   4.680
29809W        W 1425  22.552  21.694   0.631
29810W        W 1426  41.809   2.886   2.299
29811W        W 1427  32.287  34.608  14.434
29812W        W 1428  36.363   6.699  11.648
29813W        W 1429  36.196  10.635   2.774
29814W        W 1430  32.974  20.999  13.518
29815W        W 1431  40.314  24.498   2.637
29816W        W 1432  44.306  42.707  13.297
29817W        W 1433  28.074  39.832  11.371
29818W        W 1434  20.786  18.488   4.394
29819W        W 1435  41.027  30.456   0.510
29820W        W 1436  22.247  26.569  12.598
29821W        W 1437   6.532  29.435  13.487
29822W        W 1438  41.507   3.365   4.565
29823W        W 1439   0.154  35.985   9.718
29824W        W 1440  29.409  22.049  12.351
29825W        W 1441  29.774  10.135   0.796
29826W        W 1442   0.035  40.877   0.448
29827W        W 1443  15.030  15.180   4.664
29828W        W 1444  10.107  33.189   4.596
29829W        W 1445  15.121  14.739  13.510
29830W        W 1446  12.643  10.891  12.434
29831W        W 1447  22.719  19.105  14.826
29832W        W 1448  43.980  16.576  14.338
29833W        W 1449  11.658  38.772  11.103
29834W        W 1450   5.892  13.147   4.609
29835W        W 1451  34.372   8.145  11.925
29836W        W 1452   6.926  21.921   3.113
29837W        W 1453   5.338   2.236   0.058
29838W        W 1454   5.076  28.024   0.957
29839W        W 1455  20.604   5.199   3.659
29840W        W 1456  30.906  22.609  12.897
29841W        W 1457   6.167  38.946  11.983
29842W        W 1458  36.866  41.741  11.165
29843W        W 1459   2.474  26.706   2.833
29844W        W 1460  26.952  18.160   1.529
29845W        W 1461   8.824  30.197  12.392
29846W        W 1462  43.228  12.903  12.363
29847W        W 1463  22.154  17.010   1.205
29848W        W 1464  37.838  28.319   2.710
29849W        W 1465  12.533  42.876   0.217
29850W        W 1466  11.820   1.527   3.906
29851W        W 1467  32.451  39.243  13.840
29852W        W 1468   2.214  37.561  11.662
29853W        W 1469  16.050  38.710  10.222
29854W        W 1470  25.664  34.167  12.189
29855W        W 1471  10.007  11.802   2.385
29856W        W 1472  38.866  36.606   3.240
29857W        W 1473   3.405  24.212  12.847
29858W        W 1474   9.656   7.729   0.267
29859W        W 1475   5.473  11.649   3.895
29860W        W 1476  38.150  21.791   5.113
29861W        W 1477  20.254  28.226  12.102
29862W        W 1478  33.457  29.159   9.681
29863W        W 1479  42.091  42.378  11.896
29864W        W 1480  10.594  10.747   4.347
29865W        W 1481  30.452  31.157  14.492
29866W        W 1482  20.539  30.929   0.014
29867W        W 1483  25.498   6.866   3.846
29868W        W 1484   2.710   2.345  13.042
29869W        W 1485  35.580  11.242  11.178
29870W        W 1486  15.218  24.383   4.814
29871W        W 1487   6.337  41.779   2.493
29872W        W 1488  29.979  24.959  14.226
29873W        W 1489  32.843  22.071  13.523
29874W        W 1490   1.905  26.119   4.516
29875W        W 1491  40.914  26.518  11.209
29876W        W 1492  40.842  37.161   0.719
29877W        W 1493  32.634  26.561  13.018
29878W        W 1494   8.902  12.798  11.093
29879W        W 1495   7.447   5.310   4.615
29880W        W 1496  23.820   9.683   4.549
29881W        W 1497  15.680  35.645  10.998
29882W        W 1498  44.014  23.758   2.140
29883W        W 1499  36.176  35.299   0.693
29884W        W 1500  44.289  22.099  13.930
29885W        W 1501  43.692  12.642   2.730
29886W        W 1502  22.623  16.617   4.054
29887W        W 1503  15.224  18.291  13.330
29888W        W 1504  35.380  31.989   3.827
29889W        W 1505  17.170   3.248  14.811
29890W        W 1506  12.998  42.031  13.822
29891W        W 1507  18.666  12.330   3.770
29892W        W 1508   5.020  11.528  14.011
29893W        W 1509  13.148  20.487   0.525
29894W        W 1510   7.395   4.471   2.293
29895W        W 1511  27.369  43.989   0.891
29896W        W 1512  11.648   5.777   0.653
29897W        W 1513   4.294  29.382   4.132
29898W        W 1514  37.972  43.721   1.428
29899W        W 1515  15.795  33.625  13.346
29900W        W 1516  39.404   8.375   4.292
29901W        W 1517  42.932  40.458  12.210
29902W        W 1518  43.807  39.824   2.154
29903W        W 1519  43.762  35.500  13.324
29904W        W 1520  11.916  35.677  12.025
29905W        W 1521  24.483  41.303   0.736
29906W        W 1522   9.612  19.077  13.026
29907W        W 1523  10.688   8.759   1.173
29908W        W 1524   6.450  18.157  10.902
29909W        W 1525  32.936   6.366   4.584
29910W        W 1526  27.645  10.682  11.418
29911W        W 1527   2.345   7.259   1.474
29912W        W 1528  34.918  23.717  11.069
29913W        W 1529  39.977  28.488   4.037
29914W        W 1530   5.277  13.258  12.555
29915W        W 1531  20.778  33.323   1.391
29916W        W 1532  14.183  26.778   4.997
29917W        W 1533  36.369  33.031   4.195
29918W        W 1534  21.448  25.654  12.722
29919W        W 1535  20.355  39.977  12.912
29920W        W 1536   0.788  10.926  12.960
29921W        W 1537   0.345  41.525   1.039
29922W        W 1538   5.947   2.922   3.856
29923W        W 1539  38.730  36.817   3.711
29924W        W 1540  39.859  33.203  12.080
29925W        W 1541  17.743  20.914  13.542
29926W        W 1542  10.600  14.776  12.443
29927W        W 1543  24.632   5.114  11.074
29928W        W 1544  40.225  13.911   3.211
29929W        W 1545  40.581  22.801   0.480
29930W        W 1546   5.575  13.578  11.136
29931W        W 1547  16.747  18.757   2.926
29932W        W 1548  17.845  29.998   4.045
29933W        W 1549  31.557   6.173  10.601
29934W        W 1550  14.415  18.224   2.229
29935W        W 1551  31.399  21.558   3.384
29936W        W 1552   8.844  27.975   0.495
29937W        W 1553  37.499   8.801   1.087
29938W        W 1554  16.249   3.840   1.790
29939W        W 1555   8.248   9.361   1.135
29940W        W 1556   5.653  40.397   4.589
29941W        W 1557  19.212   2.166  12.974
29942W        W 1558   7.197  30.369  11.845
29943W        W 1559  14.856  28.468   0.990
29944W        W 1560   5.193  42.508  14.301
29945W        W 1561  36.725  11.036   9.871
29946W        W 1562  15.181  39.726  11.137
29947W        W 1563  13.214  16.816   1.639
29948W        W 1564   7.668  17.004  14.881
29949W        W 1565  39.021  34.175  14.286
29950W        W 1566  11.485  33.130  11.358
29951W        W 1567  22.090   4.348   2.944
29952W        W 1568  33.507  18.096  14.126
29953W        W 1569  21.802  29.567   1.674
29954W        W 1570  18.277  44.879   3.263
29955W        W 1571   9.396  28.545  11.925
29956W        W 1572  27.631  23.205  12.511
29957W        W 1573  12.556  20.210   4.666
29958W        W 1574   2.945   0.265   3.399
29959W        W 1575  37.005  31.610  14.380
29960W        W 1576  14.912  28.591  12.585
29961W        W 1577  39.445  31.294  11.595
29962W        W 1578  35.134  18.622  12.162
29963W        W 1579  31.043   0.855  10.945
29964W        W 1580  11.815  35.385  11.609
29965W        W 1581  29.650   8.755  13.506
29966W        W 1582   6.440  34.831  11.160
29967W        W 1583  39.405  41.570  12.612
29968W        W 1584  14.579  16.118  12.360
29969W        W 1585  36.503   7.212   0.841
29970W        W 1586  23.619  42.514   0.961
29971W        W 1587  38.063   0.356  12.420
29972W        W 1588  28.452  36.115   1.210
29973W        W 1589  26.714   2.236   4.603
29974W        W 1590  37.821   3.994  11.475
29975W        W 1591  32.626  29.314   5.519
29976W        W 1592  35.922   1.686  13.412
29977W        W 1593  44.848   1.507  12.644
29978W        W 1594  34.537  11.221   4.527
29979W        W 1595   1.323   0.548  10.839
29980W        W 1596  19.542  38.129   0.337
29981W        W 1597  39.026  42.297   3.688
29982W        W 1598  44.724   7.953   3.309
29983W        W 1599   5.809  13.164   3.748
29984W        W 1600  13.391  12.790  14.798
29985W        W 1601  40.819   3.709   3.734
29986W        W 1602  15.437  34.068  14.180
29987W        W 1603  12.264  28.080  13.063
29988W        W 1604   1.443  21.981   2.240
29989W        W 1605  35.438  16.791   1.273
29990W        W 1606  44.521  10.008   2.742
29991W        W 1607  29.231   6.797   2.408
29992W        W 1608  36.559  42.043   2.842
29993W        W 1609  34.003  19.746   3.678
29994W        W 1610  11.764  20.216  11.146
29995W        W 1611  13.227  24.729   3.802
29996W        W 1612  29.690  13.839   2.534
29997W        W 1613  22.799  27.916   3.245
29998W        W 1614  37.605  34.817   1.958
29999W        W 1615  40.361  10.522   3.142
30000W        W 1616  24.118  17.708   4.607
30001W        W 1617  25.272  44.217   3.922
30002W        W 1618  15.346  11.307   3.920
30003W        W 1619  11.127  37.984   3.641
30004W        W 1620  43.847  39.070  11.342
30005W        W 1621  18.765  42.690  13.394
30006W        W 1622  34.427  33.959  13.950
30007W        W 1623  25.723   1.707   3.164
30008W        W 1624  22.213   0.442  11.656
30009W        W 1625  34.539   6.239  14.864
30010W        W 1626  24.620  14.386  14.926
30011W        W 1627  11.935   7.563  13.457
30012W        W 1628   0.963  30.950   0.784
30013W        W 1629  29.807  21.583  11.602
30014W        W 1630  38.954  22.239  10.361
30015W        W 1631   6.854  34.850  12.187
30016W        W 1632  39.147  13.781  11.055
30017W        W 1633  22.680  34.210   3.718
30018W        W 1634   7.182  42.877  13.912
30019W        W 1635  38.764   1.996   1.416
30020W        W 1636  44.057   2.220   3.251
30021W        W 1637  44.389  17.051   2.794
30022W        W 1638  25.263  11.869   1.263
30023W        W 1639  39.961  17.570  11.093
30024W        W 1640  38.098  23.455   3.646
30025W        W 1641  29.602  23.838   0.543
30026W        W 1642  15.131  37.448  10.557
30027W        W 1643   9.280  32.861  11.961
30028W        W 1644  23.697   9.364   2.326
30029W        W 1645  42.487  25.654  11.118
30030W        W 1646  44.884  38.969  10.955
30031W        W 1647  14.568  32.644  13.355
30032W        W 1648  24.131  24.282  10.619
30033W        W 1649   7.225  21.246   1.396
30034W        W 1650  34.938  39.096   1.736
30035W        W 1651   9.328  22.415   1.364
30036W        W 1652  43.878  16.280  13.544
30037W        W 1653  26.453  35.794  11.765
30038W        W 1654  31.058  32.895   2.348
30039W        W 1655  28.574  37.116   4.187
30040W        W 1656  25.737  18.679  10.888
30041W        W 1657  32.014  14.507   5.124
30042W        W 1658  32.134  27.432   3.278
30043W        W 1659  13.895  20.008  10.592
30044W        W 1660  32.493  40.996  13.805
30045W        W 1661  29.646  10.211   4.180
30046W        W 1662  38.392  35.863  10.633
30047W        W 1663  15.728   7.694  10.523
30048W        W 1664  11.680  15.519   1.739
30049W        W 1665  13.806   3.304  14.525
30050W        W 1666  15.733  15.473   5.095
30051W        W 1667  20.198  25.544   3.625
30052W        W 1668   3.398   8.110   3.114
30053W        W 1669  34.321  24.573  13.953
30054W        W 1670   6.294  33.157  14.825
30055W        W 1671  17.587  28.406   2.800
30056W        W 1672  35.517  17.243  12.840
30057W        W 1673  19.056  37.034  11.617
30058W        W 1674  33.396   5.991  11.059
30059W        W 1675  33.050  33.509   0.411
30060W        W 1676   0.358  39.284  12.539
30061W        W 1677   3.907  25.907   1.230
30062W        W 1678  43.728  22.194   2.579
30063W        W 1679  32.119   0.195  12.095
30064W        W 1680  43.060  35.808   5.103
30065W        W 1681  38.378   9.632   5.142
30066W        W 1682  36.045  32.546   3.616
30067W        W 1683   1.932  13.866  13.924
30068W        W 1684  14.708  27.537  11.718
30069W        W 1685  43.264  28.882   1.928
30070W        W 1686   6.693   6.302   3.194
30071W        W 1687  13.822  44.208   4.387
30072W        W 1688   0.314   2.486   0.863
30073W        W 1689  29.871  30.994   1.386
30074W        W 1690  23.243  30.705  11.205
30075W        W 1691  33.141  16.253  11.970
30076W        W 1692  40.910   1.915  11.224
30077W        W 1693  31.199   5.486   4.627
30078W        W 1694  39.920  40.531   0.975
30079W        W 1695   3.230   9.459   4.523
30080W        W 1696  42.936  37.549   4.861
30081W        W 1697  30.082  34.716   1.068
30082W        W 1698  44.568  17.893   2.969
30083W        W 1699  11.760  33.694  10.220
30084W        W 1700  40.091  17.204   4.624
30085W        W 1701  14.271  14.636   4.635
30086W        W 1702  43.394   9.742   1.441
30087W        W 1703  26.205  32.960   3.138
30088W        W 1704  13.457   5.686  12.319
30089W        W 1705  28.634  25.185  14.247
30090W        W 1706  41.529  28.091   1.422
30091W        W 1707  11.586  10.681   5.229
30092W        W 1708  15.062  17.070  11.112
30093W        W 1709  30.546   3.884  13.085
30094W        W 1710  40.680  16.698   3.932
30095W        W 1711  32.174   3.297  13.420
30096W        W 1712   1.611   9.256   4.182
30097W        W 1713  10.299  24.552   3.448
30098W        W 1714   4.594  37.969  11.486
30099W        W 1715   6.459  17.771   3.274
30100W        W 1716  28.210   7.335  13.736
30101W        W 1717   4.138  38.940  10.098
30102W        W 1718  43.832  23.011   4.782
30103W        W 1719   2.562   6.647   2.819
30104W        W 1720  27.643  16.294  11.518
30105W        W 1721   4.528  28.426   1.817
30106W        W 1722  42.520  21.753   2.661
30107W        W 1723  13.639  15.256   0.979
30108W        W 1724  26.661   9.727  11.483
30109W        W 1725  40.543  35.846  14.808
30110W        W 1726  34.153  12.371  12.053
30111W        W 1727  39.136  19.614   4.195
30112W        W 1728  31.948  22.881  11.782
30113W        W 1729   9.747  15.711  14.853
30114W        W 1730  37.529  18.087  14.441
30115W        W 1731  30.547   0.466   4.118
30116W        W 1732  21.611  10.289   0.242
30117W        W 1733  42.059  26.476  12.086
30118W        W 1734  29.989  12.513  14.893
30119W        W 1735  13.155  36.771  10.754
30120W        W 1736   0.715   0.485   0.946
30121W        W 1737   4.394  30.600   2.752
30122W        W 1738  14.762   5.782   1.298
30123W        W 1739  31.038  21.731   4.693
30124W        W 1740  28.987  10.212  12.485
30125W        W 1741   8.709  36.977   4.295
30126W        W 1742  44.292  18.035  13.314
30127W        W 1743   9.964   0.718   1.815
30128W        W 1744  37.364   3.303  14.981
30129W        W 1745  38.014   8.858   0.217
30130W        W 1746  44.057  36.876   1.795
30131W        W 1747   1.729  42.773  14.923
30132W        W 1748  33.436   2.212   5.488
30133W        W 1749  28.092  13.568  10.050
30134W        W 1750  36.948   8.062  10.745
30135W        W 1751  10.430  26.584   4.657
30136W        W 1752  30.992  30.692   0.051
30137W        W 1753   3.909  44.927   0.799
30138W        W 1754  37.213  11.915   2.159
30139W        W 1755  23.900   1.073  11.383
30140W        W 1756  42.287  43.999  12.575
30141W        W 1757  44.021  28.076  10.331
30142W        W 1758  12.269   2.820   3.757
30143W        W 1759  33.543  43.989   2.396
30144W        W 1760  32.613  43.777  12.129
30145W        W 1761   4.953  40.880   1.421
30146W        W 1762   3.361  38.270   1.412
30147W        W 1763  39.583  28.730  12.867
30148W        W 1764  12.283  14.540  12.518
30149W        W 1765  10.364  39.843   3.720
30150W        W 1766   6.193  42.507  12.044
30151W        W 1767  18.704   6.666   1.256
30152W        W 1768  26.842  34.362  13.903
30153W        W 1769  12.324  27.222  12.692
30154W        W 1770   3.489   2.389   2.404
30155W        W 1771  16.199   7.667   1.212
30156W        W 1772  10.383  14.751   3.669
30157W        W 1773  33.392   9.317  12.498
30158W        W 1774  25.657  27.044   2.859
30159W        W 1775  34.620  14.736  11.696
30160W        W 1776  20.144   4.906  11.645
30161W        W 1777  12.831  13.526   4.747
30162W        W 1778  16.799  43.895  12.936
30163W        W 1779  25.178  41.143   0.993
30164W        W 1780   2.703  36.165   1.358
30165W        W 1781  32.780  24.090  14.353
30166W        W 1782  43.105  26.338  10.169
30167W        W 1783  26.483  18.873  13.137
30168W        W 1784   9.733  16.740   4.294
30169W        W 1785  40.492  36.541  14.295
30170W        W 1786   3.501   5.346   2.736
30171W        W 1787  19.561  32.800  11.617
30172W        W 1788  19.011   2.386  11.953
30173W        W 1789  26.236  42.956   0.826
30174W        W 1790   1.072  29.511  13.294
30175W        W 1791  30.325   1.323   0.963
30176W        W 1792  11.746  24.647   2.636
30177W        W 1793  32.617   0.304   1.955
30178W        W 1794  26.031  43.851  10.658
30179W        W 1795  34.467  14.576   2.758
30180W        W 1796   9.754   8.201  12.443
30181W        W 1797  37.019   6.626   0.532
30182W        W 1798   7.908  28.708  14.934
30183W        W 1799   6.436  42.326  14.023
30184W        W 1800  28.071  36.604   0.000
30185W        W 1801  38.592  19.531   3.165
30186W        W 1802  44.132  14.099   0.662
30187W        W 1803  21.045   2.879  11.062
30188W        W 1804   5.719  15.861   2.669
30189W        W 1805   8.640  43.880   3.742
30190W        W 1806  10.111  27.620   1.881
30191W        W 1807   3.336  17.248  12.521
30192W        W 1808  19.322  34.074  11.598
30193W        W 1809  44.976  38.363   4.615
30194W        W 1810  44.709  29.077   1.773
30195W        W 1811  12.189  16.417   2.577
30196W        W 1812  11.883  43.854  13.824
30197W        W 1813  30.989  38.460   0.692
30198W        W 1814  13.262  28.250   3.662
30199W        W 1815  29.174  30.430  13.846
30200W        W 1816  39.061  42.986   3.044
30201W        W 1817  16.204  24.225   1.042
30202W        W 1818  43.420  30.142  11.074
30203W        W 1819  22.376  44.048   9.933
30204W        W 1820  15.603  36.329   3.363
30205W        W 1821   8.221   3.441   2.880
30206W        W 1822  21.764  33.012   2.667
30207W        W 1823  16.811   1.352   0.990
30208W        W 1824  16.053  11.981   0.382
30209W        W 1825  34.856  20.805   3.001
30210W        W 1826  12.843  14.514   5.105
30211W        W 1827  18.069  14.351  14.714
30212W        W 1828  37.474   2.743   2.247
30213W        W 1829   4.153   8.603   3.448
30214W        W 1830  26.894  15.541  10.314
30215W        W 1831  44.016   1.466  12.908
30216W        W 1832   5.761  27.710  10.581
30217W        W 1833  20.964  26.889  12.560
30218W        W 1834   5.881  19.666   3.738
30219W        W 1835  35.867  20.259   2.726
30220W        W 1836  26.603   4.774  12.048
30221W        W 1837  42.888  23.516   3.877
30222W        W 1838   4.267   6.928  11.400
30223W        W 1839   7.828  40.476  14.755
30224W        W 1840   5.632  34.917  12.362
30225W        W 1841   2.391  31.237  10.601
30226W        W 1842   6.914  33.939  11.531
30227W        W 1843  21.564   0.036  11.123
30228W        W 1844   7.409  10.265  13.735
30229W        W 1845  16.275  18.850   9.508
30230W        W 1846  18.741  35.597   4.578
30231W        W 1847  14.816   9.184  12.029
30232W        W 1848  10.209   1.205   2.732
30233W        W 1849  35.180  40.490   0.676
30234W        W 1850  44.879  15.879  14.708
30235W        W 1851  25.775  31.709   1.727
30236W        W 1852  44.301  43.882   3.632
30237W        W 1853   1.453   7.782   2.766
30238W        W 1854  24.932  37.043  10.431
30239W        W 1855   0.539   1.377  13.978
30240W        W 1856  18.440  19.660   4.585
30241W        W 1857  39.383  29.993  14.792
30242W        W 1858  10.834  38.483  13.589
30243W        W 1859  24.675   6.934   0.475
30244W        W 1860  17.293  39.904   9.917
30245W        W 1861   8.625   5.973  10.537
30246W        W 1862  13.555  33.043   4.070
30247W        W 1863   1.407  20.977  13.076
30248W        W 1864  30.458  10.117  11.354
30249W        W 1865  41.962  40.465   4.329
30250W        W 1866  30.585  26.911  12.545
30251W        W 1867   2.806  10.836   4.187
30252W        W 1868  24.474  20.465  14.975
30253W        W 1869   5.598  43.267  12.918
30254W        W 1870  41.559  38.892   4.268
30255W        W 1871  11.664   0.924  14.066
30256W        W 1872  43.903  12.653   1.919
30257W        W 1873  10.794  32.447   0.166
30258W        W 1874  24.681  16.646   1.243
30259W        W 1875  26.910   7.596   0.338
30260W        W 1876   5.944  38.050  13.994
30261W        W 1877   4.726  44.811   1.899
30262W        W 1878  44.928  15.823   0.957
30263W        W 1879  19.853  39.480   1.913
30264W        W 1880  22.341   1.721  11.215
30265W        W 1881  44.019  31.673  11.138
30266W        W 1882  38.973  26.499  11.186
30267W        W 1883  26.079  14.059   5.054
30268W        W 1884  18.242  24.630  10.452
30269W        W 1885   5.622  20.101   3.790
30270W        W 1886   9.163  40.488   3.033
30271W        W 1887  10.869  44.922   1.401
30272W        W 1888  26.090  14.344  13.060
30273W        W 1889  39.440   1.295  10.668
30274W        W 1890  16.040  27.860   4.299
30275W        W 1891  11.970  14.696  13.865
30276W        W 1892  18.153  36.546  14.546
30277W        W 1893  35.428   3.398   3.764
30278W        W 1894  40.896  29.450  12.405
30279W        W 1895  13.145   8.364  13.077
30280W        W 1896  19.792  40.511   0.203
30281W        W 1897  37.183  14.056  13.015
30282W        W 1898  18.490  36.774   1.022
30283W        W 1899  37.592  44.009   9.882
30284W        W 1900  30.852   2.605  10.853
30285W        W 1901   7.724   5.386  10.570
30286W        W 1902  13.337  33.165  14.433
30287W        W 1903  23.204   6.876   3.112
30288W        W 1904   7.570   7.721  12.411
30289W        W 1905  36.556  20.039   4.471
30290W        W 1906  16.669  44.252   2.426
30291W        W 1907  44.760  31.062  14.252
30292W        W 1908  23.046  26.560  13.811
30293W        W 1909   1.031  35.368  14.331
30294W        W 1910  39.852   8.383  10.684
30295W        W 1911   4.038   7.352  11.246
30296W        W 1912  21.265  15.368   2.791
30297W        W 1913  10.968  22.936   0.829
30298W        W 1914  20.194  43.959  11.490
30299W        W 1915  31.604  36.074   1.324
30300W        W 1916  32.662  18.315  11.438
30301W        W 1917  19.167  24.082  14.954
30302W        W 1918   9.650  37.563  12.842
30303W        W 1919   5.139  32.873   1.907
30304W        W 1920   8.718  42.951   0.450
30305W        W 1921  21.682  26.042   4.703
30306W        W 1922  27.381  35.563   3.860
30307W        W 1923  35.780  33.628   4.628
30308W        W 1924   2.687  32.078   2.709
30309W        W 1925  10.414   0.864   3.670
30310W        W 1926  12.373  30.982   1.844
30311W        W 1927   8.944   1.750  12.080
30312W        W 1928  40.779  40.082   4.223
30313W        W 1929  23.971  33.946   2.684
30314W        W 1930  24.543  36.584  14.747
30315W        W 1931  15.089   2.488  14.037
30316W        W 1932   8.162  29.639   0.507
30317W        W 1933   4.327  37.533  13.332
30318W        W 1934  41.257  32.636   3.095
30319W        W 1935   4.724   1.341  10.392
30320W        W 1936  37.336  32.136  13.906
30321W        W 1937   6.685  22.224  12.358
30322W        W 1938  40.745  29.169  14.893
30323W        W 1939   3.682  26.979   4.437
30324W        W 1940   6.347  23.576   0.904
30325W        W 1941  31.929   8.949  12.458
30326W        W 1942  11.366  32.552  12.941
30327W        W 1943  12.633  44.915  13.826
30328W        W 1944  14.158  21.564   2.847
30329W        W 1945  32.911  36.283   4.303
30330W        W 1946  30.615  29.748   4.504
30331W        W 1947  38.558  22.804   0.842
30332W        W 1948  24.645  42.943   2.285
30333W        W 1949  35.447  36.308   4.624
30334W        W 1950  36.310  42.583  14.118
30335W        W 1951  17.773  33.469  12.281
30336W        W 1952  39.985   9.810  13.926
30337W        W 1953  43.946  17.269   4.450
30338W        W 1954   2.877  20.285  13.879
30339W        W 1955  44.574  33.477   4.227
30340W        W 1956  29.242   3.809  14.778
30341W        W 1957  23.665   0.931   1.330
30342W        W 1958  27.844  15.798  11.665
30343W        W 1959  16.759   2.233  10.452
30344W        W 1960  25.398  30.339   5.002
30345W        W 1961   2.865  30.072   4.649
30346W        W 1962  36.128  35.085   4.536
30347W        W 1963  27.663  31.874   1.296
30348W        W 1964  35.677  12.534  13.297
30349W        W 1965  13.237  13.285   4.489
30350W        W 1966  30.522   2.944   2.709
30351W        W 1967  17.037   9.329   0.460
30352W        W 1968  14.193  31.720  12.546
30353W        W 1969  14.072  12.810  11.215
30354W        W 1970  40.522  33.747  14.444
30355W        W 1971  18.262   6.931  12.888
30356W        W 1972  40.054  11.826  13.575
30357W        W 1973  43.130  44.303   3.672
30358W        W 1974  31.579  26.837  13.539
30359W        W 1975   6.449  41.594   3.889
30360W        W 1976  17.714  42.592   4.231
30361W        W 1977  39.432  37.014   0.487
30362W        W 1978  23.968   8.978   0.883
30363W        W 1979  18.279   4.359   1.198
30364W        W 1980   4.919  14.121  11.042
30365W        W 1981  30.394  25.210  13.330
30366W        W 1982  22.690  19.503   1.811
30367W        W 1983  25.965   0.842  14.399
30368W        W 1984  21.693   3.777  11.618
30369W        W 1985   9.702  33.947   0.085
30370W        W 1986  37.449  28.960  14.844
30371W        W 1987  22.719   6.705  12.209
30372W        W 1988  35.145  17.825   0.970
30373W        W 1989  27.632  17.030  11.969
30374W        W 1990   0.859  21.584  13.834
30375W        W 1991  23.553  18.094   0.444
30376W        W 1992  25.835  26.134  11.506
30377W        W 1993  12.398  23.786  11.657
30378W        W 1994   7.409   6.272   1.342
30379W        W 1995  14.206  37.283  10.635
30380W        W 1996   2.247  20.585   2.872
30381W        W 1997   5.374  26.479  11.813
30382W        W 1998  31.566   9.412   0.218
30383W        W 1999   1.620  22.613   0.955
30384W        W 2000   2.311  37.833   1.240
30385W        W 2001  32.912  38.673  12.504
30386W        W 2002  41.541   1.140  13.888
30387W        W 2003   3.948  40.453  11.392
30388W        W 2004  27.538  34.368   2.260
30389W        W 2005  31.469  17.441   0.456
30390W        W 2006  21.509  20.775  13.628
30391W        W 2007  14.627  43.220   3.006
30392W        W 2008  15.259  15.561   4.028
30393W        W 2009  29.957  37.126   4.372
30394W        W 2010  16.040   3.382   1.852
30395W        W 2011  13.252  34.269  12.880
30396W        W 2012   5.109   0.843  13.185
30397W        W 2013  41.535   6.396   4.778
30398W        W 2014  10.299  16.375  12.962
30399W        W 2015   4.094  30.368   4.170
30400W        W 2016  22.672   2.816  13.013
30401W        W 2017  17.064  19.497  13.399
30402W        W 2018  24.678   2.697  12.948
30403W        W 2019  36.114   3.977   2.408
30404W        W 2020  29.038  13.813   3.289
30405W        W 2021  39.182  10.832  14.004
30406W        W 2022  34.775  17.133  11.824
30407W        W 2023  22.918  28.151   1.945
30408W        W 2024  18.695   9.926   1.333
30409W        W 2025   2.527   4.249   4.215
30410W        W 2026  32.975  25.658   0.944
30411W        W 2027   4.167  12.705   3.951
30412W        W 2028  25.436  11.738  12.487
30413W        W 2029  19.150  31.050   1.379
30414W        W 2030  21.082  36.188  10.236
30415W        W 2031  29.339  36.680   1.435
30416W        W 2032  38.789   4.787  14.986
30417W        W 2033  28.027  27.094  12.839
30418W        W 2034   7.456  19.186  14.832
30419W        W 2035  15.182  43.817   3.343
30420W        W 2036   1.834  28.378  13.560
30421W        W 2037  44.261   7.029   4.955
30422W        W 2038  27.702  27.441  14.462
30423W        W 2039  10.771  34.024  13.969
30424W        W 2040   3.437  17.573   4.646
30425W        W 2041  23.695   1.445   2.350
30426W        W 2042   8.426  34.610  10.720
30427W        W 2043  11.319  44.574  14.041
30428W        W 2044   5.773   3.864  10.839
30429W        W 2045  31.023  25.721   3.167
30430W        W 2046   6.176  23.915  10.734
30431W        W 2047  37.557  42.698  13.006
30432W        W 2048  33.972  25.775  14.867
30433W        W 2049   8.172  38.143   0.511
30434W        W 2050  37.581  39.654  12.050
30435W        W 2051   2.467  33.088  10.967
30436W        W 2052   6.172  19.187  12.901
30437W        W 2053  17.279  25.433   2.326
30438W        W 2054  15.365  11.829  11.139
30439W        W 2055   0.504  44.889   3.613
30440W        W 2056  20.787  37.639  11.559
30441W        W 2057  34.426  18.671  11.523
30442W        W 2058   9.684   8.168  14.991
30443W        W 2059  22.130  41.377   2.637
30444W        W 2060  32.377  44.825   3.836
30445W        W 2061  22.574  11.369   4.951
30446W        W 2062  26.531  16.260  11.904
30447W        W 2063  15.753  30.169   0.969
30448W        W 2064  19.458  15.655   1.981
30449W        W 2065  12.032   3.906   4.580
30450W        W 2066  21.636  11.197   4.370
30451W        W 2067  25.458   4.575  10.755
30452W        W 2068   3.107  11.139  11.963
30453W        W 2069  21.456  25.510   1.853
30454W        W 2070  26.956  42.281   3.328
30455W        W 2071  18.315  17.368  12.027
30456W        W 2072  13.473  11.249   0.632
30457W        W 2073  30.331  24.645  14.433
30458W        W 2074  21.355  14.503  11.750
30459W        W 2075  42.554  36.423   0.730
30460W        W 2076  26.779  27.920  11.664
30461W        W 2077  16.340   5.014   2.858
30462W        W 2078  31.499   2.986  14.842
30463W        W 2079   3.035  40.600  13.802
30464W        W 2080  40.825  44.393  13.258
30465W        W 2081  43.386   8.390  12.116
30466W        W 2082  32.076  41.153   2.868
30467W        W 2083  11.907   5.308   3.238
30468W        W 2084   8.246   2.535  11.443
30469W        W 2085  29.030  12.918   2.171
30470W        W 2086  29.064  30.888  13.042
30471W        W 2087   3.277   3.985  14.428
30472W        W 2088  33.466  37.491  14.130
30473W        W 2089  16.365   6.762  13.496
30474W        W 2090  24.191  21.507  12.887
30475W        W 2091   8.435   6.798  13.890
30476W        W 2092  18.663  12.938  10.665
30477W        W 2093  12.784  44.458   2.449
30478W        W 2094  12.374  16.615   3.379
30479W        W 2095  20.694   3.816  10.649
30480W        W 2096  29.975   9.748  14.487
30481W        W 2097  29.142  41.039  14.351
30482W        W 2098  34.729  10.605   3.231
30483W        W 2099  36.961  38.568  14.568
30484W        W 2100  34.829  25.219   2.371
30485W        W 2101  22.512   0.955   0.706
30486W        W 2102   4.069  12.649  14.306
30487W        W 2103  12.238   4.394   4.650
30488W        W 2104  19.084  13.139   3.651
30489W        W 2105   1.314  21.996   3.590
30490W        W 2106  10.173   3.811   2.495
30491W        W 2107  33.900  22.113  11.109
30492W        W 2108  10.213  39.507  10.730
30493W        W 2109   6.763   1.945   5.080
30494W        W 2110   6.718  43.888   1.335
30495W        W 2111  36.444  24.649   0.366
30496W        W 2112  31.469  26.951   3.228
30497W        W 2113  19.304   6.825   3.702
30498W        W 2114   4.790  21.194   2.858
30499W        W 2115  11.761  44.959  11.540
30500W        W 2116  18.719  15.334  12.570
30501W        W 2117  44.051  37.447   1.234
30502W        W 2118  21.513  19.488  10.698
30503W        W 2119   3.334  39.357   3.417
30504W        W 2120  42.782  23.976   1.551
30505W        W 2121  27.160  18.589  10.544
30506W        W 2122  40.867  34.123  14.366
30507W        W 2123  32.549  13.295   3.687
30508W        W 2124   1.445  12.875   3.453
30509W        W 2125   4.973  39.814   0.984
30510W        W 2126   2.497  23.499  10.544
30511W        W 2127  23.466  40.485  14.385
30512W        W 2128   0.799  25.497  13.559
30513W        W 2129  42.332   0.728  11.392
30514W        W 2130  43.683  40.162  13.530
30515W        W 2131  13.750   1.373   3.998
30516W        W 2132  22.456   1.975  12.084
30517W        W 2133  36.579  39.545   1.808
30518W        W 2134  44.388  38.385  11.790
30519W        W 2135  35.054  29.909   3.765
30520W        W 2136   2.433   3.513  13.467
30521W        W 2137  42.848   9.765   0.228
30522W        W 2138  17.812  24.495   4.086
30523W        W 2139  15.157  11.929   0.736
30524W        W 2140   5.779  21.747  13.814
30525W        W 2141  24.888   0.586   0.821
30526W        W 2142   7.522  28.747  13.834
30527W        W 2143   5.110  40.938  13.522
30528W        W 2144  28.655  41.567   1.906
30529W        W 2145  15.565  25.570  11.161
30530W        W 2146  41.528  42.739   9.809
30531W        W 2147   5.163  27.203  11.478
30532W        W 2148  34.197  44.796   1.730
30533W        W 2149  32.211  40.157  13.256
30534W        W 2150   2.127   4.338  11.189
30535W        W 2151  39.046  43.637  14.097
30536W        W 2152   9.359   7.747   2.897
30537W        W 2153  28.626  30.828  10.675
30538W        W 2154  11.249  36.934  11.566
30539W        W 2155  32.182   2.427   2.570
30540W        W 2156  33.823   0.705  11.980
30541W        W 2157  16.562  40.499  12.132
30542W        W 2158  25.062  33.817   4.195
30543W        W 2159  10.782   3.344  14.266
30544W        W 2160  10.918   5.204  11.522
30545W        W 2161   0.536  37.852   4.186
30546W        W 2162  13.632  34.483   4.338
30547W        W 2163   0.472  42.038  10.700
30548W        W 2164  26.958  17.997   2.751
30549W        W 2165  20.542  26.094  11.611
30550W        W 2166  39.776   1.408   3.841
30551W        W 2167  40.165   6.011  11.102
30552W        W 2168  43.785   9.112   2.769
30553W        W 2169  44.885  41.941  14.885
30554W        W 2170   8.827  39.823  12.905
30555W        W 2171  14.538  11.191  10.667
30556W        W 2172   0.718  20.708  13.458
30557W        W 2173  10.076  25.312   3.129
30558W        W 2174  34.191   2.586   3.695
30559W        W 2175  13.429   7.922  11.896
30560W        W 2176  11.300  20.433   1.732
30561W        W 2177   0.669  26.213   0.243
30562W        W 2178  33.959  22.989  14.840
30563W        W 2179   7.635  40.530   3.716
30564W        W 2180  18.453  35.169  14.154
30565W        W 2181   4.750  10.653   4.197
30566W        W 2182   0.207  32.494  13.432
30567W        W 2183  27.157   9.848  12.529
30568W        W 2184  29.615  14.179   1.464
30569W        W 2185  16.127  34.862   1.843
30570W        W 2186  10.615  34.834  12.590
30571W        W 2187   0.471   6.433  10.514
30572W        W 2188  24.996   0.795  14.970
30573W        W 2189  35.414  19.116   2.099
30574W        W 2190  36.653  12.046  10.547
30575W        W 2191   0.880  36.558  14.029
30576W        W 2192  41.549  43.476   0.639
30577W        W 2193   2.847  23.749  11.598
30578W        W 2194  36.045   7.480   1.700
30579W        W 2195  39.905  42.922   3.113
30580W        W 2196   4.878  11.896  11.620
30581W        W 2197  11.764  41.062  14.309
30582W        W 2198  11.608  35.172   4.071
30583W        W 2199   0.823   0.950  14.001
30584W        W 2200  44.829  19.983   0.793
30585W        W 2201  34.457  27.823   3.257
30586W        W 2202  40.460   1.542   1.898
30587W        W 2203   9.181  30.400  10.568
30588W        W 2204   0.836  44.735   0.553
30589W        W 2205  15.786   2.874   0.005
30590W        W 2206  44.384   2.352  13.513
30591W        W 2207  36.688   2.741   2.774
30592W        W 2208   4.947  38.784  13.465
30593W        W 2209   3.434  17.598  12.123
30594W        W 2210   7.957  39.678  11.509
30595W        W 2211  35.554  11.836   0.319
30596W        W 2212  21.097  26.017  14.302
30597W        W 2213   7.817  29.389  14.416
30598W        W 2214   7.572  19.541  13.925
30599W        W 2215   3.931  28.973   0.007
30600W        W 2216   1.859   8.408  14.926
30601W        W 2217  13.538  17.161   2.827
30602W        W 2218  26.982   2.684  11.610
30603W        W 2219  27.395  16.560  14.368
30604W        W 2220  31.529  37.137  11.565
30605W        W 2221  40.774  27.756  12.974
30606W        W 2222  20.425  24.658  12.051
30607W        W 2223  27.922  19.664   4.090
30608W        W 2224  44.521   0.762  10.956
30609W        W 2225  28.964   0.016  12.061
30610W        W 2226   3.322  22.499  10.699
30611W        W 2227  24.733  43.737  12.916
30612W        W 2228   0.518  37.344   4.011
30613W        W 2229  12.438   8.276   1.331
30614W        W 2230   9.373  21.989   3.693
30615W        W 2231  32.927  12.304   3.659
30616W        W 2232  32.582  29.525   2.730
30617W        W 2233  11.520   0.311   3.170
30618W        W 2234  24.473   1.144   4.223
30619W        W 2235  16.397  20.141   3.350
30620W        W 2236  32.550  15.840   0.329
30621W        W 2237   9.634  31.903  12.444
30622W        W 2238   5.411  13.778  14.792
30623W        W 2239  16.266  28.148   3.347
30624W        W 2240  38.415   5.817   2.914
30625W        W 2241  11.757  14.155  13.030
30626W        W 2242  17.171  13.226   0.245
30627W        W 2243  38.343  23.466  14.814
30628W        W 2244  38.970  42.665  14.369
30629W        W 2245  20.682  44.857  14.044
30630W        W 2246  35.464  41.314  11.577
30631W        W 2247  23.835  18.109  11.826
30632W        W 2248  28.264  33.418   0.562
30633W        W 2249  10.375  20.068  14.746
30634W        W 2250  11.805  27.655   4.987
30635W        W 2251   4.048  20.650   3.095
30636W        W 2252   3.459   4.215  12.383
30637W        W 2253   3.822  35.782   4.976
30638W        W 2254  12.723  29.175   1.676
30639W        W 2255  30.509  23.606   0.734
30640W        W 2256  30.903  39.074  12.055
30641W        W 2257  11.624  14.690  14.272
30642W        W 2258  41.866  41.092  14.410
30643W        W 2259   7.372   8.989   3.372
30644W        W 2260  33.945  31.033  11.954
30645W        W 2261  37.384   7.924  12.978
30646W        W 2262  24.153   2.721  12.936
30647W        W 2263  38.649  13.185  12.451
30648W        W 2264  29.475  11.172   3.202
30649W        W 2265  34.949  30.068  14.987
30650W        W 2266   9.268  43.543   4.027
30651W        W 2267  42.402  21.000   3.242
30652W        W 2268  22.148  37.354   2.023
30653W        W 2269   1.931  13.126  11.617
30654W        W 2270  36.070  30.395  13.399
30655W        W 2271  16.076  19.993  14.035
30656W        W 2272  25.638  16.586   4.666
30657W        W 2273   7.732  17.860  13.446
30658W        W 2274  14.860  25.608   1.220
30659W        W 2275  21.259  26.234   1.767
30660W        W 2276  29.926   8.419   4.036
30661W        W 2277  17.609  24.251   3.687
30662W        W 2278  11.617  20.242   4.793
30663W        W 2279  24.643  13.159  13.893
30664W        W 2280  16.788   8.766   3.385
30665W        W 2281   8.772   6.457   3.824
30666W        W 2282  15.960  34.100  14.345
30667W        W 2283   1.567   1.827  12.860
30668W        W 2284  22.522  25.587  10.540
30669W        W 2285  24.317  29.005   4.671
30670W        W 2286  31.936  15.996   1.375
30671W        W 2287  24.992  20.514  14.830
30672W        W 2288  36.064  17.478   5.010
30673W        W 2289  17.968  15.976   3.616
30674W        W 2290  30.031  43.260  11.147
30675W        W 2291  41.509  23.651  14.234
30676W        W 2292   9.400  21.647  12.315
30677W        W 2293  28.773  36.138  11.526
30678W        W 2294  23.340  24.586   1.115
30679W        W 2295  41.832  29.536  13.363
30680W        W 2296  34.836  31.931   3.646
30681W        W 2297  42.947  21.717   2.934
30682W        W 2298  25.838  30.070  12.121
30683W        W 2299   0.403  39.082   0.809
30684W        W 2300   5.200   9.897  14.802
30685W        W 2301  23.977  25.593  11.146
30686W        W 2302  29.100  33.918   4.035
30687W        W 2303  43.691   1.989   1.502
30688W        W 2304  42.310  14.501   2.238
30689W        W 2305  42.799   9.395   2.680
30690W        W 2306   9.949  38.844  10.978
30691W        W 2307   7.155  19.215  12.980
30692W        W 2308  26.066  19.689   2.733
30693W        W 2309  20.692  13.395  14.249
30694W        W 2310  37.110  35.004   1.863
30695W        W 2311  40.640  21.453   2.778
30696W        W 2312   0.370   3.881  14.237
30697W        W 2313  21.076  33.181  14.123
30698W        W 2314  28.847  13.271  11.487
30699W        W 2315  35.456  44.495   1.732
30700W        W 2316  19.771  30.979  11.099
30701W        W 2317   4.355  18.024  12.076
30702W        W 2318   1.896  43.314  11.579
30703W        W 2319  10.081  38.575  10.556
30704W        W 2320  40.453   2.983  11.165
30705W        W 2321  18.882  35.896  14.932
30706W        W 2322  17.572   5.167   4.444
30707W        W 2323  25.559  11.563   4.527
30708W        W 2324  44.559  23.197  14.295
30709W        W 2325  32.882   4.502   4.829
30710W        W 2326  25.249  20.578   3.261
30711W        W 2327  25.410  35.326  12.282
30712W        W 2328  36.899  43.627   3.698
30713W        W 2329  40.948  22.420   1.371
30714W        W 2330  17.845   7.134   4.554
30715W        W 2331  38.011  18.263   2.301
30716W        W 2332   7.974  35.577  13.775
30717W        W 2333  20.645  16.794   3.132
30718W        W 2334  39.521  34.061  12.497
30719W        W 2335   8.347  37.554  11.603
30720W        W 2336  24.943  43.952  14.588
30721W        W 2337  32.802  36.424  11.005
30722W        W 2338  35.814   0.352   3.128
30723W        W 2339  15.733   7.514   2.797
30724W        W 2340   8.111  37.319  12.480
30725W        W 2341  29.932   4.862   0.187
30726W        W 2342  38.398  31.471   4.618
30727W        W 2343  16.653  18.275  13.853
30728W        W 2344  33.034  42.331   4.456
30729W        W 2345  37.574  27.995   4.658
30730W        W 2346   7.460  11.035  14.386
30731W        W 2347  12.777  19.571   2.788
30732W        W 2348  40.763   5.180  11.167
30733W        W 2349  31.529  30.065   5.440
30734W        W 2350  38.544  18.235   2.972
30735W        W 2351  43.294  16.370   3.781
30736W        W 2352  43.790  10.085  13.026
30737W        W 2353   6.753  42.889   2.422
30738W        W 2354  40.524  34.516   4.964
30739W        W 2355  42.422  34.818   1.400
30740W        W 2356  17.125   9.608  12.075
30741W        W 2357   3.700  13.461   2.226
30742W        W 2358   9.893  13.663  10.751
30743W        W 2359   0.964  30.166   2.877
30744W        W 2360  38.977  29.673   1.160
30745W        W 2361  27.195  32.061  12.353
30746W        W 2362  20.579   7.139  13.832
30747W        W 2363  21.610  32.481   4.379
30748W        W 2364   1.401  17.157  13.883
30749W        W 2365  37.546  36.523  11.521
30750W        W 2366  36.712  37.907   4.173
30751W        W 2367   6.671  10.027   0.809
30752W        W 2368   8.775   5.405  12.115
30753W        W 2369  11.301   1.939   2.393
30754W        W 2370   0.986  33.365   4.117
30755W        W 2371  40.140  29.078  10.850
30756W        W 2372   4.215  18.749   1.547
30757W        W 2373  17.625  38.020   2.630
30758W        W 2374  41.253  33.974   3.732
30759W        W 2375  39.245   1.914  10.406
30760W        W 2376  43.881  24.997   3.842
30761W        W 2377  15.068   9.636  14.811
30762W        W 2378   9.662  39.526  10.895
30763W        W 2379  28.156  20.070  13.031
30764W        W 2380   6.243  41.032  12.470
30765W        W 2381  40.428  44.689   0.826
30766W        W 2382  44.833  42.092  13.909
30767W        W 2383   0.778  43.357   1.180
30768W        W 2384   9.634  21.521  14.750
30769W        W 2385  33.046  14.613  13.906
30770W        W 2386   0.322  30.081  13.080
30771W        W 2387  13.016   3.209   4.085
30772W        W 2388  16.582  42.328   0.363
30773W        W 2389  36.922  39.969   4.282
30774W        W 2390  13.252   3.667   4.086
30775W        W 2391  20.610  29.628   4.677
30776W        W 2392  13.108  42.991   0.215
30777W        W 2393  33.912  30.657   2.326
30778W        W 2394  15.111   5.350  14.041
30779W        W 2395  40.525  44.959  14.729
30780W        W 2396   2.243  43.352   2.694
30781W        W 2397   2.389  32.871   2.286
30782W        W 2398  25.177  28.248  13.944
30783W        W 2399  26.100  14.819   3.792
30784W        W 2400  32.888  34.793  14.952
30785W        W 2401  34.075  44.897   3.174
30786W        W 2402  15.975  31.502  10.553
30787W        W 2403  38.883  43.733   0.862
30788W        W 2404   5.817  35.200  14.857
30789W        W 2405  28.404  27.763   3.710
30790W        W 2406  29.506  37.907  12.694
30791W        W 2407  13.536  13.737  11.187
30792W        W 2408   0.881   1.289  12.052
30793W        W 2409  15.292  33.626   1.551
30794W        W 2410  11.410  16.015   4.952
30795W        W 2411  26.975  33.045  13.721
30796W        W 2412  36.355   0.965   0.029
30797W        W 2413  16.892  13.253  11.337
30798W        W 2414  33.116  42.833  12.142
30799W        W 2415  22.765  35.667   0.903
30800W        W 2416  21.771  25.871   3.851
30801W        W 2417  29.963  43.595   4.115
30802W        W 2418  37.966  10.362  13.372
30803W        W 2419  34.426  18.177  13.273
30804W        W 2420   7.148  16.675   3.685
30805W        W 2421  25.955  32.881  12.042
30806W        W 2422  20.054  10.766  13.120
30807W        W 2423  31.817  22.749   3.793
30808W        W 2424  36.486  44.813  14.590
30809W        W 2425  27.629  36.930   4.416
30810W        W 2426   1.528  24.299  10.896
30811W        W 2427  25.524  14.684  13.545
30812W        W 2428  34.106  27.001   4.772
30813W        W 2429  18.166  17.039  12.386
30814W        W 2430   6.352  15.360  14.407
30815W        W 2431  33.562  21.093   2.561
30816W        W 2432  10.582  10.272  13.895
30817W        W 2433  41.185  32.983   3.837
30818W        W 2434  20.090  22.121  14.581
30819W        W 2435  12.772   8.157   2.286
30820W        W 2436  35.968  14.668  14.887
30821W        W 2437  26.282   9.095   0.268
30822W        W 2438   6.420  39.436   2.830
30823W        W 2439  38.569  23.804   0.741
30824W        W 2440  37.046   0.362   4.020
30825W        W 2441   5.954  22.426   1.401
30826W        W 2442  28.126   8.421  12.473
30827W        W 2443  30.479  36.330  14.000
30828W        W 2444  28.419  30.962   1.225
30829W        W 2445  22.153  27.874   2.761
30830W        W 2446  27.629   9.794  14.319
30831W        W 2447  11.635  35.021  12.503
30832W        W 2448  14.631  40.510  14.026
30833W        W 2449  27.204  27.076   3.642
30834W        W 2450  27.082  10.342   1.301
30835W        W 2451  11.146  17.571   0.826
30836W        W 2452  22.250  23.041  12.798
30837W        W 2453  23.985  37.999  14.154
30838W        W 2454   6.236  21.496  14.381
30839W        W 2455   8.179  36.154   0.255
30840W        W 2456  23.507  23.618  12.547
30841W        W 2457  20.321  44.935   1.115
30842W        W 2458  15.021  24.355  11.576
30843W        W 2459   7.342  14.328   3.840
30844W        W 2460  29.954  35.919  10.764
30845W        W 2461  35.928  26.640   3.550
30846W        W 2462  43.319  25.499   3.117
30847W        W 2463  39.050  28.652  11.575
30848W        W 2464  19.342  21.976  14.587
30849W        W 2465  42.130  36.335   1.074
30850W        W 2466  25.997  33.456  10.644
30851W        W 2467  35.788   4.840  14.581
30852W        W 2468   0.421   1.202  12.300
30853W        W 2469  12.801   6.287   4.486
30854W        W 2470  17.526   9.323  12.225
30855W        W 2471   6.321   2.878   0.913
30856W        W 2472  37.337   5.375  11.884
30857W        W 2473   8.239  23.158   1.396
30858W        W 2474  39.388  39.399   2.145
30859W        W 2475  11.015  42.818  12.898
30860W        W 2476   7.592  13.082  11.126
30861W        W 2477  16.067  38.455  10.676
30862W        W 2478  43.762  34.455   3.144
30863W        W 2479  37.067  40.981   3.329
30864W        W 2480  24.039  22.683   0.389
30865W        W 2481  12.582  35.609   0.132
30866W        W 2482  32.283  16.215   1.021
30867W        W 2483  44.177  20.546   2.820
30868W        W 2484  18.717  28.799   3.234
30869W        W 2485  30.600  36.075   2.289
30870W        W 2486   0.182  22.954   4.253
30871W        W 2487  36.958   7.055   2.428
30872W        W 2488  34.052  21.807  13.988
30873W        W 2489   9.906   5.646  13.937
30874W        W 2490   5.112   7.953  10.480
30875W        W 2491  41.071   2.522   4.199
30876W        W 2492  26.020  30.422   0.540
30877W        W 2493  24.569  23.297  11.188
30878W        W 2494  29.877  32.445   3.254
30879W        W 2495   9.374  34.473   0.738
30880W        W 2496  17.204  43.377  12.073
30881W        W 2497  30.589  15.670   2.209
30882W        W 2498  40.760   8.850   2.741
30883W        W 2499  15.569  12.216   0.491
30884W        W 2500   3.622  17.052   4.007
30885W        W 2501  27.634  41.650   1.020
30886W        W 2502   2.203  15.614   2.873
30887W        W 2503  34.530  39.239   2.632
30888W        W 2504  33.291  22.620  11.556
30889W        W 2505  29.905   6.645   3.359
30890W        W 2506  25.564  20.745  10.610
30891W        W 2507  18.521  17.907  11.266
30892W        W 2508   0.839   3.680   1.290
30893W        W 2509  23.807  28.485  11.768
30894W        W 2510  31.824  16.945   2.966
30895W        W 2511  43.812  15.243  12.138
30896W        W 2512  43.644  13.913  14.381
30897W        W 2513  12.228  30.553  13.576
30898W        W 2514   6.827  25.145   3.597
30899W        W 2515  33.322  23.016  11.904
30900W        W 2516  22.230   8.403   2.411
30901W        W 2517  31.696  29.200   3.011
30902W        W 2518  32.371  34.053  12.817
30903W        W 2519  25.539  26.898  14.022
30904W        W 2520  36.288  14.609   0.287
30905W        W 2521  11.346  39.693   2.479
30906W        W 2522  27.685   9.538  11.719
30907W        W 2523  15.850   6.327   5.082
30908W        W 2524   4.681  18.605   1.392
30909W        W 2525   9.362  29.745  10.961
30910W        W 2526  42.806  36.948   4.588
30911W        W 2527  40.292  12.589   1.300
30912W        W 2528  29.219  35.549   1.445
30913W        W 2529  42.066   2.856   3.969
30914W        W 2530   6.416  36.089  10.646
30915W        W 2531  34.366  35.902  11.249
30916W        W 2532  36.211   9.776   2.396
30917W        W 2533  42.776  25.247  10.220
30918W        W 2534   6.610  15.789  13.303
30919W        W 2535   0.151  14.125   2.359
30920W        W 2536  17.870   1.287  13.453
30921W        W 2537  44.768   8.422   4.136
30922W        W 2538  11.243  23.468  13.672
30923W        W 2539  32.618  34.642   4.682
30924W        W 2540  11.560   5.063  12.012
30925W        W 2541  27.991  15.294  10.705
30926W        W 2542  29.109  21.054  11.502
30927W        W 2543   0.581  23.126   2.799
30928W        W 2544  25.046  22.942  11.963
30929W        W 2545  27.875  42.671   1.002
30930W        W 2546  39.843  12.395  14.550
30931W        W 2547  33.620  15.283  13.061
30932W        W 2548  23.462  42.369  13.098
30933W        W 2549  30.148  38.922   0.449
30934W        W 2550  40.761  29.718  13.341
30935W        W 2551  36.593  40.768   0.946
30936W        W 2552   2.831  33.156   3.545
30937W        W 2553  18.197  23.629   2.255
30938W        W 2554  13.084  10.466  14.263
30939W        W 2555  10.736   0.683  14.085
30940W        W 2556   6.182   1.353  10.432
30941W        W 2557  26.720   5.316   3.667
30942W        W 2558  13.311  20.976  12.147
30943W        W 2559  19.457  15.444  11.968
30944W        W 2560  36.064   5.653   1.138
30945W        W 2561  10.148  10.914   4.099
30946W        W 2562  17.632   2.877   3.797
30947W        W 2563  13.437  11.737  13.971
30948W        W 2564  32.100  17.666   4.545
30949W        W 2565  17.135  27.011  12.399
30950W        W 2566   0.205  32.747   2.842
30951W        W 2567  32.033  36.851   3.418
30952W        W 2568  19.617  37.521   0.876
30953W        W 2569  34.221  11.538   3.638
30954W        W 2570  38.998  19.467  11.553
30955W        W 2571   3.288  24.404   2.784
30956W        W 2572   9.863  21.995  10.621
30957W        W 2573  36.982  32.807   0.245
30958W        W 2574  37.067  23.252   4.109
30959W        W 2575  30.011  15.146  10.936
30960W        W 2576  42.448  36.449  14.707
30961W        W 2577  32.064  43.780  10.682
30962W        W 2578  16.035  16.766  13.445
30963W        W 2579   0.857   5.195  11.541
30964W        W 2580  11.498  33.421   5.120
30965W        W 2581  39.838   4.229  11.016
30966W        W 2582  13.045  19.718   5.015
30967W        W 2583  26.651  34.765   0.250
30968W        W 2584  29.679  24.198  12.595
30969W        W 2585  23.911  30.936  14.456
30970W        W 2586   0.407  27.196  14.136
30971W        W 2587   2.978  21.517   4.237
30972W        W 2588  13.040  39.730  11.533
30973W        W 2589   6.247  36.995   0.213
30974W        W 2590  25.692  39.495   1.800
30975W        W 2591  34.902   8.976  11.343
30976W        W 2592  14.297  40.403   5.093
30977W        W 2593   4.719  17.704  11.883
30978W        W 2594  35.033  21.546   1.331
30979W        W 2595  33.517  26.546  11.379
30980W        W 2596  21.193  19.182  11.051
30981W        W 2597  13.759  38.512   0.460
30982W        W 2598  16.198   1.365   4.834
30983W        W 2599   0.311  11.618  13.086
30984W        W 2600  34.473  36.064  12.064
30985W        W 2601  38.851  19.557  14.491
30986W        W 2602  11.588  31.666   3.871
30987W        W 2603   3.832  11.589  14.298
30988W        W 2604  20.636  27.168  11.712
30989W        W 2605  22.715  27.458  12.687
30990W        W 2606   6.508   0.388  11.170
30991W        W 2607  20.455  23.069   0.776
30992W        W 2608  17.667  17.568  13.707
30993W        W 2609  43.256  12.771   4.912
30994W        W 2610  31.508  38.082   4.197
30995W        W 2611  37.726   8.150   1.307
30996W        W 2612  16.244  28.725  11.435
30997W        W 2613  44.377   0.119   4.627
30998W        W 2614  23.820   6.761  14.293
30999W        W 2615   3.033  17.422  13.853
31000W        W 2616  21.701  10.727   3.131
31001W        W 2617  32.267  10.690  11.075
31002W        W 2618  40.931  12.641  13.298
31003W        W 2619  41.836  39.272  11.135
31004W        W 2620  24.717  20.057  12.990
31005W        W 2621  17.802  41.449  14.950
31006W        W 2622  19.475   8.327   4.074
31007W        W 2623  39.366   6.895   1.505
31008W        W 2624  17.794   9.861  11.424
31009W        W 2625  42.521  17.197   0.424
31010W        W 2626  36.252  25.024  14.603
31011W        W 2627  26.543   1.793   0.897
31012W        W 2628   7.969  23.535  13.331
31013W        W 2629  23.678  36.545   0.857
31014W        W 2630  22.766  41.467   1.493
31015W        W 2631   5.233   6.126  12.899
31016W        W 2632   3.202  18.329   1.430
31017W        W 2633  36.034  29.528   4.625
31018W        W 2634  13.650  21.799   0.276
31019W        W 2635  36.081  18.355   0.951
31020W        W 2636  25.980   2.346   1.259
31021W        W 2637  30.119  38.092  10.881
31022W        W 2638  35.844  36.737   0.968
31023W        W 2639  44.347  13.637  10.408
31024W        W 2640   7.515  34.781   0.742
31025W        W 2641  12.831  14.633  14.873
31026W        W 2642  32.620  41.263   0.185
31027W        W 2643   1.139  10.120  12.537
31028W        W 2644  12.177   9.098  12.499
31029W        W 2645  31.192   1.605  13.794
31030W        W 2646   7.595  44.802   0.992
31031W        W 2647  21.567   1.949   0.470
31032W        W 2648   8.683   9.574  11.027
31033W        W 2649  37.843  21.200  10.511
31034W        W 2650  43.034  22.230  13.472
31035W        W 2651  14.826  16.232  14.705
31036W        W 2652   4.254  33.746  14.532
31037W        W 2653   6.002  38.949  10.658
31038W        W 2654  14.759  23.617   3.106
31039W        W 2655   3.399   9.645   0.975
31040W        W 2656  43.700  33.478  14.423
31041W        W 2657  31.604   8.493   3.413
31042W        W 2658  41.308  19.626  14.323
31043W        W 2659  35.121   0.716   2.624
31044W        W 2660   0.833  11.226   2.851
31045W        W 2661  25.126  24.589   1.840
31046W        W 2662  24.091   3.146   0.161
31047W        W 2663  16.547  16.051   2.256
31048W        W 2664  24.295  35.504  11.304
31049W        W 2665  30.837  21.661   2.296
31050W        W 2666  27.962   9.925   4.400
31051W        W 2667  24.461  18.376  11.066
31052W        W 2668  29.150  37.987  11.349
31053W        W 2669  18.738  16.350   3.425
31054W        W 2670   5.980  11.372   2.232
31055W        W 2671  16.139  30.594   2.661
31056W        W 2672  40.980  37.910   3.258
31057W        W 2673  29.085   9.411  12.944
31058W        W 2674  15.662   7.941  14.551
31059W        W 2675  31.122  13.651   0.371
31060W        W 2676   6.819  34.307  14.999
31061W        W 2677  22.547  31.967   4.173
31062W        W 2678  23.620  41.545   0.923
31063W        W 2679  12.266  16.618  12.008
31064W        W 2680  14.178  28.580  12.079
31065W        W 2681  17.880  19.328   1.625
31066W        W 2682  10.191  33.862  14.923
31067W        W 2683   5.911  32.106  13.501
31068W        W 2684   8.019   6.767  12.338
31069W        W 2685  28.488  44.229  10.564
31070W        W 2686   4.471  14.521  13.466
31071W        W 2687  32.929  23.304   2.949
31072W        W 2688  15.883   3.222  11.103
31073W        W 2689  20.450  12.647  11.108
31074W        W 2690   7.376  30.297   5.004
31075W        W 2691  11.938  12.920   2.775
31076W        W 2692  34.368  37.033   3.379
31077W        W 2693  30.212  30.150   3.523
31078W        W 2694   3.167  28.922  13.198
31079W        W 2695  27.427  32.465  13.897
31080W        W 2696  44.264   1.483  14.459
31081W        W 2697  40.039   4.699  12.492
31082W        W 2698  24.112  44.933  12.397
31083W        W 2699  24.500  32.404  14.849
31084W        W 2700  37.234  12.722   2.294
31085W        W 2701  34.380  38.863   0.162
31086W        W 2702  12.921  34.613  14.754
31087W        W 2703  32.420  40.016  10.689
31088W        W 2704   4.927  27.668  10.503
31089W        W 2705  39.901  43.761   4.171
31090W        W 2706  15.744  24.176   1.841
31091W        W 2707  18.388   2.322   3.791
31092W        W 2708  44.870  34.646   0.893
31093W        W 2709  31.638  26.452   2.111
31094W        W 2710  44.442  22.718  13.044
31095W        W 2711  25.143   1.475   0.393
31096W        W 2712  17.577   5.891   0.303
31097W        W 2713  44.648  13.237   2.681
31098W        W 2714  43.083  26.003   4.074
31099W        W 2715   8.708  22.861  13.349
31100W        W 2716  25.305  18.633  14.009
31101W        W 2717  32.180  21.804  12.591
31102W        W 2718  35.480  21.034   0.800
31103W        W 2719  40.496  20.552   2.612
31104W        W 2720  12.685  19.309  11.925
31105W        W 2721  27.599  16.343   1.772
31106W        W 2722  35.103  35.355  13.883
31107W        W 2723  20.135  32.813   0.312
31108W        W 2724  25.071  29.240  13.953
31109W        W 2725  31.003  18.462   3.582
31110W        W 2726  17.342  20.571   3.480
31111W        W 2727  36.014  36.340   2.321
31112W        W 2728  40.194  19.096  11.866
31113W        W 2729  18.519  32.614   2.202
31114W        W 2730  41.813  23.312   3.261
31115W        W 2731  33.646  14.169   4.457
31116W        W 2732  35.311  37.430   4.738
31117W        W 2733   1.044   0.794   1.401
31118W        W 2734  29.416  41.854  13.344
31119W        W 2735  31.909  21.395  10.336
31120W        W 2736  14.545  17.097  11.077
31121W        W 2737  18.756  27.610  12.992
31122W        W 2738  39.089  37.865   2.673
31123W        W 2739  13.147  23.855  10.654
31124W        W 2740  25.800   9.743   0.724
31125W        W 2741  23.731  44.211   2.868
31126W        W 2742  42.737  35.123   0.392
31127W        W 2743  31.994   1.902   3.799
31128W        W 2744   4.529  38.361   4.650
31129W        W 2745  44.936  17.118   1.494
31130W        W 2746  15.598  40.947  13.338
31131W        W 2747  33.004  42.934   3.721
31132W        W 2748  16.077  11.124   1.254
31133W        W 2749   3.665  32.956   1.721
31134W        W 2750  34.890   0.401  12.481
31135W        W 2751  43.549  11.382   3.806
31136W        W 2752  41.136  20.512  14.411
31137W        W 2753   0.615   4.917   3.632
31138W        W 2754  14.692  23.588   2.085
31139W        W 2755  14.727   2.355  13.327
31140W        W 2756  17.564  21.226  10.187
31141W        W 2757  40.227  34.612  13.357
31142W        W 2758  39.581   9.591   2.269
31143W        W 2759  20.724   7.162   4.062
31144W        W 2760   5.839  27.555  11.070
31145W        W 2761  23.282  32.597  12.921
31146W        W 2762   8.905  30.912   4.092
31147W        W 2763  11.927  19.904  13.717
31148W        W 2764  38.285  23.985   2.182
31149W        W 2765   4.365  44.178   2.413
31150W        W 2766  31.694   2.707  14.458
31151W        W 2767  41.487  38.112  10.333
31152W        W 2768   0.928  12.329  14.872
31153W        W 2769  18.043  30.543  11.155
31154W        W 2770  28.655   8.099   4.512
31155W        W 2771  31.015  24.013  14.526
31156W        W 2772  35.377  42.368  14.102
31157W        W 2773  10.125  16.576  12.102
31158W        W 2774  18.059   7.743   0.844
31159W        W 2775  43.916  41.963  10.711
31160W        W 2776  42.580  22.486   1.041
31161W        W 2777  31.591   5.992   3.747
31162W        W 2778  25.261  21.427  12.088
31163W        W 2779   0.708  33.935  14.438
31164W        W 2780  12.113   3.325   2.185
31165W        W 2781   1.941  23.474   2.791
31166W        W 2782  17.689  16.553  13.924
31167W        W 2783   8.273  25.106  12.013
31168W        W 2784  32.527  22.920   0.690
31169W        W 2785  33.090   3.147   2.460
31170W        W 2786  16.782   6.718   3.790
31171W        W 2787   6.483   8.634  13.910
31172W        W 2788   1.223   3.727   4.733
31173W        W 2789  35.538  37.900  13.025
31174W        W 2790  10.289  40.583   4.075
31175W        W 2791  36.287  12.889   4.788
31176W        W 2792  25.051  39.606   3.185
31177W        W 2793  26.062  11.290   0.397
31178W        W 2794  44.500  43.190  14.141
31179W        W 2795  38.408  15.813  11.877
31180W        W 2796   3.493  41.193   0.235
31181W        W 2797  24.893  28.243  12.965
31182W        W 2798  27.032  20.752   0.819
31183W        W 2799  24.714  29.163  13.185
31184W        W 2800  43.195  33.409   0.802
31185W        W 2801  19.821   9.222  12.052
31186W        W 2802  15.930  37.567   3.190
31187W        W 2803   8.784   5.141   0.550
31188W        W 2804  36.612  19.611   2.825
31189W        W 2805  42.893  26.442   4.830
31190W        W 2806  22.727  42.829  11.102
31191W        W 2807  14.156   2.997   2.170
31192W        W 2808  11.700  31.168   3.786
31193W        W 2809  12.096  18.166   1.277
31194W        W 2810   8.699  21.500   3.202
31195W        W 2811  15.177  44.488  12.916
31196W        W 2812  42.804  10.817  13.370
31197W        W 2813  12.443  19.780   0.740
31198W        W 2814   9.741  33.046  11.752
31199W        W 2815  31.981  27.031   4.974
31200W        W 2816  26.455   0.408   4.152
31201W        W 2817  27.944  20.771  14.754
31202W        W 2818  37.362  27.744  11.153
31203W        W 2819   2.555  39.700  13.973
31204W        W 2820  23.882  38.670   9.897
31205W        W 2821  24.147  10.053   3.702
31206W        W 2822  24.197  25.638  13.790
31207W        W 2823   7.020  29.901   0.817
31208W        W 2824  37.066  19.867   4.296
31209W        W 2825  20.498  31.865   3.704
31210W        W 2826  35.583   4.600   4.936
31211W        W 2827   0.275  31.711   0.755
31212W        W 2828  24.047  20.747  13.915
31213W        W 2829  37.175  30.644  13.997
31214W        W 2830  43.356   1.200  14.906
31215W        W 2831  10.797   3.230   1.018
31216W        W 2832   7.898  34.993   0.075
31217W        W 2833  27.105  17.821  13.540
31218W        W 2834   9.156  28.104   4.799
31219W        W 2835  42.021  19.927   1.056
31220W        W 2836  28.070  24.692   3.889
31221W        W 2837  21.311   6.611   4.127
31222W        W 2838  26.532   9.631   4.387
31223W        W 2839   1.955   4.184  14.224
31224W        W 2840  44.231  24.906   4.621
31225W        W 2841  42.470  27.097   3.783
31226W        W 2842  16.968  22.142   0.232
31227W        W 2843  44.771  33.114  14.808
31228W        W 2844  14.704  18.331  13.534
31229W        W 2845   4.186  39.833   1.872
31230W        W 2846  10.955  29.609  13.207
31231W        W 2847  15.169  13.079  13.748
31232W        W 2848  29.414  24.815   4.584
31233W        W 2849   6.940  29.082  11.594
31234W        W 2850  23.566   3.687  10.801
31235W        W 2851  18.699   5.900   0.795
31236W        W 2852  30.925  38.771   3.306
31237W        W 2853   0.694   8.698   1.246
31238W        W 2854  41.448  32.162   9.907
31239W        W 2855  35.715  12.999   4.595
31240W        W 2856  42.696   1.021   2.303
31241W        W 2857  34.103  28.275  12.505
31242W        W 2858  31.832  13.774  12.988
31243W        W 2859  37.455  13.558   0.283
31244W        W 2860  24.500   1.350   2.752
31245W        W 2861  29.653   4.905   2.894
31246W        W 2862   7.300   1.682   4.147
31247W        W 2863  25.562   5.672  11.892
31248W        W 2864  25.124  17.845   1.539
31249W        W 2865  27.795  18.194   2.520
31250W        W 2866  17.314  41.500  12.513
31251W        W 2867  32.669  15.710   1.382
31252W        W 2868  22.736  40.039   4.513
31253W        W 2869  29.649  44.468  13.605
31254W        W 2870  37.651  36.658   1.835
31255W        W 2871  10.776  24.088  13.415
31256W        W 2872  35.068  30.149   1.081
31257W        W 2873  29.131   7.481   1.955
31258W        W 2874   5.713  21.850   0.911
31259W        W 2875  25.783   7.308   3.031
31260W        W 2876  44.282  36.780   4.142
31261W        W 2877  21.186  22.499   2.624
31262W        W 2878  38.807   1.981   3.217
31263W        W 2879  29.496  30.600  13.145
31264W        W 2880  34.813  12.331  11.591
31265W        W 2881  41.576  28.287  13.821
31266W        W 2882  38.583  14.635  14.883
31267W        W 2883  17.063  36.240  11.126
31268W        W 2884   3.202  36.270   1.262
31269W        W 2885   0.011  36.474   4.978
31270W        W 2886  22.819  32.600   0.446
31271W        W 2887  36.409  34.337   0.826
31272W        W 2888  15.609  35.036   4.564
31273W        W 2889  40.563  17.666  12.463
31274W        W 2890  16.042  30.539   4.178
31275W        W 2891  31.219  11.306  12.133
31276W        W 2892  27.033  43.356   1.430
31277W        W 2893   1.966   6.348  13.529
31278W        W 2894   1.799  21.997  13.837
31279W        W 2895  36.336  31.106  12.151
31280W        W 2896  35.937   4.954   3.241
31281W        W 2897  18.338  43.797   4.768
31282W        W 2898   9.635  26.468   1.832
31283W        W 2899  36.517  19.112  11.953
31284W        W 2900  21.068  33.618   4.628
31285W        W 2901   3.378  30.928   2.142
31286W        W 2902  23.245  29.625   4.754
31287W        W 2903  27.009  44.249  14.716
31288W        W 2904  29.805  13.230   5.079
31289W        W 2905  40.971  22.568   4.564
31290W        W 2906  31.698  20.128  12.959
31291W        W 2907  11.819  23.047  13.125
31292W        W 2908   8.072  26.535  14.719
31293W        W 2909  19.767  30.652  10.681
31294W        W 2910  31.854   7.252   1.657
31295W        W 2911  23.654  35.623  14.520
31296W        W 2912   4.940   4.449   1.754
31297W        W 2913  24.222  42.754   2.104
31298W        W 2914  44.760  29.073   4.507
31299W        W 2915  37.006   1.883  12.642
31300W        W 2916  13.779  12.797  11.639
31301W        W 2917  26.206   0.390   1.996
31302W        W 2918   3.737  10.335   4.804
31303W        W 2919   1.457  19.675  10.637
31304W        W 2920  28.016  25.163   4.075
31305W        W 2921  29.626  32.916  12.485
31306W        W 2922   2.317  43.096  10.326
31307W        W 2923  12.761  36.114   3.621
31308W        W 2924  36.558  32.271  10.315
31309W        W 2925  33.642  43.403  14.956
31310W        W 2926   3.530  27.109  13.034
31311W        W 2927   3.440  34.054  13.447
31312W        W 2928  21.026  11.384  10.652
31313W        W 2929   7.687  35.590  10.965
31314W        W 2930  11.734  24.212   3.002
31315W        W 2931  36.301  38.612   0.049
31316W        W 2932  28.469  43.500   4.408
31317W        W 2933   1.551  36.678   2.839
31318W        W 2934   4.471  37.084  11.470
31319W        W 2935  44.986  22.501  11.713
31320W        W 2936  19.807  11.109   2.782
31321W        W 2937   4.397   6.440   3.162
31322W        W 2938  24.982   5.109   0.296
31323W        W 2939  28.424  17.211   1.214
31324W        W 2940  11.367   4.345   4.260
31325W        W 2941  20.266   9.230   1.717
31326W        W 2942  43.870  13.206   1.896
31327W        W 2943   6.905  11.443  13.150
31328W        W 2944  31.301   2.103   5.568
31329W        W 2945  24.953   2.338   1.452
31330W        W 2946  35.262  27.093  14.493
31331W        W 2947  27.890  15.240  13.499
31332W        W 2948   6.245  44.761   1.767
31333W        W 2949  12.592  31.646  14.388
31334W        W 2950  37.505  31.505   1.649
31335W        W 2951   4.797  21.228  11.150
31336W        W 2952  20.268  31.621   3.224
31337W        W 2953  32.915  11.071  11.027
31338W        W 2954  14.832  19.301  10.582
31339W        W 2955  24.034   1.225  13.438
31340W        W 2956  17.976  43.962   2.338
31341W        W 2957  27.540   6.249   2.610
31342W        W 2958  43.419  11.144   2.842
31343W        W 2959   8.449  33.895  13.004
31344W        W 2960   5.521  32.865   2.289
31345W        W 2961  43.042  11.386   3.770
31346W        W 2962  34.133   0.346   2.348
31347W        W 2963   2.228  19.588   4.667
31348W        W 2964   4.867  27.218  14.380
31349W        W 2965  37.354  32.967  14.368
31350W        W 2966  25.506  16.180  14.446
31351W        W 2967  38.344   9.149   0.947
31352W        W 2968  31.930   8.141  12.020
31353W        W 2969  11.979  32.546  11.610
31354W        W 2970  21.351  24.793  13.512
31355W        W 2971  11.919   6.389   1.405
31356W        W 2972  23.025  31.618  10.913
31357W        W 2973  35.502  37.150   4.314
31358W        W 2974  43.410  36.542   0.871
31359W        W 2975  44.346  24.704  14.342
31360W        W 2976  39.372  31.520  13.158
31361W        W 2977   7.706  38.910  12.524
31362W        W 2978  11.694  34.219  12.191
31363W        W 2979  18.317  23.210  14.766
31364W        W 2980  34.043  27.917  14.314
31365W        W 2981   1.515  16.119   1.606
31366W        W 2982  18.328  31.959   0.213
31367W        W 2983  29.616   4.206  14.021
31368W        W 2984  32.857  29.348   3.340
31369W        W 2985  14.253  34.302  12.009
31370W        W 2986  27.435  22.506   3.742
31371W        W 2987  32.110  13.113   1.744
31372W        W 2988  26.002  22.700  14.462
31373W        W 2989  37.306  32.104   4.255
31374W        W 2990  23.024  44.292  13.071
31375W        W 2991  10.384  29.117   1.710
31376W        W 2992   8.914  27.144   2.681
31377W        W 2993  24.480   3.988   2.731
31378W        W 2994   2.786  21.601  13.841
31379W        W 2995  36.353  10.662  11.164
31380W        W 2996  18.500  24.689   1.829
31381W        W 2997  37.384   8.985  13.811
31382W        W 2998  32.114  44.446  13.753
31383W        W 2999  26.173   0.518   0.286
31384W        W 3000  36.395  42.663   0.931
31385W        W 3001  11.405  28.063   2.176
31386W        W 3002  18.457  39.913  13.764
31387W        W 3003  13.780  30.406   2.562
31388W        W 3004  26.149  34.899   0.273
31389W        W 3005   2.137  28.097  13.258
31390W        W 3006   5.724  23.432  11.065
31391W        W 3007   4.467   8.814  14.411
31392W        W 3008   2.117  27.696   1.790
31393W        W 3009  43.385  38.620  10.868
31394W        W 3010  30.334   9.670   2.437
31395W        W 3011  17.682  15.270  12.643
31396W        W 3012   4.653  39.044   2.793
31397W        W 3013  44.384  40.992  14.438
31398W        W 3014   5.983  38.468   3.255
31399W        W 3015  30.099  19.749   1.413
31400W        W 3016  33.006  12.789   4.619
31401W        W 3017   4.899  17.370   3.622
31402W        W 3018   8.134   0.417  13.451
31403W        W 3019  25.101  16.673   0.446
31404W        W 3020  12.838   0.028   1.798
31405W        W 3021  30.980  19.228  12.408
31406W        W 3022  38.736  43.445   4.154
31407W        W 3023   3.819  12.163   2.912
31408W        W 3024  26.881  34.643   3.317
31409W        W 3025   2.219   8.165   2.691
31410W        W 3026   6.655  43.258   3.232
31411W        W 3027  14.297  43.328   0.866
31412W        W 3028  37.567  23.935   2.357
31413W        W 3029  44.311  31.442  14.004
31414W        W 3030  28.341  20.137   1.222
31415W        W 3031  38.438  24.744   0.514
31416W        W 3032   5.124  37.199   5.081
31417W        W 3033  30.930  21.013   4.313
31418W        W 3034  32.418   0.270   3.579
31419W        W 3035   2.255  21.585   1.120
31420W        W 3036  33.226   3.254  11.134
31421W        W 3037  31.176  21.526  12.370
31422W        W 3038   7.594  42.742  13.384
31423W        W 3039  22.418  12.749  14.968
31424W        W 3040  16.551  42.950   0.812
31425W        W 3041  27.117  10.732  12.306
31426W        W 3042  11.880  18.688   0.035
31427W        W 3043  38.927  42.726   2.565
31428W        W 3044   7.433  27.687  12.111
31429W        W 3045  33.996  38.902  10.509
31430W        W 3046  23.302  43.931   3.196
31431W        W 3047  35.456  13.879   4.205
31432W        W 3048  43.904  26.021  13.566
31433W        W 3049  26.062  28.556   0.568
31434W        W 3050  17.502  40.829   3.797
31435W        W 3051   6.381   0.826   4.067
31436W        W 3052  36.505   6.119   4.922
31437W        W 3053  24.090  35.100   4.668
31438W        W 3054  11.243  12.383  12.505
31439W        W 3055  34.504  33.011  10.270
31440W        W 3056   1.980   5.920   1.299
31441W        W 3057  28.223  14.720   4.120
31442W        W 3058  16.976  19.628   0.682
31443W        W 3059  24.523  42.459   4.447
31444W        W 3060  22.491  13.584   3.262
31445W        W 3061   0.615   4.775  13.416
31446W        W 3062  21.297  23.965  12.997
31447W        W 3063  13.106   2.479  11.431
31448W        W 3064  38.796  44.477   0.315
31449W        W 3065  39.073  40.770  12.245
31450W        W 3066  34.182  21.458  11.198
31451W        W 3067  13.887  16.693   1.258
31452W        W 3068   5.232  20.060   0.537
31453W        W 3069  32.142  12.307   4.494
31454W        W 3070  35.978   7.931  13.815
31455W        W 3071  41.305  18.497  10.958
31456W        W 3072  38.788  43.957   0.353
31457W        W 3073  12.093  16.098  13.721
31458W        W 3074  13.295  17.603   2.685
31459W        W 3075  12.638  31.405  11.956
31460W        W 3076  43.179  40.397  13.597
31461W        W 3077  18.954  12.692  11.158
31462W        W 3078  26.628  43.553   0.028
31463W        W 3079   2.734  31.504   4.942
31464W        W 3080  11.276  44.934   0.052
31465W        W 3081   9.440  30.542   3.081
31466W        W 3082   3.782  13.197  10.732
31467W        W 3083  35.424  15.119  11.572
31468W        W 3084   2.328   1.145   2.171
31469W        W 3085  44.744  41.979  12.891
31470W        W 3086   1.927  28.856   1.779
31471W        W 3087   8.729  18.778   0.005
31472W        W 3088   9.347  21.024   0.989
31473W        W 3089  38.960   6.607   0.744
31474W        W 3090  14.826  21.210   1.404
31475W        W 3091   3.946  10.381   3.741
31476W        W 3092  37.041  10.450   2.910
31477W        W 3093   9.180  32.385  12.164
31478W        W 3094  32.094  26.094   0.891
31479W        W 3095  27.940  22.459  13.370
31480W        W 3096   7.368  27.956  14.933
31481W        W 3097   8.339   4.398   4.671
31482W        W 3098   5.475   9.694   4.163
31483W        W 3099  23.775  12.367  12.035
31484W        W 3100  15.978  26.139   3.301
31485W        W 3101  15.373  37.977  13.094
31486W        W 3102   2.017  37.068   2.231
31487W        W 3103  14.257   3.366   2.521
31488W        W 3104  11.163  23.712   2.429
31489W        W 3105  25.466  44.432  11.101
31490W        W 3106   9.338  12.194  13.497
31491W        W 3107  32.548  32.170  13.435
31492W        W 3108  20.300  10.997  14.428
31493W        W 3109  20.781  13.374   2.176
31494W        W 3110   7.469  23.704   4.450
31495W        W 3111  35.626   7.125   3.297
31496W        W 3112  15.852  27.672   0.384
31497W        W 3113   1.197  13.322   3.361
31498W        W 3114   1.533  40.361   2.575
31499W        W 3115  16.123  13.819   2.619
31500W        W 3116  22.783  29.201  11.685
31501W        W 3117  35.368  20.747  13.089
31502W        W 3118  30.368   0.685   3.680
31503W        W 3119  28.990  16.073   1.449
31504W        W 3120  26.190  31.308   1.023
31505W        W 3121  23.050  16.361   3.124
31506W        W 3122  12.764  42.791   4.145
31507W        W 3123  41.594  10.815   2.315
31508W        W 3124  38.981   5.917  12.191
31509W        W 3125  36.287  13.152  13.752
31510W        W 3126  33.343  19.698   2.266
31511W        W 3127  40.939  29.729  14.253
31512W        W 3128  29.056   3.030  11.111
31513W        W 3129  19.059  26.563  14.309
31514W        W 3130   4.689  21.857   0.711
31515W        W 3131  23.498  23.938   1.276
31516W        W 3132  30.435  34.049  11.201
31517W        W 3133   0.118  24.517   0.499
31518W        W 3134  17.529   0.798   0.792
31519W        W 3135  35.390  22.590   2.859
31520W        W 3136  38.552  35.162   0.258
31521W        W 3137  40.942   4.449   3.095
31522W        W 3138  23.141  31.003  12.095
31523W        W 3139  43.770   2.938  10.637
31524W        W 3140   8.972  17.540   0.323
31525W        W 3141   1.419  32.618  11.629
31526W        W 3142  42.297  16.750   0.304
31527W        W 3143  14.814  14.860  11.983
31528W        W 3144  10.764   3.802   1.773
31529W        W 3145  10.905   4.182   0.501
31530W        W 3146  14.857  38.456   4.362
31531W        W 3147  33.881  10.166  14.790
31532W        W 3148  33.811  34.430  14.410
31533W        W 3149   3.510  12.099  12.135
31534W        W 3150  39.917  35.802   4.192
31535W        W 3151  30.294   3.773  11.959
31536W        W 3152  39.815  20.229   0.436
31537W        W 3153  35.833   8.611   4.035
31538W        W 3154  22.138  37.866   0.290
31539W        W 3155   7.776   3.188   3.230
31540W        W 3156   4.672   3.576  11.595
31541W        W 3157   3.420  28.249  12.360
31542W        W 3158   7.924  32.485   0.470
31543W        W 3159  38.921  10.662  14.419
31544W        W 3160  17.730  42.072   2.755
31545W        W 3161   9.160  24.747   0.693
31546W        W 3162  39.672   1.431  14.084
31547W        W 3163  31.419  11.162   1.375
31548W        W 3164  18.351   7.448   3.053
31549W        W 3165  40.356  44.376   0.339
31550W        W 3166  26.772  35.353   2.758
31551W        W 3167   1.853  35.277   0.692
31552W        W 3168   1.872  29.691   2.319
31553W        W 3169  17.097  12.333   1.701
31554W        W 3170  36.130  33.057   3.727
31555W        W 3171  32.838  23.093   3.444
31556W        W 3172  34.063  38.366  13.954
31557W        W 3173  16.438  16.163  11.557
31558W        W 3174   2.404  12.344   0.368
31559W        W 3175   8.000  26.077  11.647
31560W        W 3176  22.048  22.792  13.782
31561W        W 3177  36.629  11.599   1.602
31562W        W 3178  42.397  29.465  12.182
31563W        W 3179  41.764   4.906  12.999
31564W        W 3180  22.781  27.207   3.934
31565W        W 3181  20.837   9.562  14.779
31566W        W 3182  34.085  29.184   4.346
31567W        W 3183  40.565  14.675   2.687
31568W        W 3184  20.492  36.099   3.255
31569W        W 3185  44.851   7.175   0.213
31570W        W 3186  16.816   7.904   2.289
31571W        W 3187  38.043  38.207   4.672
31572W        W 3188   4.829  16.249  13.148
31573W        W 3189  34.471  18.225  13.812
31574W        W 3190   8.127  37.851  12.492
31575W        W 3191  22.923  25.247  13.378
31576W        W 3192   0.201  41.063   0.901
31577W        W 3193   5.612  18.154  14.482
31578W        W 3194  43.679   0.731  12.015
31579W        W 3195  20.310  38.134   3.270
31580W        W 3196  21.210  19.534   4.651
31581W        W 3197  24.485  11.948   2.101
31582W        W 3198  18.082  12.912   0.681
31583W        W 3199  24.066   7.183  13.821
31584W        W 3200  38.010  32.591   3.786
31585W        W 3201  30.163  31.368  13.591
31586W        W 3202  36.027  14.137   1.072
31587W        W 3203   9.400  25.012   2.761
31588W        W 3204  31.835  44.862   1.901
31589W        W 3205  36.044  44.595  12.498
31590W        W 3206  24.454  37.803  11.013
31591W        W 3207  38.915  27.813   4.153
31592W        W 3208  23.060  23.126  12.128
31593W        W 3209  23.071  40.616   0.964
31594W        W 3210  19.348  40.514   3.837
31595W        W 3211  19.899  28.384   3.794
31596W        W 3212  12.542  39.264   2.257
31597W        W 3213   0.914   3.583  11.474
31598W        W 3214  12.804   2.952   4.506
31599W        W 3215  30.689  17.213  12.920
31600W        W 3216   4.317  11.119  11.577
31601W        W 3217  19.968  44.978   0.737
31602W        W 3218  16.651  41.350   2.363
31603W        W 3219  26.074  15.692   9.859
31604W        W 3220   0.464   6.216   5.151
31605W        W 3221  36.074  15.815  13.111
31606W        W 3222  39.323  22.294  12.870
31607W        W 3223   8.383  37.153  11.956
31608W        W 3224   9.560  13.151   1.398
31609W        W 3225  36.922   7.073  12.344
31610W        W 3226  39.834  34.283  13.313
31611W        W 3227  14.627  31.177  13.940
31612W        W 3228  41.933  27.103  12.945
31613W        W 3229  15.173  19.457  14.895
31614W        W 3230  44.845  11.207  14.019
31615W        W 3231  20.539  10.168  10.511
31616W        W 3232  22.564  17.007  12.791
31617W        W 3233  44.846  38.915   1.781
31618W        W 3234  19.113   2.676   0.355
31619W        W 3235   7.233  12.813   0.274
31620W        W 3236  32.603  22.778  13.895
31621W        W 3237  21.100  14.059  11.653
31622W        W 3238  17.229  27.559  11.063
31623W        W 3239  24.531  17.313   0.496
31624W        W 3240  31.991  44.202   2.999
31625W        W 3241  13.866  25.618   3.303
31626W        W 3242   0.654  29.229   2.763
31627W        W 3243   5.791  17.302  12.733
31628W        W 3244  21.559  38.017  10.636
31629W        W 3245  42.726  37.408   3.414
31630W        W 3246  18.223  18.670   1.088
31631W        W 3247  36.289   6.195  14.126
31632W        W 3248   5.673  40.536   3.768
31633W        W 3249  12.766  42.963  14.737
31634W        W 3250  22.976   2.161   2.487
31635W        W 3251  40.000   7.277  10.611
31636W        W 3252  27.243  36.281   2.358
31637W        W 3253  21.777  23.197  12.596
31638W        W 3254  17.265  34.505   4.278
31639W        W 3255   8.408  19.068   3.305
31640W        W 3256   6.302   4.200  12.146
31641W        W 3257  35.088  32.062   4.653
31642W        W 3258  36.587  11.922  14.445
31643W        W 3259   4.424   2.592  11.416
31644W        W 3260  12.446  11.655  13.920
31645W        W 3261  14.761  19.796  11.515
31646W        W 3262   2.531  29.618  11.706
31647W        W 3263  16.080   9.930  10.702
31648W        W 3264  33.571  27.429   4.139
31649W        W 3265  12.828   3.896  11.310
31650W        W 3266  13.789  24.044   0.767
31651W        W 3267  40.356  38.505  10.362
31652W        W 3268  10.285  26.712   0.756
31653W        W 3269  32.876  35.891   0.723
31654W        W 3270  22.186  15.036   3.220
31655W        W 3271   8.967  23.658   4.160
31656W        W 3272  30.725   4.872   4.099
31657W        W 3273  34.893  16.697  10.977
31658W        W 3274   8.828  10.550   4.050
31659W        W 3275  34.167   7.300   4.639
31660W        W 3276  26.067  20.237  14.305
31661W        W 3277  13.872  21.129   2.873
31662W        W 3278  33.578  24.580  12.050
31663W        W 3279  29.160   9.351   1.165
31664W        W 3280   0.196  24.384  12.608
31665W        W 3281  19.566  30.529  11.471
31666W        W 3282  16.555  16.572   3.302
31667W        W 3283  29.116  10.905   4.701
31668W        W 3284  38.728  35.338   1.315
31669W        W 3285   3.967  31.128   3.232
31670W        W 3286   3.650   4.861   2.316
31671W        W 3287  16.875  36.165  14.038
31672W        W 3288  32.530  27.543  13.759
31673W        W 3289  13.207  29.012   2.927
31674W        W 3290  15.028  22.540  13.476
31675W        W 3291   1.055  38.114  14.485
31676W        W 3292  26.090  10.170   1.279
31677W        W 3293  42.095   5.218   3.309
31678W        W 3294  20.568   4.190  12.052
31679W        W 3295  27.748  25.242  12.004
31680W        W 3296  42.027  35.384  11.394
31681W        W 3297  29.421  21.216   2.771
31682W        W 3298  30.103  32.042   4.393
31683W        W 3299  22.075   3.519   2.006
31684W        W 3300  21.745   8.925   4.977
31685W        W 3301  42.902  30.911   4.085
31686W        W 3302   0.517  42.314   0.254
31687W        W 3303  44.522   7.297   4.578
31688W        W 3304  15.204  16.286  14.324
31689W        W 3305  31.368  35.941  13.275
31690W        W 3306  17.155  30.405   5.008
31691W        W 3307   4.371   4.933  11.602
31692W        W 3308  38.615  35.480  13.338
31693W        W 3309  40.695  19.082   1.759
31694W        W 3310  26.445  41.093  13.471
31695W        W 3311  29.215  43.470   2.906
31696W        W 3312  43.535  43.258  11.595
31697W        W 3313  17.499   4.237   0.426
31698W        W 3314  34.070  41.321   2.823
31699W        W 3315  12.884  13.698  14.900
31700W        W 3316   1.487   7.968   3.265
31701W        W 3317   5.818  43.965  13.399
31702W        W 3318  39.265  29.106  12.104
31703W        W 3319   5.242  18.125  14.071
31704W        W 3320  33.617  44.048  10.725
31705W        W 3321  17.578   2.676  13.397
31706W        W 3322  22.615  41.269  11.082
31707W        W 3323  18.629  25.479   1.481
31708W        W 3324  13.106  12.091   4.612
31709W        W 3325  11.237  29.146   4.380
31710W        W 3326  20.534   4.320  11.556
31711W        W 3327  33.760  29.560   3.664
31712W        W 3328   4.151  26.758   4.221
31713W        W 3329  12.394   7.414  13.854
31714W        W 3330  11.791  40.365  10.944
31715W        W 3331  24.316  25.836  14.324
31716W        W 3332  31.111  40.271  10.810
31717W        W 3333   9.811  23.738  13.332
31718W        W 3334  29.726  22.316   1.457
31719W        W 3335  32.458   4.916  10.712
31720W        W 3336   4.877  15.628  10.311
31721W        W 3337  19.294  37.069  12.873
31722W        W 3338  18.799   4.623  12.822
31723W        W 3339   6.707  41.543   1.545
31724W        W 3340  42.438   5.917  12.469
31725W        W 3341  19.157  18.050  11.246
31726W        W 3342  14.405  15.273  14.435
31727W        W 3343  44.918  39.417  10.701
31728W        W 3344  25.544  33.042  11.719
31729W        W 3345  32.675  34.394   0.258
31730W        W 3346  38.270  10.063  14.521
31731W        W 3347  18.846  37.957  10.878
31732W        W 3348  25.787  27.953  11.527
31733W        W 3349  20.257  11.628   2.916
31734W        W 3350  34.017  36.525  10.665
31735W        W 3351  37.323  23.919  11.642
31736W        W 3352   9.240   0.441   3.469
31737W        W 3353  12.960  18.038  10.729
31738W        W 3354   0.512  43.270   0.348
31739W        W 3355  16.982  30.356   1.652
31740W        W 3356  17.892  31.533  14.423
31741W        W 3357  41.207  18.627  14.485
31742W        W 3358   9.277  17.209  13.498
31743W        W 3359  11.133   9.688   3.239
31744W        W 3360   6.397  40.947   1.341
31745W        W 3361  14.583  39.979  10.809
31746W        W 3362   5.000   1.778   2.678
31747W        W 3363  13.781  39.519   4.327
31748W        W 3364  39.648  36.583  12.870
31749W        W 3365  16.686  23.483  12.476
31750W        W 3366  29.117   7.357  11.650
31751W        W 3367  21.598  42.738  13.339
31752W        W 3368  38.992  37.348   0.687
31753W        W 3369  35.549  20.299   3.193
31754W        W 3370   0.881  37.527  13.673
31755W        W 3371  18.793   3.309  11.629
31756W        W 3372  44.228   0.611   4.609
31757W        W 3373  36.949   8.881   3.671
31758W        W 3374  11.672  25.260  13.871
31759W        W 3375  25.955  27.113  11.149
31760W        W 3376  23.124  10.427   0.179
31761W        W 3377  38.766  39.100  11.613
31762W        W 3378  30.640  42.815  12.882
31763W        W 3379  42.819   7.292   2.765
31764W        W 3380  18.368  31.407  14.289
31765W        W 3381  13.653  12.038   2.310
31766W        W 3382  19.894   2.474   3.816
31767W        W 3383  13.714  14.946  12.092
31768W        W 3384  14.889  36.711   3.150
31769W        W 3385   3.784  28.024  11.597
31770W        W 3386  40.588  34.135  10.756
31771W        W 3387  35.284   9.290  11.225
31772W        W 3388  11.119  21.455   1.920
31773W        W 3389  32.654   0.818  14.410
31774W        W 3390  35.133  18.796   4.091
31775W        W 3391   4.186  14.647   3.323
31776W        W 3392  37.902   6.430   2.125
31777W        W 3393  21.734   1.601   3.858
31778W        W 3394  31.571  29.718  10.563
31779W        W 3395  39.722  22.625  12.834
31780W        W 3396  25.019  29.872   3.286
31781W        W 3397  42.878  26.683  13.851
31782W        W 3398  31.573  34.912   2.442
31783W        W 3399  32.420  35.537  10.681
31784W        W 3400  19.874  25.051  11.204
31785W        W 3401  37.464  28.998   4.699
31786W        W 3402  18.956  40.753   3.586
31787W        W 3403   0.886  33.574   2.716
31788W        W 3404  29.141   3.382  12.996
31789W        W 3405  12.859  15.637  11.098
31790W        W 3406  16.554  12.097  13.142
31791W        W 3407   8.521  33.625   2.532
31792W        W 3408  16.313  17.039  14.835
31793W        W 3409  36.542  10.175  12.433
31794W        W 3410  41.445  18.385  14.891
31795W        W 3411  34.396  11.214  12.330
31796W        W 3412   4.319  33.979  10.664
31797W        W 3413  28.140  17.733  12.018
31798W        W 3414  26.535  10.554   3.335
31799W        W 3415  26.106  38.034  13.170
31800W        W 3416   6.428  36.350   3.690
31801W        W 3417  12.922   5.969   5.004
31802W        W 3418  38.732  14.598   4.329
31803W        W 3419   0.506   5.227   0.176
31804W        W 3420  33.647  13.168  14.858
31805W        W 3421  13.718  22.778  13.830
31806W        W 3422  35.739  29.475   1.451
31807W        W 3423  24.101   4.659   1.385
31808W        W 3424   0.651  20.011  11.591
31809W        W 3425  11.908  33.803  12.011
31810W        W 3426  27.656  36.356  13.769
31811W        W 3427  11.383  42.398  14.462
31812W        W 3428  30.414  14.933   4.696
31813W        W 3429  29.526  30.525  12.111
31814W        W 3430  28.195  33.062   9.938
31815W        W 3431  33.150   9.609  11.596
31816W        W 3432  21.194  42.751  13.997
31817W        W 3433   2.473  39.381   0.842
31818W        W 3434  44.811   5.313  11.932
31819W        W 3435  15.313   9.388   2.823
31820W        W 3436   4.891   3.273   4.639
31821W        W 3437   9.300  16.833   0.403
31822W        W 3438  23.989  16.168  13.361
31823W        W 3439  38.128   6.769   0.289
31824W        W 3440  16.557   3.456   2.090
31825W        W 3441   9.369   8.713   0.887
31826W        W 3442  16.282  42.495   0.841
31827W        W 3443  34.162  12.070   3.694
31828W        W 3444  21.208   3.264   0.214
31829W        W 3445   8.965  43.117   2.170
31830W        W 3446  24.489  23.820  11.954
31831W        W 3447   8.673   0.490  14.350
31832W        W 3448  44.012  10.867   2.771
31833W        W 3449   2.251  33.568  12.606
31834W        W 3450  38.208  27.566  11.597
31835W        W 3451  37.295  29.180   1.745
31836W        W 3452  26.490  15.799  14.791
31837W        W 3453  35.935  31.907   1.935
31838W        W 3454   0.494  13.794   1.247
31839W        W 3455  29.730   1.039  11.547
31840W        W 3456  22.681  26.147   0.358
31841W        W 3457   4.804  14.844   3.613
31842W        W 3458   1.764  18.063   1.308
31843W        W 3459  10.818  44.733  12.720
31844W        W 3460  11.075   4.704   4.026
31845W        W 3461  25.519  44.410   2.806
31846W        W 3462  16.026   7.855   0.751
31847W        W 3463  10.657  34.357  10.952
31848W        W 3464  12.581   0.609  13.124
31849W        W 3465  23.481  11.341  10.825
31850W        W 3466  41.617  23.783  11.052
31851W        W 3467  24.849  20.250  10.742
31852W        W 3468  41.575  18.207  14.403
31853W        W 3469  22.978   8.130   3.296
31854W        W 3470  30.670  35.910   4.012
31855W        W 3471  40.854  42.847   2.797
31856W        W 3472   5.164   4.858  12.835
31857W        W 3473  15.562  40.524  11.098
31858W        W 3474  39.698  44.887  10.700
31859W        W 3475  19.835  42.333   5.071
31860W        W 3476   5.532  35.155  11.064
31861W        W 3477  30.018  14.347  12.353
31862W        W 3478   3.608  36.246  12.049
31863W        W 3479   1.404  16.629  14.004
31864W        W 3480  30.659  10.358  14.745
31865W        W 3481  42.250  24.384   3.249
31866W        W 3482  37.830  12.810  12.511
31867W        W 3483  31.847  32.484   3.163
31868W        W 3484  31.875  31.055   0.773
31869W        W 3485   8.203  21.615   2.863
31870W        W 3486  27.698  43.881  10.833
31871W        W 3487  35.416  20.551   3.682
31872W        W 3488  38.829  40.517   2.357
31873W        W 3489  10.773  28.709   2.185
31874W        W 3490   3.058   2.984  10.852
31875W        W 3491  44.414   5.871   1.282
31876W        W 3492   8.652  32.527   2.495
31877W        W 3493  27.541   1.282   1.374
31878W        W 3494   8.113  33.782   4.624
31879W        W 3495  20.798  15.100   0.761
31880W        W 3496   2.203  41.220   2.631
31881W        W 3497   2.221  24.251   5.144
31882W        W 3498  43.137  34.864   2.270
31883W        W 3499  10.869  31.131   0.570
31884W        W 3500  23.985  25.208   3.290
31885W        W 3501   6.297  14.146   4.713
31886W        W 3502   1.053  15.768  13.924
31887W        W 3503  42.288  14.051   1.418
31888W        W 3504  30.571  44.747   1.287
31889W        W 3505  14.847  19.220  13.848
31890W        W 3506  19.525   6.259  13.250
31891W        W 3507  26.069  24.632  11.646
31892W        W 3508  23.524   9.300  11.552
31893W        W 3509  34.886  28.235   1.417
31894W        W 3510   3.252   3.495   0.905
31895W        W 3511  15.280  37.529   2.674
31896W        W 3512  22.600  20.950   4.118
31897W        W 3513  31.662  11.175   3.262
31898W        W 3514  23.961  12.711   4.516
31899W        W 3515  20.012  17.637  12.666
31900W        W 3516  31.270   1.929  11.807
31901W        W 3517  29.051  20.104   0.825
31902W        W 3518  24.952   4.396   0.797
31903W        W 3519   0.976  16.111  13.522
31904W        W 3520  37.745  41.506   1.439
31905W        W 3521   1.039  27.410  12.871
31906W        W 3522  41.403  33.183  12.751
31907W        W 3523   0.724  28.423  14.688
31908W        W 3524  11.623   0.155   2.372
31909W        W 3525  39.539  34.983  14.423
31910W        W 3526  22.135  41.367   3.146
31911W        W 3527  32.743   7.881  14.198
31912W        W 3528  26.536  38.213  11.166
31913W        W 3529  23.749   0.377   0.043
31914W        W 3530  36.790  24.812  10.928
31915W        W 3531  29.513  15.143   4.159
31916W        W 3532  10.642  11.152  10.982
31917W        W 3533  30.467   5.788   4.802
31918W        W 3534   2.023  11.569  14.142
31919W        W 3535  33.009   2.910   4.639
31920W        W 3536   0.664   5.003   0.778
31921W        W 3537   5.681  35.493   4.954
31922W        W 3538  39.046   8.718   2.360
31923W        W 3539  23.613  20.008   4.931
31924W        W 3540   6.091   7.889  11.983
31925W        W 3541   6.683  37.455   4.364
31926W        W 3542  22.099  44.026  12.951
31927W        W 3543  32.133  13.714   2.160
31928W        W 3544  12.164  10.083  11.636
31929W        W 3545  36.882  11.158   3.165
31930W        W 3546   0.431   6.900  13.182
31931W        W 3547  25.173  39.654  10.984
31932W        W 3548  43.034  21.229   3.150
31933W        W 3549   1.757  44.445  12.521
31934W        W 3550  26.300  12.762  12.447
31935W        W 3551   6.649   5.816   1.423
31936W        W 3552  42.844  38.818   2.929
31937W        W 3553  24.085   5.058   3.940
31938W        W 3554  32.995  17.271   3.697
31939W        W 3555  31.300  22.867  13.880
31940W        W 3556  21.937  23.012   0.994
31941W        W 3557  24.348  13.612  13.795
31942W        W 3558  27.366   3.874  14.294
31943W        W 3559  35.794  33.003   0.773
31944W        W 3560  44.333  32.216   2.933
31945W        W 3561  42.824  17.291  14.279
31946W        W 3562   4.267  21.609  11.966
31947W        W 3563   4.803   9.191   0.706
31948W        W 3564  13.758  39.395   0.200
31949W        W 3565  32.695  15.774  14.808
31950W        W 3566   0.841  26.337   2.703
31951W        W 3567  36.171  30.091  11.575
31952W        W 3568  15.781   1.398  10.678
31953W        W 3569  24.710  17.731   0.743
31954W        W 3570   7.100   5.781  11.585
31955W        W 3571  26.136  30.281   4.323
31956W        W 3572   7.869  23.882   2.738
31957W        W 3573  16.033  27.235   1.820
31958W        W 3574  39.450  16.159   0.328
31959W        W 3575  28.878  12.650  14.413
31960W        W 3576  24.455   4.411   0.911
31961W        W 3577  23.566  29.174   3.086
31962W        W 3578  14.963   6.696   5.040
31963W        W 3579   3.639  42.973  12.589
31964W        W 3580  34.535  28.575  12.445
31965W        W 3581  13.287  14.426   0.765
31966W        W 3582  42.018  26.338  11.585
31967W        W 3583  40.325  27.606   1.367
31968W        W 3584  17.589  41.522  12.066
31969W        W 3585  28.970  29.624  11.123
31970W        W 3586  35.874  30.678   0.677
31971W        W 3587  34.820   7.185  12.038
31972W        W 3588  24.351  17.122  13.462
31973W        W 3589  32.673  25.661   2.715
31974W        W 3590  11.209  16.832   4.596
31975W        W 3591  31.421   0.454  11.924
31976W        W 3592  31.867  23.943   1.903
31977W        W 3593  38.270  33.452  10.360
31978W        W 3594  34.130  28.238   4.846
31979W        W 3595  44.733  42.776   4.191
31980W        W 3596  42.264  22.324   1.409
31981W        W 3597   6.232  34.637   0.666
31982W        W 3598  36.414  14.601   4.047
31983W        W 3599   2.098  37.486   0.250
31984W        W 3600  25.189  38.152  11.526
31985W        W 3601  41.231  37.427   0.496
31986W        W 3602   6.625  40.830  12.185
31987W        W 3603   5.634  39.316  13.683
31988W        W 3604  17.681  37.928  11.955
31989W        W 3605   4.313  15.984   3.132
31990W        W 3606  42.479  39.648   0.176
31991W        W 3607  42.740  29.957  14.766
31992W        W 3608  20.571  33.757  14.964
31993W        W 3609  42.087  43.292  12.404
31994W        W 3610   4.880  36.294   2.660
31995W        W 3611  35.007  39.562   3.363
31996W        W 3612  24.298  10.606   2.652
31997W        W 3613   9.362  41.510   2.838
31998W        W 3614  36.095  30.855   1.528
31999W        W 3615  26.218  40.721   1.238
32000W        W 3616   6.354  37.015  13.402
32001W        W 3617  38.562  13.106   0.841
32002W        W 3618   8.408   1.994  13.908
32003W        W 3619  28.123  26.198  11.922
32004W        W 3620  22.332   1.330  13.540
32005W        W 3621  20.600  20.648   0.268
32006W        W 3622  33.188  20.963  10.735
32007W        W 3623  36.539  14.797  12.873
32008W        W 3624  26.829  12.724  13.047
32009W        W 3625  25.589  40.579  10.254
32010W        W 3626  16.975  33.591  11.450
32011W        W 3627  18.781  38.991   1.671
32012W        W 3628  13.109  31.416   2.801
32013W        W 3629   2.197  16.302  10.500
32014W        W 3630  23.476  39.938   0.349
32015W        W 3631   3.375   2.425   1.217
32016W        W 3632  32.411  14.366  11.552
32017W        W 3633  13.499  12.797   2.167
32018W        W 3634  21.533  13.741   0.293
32019W        W 3635  43.616  27.143  14.846
32020W        W 3636  10.349  14.879   5.121
32021W        W 3637  30.445  44.468   4.539
32022W        W 3638  12.906  28.506   0.429
32023W        W 3639  31.050  22.803  10.600
32024W        W 3640  22.680  13.291  13.533
32025W        W 3641  37.361  11.401   2.254
32026W        W 3642  23.780  21.952   4.314
32027W        W 3643  13.334  21.411  11.421
32028W        W 3644  14.442  38.948   2.836
32029W        W 3645  31.160  35.029   2.113
32030W        W 3646   0.242  38.377  13.415
32031W        W 3647  30.044  13.268   1.927
32032W        W 3648  35.100  33.161  12.749
32033W        W 3649  17.494  17.917  10.484
32034W        W 3650   0.399  34.534  10.779
32035W        W 3651  17.746  32.613   1.711
32036W        W 3652  23.305  30.944  10.742
32037W        W 3653  28.373   2.935  14.517
32038W        W 3654  36.343  12.803  10.303
32039W        W 3655  17.750  34.469   2.945
32040W        W 3656  42.949   4.421   3.161
32041W        W 3657  17.644  13.066  12.648
32042W        W 3658  27.072  35.927  13.477
32043W        W 3659  11.397  30.445   0.795
32044W        W 3660  32.202   5.181  12.362
32045W        W 3661  21.028  12.141  13.072
32046W        W 3662  18.729  38.117  14.334
32047W        W 3663   5.650  40.825  14.382
32048W        W 3664  39.823  38.753   0.835
32049W        W 3665   9.779  21.111   4.086
32050W        W 3666   8.743  26.081  13.457
32051W        W 3667  25.518  26.884   0.896
32052W        W 3668  24.622  11.201   0.859
32053W        W 3669  21.300  43.621   1.279
32054W        W 3670  43.864  21.243   4.695
32055W        W 3671  39.156  34.103  10.750
32056W        W 3672  31.079  20.141  11.873
32057W        W 3673   1.990   7.246   2.801
32058W        W 3674  38.729  21.197   1.725
32059W        W 3675  39.301  24.846   4.206
32060W        W 3676  40.818  41.794  11.995
32061W        W 3677   2.762  12.961  13.777
32062W        W 3678  31.502   8.175  11.547
32063W        W 3679  22.193   2.507  11.513
32064W        W 3680  40.373  37.454   4.504
32065W        W 3681  28.377  27.999   4.420
32066W        W 3682  21.260  31.582   0.931
32067W        W 3683   2.660  15.600  14.996
32068W        W 3684  21.083  41.415  13.762
32069W        W 3685  34.910   5.450  12.538
32070W        W 3686  37.216   0.220   4.486
32071W        W 3687   4.008  26.338   3.766
32072W        W 3688   9.298  18.294  14.313
32073W        W 3689   0.738  44.767   3.129
32074W        W 3690   9.802  10.826  11.228
32075W        W 3691   9.946   6.649   3.700
32076W        W 3692  21.564  41.445  14.008
32077W        W 3693  34.149  12.398   4.111
32078W        W 3694  19.222  33.872   0.437
32079W        W 3695  17.537  17.569  12.882
32080W        W 3696  10.815  27.567   2.892
32081W        W 3697  39.446  18.071  10.713
32082W        W 3698   5.475  21.672   0.210
32083W        W 3699  35.186   1.420  13.500
32084W        W 3700   4.059  44.095  11.537
32085W        W 3701  20.669  21.129   0.423
32086W        W 3702  36.509  16.989  10.806
32087W        W 3703  22.293  25.720  13.853
32088W        W 3704  13.396  37.450   0.780
32089W        W 3705  20.886  31.364  12.049
32090W        W 3706  22.098  36.880   1.797
32091W        W 3707   0.032  32.655  12.589
32092W        W 3708  11.840  12.392   3.605
32093W        W 3709   1.824  37.997   1.007
32094W        W 3710   2.674  38.896   2.842
32095W        W 3711   1.581  11.873   0.661
32096W        W 3712  23.235  14.291   1.308
32097W        W 3713  20.304   5.180   1.452
32098W        W 3714  39.258  25.546   3.808
32099W        W 3715  16.978  10.608   3.278
32100W        W 3716  39.960  44.653  13.485
32101W        W 3717   0.950  14.751   0.441
32102W        W 3718  36.785  31.031   0.263
32103W        W 3719  20.260  16.349   4.770
32104W        W 3720   0.759  21.728  11.124
32105W        W 3721   6.337  27.029  13.309
32106W        W 3722  40.925  19.666   4.123
32107W        W 3723  31.068  40.934   2.498
32108W        W 3724  38.528  21.534   3.158
32109W        W 3725  24.338  27.903  14.311
32110W        W 3726  23.667   9.319  10.637
32111W        W 3727  27.671  15.963   1.396
32112W        W 3728  33.541  24.604   4.950
32113W        W 3729  19.778  37.473  10.741
32114W        W 3730  16.158  20.187  10.273
32115W        W 3731   1.070  17.811  14.587
32116W        W 3732  31.304  20.545  11.664
32117W        W 3733   2.289   6.156  12.982
32118W        W 3734  41.645  30.886   4.726
32119W        W 3735  23.041  23.104   4.583
32120W        W 3736   5.165  30.955   1.672
32121W        W 3737  19.560  18.154   1.309
32122W        W 3738  41.932   4.319   3.041
32123W        W 3739   4.452   1.170   1.401
32124W        W 3740  24.809  18.587   0.503
32125W        W 3741  27.716  11.724   0.811
32126W        W 3742   1.366  42.759   1.868
32127W        W 3743  43.397  38.013   3.713
32128W        W 3744  10.752  41.387   4.873
32129W        W 3745  13.610   9.254  11.967
32130W        W 3746  24.490  18.680   0.047
32131W        W 3747   0.179   6.129   0.019
32132W        W 3748  11.113   1.880   3.399
32133W        W 3749  26.462   2.650   3.769
32134W        W 3750  18.186  26.619  10.705
32135W        W 3751  34.672  44.649  11.001
32136W        W 3752   2.306   4.313  10.714
32137W        W 3753  26.186   2.835  10.680
32138W        W 3754  17.268  29.989   9.878
32139W        W 3755  24.322   0.340   2.760
32140W        W 3756  10.786  19.714  14.845
32141W        W 3757   6.760  39.520   2.117
32142W        W 3758  18.719  27.981   2.163
32143W        W 3759  39.128  13.870   4.067
32144W        W 3760  17.534  42.946  11.985
32145W        W 3761  33.278  12.378  14.378
32146W        W 3762   6.734  12.281  11.584
32147W        W 3763  23.670   2.780  13.084
32148W        W 3764  26.218  14.152   1.210
32149W        W 3765  41.038   2.928  14.218
32150W        W 3766  28.464  21.714   3.155
32151W        W 3767  38.516   5.743  10.944
32152W        W 3768   9.621  28.416   2.133
32153W        W 3769  34.035  33.520   1.407
32154W        W 3770  18.760  34.923  14.939
32155W        W 3771  22.180  33.454  12.602
32156W        W 3772  20.643  19.267  11.967
32157W        W 3773  18.795  41.463   0.849
32158W        W 3774  36.032  12.163   2.962
32159W        W 3775   5.084  38.449  12.392
32160W        W 3776  44.906  29.726  11.241
32161W        W 3777  19.065  42.929  13.756
32162W        W 3778  33.088  15.365  11.613
32163W        W 3779  10.630   8.871  13.397
32164W        W 3780   1.974  23.198  13.128
32165W        W 3781  16.635  33.334   0.449
32166W        W 3782  15.191  39.451  13.425
32167W        W 3783  14.286   5.321   2.762
32168W        W 3784   6.307  19.320  13.391
32169W        W 3785  30.402  37.428   0.437
32170W        W 3786  19.235  36.851   4.081
32171W        W 3787  43.796  22.391  12.536
32172W        W 3788  11.895  23.717  13.936
32173W        W 3789  25.156  37.310  11.947
32174W        W 3790  14.850  25.443  14.722
32175W        W 3791  29.562  32.156  13.448
32176W        W 3792  33.873   7.449  11.975
32177W        W 3793   8.368  26.172   2.521
32178W        W 3794   8.737  42.821  13.983
32179W        W 3795   5.312  30.607  14.949
32180W        W 3796   5.841  44.905   1.012
32181W        W 3797  35.462  26.882   2.816
32182W        W 3798  23.222   1.400  12.990
32183W        W 3799   5.841   4.324  11.901
32184W        W 3800  26.879  19.784   0.251
32185W        W 3801  38.493  29.969  10.698
32186W        W 3802   7.664  14.365  13.736
32187W        W 3803  21.768  38.165   1.785
32188W        W 3804  22.468  22.925  11.467
32189W        W 3805  10.649  32.070  11.330
32190W        W 3806  40.845  35.919  11.999
32191W        W 3807  19.771  26.055   1.632
32192W        W 3808   0.630  25.122  12.353
32193W        W 3809  33.211  26.770  11.037
32194W        W 3810  14.725   8.779   4.465
32195W        W 3811  43.105  28.428  11.335
32196W        W 3812  30.005   8.231   3.081
32197W        W 3813  23.549  22.486   2.746
32198W        W 3814  20.164  34.395   1.990
32199W        W 3815  19.195  38.284   0.685
32200W        W 3816  17.340  43.517  13.471
32201W        W 3817   8.226  31.309   4.760
32202W        W 3818  33.968  38.322   1.813
32203W        W 3819  14.800  43.339   2.063
32204W        W 3820  15.756  41.945   0.272
32205W        W 3821  44.463  17.119   0.788
32206W        W 3822  29.931  35.346  11.619
32207W        W 3823  11.541  17.449   3.797
32208W        W 3824  31.212  34.134  13.045
32209W        W 3825  31.865  20.587   4.777
32210W        W 3826   0.816  44.612   4.570
32211W        W 3827  28.906  22.609   0.937
32212W        W 3828   6.198  17.155  11.074
32213W        W 3829  12.611  26.122  14.905
32214W        W 3830   5.458  19.726  11.160
32215W        W 3831  21.492  15.864   0.272
32216W        W 3832  41.250  10.306   4.499
32217W        W 3833   3.046  18.651   3.297
32218W        W 3834  28.516  22.793   2.389
32219W        W 3835  39.147  13.952  13.354
32220W        W 3836  39.589   9.695  12.505
32221W        W 3837   6.584  11.293   3.405
32222W        W 3838   2.797  15.230   2.178
32223W        W 3839  11.257   2.257  11.019
32224W        W 3840   5.355  19.152   4.368
32225W        W 3841  21.797   5.669   3.287
32226W        W 3842  38.190  16.998   1.375
32227W        W 3843  24.496  35.693   3.286
32228W        W 3844  29.436   5.682  12.974
32229W        W 3845  43.787  11.369  10.908
32230W        W 3846  26.443   8.269  11.600
32231W        W 3847   7.284   7.384  14.467
32232W        W 3848   8.563  29.089   4.887
32233W        W 3849  40.617  22.366  11.950
32234W        W 3850   4.050  11.871  13.863
32235W        W 3851  10.219  24.184  10.486
32236W        W 3852   0.619  32.389  14.249
32237W        W 3853   7.716  12.534   0.439
32238W        W 3854  13.866  39.869   2.328
32239W        W 3855   1.495  16.523   4.200
32240W        W 3856  31.662  23.686   0.222
32241W        W 3857  16.598  41.698   4.482
32242W        W 3858  23.631  37.064  11.581
32243W        W 3859  41.408   2.389   4.661
32244W        W 3860  37.540  22.220  12.004
32245W        W 3861   0.781  20.995   5.001
32246W        W 3862   9.632  43.267  11.642
32247W        W 3863  32.467  31.640  13.594
32248W        W 3864  41.799  30.062  14.041
32249W        W 3865  38.065  10.214   1.374
32250W        W 3866   6.885  10.713   0.307
32251W        W 3867  27.166  15.580  11.786
32252W        W 3868   1.423  15.504   0.951
32253W        W 3869  24.297  12.321  11.995
32254W        W 3870  26.269   9.764   0.990
32255W        W 3871   0.219  31.965  12.951
32256W        W 3872  39.267  25.504  11.617
32257W        W 3873  27.040  18.017  11.373
32258W        W 3874  34.773  17.520  12.836
32259W        W 3875  28.882  29.732   3.345
32260W        W 3876  24.730  15.236  13.425
32261W        W 3877  27.418   9.617  12.147
32262W        W 3878  21.807   5.503   1.441
32263W        W 3879  31.684  27.449   2.442
32264W        W 3880  39.775  12.815  14.013
32265W        W 3881  14.762  40.990   4.294
32266W        W 3882  21.057  15.780  12.238
32267W        W 3883  20.370   3.435   0.802
32268W        W 3884  24.134   2.310   4.047
32269W        W 3885  27.524  40.562  11.920
32270W        W 3886   2.686  38.575  14.746
32271W        W 3887  32.668   2.297  13.842
32272W        W 3888  37.921  39.395  14.917
32273W        W 3889  42.398  22.522   0.557
32274W        W 3890  33.045   0.760  13.266
32275W        W 3891  21.649  12.042   1.726
32276W        W 3892  32.716  11.556  11.187
32277W        W 3893  26.936   8.136   3.698
32278W        W 3894  14.591  15.131  13.310
32279W        W 3895  39.099  38.411  11.239
32280W        W 3896  31.027   9.235   3.677
32281W        W 3897  33.465  37.864  10.705
32282W        W 3898  24.617  43.295  13.849
32283W        W 3899  16.132  12.669  11.097
32284W        W 3900  19.159  29.562   3.135
32285W        W 3901  28.238  31.422  12.986
32286W        W 3902  39.497   6.213  14.295
32287W        W 3903  14.835  36.596  10.730
32288W        W 3904   4.481   5.284   0.848
32289W        W 3905  32.709   4.184  11.058
32290W        W 3906  38.058  23.120  13.974
32291W        W 3907   1.690  26.035   0.423
32292W        W 3908  16.849   6.746  14.699
32293W        W 3909  38.075  24.971  10.427
32294W        W 3910  21.364   9.460  14.811
32295W        W 3911  30.022   5.642   4.582
32296W        W 3912  32.591  32.949  10.725
32297W        W 3913  29.969  31.040   3.818
32298W        W 3914  27.891  26.104   0.797
32299W        W 3915  21.951   0.076  14.365
32300W        W 3916  43.283  43.240  14.805
32301W        W 3917   0.919  35.565   1.372
32302W        W 3918   5.808  36.898   2.078
32303W        W 3919  15.910  10.786  13.116
32304W        W 3920  40.832   0.661   4.594
32305W        W 3921  43.934  14.098   0.195
32306W        W 3922  43.929   4.457   4.777
32307W        W 3923  38.574  15.603  13.099
32308W        W 3924   2.721  38.332  13.785
32309W        W 3925  16.655   8.170  13.997
32310W        W 3926  35.319  19.540   2.386
32311W        W 3927  37.171  23.072  14.837
32312W        W 3928  29.432   8.440  11.366
32313W        W 3929  17.348  12.092  13.577
32314W        W 3930   5.308   5.163   1.339
32315W        W 3931   6.061  10.319   2.173
32316W        W 3932   3.681  33.776  14.824
32317W        W 3933  30.446  38.215  13.769
32318W        W 3934  43.291  33.496  10.915
32319W        W 3935  30.231   0.403  14.460
32320W        W 3936  12.958  15.351  14.353
32321W        W 3937  35.481  42.799   0.336
32322W        W 3938  13.180  17.176  14.710
32323W        W 3939  36.651  28.964  12.284
32324W        W 3940  13.772  43.182  13.839
32325W        W 3941  34.874  41.869  11.182
32326W        W 3942  19.769  31.896   1.368
32327W        W 3943  27.355  31.085   1.628
32328W        W 3944  16.695   9.156   0.912
32329W        W 3945   5.764  27.474   0.901
32330W        W 3946  39.074  18.288   3.436
32331W        W 3947   7.734  34.250  10.804
32332W        W 3948   0.152   7.494  12.680
32333W        W 3949  19.053  34.423  14.468
32334W        W 3950  38.151  11.521   3.581
32335W        W 3951  15.834  32.199  14.480
32336W        W 3952  41.996  29.887  13.008
32337W        W 3953  34.705  22.070   2.367
32338W        W 3954  26.983  11.440  13.028
32339W        W 3955  31.105   1.942   5.103
32340W        W 3956  31.971  28.637  11.015
32341W        W 3957  10.783  39.027  10.876
32342W        W 3958   4.740  24.063  10.537
32343W        W 3959   4.191  33.836  12.076
32344W        W 3960  14.085  26.010  11.608
32345W        W 3961  26.031  32.697   3.594
32346W        W 3962  24.389  25.941  11.619
32347W        W 3963  12.180  42.932  13.430
32348W        W 3964  41.355  19.574   1.369
32349W        W 3965   5.643  30.993  12.427
32350W        W 3966  10.318  35.487  11.497
32351W        W 3967  35.891  15.057   3.265
32352W        W 3968  19.589  43.301  12.096
32353W        W 3969  15.611   9.430  14.301
32354W        W 3970   6.745  28.684   3.286
32355W        W 3971  44.319  21.479  11.233
32356W        W 3972   7.778  15.557   1.326
32357W        W 3973   1.609  24.807  10.163
32358W        W 3974   5.711  32.032  14.447
32359W        W 3975   1.870  17.610   1.003
32360W        W 3976  43.611  29.298  11.677
32361W        W 3977   4.928  33.686  12.594
32362W        W 3978  25.126  39.093   3.258
32363W        W 3979  42.713  30.687   3.599
32364W        W 3980  38.853  14.324  10.736
32365W        W 3981  17.577  40.022  12.513
32366W        W 3982  18.065  14.245  10.694
32367W        W 3983   7.895  18.988   3.282
32368W        W 3984   5.471  30.353   0.849
32369W        W 3985  26.610  16.087   1.410
32370W        W 3986  40.012  25.674   2.717
32371W        W 3987  31.525   2.470  14.892
32372W        W 3988   7.582  33.510  11.161
32373W        W 3989  13.619  17.272  12.159
32374W        W 3990  20.602  35.586  10.746
32375W        W 3991  18.342   2.398  13.541
32376W        W 3992   4.944  43.374  11.015
32377W        W 3993  40.622  27.208   4.085
32378W        W 3994   0.376  27.315   1.346
32379W        W 3995  14.327   4.849   0.363
32380W        W 3996  17.998  32.460   2.147
32381W        W 3997   7.919   9.972  14.331
32382W        W 3998   1.843  31.486   2.861
32383W        W 3999  27.485  11.326  12.906
32384W        W 4000   8.193  31.807   1.184
32385W        W 4001  14.394  36.809   3.289
32386W        W 4002  29.114  32.063   1.217
32387W        W 4003  40.181   4.461  14.374
32388W        W 4004   1.380  27.730   0.251
32389W        W 4005   8.378   1.274   4.522
32390W        W 4006   5.744  20.847  12.896
32391W        W 4007  43.378   5.341  14.046
32392W        W 4008  34.666  12.237   4.659
32393W        W 4009  16.721  11.593   1.707
32394W        W 4010  10.938  17.114   0.092
32395W        W 4011   0.978  10.799   0.011
32396W        W 4012  26.099  11.110   4.788
32397W        W 4013  30.443   4.648  14.391
32398W        W 4014  31.014   3.236  11.894
32399W        W 4015   2.444  21.700   2.119
32400W        W 4016  18.648  39.715   2.404
32401W        W 4017  25.642  24.660   1.671
32402W        W 4018  15.239  18.951  14.029
32403W        W 4019  38.414  13.289  11.980
32404W        W 4020  44.896  43.859  12.347
32405W        W 4021  42.950  39.599  14.477
32406W        W 4022   6.150  30.528   2.376
32407W        W 4023  15.245  22.524  13.964
32408W        W 4024  17.817  12.278  11.162
32409W        W 4025  33.868   7.469   0.183
32410W        W 4026  31.106  25.710   0.759
32411W        W 4027  25.962  27.057  10.641
32412W        W 4028  35.444  34.102   2.341
32413W        W 4029  40.979  42.090   4.556
32414W        W 4030   8.717   1.966   0.198
32415W        W 4031  26.860  39.015   2.347
32416W        W 4032  22.796  28.555  12.030
32417W        W 4033  20.059  43.341  13.045
32418W        W 4034  36.017   7.148  14.959
32419W        W 4035  35.819  26.643  10.682
32420W        W 4036  33.085   5.427   3.209
32421W        W 4037  25.744  19.613   1.166
32422W        W 4038  17.329  19.265  12.983
32423W        W 4039  28.589  21.574   1.806
32424W        W 4040  38.949   8.254  12.130
32425W        W 4041  20.650  38.048  14.900
32426W        W 4042  17.479   6.427  11.307
32427W        W 4043  18.756  32.448  12.471
32428W        W 4044   7.822  22.517   1.393
32429W        W 4045  10.165  23.759  12.686
32430W        W 4046  27.917  23.622  10.618
32431W        W 4047  39.256   0.050   0.570
32432W        W 4048  30.008   3.927  10.696
32433W        W 4049   8.795  42.019  10.725
32434W        W 4050  44.937  19.170  13.817
32435W        W 4051   4.435   3.764  13.986
32436W        W 4052  40.029  14.351  14.466
32437W        W 4053  30.080   1.551   3.739
32438W        W 4054  40.538   0.721   4.175
32439W        W 4055  16.228  33.917  10.874
32440W        W 4056  22.644  37.635   9.897
32441W        W 4057  32.633  40.473   1.874
32442W        W 4058  32.130  20.809  13.483
32443W        W 4059   0.899  17.764   0.076
32444W        W 4060   7.942  41.566  13.140
32445W        W 4061  31.553  35.117  11.123
32446W        W 4062  43.194  42.971   0.287
32447W        W 4063  21.532  20.220  14.040
32448W        W 4064  37.172   6.177   0.356
32449W        W 4065   7.962  23.108   0.945
32450W        W 4066  30.881  12.131   2.162
32451W        W 4067  21.317  39.040  11.509
32452W        W 4068  25.183  14.778   2.732
32453W        W 4069  12.425  10.268   0.344
32454W        W 4070  37.024  28.012   0.800
32455W        W 4071  12.581  18.159  13.789
32456W        W 4072  25.903  27.469   2.670
32457W        W 4073  36.336  15.499  13.944
32458W        W 4074  30.153  31.451  10.715
32459W        W 4075  43.514  36.318  14.061
32460W        W 4076  42.609  35.976   3.246
32461W        W 4077  23.102  16.507   1.289
32462W        W 4078  39.770  32.976   4.191
32463W        W 4079   0.885  20.047   1.817
32464W        W 4080  44.074  20.057   2.535
32465W        W 4081  44.758  43.359   0.983
32466W        W 4082   8.950   9.292   2.325
32467W        W 4083  33.372   1.412   2.304
32468W        W 4084  20.507  20.808   2.743
32469W        W 4085  20.740  36.884   2.732
32470W        W 4086  37.034  14.626  12.100
32471W        W 4087  23.959  37.568   0.376
32472W        W 4088  35.535  23.237   1.376
32473W        W 4089   1.661  17.166   1.701
32474W        W 4090  21.496  32.295  11.190
32475W        W 4091  27.621  36.785  11.103
32476W        W 4092  34.408   8.781  13.053
32477W        W 4093  39.789  18.339  14.390
32478W        W 4094  28.942  34.931  12.943
32479W        W 4095  29.735  44.431   0.841
32480W        W 4096  13.426  35.915   3.764
32481W        W 4097   0.043   3.352   1.824
32482W        W 4098   0.298  35.803  13.028
32483W        W 4099  38.863  31.438   2.927
32484W        W 4100  20.998  13.129  11.568
32485W        W 4101  39.040  18.436   4.447
32486W        W 4102  20.299   7.866  11.992
32487W        W 4103  20.193  36.901   2.682
32488W        W 4104   1.357  20.162  13.311
32489W        W 4105  10.350  13.744  10.974
32490W        W 4106  32.416  27.469   9.847
32491W        W 4107  11.796   6.440  14.246
32492W        W 4108  38.324  40.962   0.360
32493W        W 4109  31.086  15.194   0.696
32494W        W 4110  37.106   9.667   2.372
32495W        W 4111  25.233  32.901   2.244
32496W        W 4112  30.989  23.213   1.298
32497W        W 4113  41.099  39.792   3.118
32498W        W 4114  42.920   8.900   2.765
32499W        W 4115   7.270  11.779   3.483
32500W        W 4116  16.739   4.400   2.379
32501W        W 4117  22.662  42.976  14.211
32502W        W 4118  19.785  43.847  10.856
32503W        W 4119  12.916  38.991  14.431
32504W        W 4120  32.589  34.792  10.592
32505W        W 4121   6.923  31.336   3.231
32506W        W 4122  38.372  16.937  13.764
32507W        W 4123  20.157   8.942   2.214
32508W        W 4124  11.639   8.697   3.186
32509W        W 4125  15.587  36.912   2.607
32510W        W 4126  40.805  26.081   2.869
32511W        W 4127  24.516  27.995  10.724
32512W        W 4128   3.227  42.576  11.442
32513W        W 4129  22.028   1.241   4.115
32514W        W 4130  15.353  25.699   2.244
32515W        W 4131  43.303   3.456   3.881
32516W        W 4132  41.909  40.508  13.630
32517W        W 4133  23.153  34.616  13.129
32518W        W 4134  31.972   3.538  12.953
32519W        W 4135   2.424  35.009  14.497
32520W        W 4136  40.990  41.899   1.113
32521W        W 4137  22.646  44.246   0.301
32522W        W 4138  40.426   0.292   2.320
32523W        W 4139  27.434  27.834  12.827
32524W        W 4140  14.704  34.864   4.115
32525W        W 4141  43.416  41.500   2.783
32526W        W 4142  27.995  27.130   3.162
32527W        W 4143  15.812  34.624   2.267
32528W        W 4144  17.105  12.092  10.930
32529W        W 4145  11.336  33.073  10.837
32530W        W 4146  31.532  40.801  11.559
32531W        W 4147  13.322   6.341  13.550
32532W        W 4148  25.802  42.970   2.786
32533W        W 4149   4.255  42.064  14.284
32534W        W 4150  33.661  12.285   0.353
32535W        W 4151  24.238  39.433  11.070
32536W        W 4152  39.421  18.273   1.224
32537W        W 4153  35.304  43.168   3.233
32538W        W 4154   8.203  26.825   3.126
32539W        W 4155  41.899   9.320   2.658
32540W        W 4156   1.971  36.322   2.762
32541W        W 4157  37.743  16.265  13.280
32542W        W 4158  10.801  13.786  10.704
32543W        W 4159  28.164  24.208  12.915
32544W        W 4160  32.678  33.509   2.768
32545W        W 4161   3.588   1.905  13.141
32546W        W 4162   5.723  43.773   0.256
32547W        W 4163  35.866   3.493  11.406
32548W        W 4164  44.730  18.725  13.036
32549W        W 4165  13.044  13.292   1.132
32550W        W 4166  27.305  39.907  12.992
32551W        W 4167  23.480   4.203  10.769
32552W        W 4168  32.592  11.557   4.138
32553W        W 4169   7.750  10.906  10.700
32554W        W 4170  41.692  44.450  14.481
32555W        W 4171   1.863  22.768   2.269
32556W        W 4172  22.823  28.175   0.942
32557W        W 4173  41.388  23.445   4.087
32558W        W 4174  27.032  33.379   3.360
32559W        W 4175  24.047  29.188   4.278
32560W        W 4176  20.274  32.187  13.042
32561W        W 4177   4.295  27.427  13.669
32562W        W 4178  40.936  38.242  12.026
32563W        W 4179  17.000  11.018   4.065
32564W        W 4180  17.789  25.485  13.287
32565W        W 4181  13.086  40.530  11.161
32566W        W 4182  10.571  18.217   1.427
32567W        W 4183  12.258  24.734  13.356
32568W        W 4184   1.446   6.904  13.000
32569W        W 4185  28.542   6.692   4.423
32570W        W 4186  22.038   9.107  11.539
32571W        W 4187  20.861  35.492  12.020
32572W        W 4188  40.772  18.673   2.659
32573W        W 4189  42.946  29.663  12.762
32574W        W 4190  36.655  10.213   1.265
32575W        W 4191  34.668  39.792   4.765
32576W        W 4192   7.915  14.129   2.635
32577W        W 4193  32.818  26.854  12.615
32578W        W 4194   9.314  23.145   2.208
32579W        W 4195  32.430  18.835  12.696
32580W        W 4196  38.549   7.783   3.634
32581W        W 4197  23.545  25.165   2.232
32582W        W 4198   0.395  22.302  10.412
32583W        W 4199   3.951  17.107  10.774
32584W        W 4200  19.291  16.551  12.548
32585W        W 4201   6.678  33.575   0.442
32586W        W 4202  44.801  25.558   1.727
32587W        W 4203   1.230  37.791   4.810
32588W        W 4204  43.995  40.256   0.999
32589W        W 4205  31.610  43.258  13.296
32590W        W 4206  39.552   8.829   3.621
32591W        W 4207  22.715  23.355  10.434
32592W        W 4208  37.302  14.887   0.099
32593W        W 4209  26.303  26.522   0.508
32594W        W 4210  34.432  35.311  10.259
32595W        W 4211  17.062  31.029   3.258
32596W        W 4212   1.376  18.036  14.940
32597W        W 4213  28.638   1.409  13.852
32598W        W 4214  39.576  26.596   3.785
32599W        W 4215  16.645  17.628   1.759
32600W        W 4216  22.493   0.035  14.130
32601W        W 4217  19.721  37.905  14.909
32602W        W 4218  22.518  17.209   0.844
32603W        W 4219   3.381  12.322   3.141
32604W        W 4220   4.200  44.359  10.476
32605W        W 4221  34.982  28.395   1.903
32606W        W 4222  30.443   8.447   4.173
32607W        W 4223  39.309   4.483  10.717
32608W        W 4224   0.547  31.365  14.410
32609W        W 4225   8.382  36.075  13.927
32610W        W 4226  25.695   1.456  11.440
32611W        W 4227   4.164  40.773  12.095
32612W        W 4228  17.991  26.746   0.501
32613W        W 4229  22.485  41.875   1.355
32614W        W 4230  11.206  16.683   1.451
32615W        W 4231  28.712  42.087   4.522
32616W        W 4232  25.263  17.745  12.515
32617W        W 4233  19.021  12.967  13.824
32618W        W 4234  17.255   2.739  14.765
32619W        W 4235  15.334  44.523  13.399
32620W        W 4236  38.443  38.543   0.649
32621W        W 4237  28.572   9.340  12.899
32622W        W 4238  23.067   7.146  13.494
32623W        W 4239  37.588   1.231  12.058
32624W        W 4240  33.118   7.165  14.027
32625W        W 4241  13.626   6.250   1.587
32626W        W 4242  17.384   6.742   1.403
32627W        W 4243  29.297  19.981   3.619
32628W        W 4244  16.283  21.242  10.648
32629W        W 4245  25.106  19.508  12.408
32630W        W 4246   6.045   7.348   4.890
32631W        W 4247  17.193  33.598   3.800
32632W        W 4248  16.241  25.445  12.576
32633W        W 4249   9.833  23.965   1.900
32634W        W 4250  10.181  30.579  14.476
32635W        W 4251  12.745  12.810  11.620
32636W        W 4252  26.573   3.232  10.575
32637W        W 4253  43.228  34.810   4.917
32638W        W 4254   9.751  24.307  14.900
32639W        W 4255  35.100  11.872   3.093
32640W        W 4256  10.789   0.990   1.187
32641W        W 4257  27.167  23.017   0.789
32642W        W 4258   3.965  11.585   4.080
32643W        W 4259  22.260  24.130  12.595
32644W        W 4260  40.249  20.106   2.779
32645W        W 4261  43.784   0.344   4.564
32646W        W 4262  32.032  38.881   4.829
32647W        W 4263  39.404  25.987  13.835
32648W        W 4264   3.484  17.816   3.826
32649W        W 4265  26.401   1.227   4.703
32650W        W 4266   4.896  32.189  12.603
32651W        W 4267   0.203  44.960   1.710
32652W        W 4268  39.474  13.695  14.372
32653W        W 4269  10.251  21.852   4.921
32654W        W 4270  33.476  15.155  13.972
32655W        W 4271   1.166  26.510  14.969
32656W        W 4272  12.664   6.720  10.097
32657W        W 4273  29.024  21.585   0.422
32658W        W 4274  42.797  27.209   2.108
32659W        W 4275  36.587  23.127   0.777
32660W        W 4276  26.731   5.451  12.385
32661W        W 4277  14.757  40.810   2.942
32662W        W 4278  17.655  21.058  14.944
32663W        W 4279  11.251  12.399  13.338
32664W        W 4280  31.332   6.855   4.591
32665W        W 4281  15.454  20.731  12.126
32666W        W 4282   0.198   7.755  12.193
32667W        W 4283  29.461  42.058  10.446
32668W        W 4284   6.018   5.301  10.948
32669W        W 4285  40.829  22.219   0.896
32670W        W 4286  24.517  10.810   1.222
32671W        W 4287  20.993  33.623  12.957
32672W        W 4288  40.476  11.692  12.815
32673W        W 4289  24.455   6.190  12.067
32674W        W 4290   6.471   9.400   1.285
32675W        W 4291   2.694  29.039  14.579
32676W        W 4292  30.488  12.893   2.655
32677W        W 4293   3.790  25.098  10.936
32678W        W 4294  41.090  23.017   2.176
32679W        W 4295   4.383   3.588   3.720
32680W        W 4296   8.171  43.274   3.248
32681W        W 4297   8.566  11.862  13.847
32682W        W 4298  33.403  33.415  10.385
32683W        W 4299  36.131  25.567  12.608
32684W        W 4300  40.832  44.052  10.387
32685W        W 4301  31.598   2.848   2.102
32686W        W 4302   8.303  41.818   3.608
32687W        W 4303  27.641   4.005  11.107
32688W        W 4304  39.862  33.977   3.370
32689W        W 4305  40.499   0.518  13.907
32690W        W 4306  22.120  35.292  11.556
32691W        W 4307  11.351  17.272   0.398
32692W        W 4308   4.287  22.534   1.866
32693W        W 4309  18.223  32.922   2.844
32694W        W 4310  20.740  29.385  11.162
32695W        W 4311  25.796  10.686   0.926
32696W        W 4312  31.338   5.598  14.872
32697W        W 4313  25.293  14.789   4.080
32698W        W 4314  18.232  23.681   4.637
32699W        W 4315  18.637  13.436  11.545
32700W        W 4316  35.024  21.585   4.186
32701W        W 4317  19.661  20.040   1.456
32702W        W 4318  20.322   5.452  14.894
32703W        W 4319  38.069  18.554  12.494
32704W        W 4320  28.661  13.800  11.133
32705W        W 4321  23.723   0.815  10.982
32706W        W 4322  22.330  10.714  14.752
32707W        W 4323  17.899  19.813   3.743
32708W        W 4324  12.575  42.812  11.552
32709W        W 4325  23.087   3.928   4.781
32710W        W 4326  39.500  10.615   2.253
32711W        W 4327  31.906  13.083   2.221
32712W        W 4328   2.354  37.855   4.806
32713W        W 4329  27.266  33.930   2.305
32714W        W 4330   1.212  22.010  10.589
32715W        W 4331  32.821  33.311  14.528
32716W        W 4332  42.037  22.465   1.926
32717W        W 4333   4.952  34.417  13.895
32718W        W 4334  39.611  22.600  11.444
32719W        W 4335  25.199  39.091   0.673
32720W        W 4336  32.152  31.086   2.143
32721W        W 4337  18.399  43.127   1.210
32722W        W 4338  16.301  10.066   3.346
32723W        W 4339  22.642  12.119  12.946
32724W        W 4340  11.151   8.782  13.428
32725W        W 4341  25.609  20.608   1.875
32726W        W 4342  38.857  41.002   0.341
32727W        W 4343  43.053  11.226   0.938
32728W        W 4344   8.487  12.801   3.325
32729W        W 4345  11.669  20.161  12.158
32730W        W 4346  28.215  18.354   0.795
32731W        W 4347  33.832   9.585   2.832
32732W        W 4348  10.242  16.246   3.483
32733W        W 4349  20.658  16.992   1.254
32734W        W 4350  32.151  15.766   4.505
32735W        W 4351   1.603  42.913   1.033
32736W        W 4352   8.148   6.621  11.441
32737W        W 4353  21.276  21.683  10.888
32738W        W 4354  30.953   4.188  13.079
32739W        W 4355  40.297  40.092  12.945
32740W        W 4356  23.679  27.673  13.924
32741W        W 4357  18.682   1.014   2.272
32742W        W 4358   5.734   6.221  12.330
32743W        W 4359   8.944  42.792   3.209
32744W        W 4360  11.314  35.008   0.461
32745W        W 4361  15.796  33.579   1.365
32746W        W 4362  42.837  27.740  13.973
32747W        W 4363  10.329  34.898  13.002
32748W        W 4364  43.914  27.178  11.674
32749W        W 4365  11.288  25.409  11.151
32750W        W 4366  34.847  29.612   3.352
32751W        W 4367  27.150  14.274  12.431
32752W        W 4368  29.195  36.747  12.223
32753W        W 4369  24.804  10.825  11.820
32754W        W 4370  38.514  33.110  13.022
32755W        W 4371  43.612   1.518  10.798
32756W        W 4372  13.351  17.477  13.805
32757W        W 4373  33.045  41.091  12.989
32758W        W 4374  32.001  12.686  11.172
32759W        W 4375  25.460  18.833  13.558
32760W        W 4376   6.761  36.730  13.313
32761W        W 4377  33.945   1.218  10.766
32762W        W 4378  40.252  17.466  14.319
32763W        W 4379  26.870  43.826   0.885
32764W        W 4380  16.687  26.063   0.372
32765W        W 4381  37.893   4.528   3.349
32766W        W 4382  26.388   3.769   2.692
32767W        W 4383  31.077  10.657  11.611
32768W        W 4384  26.992  20.616   4.700
32769W        W 4385  31.569  32.889  11.602
32770W        W 4386  17.345  14.074   0.789
32771W        W 4387  23.683  13.062   2.331
32772W        W 4388  37.921  38.718   4.749
32773W        W 4389  40.903  30.954   2.957
32774W        W 4390  17.961  43.361  11.616
32775W        W 4391   2.203  36.085  10.760
32776W        W 4392   1.674  33.637   1.201
32777W        W 4393  29.960  29.562   2.802
32778W        W 4394  25.762  14.244  14.379
32779W        W 4395  20.141  30.732  12.036
32780W        W 4396   7.235  39.255  10.989
32781W        W 4397  32.456  15.351   2.176
32782W        W 4398   9.989  16.847  14.373
32783W        W 4399  38.431  14.660   2.062
32784W        W 4400  36.792  21.243  14.826
32785W        W 4401  30.344  15.290  10.475
32786W        W 4402  41.059  42.888  11.706
32787W        W 4403  16.422  10.787  13.011
32788W        W 4404  37.103  10.234  14.901
32789W        W 4405  31.994   1.283  13.338
32790W        W 4406  18.574  15.275   3.374
32791W        W 4407  34.963  37.554   2.206
32792W        W 4408  25.353  39.057   3.757
32793W        W 4409   3.695  24.043  11.522
32794W        W 4410  27.023  27.059  13.734
32795W        W 4411   3.521  42.068   2.686
32796W        W 4412  42.288  30.907  12.002
32797W        W 4413   5.192  40.011   3.251
32798W        W 4414  21.189  13.227  13.005
32799W        W 4415  21.577  37.833  12.166
32800W        W 4416  39.967  17.279  13.279
32801W        W 4417  39.246   7.071  14.072
32802W        W 4418  33.510  15.637   0.971
32803W        W 4419  28.206  32.166  10.860
32804W        W 4420   3.616  21.969  12.436
32805W        W 4421  43.523  10.677   4.273
32806W        W 4422  42.458   1.205  14.532
32807W        W 4423  27.650  33.855   3.182
32808W        W 4424  41.403   2.474  12.503
32809W        W 4425  27.134   3.912  11.071
32810W        W 4426  42.323   3.652   1.750
32811W        W 4427  26.420  21.562  12.608
32812W        W 4428  43.054  30.515  11.595
32813W        W 4429  20.289  41.775   0.741
32814W        W 4430   1.291  42.314  13.454
32815W        W 4431   2.994  32.083  13.584
32816W        W 4432  37.838  18.655  13.752
32817W        W 4433  24.487   5.168  14.404
32818W        W 4434  38.770  36.287   2.821
32819W        W 4435  21.955  29.939   2.694
32820W        W 4436  44.574  42.914  11.197
32821W        W 4437  20.034  30.073   1.895
32822W        W 4438  38.871  40.557   1.414
32823W        W 4439  22.454   4.712   4.654
32824W        W 4440  43.464  42.224  13.934
32825W        W 4441  20.778   8.213   0.070
32826W        W 4442   5.199  21.999   0.503
32827W        W 4443  17.263  25.086   1.506
32828W        W 4444   8.698  15.313   1.936
32829W        W 4445  17.049   1.525   1.932
32830W        W 4446  25.556  18.006   1.156
32831W        W 4447  18.656   9.814  12.539
32832W        W 4448  40.024   8.410   1.762
32833W        W 4449  21.469   1.223   1.481
32834W        W 4450  34.382   2.250  12.590
32835W        W 4451  22.640  12.255  11.045
32836W        W 4452  18.074   7.853   4.282
32837W        W 4453  31.890   4.870  14.208
32838W        W 4454  21.646   6.806  12.064
32839W        W 4455   5.967  31.810   3.810
32840W        W 4456  43.749   4.752  11.187
32841W        W 4457  14.172   0.561  11.143
32842W        W 4458   5.010  26.648  10.168
32843W        W 4459   2.908  43.264   3.172
32844W        W 4460  25.853  25.049   4.643
32845W        W 4461   2.826  37.999   0.961
32846W        W 4462  35.113  25.021  13.779
32847W        W 4463  43.720   0.013   4.158
32848W        W 4464  15.145  11.133  14.045
32849W        W 4465   7.487   0.400  14.643
32850W        W 4466  27.131  31.877   4.651
32851W        W 4467  31.397   0.679   5.482
32852W        W 4468  14.787  37.033   2.018
32853W        W 4469   5.366  37.268   3.699
32854W        W 4470  10.258  32.367   1.804
32855W        W 4471  26.692  21.750  14.376
32856W        W 4472   4.853  17.175  11.667
32857W        W 4473  30.005  18.129  12.318
32858W        W 4474  15.155  28.075  14.755
32859W        W 4475  32.812   8.272   4.101
32860W        W 4476  32.909  34.464   1.454
32861W        W 4477  24.135  26.285  11.891
32862W        W 4478   6.399  28.108  14.336
32863W        W 4479   2.035  14.681  11.215
32864W        W 4480  13.108   9.743   0.952
32865W        W 4481  11.903  26.712  13.970
32866W        W 4482  21.023  25.929  12.551
32867W        W 4483   0.913   4.650  11.601
32868W        W 4484   6.393   1.823  10.320
32869W        W 4485  16.240  10.103  13.468
32870W        W 4486  40.550  24.081   1.824
32871W        W 4487  32.551   9.911   0.821
32872W        W 4488  21.780  32.248   0.637
32873W        W 4489  32.646   1.184   3.086
32874W        W 4490  27.524  42.595   1.847
32875W        W 4491  24.024  31.401   3.654
32876W        W 4492  26.560  40.037  12.566
32877W        W 4493   5.860  22.357   2.845
32878W        W 4494  11.647  37.941  11.354
32879W        W 4495  27.773  25.025  14.481
32880W        W 4496  44.063  29.693   3.982
32881W        W 4497  16.172  34.666   0.382
32882W        W 4498   8.291  28.544  12.151
32883W        W 4499   1.326  27.525  13.280
32884W        W 4500  12.132  32.877   3.103
32885W        W 4501  13.770  38.475  10.832
32886W        W 4502  24.722  42.837  13.035
32887W        W 4503  30.507  22.846   2.288
32888W        W 4504  18.815  42.545   4.246
32889W        W 4505  28.424   0.711  14.316
32890W        W 4506  32.861  17.113   0.527
32891W        W 4507   7.941  10.361  10.182
32892W        W 4508  27.519   8.514   0.410
32893W        W 4509  35.654  26.175   3.523
32894W        W 4510  24.667   5.160   2.137
32895W        W 4511  22.660  19.512   1.284
32896W        W 4512  32.426  17.259  14.119
32897W        W 4513  27.580  28.398   2.205
32898W        W 4514   6.921  37.926   0.813
32899W        W 4515   7.659  40.728   4.815
32900W        W 4516  38.589   6.632  12.577
32901W        W 4517  40.442  11.819   0.843
32902W        W 4518   4.803  19.860   3.576
32903W        W 4519  11.833  22.028  14.132
32904W        W 4520   5.639   7.150   1.846
32905W        W 4521   9.370   8.844  11.579
32906W        W 4522  17.601  30.509  14.919
32907W        W 4523   7.770  31.565  14.764
32908W        W 4524  29.861  16.851  14.469
32909W        W 4525   1.760  41.314   2.883
32910W        W 4526  30.230  21.667   4.097
32911W        W 4527   3.936  34.496   2.133
32912W        W 4528  26.828  11.932  12.998
32913W        W 4529  17.329  37.102   1.775
32914W        W 4530   4.384  16.565  12.180
32915W        W 4531  38.450   3.431   0.039
32916W        W 4532  39.640  14.092  14.666
32917W        W 4533   6.581  42.982   3.708
32918W        W 4534  28.472   0.509   0.955
32919W        W 4535  14.409  43.498  13.034
32920W        W 4536  17.713   3.636  14.457
32921W        W 4537   3.297  21.074  13.542
32922W        W 4538  18.328  23.710   3.721
32923W        W 4539   9.655  17.635  13.099
32924W        W 4540  16.635  44.885  11.207
32925W        W 4541   3.755   5.790   1.171
32926W        W 4542  12.256  37.889   4.577
32927W        W 4543   2.800  29.112   3.157
32928W        W 4544  19.621  42.081   5.482
32929W        W 4545  19.732  40.366   4.575
32930W        W 4546  38.192  34.653   2.384
32931W        W 4547  31.647   8.207  14.173
32932W        W 4548  43.268  20.455  11.111
32933W        W 4549  22.565  40.584  14.314
32934W        W 4550  34.819  21.234   1.944
32935W        W 4551  31.763  16.150   0.245
32936W        W 4552  44.737   8.468  10.625
32937W        W 4553  26.197  26.977  14.378
32938W        W 4554   4.720   4.413  14.818
32939W        W 4555  41.013  41.045  14.228
32940W        W 4556  20.040  19.570  13.016
32941W        W 4557  38.337  38.757  13.481
32942W        W 4558  23.741  22.758  12.518
32943W        W 4559  23.313   5.693   3.117
32944W        W 4560  33.008  28.527   1.491
32945W        W 4561  42.029  17.486   3.679
32946W        W 4562  43.465   1.804  11.216
32947W        W 4563  24.814  18.557   2.226
32948W        W 4564   6.622  16.575   3.651
32949W        W 4565   8.920  23.509  10.466
32950W        W 4566  20.629  26.660   0.736
32951W        W 4567  22.005   5.643  10.823
32952W        W 4568   2.300  14.477   2.351
32953W        W 4569   6.370  42.388   1.343
32954W        W 4570   1.481  37.587   0.937
32955W        W 4571  21.284  40.863   1.008
32956W        W 4572  18.091  20.027   0.912
32957W        W 4573  20.290  16.830   2.724
32958W        W 4574  31.209  22.752   1.313
32959W        W 4575  24.182  43.708   2.215
32960W        W 4576  20.118   2.236   2.130
32961W        W 4577  11.631  43.410  12.572
32962W        W 4578   8.834  29.676  13.610
32963W        W 4579   6.919  13.635  14.148
32964W        W 4580  39.650  42.057   0.723
32965W        W 4581  24.579  38.965  11.231
32966W        W 4582  17.670  39.214   2.119
32967W        W 4583   3.167  24.983  12.245
32968W        W 4584  26.957  32.811  14.863
32969W        W 4585  21.095  36.919  12.553
32970W        W 4586  24.336  25.151  11.200
32971W        W 4587  29.039   8.833  14.949
32972W        W 4588  26.034  11.658   1.922
32973W        W 4589  39.067   0.292   2.831
32974W        W 4590  43.432  18.332   2.484
32975W        W 4591  39.857  32.565   1.009
32976W        W 4592  43.279   9.383  11.646
32977W        W 4593  20.142  15.915  10.705
32978W        W 4594  18.125  34.019  12.067
32979W        W 4595  39.996  36.605   3.689
32980W        W 4596  15.826  24.268  13.828
32981W        W 4597  34.787  33.631   4.543
32982W        W 4598  38.381  44.859  14.448
32983W        W 4599  14.767  33.844  11.036
32984W        W 4600  34.374  43.019  11.608
32985W        W 4601  44.493  41.957   4.412
32986W        W 4602  37.078  22.312   3.144
32987W        W 4603  38.263  38.182   3.642
32988W        W 4604  15.825   5.294  14.991
32989W        W 4605  16.734  12.817  11.534
32990W        W 4606  38.232  44.902   1.956
32991W        W 4607   3.349  22.131   5.472
32992W        W 4608   4.847  35.958   1.190
32993W        W 4609  20.236  36.851   0.721
32994W        W 4610  12.899  42.410  14.515
32995W        W 4611  41.496   9.318  11.570
32996W        W 4612   5.526  41.795  12.883
32997W        W 4613  31.007  43.898   2.283
32998W        W 4614   5.510   5.889   3.651
32999W        W 4615  28.547  37.139  11.988
33000W        W 4616  34.837  34.581   1.130
33001W        W 4617  29.116  16.886   4.068
33002W        W 4618   6.288  17.290  12.769
33003W        W 4619  39.759  34.228  14.888
33004W        W 4620  36.032  41.102   4.050
33005W        W 4621   3.036  18.353   0.091
33006W        W 4622  13.376  13.933   3.281
33007W        W 4623  32.494  18.065  11.945
33008W        W 4624  22.617  43.438   2.416
33009W        W 4625  17.248   9.330  11.135
33010W        W 4626  23.255  43.558  14.910
33011W        W 4627   9.707  16.054   1.255
33012W        W 4628  32.422   2.991  14.892
33013W        W 4629  41.510  14.281  13.653
33014W        W 4630   3.400   3.685   0.412
33015W        W 4631  29.978  39.050  11.144
33016W        W 4632   8.616  43.484   2.369
33017W        W 4633  16.644  22.183   1.231
33018W        W 4634  14.649  33.566  13.380
33019W        W 4635   0.541  32.934  11.021
33020W        W 4636   4.210  10.191  13.785
33021W        W 4637  38.330  19.800   1.273
33022W        W 4638  40.278  10.494  13.345
33023W        W 4639  10.257  20.920  14.432
33024W        W 4640   0.097  42.762   1.364
33025W        W 4641  27.931   5.974  14.367
33026W        W 4642  15.224  30.542  12.340
33027W        W 4643  43.979  10.837   2.264
33028W        W 4644  20.166  21.450  11.644
33029W        W 4645  24.719  44.331  14.330
33030W        W 4646   0.964   2.721  10.867
33031W        W 4647   5.437  39.616   1.795
33032W        W 4648  30.492  44.228  14.826
33033W        W 4649  40.886  41.889  11.133
33034W        W 4650   1.221  17.736   4.831
33035W        W 4651  13.714  33.067   1.687
33036W        W 4652  25.533  16.363   0.439
33037W        W 4653  41.970   2.306   0.375
33038W        W 4654  12.562  17.393   3.752
33039W        W 4655   2.511  31.906   0.830
33040W        W 4656   5.878  26.181   3.680
33041W        W 4657  34.376  14.050   2.634
33042W        W 4658   9.186  21.522  11.428
33043W        W 4659  23.469   5.249   1.789
33044W        W 4660   9.792  38.312   1.998
33045W        W 4661  44.309  42.988   2.950
33046W        W 4662  43.354  40.453   2.586
33047W        W 4663  37.047   1.439   4.418
33048W        W 4664  17.362  30.082  11.903
33049W        W 4665  41.564  15.201   1.439
33050W        W 4666  26.779  11.881  13.818
33051W        W 4667   2.875  13.181   3.398
33052W        W 4668  37.333  38.123  10.902
33053W        W 4669   1.882  44.253   3.613
33054W        W 4670  29.766  32.968   4.770
33055W        W 4671  26.104  14.917   2.532
33056W        W 4672   2.337  17.308   3.693
33057W        W 4673  35.649  41.919   2.967
33058W        W 4674  22.722  42.267   1.948
33059W        W 4675  32.859  37.174  12.112
33060W        W 4676  23.128   0.790  12.496
33061W        W 4677  23.667  12.955   0.228
33062W        W 4678  17.098   4.331   0.070
33063W        W 4679  31.902  28.971   3.426
33064W        W 4680  39.771  10.386  12.035
33065W        W 4681   8.951  26.967  12.918
33066W        W 4682  12.717  13.313   3.305
33067W        W 4683  23.782   9.745   2.700
33068W        W 4684   8.617  24.061   4.179
33069W        W 4685  39.315  21.460   2.914
33070W        W 4686   2.347  21.749  14.481
33071W        W 4687  36.372  15.136  12.488
33072W        W 4688  35.859  17.021   4.144
33073W        W 4689   2.237  31.104  12.246
33074W        W 4690   1.026  19.236  14.637
33075W        W 4691   5.952  25.790   1.437
33076W        W 4692  36.724   0.025   1.512
33077W        W 4693  41.006  20.596  13.900
33078W        W 4694   5.758  36.488  13.844
33079W        W 4695  10.889  25.601  11.468
33080W        W 4696  16.826  34.994   3.000
33081W        W 4697  32.128   5.176   0.977
33082W        W 4698   4.348   1.724   4.138
33083W        W 4699  39.357  33.420  10.405
33084W        W 4700  18.750  43.549  11.934
33085W        W 4701  40.243  13.326  11.005
33086W        W 4702   5.991   0.515   4.293
33087W        W 4703  19.725  20.750   2.641
33088W        W 4704  31.005  21.593   0.769
33089W        W 4705  18.808  40.482   4.044
33090W        W 4706   6.311  27.314   4.832
33091W        W 4707  41.439  26.163   1.854
33092W        W 4708  10.799  28.513   0.782
33093W        W 4709  35.083  43.113   4.833
33094W        W 4710   6.175  16.826  11.449
33095W        W 4711  30.090  32.179  14.819
33096W        W 4712  17.307  38.132   0.269
33097W        W 4713  17.848  37.585   2.834
33098W        W 4714  27.932  22.269   2.527
33099W        W 4715   8.368  39.442   0.926
33100W        W 4716  37.305   6.683   4.662
33101W        W 4717  36.020  42.856   3.084
33102W        W 4718  33.098   8.340  12.440
33103W        W 4719  10.660  41.369  11.640
33104W        W 4720  30.998  31.809   4.417
33105W        W 4721  24.536  14.770   0.346
33106W        W 4722   2.301   5.656  13.066
33107W        W 4723  34.501  36.084   3.218
33108W        W 4724   2.802  36.352   2.224
33109W        W 4725  15.873   9.876  14.410
33110W        W 4726  39.980  33.543   0.515
33111W        W 4727  18.463  43.656   1.244
33112W        W 4728   0.518  32.895  14.342
33113W        W 4729  41.431   4.655  11.622
33114W        W 4730  29.490   4.902   0.438
33115W        W 4731   1.543  33.188   0.880
33116W        W 4732  20.682  33.562  13.923
33117W        W 4733  37.788  40.754  11.444
33118W        W 4734  42.816  34.924  12.495
33119W        W 4735  42.344   1.485  11.637
33120W        W 4736  40.352   4.806   2.334
33121W        W 4737  43.454  11.831   1.474
33122W        W 4738  41.576   8.405  11.630
33123W        W 4739  13.205  37.521  14.109
33124W        W 4740  41.254  29.530   4.624
33125W        W 4741  31.901  37.455  12.225
33126W        W 4742  32.419  29.102   3.617
33127W        W 4743  15.230  15.371  12.492
33128W        W 4744   7.429  25.151  10.659
33129W        W 4745   6.334  10.567   3.269
33130W        W 4746  35.272  20.779  12.008
33131W        W 4747  37.124  10.257   1.527
33132W        W 4748  26.631  20.103  13.323
33133W        W 4749  31.516  14.062  10.807
33134W        W 4750   7.107  15.219  13.755
33135W        W 4751  39.274   1.275   3.916
33136W        W 4752  11.946   9.347   1.452
33137W        W 4753  11.775  25.247   1.785
33138W        W 4754  17.876  28.484  10.685
33139W        W 4755  18.247  31.583   3.139
33140W        W 4756  41.994  43.819   3.238
33141W        W 4757  26.124  28.185  13.066
33142W        W 4758   5.173   7.426  12.523
33143W        W 4759  20.110  26.446   4.006
33144W        W 4760  44.644   7.677  12.010
33145W        W 4761   4.426  27.641   4.561
33146W        W 4762  44.779  32.201   3.238
33147W        W 4763   5.625  13.631  12.429
33148W        W 4764   2.223  29.216  14.715
33149W        W 4765  27.016  14.642  10.243
33150W        W 4766  14.868  31.679   2.305
33151W        W 4767  35.104   6.891   1.266
33152W        W 4768  34.376  23.742  13.860
33153W        W 4769   8.401  42.322   2.455
33154W        W 4770   2.267  21.179  10.582
33155W        W 4771  22.623  16.252   1.367
33156W        W 4772   5.335  22.706  14.881
33157W        W 4773  35.177  32.365  12.375
33158W        W 4774  12.213   1.812  13.577
33159W        W 4775  30.447  23.582   4.540
33160W        W 4776  37.427  39.492   1.794
33161W        W 4777  21.348   0.801  13.908
33162W        W 4778  34.844   9.906   4.830
33163W        W 4779  39.329  28.584  14.754
33164W        W 4780  17.019  38.459   3.172
33165W        W 4781  11.884  35.121  12.054
33166W        W 4782  14.405   8.769   2.648
33167W        W 4783  15.602  15.367  12.111
33168W        W 4784   3.213   3.330   2.446
33169W        W 4785  43.168   4.958   1.696
33170W        W 4786  42.798  33.049  14.684
33171W        W 4787  23.111  37.841   1.902
33172W        W 4788  37.460  37.813   1.129
33173W        W 4789  12.375  34.784  10.647
33174W        W 4790  31.408   3.707   4.643
33175W        W 4791  12.815   0.969  13.999
33176W        W 4792  17.635   8.114   3.608
33177W        W 4793  41.907   1.489  13.861
33178W        W 4794  16.952  15.324  14.687
33179W        W 4795  16.455  24.044  11.561
33180W        W 4796  19.226  20.521   4.961
33181W        W 4797  15.113  38.222  13.919
33182W        W 4798  38.515  26.651  14.258
33183W        W 4799  26.655   0.216   0.776
33184W        W 4800   7.349   3.783   2.723
33185W        W 4801  32.875   0.864   4.624
33186W        W 4802  39.957  37.851   0.815
33187W        W 4803  34.125   5.852  12.342
33188W        W 4804  36.870   4.214  11.712
33189W        W 4805  32.793   4.275   0.544
33190W        W 4806  26.261  20.602   0.416
33191W        W 4807  34.969  20.238  10.749
33192W        W 4808   3.675  23.108   2.128
33193W        W 4809  23.049  14.860   3.346
33194W        W 4810  25.271  25.403  14.518
33195W        W 4811   9.475  26.994   3.662
33196W        W 4812  33.468  35.009  13.846
33197W        W 4813  30.659   2.990  11.591
33198W        W 4814  12.678  39.555   0.346
33199W        W 4815  38.787  30.806  11.199
33200W        W 4816  13.570  26.844   2.872
33201W        W 4817  20.682   0.573  12.334
33202W        W 4818  17.265  35.146  12.208
33203W        W 4819  32.336   7.225   2.387
33204W        W 4820  25.695   2.709  13.097
33205W        W 4821   5.932  26.430  14.480
33206W        W 4822  25.797  42.083  14.957
33207W        W 4823  22.353  35.087   3.737
33208W        W 4824  38.506  28.885  13.855
33209W        W 4825   5.769   7.742  14.761
33210W        W 4826  11.129  25.078   0.984
33211W        W 4827  12.736   7.305   3.855
33212W        W 4828  12.334  43.558  10.766
33213W        W 4829  37.433  37.405   2.383
33214W        W 4830  44.566  38.414  14.396
33215W        W 4831  25.148  24.489   2.865
33216W        W 4832  39.363   3.292   3.400
33217W        W 4833  28.589  19.997  14.460
33218W        W 4834  44.929  11.714   1.288
33219W        W 4835  22.724  23.705  12.904
33220W        W 4836  18.519  29.550  14.852
33221W        W 4837   4.545  15.392  11.166
33222W        W 4838   4.714  18.058   2.274
33223W        W 4839  35.808   3.361  10.459
33224W        W 4840  19.025   9.808   1.725
33225W        W 4841  33.955  30.171  12.864
33226W        W 4842  41.942  38.251  11.092
33227W        W 4843  12.088  23.612   3.717
33228W        W 4844  33.389  15.260  14.496
33229W        W 4845  30.956  30.145  14.690
33230W        W 4846  19.657   0.729  12.396
33231W        W 4847   7.574  10.365   2.222
33232W        W 4848   1.951  44.883   2.023
33233W        W 4849  22.502   0.846  10.962
33234W        W 4850  24.778  39.314   2.863
33235W        W 4851  31.708  30.890   3.588
33236W        W 4852  29.806  37.466   1.466
33237W        W 4853  40.720  40.364  12.801
33238W        W 4854  22.774   1.798   1.259
33239W        W 4855  18.018  41.039   2.194
33240W        W 4856  18.506  13.770  13.005
33241W        W 4857  26.010   9.589   2.354
33242W        W 4858   5.308  29.412  13.771
33243W        W 4859  10.251  22.206   1.470
33244W        W 4860  36.832   3.759  11.468
33245W        W 4861  34.047  30.615  13.171
33246W        W 4862  35.552   4.688   2.411
33247W        W 4863  36.627  20.808  11.464
33248W        W 4864  41.335  23.885   1.338
33249W        W 4865  14.376  24.445   2.315
33250W        W 4866  39.939   7.620   2.885
33251W        W 4867  19.246   7.714   3.787
33252W        W 4868   0.704  20.696  11.970
33253W        W 4869   9.513  24.455  12.508
33254W        W 4870   8.171  21.746   1.159
33255W        W 4871  11.730  12.197   4.614
33256W        W 4872  11.348  18.610   1.313
33257W        W 4873   9.815  34.538   2.187
33258W        W 4874   3.363  20.177   2.493
33259W        W 4875   5.838  24.349  12.634
33260W        W 4876  39.974  33.278  12.575
33261W        W 4877  39.731  26.415  12.328
33262W        W 4878  37.006  14.804   2.052
33263W        W 4879  38.368  26.733   1.333
33264W        W 4880  44.749  22.745  12.616
33265W        W 4881   4.279  39.263  13.955
33266W        W 4882  33.637   0.623   4.838
33267W        W 4883  39.476   8.905   2.714
33268W        W 4884  42.882  35.410   2.372
33269W        W 4885   6.264  40.104  14.491
33270W        W 4886  15.058  26.620  12.192
33271W        W 4887  26.081  15.569  10.507
33272W        W 4888   4.648  16.771   1.884
33273W        W 4889  39.097  24.031   1.762
33274W        W 4890  37.020  32.025   4.760
33275W        W 4891  43.860  22.040   4.153
33276W        W 4892   6.874  34.864  10.566
33277W        W 4893  20.655   3.394   2.115
33278W        W 4894  36.657  29.410  10.712
33279W        W 4895  18.266  35.542  12.826
33280W        W 4896  27.136  13.997   5.039
33281W        W 4897  31.335  29.002   4.276
33282W        W 4898   7.468   9.327  10.815
33283W        W 4899  16.698   7.294  10.624
33284W        W 4900  26.421   4.334  10.685
33285W        W 4901  18.504  25.893   3.199
33286W        W 4902  28.500  16.895  12.010
33287W        W 4903  15.323  18.922   5.004
33288W        W 4904  27.594  44.290  12.016
33289W        W 4905  35.552   2.898  10.580
33290W        W 4906   4.879  31.797  13.969
33291W        W 4907   1.235  29.158   1.730
33292W        W 4908  44.926  27.434   0.751
33293W        W 4909  36.323  17.768   4.278
33294W        W 4910   2.521   1.027   0.163
33295W        W 4911  16.769  14.721   3.122
33296W        W 4912  39.718  34.079   2.897
33297W        W 4913  35.898  40.363  12.774
33298W        W 4914  13.396   8.026  13.468
33299W        W 4915   0.528   4.658  10.222
33300W        W 4916  35.415  27.026   3.312
33301W        W 4917  13.125  43.302   3.708
33302W        W 4918   7.152   4.020   4.042
33303W        W 4919  13.250  35.113  12.197
33304W        W 4920  27.972  34.679  13.601
33305W        W 4921  18.569  20.830  14.505
33306W        W 4922  20.459   2.549  11.145
33307W        W 4923  21.977  29.258   0.808
33308W        W 4924  39.052  14.870   0.007
33309W        W 4925   6.716  43.727  13.986
33310W        W 4926  13.186   2.431   3.626
33311W        W 4927  22.404  44.214  11.943
33312W        W 4928  20.619   5.820   4.112
33313W        W 4929  44.848   7.930   4.068
33314W        W 4930  43.805  42.471  10.752
33315W        W 4931  10.864  33.677  12.094
33316W        W 4932  12.541  25.975  12.660
33317W        W 4933  37.369   3.488   1.700
33318W        W 4934  22.659   9.726  11.123
33319W        W 4935  33.868  22.719   1.706
33320W        W 4936  32.048  34.322   2.568
33321W        W 4937  14.759  42.556   4.109
33322W        W 4938  14.176  44.801  12.517
33323W        W 4939  43.429  17.607  13.555
33324W        W 4940  21.114  40.518   5.281
33325W        W 4941  22.585   2.708  12.522
33326W        W 4942  29.002  30.219  14.500
33327W        W 4943  28.034  33.257  14.778
33328W        W 4944  26.526   2.722  12.799
33329W        W 4945  31.617  21.063  12.818
33330W        W 4946  16.492  41.822  13.480
33331W        W 4947  44.045  11.665   3.319
33332W        W 4948  42.071  23.126   1.392
33333W        W 4949  32.558  17.796   4.340
33334W        W 4950  11.719  12.876   3.632
33335W        W 4951   1.721   7.182   3.265
33336W        W 4952   6.633  40.261   3.783
33337W        W 4953   7.691  23.732   4.938
33338W        W 4954  34.522   6.905   4.585
33339W        W 4955  35.500  34.117  13.302
33340W        W 4956   2.699  19.594  14.432
33341W        W 4957  19.709  23.920   0.873
33342W        W 4958  12.907  42.539   0.026
33343W        W 4959  18.502  11.718   4.542
33344W        W 4960  30.539   6.226   5.055
33345W        W 4961  18.765  14.033   3.685
33346W        W 4962  19.003  32.495   3.718
33347W        W 4963   5.727  14.284   1.729
33348W        W 4964   3.166  32.273   1.308
33349W        W 4965  15.348  15.574  11.117
33350W        W 4966  30.032  10.595  13.943
33351W        W 4967   0.341  17.641  10.877
33352W        W 4968   8.422   3.381  12.518
33353W        W 4969  43.424   6.440  13.377
33354W        W 4970  12.880  24.398   4.046
33355W        W 4971  13.172  35.057   4.142
33356W        W 4972  24.101   1.425  12.042
33357W        W 4973   4.852  17.217   0.726
33358W        W 4974  12.084  13.670  12.427
33359W        W 4975  10.045  19.578  11.035
33360W        W 4976  17.572  16.593  14.880
33361W        W 4977  30.840  27.258  13.789
33362W        W 4978  11.652   1.695  12.466
33363W        W 4979  15.169  39.514   3.724
33364W        W 4980  39.767   9.312   0.446
33365W        W 4981  24.692  18.192   2.892
33366W        W 4982  39.975  24.971   2.038
33367W        W 4983  15.446  19.067   4.178
33368W        W 4984  37.791  26.601   5.036
33369W        W 4985  18.614  16.670   3.810
33370W        W 4986  10.133  22.643   4.631
33371W        W 4987   8.376  26.053   3.927
33372W        W 4988  35.589  22.403   0.479
33373W        W 4989  43.572  16.719   0.859
33374W        W 4990  27.034   7.349  13.220
33375W        W 4991  19.145  26.825  12.988
33376W        W 4992  19.194   9.765  13.910
33377W        W 4993   5.612  13.618  13.607
33378W        W 4994  10.074   4.713   2.216
33379W        W 4995  21.258  20.271  11.099
33380W        W 4996  39.197  30.859  11.530
33381W        W 4997  27.379  19.783   0.344
33382W        W 4998  40.009  12.702   2.692
33383W        W 4999  26.948   4.866  11.653
33384W        W 5000  38.536  14.523  12.409
33385W        W 5001  28.008  26.039  12.495
33386W        W 5002   0.316  27.418   3.278
33387W        W 5003  37.053  24.078  13.524
33388W        W 5004  10.640   7.285   2.901
33389W        W 5005   9.901  37.343   1.859
33390W        W 5006  27.657  38.314  14.829
33391W        W 5007   0.430  13.948  11.434
33392W        W 5008  31.839  43.368   1.462
33393W        W 5009   2.494  21.656   4.105
33394W        W 5010   2.314   1.680   2.123
33395W        W 5011  22.576   3.241  13.280
33396W        W 5012  22.260   6.755  10.310
33397W        W 5013  35.951   7.931  11.785
33398W        W 5014  43.646  26.563  11.098
33399W        W 5015  43.337  31.595  14.802
33400W        W 5016  24.301  10.152   2.374
33401W        W 5017   8.094  20.993   5.034
33402W        W 5018  36.886  27.255   3.301
33403W        W 5019  39.091  22.684  11.220
33404W        W 5020  40.783   7.375   0.944
33405W        W 5021  39.942  27.157  12.978
33406W        W 5022  22.638  41.038   4.674
33407W        W 5023  38.692   9.184  11.156
33408W        W 5024  28.617  34.605   4.560
33409W        W 5025  43.875  18.746   0.287
33410W        W 5026  20.804  13.593   2.639
33411W        W 5027   6.469  34.474   3.115
33412W        W 5028  35.613  41.536  13.291
33413W        W 5029  43.137   2.962  10.489
33414W        W 5030  11.745  33.538  11.202
33415W        W 5031  11.163  36.148   4.181
33416W        W 5032   1.552  29.492  11.699
33417W        W 5033  13.668  43.347  12.463
33418W        W 5034  41.286  14.484  11.162
33419W        W 5035   5.487   3.871   2.339
33420W        W 5036  18.603  22.164   2.864
33421W        W 5037  44.752   1.973  12.893
33422W        W 5038  33.680  26.603   4.035
33423W        W 5039   7.879  32.554   3.842
33424W        W 5040  21.827   2.030  13.945
33425W        W 5041   6.813  23.796   1.715
33426W        W 5042   6.032  37.485  14.225
33427W        W 5043  35.050   3.726  14.899
33428W        W 5044  21.012  22.021   2.436
33429W        W 5045  20.119  42.093  11.071
33430W        W 5046  23.722   5.835   4.934
33431W        W 5047   3.908  27.056  12.608
33432W        W 5048  18.188  38.130   0.526
33433W        W 5049  14.302  12.215   0.724
33434W        W 5050  43.590  10.676  14.419
33435W        W 5051   1.086  18.540   4.650
33436W        W 5052  22.457   8.645   3.215
33437W        W 5053  41.198  44.537  14.381
33438W        W 5054  15.573  20.378   2.253
33439W        W 5055   3.511  21.581  10.665
33440W        W 5056  14.818   8.126   3.789
33441W        W 5057  17.920  35.853   2.310
33442W        W 5058  43.016  40.424   1.960
33443W        W 5059   7.146  10.621  14.356
33444W        W 5060  34.321  27.050  13.772
33445W        W 5061  43.619  36.575   3.718
33446W        W 5062  36.948  22.172   2.320
33447W        W 5063  21.514  40.056   2.869
33448W        W 5064   5.915  28.360   0.938
33449W        W 5065  35.127  11.094   0.320
33450W        W 5066  36.437  16.167  13.359
33451W        W 5067  26.584  19.043  10.710
33452W        W 5068  14.356  38.945   0.879
33453W        W 5069  10.696  40.868  11.823
33454W        W 5070  13.828  26.000  14.514
33455W        W 5071  42.339  42.589  10.533
33456W        W 5072  18.538   0.858  14.586
33457W        W 5073  17.725  27.071   2.336
33458W        W 5074   8.156   5.210  12.673
33459W        W 5075  16.582  38.497  14.004
33460W        W 5076  40.773  15.184   2.733
33461W        W 5077  35.884  13.009  10.237
33462W        W 5078  11.593  39.392   2.836
33463W        W 5079  36.573  15.859  12.970
33464W        W 5080  30.540  39.654  12.471
33465W        W 5081  39.536  33.370  14.521
33466W        W 5082  30.509  20.749  12.990
33467W        W 5083  29.476  27.442   5.522
33468W        W 5084  28.402  36.988   3.235
33469W        W 5085  13.523  37.935  13.312
33470W        W 5086  36.865   2.397  12.577
33471W        W 5087  42.275  11.652  12.449
33472W        W 5088  18.785  16.957   0.864
33473W        W 5089  27.087  15.269   2.238
33474W        W 5090   0.017  13.557   3.623
33475W        W 5091  34.380   6.104  10.707
33476W        W 5092  31.473  24.202   2.819
33477W        W 5093  23.525   2.948   2.319
33478W        W 5094  25.061  42.851   1.256
33479W        W 5095  15.262  11.402   4.934
33480W        W 5096   9.656  42.301  10.716
33481W        W 5097  35.407  25.957   1.703
33482W        W 5098  34.193  26.611   1.355
33483W        W 5099  38.016   4.785   4.666
33484W        W 5100   3.344  14.312   4.660
33485W        W 5101   1.000  41.717  11.521
33486W        W 5102  42.810  44.438   2.419
33487W        W 5103   4.225  36.044  12.891
33488W        W 5104  31.391  41.522  11.014
33489W        W 5105  44.404  26.153  13.764
33490W        W 5106   3.433  43.292   3.234
33491W        W 5107   7.807  15.549  14.932
33492W        W 5108  23.984  37.408   4.024
33493W        W 5109   5.832   9.922   1.919
33494W        W 5110  30.026  15.298  11.846
33495W        W 5111  44.287  26.981   2.092
33496W        W 5112  40.088  43.371  14.311
33497W        W 5113   3.814  16.781  10.396
33498W        W 5114  34.161  44.503  12.453
33499W        W 5115  16.878  44.280   0.351
33500W        W 5116  23.220   2.451   0.597
33501W        W 5117   1.707  13.568  14.289
33502W        W 5118  36.085  19.589   4.139
33503W        W 5119   3.948  14.176  11.032
33504W        W 5120   9.827   0.522   2.289
33505W        W 5121  38.084  11.706  13.010
33506W        W 5122  27.937  17.188   0.271
33507W        W 5123  22.494  12.513  12.046
33508W        W 5124  17.225  26.570  13.835
33509W        W 5125  34.180  18.626   0.950
33510W        W 5126   7.778  20.796  12.549
33511W        W 5127  12.059  11.097  11.607
33512W        W 5128  19.590   6.659   2.011
33513W        W 5129  42.825  22.736  14.829
33514W        W 5130  36.443  10.470   4.069
33515W        W 5131   1.855  41.291  10.600
33516W        W 5132  40.534  26.651   1.831
33517W        W 5133  13.227   8.678   3.193
33518W        W 5134   5.657   2.379  13.934
33519W        W 5135  19.827  40.489   1.886
33520W        W 5136  28.658  11.888   1.777
33521W        W 5137  41.523   3.384  12.122
33522W        W 5138  11.808  16.143   4.596
33523W        W 5139  27.534  15.382  11.457
33524W        W 5140  20.270   7.669  11.530
33525W        W 5141  20.043  41.601   1.531
33526W        W 5142  42.744  21.989   2.249
33527W        W 5143   3.937  16.675   1.300
33528W        W 5144  44.398   7.318   1.688
33529W        W 5145  36.846  28.883   1.751
33530W        W 5146  20.634   9.861   3.906
33531W        W 5147  11.667  30.184   2.383
33532W        W 5148  32.997  22.566   4.226
33533W        W 5149  42.491   3.260   3.211
33534W        W 5150   5.168   5.919   0.947
33535W        W 5151  17.316  15.682   1.023
33536W        W 5152  43.758  35.075   0.409
33537W        W 5153  43.931  19.521  14.550
33538W        W 5154  43.499  16.927  12.075
33539W        W 5155  14.486  34.387   4.205
33540W        W 5156  38.825   1.245  13.438
33541W        W 5157  41.417  11.285  14.388
33542W        W 5158   8.438  33.533   3.528
33543W        W 5159  17.240   3.661  12.211
33544W        W 5160  18.166  12.111   3.237
33545W        W 5161   9.871  39.797   0.294
33546W        W 5162  10.659   1.713  14.913
33547W        W 5163  32.902  36.868   2.961
33548W        W 5164  44.207  42.545  10.377
33549W        W 5165  12.241  12.635   3.140
33550W        W 5166  30.600  16.764  10.963
33551W        W 5167  16.554  30.444  12.039
33552W        W 5168  29.823  15.631   3.389
33553W        W 5169  24.482  34.533   3.247
33554W        W 5170   2.979  39.008   4.076
33555W        W 5171  40.407  42.567   3.738
33556W        W 5172  12.571  13.237  14.755
33557W        W 5173  38.200  25.712   4.180
33558W        W 5174  17.105   5.682   0.216
33559W        W 5175   9.633  27.430  14.906
33560W        W 5176   8.494  11.919  12.066
33561W        W 5177  16.265  14.535  14.841
33562W        W 5178  21.611  38.586   2.774
33563W        W 5179  16.305  31.735  13.068
33564W        W 5180  14.407  38.889  14.459
33565W        W 5181  25.167  36.345  11.653
33566W        W 5182  44.178  27.222   2.652
33567W        W 5183   5.785  18.931   4.913
33568W        W 5184  44.933  35.488  14.858
33569W        W 5185  12.614  18.995  14.222
33570W        W 5186   3.482   2.388   0.716
33571W        W 5187  24.461  44.913   2.214
33572W        W 5188  27.819  36.665   1.431
33573W        W 5189  30.971  36.550  13.024
33574W        W 5190  39.956   0.967   2.326
33575W        W 5191  37.006  15.163   0.731
33576W        W 5192  10.719  43.606   0.532
33577W        W 5193  40.990  19.802  14.767
33578W        W 5194  12.746  12.995   3.820
33579W        W 5195   7.822  23.392  14.204
33580W        W 5196  20.699  14.307  14.057
33581W        W 5197   2.397  35.369  12.421
33582W        W 5198  18.096  18.779   2.394
33583W        W 5199   0.753  11.141  14.078
33584W        W 5200  37.971  36.148   2.674
33585W        W 5201  32.161   2.949  10.603
33586W        W 5202   5.927  18.981  12.507
33587W        W 5203  13.859   5.660  13.083
33588W        W 5204  42.373  42.766  14.904
33589W        W 5205  20.452  24.263   3.201
33590W        W 5206   0.712   2.194  12.006
33591W        W 5207  43.297   3.230  14.688
33592W        W 5208  40.336   7.126  13.536
33593W        W 5209  30.176  42.795   4.559
33594W        W 5210   5.228  35.475   2.817
33595W        W 5211   0.265  44.005  13.510
33596W        W 5212  15.777  18.835   1.360
33597W        W 5213  32.951  12.062  12.439
33598W        W 5214  14.081  30.414   3.374
33599W        W 5215  22.579   6.815  11.719
33600W        W 5216  33.080  38.416  11.565
33601W        W 5217  21.045  33.233   0.915
33602W        W 5218  15.566  20.069  13.852
33603W        W 5219  24.581  18.815  10.821
33604W        W 5220   8.446  28.362   2.246
33605W        W 5221  15.879   0.537   1.763
33606W        W 5222  23.506  32.413   3.370
33607W        W 5223  20.464  31.438  12.358
33608W        W 5224  24.122  42.940   2.862
33609W        W 5225  14.475  40.491   4.238
33610W        W 5226  22.538  39.282   3.675
33611W        W 5227   9.768  10.850   0.873
33612W        W 5228  31.632  11.040   4.981
33613W        W 5229   4.432   2.810  10.941
33614W        W 5230  39.166   9.772   4.549
33615W        W 5231  29.145  14.792   4.085
33616W        W 5232  36.901  14.616   3.909
33617W        W 5233  41.352   1.836   3.937
33618W        W 5234  27.199  41.998  11.160
33619W        W 5235  42.301  21.023  13.846
33620W        W 5236  41.020  20.072   3.785
33621W        W 5237   9.819  14.106   1.327
33622W        W 5238  27.185   3.530   0.065
33623W        W 5239   7.347  20.840  14.185
33624W        W 5240  19.946  37.436  14.848
33625W        W 5241  19.340  29.616   4.101
33626W        W 5242  35.428  23.836  13.394
33627W        W 5243  23.120  18.032  14.853
33628W        W 5244  24.530  18.992   2.283
33629W        W 5245  25.435  32.126  14.814
33630W        W 5246  22.105   6.814   1.363
33631W        W 5247   3.995   0.478  12.353
33632W        W 5248   4.829   5.858  14.135
33633W        W 5249  35.918  24.043   4.186
33634W        W 5250  44.502   6.369   0.346
33635W        W 5251  29.490  12.971   2.848
33636W        W 5252  24.265  15.242   2.808
33637W        W 5253   8.774  18.361  13.320
33638W        W 5254  17.146  10.336   1.855
33639W        W 5255  19.555  29.085  10.830
33640W        W 5256  23.939   3.188  12.910
33641W        W 5257  18.654  38.479   1.517
33642W        W 5258  26.680   0.562   2.214
33643W        W 5259   6.219  42.953   1.854
33644W        W 5260  30.226   1.824   2.315
33645W        W 5261  40.039   4.401   3.061
33646W        W 5262  15.294  40.804   1.759
33647W        W 5263  38.509  11.871   4.634
33648W        W 5264  38.020  27.749   4.701
33649W        W 5265  18.944  33.974  14.266
33650W        W 5266  30.688   8.069  14.400
33651W        W 5267  33.152  36.533   4.705
33652W        W 5268  37.133   6.472  12.861
33653W        W 5269  20.204  32.668   3.370
33654W        W 5270   7.652   1.270   3.206
33655W        W 5271  23.858  21.925   1.336
33656W        W 5272  38.195  25.401  14.025
33657W        W 5273   5.988  10.316  13.433
33658W        W 5274  22.745  29.362   1.392
33659W        W 5275  32.040  27.241   2.109
33660W        W 5276  17.659  36.366  14.440
33661W        W 5277  19.718  17.715   0.526
33662W        W 5278   1.479   0.043   2.234
33663W        W 5279  24.317  22.655  14.897
33664W        W 5280  26.595   4.679   4.606
33665W        W 5281   1.739   4.344   0.244
33666W        W 5282   1.290  11.888  10.568
33667W        W 5283  30.143  33.615  13.387
33668W        W 5284   4.993  10.833   1.428
33669W        W 5285  41.830  10.864  12.602
33670W        W 5286  19.069  36.410   1.603
33671W        W 5287  16.704  22.601  12.809
33672W        W 5288  36.457  43.785   2.298
33673W        W 5289  16.444  26.641  13.372
33674W        W 5290  19.347   7.701  11.779
33675W        W 5291  12.837  32.070  13.590
33676W        W 5292  14.662  30.337  14.766
33677W        W 5293   9.594  30.981   2.278
33678W        W 5294  36.011  21.853  12.388
33679W        W 5295   0.455   9.513  12.973
33680W        W 5296  11.471   0.745   0.355
33681W        W 5297   2.340   4.990  14.294
33682W        W 5298  19.746   1.782   4.201
33683W        W 5299  20.353  23.712   3.811
33684W        W 5300  40.331  13.902  13.463
33685W        W 5301  30.235  29.420   0.466
33686W        W 5302  44.391  23.037  11.185
33687W        W 5303  41.078  27.721  14.275
33688W        W 5304  40.331   4.393  11.730
33689W        W 5305  29.676  13.232  14.316
33690W        W 5306  33.875  32.475   3.723
33691W        W 5307  41.590  26.689  12.941
33692W        W 5308  44.564  18.730   1.207
33693W        W 5309  27.042  41.076   2.558
33694W        W 5310  19.988  20.128   0.718
33695W        W 5311  40.279  14.727  11.293
33696W        W 5312  35.352  38.759  14.045
33697W        W 5313  34.089   9.654  13.840
33698W        W 5314   8.978  40.304   0.725
33699W        W 5315  40.925  43.756  13.804
33700W        W 5316  26.199  33.990   2.324
33701W        W 5317  31.723  43.143  12.445
33702W        W 5318  34.083  21.723   1.944
33703W        W 5319  28.976  25.953   2.666
33704W        W 5320  16.170  24.204   1.557
33705W        W 5321  34.518  33.073   0.387
33706W        W 5322   6.294  10.132   4.609
33707W        W 5323  41.845  34.070  11.213
33708W        W 5324  10.330  40.097   0.268
33709W        W 5325  32.656  26.987   2.743
33710W        W 5326  32.957  37.492  11.354
33711W        W 5327  32.885   9.829  14.382
33712W        W 5328  20.772  43.026  13.890
33713W        W 5329  29.153  33.889  14.017
33714W        W 5330  22.075  38.155  11.403
33715W        W 5331  35.027  23.013  12.478
33716W        W 5332  44.966  42.721  14.632
33717W        W 5333  12.824   1.283  13.491
33718W        W 5334  39.013  34.401   2.869
33719W        W 5335  30.484  40.012   0.828
33720W        W 5336  40.814   9.771   2.753
33721W        W 5337  21.990  32.041   4.155
33722W        W 5338  32.039   3.524   0.367
33723W        W 5339  39.611  44.110   3.882
33724W        W 5340  18.186  38.444  11.869
33725W        W 5341  11.710   3.550   2.440
33726W        W 5342  27.009  29.462  14.984
33727W        W 5343  39.330  21.142   3.807
33728W        W 5344   9.165   6.800   4.375
33729W        W 5345   4.410  16.256  13.938
33730W        W 5346  41.915  36.144   3.753
33731W        W 5347  24.184  31.041  14.971
33732W        W 5348  26.910  30.176   3.163
33733W        W 5349  43.024   9.272   0.357
33734W        W 5350  38.835  24.508   1.841
33735W        W 5351  10.943  15.745  10.068
33736W        W 5352  22.715  32.013   1.912
33737W        W 5353  31.591  26.069  11.629
33738W        W 5354  28.720   5.639  12.490
33739W        W 5355  43.300  23.947  12.483
33740W        W 5356  30.726   9.457  12.036
33741W        W 5357  15.566  13.290   1.437
33742W        W 5358   0.843  28.387  11.143
33743W        W 5359  36.866  23.717  12.788
33744W        W 5360  23.122  19.994   4.598
33745W        W 5361  10.961  12.632   0.388
33746W        W 5362  43.178   1.903  13.615
33747W        W 5363  11.853  36.660  11.374
33748W        W 5364  24.501  25.577  11.994
33749W        W 5365   8.129  29.490   4.933
33750W        W 5366  39.293  30.917  11.022
33751W        W 5367  38.095  25.558  13.098
33752W        W 5368   6.982  29.515   3.736
33753W        W 5369  15.225  26.604  11.714
33754W        W 5370  10.066   2.755  10.786
33755W        W 5371  14.689  16.526   2.902
33756W        W 5372  25.023  19.561  14.728
33757W        W 5373  12.627  29.030  12.880
33758W        W 5374   8.231   9.693   4.206
33759W        W 5375  38.546  25.912   3.138
33760W        W 5376   7.402  20.356  11.179
33761W        W 5377  32.334  37.326  10.226
33762W        W 5378  19.208   0.328  10.580
33763W        W 5379  15.218  28.947  11.172
33764W        W 5380   0.572  16.519  14.908
33765W        W 5381  32.144  15.072   1.858
33766W        W 5382  25.203   4.214   0.363
33767W        W 5383  38.982   4.396   3.098
33768W        W 5384  41.530  36.123  12.417
33769W        W 5385  17.527  36.596   1.786
33770W        W 5386  34.329  16.355   2.794
33771W        W 5387  32.209  10.227   3.142
33772W        W 5388   8.115  32.884  12.553
33773W        W 5389  39.690  19.934   4.541
33774W        W 5390  40.914   5.350  12.974
33775W        W 5391   3.978   8.663  14.500
33776W        W 5392  20.144   7.810   2.898
33777W        W 5393  43.321  31.051  14.796
33778W        W 5394  43.293  14.678  13.497
33779W        W 5395  20.551  36.676  11.562
33780W        W 5396  15.565   9.342   1.138
33781W        W 5397  22.676  23.899   4.231
33782W        W 5398  32.953  31.619   1.430
33783W        W 5399   2.441  20.111   1.950
33784W        W 5400  20.156  28.244   4.628
33785W        W 5401  38.908  18.096  12.223
33786W        W 5402  32.886  44.464  11.455
33787W        W 5403  35.872  33.663   0.052
33788W        W 5404  31.725   9.418   3.134
33789W        W 5405  24.911  33.096   3.719
33790W        W 5406   9.177  13.173   0.925
33791W        W 5407   4.672  24.238  13.812
33792W        W 5408  40.226  44.905  12.772
33793W        W 5409  25.156  17.621  14.966
33794W        W 5410  25.300  29.956  11.019
33795W        W 5411   5.174   7.359  12.000
33796W        W 5412  13.190  40.148  12.455
33797W        W 5413  15.063   6.251   1.274
33798W        W 5414   1.938   7.743   2.619
33799W        W 5415  24.636  22.023   2.176
33800W        W 5416   3.666  22.467   5.243
33801W        W 5417   9.148  27.439  12.009
33802W        W 5418  18.318   8.636   0.397
33803W        W 5419  20.899  42.357   0.821
33804W        W 5420  31.086  13.262   1.918
33805W        W 5421  37.019  39.953  14.810
33806W        W 5422  39.607  19.795   4.022
33807W        W 5423  23.064  10.138   2.516
33808W        W 5424   1.254  26.765  11.741
33809W        W 5425  17.961  22.085   0.631
33810W        W 5426  20.120   4.133   0.338
33811W        W 5427  41.358  29.671  10.672
33812W        W 5428  18.819   1.300  14.479
33813W        W 5429  15.574  29.029  13.036
33814W        W 5430  32.127  34.532  10.641
33815W        W 5431  28.476   1.990  13.337
33816W        W 5432  24.532  12.909  14.915
33817W        W 5433  20.312  32.126  12.118
33818W        W 5434   4.492  12.262   4.655
33819W        W 5435  17.136   2.918  11.510
33820W        W 5436  23.526  18.645   2.685
33821W        W 5437   2.569   6.508  12.495
33822W        W 5438  16.563  21.190  12.960
33823W        W 5439  34.137  11.121  13.086
33824W        W 5440  17.129  27.937  14.280
33825W        W 5441  15.270  13.602  11.588
33826W        W 5442   6.227   5.808  11.911
33827W        W 5443  32.502  35.578  11.213
33828W        W 5444  17.175   5.193   0.333
33829W        W 5445   6.211  42.363  10.702
33830W        W 5446  10.792  17.531   4.891
33831W        W 5447  19.603   9.078   3.205
33832W        W 5448  10.179  41.590  13.890
33833W        W 5449   5.982  32.535  10.612
33834W        W 5450  44.357  41.589   4.767
33835W        W 5451  20.701  34.679  11.694
33836W        W 5452  30.705  34.066   2.134
33837W        W 5453   2.982  22.648   3.635
33838W        W 5454  23.936  22.161   2.782
33839W        W 5455  20.917  22.580  10.586
33840W        W 5456  38.523  22.219  10.645
33841W        W 5457  24.256  29.432   2.651
33842W        W 5458  13.128   7.675  11.538
33843W        W 5459  14.333  22.823  12.545
33844W        W 5460  28.892  17.194  13.351
33845W        W 5461  10.857   8.933   2.159
33846W        W 5462  31.428  34.904  12.450
33847W        W 5463   5.567  24.187   1.826
33848W        W 5464  37.933  32.702  12.525
33849W        W 5465  32.862  21.203  12.063
33850W        W 5466  29.845  29.126  13.554
33851W        W 5467  32.405  37.302  14.002
33852W        W 5468  34.415  37.431   0.833
33853W        W 5469   3.193  14.171  13.547
33854W        W 5470  41.607   4.066   2.680
33855W        W 5471  38.986  20.586   2.371
33856W        W 5472  39.079  26.285  13.307
33857W        W 5473  42.348   5.846   1.752
33858W        W 5474  42.324  20.097  14.787
33859W        W 5475  24.723  44.484   2.314
33860W        W 5476  40.757  27.538  12.063
33861W        W 5477   2.432  36.914  14.334
33862W        W 5478  22.047  44.996   4.554
33863W        W 5479  24.822   5.893   4.857
33864W        W 5480  25.082  30.214   2.847
33865W        W 5481  25.380   7.481   4.545
33866W        W 5482  30.483  23.563  10.655
33867W        W 5483  25.251  39.784   4.218
33868W        W 5484   0.832  23.163  14.958
33869W        W 5485  26.224  40.766   3.459
33870W        W 5486  15.683  16.164   1.942
33871W        W 5487   2.261  36.519   4.078
33872W        W 5488  26.108  10.532   1.925
33873W        W 5489  43.487  37.377   0.397
33874W        W 5490  22.114  17.990   1.507
33875W        W 5491  22.936   8.410   1.936
33876W        W 5492  25.128  18.210   0.836
33877W        W 5493  42.998  22.737   4.548
33878W        W 5494   9.785  28.684   2.565
33879W        W 5495  36.602  23.003   2.351
33880W        W 5496  17.683   1.192  11.591
33881W        W 5497   3.816  18.516   1.282
33882W        W 5498  41.011   4.799  10.832
33883W        W 5499  39.784  23.225   2.238
33884W        W 5500  21.346  23.828  11.602
33885W        W 5501  32.591  40.809  12.858
33886W        W 5502  31.587  27.602  10.915
33887W        W 5503  13.382  15.894  12.166
33888W        W 5504   0.572   5.944  14.550
33889W        W 5505   4.459  20.602  12.671
33890W        W 5506  33.962   2.502   2.227
33891W        W 5507   5.823  31.313  14.960
33892W        W 5508  20.573  38.554   1.240
33893W        W 5509  14.256  25.900   4.071
33894W        W 5510   9.800  17.737   2.789
33895W        W 5511  29.837   7.397   1.343
33896W        W 5512  23.328  24.974   2.732
33897W        W 5513  24.368  21.174  10.676
33898W        W 5514   5.498  12.720  12.410
33899W        W 5515  19.707  12.054   1.809
33900W        W 5516   4.407   2.644  13.540
33901W        W 5517  36.049  11.022  11.990
33902W        W 5518  12.156  19.798  14.339
33903W        W 5519  26.991  25.098  11.502
33904W        W 5520  14.929  27.168   0.140
33905W        W 5521  11.600  26.593   2.834
33906W        W 5522  12.684  16.355   3.883
33907W        W 5523   8.948  43.333   1.257
33908W        W 5524  41.556  43.013   2.314
33909W        W 5525  17.470  44.207   3.572
33910W        W 5526   2.972   1.980  14.904
33911W        W 5527  44.738   9.676   3.885
33912W        W 5528  44.409  16.207   1.733
33913W        W 5529  21.718  28.407  12.025
33914W        W 5530  23.801  23.302  14.294
33915W        W 5531  38.784  18.625  11.183
33916W        W 5532  33.900  17.266  11.539
33917W        W 5533  39.005  23.097   0.693
33918W        W 5534   7.340  33.174   1.229
33919W        W 5535   3.210  37.783   1.352
33920W        W 5536  20.679  10.733   3.804
33921W        W 5537  10.093  40.016   3.330
33922W        W 5538  27.024  14.381  13.790
33923W        W 5539  21.261  12.177   3.203
33924W        W 5540  24.404   2.296   1.400
33925W        W 5541   2.303  18.657   1.621
33926W        W 5542  25.563  36.378  11.365
33927W        W 5543   9.269  16.127   3.772
33928W        W 5544   8.188  10.427  14.400
33929W        W 5545  26.545  15.240   4.914
33930W        W 5546  30.136   8.939  13.422
33931W        W 5547   5.982  13.513  13.243
33932W        W 5548  13.687  17.139  11.576
33933W        W 5549  32.812  18.089  11.007
33934W        W 5550  32.762  29.623  11.648
33935W        W 5551  26.975  18.811  13.354
33936W        W 5552  37.313   3.947  11.514
33937W        W 5553  44.459  25.157   0.222
33938W        W 5554  35.931  25.422   0.914
33939W        W 5555   3.352  35.570  14.015
33940W        W 5556  20.284  31.888   1.346
33941W        W 5557  40.001  24.840  11.145
33942W        W 5558  13.066  38.488  14.379
33943W        W 5559   4.517  34.257   4.990
33944W        W 5560  30.856  14.445   4.256
33945W        W 5561  28.305   5.375   2.314
33946W        W 5562   1.269  13.342   1.402
33947W        W 5563  33.591  18.356   1.751
33948W        W 5564  39.166  24.399  11.321
33949W        W 5565  18.793  20.932  14.044
33950W        W 5566   5.492  29.000   3.733
33951W        W 5567  32.342  31.813  10.270
33952W        W 5568  31.659  40.849   4.163
33953W        W 5569   9.338   8.261   2.762
33954W        W 5570  27.525  34.635  13.351
33955W        W 5571  34.877   8.779   2.869
33956W        W 5572   1.500   2.669   3.895
33957W        W 5573  11.888  25.691   3.266
33958W        W 5574  16.841  38.582   1.715
33959W        W 5575  34.674  30.138   1.429
33960W        W 5576   7.667  41.052   3.829
33961W        W 5577  24.102  37.880  10.639
33962W        W 5578   4.924  38.409   4.307
33963W        W 5579  19.116  39.439  12.801
33964W        W 5580  15.731  11.828  10.773
33965W        W 5581  19.550  30.081   4.308
33966W        W 5582  25.467  20.066   1.183
33967W        W 5583  40.567  26.438   3.654
33968W        W 5584   8.874  19.571   0.474
33969W        W 5585   8.215  16.098  10.653
33970W        W 5586  12.524  38.031  13.466
33971W        W 5587  15.535  23.692   4.157
33972W        W 5588  24.557  12.204   4.740
33973W        W 5589   7.364   3.253   4.034
33974W        W 5590  39.377   1.703   2.511
33975W        W 5591  20.743   5.249  13.021
33976W        W 5592  11.075  34.119   1.387
33977W        W 5593  11.982  23.755  11.970
33978W        W 5594  27.708  20.268   1.771
33979W        W 5595  34.544  38.737  11.668
33980W        W 5596   9.255  31.438   4.647
33981W        W 5597  43.741  40.873  12.023
33982W        W 5598  32.893  29.117   2.868
33983W        W 5599   8.803   0.675  11.028
33984W        W 5600  40.744  30.711   0.859
33985W        W 5601  14.227  36.813   0.716
33986W        W 5602  23.466   1.174  12.597
33987W        W 5603  31.503  12.199   3.904
33988W        W 5604  28.680  43.944   2.260
33989W        W 5605   5.079  10.242   2.128
33990W        W 5606  34.944  17.040   0.403
33991W        W 5607  23.273  38.849  14.504
33992W        W 5608  26.878  43.493   0.469
33993W        W 5609  23.267  35.995   2.798
33994W        W 5610  17.940   6.192  11.446
33995W        W 5611  27.611  23.217   3.286
33996W        W 5612   0.895  31.604  13.048
33997W        W 5613  35.012  37.911  13.921
33998W        W 5614  25.566  25.870  11.898
33999W        W 5615  14.792  39.609   3.384
34000W        W 5616  20.183  20.572  14.764
34001W        W 5617  24.272  13.234  10.517
34002W        W 5618  15.277   3.387  13.330
34003W        W 5619  42.747   0.932   0.967
34004W        W 5620   3.781  18.175   0.474
34005W        W 5621  29.239  11.320   0.239
34006W        W 5622  38.952  10.968  12.076
34007W        W 5623  29.150  42.251   1.628
34008W        W 5624  30.170  33.539  11.526
34009W        W 5625  24.444  16.591   4.054
34010W        W 5626  35.904   7.650  12.836
34011W        W 5627   4.484  30.869   1.226
34012W        W 5628  33.983  29.667  13.266
34013W        W 5629  39.546  43.283   3.209
34014W        W 5630  10.390  43.271  14.339
34015W        W 5631   3.253  14.404   0.655
34016W        W 5632  20.200  17.795   3.948
34017W        W 5633  16.846  19.696  10.853
34018W        W 5634   3.539  15.745  13.086
34019W        W 5635   9.343  21.979  11.224
34020W        W 5636  21.995  31.491  10.827
34021W        W 5637  44.352  17.231   3.288
34022W        W 5638  13.304  15.065  13.734
34023W        W 5639  42.427  35.567   4.444
34024W        W 5640  17.252   8.914   2.184
34025W        W 5641   1.955  12.524  12.864
34026W        W 5642  44.770  14.173   1.416
34027W        W 5643  42.858  38.534  12.595
34028W        W 5644  38.479  24.993  13.866
34029W        W 5645   1.482  39.821  14.999
34030W        W 5646  32.725  39.090  10.746
34031W        W 5647  24.590   1.550  11.946
34032W        W 5648  11.881  11.793   1.718
34033W        W 5649  33.855  21.718   2.537
34034W        W 5650  29.158  37.098  11.344
34035W        W 5651   3.791  31.353   2.783
34036W        W 5652  38.393  31.355  11.065
34037W        W 5653  27.951   4.765  11.664
34038W        W 5654  24.902   6.884   0.940
34039W        W 5655  17.682  24.928   1.239
34040W        W 5656  43.829  22.576   3.956
34041W        W 5657  32.476  13.882  11.719
34042W        W 5658   3.453  27.816   3.448
34043W        W 5659  26.690   9.995   1.922
34044W        W 5660  15.634  24.048  11.125
34045W        W 5661  37.656  42.780  13.846
34046W        W 5662   1.314  25.629  13.525
34047W        W 5663   7.530  28.349  10.576
34048W        W 5664   3.845   4.483   2.704
34049W        W 5665   7.315  13.573   0.897
34050W        W 5666  12.837  43.140   2.156
34051W        W 5667  38.580  21.715  13.221
34052W        W 5668   0.926   6.329   3.635
34053W        W 5669  20.820  31.106   1.424
34054W        W 5670  26.486   8.654  14.434
34055W        W 5671  36.309  42.076  13.916
34056W        W 5672  23.575  11.898  12.320
34057W        W 5673  36.050   3.432   0.852
34058W        W 5674  42.773  14.248   0.024
34059W        W 5675  14.272  23.731  12.990
34060W        W 5676  13.418   0.988   0.302
34061W        W 5677  26.929  28.172   2.365
34062W        W 5678  15.870  30.972   4.685
34063W        W 5679  44.963  18.612   4.529
34064W        W 5680  10.691  21.333   1.187
34065W        W 5681   1.843  16.916  11.599
34066W        W 5682  44.259  18.773  12.091
34067W        W 5683  25.068   4.810   4.394
34068W        W 5684  25.219  33.893   3.323
34069W        W 5685  32.178  16.516   4.164
34070W        W 5686   9.185  37.121  11.006
34071W        W 5687  35.677   5.744   3.804
34072W        W 5688  33.521  32.510  10.717
34073W        W 5689  28.489  21.183   3.086
34074W        W 5690   6.208  20.651  13.027
34075W        W 5691  23.035  13.626  13.996
34076W        W 5692  40.423   5.482   1.855
34077W        W 5693   5.882  29.313  13.104
34078W        W 5694   2.798   4.635   1.188
34079W        W 5695  44.918  15.651  10.640
34080W        W 5696  12.956  22.629  11.062
34081W        W 5697  16.636  36.426   4.617
34082W        W 5698  42.862   8.253   1.440
34083W        W 5699  36.004  40.379   0.216
34084W        W 5700  29.532   7.582  14.868
34085W        W 5701  22.588  14.415   0.698
34086W        W 5702   2.349  44.081  14.736
34087W        W 5703  18.712  28.210  10.993
34088W        W 5704  18.677  38.593   4.735
34089W        W 5705  34.021   2.196  11.925
34090W        W 5706   8.804   1.841  14.264
34091W        W 5707   5.559  19.504  12.095
34092W        W 5708   0.616   7.341  12.899
34093W        W 5709  31.241   5.452  12.564
34094W        W 5710   8.985  37.804  10.576
34095W        W 5711  24.569  42.446  11.991
34096W        W 5712  30.891  11.192   2.772
34097W        W 5713  29.096   4.380  10.382
34098W        W 5714  27.225  15.322  14.876
34099W        W 5715   9.653   7.956  11.996
34100W        W 5716  15.647   4.898  10.636
34101W        W 5717  10.335  40.993   0.080
34102W        W 5718  28.518  44.563  11.469
34103W        W 5719  44.559  11.857  14.799
34104W        W 5720  43.970  34.032   1.504
34105W        W 5721  12.032  29.587  12.434
34106W        W 5722  13.525  15.433  12.017
34107W        W 5723  10.613  21.105   3.812
34108W        W 5724   4.764  10.108   1.739
34109W        W 5725  36.539  19.725  13.195
34110W        W 5726   6.767   2.458  14.277
34111W        W 5727  19.369   9.328   2.800
34112W        W 5728  34.451   9.657  13.444
34113W        W 5729  19.756  42.405   9.763
34114W        W 5730  32.656  34.067   4.044
34115W        W 5731  17.144  37.693   4.688
34116W        W 5732  32.866  33.150  12.868
34117W        W 5733  31.210  31.971   4.872
34118W        W 5734  42.959   8.638  12.024
34119W        W 5735  41.839  19.989  10.751
34120W        W 5736  42.427  12.069  14.426
34121W        W 5737  16.801  26.662   4.123
34122W        W 5738  41.831   0.563   0.467
34123W        W 5739  35.206  13.186   3.447
34124W        W 5740  11.090   7.772  11.513
34125W        W 5741   9.866  31.142   0.378
34126W        W 5742   6.134   0.020   3.710
34127W        W 5743  15.994  43.377   2.735
34128W        W 5744   8.893  37.914  14.795
34129W        W 5745   3.931  26.141   0.763
34130W        W 5746  40.369  11.166   0.376
34131W        W 5747  43.651   2.489  12.364
34132W        W 5748  44.855  39.124  12.937
34133W        W 5749  23.654  44.062   4.198
34134W        W 5750  23.604   0.891   4.349
34135W        W 5751  32.938  27.997  14.137
34136W        W 5752  12.642  38.014  11.972
34137W        W 5753  24.176   5.586  12.904
34138W        W 5754  40.998  41.328  12.823
34139W        W 5755   3.200  11.288   1.763
34140W        W 5756  31.003  34.183   0.858
34141W        W 5757  23.287  10.756  12.208
34142W        W 5758  16.332  21.214  14.306
34143W        W 5759  21.157  22.982  11.970
34144W        W 5760  38.429  32.444  14.378
34145W        W 5761  17.202  13.011  13.464
34146W        W 5762  16.275  12.583  11.589
34147W        W 5763  35.686  42.814  14.043
34148W        W 5764  22.064   0.725  11.228
34149W        W 5765   0.468  11.711   0.790
34150W        W 5766  39.305   3.204  14.347
34151W        W 5767  17.849  38.303   1.800
34152W        W 5768  11.922  16.646  13.015
34153W        W 5769  17.081   4.802  14.235
34154W        W 5770  12.296  27.327  13.197
34155W        W 5771  14.720  30.426   2.851
34156W        W 5772   3.851   8.668  10.668
34157W        W 5773  38.082  16.739  14.584
34158W        W 5774  35.023  21.265   2.849
34159W        W 5775  37.960  36.720  14.071
34160W        W 5776  26.582   8.164   2.430
34161W        W 5777  43.759  22.925  12.440
34162W        W 5778  34.074   9.366  11.536
34163W        W 5779  16.531  43.793   0.988
34164W        W 5780  15.512  20.354  12.518
34165W        W 5781  19.536  41.636   2.317
34166W        W 5782   4.907  37.018  14.320
34167W        W 5783  17.588  40.976  13.745
34168W        W 5784  23.193   0.195  14.017
34169W        W 5785  20.017   0.412   1.395
34170W        W 5786   0.197  21.979   4.403
34171W        W 5787  37.667  28.625   0.645
34172W        W 5788  19.081  44.248   1.456
34173W        W 5789  31.585  33.935   2.842
34174W        W 5790  10.264   0.359   0.771
34175W        W 5791  25.365  27.145  14.893
34176W        W 5792  39.206  24.207  12.800
34177W        W 5793  27.872  32.936  11.499
34178W        W 5794  13.665  11.702   0.792
34179W        W 5795  29.590  34.459   4.600
34180W        W 5796  11.872  42.311  13.010
34181W        W 5797   2.408  44.092   5.061
34182W        W 5798  21.358  14.591  11.226
34183W        W 5799  21.034  13.625   3.325
34184W        W 5800  29.060  19.733  12.010
34185W        W 5801  36.478  42.428  13.143
34186W        W 5802  17.804  12.276  14.860
34187W        W 5803  40.902   8.745   3.277
34188W        W 5804   8.843  10.594  12.103
34189W        W 5805  26.387   9.208   3.323
34190W        W 5806  15.339  41.155  12.625
34191W        W 5807   8.064  39.049  12.916
34192W        W 5808   8.667  39.970   4.696
34193W        W 5809   2.257   5.240  11.645
34194W        W 5810  40.753   9.287   0.271
34195W        W 5811  34.953  19.350  11.597
34196W        W 5812  10.299  39.344  12.076
34197W        W 5813  40.860  40.785  12.011
34198W        W 5814   9.933  26.624  10.299
34199W        W 5815   6.339   5.950   1.817
34200W        W 5816  44.529  13.601  14.384
34201W        W 5817  24.566  18.823   4.563
34202W        W 5818  28.350   9.226  12.441
34203W        W 5819   2.868  35.265  14.527
34204W        W 5820  42.156  38.458  10.172
34205W        W 5821  18.688  17.270   5.093
34206W        W 5822   4.102  11.064   3.282
34207W        W 5823   9.941  40.455  10.971
34208W        W 5824   1.970  44.889  11.493
34209W        W 5825  18.264   3.822  13.024
34210W        W 5826   6.411  11.493  12.464
34211W        W 5827   5.597  15.872  14.539
34212W        W 5828  32.206  44.252   2.158
34213W        W 5829  26.230  18.463   2.220
34214W        W 5830  19.033  43.823  13.757
34215W        W 5831  44.902   8.088  14.478
34216W        W 5832  21.307   8.819   1.247
34217W        W 5833  33.896  42.237   0.102
34218W        W 5834  15.795  24.765   4.193
34219W        W 5835  40.779   0.571  11.136
34220W        W 5836  31.510  25.291   0.031
34221W        W 5837   2.243   2.483   1.751
34222W        W 5838  42.020  12.823   2.627
34223W        W 5839  31.941  12.251  13.451
34224W        W 5840  35.224  12.643  10.798
34225W        W 5841  19.723  17.737   4.661
34226W        W 5842  43.916   9.662  13.361
34227W        W 5843  42.534  29.504   2.702
34228W        W 5844  10.148  40.879  11.632
34229W        W 5845   8.911  41.554  10.491
34230W        W 5846   9.694  16.232   2.176
34231W        W 5847   6.962  38.485   4.524
34232W        W 5848  35.787   1.423  14.259
34233W        W 5849  23.799  20.948   2.653
34234W        W 5850  41.479  33.936   4.188
34235W        W 5851  11.432   5.386  12.392
34236W        W 5852  29.101  37.395   4.138
34237W        W 5853  30.511  38.415   4.550
34238W        W 5854  11.686  24.476   4.669
34239W        W 5855  33.479  33.716  13.349
34240W        W 5856   2.403  30.625  12.154
34241W        W 5857  17.607   8.403   1.375
34242W        W 5858   5.046  11.123  12.575
34243W        W 5859   5.144  22.586   0.964
34244W        W 5860  14.612   7.905  12.516
34245W        W 5861  11.833  37.958   1.346
34246W        W 5862  39.875  18.953   0.849
34247W        W 5863  42.005  27.356   3.206
34248W        W 5864  17.548  44.536   2.700
34249W        W 5865   5.416  35.207   0.266
34250W        W 5866  38.338  40.000   4.572
34251W        W 5867  29.065  15.498  14.683
34252W        W 5868  40.049  19.708  12.922
34253W        W 5869  33.860  14.594   0.261
34254W        W 5870  43.745   5.813  11.136
34255W        W 5871  24.126  27.933  10.374
34256W        W 5872  30.131   6.004  11.679
34257W        W 5873  15.228  24.190   3.154
34258W        W 5874  23.287  11.821   4.319
34259W        W 5875  28.512  36.160   3.608
34260W        W 5876  44.414  37.605   2.378
34261W        W 5877  43.437  28.675   2.386
34262W        W 5878   2.952  12.306   2.884
34263W        W 5879  27.197  20.499  10.763
34264W        W 5880  12.132  24.569   0.447
34265W        W 5881   3.412  20.533   4.799
34266W        W 5882  27.035  37.509  11.423
34267W        W 5883   9.951  24.639   3.862
34268W        W 5884  22.825   7.775  11.477
34269W        W 5885  18.631   3.499   2.882
34270W        W 5886  12.341   4.657   5.104
34271W        W 5887  37.891  40.648   4.597
34272W        W 5888   2.481  30.541  14.067
34273W        W 5889  14.716   4.171  13.606
34274W        W 5890  34.105  28.438  11.582
34275W        W 5891  10.328   0.208   4.922
34276W        W 5892  43.868  21.304   1.343
34277W        W 5893   4.570   4.440  13.486
34278W        W 5894  44.017  15.441   2.082
34279W        W 5895   2.961  33.986   4.124
34280W        W 5896  41.828  30.398  13.030
34281W        W 5897  18.214  10.112   0.269
34282W        W 5898  27.996  39.547   4.059
34283W        W 5899   8.436  31.774  13.996
34284W        W 5900  43.913  20.763  13.324
34285W        W 5901  43.337  42.013   2.772
34286W        W 5902   2.184  29.124   4.559
34287W        W 5903   3.653  24.516   3.144
34288W        W 5904   7.770  21.997   1.407
34289W        W 5905  30.771  27.717  10.696
34290W        W 5906  28.859  13.805  14.331
34291W        W 5907   9.644  25.254  11.977
34292W        W 5908  25.883  12.247   0.898
34293W        W 5909   7.117   4.311   2.679
34294W        W 5910   2.402   5.027   4.543
34295W        W 5911  25.538  29.040  10.762
34296W        W 5912  16.139  43.721  14.547
34297W        W 5913  31.624   5.714  13.463
34298W        W 5914  25.692  43.956  12.014
34299W        W 5915  44.982   8.070   0.009
34300W        W 5916   1.332   3.094   0.801
34301W        W 5917  34.136  10.680  11.693
34302W        W 5918  29.986  11.878   2.372
34303W        W 5919  16.128   5.348  12.980
34304W        W 5920  44.193  32.461  13.633
34305W        W 5921  12.864  25.283  13.832
34306W        W 5922  33.864  35.574   0.880
34307W        W 5923  30.843   2.406   0.448
34308W        W 5924   4.784   7.337  13.518
34309W        W 5925   4.755  11.188   1.761
34310W        W 5926  27.775  33.451   0.734
34311W        W 5927  18.631  40.408  12.066
34312W        W 5928   1.892  38.620   1.306
34313W        W 5929  33.905  33.018   1.741
34314W        W 5930  18.777  37.460  10.760
34315W        W 5931  37.285   6.182  10.732
34316W        W 5932  18.562  27.226  12.017
34317W        W 5933  42.975  22.810  12.669
34318W        W 5934  40.094  10.166   2.927
34319W        W 5935   5.271  32.421   2.218
34320W        W 5936   7.388  15.187   1.650
34321W        W 5937   9.470  21.524  14.190
34322W        W 5938  15.618   5.662  13.339
34323W        W 5939   2.267   6.096  14.902
34324W        W 5940  17.064   6.635   4.254
34325W        W 5941  15.614  27.459  13.837
34326W        W 5942  41.616  24.573   0.284
34327W        W 5943  17.536  13.538  10.783
34328W        W 5944   7.351  43.679   4.462
34329W        W 5945  25.500  35.876  13.115
34330W        W 5946  13.872  11.331   3.440
34331W        W 5947  25.949  40.550   1.644
34332W        W 5948   5.289   6.901  10.687
34333W        W 5949  39.702  37.277   2.320
34334W        W 5950  13.341   6.899  11.101
34335W        W 5951  15.070   3.218   1.868
34336W        W 5952  24.722  14.003   4.956
34337W        W 5953  44.313  14.060  10.074
34338W        W 5954  33.773  15.095  13.548
34339W        W 5955  11.323  35.925   4.639
34340W        W 5956   3.787  41.178  12.101
34341W        W 5957  37.897   3.405  14.297
34342W        W 5958  27.381   1.241  11.565
34343W        W 5959  39.345  16.550   1.046
34344W        W 5960  17.058  12.635  12.123
34345W        W 5961  29.713  26.500   1.859
34346W        W 5962   4.751  10.210   0.825
34347W        W 5963  20.642  14.669  10.717
34348W        W 5964  30.563  36.542   4.537
34349W        W 5965  26.396  10.047  11.150
34350W        W 5966  24.689   4.201  12.560
34351W        W 5967  43.713  32.677   2.404
34352W        W 5968  31.575  17.653  12.850
34353W        W 5969  40.538  25.532  12.257
34354W        W 5970   7.302  11.384   3.831
34355W        W 5971  30.924  23.163   2.231
34356W        W 5972  30.412  38.990   0.916
34357W        W 5973  26.673  26.583  11.128
34358W        W 5974  17.344  16.406   2.838
34359W        W 5975   0.033  21.265  12.215
34360W        W 5976  23.797  16.395   0.115
34361W        W 5977   1.809  43.382  13.920
34362W        W 5978   5.985  30.156  12.201
34363W        W 5979  25.981  43.879   4.924
34364W        W 5980  31.989   6.018   4.065
34365W        W 5981   3.354  26.686   2.289
34366W        W 5982  11.368   0.399  12.741
34367W        W 5983  14.222  27.591   2.957
34368W        W 5984  12.614  12.714  12.566
34369W        W 5985   7.511  23.028  11.143
34370W        W 5986  14.550   8.772  10.781
34371W        W 5987  30.134  22.412  13.307
34372W        W 5988  24.891  30.084   1.172
34373W        W 5989  25.796  10.454  14.932
34374W        W 5990  14.768  28.494  10.615
34375W        W 5991  28.886  16.622   3.710
34376W        W 5992  30.894   7.117  12.033
34377W        W 5993  16.496  10.924   2.201
34378W        W 5994  34.456  24.148   0.817
34379W        W 5995  34.983  12.692   2.636
34380W        W 5996  33.519   8.839  12.692
34381W        W 5997  35.109  25.534  13.805
34382W        W 5998  32.112  18.252   3.494
34383W        W 5999   7.806  21.161   4.619
34384W        W 6000  41.302  35.546   4.355
34385W        W 6001   4.637  22.541   4.982
34386W        W 6002  21.031  40.981  13.413
34387W        W 6003  13.525   3.976  12.797
34388W        W 6004  32.305  18.176  11.081
34389W        W 6005  20.340  17.690   1.230
34390W        W 6006  36.081  20.711   0.101
34391W        W 6007  17.660  28.453  14.840
34392W        W 6008  11.513  20.704  11.037
34393W        W 6009   6.666  22.314  14.437
34394W        W 6010  43.422  12.865   3.158
34395W        W 6011   7.445  15.826   0.268
34396W        W 6012  28.663  38.330  14.910
34397W        W 6013   3.752  29.235  13.973
34398W        W 6014  36.504  24.116   4.886
34399W        W 6015  26.717   8.909   2.113
34400W        W 6016  36.772  39.914  11.017
34401W        W 6017  13.553  35.939  13.655
34402W        W 6018   5.372  12.877  14.905
34403W        W 6019   7.353  43.378  10.685
34404W        W 6020  23.316   7.994  13.408
34405W        W 6021  13.932  22.744  11.283
34406W        W 6022  21.098  37.268  11.765
34407W        W 6023   2.426  42.217   0.484
34408W        W 6024  39.082  38.979  10.489
34409W        W 6025  43.762  34.992  10.172
34410W        W 6026  43.448  26.374  10.639
34411W        W 6027   9.154  40.914  10.563
34412W        W 6028  25.027   8.851  14.445
34413W        W 6029  23.128  38.826  10.390
34414W        W 6030  17.979  22.270  11.979
34415W        W 6031  12.706  35.573   1.936
34416W        W 6032  24.977  13.063  11.571
34417W        W 6033  17.776  33.107  11.241
34418W        W 6034   3.880  12.118   2.369
34419W        W 6035  16.226  27.553  11.016
34420W        W 6036  18.276   6.927   3.799
34421W        W 6037  29.784  30.608   4.229
34422W        W 6038  11.007  22.556  13.313
34423W        W 6039  34.600  33.835  13.476
34424W        W 6040  40.849   1.741   4.651
34425W        W 6041   6.710   0.783   2.597
34426W        W 6042   8.824   9.842   2.279
34427W        W 6043  38.325  15.831   0.527
34428W        W 6044   7.710  35.151   5.159
34429W        W 6045  37.796  39.956  13.026
34430W        W 6046   4.716  32.153  10.726
34431W        W 6047   0.003  34.344   0.475
34432W        W 6048  34.086  18.149   1.850
34433W        W 6049  28.619  21.857  10.919
34434W        W 6050  34.862  27.825  12.861
34435W        W 6051   8.796  36.394   2.553
34436W        W 6052  17.134  22.836  12.028
34437W        W 6053  42.589  43.519   4.508
34438W        W 6054  38.474   1.244   2.291
34439W        W 6055  42.557  17.568   1.370
34440W        W 6056  39.277  16.530  11.173
34441W        W 6057  26.024  44.476   4.262
34442W        W 6058  25.652  18.222   3.232
34443W        W 6059   0.311  10.202   4.400
34444W        W 6060  34.928   7.826  10.877
34445W        W 6061   6.977  12.055   2.840
34446W        W 6062  35.371  35.527   1.331
34447W        W 6063  43.075  28.637   4.218
34448W        W 6064  32.784  30.620  14.437
34449W        W 6065  28.614   3.657   4.644
34450W        W 6066  15.147  31.678   1.716
34451W        W 6067  10.333  37.994   4.625
34452W        W 6068  28.863  29.705   5.030
34453W        W 6069  24.454   0.551   1.751
34454W        W 6070  24.988  37.338   4.482
34455W        W 6071  32.478   4.802   2.834
34456W        W 6072  38.350  29.797  12.968
34457W        W 6073  40.311  22.405  10.713
34458W        W 6074  24.639   2.751  13.831
34459W        W 6075  35.000  31.432   0.445
34460W        W 6076  42.853  25.920  13.362
34461W        W 6077  33.097   5.291   4.085
34462W        W 6078  18.701  17.300   0.088
34463W        W 6079  16.545   7.035   4.146
34464W        W 6080  18.251   9.187  11.113
34465W        W 6081  18.172  40.841  14.575
34466W        W 6082  11.731   7.785   4.412
34467W        W 6083  40.585   2.343  12.919
34468W        W 6084  23.925  31.093  13.525
34469W        W 6085   6.404  24.033  12.079
34470W        W 6086  41.312  10.286  13.932
34471W        W 6087  39.419   6.549   1.095
34472W        W 6088  30.905   6.682  14.294
34473W        W 6089  25.766  31.008   2.213
34474W        W 6090   3.034  36.502  13.891
34475W        W 6091  30.892  20.830  13.450
34476W        W 6092  25.517  35.422   4.186
34477W        W 6093  34.377  31.200  14.267
34478W        W 6094  41.465  14.759   2.672
34479W        W 6095  23.236  24.882  11.149
34480W        W 6096   4.421  30.471   3.771
34481W        W 6097  34.943  37.178   5.053
34482W        W 6098  24.939   4.358  12.116
34483W        W 6099   1.387   9.165   4.639
34484W        W 6100   4.885  42.041  13.974
34485W        W 6101   0.449  30.766  14.941
34486W        W 6102  36.451  27.088  12.067
34487W        W 6103  13.035  21.734   4.747
34488W        W 6104  21.546  31.995   4.561
34489W        W 6105  29.565  11.594   1.733
34490W        W 6106  16.087  38.571   3.377
34491W        W 6107  24.797  19.668   1.394
34492W        W 6108  31.318   8.202  13.774
34493W        W 6109  44.971  44.350  13.811
34494W        W 6110   8.453  15.741  13.075
34495W        W 6111  23.957  14.707   0.789
34496W        W 6112  35.533   0.341  11.081
34497W        W 6113   7.626  12.846   1.834
34498W        W 6114  10.448  14.294   2.154
34499W        W 6115   4.709  16.419   3.809
34500W        W 6116  30.515  37.862  14.631
34501W        W 6117   1.737  24.961   5.142
34502W        W 6118  22.227  12.715   2.393
34503W        W 6119   3.168  30.560   0.825
34504W        W 6120  37.326  37.801  12.619
34505W        W 6121  35.042  26.252  12.020
34506W        W 6122  15.037  17.112   2.750
34507W        W 6123  41.925  27.053   0.897
34508W        W 6124  44.787   4.915  12.843
34509W        W 6125  27.987  28.108  13.404
34510W        W 6126  30.641   6.856   1.240
34511W        W 6127  15.871  25.478   2.158
34512W        W 6128   2.997  38.981   3.267
34513W        W 6129  13.995  28.906  11.698
34514W        W 6130   3.706  10.738  12.519
34515W        W 6131   8.353  39.737  13.617
34516W        W 6132   2.947  27.609  13.560
34517W        W 6133  23.957  44.586   0.729
34518W        W 6134  38.844  41.159   2.803
34519W        W 6135  25.425  13.324   0.963
34520W        W 6136  39.868  29.910  10.651
34521W        W 6137  32.973  35.467  11.631
34522W        W 6138  43.284  30.012   0.800
34523W        W 6139   1.857  17.127   1.214
34524W        W 6140  18.793   4.732   4.264
34525W        W 6141  26.263  31.169  12.874
34526W        W 6142   8.047  10.360   2.412
34527W        W 6143   8.296  15.076   0.697
34528W        W 6144   7.228  21.571   3.698
34529W        W 6145   9.228  38.977   3.912
34530W        W 6146   2.595   0.974   4.641
34531W        W 6147  42.771  23.383   3.355
34532W        W 6148  14.768  16.640   4.842
34533W        W 6149  23.090   1.519  12.486
34534W        W 6150  19.672   5.480  14.317
34535W        W 6151  34.497  18.124   4.574
34536W        W 6152  26.830  30.137   1.186
34537W        W 6153  40.501  29.238   0.335
34538W        W 6154  16.859  19.545  10.366
34539W        W 6155  40.377  13.573   0.908
34540W        W 6156   3.431  40.045   2.247
34541W        W 6157  37.311  12.155  12.999
34542W        W 6158  33.684  17.514   0.755
34543W        W 6159  37.494   2.225   0.442
34544W        W 6160  39.416  34.957   2.237
34545W        W 6161  31.928   3.720   3.846
34546W        W 6162   4.864  27.873   2.417
34547W        W 6163  39.505  30.091   3.653
34548W        W 6164  19.156   1.560  12.495
34549W        W 6165  27.506   0.337   0.262
34550W        W 6166  29.447  24.715  12.564
34551W        W 6167  33.091  43.742   1.131
34552W        W 6168  41.870  40.778   3.939
34553W        W 6169   8.600  38.516  11.141
34554W        W 6170  21.096  33.111   4.806
34555W        W 6171  25.890  34.889   0.828
34556W        W 6172  15.474  26.062   0.047
34557W        W 6173  22.264   3.276  10.525
34558W        W 6174  34.805   7.455   2.413
34559W        W 6175  31.896   7.985   0.710
34560W        W 6176  25.209  31.978  11.112
34561W        W 6177   2.996  40.466  12.896
34562W        W 6178  37.146  31.492  11.439
34563W        W 6179  42.249  33.544  11.574
34564W        W 6180   1.376   5.904  10.672
34565W        W 6181  15.262  14.167   4.776
34566W        W 6182  41.269  12.366   1.292
34567W        W 6183   2.371  35.998   4.083
34568W        W 6184  29.618  44.613  14.940
34569W        W 6185   5.095  16.616   0.948
34570W        W 6186  32.043  40.334   4.542
34571W        W 6187  13.345  16.576  14.002
34572W        W 6188  36.738   6.724   4.836
34573W        W 6189  38.527  17.642  14.356
34574W        W 6190   1.750  29.567  12.164
34575W        W 6191   6.642   1.993  10.740
34576W        W 6192   7.164  26.869   4.181
34577W        W 6193  39.012  19.263  13.296
34578W        W 6194  24.997  34.938  13.803
34579W        W 6195  26.905  27.990   4.761
34580W        W 6196  43.174  17.040   1.745
34581W        W 6197   2.880   9.433   1.967
34582W        W 6198  27.939  17.724  14.472
34583W        W 6199   1.478  39.084  11.987
34584W        W 6200  23.543  41.932   1.269
34585W        W 6201  12.266  36.129  14.532
34586W        W 6202   3.894  43.999   2.141
34587W        W 6203   3.345   1.456   0.831
34588W        W 6204  28.608  33.544   0.946
34589W        W 6205  37.126  15.658   1.489
34590W        W 6206  38.879   5.638   0.737
34591W        W 6207  33.839  12.076   2.762
34592W        W 6208  11.126  36.488  12.117
34593W        W 6209   9.807   2.914  12.860
34594W        W 6210  39.641  15.286  14.273
34595W        W 6211   5.784  26.452  12.144
34596W        W 6212  25.126  38.134   0.849
34597W        W 6213  43.546  21.152  10.347
34598W        W 6214   4.264  22.442  11.801
34599W        W 6215  31.378  36.141  14.357
34600W        W 6216  37.683  24.136  12.576
34601W        W 6217   3.023  24.727  10.667
34602W        W 6218  25.939   8.355  11.520
34603W        W 6219  27.032  13.208  11.544
34604W        W 6220  38.515  15.897  14.359
34605W        W 6221  29.452  31.063   3.090
34606W        W 6222  44.831  32.612  14.892
34607W        W 6223  24.957   5.948  14.949
34608W        W 6224   4.209  18.206  13.838
34609W        W 6225  24.224   6.415   2.173
34610W        W 6226  28.704  19.633  14.087
34611W        W 6227  34.022  13.662   2.492
34612W        W 6228   6.181  16.152   1.354
34613W        W 6229  14.974  33.058  14.085
34614W        W 6230  42.514  44.247  10.793
34615W        W 6231  33.119   4.725   1.213
34616W        W 6232  39.875  29.573   2.450
34617W        W 6233   1.980  13.657  12.992
34618W        W 6234  15.551  14.177  14.503
34619W        W 6235   0.541  21.660   4.581
34620W        W 6236  32.984  13.155   3.400
34621W        W 6237  18.609  14.155   1.928
34622W        W 6238  44.647  20.746   2.788
34623W        W 6239  19.309  24.951  11.130
34624W        W 6240  29.983   0.751   1.879
34625W        W 6241  38.359   1.747   3.313
34626W        W 6242  27.170  23.286   0.327
34627W        W 6243  21.834  22.233  10.652
34628W        W 6244   5.778  13.340  11.558
34629W        W 6245  32.509  29.581   1.732
34630W        W 6246  44.243  27.066  12.055
34631W        W 6247  26.660   1.519  13.525
34632W        W 6248   1.699  22.576   3.132
34633W        W 6249  35.123  33.419   1.853
34634W        W 6250   2.737  37.988   2.712
34635W        W 6251  23.875  33.181   1.955
34636W        W 6252  24.676   0.738   1.302
34637W        W 6253  25.489  44.515   4.282
34638W        W 6254  16.323  20.098   2.840
34639W        W 6255   4.207  21.279  13.824
34640W        W 6256  39.713   6.487   3.906
34641W        W 6257   1.204  15.244   4.546
34642W        W 6258   8.345  26.937   1.653
34643W        W 6259  26.906   1.309   4.483
34644W        W 6260  25.269  33.597  13.301
34645W        W 6261  37.050  36.510  10.723
34646W        W 6262  24.991  26.972  12.610
34647W        W 6263  38.293  19.381   0.289
34648W        W 6264  41.560  26.220  10.513
34649W        W 6265  31.476  40.984  10.729
34650W        W 6266  40.357  15.990   2.365
34651W        W 6267  38.077  30.022  12.547
34652W        W 6268  25.723  27.147   2.325
34653W        W 6269   3.198  33.272  12.106
34654W        W 6270  10.149   4.424   0.906
34655W        W 6271  19.776  19.111  10.468
34656W        W 6272  14.657  33.519   2.379
34657W        W 6273   7.858  31.223  10.459
34658W        W 6274  23.959   4.023  11.636
34659W        W 6275  44.725  38.435  13.472
34660W        W 6276   4.687  18.063   4.306
34661W        W 6277  22.644  18.991  10.195
34662W        W 6278  40.393  22.015  12.562
34663W        W 6279  44.937  14.649   1.266
34664W        W 6280  38.984   6.754   1.853
34665W        W 6281  32.979  24.901  12.524
34666W        W 6282  30.872   3.309   3.249
34667W        W 6283  17.045  21.514   0.773
34668W        W 6284  35.824  18.344   3.551
34669W        W 6285  34.410   9.679  10.515
34670W        W 6286   4.215   2.292   1.788
34671W        W 6287  19.985  33.397   3.752
34672W        W 6288  17.021  44.912  11.628
34673W        W 6289  18.118  27.988   3.602
34674W        W 6290  26.506  19.063   4.783
34675W        W 6291  26.891   0.595  14.352
34676W        W 6292   8.189  34.637  11.557
34677W        W 6293   8.234  43.678   1.894
34678W        W 6294   4.698   7.897  14.435
34679W        W 6295  20.195  34.071  11.908
34680W        W 6296  37.599  12.821  10.585
34681W        W 6297  28.008  18.078   3.000
34682W        W 6298  16.806  17.093   0.017
34683W        W 6299   0.432  33.343   4.123
34684W        W 6300   4.735   6.183  10.760
34685W        W 6301  38.908  30.619   4.305
34686W        W 6302  14.688  33.985  11.542
34687W        W 6303  27.938  25.721  12.073
34688W        W 6304  42.919  43.009  11.961
34689W        W 6305  20.317  32.397   4.758
34690W        W 6306  35.361   4.187   0.775
34691W        W 6307  24.765  20.214   3.225
34692W        W 6308  34.932  19.216  12.556
34693W        W 6309   8.788  39.592  10.535
34694W        W 6310  25.183  19.350  11.912
34695W        W 6311   4.867  33.130   4.441
34696W        W 6312   4.311  14.618   4.353
34697W        W 6313  20.146  26.813   0.899
34698W        W 6314  29.677  42.482  11.727
34699W        W 6315  31.590  15.299  13.957
34700W        W 6316  19.146  21.001  10.862
34701W        W 6317   7.764  28.874  14.436
34702W        W 6318   9.873  42.382  13.131
34703W        W 6319  21.511   2.097   4.603
34704W        W 6320  40.257  42.379   0.786
34705W        W 6321   6.622  17.228   0.478
34706W        W 6322  32.214  17.150  13.599
34707W        W 6323  12.763   3.871   4.142
34708W        W 6324  10.610  31.906   2.933
34709W        W 6325  35.474  12.907  12.912
34710W        W 6326  40.512  37.062  11.583
34711W        W 6327   0.795  43.014   4.949
34712W        W 6328  41.106   9.879   1.395
34713W        W 6329  32.387   9.289  12.494
34714W        W 6330   9.760   7.218  12.521
34715W        W 6331  22.945   1.705   3.836
34716W        W 6332  38.486  38.917   4.264
34717W        W 6333  11.402  19.566   4.737
34718W        W 6334  21.138  28.627  14.455
34719W        W 6335   0.543  17.748  12.300
34720W        W 6336  33.686   9.370  13.960
34721W        W 6337   0.639  24.122  12.452
34722W        W 6338  27.889  18.217   5.064
34723W        W 6339   4.769   8.905  11.301
34724W        W 6340   7.230  13.652   3.177
34725W        W 6341  13.272  36.806  13.508
34726W        W 6342   9.370  43.308   4.468
34727W        W 6343  43.047  23.045   3.641
34728W        W 6344  43.637  16.659  15.000
34729W        W 6345  32.132  44.251  10.891
34730W        W 6346  13.555  20.643  12.550
34731W        W 6347  26.500  44.400  12.966
34732W        W 6348  34.549   4.651   0.836
34733W        W 6349  26.154  29.257   2.735
34734W        W 6350  43.556  25.247   2.504
34735W        W 6351   4.479  30.414   1.451
34736W        W 6352  32.053  23.509   4.372
34737W        W 6353  42.489   9.667   4.737
34738W        W 6354  42.473  30.541  12.440
34739W        W 6355  36.448  26.895   2.762
34740W        W 6356  11.085  19.248   0.402
34741W        W 6357   0.337  44.741   0.367
34742W        W 6358  43.556   1.282   0.860
34743W        W 6359  36.907  35.992  14.263
34744W        W 6360   4.006  32.220   4.638
34745W        W 6361   3.355  35.220  14.749
34746W        W 6362  19.889  12.827  13.808
34747W        W 6363  16.851   5.279  14.939
34748W        W 6364   8.996  15.012  14.951
34749W        W 6365  41.572  16.259  10.676
34750W        W 6366  24.047  42.678   1.231
34751W        W 6367  16.911  19.664   3.792
34752W        W 6368  25.938   1.152   2.080
34753W        W 6369  31.534  39.119  14.698
34754W        W 6370  18.604  29.712   4.472
34755W        W 6371  27.299  13.739  10.392
34756W        W 6372  15.826   4.755   0.305
34757W        W 6373   4.300  11.320   0.337
34758W        W 6374  17.280  10.635  12.059
34759W        W 6375  33.080  16.664   1.836
34760W        W 6376   9.428  25.957   2.555
34761W        W 6377   5.903  21.729   4.168
34762W        W 6378  42.561  21.581  13.923
34763W        W 6379  20.031  39.116  11.595
34764W        W 6380  32.407   7.470   1.914
34765W        W 6381   8.207  18.476   3.651
34766W        W 6382  28.272  19.299   2.162
34767W        W 6383  28.019  37.853   4.343
34768W        W 6384  33.419  12.272  12.396
34769W        W 6385  15.083  27.568   2.670
34770W        W 6386  35.602  15.448  14.653
34771W        W 6387  30.057   0.766  14.097
34772W        W 6388  12.008  43.791  12.174
34773W        W 6389  42.531  43.868   3.234
34774W        W 6390  14.270  39.415  12.375
34775W        W 6391  27.490   4.925   2.368
34776W        W 6392  20.232   5.834  11.340
34777W        W 6393  40.315  27.152  12.610
34778W        W 6394  40.026  14.212  13.730
34779W        W 6395  24.815  40.436  11.561
34780W        W 6396  11.381  24.556  13.955
34781W        W 6397  27.467  24.952  10.647
34782W        W 6398   3.195  27.829   0.372
34783W        W 6399  21.106  41.799   3.150
34784W        W 6400   8.765  23.282   3.797
34785W        W 6401   2.665  20.568   4.408
34786W        W 6402  33.942  13.638   2.991
34787W        W 6403  42.950  24.196   4.150
34788W        W 6404  38.404  23.915  12.952
34789W        W 6405  37.508   8.620  13.474
34790W        W 6406  29.987  14.625   1.464
34791W        W 6407   5.995  34.543  12.118
34792W        W 6408  10.656  22.485  14.919
34793W        W 6409   5.006   1.652  13.166
34794W        W 6410  15.137   5.622  13.141
34795W        W 6411   6.802  34.974   3.261
34796W        W 6412   9.797  10.790  12.896
34797W        W 6413  34.977  34.084  10.699
34798W        W 6414   9.653  30.992  12.960
34799W        W 6415  32.103  43.820  12.146
34800W        W 6416  39.493   0.939   4.703
34801W        W 6417  23.688  17.606   0.383
34802W        W 6418  36.270  28.143   3.324
34803W        W 6419   4.760  42.840   1.428
34804W        W 6420  23.203   5.761   0.233
34805W        W 6421  15.422  20.978   4.063
34806W        W 6422  34.040  10.159  12.548
34807W        W 6423  25.584  34.008  13.373
34808W        W 6424  40.915  29.779   1.087
34809W        W 6425  26.652  11.439   1.226
34810W        W 6426  36.955  41.962  12.667
34811W        W 6427  31.203  29.048   2.892
34812W        W 6428   6.533  15.233  10.738
34813W        W 6429  41.740   2.322   1.468
34814W        W 6430  22.116   9.816  13.669
34815W        W 6431  11.875  34.222  12.831
34816W        W 6432  34.723  20.100   0.247
34817W        W 6433   0.722  25.648   2.119
34818W        W 6434   0.559  25.939  13.447
34819W        W 6435  11.484  21.275   0.097
34820W        W 6436  29.238   4.001   3.677
34821W        W 6437  21.644  11.138  11.132
34822W        W 6438  16.508  35.383  14.889
34823W        W 6439  42.615  15.359   4.283
34824W        W 6440  38.359   8.866   1.400
34825W        W 6441   4.746  17.115  10.126
34826W        W 6442  10.745  25.121   4.742
34827W        W 6443  14.439  28.455   3.648
34828W        W 6444  32.445  10.683   3.247
34829W        W 6445  17.546   0.540  13.950
34830W        W 6446  20.338  39.644   1.941
34831W        W 6447   4.668  13.197  10.722
34832W        W 6448   2.275  19.120   2.337
34833W        W 6449  38.511  31.114   3.130
34834W        W 6450  34.485  25.994   4.413
34835W        W 6451  42.408  27.209   2.887
34836W        W 6452  25.062   9.316  13.508
34837W        W 6453  23.260  13.383   3.173
34838W        W 6454   2.503  17.063  11.602
34839W        W 6455  11.253  41.836  14.389
34840W        W 6456   6.666  25.737  13.447
34841W        W 6457  35.055   1.539   5.102
34842W        W 6458  32.593  30.663   3.790
34843W        W 6459  40.531   5.222   1.373
34844W        W 6460  42.898  28.266  14.042
34845W        W 6461   2.349  33.526  11.700
34846W        W 6462  35.048  28.872   3.831
34847W        W 6463  41.738  15.103   4.006
34848W        W 6464  15.429  13.652  13.069
34849W        W 6465  29.152   7.187   2.739
34850W        W 6466   1.922  44.509  10.235
34851W        W 6467  36.049  38.495   1.072
34852W        W 6468  38.047  25.274   2.354
34853W        W 6469  40.989  11.210   1.155
34854W        W 6470   5.420  44.083   3.266
34855W        W 6471  15.973   0.996   0.934
34856W        W 6472  16.318   3.071  10.818
34857W        W 6473  36.254  23.798  14.816
34858W        W 6474  44.066  17.576  14.889
34859W        W 6475  32.827  30.016   2.854
34860W        W 6476  29.689   3.814  12.794
34861W        W 6477  11.395   5.761  10.339
34862W        W 6478   4.896  19.064  13.555
34863W        W 6479   2.319   9.211   0.259
34864W        W 6480   9.287  13.062  13.842
34865W        W 6481  25.910   6.399   2.866
34866W        W 6482  11.662  18.228   2.159
34867W        W 6483  12.106  20.598  10.777
34868W        W 6484   2.633   8.463  11.070
34869W        W 6485  41.480  15.352  10.658
34870W        W 6486  34.576  13.067  12.767
34871W        W 6487  27.646  30.063  12.491
34872W        W 6488   2.790  43.949   9.991
34873W        W 6489  25.201  38.868  10.575
34874W        W 6490  29.802   7.297  12.066
34875W        W 6491  11.838   8.816  14.062
34876W        W 6492  25.097  19.717  11.545
34877W        W 6493   7.656  27.004  13.520
34878W        W 6494  41.767  17.080  14.924
34879W        W 6495   0.349  20.829   4.017
34880W        W 6496  33.195  10.314   2.135
34881W        W 6497  26.005  31.304  10.719
34882W        W 6498  16.835  36.917  13.245
34883W        W 6499  40.362  34.321  12.925
34884W        W 6500  42.332  40.797  13.589
34885W        W 6501  39.314  28.113  13.577
34886W        W 6502   7.671  37.963   2.747
34887W        W 6503  28.582  32.424  11.151
34888W        W 6504  25.046  15.155  10.656
34889W        W 6505  23.570  10.158   0.237
34890W        W 6506   7.302  31.609  11.121
34891W        W 6507  12.422  26.010  13.565
34892W        W 6508   0.968  39.492   1.005
34893W        W 6509  13.511  11.723   3.431
34894W        W 6510  22.013  18.592  11.958
34895W        W 6511   9.735  17.734  12.082
34896W        W 6512  20.543  10.103  12.840
34897W        W 6513  17.753  44.699  12.430
34898W        W 6514   4.744  43.493   9.775
34899W        W 6515  22.024   0.182   2.043
34900W        W 6516  40.951   3.834   1.721
34901W        W 6517  16.670  10.089   1.941
34902W        W 6518   7.391  12.545  10.364
34903W        W 6519   7.301   1.330   0.283
34904W        W 6520  34.112  34.624   4.013
34905W        W 6521   9.221   5.649  14.259
34906W        W 6522  25.523  30.387  10.805
34907W        W 6523  38.212  28.665   2.635
34908W        W 6524  42.817  24.300  10.760
34909W        W 6525  25.518  37.097  12.491
34910W        W 6526   9.571  32.408  12.510
34911W        W 6527  13.733   7.234  11.307
34912W        W 6528   8.730  11.002  13.438
34913W        W 6529  29.175  29.906   3.806
34914W        W 6530  33.562   8.897  14.586
34915W        W 6531  32.367  17.049  10.346
34916W        W 6532  13.540  31.704   3.691
34917W        W 6533   3.203  22.674  13.969
34918W        W 6534   9.412  11.301  12.458
34919W        W 6535  27.053  41.297   3.194
34920W        W 6536   2.884  39.007  14.504
34921W        W 6537  26.611  38.545   3.073
34922W        W 6538   7.755  21.369   5.118
34923W        W 6539  20.606  11.439   3.243
34924W        W 6540  32.168  30.804  11.124
34925W        W 6541  32.642   8.004   3.698
34926W        W 6542  12.378   6.572   5.398
34927W        W 6543   2.560  34.479   0.784
34928W        W 6544   6.938  31.142  11.563
34929W        W 6545   7.352  39.034  13.510
34930W        W 6546   5.409  25.322   4.151
34931W        W 6547  18.739  20.465  13.126
34932W        W 6548  34.940  15.026   1.995
34933W        W 6549  24.162  24.266  13.477
34934W        W 6550  14.952  36.055  12.111
34935W        W 6551  12.543   3.843   4.625
34936W        W 6552   5.500  22.128   1.318
34937W        W 6553   8.259  29.387  13.846
34938W        W 6554   8.380   3.707  11.078
34939W        W 6555   4.522  21.689   4.049
34940W        W 6556  33.489   5.724  13.036
34941W        W 6557  42.290  15.730  12.679
34942W        W 6558  35.724  32.193  14.445
34943W        W 6559  44.223   6.048  11.134
34944W        W 6560  24.836   2.283  11.438
34945W        W 6561  31.706  11.289  12.310
34946W        W 6562   1.091  34.835   0.239
34947W        W 6563  43.369  17.656  11.296
34948W        W 6564  36.456  38.741  13.861
34949W        W 6565  27.463  17.953   4.808
34950W        W 6566  30.687   8.715   0.830
34951W        W 6567  42.308  44.265   1.779
34952W        W 6568   8.883  32.890   2.843
34953W        W 6569  25.319   7.004   4.810
34954W        W 6570  20.651  27.511   1.751
34955W        W 6571  36.386  22.471  10.690
34956W        W 6572  42.962  13.789   0.974
34957W        W 6573  31.657  36.609  12.511
34958W        W 6574   6.181  42.740  13.802
34959W        W 6575  35.496  20.538  13.549
34960W        W 6576  12.169   3.854  13.306
34961W        W 6577  26.198  24.172  12.871
34962W        W 6578   7.406   5.390  14.425
34963W        W 6579  30.268  20.582   4.481
34964W        W 6580  24.633  29.327  11.408
34965W        W 6581  29.294  25.776  11.444
34966W        W 6582   7.294  27.909   4.217
34967W        W 6583  36.560  16.525  10.610
34968W        W 6584  29.419  11.884  14.297
34969W        W 6585  11.374  32.931  14.489
34970W        W 6586   9.282  23.669  14.529
34971W        W 6587  36.410  30.133  13.096
34972W        W 6588  25.573  39.478   3.264
34973W        W 6589  38.411  10.652   4.293
34974W        W 6590  37.085  31.016   2.396
34975W        W 6591  40.518  10.638  11.639
34976W        W 6592  28.553  26.474  14.846
34977W        W 6593  38.025   7.069  14.862
34978W        W 6594   7.192  33.105  13.469
34979W        W 6595  29.135  11.647   2.808
34980W        W 6596  40.574  32.860   0.350
34981W        W 6597  16.245  27.835   4.773
34982W        W 6598  18.086  28.005  14.217
34983W        W 6599  13.400   6.389   9.736
34984W        W 6600  28.497  28.025   1.756
34985W        W 6601   4.384  16.070   1.706
34986W        W 6602  22.666  16.121   4.286
34987W        W 6603  26.996   0.092  14.491
34988W        W 6604  34.230  44.383   3.102
34989W        W 6605  12.894  26.527  10.440
34990W        W 6606  17.721  41.112   5.116
34991W        W 6607  42.235  24.818  13.927
34992W        W 6608  17.273  14.605   0.776
34993W        W 6609   1.087  23.505   9.889
34994W        W 6610  14.671   1.364  10.397
34995W        W 6611  27.292  24.069  12.031
34996W        W 6612   5.843  27.926  14.716
34997W        W 6613   9.107  10.852   1.793
34998W        W 6614  39.705  26.880   9.853
34999W        W 6615  41.791  44.824   2.381
35000W        W 6616  20.692   6.689  11.962
35001W        W 6617  43.833  39.302   2.206
35002W        W 6618  29.563   5.609   0.917
35003W        W 6619  28.973  34.082  12.953
35004W        W 6620  19.664  19.636   0.527
35005W        W 6621  30.950  12.660  14.416
35006W        W 6622  40.213  35.077   4.619
35007W        W 6623  41.287   7.978   2.401
35008W        W 6624  24.687  11.017   3.286
35009W        W 6625   7.902  10.759  13.690
35010W        W 6626   1.266  38.491   2.764
35011W        W 6627  29.533   5.505  11.145
35012W        W 6628  18.208  26.998   0.064
35013W        W 6629   1.672  31.050   1.197
35014W        W 6630  16.732   3.386  14.198
35015W        W 6631  40.429  24.587  10.675
35016W        W 6632   3.925  40.014  10.718
35017W        W 6633   5.878  18.698   2.405
35018W        W 6634  24.033  21.268  13.974
35019W        W 6635  14.531  39.382  11.936
35020W        W 6636  41.482  34.048   0.255
35021W        W 6637  31.048  23.971   4.161
35022W        W 6638  17.223  13.365  12.488
35023W        W 6639  40.924  44.227  14.060
35024W        W 6640   6.214  28.022  12.042
35025W        W 6641  27.079   1.390  12.288
35026W        W 6642  40.269  13.129  12.823
35027W        W 6643  17.297  24.629  10.758
35028W        W 6644  38.424  24.290   0.782
35029W        W 6645  10.747  20.149  12.636
35030W        W 6646  10.363  19.649   2.747
35031W        W 6647  11.783  40.837   4.444
35032W        W 6648  44.534   8.243   4.582
35033W        W 6649  25.717  38.865  13.982
35034W        W 6650  33.422  38.381  10.723
35035W        W 6651  16.686  21.937   4.174
35036W        W 6652  43.317  24.058  11.160
35037W        W 6653  44.022  22.283  10.951
35038W        W 6654  23.492  11.252   2.245
35039W        W 6655  26.469  12.409  10.736
35040W        W 6656  30.985  19.099  14.840
35041W        W 6657  31.443  19.663   1.017
35042W        W 6658  41.549  42.382   1.392
35043W        W 6659  36.953  12.430   4.424
35044W        W 6660   5.297  39.258  14.818
35045W        W 6661  34.920  39.798  10.779
35046W        W 6662  17.459  12.177  14.483
35047W        W 6663   7.789  18.764   4.616
35048W        W 6664  29.675  34.762   4.173
35049W        W 6665   8.090  17.990   2.388
35050W        W 6666  40.608   1.411  10.713
35051W        W 6667   2.569  31.040   1.371
35052W        W 6668  13.669   2.673   1.001
35053W        W 6669  34.469  41.346   1.250
35054W        W 6670  34.071  23.689  10.689
35055W        W 6671  21.048  16.294  14.988
35056W        W 6672  16.855  32.233  14.318
35057W        W 6673  11.643  18.056  13.976
35058W        W 6674  39.507   9.098  14.983
35059W        W 6675  16.286   5.064  11.116
35060W        W 6676  37.141  21.203  11.689
35061W        W 6677  39.071   4.946  10.262
35062W        W 6678   2.455  31.237   0.743
35063W        W 6679   8.371  20.742   4.227
35064W        W 6680  38.629  12.570  14.965
35065W        W 6681  34.509  18.703   1.865
35066W        W 6682  32.157  16.725  12.894
35067W        W 6683  42.561  19.292   2.828
35068W        W 6684  24.892  14.236  12.288
35069W        W 6685   9.787   4.192   4.312
35070W        W 6686   1.689  12.270   1.014
35071W        W 6687  29.420   3.044   1.421
35072W        W 6688  32.127  43.265  13.384
35073W        W 6689  14.728   0.897   4.370
35074W        W 6690   1.009  42.323   5.085
35075W        W 6691  22.792   7.139  12.440
35076W        W 6692  31.650  40.954  13.447
35077W        W 6693  41.728  15.530  11.112
35078W        W 6694   2.849  41.470   1.266
35079W        W 6695  32.920  26.005   4.086
35080W        W 6696  14.256   6.745  10.765
35081W        W 6697  15.571  17.085  10.221
35082W        W 6698  28.117  14.288  10.657
35083W        W 6699  14.501  26.917  14.793
35084W        W 6700  13.200  11.606  13.417
35085W        W 6701  31.673  23.771  11.969
35086W        W 6702   5.830   5.131   0.857
35087W        W 6703  18.763  11.690  13.462
35088W        W 6704   1.134  13.246   0.458
35089W        W 6705  27.796   3.371  11.811
35090W        W 6706  23.797  21.587   3.581
35091W        W 6707   0.641   1.240   3.300
35092W        W 6708  36.109  44.241  13.318
35093W        W 6709  40.647  44.584  14.367
35094W        W 6710   3.747  32.170   0.464
35095W        W 6711  17.164  13.343  10.471
35096W        W 6712   3.236  25.697   3.662
35097W        W 6713   4.999   7.703   4.794
35098W        W 6714  20.032   1.504   0.231
35099W        W 6715   4.158   4.977   4.193
35100W        W 6716  19.984  37.498  13.270
35101W        W 6717  16.019  34.017   2.693
35102W        W 6718  27.133  42.067  13.363
35103W        W 6719  33.918  18.098   3.214
35104W        W 6720   5.844  30.029   0.380
35105W        W 6721  28.194  26.516   0.950
35106W        W 6722  21.450  41.333   0.874
35107W        W 6723  15.303  27.055   3.746
35108W        W 6724   2.818  43.361   5.447
35109W        W 6725  35.208  31.869  12.462
35110W        W 6726  42.850  18.590  10.922
35111W        W 6727   8.335   4.818   1.339
35112W        W 6728   5.086  19.984  14.385
35113W        W 6729  32.027   2.970   4.915
35114W        W 6730  25.592  38.222  11.930
35115W        W 6731   3.668  30.173   0.551
35116W        W 6732  22.035  28.211  13.755
35117W        W 6733  35.583  17.728   0.002
35118W        W 6734   8.809  36.360  13.921
35119W        W 6735  40.740  40.592   1.396
35120W        W 6736  28.282  27.306  11.502
35121W        W 6737  43.783  38.948   2.922
35122W        W 6738   2.274  21.106   2.822
35123W        W 6739   4.482   5.715   3.670
35124W        W 6740  37.524  18.508  14.710
35125W        W 6741  20.098  15.071   0.010
35126W        W 6742  28.332  16.805   5.400
35127W        W 6743  31.105  26.241   0.773
35128W        W 6744   7.449   3.688  14.711
35129W        W 6745   9.312  24.968  13.926
35130W        W 6746  32.765  30.775  12.562
35131W        W 6747  24.160  28.072   2.803
35132W        W 6748  30.133  33.338  13.832
35133W        W 6749  18.634  36.798  13.330
35134W        W 6750   1.078  31.105   0.298
35135W        W 6751   2.873   1.227  14.573
35136W        W 6752  19.109  43.961  12.402
35137W        W 6753  12.544  44.515  13.474
35138W        W 6754  34.698  17.211   3.027
35139W        W 6755   2.341  26.666   3.780
35140W        W 6756  41.952  19.745   2.671
35141W        W 6757  36.895  37.394  11.045
35142W        W 6758  16.192   9.682   2.254
35143W        W 6759  19.390  28.253  12.979
35144W        W 6760   1.556  17.531  14.712
35145W        W 6761  33.417   7.635   1.986
35146W        W 6762  26.693  41.334   2.837
35147W        W 6763  27.577  25.024   4.308
35148W        W 6764   5.365   2.744   0.031
35149W        W 6765  22.352  29.604   3.118
35150W        W 6766  20.675  31.862   1.683
35151W        W 6767  22.602  25.200   2.676
35152W        W 6768  33.830  35.495   3.603
35153W        W 6769   9.213   5.644  11.939
35154W        W 6770  32.307   6.344  11.804
35155W        W 6771   3.657  30.991  14.263
35156W        W 6772  21.476  20.950   4.097
35157W        W 6773  10.785   7.266  14.807
35158W        W 6774  26.627  37.602   0.389
35159W        W 6775  17.604  29.051  12.805
35160W        W 6776  34.607  30.128   3.609
35161W        W 6777  38.872  10.459  12.120
35162W        W 6778  23.053   0.371  13.028
35163W        W 6779  41.036   4.196   2.102
35164W        W 6780  31.041  23.633  13.804
35165W        W 6781   2.292  22.658  11.588
35166W        W 6782  18.748  22.519  11.593
35167W        W 6783   7.630  28.083   1.509
35168W        W 6784   3.645  37.430   1.401
35169W        W 6785  30.299  30.863  14.080
35170W        W 6786  12.339  20.246  12.954
35171W        W 6787  43.331  28.062   3.259
35172W        W 6788   2.278  16.235   3.585
35173W        W 6789  30.112  27.829  13.829
35174W        W 6790  38.295   1.197  11.536
35175W        W 6791  22.912   3.439   4.101
35176W        W 6792  14.145   9.735  12.500
35177W        W 6793  26.917  24.025   2.710
35178W        W 6794  14.558  18.831  13.668
35179W        W 6795   2.292  41.847   0.840
35180W        W 6796  35.929  35.632  10.689
35181W        W 6797  34.459  30.858  12.958
35182W        W 6798  12.317  11.769  14.423
35183W        W 6799   5.197   9.084  11.070
35184W        W 6800  40.912  13.759  14.272
35185W        W 6801  27.723   1.630  11.469
35186W        W 6802   4.503  33.162   3.148
35187W        W 6803   1.991  40.773  11.409
35188W        W 6804  39.544  26.577   4.601
35189W        W 6805  22.687  34.375  11.955
35190W        W 6806   7.350  19.371  11.149
35191W        W 6807  30.505  10.400  14.244
35192W        W 6808  40.093  43.917   0.489
35193W        W 6809   2.246   4.776  10.480
35194W        W 6810  42.263  37.838   2.736
35195W        W 6811   8.519  32.286  14.047
35196W        W 6812   0.818   4.732   3.187
35197W        W 6813  35.439  38.126   3.670
35198W        W 6814   1.411  27.492  10.661
35199W        W 6815   9.873  44.814   4.117
35200W        W 6816  22.637  42.285  10.215
35201W        W 6817  37.537  27.785   3.756
35202W        W 6818  38.072  18.066   2.783
35203W        W 6819  35.752  10.641  14.984
35204W        W 6820   9.647   5.754   1.534
35205W        W 6821  31.399  28.455   2.246
35206W        W 6822   2.883  15.853   0.396
35207W        W 6823   5.749   4.255   2.069
35208W        W 6824  12.501   5.710   3.801
35209W        W 6825  11.996  11.873   2.316
35210W        W 6826   6.273  27.565  13.477
35211W        W 6827  18.119  40.515   2.244
35212W        W 6828  24.762  10.658  14.479
35213W        W 6829  44.946   2.006  11.237
35214W        W 6830  21.103   2.867  13.313
35215W        W 6831  24.713  42.690   1.809
35216W        W 6832  26.979   6.268   1.357
35217W        W 6833  44.039  10.762  14.146
35218W        W 6834  16.250  10.628  13.497
35219W        W 6835  20.614  39.844  10.927
35220W        W 6836  10.343  15.663  13.745
35221W        W 6837   5.527  32.548   1.204
35222W        W 6838  30.873  18.915  13.798
35223W        W 6839  43.541  17.107  13.746
35224W        W 6840   7.405  40.078   4.973
35225W        W 6841   1.662  24.776  11.041
35226W        W 6842  15.097  36.653  13.044
35227W        W 6843  39.520   2.539   2.268
35228W        W 6844  25.272  10.053   0.306
35229W        W 6845  28.957   8.361  12.097
35230W        W 6846  10.669   3.706  12.549
35231W        W 6847  10.184   4.008  11.467
35232W        W 6848   3.179  16.367   3.273
35233W        W 6849   4.004  35.637  10.689
35234W        W 6850  44.796  12.236   1.924
35235W        W 6851  44.013  29.185  11.393
35236W        W 6852  14.169  43.365  12.583
35237W        W 6853   0.226  12.281  11.456
35238W        W 6854  25.218  16.703   4.414
35239W        W 6855   9.164   9.670  12.080
35240W        W 6856  10.302   2.416  13.054
35241W        W 6857  29.427  12.490  12.160
35242W        W 6858  40.256  24.017   2.489
35243W        W 6859  44.884  36.532   3.959
35244W        W 6860  42.015   3.824   2.867
35245W        W 6861  15.239  31.471   4.160
35246W        W 6862  18.757   5.453  13.902
35247W        W 6863  40.887  12.445   3.657
35248W        W 6864  34.722  32.158  13.261
35249W        W 6865  11.551   8.711  14.917
35250W        W 6866   1.803  43.424  14.446
35251W        W 6867  23.239  23.241   2.282
35252W        W 6868  10.830  29.478  12.457
35253W        W 6869  21.236  31.990  12.091
35254W        W 6870  32.397   0.645   2.310
35255W        W 6871  12.188   2.397  14.979
35256W        W 6872  34.311  33.655  12.461
35257W        W 6873  41.377  18.352   0.810
35258W        W 6874  16.347  13.430   0.374
35259W        W 6875   6.902  17.354   0.907
35260W        W 6876  14.251  32.519   4.189
35261W        W 6877  29.279   0.836  10.815
35262W        W 6878   8.838  32.855  13.424
35263W        W 6879  37.580  19.064  14.016
35264W        W 6880   0.175  21.196  11.421
35265W        W 6881  23.447  11.842  10.711
35266W        W 6882  27.263  10.102   4.482
35267W        W 6883  16.051  38.968  14.322
35268W        W 6884  34.374  10.201  10.657
35269W        W 6885  26.302  14.968  11.049
35270W        W 6886  41.896  19.003  12.543
35271W        W 6887  13.100   6.767  11.522
35272W        W 6888  43.858  44.304   1.077
35273W        W 6889  39.289  36.003   1.800
35274W        W 6890  42.659  11.784   3.094
35275W        W 6891   3.671   5.219   4.106
35276W        W 6892  32.471  37.498   3.359
35277W        W 6893  10.381  24.133   1.760
35278W        W 6894  34.970  17.602  10.647
35279W        W 6895  19.031  44.424   2.790
35280W        W 6896  43.457  34.976   0.895
35281W        W 6897   5.693  11.353  13.657
35282W        W 6898  22.906  27.907  12.552
35283W        W 6899  22.300  12.049  12.022
35284W        W 6900  22.700   9.905   3.640
35285W        W 6901  13.703  42.676   2.511
35286W        W 6902  40.350  27.593   3.841
35287W        W 6903  36.316   0.974  13.935
35288W        W 6904  16.637  17.175  12.079
35289W        W 6905  26.565  13.805   0.917
35290W        W 6906  17.275  35.342  11.673
35291W        W 6907   8.198  40.528   2.124
35292W        W 6908   9.126   5.901  14.718
35293W        W 6909  10.847  41.778   3.344
35294W        W 6910  43.895   4.228  13.906
35295W        W 6911   0.081  21.582  12.860
35296W        W 6912   2.767   6.343  12.959
35297W        W 6913  24.759   3.860  12.036
35298W        W 6914   1.625  35.333   2.899
35299W        W 6915   8.353  10.759   2.289
35300W        W 6916  23.710  32.574  11.578
35301W        W 6917   9.362  12.948   3.616
35302W        W 6918  30.366  11.853  11.420
35303W        W 6919   3.784  17.718   3.410
35304W        W 6920  31.882  19.295   2.704
35305W        W 6921  26.086  18.322   3.656
35306W        W 6922  14.294  42.321  14.459
35307W        W 6923  34.974   7.768   3.355
35308W        W 6924  17.091  37.155  10.747
35309W        W 6925  10.052  13.141  12.001
35310W        W 6926  33.365   6.237   4.874
35311W        W 6927   9.339  20.203   3.158
35312W        W 6928  14.616  23.166   3.296
35313W        W 6929  36.406  27.632  12.133
35314W        W 6930  40.734  37.582   0.372
35315W        W 6931  36.290  30.947  13.142
35316W        W 6932   3.794  41.349  14.394
35317W        W 6933  40.401  44.204  11.529
35318W        W 6934  14.848  36.864  11.164
35319W        W 6935  34.571  41.989  14.914
35320W        W 6936   7.283  31.454  10.623
35321W        W 6937   5.678  38.871   2.813
35322W        W 6938  25.593   8.984   5.044
35323W        W 6939  23.888  17.529   1.373
35324W        W 6940  27.385  27.277  14.077
35325W        W 6941  43.975   1.837  14.750
35326W        W 6942   0.693   1.208   2.388
35327W        W 6943  33.980   0.774   1.838
35328W        W 6944  29.451  28.688  11.676
35329W        W 6945  26.635  17.625   4.618
35330W        W 6946   9.626  23.281   0.334
35331W        W 6947   6.500  25.944   2.907
35332W        W 6948  27.892   3.798   2.456
35333W        W 6949  31.333   0.029   1.752
35334W        W 6950   6.864  36.548   4.665
35335W        W 6951  37.863  34.087  11.096
35336W        W 6952  17.078  11.557   0.931
35337W        W 6953   7.166  20.015  12.601
35338W        W 6954  11.746  40.527   0.344
35339W        W 6955   3.244  28.039   1.505
35340W        W 6956  19.114   7.251  11.935
35341W        W 6957  44.264  11.785   1.857
35342W        W 6958  25.812  29.223   2.349
35343W        W 6959  10.725  16.558   1.352
35344W        W 6960  13.769  14.420   3.777
35345W        W 6961   5.855  20.964   2.744
35346W        W 6962  36.479  42.497  13.653
35347W        W 6963   3.194  33.216   1.819
35348W        W 6964   2.707  20.823   2.985
35349W        W 6965  22.184  20.614  10.390
35350W        W 6966  41.294  23.245   3.307
35351W        W 6967  25.949  43.250   2.132
35352W        W 6968   8.298  33.431  12.785
35353W        W 6969  14.366  33.017  10.765
35354W        W 6970  15.069  16.868  13.301
35355W        W 6971  38.069   6.006   0.800
35356W        W 6972   5.151  38.479   0.992
35357W        W 6973  23.002  40.424  11.878
35358W        W 6974  16.090   4.782  14.294
35359W        W 6975  34.666  42.708  11.165
35360W        W 6976  33.095  28.455  10.720
35361W        W 6977  14.554  17.730   2.291
35362W        W 6978  34.632   6.764   2.258
35363W        W 6979   6.893  23.904  13.491
35364W        W 6980  12.752  37.738   4.423
35365W        W 6981  20.152  34.050  11.397
35366W        W 6982  19.178  38.562  13.313
35367W        W 6983  44.286   9.215  13.112
35368W        W 6984  31.978  23.614  13.862
35369W        W 6985  42.326  32.824   1.485
35370W        W 6986  22.741  38.164  10.757
35371W        W 6987  39.996   4.388  12.955
35372W        W 6988  44.184  32.114   4.828
35373W        W 6989   4.176  37.833   3.159
35374W        W 6990   1.229  17.078   2.672
35375W        W 6991  27.225   5.703   0.769
35376W        W 6992  44.004  28.107  12.632
35377W        W 6993   6.474   0.217   3.348
35378W        W 6994  35.884  14.857   2.108
35379W        W 6995   7.394   9.801   2.098
35380W        W 6996  43.662  20.577   2.929
35381W        W 6997  24.106  33.030   1.412
35382W        W 6998   4.913  32.165  11.195
35383W        W 6999  19.135  44.800   4.081
35384W        W 7000   4.444  35.931  10.684
35385W        W 7001  11.190  41.847   4.618
35386W        W 7002   8.408   4.317   4.177
35387W        W 7003  43.078  31.491   3.298
35388W        W 7004  12.165  27.424   3.500
35389W        W 7005  16.643  20.814  14.361
35390W        W 7006  12.628  26.777   2.686
35391W        W 7007  30.702  33.854   2.914
35392W        W 7008  43.451   5.280  10.705
35393W        W 7009  18.335  21.803  12.972
35394W        W 7010   1.643  39.801  14.485
35395W        W 7011  37.436  30.904  11.015
35396W        W 7012   8.694  20.987  10.386
35397W        W 7013   3.391  14.614  12.751
35398W        W 7014  39.017   2.762  14.314
35399W        W 7015  42.247  32.625   2.823
35400W        W 7016   6.118  26.757  12.386
35401W        W 7017  10.103  24.607  11.749
35402W        W 7018   8.265   1.326  12.049
35403W        W 7019  38.871  37.447  12.937
35404W        W 7020  25.544  17.144   2.427
35405W        W 7021   6.496  32.927  14.368
35406W        W 7022  16.566  40.079  11.202
35407W        W 7023  21.040  19.201   2.210
35408W        W 7024   0.540   9.848  11.942
35409W        W 7025  44.838  39.907   3.892
35410W        W 7026   0.409  41.738   2.582
35411W        W 7027  43.466   9.668  14.290
35412W        W 7028  28.607  41.130  12.360
35413W        W 7029   0.437  15.794   3.662
35414W        W 7030  17.753  23.894   4.642
35415W        W 7031  20.840  24.021   0.887
35416W        W 7032   1.584   0.147   0.194
35417W        W 7033  23.237  43.192   4.538
35418W        W 7034   3.888   3.631   3.097
35419W        W 7035  29.892  33.118  14.219
35420W        W 7036  34.417  36.817  14.866
35421W        W 7037  14.278  39.384   1.716
35422W        W 7038  26.656   5.271  11.876
35423W        W 7039  33.066  31.385   3.313
35424W        W 7040  13.916   4.653  12.393
35425W        W 7041  12.360  10.678   3.670
35426W        W 7042  38.980  26.609  14.923
35427W        W 7043  17.725  24.545  11.630
35428W        W 7044  13.225   5.708   2.368
35429W        W 7045  21.219  17.571  12.108
35430W        W 7046   0.316  10.327   0.865
35431W        W 7047  13.617  21.341  11.916
35432W        W 7048   2.740  36.540  13.481
35433W        W 7049  40.874  19.934  11.193
35434W        W 7050  43.261  36.958  13.567
35435W        W 7051  24.963  21.032   1.255
35436W        W 7052  20.258  24.575   4.356
35437W        W 7053  43.146   2.962  13.862
35438W        W 7054  20.266  31.345  13.981
35439W        W 7055  38.137   8.202  11.399
35440W        W 7056  17.629  26.535  11.484
35441W        W 7057  13.324  44.915   0.683
35442W        W 7058  13.648   3.825   0.444
35443W        W 7059  29.075   1.447  12.873
35444W        W 7060   9.841  43.440  12.114
35445W        W 7061  40.331  41.567  12.001
35446W        W 7062   6.769   2.029   3.281
35447W        W 7063   2.520  41.377  13.821
35448W        W 7064   1.475  15.815   3.760
35449W        W 7065  34.558  13.165   4.230
35450W        W 7066   9.961   4.923  12.410
35451W        W 7067   7.365  17.732   2.897
35452W        W 7068  19.960   3.820  12.051
35453W        W 7069  22.491  15.742  12.431
35454W        W 7070  38.264  14.613  14.028
35455W        W 7071   0.384  15.744  10.866
35456W        W 7072  31.612  27.557  14.187
35457W        W 7073  26.665  23.673   4.623
35458W        W 7074   1.769  34.404   3.742
35459W        W 7075  16.896  13.704   4.598
35460W        W 7076  29.077  39.779   0.751
35461W        W 7077  29.640  44.292   2.215
35462W        W 7078   4.743   7.658  12.264
35463W        W 7079   7.940  15.001   4.080
35464W        W 7080   3.697  38.290  13.250
35465W        W 7081  43.495  43.787  11.597
35466W        W 7082  22.859  13.281  12.634
35467W        W 7083  10.748  37.989  13.716
35468W        W 7084  25.528  16.037   5.044
35469W        W 7085  25.251   3.721   3.794
35470W        W 7086  33.886  29.138  14.773
35471W        W 7087  41.086  42.592   4.843
35472W        W 7088  43.789  28.073   0.661
35473W        W 7089  18.392  24.202   1.993
35474W        W 7090  14.641   7.275   3.793
35475W        W 7091   8.811  33.077   1.837
35476W        W 7092   4.229  32.982   1.180
35477W        W 7093   1.761   9.567   2.730
35478W        W 7094  15.325  34.469   1.686
35479W        W 7095  37.914   0.801   4.767
35480W        W 7096   2.870  36.809  10.511
35481W        W 7097  16.540  35.524  14.393
35482W        W 7098  22.182  25.924   4.623
35483W        W 7099  29.519  15.253  11.737
35484W        W 7100  40.273  29.913  11.028
35485W        W 7101  22.013  38.941  12.252
35486W        W 7102  18.213   3.993   0.338
35487W        W 7103  41.313   7.924   3.300
35488W        W 7104  12.433  43.663  14.048
35489W        W 7105   0.775  12.166  11.991
35490W        W 7106  40.001  23.444  13.246
35491W        W 7107  43.535  31.961  11.108
35492W        W 7108  37.099  23.753   4.234
35493W        W 7109   3.205  26.641   5.488
35494W        W 7110  16.078  13.814  13.341
35495W        W 7111  41.781  28.813   3.357
35496W        W 7112  21.154  12.912  13.516
35497W        W 7113  35.752   1.904  12.155
35498W        W 7114  18.123  30.592  14.968
35499W        W 7115  18.869  37.218   1.686
35500W        W 7116  30.643  21.093  14.217
35501W        W 7117   3.420  43.834   2.420
35502W        W 7118  31.467  23.361  13.926
35503W        W 7119  17.873  10.264   1.274
35504W        W 7120  42.769  19.313   1.674
35505W        W 7121  16.458  39.330   2.676
35506W        W 7122   4.793  37.921   4.158
35507W        W 7123  16.673  15.207   0.699
35508W        W 7124  28.842   9.427  11.593
35509W        W 7125  27.009  15.367   3.184
35510W        W 7126   7.461  14.076  10.277
35511W        W 7127  16.647  24.193  13.147
35512W        W 7128  15.143  29.936   4.105
35513W        W 7129  25.255   2.317  11.169
35514W        W 7130  42.274   6.266   2.781
35515W        W 7131  21.774  15.225   1.738
35516W        W 7132  17.668   6.509   3.170
35517W        W 7133  12.659  38.922   3.107
35518W        W 7134   3.838  33.469  14.401
35519W        W 7135  41.809  23.205  13.056
35520W        W 7136   7.980  24.161   5.051
35521W        W 7137   1.356  37.113   0.704
35522W        W 7138  41.110  44.406   4.088
35523W        W 7139  11.393  44.060  13.933
35524W        W 7140  14.156  19.415   3.386
35525W        W 7141  29.504   6.146   0.008
35526W        W 7142  17.290  41.809   2.650
35527W        W 7143  18.216  11.383   0.857
35528W        W 7144  40.943   9.025  14.464
35529W        W 7145  20.113   7.226  14.012
35530W        W 7146  31.152  18.116  13.364
35531W        W 7147   5.203   7.867   3.946
35532W        W 7148   4.201  10.863  14.907
35533W        W 7149  40.566  17.382   4.502
35534W        W 7150  22.110  32.584  13.390
35535W        W 7151  25.458  33.204   1.879
35536W        W 7152   2.955  24.281   0.780
35537W        W 7153  15.593   6.235   2.598
35538W        W 7154  24.912  30.347   4.197
35539W        W 7155   0.230  18.536   3.150
35540W        W 7156  12.635  17.227   2.391
35541W        W 7157  12.344  17.016  11.180
35542W        W 7158  15.207   3.737   3.385
35543W        W 7159  33.461   8.729   3.580
35544W        W 7160  20.602  24.667   1.440
35545W        W 7161  43.084  32.425  10.566
35546W        W 7162   8.212   7.253  14.896
35547W        W 7163  21.375  32.601   0.429
35548W        W 7164  13.669  31.584  13.603
35549W        W 7165  13.283   6.194   4.138
35550W        W 7166   3.217   4.889   0.943
35551W        W 7167  18.548   7.319   0.204
35552W        W 7168   4.206  12.740   4.482
35553W        W 7169   7.861  26.448   4.558
35554W        W 7170   1.356   9.176  11.148
35555W        W 7171   7.622  22.840  11.620
35556W        W 7172   6.923   6.021  12.477
35557W        W 7173  25.722  16.298  12.983
35558W        W 7174  34.412   2.778   2.096
35559W        W 7175  32.927   0.756  10.961
35560W        W 7176  21.089  40.072  11.045
35561W        W 7177  31.207  26.540  14.532
35562W        W 7178  15.574  22.601   4.666
35563W        W 7179   8.073  33.648   1.436
35564W        W 7180  36.340   4.965   2.746
35565W        W 7181  44.912   5.636  11.540
35566W        W 7182  17.128   2.401  12.202
35567W        W 7183   1.267  27.064   2.261
35568W        W 7184  13.064  22.145  11.084
35569W        W 7185  36.058  16.324  13.042
35570W        W 7186   8.334   3.729  12.135
35571W        W 7187  40.444  25.444   2.857
35572W        W 7188  27.965  12.209   3.578
35573W        W 7189  35.026  18.822   1.874
35574W        W 7190   4.726  29.522  12.634
35575W        W 7191   5.409   7.205  14.353
35576W        W 7192   2.608  38.776   1.956
35577W        W 7193  26.938   3.555  11.389
35578W        W 7194  44.375  14.799   3.747
35579W        W 7195   8.385  27.796  12.581
35580W        W 7196  21.142  40.050   4.683
35581W        W 7197  26.559  24.344  14.826
35582W        W 7198  11.728  30.271  11.998
35583W        W 7199  12.167   5.399   0.980
35584W        W 7200   9.864  18.530  13.816
35585W        W 7201  17.526   8.902  11.053
35586W        W 7202  12.733   5.807  11.102
35587W        W 7203  43.747  32.094  12.461
35588W        W 7204   4.482  30.921   3.137
35589W        W 7205  35.393  41.114  14.121
35590W        W 7206   2.863  22.272   3.295
35591W        W 7207  14.299  10.302   4.587
35592W        W 7208  11.955   0.844  12.496
35593W        W 7209   4.426   7.526   3.572
35594W        W 7210  40.308  29.941  14.906
35595W        W 7211  12.360  30.317   3.373
35596W        W 7212  14.272   7.640   4.114
35597W        W 7213  10.460   9.394  11.151
35598W        W 7214  15.810  14.114   0.785
35599W        W 7215  33.086  35.032  13.038
35600W        W 7216  12.453  39.821   0.774
35601W        W 7217  39.746  41.819   3.995
35602W        W 7218   5.460   3.727   0.921
35603W        W 7219   5.928  44.510  11.194
35604W        W 7220  10.604  15.104  11.617
35605W        W 7221  12.872  30.574  10.741
35606W        W 7222  40.516  22.660  14.904
35607W        W 7223  15.449  20.778   4.556
35608W        W 7224  35.884   2.759   3.342
35609W        W 7225  15.775  32.527   0.048
35610W        W 7226  34.094  18.105   0.895
35611W        W 7227   8.709  31.060  11.387
35612W        W 7228  40.061  13.291   5.214
35613W        W 7229  22.103  27.529   1.922
35614W        W 7230  26.227   6.699   2.567
35615W        W 7231   3.164  19.940   5.173
35616W        W 7232  41.405  41.705   0.859
35617W        W 7233   9.725  43.407   1.658
35618W        W 7234   6.783  19.185  13.566
35619W        W 7235  43.320  30.641  11.143
35620W        W 7236  41.014  16.710  14.757
35621W        W 7237  30.188  38.574   2.309
35622W        W 7238  42.069  15.757  11.997
35623W        W 7239  36.673  29.567   3.744
35624W        W 7240  34.414   9.627   3.104
35625W        W 7241  14.213  32.970  13.029
35626W        W 7242  28.097  24.721   2.882
35627W        W 7243  33.115   8.345   3.684
35628W        W 7244  30.557  20.081   3.395
35629W        W 7245  37.756  17.001  11.145
35630W        W 7246  13.384  14.371   2.692
35631W        W 7247  31.619  20.105  11.577
35632W        W 7248  36.908  10.676   3.364
35633W        W 7249   5.261  14.776  11.576
35634W        W 7250  35.463  23.476  13.032
35635W        W 7251  37.543  35.841   2.842
35636W        W 7252   8.411   7.393  13.556
35637W        W 7253  41.250  10.455   2.172
35638W        W 7254  32.146  41.762   4.316
35639W        W 7255  38.779   9.420   3.784
35640W        W 7256  31.477  42.359   2.244
35641W        W 7257  21.681  35.771   3.256
35642W        W 7258   8.359  38.533   2.386
35643W        W 7259  37.415   2.368   4.076
35644W        W 7260  23.537  12.823   0.939
35645W        W 7261  26.487  30.499   0.792
35646W        W 7262  40.817  37.162  13.192
35647W        W 7263  20.096  28.746  13.609
35648W        W 7264  41.797   8.648   2.088
35649W        W 7265  17.764   9.368  11.257
35650W        W 7266  19.259  35.115   2.237
35651W        W 7267  11.295  37.620  12.946
35652W        W 7268  22.310   9.319  13.847
35653W        W 7269  12.333  25.914  11.221
35654W        W 7270  16.820  26.428   0.758
35655W        W 7271  28.744   5.286  11.587
35656W        W 7272  31.162  21.222   4.755
35657W        W 7273   2.909  20.271   3.812
35658W        W 7274   0.880  16.324   0.570
35659W        W 7275   2.903  41.267  12.544
35660W        W 7276  36.586   9.286  12.327
35661W        W 7277  40.048   7.420   3.324
35662W        W 7278  15.028  34.384   0.785
35663W        W 7279  31.599   3.562  14.731
35664W        W 7280  12.832  31.849   1.488
35665W        W 7281  44.039  29.548  13.800
35666W        W 7282  39.394  19.482   3.187
35667W        W 7283  19.541  44.940  13.807
35668W        W 7284  40.793  24.905   1.885
35669W        W 7285  24.292  40.834   0.694
35670W        W 7286  22.949  14.585  14.842
35671W        W 7287  41.200  31.113   2.123
35672W        W 7288  40.459   2.029   1.679
35673W        W 7289  36.112  33.520   5.059
35674W        W 7290  15.823  10.232  14.805
35675W        W 7291   4.797  44.625  12.073
35676W        W 7292  40.447  31.855  12.366
35677W        W 7293  40.815  35.702   4.204
35678W        W 7294  34.542  16.110   3.192
35679W        W 7295  43.035  15.704  13.870
35680W        W 7296  43.983  10.894  12.843
35681W        W 7297   8.581  43.288  10.425
35682W        W 7298  10.959  30.154   3.201
35683W        W 7299  43.694   8.821  14.727
35684W        W 7300  38.119  20.693   1.360
35685W        W 7301  23.078  38.891  10.941
35686W        W 7302  21.626  25.122   4.983
35687W        W 7303  33.271  41.029  10.299
35688W        W 7304  14.705  10.235   0.541
35689W        W 7305  44.565  36.464  10.607
35690W        W 7306  13.368   0.969  10.386
35691W        W 7307  42.032  25.034  14.889
35692W        W 7308  23.449  40.963  12.875
35693W        W 7309  25.659  31.709   0.333
35694W        W 7310  23.978  22.729  12.021
35695W        W 7311  44.401  17.567  13.504
35696W        W 7312  31.088  42.897   3.366
35697W        W 7313  13.618   6.106  14.717
35698W        W 7314   5.403  18.632   2.150
35699W        W 7315  28.448  21.380  14.357
35700W        W 7316  41.610  35.394  11.983
35701W        W 7317   4.883  13.047  14.905
35702W        W 7318  28.550  34.921   0.412
35703W        W 7319  14.750  22.226   3.635
35704W        W 7320  33.292  12.180   1.791
35705W        W 7321  43.529  24.655  14.007
35706W        W 7322   7.538  33.583   2.176
35707W        W 7323   2.496  27.465  14.316
35708W        W 7324  38.066  32.586  10.669
35709W        W 7325  20.680  30.613   1.469
35710W        W 7326  27.618  20.773   4.227
35711W        W 7327   6.378  11.883  13.889
35712W        W 7328  12.777   4.407  11.580
35713W        W 7329  24.168  29.582  10.669
35714W        W 7330  18.319  32.613   3.286
35715W        W 7331  39.859  19.894  14.736
35716W        W 7332  37.578  36.821   1.095
35717W        W 7333  24.131  36.269  14.917
35718W        W 7334  43.243  27.982  11.558
35719W        W 7335  41.023   2.766  11.552
35720W        W 7336  23.920   9.572  12.934
35721W        W 7337  24.143  27.562   1.253
35722W        W 7338   1.362  14.231   2.808
35723W        W 7339   3.396   7.706  12.088
35724W        W 7340  42.753  37.372  12.205
35725W        W 7341  22.309  27.477  10.567
35726W        W 7342  36.338  34.034  11.183
35727W        W 7343  36.679  33.215   1.849
35728W        W 7344  11.353  39.818  11.086
35729W        W 7345   8.885  23.371  14.753
35730W        W 7346  17.524  15.858  10.765
35731W        W 7347  38.372   0.941  11.096
35732W        W 7348  13.808   7.116   4.600
35733W        W 7349  26.043  35.099   1.355
35734W        W 7350  44.378  23.638  14.506
35735W        W 7351  30.444  21.941   2.498
35736W        W 7352  18.676  25.085  14.169
35737W        W 7353  24.641  29.454  11.880
35738W        W 7354  34.955  44.354  11.597
35739W        W 7355  25.121  25.491  10.699
35740W        W 7356  33.472  22.772  12.424
35741W        W 7357  39.079  40.124  13.560
35742W        W 7358  41.443  24.153  14.348
35743W        W 7359  12.357   4.536   2.818
35744W        W 7360  36.921  19.353  11.695
35745W        W 7361  35.843  12.771   2.139
35746W        W 7362  12.861  18.175  14.217
35747W        W 7363  43.436  44.928   4.606
35748W        W 7364  41.056  16.268  11.559
35749W        W 7365   4.723  29.311  11.131
35750W        W 7366  31.439  44.893   0.995
35751W        W 7367  25.210   8.257   2.331
35752W        W 7368  37.050   9.812  11.783
35753W        W 7369  23.925   9.503   0.798
35754W        W 7370  18.981   2.243  14.852
35755W        W 7371  18.711   5.357   0.826
35756W        W 7372  25.266  23.215   0.456
35757W        W 7373  33.132  43.375  14.778
35758W        W 7374   2.990  21.981  12.865
35759W        W 7375   6.819   0.320   3.761
35760W        W 7376  37.547  24.128   2.857
35761W        W 7377  29.659  21.024   3.186
35762W        W 7378   4.475  43.765   3.330
35763W        W 7379  30.388  44.282   0.330
35764W        W 7380   1.923  42.521   1.187
35765W        W 7381   7.845  42.071  13.136
35766W        W 7382   1.389  42.330  12.007
35767W        W 7383   5.369  16.877   2.857
35768W        W 7384  40.544  12.326   0.908
35769W        W 7385  31.578  31.000   2.690
35770W        W 7386  40.283  30.701   3.611
35771W        W 7387  22.649   1.930   4.250
35772W        W 7388  29.917  28.883   1.304
35773W        W 7389  16.074  10.369  10.415
35774W        W 7390   7.154  16.570  13.396
35775W        W 7391  43.861  28.587   4.558
35776W        W 7392  11.895  23.361  13.555
35777W        W 7393  38.894  23.150   4.907
35778W        W 7394  26.905   1.825   1.648
35779W        W 7395   0.342  33.454  13.453
35780W        W 7396  20.829  30.065   4.532
35781W        W 7397   1.223  31.557   3.700
35782W        W 7398  40.259  30.701  11.536
35783W        W 7399  36.866   8.712  12.926
35784W        W 7400  24.710  42.056   2.809
35785W        W 7401   1.721  17.548   3.375
35786W        W 7402  43.932  13.348   3.809
35787W        W 7403  11.118  16.822   4.092
35788W        W 7404  16.241  21.720  12.615
35789W        W 7405  19.586   7.785  14.895
35790W        W 7406  30.137  23.079  12.978
35791W        W 7407   7.124  35.777   1.742
35792W        W 7408  39.315  44.633  11.496
35793W        W 7409  21.067  21.520   4.511
35794W        W 7410  24.611  38.463  11.994
35795W        W 7411  16.225  20.718  12.375
35796W        W 7412   5.355  43.989   5.101
35797W        W 7413   0.143   3.257   0.209
35798W        W 7414  34.954   1.810   3.206
35799W        W 7415  27.610   1.820  14.457
35800W        W 7416   9.956  35.935  11.088
35801W        W 7417  17.282  33.821   2.328
35802W        W 7418  16.308  37.039   0.438
35803W        W 7419  16.525  41.259  10.782
35804W        W 7420  39.961  18.298   0.438
35805W        W 7421   2.415  42.313  14.956
35806W        W 7422  17.161   3.493   1.478
35807W        W 7423  28.176  28.104  11.168
35808W        W 7424  27.601  19.813   3.310
35809W        W 7425  23.208  29.529   4.244
35810W        W 7426  25.598  40.114   2.466
35811W        W 7427  42.148  13.250  13.122
35812W        W 7428  30.414  23.726   3.130
35813W        W 7429  39.498  44.321   9.961
35814W        W 7430  13.853  23.051   1.216
35815W        W 7431  34.475  29.275   1.335
35816W        W 7432  14.854  24.512   2.071
35817W        W 7433   5.709   7.828   4.166
35818W        W 7434  12.349  13.496   4.511
35819W        W 7435  41.465   4.323  12.072
35820W        W 7436  32.160   1.575  10.211
35821W        W 7437   5.089  34.875  11.133
35822W        W 7438  43.527  11.716  11.186
35823W        W 7439  13.930  39.736  11.580
35824W        W 7440   7.155  39.379  11.476
35825W        W 7441  27.101  39.428   2.156
35826W        W 7442  11.703  39.072   4.976
35827W        W 7443  18.792   0.558  10.404
35828W        W 7444  29.964  33.495  11.989
35829W        W 7445   0.288   4.900  13.846
35830W        W 7446  39.678  30.368   2.554
35831W        W 7447  27.534   2.838   0.001
35832W        W 7448  19.582  42.134   2.367
35833W        W 7449  15.092  38.386  12.953
35834W        W 7450  10.339  10.684   3.072
35835W        W 7451  41.024  25.666   2.674
35836W        W 7452  23.807  39.941   3.747
35837W        W 7453   4.202  15.646  10.601
35838W        W 7454  33.113  15.248  13.009
35839W        W 7455  26.601  14.383  13.206
35840W        W 7456  11.606  28.198   3.071
35841W        W 7457   2.922  25.869   2.303
35842W        W 7458  29.374  44.461   1.796
35843W        W 7459  20.534  29.975   4.076
35844W        W 7460  10.397  43.997   1.426
35845W        W 7461  38.891  26.083  13.986
35846W        W 7462  35.596  36.109   2.549
35847W        W 7463   5.715  43.558  14.777
35848W        W 7464   3.983  41.957  13.616
35849W        W 7465   2.709  41.743  10.950
35850W        W 7466  28.629  36.440  13.755
35851W        W 7467  18.762  27.863   1.266
35852W        W 7468  20.879  14.785   3.613
35853W        W 7469  32.645  31.485   2.705
35854W        W 7470  29.422  25.513   3.243
35855W        W 7471  29.877  34.429   3.805
35856W        W 7472  43.297  28.516   0.985
35857W        W 7473  33.616  15.501   4.615
35858W        W 7474  43.432  43.460   0.270
35859W        W 7475  12.951   0.524   4.975
35860W        W 7476   1.290  22.086  13.624
35861W        W 7477  20.482  33.917  14.482
35862W        W 7478   8.587  14.730   2.699
35863W        W 7479  43.299  30.429  12.395
35864W        W 7480  11.694  30.620   1.653
35865W        W 7481   8.803  15.836  14.755
35866W        W 7482  33.309  40.452   1.185
35867W        W 7483  44.362  22.411  13.485
35868W        W 7484   0.988   6.283  12.584
35869W        W 7485   8.380  25.716   0.222
35870W        W 7486  31.495  25.521  14.550
35871W        W 7487  15.776  35.383  13.852
35872W        W 7488  41.013   0.007   3.159
35873W        W 7489  16.816  33.584   2.232
35874W        W 7490   4.952   0.552   9.780
35875W        W 7491  11.196  17.761  12.117
35876W        W 7492  26.724  25.163  11.941
35877W        W 7493  17.155  16.181  12.132
35878W        W 7494  25.258   5.116   2.742
35879W        W 7495  34.336  31.686  10.726
35880W        W 7496   4.908  38.965   3.228
35881W        W 7497  23.252  44.477  13.539
35882W        W 7498  15.680  10.693  10.600
35883W        W 7499  17.040  42.840  12.049
35884W        W 7500  36.362  21.094  10.425
35885W        W 7501  26.753  26.777   2.804
35886W        W 7502  23.562  24.084   0.378
35887W        W 7503  15.618   0.906  11.590
35888W        W 7504  20.050  26.205  13.360
35889W        W 7505  22.203   1.727  14.844
35890W        W 7506  12.397  12.807   0.004
35891W        W 7507  27.662  23.752   1.884
35892W        W 7508  18.272  14.203   5.133
35893W        W 7509  42.381  37.071   3.770
35894W        W 7510  19.889  19.177   2.389
35895W        W 7511  23.582   3.721   1.701
35896W        W 7512   0.757  36.089   4.470
35897W        W 7513  42.438  33.924  14.287
35898W        W 7514  11.751   6.974  14.111
35899W        W 7515  36.870  15.862  13.437
35900W        W 7516  29.026   6.956   0.525
35901W        W 7517  11.652   3.874   4.212
35902W        W 7518   9.865  32.591  12.912
35903W        W 7519  41.906  43.193  13.572
35904W        W 7520   8.033   7.444   2.792
35905W        W 7521  20.422  43.729   5.331
35906W        W 7522  10.745  24.202  11.304
35907W        W 7523  39.998   2.324  12.238
35908W        W 7524  30.472  22.139   4.124
35909W        W 7525  31.927   7.898  11.571
35910W        W 7526  23.816  10.313   2.342
35911W        W 7527  35.601  20.192  10.939
35912W        W 7528  27.421   5.325   1.425
35913W        W 7529  15.158  38.599   0.600
35914W        W 7530  23.671  17.493   4.479
35915W        W 7531  25.745  37.266  12.077
35916W        W 7532  36.785   8.535  10.632
35917W        W 7533  11.779  30.398  13.340
35918W        W 7534  42.414  26.230  13.380
35919W        W 7535  10.687   5.166   1.840
35920W        W 7536   9.872  21.243  11.097
35921W        W 7537  14.093  28.063   1.462
35922W        W 7538  24.946  37.513  10.222
35923W        W 7539  43.240  24.729  12.525
35924W        W 7540  42.056  43.510  14.974
35925W        W 7541   4.937  37.764   1.625
35926W        W 7542  26.891   8.758  11.019
35927W        W 7543  43.385   9.792   3.760
35928W        W 7544  19.340  43.585  11.032
35929W        W 7545  25.975  15.739   3.405
35930W        W 7546   2.727   8.944   2.196
35931W        W 7547  44.564  13.418   0.364
35932W        W 7548   2.921  25.658   4.125
35933W        W 7549   3.731  16.840   1.743
35934W        W 7550  27.764   5.967  10.552
35935W        W 7551  39.847   9.239  12.600
35936W        W 7552  10.739  41.577  14.053
35937W        W 7553  19.124  39.295  11.532
35938W        W 7554   5.446  29.550  13.262
35939W        W 7555   7.208  34.498   1.962
35940W        W 7556   3.242  24.906   4.460
35941W        W 7557  10.761  16.026   4.782
35942W        W 7558  24.462   0.502  12.923
35943W        W 7559  42.264  26.853   0.057
35944W        W 7560  22.649  17.055   3.525
35945W        W 7561  21.215  28.602  10.771
35946W        W 7562  10.144   0.023   2.262
35947W        W 7563   9.627  36.844  11.047
35948W        W 7564   9.339   1.438   2.983
35949W        W 7565  13.799  15.059  12.596
35950W        W 7566  19.951  16.575  14.397
35951W        W 7567  11.182  43.467   0.366
35952W        W 7568  14.079  36.643   2.155
35953W        W 7569  28.663  39.512   0.635
35954W        W 7570   4.709   5.403  13.900
35955W        W 7571  29.514  35.345  12.531
35956W        W 7572   0.680  22.813  12.589
35957W        W 7573   7.803  16.738   3.727
35958W        W 7574   4.964  25.637   1.777
35959W        W 7575  29.022  19.157  13.202
35960W        W 7576  32.647  39.816   4.360
35961W        W 7577  37.938  10.958   4.909
35962W        W 7578  36.123  39.865   3.697
35963W        W 7579  22.025  16.083  11.538
35964W        W 7580  17.040  30.178   3.714
35965W        W 7581  30.697  39.390  12.895
35966W        W 7582  41.915  38.052  12.391
35967W        W 7583  14.064   2.488   2.304
35968W        W 7584  44.493  41.331  13.654
35969W        W 7585   4.708  22.613   3.992
35970W        W 7586  35.566  18.191   0.287
35971W        W 7587  13.713  26.312  14.120
35972W        W 7588  22.502  23.120   4.541
35973W        W 7589  26.746  16.255   1.875
35974W        W 7590  26.032   2.148   2.493
35975W        W 7591  43.123  38.004   1.804
35976W        W 7592  40.576  33.087  13.361
35977W        W 7593  38.844  33.635   1.897
35978W        W 7594  15.000  44.343  10.592
35979W        W 7595  23.209  31.246  12.988
35980W        W 7596  24.079  14.603  11.049
35981W        W 7597  34.292   6.330  12.474
35982W        W 7598   8.767  32.331  12.431
35983W        W 7599  34.175   9.053   4.674
35984W        W 7600  36.400  14.540  10.434
35985W        W 7601  28.414   3.766   2.438
35986W        W 7602  18.040  34.106  14.015
35987W        W 7603  10.977   4.110  11.592
35988W        W 7604   0.461   5.909   2.287
35989W        W 7605  42.811  12.284  13.897
35990W        W 7606   9.650  40.057   3.741
35991W        W 7607  25.422  18.449  10.575
35992W        W 7608  37.671  43.603   0.817
35993W        W 7609  40.546   6.184   3.635
35994W        W 7610  40.316  34.224   3.548
35995W        W 7611  43.019  19.458  10.473
35996W        W 7612  27.289  20.293   0.867
35997W        W 7613   0.843  30.624   2.130
35998W        W 7614  42.499   6.292   1.991
35999W        W 7615  35.623  42.085  13.209
36000W        W 7616  37.910  27.064   0.449
36001W        W 7617  28.371  30.491   1.461
36002W        W 7618  13.416  31.581   2.338
36003W        W 7619  14.386  17.507   2.753
36004W        W 7620  16.437  22.147   0.179
36005W        W 7621  17.781  16.459   9.476
36006W        W 7622  20.526   0.614  14.950
36007W        W 7623  41.614  10.257  14.352
36008W        W 7624  16.216  37.532  12.991
36009W        W 7625  37.386  43.958  13.857
36010W        W 7626   1.765   3.123   4.035
36011W        W 7627  16.220  32.027   2.619
36012W        W 7628   4.561  22.611   1.445
36013W        W 7629  35.078  33.493  12.116
36014W        W 7630  14.931  10.233  14.535
36015W        W 7631  32.647  16.644   3.250
36016W        W 7632  15.052   0.987  13.636
36017W        W 7633  10.157  37.100   2.256
36018W        W 7634  11.221  42.862   2.698
36019W        W 7635  25.987  20.142   3.847
36020W        W 7636  19.698  13.446   5.106
36021W        W 7637   9.151  39.531  14.249
36022W        W 7638  17.163   2.482   4.635
36023W        W 7639  36.524  12.330   4.734
36024W        W 7640  24.510  29.411   4.368
36025W        W 7641   4.967  15.445   4.592
36026W        W 7642  32.574  32.059  12.448
36027W        W 7643  27.108   3.065   0.291
36028W        W 7644  43.345  19.178   4.016
36029W        W 7645  19.588   0.543   4.558
36030W        W 7646  16.367  28.420  12.423
36031W        W 7647  42.303  13.615   3.324
36032W        W 7648  42.415  12.705   2.982
36033W        W 7649  29.547  11.454  12.934
36034W        W 7650  41.217  38.502   0.650
36035W        W 7651  38.901  21.159  10.627
36036W        W 7652  20.939   0.089  11.555
36037W        W 7653  43.417  29.205   2.293
36038W        W 7654  27.217  30.423  14.504
36039W        W 7655  22.144  38.301   0.005
36040W        W 7656  24.448  32.525   2.292
36041W        W 7657  19.335  29.704  12.514
36042W        W 7658  12.702  28.610   1.456
36043W        W 7659  38.141  24.719  12.431
36044W        W 7660  22.841  14.224   1.669
36045W        W 7661  36.436  35.787  14.210
36046W        W 7662  34.426  12.162  12.927
36047W        W 7663  39.287  22.664   3.732
36048W        W 7664  41.026  38.423  12.584
36049W        W 7665  25.090   0.385   0.317
36050W        W 7666  17.042   8.427   0.367
36051W        W 7667   6.978  30.682  11.210
36052W        W 7668   7.989  32.867  13.375
36053W        W 7669   2.572  22.019   4.657
36054W        W 7670   2.223   6.611  14.845
36055W        W 7671  29.090  42.342   0.713
36056W        W 7672  42.446  15.117   0.964
36057W        W 7673  31.628  42.150  14.552
36058W        W 7674  22.072   5.696   2.217
36059W        W 7675  33.645  10.695   1.925
36060W        W 7676  40.503  24.719  11.157
36061W        W 7677  39.024   5.786  11.177
36062W        W 7678  44.461  11.650   0.828
36063W        W 7679   1.613  21.028  11.629
36064W        W 7680  14.080  16.572   0.696
36065W        W 7681  32.680  44.233   3.282
36066W        W 7682  13.172  25.248   2.894
36067W        W 7683  30.101  29.678   3.677
36068W        W 7684   0.836  32.371   1.239
36069W        W 7685  19.857  25.210   4.880
36070W        W 7686  43.883  29.111  10.879
36071W        W 7687  15.642  15.581  10.301
36072W        W 7688  36.355  11.264  14.848
36073W        W 7689  16.648  13.657   2.671
36074W        W 7690  30.405  37.424  11.135
36075W        W 7691   9.594  32.051   3.187
36076W        W 7692   4.915   3.038  12.527
36077W        W 7693  39.181  41.764  11.425
36078W        W 7694   1.460  43.981   2.137
36079W        W 7695  20.573  18.449  11.478
36080W        W 7696  38.348   3.893   1.377
36081W        W 7697  19.823  44.942   1.275
36082W        W 7698  34.082   5.214  12.967
36083W        W 7699  26.132  14.711   9.928
36084W        W 7700  39.898  20.594  13.890
36085W        W 7701   7.321  44.042   4.110
36086W        W 7702  18.696   2.826  10.687
36087W        W 7703  28.175  39.349  14.378
36088W        W 7704  32.082   9.111   4.697
36089W        W 7705   0.581  36.956   4.438
36090W        W 7706  20.912  44.210   1.826
36091W        W 7707   7.738   9.586  11.209
36092W        W 7708  15.645  12.929   3.777
36093W        W 7709  18.241  31.853  10.880
36094W        W 7710  28.735  20.198   4.205
36095W        W 7711  44.610  42.577   5.057
36096W        W 7712  12.779   9.349  13.328
36097W        W 7713  21.071  41.053  12.884
36098W        W 7714  29.896   8.294  11.527
36099W        W 7715  38.845  11.078  11.577
36100W        W 7716   5.817  42.866   3.234
36101W        W 7717  27.655  22.547  12.608
36102W        W 7718  37.030  26.018  14.525
36103W        W 7719  17.153  33.920  11.078
36104W        W 7720   4.683  24.736  13.921
36105W        W 7721   0.215  20.120  10.642
36106W        W 7722  42.732  26.195  12.944
36107W        W 7723  33.951  17.034   3.268
36108W        W 7724  22.823  10.726  14.880
36109W        W 7725  26.968   0.095  13.446
36110W        W 7726  31.504  39.443  10.738
36111W        W 7727  24.628  32.928  13.285
36112W        W 7728  44.996  39.459   4.125
36113W        W 7729  38.630   1.382   0.368
36114W        W 7730   6.850  13.746  11.425
36115W        W 7731  29.535  35.537  11.350
36116W        W 7732  26.237  20.004   2.324
36117W        W 7733  23.624  44.468  10.539
36118W        W 7734  36.254  20.641   2.781
36119W        W 7735  17.127  34.051  10.471
36120W        W 7736  36.117   1.757   1.806
36121W        W 7737   1.833  26.494   3.264
36122W        W 7738   1.386  26.696   0.387
36123W        W 7739   1.779  38.540  10.686
36124W        W 7740  24.082  18.228   3.486
36125W        W 7741  25.042  27.513   1.270
36126W        W 7742   9.415  34.639  12.425
36127W        W 7743   0.996   9.376   0.419
36128W        W 7744  19.709   8.833  12.391
36129W        W 7745  33.918  41.987   0.543
36130W        W 7746  20.587  28.178   2.714
36131W        W 7747  17.596   7.384  13.601
36132W        W 7748  44.740  28.601  12.445
36133W        W 7749  36.674   9.941   2.254
36134W        W 7750  38.421  40.233  10.633
36135W        W 7751  41.235  28.723  13.521
36136W        W 7752  13.871  13.344  13.473
36137W        W 7753  35.861  20.187  12.541
36138W        W 7754   7.327  18.082  10.943
36139W        W 7755   4.928  31.840   0.011
36140W        W 7756   0.959  37.240   4.245
36141W        W 7757   3.746  41.462   1.307
36142W        W 7758  29.993  37.801   1.850
36143W        W 7759  44.880  21.331  14.085
36144W        W 7760  33.906  38.796   2.843
36145W        W 7761  29.960  17.752  11.971
36146W        W 7762  36.798  20.118   1.315
36147W        W 7763  36.849  23.455  13.768
36148W        W 7764  22.166  38.753   9.976
36149W        W 7765  24.095  38.975  10.707
36150W        W 7766  22.893  36.258   0.942
36151W        W 7767  16.575  17.255   2.804
36152W        W 7768   9.724  13.356   2.908
36153W        W 7769   5.673  10.388  11.742
36154W        W 7770  15.218  25.219   0.193
36155W        W 7771  21.291  27.707  12.975
36156W        W 7772  28.252  41.294  11.530
36157W        W 7773  13.387  35.803   4.590
36158W        W 7774  26.205  14.089   0.679
36159W        W 7775  41.930  23.417   0.545
36160W        W 7776  25.541  25.712  10.892
36161W        W 7777  32.822  19.225  14.355
36162W        W 7778  29.233   6.391  13.772
36163W        W 7779  19.785  33.143   4.243
36164W        W 7780  34.463  24.930   3.495
36165W        W 7781  28.440  31.231   0.291
36166W        W 7782  38.934   1.630  12.685
36167W        W 7783  24.880  39.994  11.268
36168W        W 7784   0.787  25.228  14.721
36169W        W 7785   3.217  24.538  13.929
36170W        W 7786  40.023  11.271   2.086
36171W        W 7787   6.238  43.246  11.430
36172W        W 7788  33.466   0.565  12.373
36173W        W 7789   8.667  12.528  12.357
36174W        W 7790  37.100   8.334   4.607
36175W        W 7791  30.613  17.592   4.182
36176W        W 7792  11.168  29.190  12.207
36177W        W 7793  37.453  18.067   0.942
36178W        W 7794  14.752   4.046   9.859
36179W        W 7795  43.328  27.412   1.273
36180W        W 7796  23.200  34.516  11.643
36181W        W 7797  24.829  25.509   1.352
36182W        W 7798  23.078  39.520   0.905
36183W        W 7799  39.854  30.154  13.634
36184W        W 7800  26.141  37.787   4.765
36185W        W 7801  28.928  24.212   2.669
36186W        W 7802  35.696  44.941   1.823
36187W        W 7803   4.325  11.757  14.282
36188W        W 7804  37.909   5.456  13.764
36189W        W 7805  23.006  24.739  14.445
36190W        W 7806  43.804   5.131   1.215
36191W        W 7807  24.901   0.200  12.952
36192W        W 7808   9.708  44.415   4.421
36193W        W 7809  26.424  24.104   2.597
36194W        W 7810  26.097  12.820   0.495
36195W        W 7811  35.713  33.559  14.546
36196W        W 7812  39.220  17.844   2.137
36197W        W 7813  15.513  22.027  11.136
36198W        W 7814  11.562  32.429  13.398
36199W        W 7815  24.815   5.786  10.582
36200W        W 7816   5.165   1.714  12.648
36201W        W 7817  15.015  24.840  13.895
36202W        W 7818  30.442  37.801   2.629
36203W        W 7819  27.671  13.374  13.547
36204W        W 7820  29.692  35.166  12.072
36205W        W 7821  16.458  29.578   2.776
36206W        W 7822   4.754   8.659  14.946
36207W        W 7823  21.200   1.961  14.743
36208W        W 7824   1.091  32.874   4.017
36209W        W 7825   2.131  44.934   4.900
36210W        W 7826  20.705  21.778  12.438
36211W        W 7827  10.807   1.225   4.753
36212W        W 7828  37.767  21.091   1.403
36213W        W 7829  17.642  36.714   0.386
36214W        W 7830  44.913  22.974  14.865
36215W        W 7831  40.271  18.778   2.732
36216W        W 7832   2.827  33.180   2.201
36217W        W 7833   9.535  19.580  12.210
36218W        W 7834  43.774  17.307  13.293
36219W        W 7835   5.200  26.921  10.572
36220W        W 7836  11.230  20.162   2.173
36221W        W 7837  20.509  25.075   1.765
36222W        W 7838  32.604  34.580   0.760
36223W        W 7839  34.468  31.921   0.965
36224W        W 7840  41.266  34.200   1.480
36225W        W 7841   6.761  14.070   1.608
36226W        W 7842  23.225  12.114  12.966
36227W        W 7843  22.952   1.939   4.670
36228W        W 7844   2.363   6.665  12.957
36229W        W 7845   4.832  20.312  10.649
36230W        W 7846  13.552  16.615  13.444
36231W        W 7847  31.547   2.461  13.565
36232W        W 7848   8.708   6.151   4.343
36233W        W 7849  14.217  39.483   2.234
36234W        W 7850  25.712   8.363  10.596
36235W        W 7851  35.413  19.001  12.422
36236W        W 7852  28.094  23.989   3.143
36237W        W 7853  34.375  30.882   2.337
36238W        W 7854   2.218   4.575  13.426
36239W        W 7855  25.599  11.490  14.309
36240W        W 7856  35.307  41.558   1.659
36241W        W 7857  11.832   6.332  12.277
36242W        W 7858  14.652   3.305  14.073
36243W        W 7859  10.634  39.228   3.281
36244W        W 7860  14.137  19.949  11.041
36245W        W 7861   1.725  44.423   5.511
36246W        W 7862  42.171   7.574   1.433
36247W        W 7863   3.828  18.077   0.991
36248W        W 7864  43.964  24.382   2.747
36249W        W 7865  28.165  13.103  12.375
36250W        W 7866  27.474  13.616   1.392
36251W        W 7867  19.181   3.012   3.768
36252W        W 7868   9.173  20.737  10.324
36253W        W 7869   6.360  39.447   3.342
36254W        W 7870   8.932   3.594   0.849
36255W        W 7871   6.051  28.485   4.060
36256W        W 7872   3.169  44.282   2.388
36257W        W 7873  32.924  19.186  13.013
36258W        W 7874  23.944  42.394  12.929
36259W        W 7875   6.450  17.214  14.965
36260W        W 7876  14.903  43.292  13.005
36261W        W 7877   3.679  14.840   1.336
36262W        W 7878  34.462  24.384   2.292
36263W        W 7879  35.827  28.835  11.123
36264W        W 7880  30.585  18.680   2.645
36265W        W 7881  31.555   8.755  10.586
36266W        W 7882  38.232  40.761   4.230
36267W        W 7883  25.912  14.829  11.365
36268W        W 7884  36.015  42.767   1.739
36269W        W 7885  35.369  10.712  13.319
36270W        W 7886  37.250  44.910   1.599
36271W        W 7887  19.417   3.873   3.917
36272W        W 7888  30.792  28.345   4.725
36273W        W 7889  15.578  11.552  14.741
36274W        W 7890  26.503   9.728   2.355
36275W        W 7891  11.202  33.562   3.812
36276W        W 7892  43.848  43.842   0.764
36277W        W 7893  44.517  28.023  14.387
36278W        W 7894  14.925   7.389  14.804
36279W        W 7895  44.311  33.980  11.026
36280W        W 7896  15.665  36.385   1.409
36281W        W 7897  10.667  17.337   2.526
36282W        W 7898  42.338  12.209   3.134
36283W        W 7899  18.702   2.337  12.901
36284W        W 7900  13.288  29.456   4.168
36285W        W 7901   2.804  16.236   2.209
36286W        W 7902   7.346   5.932   3.904
36287W        W 7903  31.565  12.673   0.405
36288W        W 7904  27.628  11.803  13.421
36289W        W 7905  32.386   0.736   1.751
36290W        W 7906  14.170  20.580  11.552
36291W        W 7907   4.048   0.884   4.335
36292W        W 7908  41.738   0.997   0.777
36293W        W 7909  25.691   9.299   2.666
36294W        W 7910  39.578   6.041   4.152
36295W        W 7911  15.419  23.014  14.002
36296W        W 7912  18.347  16.957   4.859
36297W        W 7913  20.544  18.141   2.743
36298W        W 7914  19.279  24.218   2.505
36299W        W 7915   8.846  25.931   4.145
36300W        W 7916  21.740  38.437   0.290
36301W        W 7917  14.232   5.807   1.324
36302W        W 7918  20.669  44.189   0.879
36303W        W 7919  44.059   9.623  12.879
36304W        W 7920  19.202  23.522  12.564
36305W        W 7921  31.254   0.996   3.391
36306W        W 7922  18.600  32.107   1.916
36307W        W 7923  30.181  27.404   2.254
36308W        W 7924  17.207   0.688   1.474
36309W        W 7925   1.592   7.849  12.429
36310W        W 7926  17.518   0.271   3.696
36311W        W 7927  43.882  25.769  13.123
36312W        W 7928  16.602  33.619   1.764
36313W        W 7929  28.893  42.870  11.557
36314W        W 7930  42.777   8.874  12.424
36315W        W 7931  43.348  30.945   4.434
36316W        W 7932  30.823  25.911  13.929
36317W        W 7933  30.182  11.144  10.613
36318W        W 7934  24.204  44.808  11.879
36319W        W 7935  30.727   1.842   2.153
36320W        W 7936  22.527   5.266   4.145
36321W        W 7937   2.458   4.192   2.390
36322W        W 7938  43.105  13.929  14.434
36323W        W 7939  36.065  38.302   2.853
36324W        W 7940   8.873  37.764   2.920
36325W        W 7941   4.837  37.005  11.091
36326W        W 7942   9.778  17.555   3.321
36327W        W 7943  22.977  20.489   4.719
36328W        W 7944  15.834  26.971   3.759
36329W        W 7945  38.778  30.842  14.835
36330W        W 7946  26.178  35.102  11.126
36331W        W 7947   8.109  37.842   3.658
36332W        W 7948  18.665  43.867  13.361
36333W        W 7949  26.207  42.948  10.894
36334W        W 7950   0.349  23.026   0.830
36335W        W 7951   9.703  26.784   2.448
36336W        W 7952  22.237   9.241   2.341
36337W        W 7953  27.288  40.839  13.835
36338W        W 7954  17.146  19.516   3.332
36339W        W 7955  29.821  34.853  11.662
36340W        W 7956  20.229   6.858  11.745
36341W        W 7957  13.800  16.531  10.407
36342W        W 7958  13.842   3.154   2.744
36343W        W 7959  41.633  42.350   3.181
36344W        W 7960  14.333  31.077   4.402
36345W        W 7961  38.494   5.717  10.419
36346W        W 7962  41.070  37.591   1.611
36347W        W 7963  12.396  14.207  14.328
36348W        W 7964  43.902  19.485   1.431
36349W        W 7965  19.178   0.997  11.498
36350W        W 7966  35.363  38.042   4.165
36351W        W 7967  31.090  29.137   3.803
36352W        W 7968  23.254  15.669   1.474
36353W        W 7969  20.069  16.490  10.398
36354W        W 7970  12.186  36.930   0.073
36355W        W 7971  29.895  24.649  13.825
36356W        W 7972   6.861  30.132   0.344
36357W        W 7973  25.448  35.925   4.054
36358W        W 7974  26.636  10.118  14.577
36359W        W 7975   5.884  24.723  11.026
36360W        W 7976  12.837  26.685  10.940
36361W        W 7977  42.952  19.448  12.949
36362W        W 7978  34.557  18.121  14.866
36363W        W 7979  19.338   8.463  13.383
36364W        W 7980  11.875  25.079   3.674
36365W        W 7981  41.836  31.586   2.778
36366W        W 7982  22.211  36.508   1.454
36367W        W 7983  39.414  13.298   0.431
36368W        W 7984   3.222   2.255  10.439
36369W        W 7985  23.553  43.003   0.416
36370W        W 7986  43.300  38.002  14.609
36371W        W 7987  24.967   1.623  14.517
36372W        W 7988  30.556  36.010  13.402
36373W        W 7989  10.350   6.789   2.849
36374W        W 7990  22.147  26.000  13.085
36375W        W 7991  15.644  25.483   2.626
36376W        W 7992  44.459  16.744   1.745
36377W        W 7993   4.863  23.082  11.932
36378W        W 7994  25.159  22.742  12.429
36379W        W 7995  38.099   1.910  14.539
36380W        W 7996  18.128  33.181   1.893
36381W        W 7997   2.705  29.166   4.544
36382W        W 7998   5.312  31.488  14.367
36383W        W 7999  36.244  40.026  12.553
36384W        W 8000  20.217  30.482   1.233
36385W        W 8001   7.965  25.080  12.968
36386W        W 8002  44.898   5.718   0.951
36387W        W 8003   9.212   3.887  14.549
36388W        W 8004  37.122  14.349   4.609
36389W        W 8005  27.627  26.351   2.171
36390W        W 8006  32.984   3.712  10.997
36391W        W 8007   1.388  27.737   1.674
36392W        W 8008  23.085  25.511   0.984
36393W        W 8009  21.303  13.199  11.994
36394W        W 8010  24.850   6.743  14.520
36395W        W 8011   9.730   8.744   1.253
36396W        W 8012  26.710  13.085  13.395
36397W        W 8013  12.680   1.181   0.780
36398W        W 8014   9.611  16.109  11.882
36399W        W 8015   7.217  32.826  13.918
36400W        W 8016  21.665  18.596   2.180
36401W        W 8017  24.027  43.443   3.374
36402W        W 8018  24.966  10.636  13.939
36403W        W 8019   5.734  21.360  12.857
36404W        W 8020  25.205  14.307  10.653
36405W        W 8021  43.111  20.231   4.334
36406W        W 8022  20.192  41.043   3.619
36407W        W 8023  34.888   7.303   4.634
36408W        W 8024  30.763  14.086  12.441
36409W        W 8025  18.458  23.923  12.614
36410W        W 8026  39.872  24.262   2.750
36411W        W 8027   3.219  26.153   4.174
36412W        W 8028   1.296  16.869  11.578
36413W        W 8029  32.503  23.482  14.290
36414W        W 8030  19.104   5.828   2.682
36415W        W 8031  18.688  26.070  12.834
36416W        W 8032   6.259  14.137   3.336
36417W        W 8033  25.096   2.282   3.382
36418W        W 8034   9.716  41.525  13.610
36419W        W 8035  44.430  26.133  14.823
36420W        W 8036  12.257  43.816   4.734
36421W        W 8037  35.991  34.849  13.534
36422W        W 8038  34.987  10.678  12.083
36423W        W 8039  23.562  29.075  10.680
36424W        W 8040  18.742  10.886   0.364
36425W        W 8041  38.777  17.239   1.277
36426W        W 8042   9.791  18.693   4.597
36427W        W 8043   7.032  29.195   1.817
36428W        W 8044  19.200  23.756   2.314
36429W        W 8045   1.903  35.999   0.168
36430W        W 8046  28.566  38.029   3.488
36431W        W 8047   2.569   6.397   3.261
36432W        W 8048  28.984   1.129  14.339
36433W        W 8049  26.228  37.257  12.570
36434W        W 8050  40.531  24.876   9.938
36435W        W 8051  30.615  13.848   0.362
36436W        W 8052  23.273  28.708  10.917
36437W        W 8053   1.674  43.215  12.063
36438W        W 8054  26.620   9.506   0.263
36439W        W 8055  14.340  43.023  12.037
36440W        W 8056   6.905   4.728  13.459
36441W        W 8057  21.587   6.095   0.995
36442W        W 8058  37.294  25.587   3.850
36443W        W 8059  36.598  36.271  10.637
36444W        W 8060  21.007  23.775  13.475
36445W        W 8061  24.146   8.857   9.989
36446W        W 8062  34.590  27.369   2.191
36447W        W 8063  22.060  10.752  13.713
36448W        W 8064  36.439  15.576   0.712
36449W        W 8065  22.593  28.385   3.282
36450W        W 8066   4.973   9.769   2.665
36451W        W 8067  44.946   9.250  12.912
36452W        W 8068  34.435  19.966   2.652
36453W        W 8069  41.396  44.639  10.713
36454W        W 8070   0.347  16.393  12.660
36455W        W 8071  22.066  21.490  13.855
36456W        W 8072  15.989   3.982  11.035
36457W        W 8073   9.460  39.030  11.014
36458W        W 8074  26.164  14.340   5.465
36459W        W 8075  37.603  12.827  11.250
36460W        W 8076  29.434  15.531  12.484
36461W        W 8077   4.306  40.763  11.143
36462W        W 8078  19.674  39.773   3.855
36463W        W 8079   1.269  29.527   3.138
36464W        W 8080  15.097  19.230  13.400
36465W        W 8081  34.344   9.293   0.893
36466W        W 8082  37.133  19.828   3.297
36467W        W 8083  27.247  43.064   4.298
36468W        W 8084  13.130  24.183   4.592
36469W        W 8085  28.747  13.080  14.090
36470W        W 8086  38.312  16.346   0.462
36471W        W 8087  11.726  13.566   4.228
36472W        W 8088  41.633   0.514   0.944
36473W        W 8089   9.824  27.291  12.832
36474W        W 8090  10.913   1.761   2.734
36475W        W 8091  26.351  21.190  11.430
36476W        W 8092   3.221   8.738   0.274
36477W        W 8093   6.472  16.188   1.782
36478W        W 8094  28.094  21.901   4.822
36479W        W 8095  18.528   2.572  11.990
36480W        W 8096  23.531   9.369   1.401
36481W        W 8097  16.052  24.320   4.134
36482W        W 8098  24.493  38.373   1.787
36483W        W 8099  16.148  12.785   3.667
36484W        W 8100   0.744   3.193  12.002
36485W        W 8101  11.229  25.782  14.801
36486W        W 8102  23.495   3.180   3.693
36487W        W 8103  23.013  33.145  12.321
36488W        W 8104  39.969  35.424   2.915
36489W        W 8105   2.760  30.081  12.727
36490W        W 8106   2.839  37.991  13.053
36491W        W 8107  18.134   8.424  13.000
36492W        W 8108  23.781  26.233  14.968
36493W        W 8109  17.472  22.141   0.413
36494W        W 8110  16.649   8.929  14.564
36495W        W 8111  30.829   5.266  13.632
36496W        W 8112  40.833  26.499   0.327
36497W        W 8113  38.976  19.814  10.409
36498W        W 8114  38.071  23.038  11.994
36499W        W 8115   2.761   0.327   1.840
36500W        W 8116   6.375  28.185   0.758
36501W        W 8117  24.578  36.393   4.964
36502W        W 8118  31.432  11.754  13.025
36503W        W 8119  31.378  21.073   0.274
36504W        W 8120  41.745  26.519   2.133
36505W        W 8121  27.644   7.219   2.781
36506W        W 8122  23.311  21.501  11.903
36507W        W 8123  31.111  29.562   2.796
36508W        W 8124  20.721  38.499  13.086
36509W        W 8125   7.369  23.734   0.429
36510W        W 8126  21.236  13.788   2.853
36511W        W 8127   3.185  14.370   0.133
36512W        W 8128  42.892  41.731   2.681
36513W        W 8129  24.757  26.953   3.747
36514W        W 8130  16.789  35.584  11.721
36515W        W 8131  33.749  39.824  11.883
36516W        W 8132  15.584   9.031   4.954
36517W        W 8133  33.548  29.493  13.500
36518W        W 8134  35.625  22.637  12.850
36519W        W 8135   6.703  18.061   2.278
36520W        W 8136  37.049  27.889  12.398
36521W        W 8137  38.419  32.370   4.329
36522W        W 8138  10.907  13.980   3.695
36523W        W 8139   7.289   6.531   2.366
36524W        W 8140  17.360   3.005   4.217
36525W        W 8141  42.446   2.756  12.981
36526W        W 8142  29.280  36.597   3.358
36527W        W 8143   2.400  43.229   0.182
36528W        W 8144  17.312  39.150   1.183
36529W        W 8145   7.410  33.057   0.261
36530W        W 8146  11.351  30.229   1.490
36531W        W 8147  17.055  37.556   1.869
36532W        W 8148  39.604  27.718  13.437
36533W        W 8149  24.350  24.143  11.060
36534W        W 8150   1.471  22.660   4.486
36535W        W 8151   8.181  12.289  11.940
36536W        W 8152  36.556  25.256  10.911
36537W        W 8153  19.219  32.386  13.347
36538W        W 8154  30.554  39.242  11.315
36539W        W 8155  35.354  28.058   2.749
36540W        W 8156  37.393  28.587   4.319
36541W        W 8157   3.348  12.531  13.055
36542W        W 8158  36.401   5.144  10.502
36543W        W 8159  40.253   0.114  11.901
36544W        W 8160   6.775  23.077  12.612
36545W        W 8161  35.388  18.132  12.304
36546W        W 8162   4.502  33.168   0.595
36547W        W 8163  28.337  39.482  13.871
36548W        W 8164  31.152  38.327   1.665
36549W        W 8165   9.667  30.356   1.613
36550W        W 8166  33.662   5.007  12.447
36551W        W 8167   6.217  13.032  10.221
36552W        W 8168   8.309   7.403  11.140
36553W        W 8169  17.020   5.615   2.846
36554W        W 8170  19.764  24.775  13.186
36555W        W 8171  29.544  37.522   1.943
36556W        W 8172  37.643  21.145   3.244
36557W        W 8173  44.095  16.749   0.921
36558W        W 8174  24.951  22.977   0.792
36559W        W 8175  35.469  41.939   1.977
36560W        W 8176  21.575  15.651   2.478
36561W        W 8177  38.991  41.265  11.337
36562W        W 8178   9.283  36.020   3.107
36563W        W 8179  32.595  20.735   1.067
36564W        W 8180   0.476   0.452  11.338
36565W        W 8181  43.691   5.899  11.995
36566W        W 8182  39.934   8.949  13.427
36567W        W 8183  40.791   3.987   3.301
36568W        W 8184  39.523  32.621   1.400
36569W        W 8185  33.908  32.600   0.846
36570W        W 8186  40.749  38.959   1.988
36571W        W 8187   0.764  39.076   4.325
36572W        W 8188  40.541  14.492  13.368
36573W        W 8189  39.265  37.332  14.813
36574W        W 8190  12.857  19.454   0.716
36575W        W 8191  36.891   6.790   4.346
36576W        W 8192  16.539  26.012   3.336
36577W        W 8193  23.361  26.390   0.260
36578W        W 8194  23.519   7.815   1.367
36579W        W 8195   3.079  24.185  10.698
36580W        W 8196  30.950  33.229  13.114
36581W        W 8197   6.188   4.379  14.868
36582W        W 8198  24.598  23.080   1.175
36583W        W 8199  15.997  43.404  13.521
36584W        W 8200  20.377  31.548  10.783
36585W        W 8201  37.490  21.540   3.975
36586W        W 8202  40.404  10.880   2.675
36587W        W 8203  10.313  16.863  11.686
36588W        W 8204  26.029  11.857   2.399
36589W        W 8205  26.126  39.797  11.547
36590W        W 8206  22.551  34.517   3.291
36591W        W 8207   3.236  18.112  10.634
36592W        W 8208  32.198  42.042  11.606
36593W        W 8209  24.703  40.590   2.748
36594W        W 8210  17.257   7.305   0.745
36595W        W 8211  43.774  28.735  14.026
36596W        W 8212  41.912  39.541  11.589
36597W        W 8213  35.943  44.599   3.625
36598W        W 8214   0.261  20.328  11.531
36599W        W 8215  28.962  16.319  10.437
36600W        W 8216  19.726   1.743  10.748
36601W        W 8217  21.111  19.479  11.927
36602W        W 8218  17.808  29.002  11.922
36603W        W 8219  32.120   0.490   3.239
36604W        W 8220  28.660   8.172   1.355
36605W        W 8221  12.217  44.181  13.117
36606W        W 8222  13.150   6.326  14.831
36607W        W 8223  13.744  23.626  11.657
36608W        W 8224  40.051  31.999   2.093
36609W        W 8225  20.643  12.135  12.370
36610W        W 8226  30.670  40.734   2.188
36611W        W 8227  32.856   7.190  11.887
36612W        W 8228  31.229  41.068   0.943
36613W        W 8229  39.453  42.966  14.483
36614W        W 8230  21.484  19.273   0.719
36615W        W 8231  21.274  35.953   3.548
36616W        W 8232  23.948  27.995   5.069
36617W        W 8233  35.796  39.352  11.503
36618W        W 8234  21.803  31.465   4.812
36619W        W 8235   8.638  18.060  11.644
36620W        W 8236   4.685  24.019   0.262
36621W        W 8237  36.485  16.529  14.997
36622W        W 8238  34.172  31.993  12.460
36623W        W 8239  28.059  36.044  13.545
36624W        W 8240   8.305  38.669   0.538
36625W        W 8241  38.351  43.334   1.414
36626W        W 8242  10.736   7.370  11.549
36627W        W 8243  31.902   7.738   4.567
36628W        W 8244   8.614  31.691  14.468
36629W        W 8245  33.461  11.147   2.753
36630W        W 8246  12.422  42.822   4.566
36631W        W 8247  13.354  24.218  13.932
36632W        W 8248  15.355  33.057   2.181
36633W        W 8249  37.134   1.830  13.173
36634W        W 8250  23.038  44.382   3.107
36635W        W 8251   6.894  28.058   4.641
36636W        W 8252  34.942  34.979  12.500
36637W        W 8253  16.630   4.463  11.178
36638W        W 8254   0.432   2.794  14.576
36639W        W 8255   6.203  31.447   0.313
36640W        W 8256  41.474  26.452  14.712
36641W        W 8257  31.362  12.276   1.202
36642W        W 8258  41.737  22.004   0.201
36643W        W 8259  27.571   8.860   1.851
36644W        W 8260  15.712   7.348   4.454
36645W        W 8261  19.570  14.229  14.915
36646W        W 8262  30.666  13.859   1.265
36647W        W 8263  33.438   2.245  12.979
36648W        W 8264  17.083  40.487   3.786
36649W        W 8265  10.529   4.246   4.637
36650W        W 8266  43.908  17.772  13.515
36651W        W 8267  31.404   9.770   2.405
36652W        W 8268  24.126   1.236  14.710
36653W        W 8269  26.154  26.557  11.426
36654W        W 8270  31.636  37.357   1.848
36655W        W 8271  19.852   4.424  13.456
36656W        W 8272   5.173  12.933   1.814
36657W        W 8273  40.319  43.450   0.002
36658W        W 8274  25.223   7.967   2.740
36659W        W 8275  42.365  38.723   1.650
36660W        W 8276  19.258  18.071   1.709
36661W        W 8277  40.091  32.097   1.183
36662W        W 8278  41.460  10.638  12.312
36663W        W 8279  38.490  14.047  13.404
36664W        W 8280  44.057   9.110   1.358
36665W        W 8281  11.542  16.525   4.857
36666W        W 8282  31.402  16.056  12.481
36667W        W 8283  11.148   7.856  13.995
36668W        W 8284  34.007  17.130   1.646
36669W        W 8285  36.616  13.224   0.955
36670W        W 8286  18.974  26.499   0.182
36671W        W 8287  36.585   9.523  11.887
36672W        W 8288  43.273  30.977  10.666
36673W        W 8289  40.715  37.449   4.086
36674W        W 8290  32.517  28.337   1.385
36675W        W 8291  19.098   7.220  12.459
36676W        W 8292  10.559  28.727   4.548
36677W        W 8293  15.220   2.195   1.666
36678W        W 8294  19.642  24.589  11.502
36679W        W 8295   1.788  24.755   0.610
36680W        W 8296  19.189  44.697   2.305
36681W        W 8297   4.504   0.039  12.021
36682W        W 8298  16.548  21.255   0.873
36683W        W 8299   9.253  18.249   0.464
36684W        W 8300  20.588   3.418  14.424
36685W        W 8301  21.272  15.383   1.854
36686W        W 8302  36.690  16.096   2.750
36687W        W 8303  44.794  26.186   4.507
36688W        W 8304  17.868  35.154   1.752
36689W        W 8305  33.991  20.261  12.923
36690W        W 8306  43.365  15.125  14.788
36691W        W 8307  21.743   0.531  14.234
36692W        W 8308  10.474   0.971  13.442
36693W        W 8309  44.281  32.964   1.179
36694W        W 8310  19.681  28.460   4.629
36695W        W 8311  10.415  44.585   3.190
36696W        W 8312   4.311  41.844   2.416
36697W        W 8313  22.207  29.261   3.643
36698W        W 8314  16.336  44.222   1.231
36699W        W 8315  40.496  12.794   4.138
36700W        W 8316  20.692   9.612   2.485
36701W        W 8317  40.899  44.358   3.624
36702W        W 8318  17.346  22.717   1.025
36703W        W 8319  15.791  23.905   1.394
36704W        W 8320  11.788  13.319  13.639
36705W        W 8321   7.264  19.871  11.072
36706W        W 8322  22.959  26.795   4.217
36707W        W 8323  12.588  18.031  12.294
36708W        W 8324  34.544  34.633  12.517
36709W        W 8325   4.430   1.263  12.871
36710W        W 8326  21.561  24.254   1.272
36711W        W 8327  37.328  29.022  11.545
36712W        W 8328  37.918  32.529  14.566
36713W        W 8329  28.137   3.088  14.966
36714W        W 8330   3.781  14.775   2.724
36715W        W 8331  31.622  13.762   0.364
36716W        W 8332   7.708  43.755  10.635
36717W        W 8333  36.432  30.066   0.503
36718W        W 8334  35.632  37.855   0.415
36719W        W 8335  33.543  19.004   2.811
36720W        W 8336  41.010   8.287   3.581
36721W        W 8337  12.628  35.541   4.795
36722W        W 8338  26.074  14.537   2.906
36723W        W 8339  21.271  15.460  14.985
36724W        W 8340  29.382  37.906   4.102
36725W        W 8341  33.850  22.133   0.097
36726W        W 8342  22.151  29.097  13.384
36727W        W 8343  10.665  36.842  14.829
36728W        W 8344  38.609  19.302   4.195
36729W        W 8345  31.145   1.613   5.501
36730W        W 8346   6.935  41.427   4.206
36731W        W 8347  19.501  19.305   0.959
36732W        W 8348  26.017   3.776   4.982
36733W        W 8349  33.030  10.951  13.363
36734W        W 8350  17.803  40.027   4.341
36735W        W 8351   4.404  31.675  14.976
36736W        W 8352   0.898  19.831  12.953
36737W        W 8353  43.053  19.600  14.833
36738W        W 8354  39.493   5.223  14.768
36739W        W 8355  22.735  13.817  13.605
36740W        W 8356  39.810  36.338  12.444
36741W        W 8357   7.978  24.543   1.365
36742W        W 8358  21.526  21.088  13.227
36743W        W 8359  23.338  19.677  14.216
36744W        W 8360  39.994   3.173   2.146
36745W        W 8361   5.442  16.802  14.886
36746W        W 8362  35.250  44.961  14.831
36747W        W 8363  31.407  17.940   0.439
36748W        W 8364  34.537  38.419  14.896
36749W        W 8365   9.669  27.129  11.981
36750W        W 8366  18.237  30.572   4.840
36751W        W 8367  27.229  21.186   1.732
36752W        W 8368  36.310  19.264   0.396
36753W        W 8369  26.096  31.417  13.948
36754W        W 8370  35.059   1.073   3.837
36755W        W 8371  25.473   3.689   2.738
36756W        W 8372   3.394  22.976  10.421
36757W        W 8373  27.190  37.384  12.536
36758W        W 8374  37.078  38.182   0.328
36759W        W 8375  41.557  16.408   4.210
36760W        W 8376  16.810   0.338  10.934
36761W        W 8377  38.501  17.637   0.898
36762W        W 8378  35.041   0.269  10.403
36763W        W 8379  36.788   2.297   1.789
36764W        W 8380   3.879   6.310   1.284
36765W        W 8381  42.287  10.653  11.669
36766W        W 8382  38.234  17.752   2.363
36767W        W 8383  25.519   9.591  13.542
36768W        W 8384  33.375  40.563  10.635
36769W        W 8385  25.538  20.645   4.770
36770W        W 8386  23.491  12.324  11.482
36771W        W 8387  10.484  11.298   1.653
36772W        W 8388   5.948   8.746  13.908
36773W        W 8389  19.650  32.925  14.430
36774W        W 8390  42.252  12.169   0.340
36775W        W 8391  11.984  14.050   5.106
36776W        W 8392   0.486  36.872   2.661
36777W        W 8393  42.129  13.545  11.248
36778W        W 8394   1.223  26.041  12.797
36779W        W 8395  13.274  16.692   2.685
36780W        W 8396  29.993  36.935  11.841
36781W        W 8397  24.040  12.153   2.273
36782W        W 8398  12.731  20.411   1.160
36783W        W 8399  42.788  41.620  13.767
36784W        W 8400  34.624  35.068   2.186
36785W        W 8401  23.300  12.242  13.981
36786W        W 8402  14.780  41.877   1.413
36787W        W 8403  12.861  17.103   1.923
36788W        W 8404  33.370  28.201   4.502
36789W        W 8405  35.023   6.271   0.406
36790W        W 8406  23.552   1.789  12.951
36791W        W 8407  35.692  40.079   1.233
36792W        W 8408  38.809   7.163  11.851
36793W        W 8409  20.207  37.610   3.334
36794W        W 8410  35.179  36.543  11.179
36795W        W 8411  34.861   7.750  12.230
36796W        W 8412  17.229  28.254   1.471
36797W        W 8413  16.816  42.090   1.745
36798W        W 8414  42.125  23.953  11.625
36799W        W 8415   1.531  13.754   1.186
36800W        W 8416  37.425  16.262  11.620
36801W        W 8417  12.827   9.959   0.532
36802W        W 8418  14.113  38.060   3.388
36803W        W 8419   3.871  16.695   2.632
36804W        W 8420   4.176  36.808  12.635
36805W        W 8421   0.497  43.627  11.680
36806W        W 8422  40.231  42.819  11.888
36807W        W 8423   0.825  41.990  14.959
36808W        W 8424  32.248  20.995   5.084
36809W        W 8425  41.690  13.849  13.445
36810W        W 8426  13.146  20.793  10.619
36811W        W 8427  28.840  23.382   3.863
36812W        W 8428   2.263  10.446  11.932
36813W        W 8429  29.986  43.996  14.240
36814W        W 8430  40.375  17.276   1.832
36815W        W 8431  42.003  31.133  11.300
36816W        W 8432  36.507  38.517   4.673
36817W        W 8433   7.346  14.094   0.839
36818W        W 8434   8.929  14.338   2.697
36819W        W 8435   4.991   0.251   2.005
36820W        W 8436  11.631  35.585  10.212
36821W        W 8437  28.597  42.635   0.514
36822W        W 8438  32.571  10.156  13.553
36823W        W 8439   4.321  13.334   3.188
36824W        W 8440  20.194  21.836   0.568
36825W        W 8441   3.727   3.344   3.866
36826W        W 8442  35.991  24.323  12.026
36827W        W 8443  18.230  16.394  11.060
36828W        W 8444  11.652  13.240   1.928
36829W        W 8445   6.299  28.600  13.417
36830W        W 8446  31.242   8.779  12.418
36831W        W 8447  43.818  17.538  12.022
36832W        W 8448   5.425  43.911  14.044
36833W        W 8449  15.837  11.312   2.250
36834W        W 8450  33.458  16.173  14.890
36835W        W 8451  31.047  42.909  13.840
36836W        W 8452  20.191   3.497  13.851
36837W        W 8453  30.075  11.865   3.290
36838W        W 8454  23.211  10.369   1.653
36839W        W 8455  25.388  40.011  14.125
36840W        W 8456  32.447  38.926   0.107
36841W        W 8457  29.682  28.865   2.630
36842W        W 8458  28.047   1.889   2.655
36843W        W 8459  16.602  16.670  12.533
36844W        W 8460   6.310  43.290  12.902
36845W        W 8461  12.921  17.172   4.685
36846W        W 8462  28.964  10.186   2.770
36847W        W 8463  19.765  38.652   2.584
36848W        W 8464  21.630   4.662  11.296
36849W        W 8465  12.601  31.010  10.656
36850W        W 8466  36.049  39.737  12.183
36851W        W 8467  10.133   8.900  13.047
36852W        W 8468  31.427  13.360   4.014
36853W        W 8469   7.484  32.662  13.503
36854W        W 8470  20.747  44.693   0.925
36855W        W 8471  31.527  28.192  12.163
36856W        W 8472   5.718  43.858  12.352
36857W        W 8473  40.431  19.395   4.048
36858W        W 8474  17.113  29.966  14.858
36859W        W 8475   6.170  22.446  10.152
36860W        W 8476  13.075  22.330   4.094
36861W        W 8477  20.662   9.252  12.484
36862W        W 8478  13.530  19.508  12.950
36863W        W 8479   7.787  28.612  12.371
36864W        W 8480  19.255  21.191  11.656
36865W        W 8481  30.801   5.201   3.316
36866W        W 8482  29.773  19.745   4.521
36867W        W 8483  31.118   0.492   2.236
36868W        W 8484  27.671  25.356   0.851
36869W        W 8485  13.187  39.966   4.345
36870W        W 8486  14.778   2.852  11.190
36871W        W 8487   4.911  30.379  11.066
36872W        W 8488  14.694  37.365  10.271
36873W        W 8489  43.012  29.907  12.289
36874W        W 8490  41.385  31.369  12.946
36875W        W 8491  13.671  13.235  11.942
36876W        W 8492   9.043  16.305   3.331
36877W        W 8493  29.599  31.188   0.299
36878W        W 8494  16.341  22.128  14.294
36879W        W 8495   7.585  28.035  12.632
36880W        W 8496  18.675  10.830   1.774
36881W        W 8497  11.843  42.868  13.811
36882W        W 8498  22.499  21.227  14.343
36883W        W 8499  39.532  12.333   0.931
36884W        W 8500  19.640  40.297  13.224
36885W        W 8501  35.679   6.796  12.381
36886W        W 8502  21.551  21.265   4.553
36887W        W 8503   5.050  40.898   2.932
36888W        W 8504  30.633   4.691  12.448
36889W        W 8505  20.595  26.621   5.010
36890W        W 8506  33.887   7.487  11.470
36891W        W 8507  22.032  29.169  10.858
36892W        W 8508  10.435  20.062   3.196
36893W        W 8509  24.710  38.918  12.208
36894W        W 8510   4.387  42.097  13.302
36895W        W 8511  39.415   4.630  14.366
36896W        W 8512  15.084  15.280  13.338
36897W        W 8513  15.003  30.429   4.075
36898W        W 8514  43.805   3.727   0.823
36899W        W 8515  32.141  43.468   1.913
36900W        W 8516  10.861  39.908   2.881
36901W        W 8517  14.079   0.920   0.858
36902W        W 8518  17.379  43.386  10.733
36903W        W 8519  15.093  35.670  14.522
36904W        W 8520  38.299  42.535   2.249
36905W        W 8521  36.429  10.908  14.451
36906W        W 8522  20.607   6.000   4.616
36907W        W 8523  19.837  16.474   0.789
36908W        W 8524   3.017  18.166  11.085
36909W        W 8525  34.636  32.822   1.223
36910W        W 8526   2.040   3.321  12.655
36911W        W 8527  14.579  28.944   1.830
36912W        W 8528  39.416  32.152   2.652
36913W        W 8529  43.046  25.583   3.594
36914W        W 8530  41.449  10.214   4.031
36915W        W 8531  30.614  42.021  12.467
36916W        W 8532   7.385  35.398   2.017
36917W        W 8533   3.064  37.603  12.803
36918W        W 8534  27.580  38.279   2.840
36919W        W 8535  15.720  18.241  14.072
36920W        W 8536  38.486  43.797   1.216
36921W        W 8537  38.378  28.975   0.863
36922W        W 8538  13.924  22.455  14.317
36923W        W 8539  34.363  12.566  12.531
36924W        W 8540  19.678  38.032   0.834
36925W        W 8541  34.058  22.334   1.301
36926W        W 8542  12.582  44.360   2.924
36927W        W 8543  40.385  32.001  11.880
36928W        W 8544   9.225   2.326  10.875
36929W        W 8545  24.095  22.581   3.316
36930W        W 8546   8.210  33.262   4.525
36931W        W 8547   5.445  44.025   5.635
36932W        W 8548  22.970  15.180  10.968
36933W        W 8549  36.622  14.546  13.363
36934W        W 8550  34.368   0.653  11.089
36935W        W 8551   7.417  30.696   4.674
36936W        W 8552  16.779   7.344   2.319
36937W        W 8553  37.666  22.965  11.470
36938W        W 8554  20.633  24.256  13.450
36939W        W 8555  32.008   8.714   3.078
36940W        W 8556  34.589  35.602   0.476
36941W        W 8557  15.026  21.982   1.750
36942W        W 8558  27.167  35.857   0.634
36943W        W 8559  29.171  28.055  14.441
36944W        W 8560  39.338  33.959   3.209
36945W        W 8561   4.812  25.686   2.283
36946W        W 8562  24.040  29.331   3.777
36947W        W 8563   5.202  28.001  14.011
36948W        W 8564   6.228   8.892  13.501
36949W        W 8565  24.099  36.257   1.027
36950W        W 8566  31.411  37.410   0.221
36951W        W 8567   1.375  32.317  13.963
36952W        W 8568  41.680  11.917   5.125
36953W        W 8569   4.687   9.438   4.465
36954W        W 8570  25.721   1.747  13.586
36955W        W 8571  30.907  33.982   1.660
36956W        W 8572  14.379   3.305   3.034
36957W        W 8573  17.125   6.130  11.569
36958W        W 8574  14.624   4.803  10.641
36959W        W 8575   7.953  37.992   3.182
36960W        W 8576  18.543  34.310   4.476
36961W        W 8577  34.579  43.110  14.063
36962W        W 8578   0.879  27.292   4.817
36963W        W 8579  17.175  14.987   1.869
36964W        W 8580  32.525  10.205  10.023
36965W        W 8581  16.125  10.223   3.812
36966W        W 8582   6.836  34.350   0.519
36967W        W 8583  16.642  31.824  11.919
36968W        W 8584  26.549  15.587   4.233
36969W        W 8585  30.869  17.163   0.869
36970W        W 8586   4.377  11.834   1.868
36971W        W 8587  11.865  24.003  10.965
36972W        W 8588  34.572   2.272   1.385
36973W        W 8589  26.482  43.059   4.658
36974W        W 8590  11.254  14.806   3.611
36975W        W 8591   9.176  24.599  14.257
36976W        W 8592   4.861  38.595   3.844
36977W        W 8593  39.050  12.756  11.904
36978W        W 8594  16.184  20.718  13.359
36979W        W 8595   1.352  38.123  12.126
36980W        W 8596  37.830  43.197  13.561
36981W        W 8597  24.235  29.969   2.282
36982W        W 8598  16.553  19.113   1.427
36983W        W 8599   7.525   6.329  10.290
36984W        W 8600  25.554  15.803   4.159
36985W        W 8601  44.033  10.639  13.650
36986W        W 8602  35.879   0.935   4.848
36987W        W 8603  17.431  28.225  10.770
36988W        W 8604  33.580  33.987   2.482
36989W        W 8605  22.156  42.141  13.260
36990W        W 8606  39.340  12.819  11.504
36991W        W 8607   6.097  29.708  10.677
36992W        W 8608   0.520  14.832   4.497
36993W        W 8609  19.057  39.684   0.844
36994W        W 8610  19.564  11.418   4.182
36995W        W 8611  42.270  28.461   4.737
36996W        W 8612  18.530   1.267  12.836
36997W        W 8613  41.544  22.436  11.727
36998W        W 8614   2.339   7.195  13.954
36999W        W 8615  24.466  23.311   2.721
37000W        W 8616   0.035  36.984  12.278
37001W        W 8617  22.509  34.844  14.748
37002W        W 8618  29.592  14.668   2.794
37003W        W 8619   5.897  32.521  14.436
37004W        W 8620  29.522   9.917   0.367
37005W        W 8621   3.431  18.599   0.405
37006W        W 8622  38.774  34.586   2.378
37007W        W 8623  42.950  31.223  14.401
37008W        W 8624  29.013  35.784   0.452
37009W        W 8625   7.024   2.500   3.236
37010W        W 8626  43.556   5.906   0.908
37011W        W 8627  20.215  42.809   4.921
37012W        W 8628  12.895  43.334   0.912
37013W        W 8629  16.695   4.961   4.103
37014W        W 8630  28.260  12.847   3.176
37015W        W 8631   0.840  27.914   3.742
37016W        W 8632  23.057   2.534   1.515
37017W        W 8633  31.548  39.055   0.242
37018W        W 8634   2.455  33.486   2.809
37019W        W 8635  14.871   7.314  12.482
37020W        W 8636  26.952  14.567   0.554
37021W        W 8637  23.479  39.846   1.176
37022W        W 8638   4.307   8.230   4.010
37023W        W 8639  23.536  33.411   3.165
37024W        W 8640  19.110  10.848   1.439
37025W        W 8641   4.467  43.339  11.223
37026W        W 8642  20.015  31.436  11.670
37027W        W 8643  42.078   4.157   4.355
37028W        W 8644  44.244  38.626  13.532
37029W        W 8645  31.992  39.685  12.200
37030W        W 8646  34.256  16.585   4.698
37031W        W 8647  26.458  14.821   1.760
37032W        W 8648  23.170  17.557  13.942
37033W        W 8649   3.199  41.888  11.061
37034W        W 8650  21.783   9.359  13.935
37035W        W 8651  20.314  40.897  13.995
37036W        W 8652  15.377  32.103   0.422
37037W        W 8653  23.794  19.118   3.380
37038W        W 8654   6.327  24.481  11.510
37039W        W 8655  37.592  24.670  13.342
37040W        W 8656  29.579  36.535   4.676
37041W        W 8657   9.663  26.964  12.457
37042W        W 8658  21.049  30.954  14.852
37043W        W 8659  37.550  35.661   4.134
37044W        W 8660  26.422  25.743   0.397
37045W        W 8661  37.917  17.975   4.684
37046W        W 8662  25.949  13.342   9.526
37047W        W 8663  44.677  38.283   0.274
37048W        W 8664  30.332  29.839   0.087
37049W        W 8665  12.136  26.924   3.638
37050W        W 8666   1.900  18.753   2.430
37051W        W 8667   2.960  13.176  14.912
37052W        W 8668  39.874  11.875  14.596
37053W        W 8669  13.729  43.563  13.477
37054W        W 8670  38.028   7.733   1.312
37055W        W 8671  11.193  44.353   1.704
37056W        W 8672  26.129  25.208  13.305
37057W        W 8673  43.144  22.522   2.944
37058W        W 8674  18.635  18.105   4.134
37059W        W 8675   8.659  12.324   3.115
37060W        W 8676  39.716  19.317   1.656
37061W        W 8677  42.482  19.764   0.741
37062W        W 8678  37.817   9.317   4.083
37063W        W 8679   7.199  39.509   3.698
37064W        W 8680  11.887  22.071  13.042
37065W        W 8681  12.163  21.054   4.660
37066W        W 8682  20.459   7.897  13.474
37067W        W 8683  42.178  15.533  13.556
37068W        W 8684  17.625  37.822   1.114
37069W        W 8685  24.238  10.875  11.887
37070W        W 8686  38.275  34.154   2.326
37071W        W 8687  11.571  30.067   3.713
37072W        W 8688  36.568  19.126   4.435
37073W        W 8689  16.334   6.713  12.089
37074W        W 8690  39.006  23.539   1.528
37075W        W 8691  30.899  40.194  12.046
37076W        W 8692  44.769  41.313   0.402
37077W        W 8693  43.811  42.901  10.476
37078W        W 8694   4.684  23.150  10.519
37079W        W 8695   8.136  30.147   3.826
37080W        W 8696  12.684  41.012   1.185
37081W        W 8697  10.638  27.761  13.052
37082W        W 8698  44.706  14.638  13.228
37083W        W 8699  10.633  35.353  12.711
37084W        W 8700  29.953  30.788  13.014
37085W        W 8701  38.892  23.453   3.015
37086W        W 8702  11.628   3.933  14.471
37087W        W 8703  25.683   3.043  11.661
37088W        W 8704  20.292  16.202  14.279
37089W        W 8705  43.949  33.639  12.765
37090W        W 8706   0.295  14.365   3.682
37091W        W 8707  12.443   2.008  12.621
37092W        W 8708  12.093  35.626   0.293
37093W        W 8709  27.438  39.258  11.402
37094W        W 8710   2.006  41.353  13.859
37095W        W 8711  36.329   1.028   2.329
37096W        W 8712  30.039   5.000  12.584
37097W        W 8713  14.138  36.913  14.363
37098W        W 8714  13.207  13.678  13.082
37099W        W 8715  23.856   2.979   4.959
37100W        W 8716  19.297  44.203   0.968
37101W        W 8717  21.178   4.849  14.814
37102W        W 8718  42.753   1.920   1.202
37103W        W 8719  19.557   1.905  13.376
37104W        W 8720  44.548  29.100  13.533
37105W        W 8721  21.942  27.835   1.425
37106W        W 8722   5.421  44.403   3.877
37107W        W 8723  41.427  11.639  12.456
37108W        W 8724  25.589  23.210   3.938
37109W        W 8725  36.023  12.363  14.086
37110W        W 8726   3.687  40.433  10.955
37111W        W 8727  41.388  16.986  14.514
37112W        W 8728  26.463  38.361   0.876
37113W        W 8729  29.470  16.812   2.267
37114W        W 8730  26.509  35.459  14.551
37115W        W 8731  16.740  12.237   3.465
37116W        W 8732   0.742  41.254  11.509
37117W        W 8733  36.459   8.714   0.533
37118W        W 8734   0.976   3.151  10.606
37119W        W 8735   0.771  21.902  12.433
37120W        W 8736   5.564   8.724  12.029
37121W        W 8737  12.496  16.849   1.637
37122W        W 8738  15.472  31.646  10.640
37123W        W 8739  14.826  14.769   3.478
37124W        W 8740   8.747   7.589   0.543
37125W        W 8741  18.099  29.713  12.981
37126W        W 8742  16.615  20.371  13.492
37127W        W 8743  23.599   8.192   4.852
37128W        W 8744  31.444  29.157  13.214
37129W        W 8745   8.765  33.252   4.808
37130W        W 8746  26.562   9.188   1.693
37131W        W 8747   4.243  25.420  10.953
37132W        W 8748  22.083  34.922   1.977
37133W        W 8749  30.597  23.710   0.217
37134W        W 8750  44.321  20.099   3.779
37135W        W 8751  12.317   1.208  13.901
37136W        W 8752  19.116  17.262  10.986
37137W        W 8753  29.660  29.426  12.957
37138W        W 8754  27.636  41.455  10.480
37139W        W 8755  40.335  31.456  12.857
37140W        W 8756  21.782  22.920   2.270
37141W        W 8757  36.298   0.357  13.544
37142W        W 8758  40.841  37.548  12.843
37143W        W 8759   5.720  20.943   4.003
37144W        W 8760  42.303  44.410  11.665
37145W        W 8761  29.989   3.039   1.228
37146W        W 8762  10.046  17.277  13.112
37147W        W 8763  21.243  22.996   1.412
37148W        W 8764  14.168  11.878   1.786
37149W        W 8765  42.273  16.608   2.310
37150W        W 8766  20.619  20.818  13.855
37151W        W 8767  44.848  40.879   1.837
37152W        W 8768  23.552  30.311   1.779
37153W        W 8769  22.432  17.325   2.160
37154W        W 8770  28.909  40.169  11.808
37155W        W 8771  25.914   9.827  11.097
37156W        W 8772  26.339  43.305  13.342
37157W        W 8773  25.381  14.716   5.010
37158W        W 8774   8.747  37.513  13.105
37159W        W 8775  32.790  15.197  13.397
37160W        W 8776  16.769   1.375   3.227
37161W        W 8777   4.226   7.334   4.478
37162W        W 8778  12.631   4.333  12.086
37163W        W 8779   8.210   9.114  10.450
37164W        W 8780   9.880  35.426  11.218
37165W        W 8781   1.207  29.874  12.939
37166W        W 8782   2.314  28.556   3.379
37167W        W 8783   7.859  44.054   3.218
37168W        W 8784  11.793  10.797   2.841
37169W        W 8785   5.248   5.949  13.846
37170W        W 8786  30.911  28.205   4.218
37171W        W 8787  36.597   9.122   1.225
37172W        W 8788  22.063  33.569   0.810
37173W        W 8789  28.522  24.999   1.797
37174W        W 8790  28.394  21.772   1.331
37175W        W 8791  30.580   3.428   0.818
37176W        W 8792  16.603  44.892  13.419
37177W        W 8793   1.525   2.895  13.576
37178W        W 8794  15.579  10.909   3.691
37179W        W 8795  34.068  38.491   3.224
37180W        W 8796  12.695  16.752   0.932
37181W        W 8797  22.401   5.531  11.148
37182W        W 8798  16.287  38.106  11.999
37183W        W 8799  36.323  33.117   0.613
37184W        W 8800  36.337  26.653  12.813
37185W        W 8801  24.082  28.358  12.626
37186W        W 8802  10.604  41.838  13.462
37187W        W 8803  33.944   1.009   1.378
37188W        W 8804   0.345  41.045   1.966
37189W        W 8805  10.070   7.183   3.620
37190W        W 8806   0.463   7.692  10.840
37191W        W 8807   1.988   5.812  13.991
37192W        W 8808  35.738  40.529   3.194
37193W        W 8809  20.758  15.454   2.828
37194W        W 8810  38.335  33.433   4.080
37195W        W 8811  44.927   7.193   1.266
37196W        W 8812  13.249  36.152   1.317
37197W        W 8813  19.704   2.302   2.422
37198W        W 8814  28.153  21.978  10.729
37199W        W 8815  31.473  22.667  13.012
37200W        W 8816   8.127  38.967   0.920
37201W        W 8817  12.404   8.624  14.447
37202W        W 8818  30.892  31.888  10.224
37203W        W 8819  23.476   4.015   3.436
37204W        W 8820  16.871   6.813  12.655
37205W        W 8821   9.693  40.825  11.904
37206W        W 8822   9.973   9.182  11.120
37207W        W 8823   6.162   3.676  12.057
37208W        W 8824  16.652  19.628  11.849
37209W        W 8825  34.335   5.334   4.478
37210W        W 8826  13.081  26.689   0.377
37211W        W 8827  34.786  34.791  12.963
37212W        W 8828  27.652  38.961   1.727
37213W        W 8829   6.444  38.150   0.991
37214W        W 8830  37.480  18.288   2.434
37215W        W 8831  13.880  25.702   4.388
37216W        W 8832  40.794   4.543   1.831
37217W        W 8833  18.612  13.365  12.584
37218W        W 8834  43.980  13.868   2.600
37219W        W 8835  30.106   6.712   1.962
37220W        W 8836  26.498   8.399   3.741
37221W        W 8837  20.072  17.675  14.705
37222W        W 8838   8.009  27.132  13.882
37223W        W 8839   7.948  18.266   0.886
37224W        W 8840  19.154  25.177  14.337
37225W        W 8841  32.085   8.405   2.670
37226W        W 8842   8.195  35.307  14.397
37227W        W 8843  24.526  14.566   2.681
37228W        W 8844  12.453   2.521   1.538
37229W        W 8845  22.885  24.006   2.793
37230W        W 8846  40.344  30.199  13.900
37231W        W 8847  42.426  33.852   1.411
37232W        W 8848  29.529  23.543   4.650
37233W        W 8849   2.191   0.900   3.284
37234W        W 8850   8.684  44.387  12.010
37235W        W 8851  23.693  32.398  13.956
37236W        W 8852  42.583  44.468   4.713
37237W        W 8853   9.883   6.248  12.360
37238W        W 8854  37.982  42.614  14.351
37239W        W 8855  41.116  21.755   3.308
37240W        W 8856  10.396  23.829  11.175
37241W        W 8857  24.502  10.421   3.869
37242W        W 8858   5.195   5.481  14.079
37243W        W 8859  39.372  31.939  11.033
37244W        W 8860  22.946  38.859   0.387
37245W        W 8861   5.943  33.164   3.310
37246W        W 8862   2.407  37.862   4.267
37247W        W 8863  20.661  14.985  11.690
37248W        W 8864  31.019   7.906   3.633
37249W        W 8865  41.846   9.408   1.698
37250W        W 8866  38.803   1.252  12.368
37251W        W 8867   0.391  25.383   0.683
37252W        W 8868  13.820  26.187   4.194
37253W        W 8869  14.789  30.483   3.618
37254W        W 8870  10.855  32.845  12.671
37255W        W 8871   2.819  17.124   1.651
37256W        W 8872   3.248  40.664   0.903
37257W        W 8873  36.181  16.207   2.795
37258W        W 8874  30.696  10.580  11.238
37259W        W 8875  19.909   6.448   0.683
37260W        W 8876  31.876  39.475   1.356
37261W        W 8877  24.607  11.511   3.367
37262W        W 8878  21.757  17.363   0.379
37263W        W 8879  20.665  25.075  12.980
37264W        W 8880   1.055  21.575   1.835
37265W        W 8881   9.680  34.539   1.303
37266W        W 8882  34.624  36.368  11.511
37267W        W 8883   0.883   9.346  11.052
37268W        W 8884  16.287  34.366   1.941
37269W        W 8885   1.380   6.779  14.244
37270W        W 8886   8.237  31.865   4.708
37271W        W 8887  25.464   5.195   0.462
37272W        W 8888  32.423  41.722  14.417
37273W        W 8889  28.049  30.444   2.425
37274W        W 8890   1.936  33.950   3.196
37275W        W 8891   8.925  23.064  11.594
37276W        W 8892  19.413  31.427   4.277
37277W        W 8893  25.551  29.930  10.566
37278W        W 8894  19.525  14.745  13.007
37279W        W 8895  27.349   6.824  11.078
37280W        W 8896  23.527  33.473  12.981
37281W        W 8897  13.636  33.971  11.531
37282W        W 8898   3.954  13.025   2.363
37283W        W 8899  27.558  34.248   4.552
37284W        W 8900   8.850  30.043  11.668
37285W        W 8901  11.802  12.843   2.236
37286W        W 8902   6.682   1.122   4.343
37287W        W 8903   6.569  23.709  11.455
37288W        W 8904  22.353  44.927  10.560
37289W        W 8905  11.821  21.317   3.241
37290W        W 8906   1.474  27.732   1.167
37291W        W 8907   7.631  10.272   3.720
37292W        W 8908  33.807   2.676   2.849
37293W        W 8909   8.254  34.373   3.623
37294W        W 8910  24.729  18.065  13.847
37295W        W 8911   0.838   5.418   2.765
37296W        W 8912  12.660   6.301   1.863
37297W        W 8913  13.142  15.031   3.741
37298W        W 8914  26.474  44.038   3.016
37299W        W 8915  12.607  42.889   1.161
37300W        W 8916  34.756  41.128   0.870
37301W        W 8917  10.263  24.707  10.654
37302W        W 8918   4.788  32.481   0.825
37303W        W 8919   5.445   8.625  11.051
37304W        W 8920  31.134  27.216   5.536
37305W        W 8921  32.615  21.228  13.865
37306W        W 8922   7.707   2.429  14.520
37307W        W 8923  38.846   8.769  13.331
37308W        W 8924   6.780  15.226   0.456
37309W        W 8925  16.094  40.356  11.151
37310W        W 8926  26.210   1.854  10.306
37311W        W 8927  15.810  28.986   2.356
37312W        W 8928  41.754  25.121  11.017
37313W        W 8929   5.584  19.713  14.468
37314W        W 8930   2.636  10.225  12.898
37315W        W 8931  29.715  16.085  13.021
37316W        W 8932  44.823  40.248   0.603
37317W        W 8933  14.277   1.546   4.097
37318W        W 8934  10.653  15.941   3.610
37319W        W 8935  42.849  12.395  14.493
37320W        W 8936  24.838  43.864   1.504
37321W        W 8937  18.893  25.128   2.845
37322W        W 8938  19.809  43.847  10.355
37323W        W 8939  24.189  24.714  11.957
37324W        W 8940  26.372  23.749   3.332
37325W        W 8941  35.589  26.671   1.199
37326W        W 8942  42.653  10.124  14.369
37327W        W 8943   9.660  18.556  12.869
37328W        W 8944   6.087  40.605  14.598
37329W        W 8945  16.834  37.761  13.462
37330W        W 8946  35.166  15.511  10.667
37331W        W 8947  15.325  15.239   2.221
37332W        W 8948  39.949  23.640   4.511
37333W        W 8949  29.524  20.294   0.760
37334W        W 8950  10.203  29.565   3.690
37335W        W 8951  42.877  15.056   0.473
37336W        W 8952  15.359  27.034  12.069
37337W        W 8953  19.253  11.338   4.619
37338W        W 8954  21.127  38.010  11.420
37339W        W 8955  43.212  25.086  13.083
37340W        W 8956   1.749  32.310  11.112
37341W        W 8957  36.206  42.450   1.378
37342W        W 8958   5.240  32.518  11.006
37343W        W 8959   5.842  16.795  14.416
37344W        W 8960  38.468   6.319   2.788
37345W        W 8961  24.232  35.453   1.129
37346W        W 8962  41.676   6.658   2.260
37347W        W 8963  36.787  17.785   4.039
37348W        W 8964  33.190  15.822   4.667
37349W        W 8965  27.644  37.065  11.594
37350W        W 8966  25.980  29.986   3.446
37351W        W 8967  31.904  12.635  11.689
37352W        W 8968  17.850  36.913   3.884
37353W        W 8969  30.033  10.406  12.342
37354W        W 8970  37.963  33.554   0.870
37355W        W 8971   6.269  40.979   0.777
37356W        W 8972  20.573   5.937  13.550
37357W        W 8973   6.300  26.598  10.036
37358W        W 8974   7.816   9.929   3.355
37359W        W 8975   6.320  22.559   1.789
37360W        W 8976  38.119  44.551  12.046
37361W        W 8977  28.428  37.557  12.835
37362W        W 8978   1.363  38.129  13.851
37363W        W 8979  24.254  34.149   1.784
37364W        W 8980  40.389  21.013   1.033
37365W        W 8981  27.704  25.495  12.503
37366W        W 8982  20.306  12.644   1.295
37367W        W 8983  42.514  26.209  11.626
37368W        W 8984  43.456  36.096  14.908
37369W        W 8985  12.829  18.149  14.730
37370W        W 8986  37.948  11.080  14.533
37371W        W 8987  23.515   4.943  11.562
37372W        W 8988   1.989  15.109  14.864
37373W        W 8989  11.948  13.551   2.850
37374W        W 8990  35.463   3.219  11.635
37375W        W 8991  43.420  38.878  10.025
37376W        W 8992  31.440  40.859   0.511
37377W        W 8993  25.998  26.981  12.677
37378W        W 8994  29.708  32.557   0.947
37379W        W 8995   9.257   0.446  11.109
37380W        W 8996  22.510   6.449   2.805
37381W        W 8997  13.140  13.180   2.168
37382W        W 8998   3.784  19.516   1.367
37383W        W 8999  27.836  13.889  13.607
37384W        W 9000  36.134  36.483  10.701
37385W        W 9001   2.059  43.610  11.127
37386W        W 9002  10.190   6.403   0.926
37387W        W 9003  34.993  37.339   1.726
37388W        W 9004  36.351  22.119  11.570
37389W        W 9005  34.046  31.154   4.154
37390W        W 9006  21.446  24.722   0.355
37391W        W 9007  20.593   6.743   0.041
37392W        W 9008  24.707   1.625   4.262
37393W        W 9009  10.687   1.255  10.461
37394W        W 9010   3.850  13.705  11.236
37395W        W 9011  26.734  26.478   3.223
37396W        W 9012  20.462  28.025  13.925
37397W        W 9013  42.013  12.338   3.526
37398W        W 9014  38.079   6.720   4.749
37399W        W 9015  38.872  26.253   2.878
37400W        W 9016  29.893  27.793   9.728
37401W        W 9017   4.729  42.802   0.292
37402W        W 9018  41.545  31.947   2.417
37403W        W 9019  28.432  44.240  14.874
37404W        W 9020   1.531  39.161  11.239
37405W        W 9021  44.228  15.881   0.332
37406W        W 9022  10.104   3.971   3.486
37407W        W 9023  37.540   0.037  14.754
37408W        W 9024   5.487  34.422  10.357
37409W        W 9025  25.604  34.268   2.750
37410W        W 9026  15.522  17.011   2.633
37411W        W 9027  25.526  34.698  10.169
37412W        W 9028  18.064   3.662  10.661
37413W        W 9029  20.300  33.819  12.510
37414W        W 9030  36.034  42.944  13.161
37415W        W 9031  38.605  40.318  11.108
37416W        W 9032  10.603  28.960  13.865
37417W        W 9033  30.656  14.873   2.697
37418W        W 9034   1.499  40.065  13.370
37419W        W 9035   4.801  23.575   4.196
37420W        W 9036  28.022  42.207  11.478
37421W        W 9037  41.325  13.166   1.693
37422W        W 9038  11.757   1.448  10.712
37423W        W 9039  16.162  22.595  11.728
37424W        W 9040   8.160  13.004   4.156
37425W        W 9041   3.644   1.854  14.508
37426W        W 9042  43.833  36.992   1.343
37427W        W 9043  17.188   6.211  10.225
37428W        W 9044  43.071  36.569   0.460
37429W        W 9045  37.634  39.043  13.045
37430W        W 9046  16.349  10.835   2.688
37431W        W 9047  12.797  11.462   3.855
37432W        W 9048  43.847  14.482   1.916
37433W        W 9049  12.486   3.586   1.966
37434W        W 9050  29.983   1.336  13.281
37435W        W 9051   6.909   5.600  14.555
37436W        W 9052   0.925   5.784   0.000
37437W        W 9053   9.155  10.907   0.406
37438W        W 9054  24.000  37.304   1.822
37439W        W 9055   6.933  18.812   0.372
37440W        W 9056  37.891   4.801   2.811
37441W        W 9057  40.574  19.783   2.474
37442W        W 9058  37.444  21.667   4.937
37443W        W 9059   2.621   3.798   1.487
37444W        W 9060   4.237  35.800  11.551
37445W        W 9061  15.639   5.477  12.851
37446W        W 9062  44.656   3.895   2.733
37447W        W 9063  20.063   3.360   3.697
37448W        W 9064   9.885   7.203  13.990
37449W        W 9065  25.446  22.088   2.720
37450W        W 9066  19.977  41.958  10.581
37451W        W 9067  33.675  10.112   4.147
37452W        W 9068  44.693  18.542   0.168
37453W        W 9069  21.118  27.706   1.800
37454W        W 9070  31.326   6.368   1.981
37455W        W 9071  30.735  36.621  12.561
37456W        W 9072   5.257  31.162   0.675
37457W        W 9073  12.624  15.687   0.779
37458W        W 9074  18.052  12.413   1.761
37459W        W 9075   3.724  36.763   0.415
37460W        W 9076  10.162  43.400  13.893
37461W        W 9077  36.990   0.958   4.599
37462W        W 9078   6.428  40.531  12.565
37463W        W 9079  21.191  20.811  12.440
37464W        W 9080  39.068  19.996  14.301
37465W        W 9081  18.492  12.902  12.391
37466W        W 9082  41.321   1.886  14.819
37467W        W 9083  27.605   1.343  12.032
37468W        W 9084  21.841  15.143   3.600
37469W        W 9085  34.544  41.311  13.528
37470W        W 9086   9.656   1.081   0.425
37471W        W 9087  35.326  36.926  14.027
37472W        W 9088  10.764   2.378  11.027
37473W        W 9089  42.314  27.615   1.438
37474W        W 9090  42.615  28.635   3.299
37475W        W 9091  29.972  27.916   2.249
37476W        W 9092  32.532  23.043   1.196
37477W        W 9093  41.980   3.510  12.891
37478W        W 9094  44.008   3.271   3.139
37479W        W 9095  43.902  19.666   1.903
37480W        W 9096  28.900  20.575  12.212
37481W        W 9097  35.840  33.572  12.572
37482W        W 9098  19.597  12.030   2.749
37483W        W 9099  28.177  21.152  11.165
37484W        W 9100  22.406  39.880   4.152
37485W        W 9101   6.159   9.825  13.360
37486W        W 9102  22.238   7.435  14.012
37487W        W 9103  28.214  13.564   0.833
37488W        W 9104  26.184  34.746  13.293
37489W        W 9105  21.095  25.268  10.614
37490W        W 9106   7.145  22.945  13.234
37491W        W 9107  38.398   7.267   3.786
37492W        W 9108  41.285   1.359  11.571
37493W        W 9109  30.086  25.151   0.759
37494W        W 9110  43.751  25.704  14.024
37495W        W 9111  42.232  25.356  11.549
37496W        W 9112  39.980   5.173   2.319
37497W        W 9113  40.298  19.542  13.334
37498W        W 9114   7.218  25.091  13.590
37499W        W 9115  14.439  21.220   0.408
37500W        W 9116  17.203   6.148  12.107
37501W        W 9117  33.033  42.772   1.772
37502W        W 9118   2.956   2.136   1.361
37503W        W 9119  29.169  38.442  11.098
37504W        W 9120   1.801  30.457   0.198
37505W        W 9121  34.505  21.011   3.655
37506W        W 9122   1.717  33.018   3.691
37507W        W 9123  41.366   1.871  11.438
37508W        W 9124  11.938  10.716  12.915
37509W        W 9125   4.389   2.340  12.356
37510W        W 9126  14.826  14.351   2.633
37511W        W 9127  16.244  36.039   4.144
37512W        W 9128  34.002  28.942  14.303
37513W        W 9129   1.270  41.687   0.757
37514W        W 9130   9.790  39.354  13.581
37515W        W 9131  41.250  15.847  13.279
37516W        W 9132  27.403  29.594  12.451
37517W        W 9133   3.345  30.053   2.492
37518W        W 9134  36.828  31.429   0.749
37519W        W 9135   3.012  39.389   0.777
37520W        W 9136   0.756  12.589  10.714
37521W        W 9137  27.659   2.256  13.180
37522W        W 9138  27.563  39.321   0.017
37523W        W 9139  34.820  44.804  10.525
37524W        W 9140  39.701   5.102   1.652
37525W        W 9141  10.374  23.257  13.496
37526W        W 9142   5.843   5.382   1.322
37527W        W 9143  16.813  23.374  13.323
37528W        W 9144  43.130  23.627   4.880
37529W        W 9145  22.531  22.718   5.123
37530W        W 9146  37.296  27.392  12.151
37531W        W 9147   0.826  32.000   0.038
37532W        W 9148   3.667  18.109   4.220
37533W        W 9149  20.964  34.530  12.126
37534W        W 9150  15.430   3.307   3.278
37535W        W 9151  11.731  44.754  11.082
37536W        W 9152  27.101  29.418  10.408
37537W        W 9153   0.604  42.894   1.333
37538W        W 9154  14.300  16.270   1.460
37539W        W 9155  21.500  17.588   2.150
37540W        W 9156  12.120   6.450   2.819
37541W        W 9157   6.597   8.753  11.854
37542W        W 9158  19.585  11.377  12.928
37543W        W 9159  29.109   1.951  12.923
37544W        W 9160  34.358   5.984   2.670
37545W        W 9161   4.221  34.348   4.579
37546W        W 9162   9.099  43.270  14.766
37547W        W 9163   2.488  26.148   0.893
37548W        W 9164   1.507  43.524   0.014
37549W        W 9165  24.097  32.895   2.760
37550W        W 9166   6.234  15.281   1.339
37551W        W 9167   7.343  38.370   2.684
37552W        W 9168  14.676  15.232   3.307
37553W        W 9169  35.373  19.553   0.466
37554W        W 9170  42.419  11.048   3.242
37555W        W 9171  40.500   4.265   2.834
37556W        W 9172  17.571  31.656   4.579
37557W        W 9173  23.475   9.195   0.857
37558W        W 9174  36.105  23.550   1.986
37559W        W 9175  21.837   0.539   3.292
37560W        W 9176  25.843   3.579   0.009
37561W        W 9177  32.158  30.546  10.685
37562W        W 9178  25.218  20.972  14.914
37563W        W 9179   2.897  37.083   2.778
37564W        W 9180  34.262  17.150  11.931
37565W        W 9181  40.964  10.649  12.515
37566W        W 9182   3.375  15.916   3.794
37567W        W 9183  42.508   4.372  14.745
37568W        W 9184  38.078  28.595   1.762
37569W        W 9185  18.562  11.680  12.970
37570W        W 9186  35.619  36.590  13.756
37571W        W 9187  32.662  29.681   0.364
37572W        W 9188   4.640  19.830  14.740
37573W        W 9189  30.752  42.241   3.212
37574W        W 9190  18.327  30.012  11.123
37575W        W 9191   0.398  14.353   2.792
37576W        W 9192  32.676  13.561   4.198
37577W        W 9193  25.198   1.428   3.618
37578W        W 9194   8.634  34.447  14.367
37579W        W 9195  42.075  31.383  13.260
37580W        W 9196  32.673  17.601  11.111
37581W        W 9197  44.848  27.124   4.660
37582W        W 9198  23.210  20.911   3.339
37583W        W 9199  18.853  42.535  10.287
37584W        W 9200  31.271  31.169  13.872
37585W        W 9201  37.501   1.947   0.898
37586W        W 9202   1.920  43.597  10.174
37587W        W 9203  36.150   7.203   2.706
37588W        W 9204  26.797   2.347  11.991
37589W        W 9205   9.830  12.921  14.770
37590W        W 9206  22.776  38.527  11.139
37591W        W 9207  38.103   2.846  12.020
37592W        W 9208   9.211  15.710  11.896
37593W        W 9209  15.725   2.706   3.638
37594W        W 9210  19.107  17.651   1.986
37595W        W 9211  39.152   1.575  14.022
37596W        W 9212  37.239   9.263   1.043
37597W        W 9213  34.090  34.268  12.209
37598W        W 9214  19.695  37.932   4.625
37599W        W 9215  15.517  41.812   0.789
37600W        W 9216  15.280  32.785   4.583
37601W        W 9217   9.155  19.670   1.389
37602W        W 9218   6.919  20.303  11.061
37603W        W 9219  25.547  25.626  10.389
37604W        W 9220  10.617  17.526   0.803
37605W        W 9221  10.170   4.882  11.565
37606W        W 9222   3.758  15.323   4.852
37607W        W 9223   4.473  35.351   4.666
37608W        W 9224   5.750  22.081   1.768
37609W        W 9225   6.235  28.555   1.530
37610W        W 9226  35.969   0.286   1.266
37611W        W 9227  35.414  34.008   4.593
37612W        W 9228  12.740  18.617  14.539
37613W        W 9229  23.137  24.630  10.701
37614W        W 9230  30.112  35.579   1.202
37615W        W 9231  23.922   9.185   1.783
37616W        W 9232  40.661  36.046  14.336
37617W        W 9233  23.578  28.325   2.835
37618W        W 9234  17.230   9.191   0.911
37619W        W 9235   8.834  25.901  14.431
37620W        W 9236  21.421  26.483   4.611
37621W        W 9237  39.235  15.656  10.516
37622W        W 9238  17.622  35.493  14.050
37623W        W 9239  14.855  14.351   3.159
37624W        W 9240  37.469   6.119   3.254
37625W        W 9241  16.657  21.277   1.829
37626W        W 9242  44.031  23.526  14.915
37627W        W 9243   4.900  44.412   0.124
37628W        W 9244  44.810  22.501   1.981
37629W        W 9245   2.559   7.326  14.435
37630W        W 9246  42.808  13.272  11.469
37631W        W 9247  44.813  26.698   2.310
37632W        W 9248   2.250  41.406  13.368
37633W        W 9249  38.591  34.679   0.379
37634W        W 9250  27.580   3.756   1.045
37635W        W 9251  18.102  44.213  11.118
37636W        W 9252   8.137  12.727   2.961
37637W        W 9253  27.024  42.265  11.571
37638W        W 9254  37.025  16.314  10.715
37639W        W 9255   3.372   6.965   1.728
37640W        W 9256  42.722  33.577  14.852
37641W        W 9257  30.281  21.262  13.887
37642W        W 9258  30.008   0.059  10.565
37643W        W 9259  33.817  11.691  12.495
37644W        W 9260  26.300  30.120   4.814
37645W        W 9261  29.101  11.473   4.886
37646W        W 9262   5.969  34.617  13.915
37647W        W 9263  35.654  14.402   2.241
37648W        W 9264   8.387  38.902  14.554
37649W        W 9265  13.171  36.011  12.113
37650W        W 9266   7.150  22.681  11.110
37651W        W 9267  30.447  27.451   2.716
37652W        W 9268   8.337  36.909  10.933
37653W        W 9269  16.193  25.506  10.690
37654W        W 9270  19.308  40.802   1.805
37655W        W 9271  42.000  33.172  12.940
37656W        W 9272  25.347  20.030  10.731
37657W        W 9273  37.552  27.248  11.092
37658W        W 9274  23.617  18.465   3.591
37659W        W 9275  26.841  19.625   3.747
37660W        W 9276  44.863  11.936  14.400
37661W        W 9277   5.736  42.891   0.300
37662W        W 9278   9.769  36.100  13.758
37663W        W 9279  16.621  36.820  10.638
37664W        W 9280  17.159  44.434  14.879
37665W        W 9281  10.766  23.011   2.250
37666W        W 9282  37.846   9.225  14.507
37667W        W 9283  43.557  21.667   2.314
37668W        W 9284  25.587  28.274   3.645
37669W        W 9285  13.457  40.804   2.143
37670W        W 9286   7.290  19.096   2.691
37671W        W 9287   2.401  36.778  14.847
37672W        W 9288  14.197   6.089   3.214
37673W        W 9289   4.771  15.081  13.507
37674W        W 9290   6.513   8.416   4.139
37675W        W 9291  44.274  20.407   3.314
37676W        W 9292   3.576   1.889   3.251
37677W        W 9293  16.137  17.586  12.525
37678W        W 9294   7.194  28.439   0.683
37679W        W 9295  32.975   8.193  13.817
37680W        W 9296   8.247  25.465  10.990
37681W        W 9297  12.322   2.788  10.951
37682W        W 9298  43.947   1.406   3.576
37683W        W 9299  15.756   8.563   2.843
37684W        W 9300   9.833  44.915   1.394
37685W        W 9301  21.907   5.205  13.278
37686W        W 9302  29.615  12.568   1.274
37687W        W 9303  35.322   1.725  11.942
37688W        W 9304  12.408  41.981   0.379
37689W        W 9305  38.226   1.444  11.054
37690W        W 9306  27.220  28.314  10.557
37691W        W 9307  38.403  33.011  11.932
37692W        W 9308  20.967  23.127   0.717
37693W        W 9309  13.067  39.230  11.505
37694W        W 9310   4.439  33.379  11.949
37695W        W 9311  28.084  37.379   5.359
37696W        W 9312  32.649  10.531   2.787
37697W        W 9313  37.816  32.111  10.490
37698W        W 9314  36.898  43.292  12.884
37699W        W 9315   8.289  25.535   3.768
37700W        W 9316  22.008  35.774  12.355
37701W        W 9317  37.830   8.953   3.697
37702W        W 9318   0.352   3.723   0.264
37703W        W 9319  41.611  31.543  13.393
37704W        W 9320  25.044  24.626   4.900
37705W        W 9321  37.054   2.959   4.629
37706W        W 9322  33.591  10.536  11.109
37707W        W 9323  37.927   7.359   2.455
37708W        W 9324  27.998  42.581   4.166
37709W        W 9325   1.871  21.360   1.731
37710W        W 9326  19.755  10.132   3.883
37711W        W 9327  19.747  29.345  12.440
37712W        W 9328  11.459  36.016  10.465
37713W        W 9329  29.042  31.596  10.341
37714W        W 9330  39.329  37.773   4.638
37715W        W 9331  31.004  18.044  10.623
37716W        W 9332  22.314   2.704   1.780
37717W        W 9333  27.749   4.711  12.468
37718W        W 9334  39.460   6.306   2.865
37719W        W 9335  33.212  43.438   0.279
37720W        W 9336  43.500  13.715   3.398
37721W        W 9337  16.784  24.898   1.264
37722W        W 9338  23.039  28.142  13.915
37723W        W 9339   5.932   8.903   1.325
37724W        W 9340  20.561  43.494  14.687
37725W        W 9341  25.682   0.082   1.264
37726W        W 9342  21.776  22.114   0.110
37727W        W 9343  41.827   0.812  11.583
37728W        W 9344  32.014  42.073   3.867
37729W        W 9345  42.555  16.766  12.620
37730W        W 9346  41.335  21.809  14.249
37731W        W 9347   2.754  18.261   3.805
37732W        W 9348  13.149   3.147  12.770
37733W        W 9349  35.423  38.395  12.562
37734W        W 9350   8.045  42.998   2.788
37735W        W 9351  29.155  19.302   0.558
37736W        W 9352  42.993  42.115   3.598
37737W        W 9353  27.013  40.477   4.146
37738W        W 9354  41.984   4.024  13.777
37739W        W 9355  40.892  40.827  11.167
37740W        W 9356  29.964  39.117   3.015
37741W        W 9357   8.138  35.914   0.793
37742W        W 9358  16.548  13.066   1.458
37743W        W 9359  35.483  31.128   4.124
37744W        W 9360  30.571   9.911   2.861
37745W        W 9361   4.185   9.420   4.579
37746W        W 9362  17.786  35.793  12.822
37747W        W 9363  18.657  32.032  10.018
37748W        W 9364  17.357   6.435   5.021
37749W        W 9365  30.165   6.935  11.275
37750W        W 9366   7.439  14.745  14.449
37751W        W 9367   1.940  35.823   0.655
37752W        W 9368   2.870  40.135  14.794
37753W        W 9369   3.726  19.717   3.346
37754W        W 9370   9.225   6.348  10.707
37755W        W 9371  13.066  12.549   0.744
37756W        W 9372  12.255   8.189  11.658
37757W        W 9373   5.405  31.363  11.547
37758W        W 9374  41.284  29.057   2.616
37759W        W 9375  20.790  34.093  12.970
37760W        W 9376  11.418   5.401   3.141
37761W        W 9377  28.660  40.690   2.811
37762W        W 9378  41.309  26.013  12.791
37763W        W 9379  31.416  43.441  14.191
37764W        W 9380   8.855  30.643  11.093
37765W        W 9381   9.430  17.371   0.576
37766W        W 9382  34.420  11.695  13.206
37767W        W 9383   9.187  21.724   3.133
37768W        W 9384  13.064  39.631  12.856
37769W        W 9385  14.643  11.308   1.564
37770W        W 9386  42.932   3.375   4.234
37771W        W 9387  23.160  19.463   0.237
37772W        W 9388  13.228  32.418  12.590
37773W        W 9389  21.384   4.193  11.092
37774W        W 9390  22.797  13.164   0.472
37775W        W 9391  16.504  17.815  13.135
37776W        W 9392   4.599   8.667   4.081
37777W        W 9393  36.805  18.751   4.157
37778W        W 9394  19.321  36.876   1.469
37779W        W 9395  23.936  28.469   3.548
37780W        W 9396   0.731  42.204  12.774
37781W        W 9397  39.114  16.847   1.426
37782W        W 9398   8.439  22.067   2.924
37783W        W 9399  41.782  30.566   5.104
37784W        W 9400  10.204  27.010  11.901
37785W        W 9401   1.302  30.934   4.849
37786W        W 9402  23.357  21.904   3.987
37787W        W 9403  39.475  35.623   2.887
37788W        W 9404  16.130  25.663   3.401
37789W        W 9405  36.814  43.419  10.697
37790W        W 9406  18.135  43.063   2.295
37791W        W 9407  12.319  23.965   1.219
37792W        W 9408  39.510  19.090  12.381
37793W        W 9409  42.572  14.655  11.698
37794W        W 9410  11.370  39.176   4.080
37795W        W 9411  34.173  29.332   4.837
37796W        W 9412   1.829  37.129  12.196
37797W        W 9413  10.267  20.923  13.580
37798W        W 9414  22.734  25.355  14.758
37799W        W 9415  30.974  39.211  10.945
37800W        W 9416  22.204   1.027   3.666
37801W        W 9417  41.853  16.681  10.624
37802W        W 9418  10.405  11.759   0.291
37803W        W 9419   7.326  14.661   1.836
37804W        W 9420  12.394  34.128  12.833
37805W        W 9421  42.264   9.874  12.099
37806W        W 9422  13.209  25.452   4.569
37807W        W 9423  11.927  39.264   3.607
37808W        W 9424   8.481  32.830   4.619
37809W        W 9425  11.878  18.131  14.477
37810W        W 9426  28.267  24.113  14.977
37811W        W 9427  38.341   2.385  12.844
37812W        W 9428   8.319  27.135  14.289
37813W        W 9429  35.787  29.450   1.968
37814W        W 9430  32.393  13.262   2.151
37815W        W 9431   8.450  24.197  12.026
37816W        W 9432  36.480  21.168  12.710
37817W        W 9433  29.598  40.149   3.845
37818W        W 9434  23.240  42.441   0.165
37819W        W 9435  11.603   2.255   3.192
37820W        W 9436  35.447  18.581   4.746
37821W        W 9437  37.864   3.305   3.322
37822W        W 9438  31.402  30.599   0.471
37823W        W 9439  21.078  20.526  14.959
37824W        W 9440  23.668  18.558   1.262
37825W        W 9441  25.769  20.863   2.293
37826W        W 9442  23.247  42.835   2.282
37827W        W 9443  29.918  11.598  11.420
37828W        W 9444  44.451  16.748  12.443
37829W        W 9445   3.035  11.831   3.637
37830W        W 9446  36.312  17.293   4.074
37831W        W 9447  11.357   4.904   4.463
37832W        W 9448  40.281  21.528  10.723
37833W        W 9449   4.528  19.330   2.360
37834W        W 9450   8.147   8.509   1.689
37835W        W 9451  25.105   6.783   4.379
37836W        W 9452  31.608  37.677   4.955
37837W        W 9453  33.402  32.564  13.592
37838W        W 9454  44.517   9.351   1.294
37839W        W 9455  42.767  20.587   0.801
37840W        W 9456  23.969  44.060   4.663
37841W        W 9457  21.273  20.605   3.143
37842W        W 9458  29.060  41.309   4.328
37843W        W 9459  33.658  15.604  13.794
37844W        W 9460  26.115  20.221  13.765
37845W        W 9461  41.420  12.189   1.753
37846W        W 9462  10.571   7.909   3.353
37847W        W 9463  28.672  29.519  11.546
37848W        W 9464  15.805   0.964   0.409
37849W        W 9465   1.202  24.226   4.184
37850W        W 9466   5.788  39.046   4.833
37851W        W 9467   4.253  24.847  13.017
37852W        W 9468  43.518  44.825   1.475
37853W        W 9469  16.294  33.613  13.045
37854W        W 9470  28.640  40.899   4.833
37855W        W 9471  28.617  35.164   1.805
37856W        W 9472  17.774   7.836  14.522
37857W        W 9473  34.580  26.126  11.835
37858W        W 9474   5.774  33.633  11.656
37859W        W 9475   6.959   8.781   0.408
37860W        W 9476  20.554  38.834   1.677
37861W        W 9477  29.163   4.434  12.716
37862W        W 9478  41.903  37.309  14.405
37863W        W 9479  17.017  31.470   0.740
37864W        W 9480  20.306  33.751   3.271
37865W        W 9481  11.231  20.271  10.905
37866W        W 9482  37.463  39.325   2.792
37867W        W 9483  36.336  21.708  14.578
37868W        W 9484  33.236  44.237  14.512
37869W        W 9485  41.425  29.934   3.720
37870W        W 9486  18.767   7.182   1.245
37871W        W 9487  29.026  41.556   0.239
37872W        W 9488   1.390  23.631  10.294
37873W        W 9489  20.229  35.811  14.876
37874W        W 9490  39.797   7.248   3.724
37875W        W 9491  39.050  32.993   4.603
37876W        W 9492   0.924  20.592   0.639
37877W        W 9493  30.675  33.092  12.673
37878W        W 9494  22.962  17.167  11.509
37879W        W 9495  23.299  11.366   1.766
37880W        W 9496  28.183  13.483  12.797
37881W        W 9497  16.018  17.734  14.926
37882W        W 9498   7.605  11.390  10.995
37883W        W 9499  24.893  15.612  11.484
37884W        W 9500  12.281  44.106   3.263
37885W        W 9501  20.413  36.030  10.216
37886W        W 9502  26.508  21.922   1.319
37887W        W 9503  15.500  26.933   0.992
37888W        W 9504  39.314  31.105   2.756
37889W        W 9505   1.704  20.237   0.837
37890W        W 9506  18.541  15.097  12.141
37891W        W 9507   6.229  29.220   2.780
37892W        W 9508  24.473  13.439  14.791
37893W        W 9509  30.139   3.003  14.946
37894W        W 9510  24.254  28.232  12.161
37895W        W 9511  13.821  35.494  13.049
37896W        W 9512   8.954  35.347  14.097
37897W        W 9513  39.429  13.811  10.581
37898W        W 9514  13.335  36.419  12.416
37899W        W 9515  40.101  31.886  14.015
37900W        W 9516   7.928  43.083  12.947
37901W        W 9517  22.926   1.493   4.311
37902W        W 9518  40.448  33.146  12.415
37903W        W 9519  37.145   3.928   4.191
37904W        W 9520  35.971   2.653  14.719
37905W        W 9521  41.890  28.943   4.660
37906W        W 9522  24.491  34.618   1.794
37907W        W 9523  30.507   0.685  14.882
37908W        W 9524  20.014  40.463   2.378
37909W        W 9525   3.863  26.768   0.025
37910W        W 9526  41.938  38.875   1.904
37911W        W 9527  43.815  43.783   3.754
37912W        W 9528  40.287  41.483   4.619
37913W        W 9529  30.000   3.015   3.601
37914W        W 9530  30.588   0.581  11.682
37915W        W 9531  29.585  33.795  10.518
37916W        W 9532   6.282  22.012   2.897
37917W        W 9533  22.460  32.505  11.133
37918W        W 9534  42.535  39.829  10.709
37919W        W 9535  30.735  43.736   4.134
37920W        W 9536   6.739   4.261   1.171
37921W        W 9537  34.503  26.732  14.640
37922W        W 9538   9.629  11.691   2.761
37923W        W 9539  37.953  43.722   2.774
37924W        W 9540   5.465  27.026  14.980
37925W        W 9541  25.754  24.587   0.316
37926W        W 9542  13.398  23.893  13.516
37927W        W 9543  34.217  22.119  10.710
37928W        W 9544   9.820  41.412  13.116
37929W        W 9545  26.118   1.229   2.573
37930W        W 9546  36.072   9.633  11.850
37931W        W 9547  14.163   2.472  14.829
37932W        W 9548  13.827   7.758  13.774
37933W        W 9549  29.561   1.515  11.639
37934W        W 9550  40.833   0.777   1.276
37935W        W 9551  38.586  13.856   1.461
37936W        W 9552   1.700   3.851  10.727
37937W        W 9553  32.994  42.777   4.223
37938W        W 9554  14.749   3.299   0.593
37939W        W 9555  39.412  40.440   3.549
37940W        W 9556  39.888  11.458  14.275
37941W        W 9557  31.007   6.499   2.354
37942W        W 9558  15.233   4.752  11.993
37943W        W 9559  25.324  30.143  12.123
37944W        W 9560  21.258   4.482   2.721
37945W        W 9561  13.843  22.341  13.048
37946W        W 9562  25.123  44.807  12.002
37947W        W 9563  28.160  13.348   3.103
37948W        W 9564  34.422   0.462   1.917
37949W        W 9565  20.186  35.791  14.349
37950W        W 9566  25.523  32.298  14.056
37951W        W 9567  37.614  23.899  13.762
37952W        W 9568  43.752   6.249   0.010
37953W        W 9569  29.801  16.036   2.406
37954W        W 9570  19.586  31.190   1.691
37955W        W 9571  36.826  41.020  14.849
37956W        W 9572   1.819  28.370   1.817
37957W        W 9573   7.152  35.810  12.897
37958W        W 9574  35.027   0.350   1.483
37959W        W 9575  24.192   8.231   2.838
37960W        W 9576  18.943  44.549  10.212
37961W        W 9577  11.128  29.506  10.629
37962W        W 9578  34.028   8.493  12.110
37963W        W 9579  41.930  23.563  14.527
37964W        W 9580  26.773  28.517   1.932
37965W        W 9581   8.628   0.267  13.468
37966W        W 9582  26.413  44.935   1.787
37967W        W 9583  37.719  25.494   0.658
37968W        W 9584  44.419  42.546  12.435
37969W        W 9585  10.389  33.252  11.433
37970W        W 9586  17.188  15.731  14.459
37971W        W 9587   6.755  41.762   3.127
37972W        W 9588  19.226  44.215   4.543
37973W        W 9589   7.625   6.505  12.137
37974W        W 9590  23.052  12.744  10.453
37975W        W 9591   1.590   4.512   3.546
37976W        W 9592  27.493  30.198   0.406
37977W        W 9593  44.572  12.832  10.030
37978W        W 9594  31.391  18.640  12.916
37979W        W 9595  14.073  17.248  11.938
37980W        W 9596  37.298  22.551  10.209
37981W        W 9597  25.618  37.888   4.687
37982W        W 9598  25.536  42.192  12.414
37983W        W 9599  21.772  34.819   2.998
37984W        W 9600  18.564   2.017  11.958
37985W        W 9601  25.734  25.128  12.986
37986W        W 9602   0.793  38.105  14.924
37987W        W 9603  38.873  32.533  11.639
37988W        W 9604  44.904   6.433   2.865
37989W        W 9605  43.263  11.369   4.662
37990W        W 9606  15.866  14.137  10.293
37991W        W 9607   3.101  23.576   4.893
37992W        W 9608  40.096  42.313   4.650
37993W        W 9609  14.877  18.555  13.982
37994W        W 9610   9.028   4.678  12.788
37995W        W 9611  42.146  31.391  11.871
37996W        W 9612  28.980  11.293   1.241
37997W        W 9613  23.156  42.119  14.788
37998W        W 9614   6.204  21.254  10.300
37999W        W 9615   5.272  29.425   4.571
38000W        W 9616   3.398  39.013  11.871
38001W        W 9617  28.518  38.901   2.379
38002W        W 9618   9.112  35.138  12.452
38003W        W 9619  41.177  35.846  14.171
38004W        W 9620   6.688  11.576  14.867
38005W        W 9621   5.042  41.338   2.309
38006W        W 9622  36.497  18.659   2.792
38007W        W 9623  16.177  30.545   4.678
38008W        W 9624  20.195   0.844   4.695
38009W        W 9625  37.492  26.518   4.633
38010W        W 9626   5.433  13.810   1.780
38011W        W 9627  43.867  11.141   0.440
38012W        W 9628  30.927   9.645   0.382
38013W        W 9629  12.209  20.247   0.776
38014W        W 9630  24.708  24.213  14.556
38015W        W 9631  11.895  26.595  13.086
38016W        W 9632   8.454   4.065  10.694
38017W        W 9633  27.012  20.969  10.760
38018W        W 9634   6.755  38.403  10.709
38019W        W 9635  39.508  31.145   0.922
38020W        W 9636  25.001  34.560  11.996
38021W        W 9637  42.442  25.121  13.525
38022W        W 9638  16.342  20.574   3.129
38023W        W 9639  20.618   6.193   3.722
38024W        W 9640  38.289  26.722   0.455
38025W        W 9641   5.600  33.116  12.564
38026W        W 9642   3.399  15.257  13.050
38027W        W 9643  25.070   9.919  12.132
38028W        W 9644   4.433   2.283  14.880
38029W        W 9645   3.198  40.500   2.629
38030W        W 9646   2.956  19.743   3.973
38031W        W 9647  35.484  13.562   1.306
38032W        W 9648   4.084  27.887   1.002
38033W        W 9649  43.970  32.208  11.038
38034W        W 9650  14.654  14.849  12.861
38035W        W 9651  41.270   4.349   3.609
38036W        W 9652  24.231  19.058   1.877
38037W        W 9653  42.929  43.390   0.143
38038W        W 9654  30.577  19.515   1.398
38039W        W 9655  16.154  16.042  14.094
38040W        W 9656  43.439  18.985   4.969
38041W        W 9657  25.036  11.297   4.090
38042W        W 9658  25.964   1.238   4.370
38043W        W 9659  41.275  33.430   4.092
38044W        W 9660  10.849  16.464   4.470
38045W        W 9661  11.301  42.958   1.188
38046W        W 9662  28.158  31.154  13.437
38047W        W 9663   7.384  38.485  12.511
38048W        W 9664  14.522  16.770  10.656
38049W        W 9665  44.925  27.937  10.797
38050W        W 9666   7.891  36.080   2.641
38051W        W 9667  24.739  14.714  13.027
38052W        W 9668  38.319   4.834   1.407
38053W        W 9669   7.642  12.553   1.366
38054W        W 9670  15.767  28.002  13.027
38055W        W 9671  38.467   3.640  11.119
38056W        W 9672  30.333   4.972  12.140
38057W        W 9673  24.005  10.319   0.477
38058W        W 9674   5.891  29.521   0.203
38059W        W 9675   8.679  28.928  12.902
38060W        W 9676  19.493  15.306   1.431
38061W        W 9677  10.175  10.419  10.453
38062W        W 9678   6.453   2.707  11.976
38063W        W 9679  13.643  22.706   0.146
38064W        W 9680  23.270  20.127   3.647
38065W        W 9681   0.402  41.350  12.790
38066W        W 9682  43.966   6.653   1.283
38067W        W 9683  12.828  23.364  13.902
38068W        W 9684   2.437   2.278   0.791
38069W        W 9685  22.993  15.387   0.479
38070W        W 9686  31.682  36.539  14.486
38071W        W 9687  34.803   0.320  14.338
38072W        W 9688   4.251  18.330   2.278
38073W        W 9689   3.313  44.106  14.792
38074W        W 9690  15.151  31.952  14.766
38075W        W 9691   4.660  21.155   3.878
38076W        W 9692   6.407  31.913   0.160
38077W        W 9693  16.227   5.691  11.887
38078W        W 9694   3.448   9.713  11.127
38079W        W 9695  37.157  40.481  14.099
38080W        W 9696  38.352  28.992  11.269
38081W        W 9697   3.475   4.971  14.506
38082W        W 9698   3.721  22.722  13.919
38083W        W 9699  27.002  16.630  12.508
38084W        W 9700  11.947  27.062  12.356
38085W        W 9701   8.590  43.498  14.614
38086W        W 9702   2.688  43.750   0.919
38087W        W 9703  43.782   8.122  11.941
38088W        W 9704  29.288  33.588   3.651
38089W        W 9705  41.546  10.326   2.601
38090W        W 9706  36.958  25.237   4.868
38091W        W 9707  16.236   9.129  11.963
38092W        W 9708  11.630  10.344  13.958
38093W        W 9709  24.014  26.632  14.717
38094W        W 9710  10.843  10.211   1.582
38095W        W 9711  20.765  44.531  13.610
38096W        W 9712  22.819  38.981   4.993
38097W        W 9713  40.815  10.259  12.846
38098W        W 9714  22.084  21.525   0.771
38099W        W 9715  28.182  14.058   4.626
38100W        W 9716  33.398  17.751   4.811
38101W        W 9717  13.325  43.081   0.721
38102W        W 9718  29.620   7.784  11.968
38103W        W 9719   3.295   7.501  14.822
38104W        W 9720   5.328  25.983   2.098
38105W        W 9721  41.342  44.032  14.416
38106W        W 9722  15.631  18.089   0.073
38107W        W 9723   5.719  11.945   4.912
38108W        W 9724   3.287  18.287   2.343
38109W        W 9725  28.470  18.172  10.858
38110W        W 9726  38.060  35.567   4.043
38111W        W 9727  41.362   6.731  14.314
38112W        W 9728  28.466   5.875  12.117
38113W        W 9729   5.637   2.294  12.079
38114W        W 9730  13.840  38.485   3.394
38115W        W 9731  14.705  12.186   2.165
38116W        W 9732  28.401  21.865  11.661
38117W        W 9733  37.783   2.297  11.477
38118W        W 9734  15.823   7.739   3.272
38119W        W 9735  42.495  25.074   1.950
38120W        W 9736  44.550  14.718   2.826
38121W        W 9737  31.275  36.625   4.293
38122W        W 9738   2.807  17.745   2.859
38123W        W 9739  29.952  14.844   0.383
38124W        W 9740  33.662   1.464  11.584
38125W        W 9741  28.995  22.531  10.541
38126W        W 9742  12.191   0.365   2.365
38127W        W 9743  14.091  27.497  14.857
38128W        W 9744  38.755  24.109  11.524
38129W        W 9745  19.312   5.940   0.167
38130W        W 9746   6.215  16.073  11.931
38131W        W 9747  32.047  27.594  11.140
38132W        W 9748  43.458  19.984  12.384
38133W        W 9749  21.579  41.988  11.147
38134W        W 9750  33.975   1.311   1.830
38135W        W 9751  34.499  42.332   4.507
38136W        W 9752  13.168  41.194  13.776
38137W        W 9753  41.704   9.119  13.152
38138W        W 9754  44.969  20.727  11.491
38139W        W 9755   9.605  40.845  12.434
38140W        W 9756  41.363  10.646  10.419
38141W        W 9757  42.573   0.339  14.061
38142W        W 9758  24.729  39.473  11.206
38143W        W 9759  24.660   8.911  13.906
38144W        W 9760  30.986   4.676  14.481
38145W        W 9761  20.396  12.079   2.724
38146W        W 9762  23.995  24.957  11.533
38147W        W 9763  16.163   0.131   3.429
38148W        W 9764  25.959  31.027   2.694
38149W        W 9765   0.225  29.630  12.074
38150W        W 9766   6.238   0.206  11.560
38151W        W 9767  21.733  12.168  13.328
38152W        W 9768  18.316   4.714  12.649
38153W        W 9769  35.036  37.935  12.876
38154W        W 9770  18.037   4.640  13.552
38155W        W 9771  37.328  36.542   3.607
38156W        W 9772   7.451  20.755  11.884
38157W        W 9773  36.940  39.817  10.507
38158W        W 9774  27.664   7.921   2.144
38159W        W 9775   2.303  12.458  11.143
38160W        W 9776  28.665  42.086   1.957
38161W        W 9777   8.359  14.612   3.166
38162W        W 9778  39.926  12.091  10.638
38163W        W 9779  38.884   3.623  10.646
38164W        W 9780  14.283  41.452  14.920
38165W        W 9781   8.775  29.028   4.400
38166W        W 9782  32.116  13.784  14.381
38167W        W 9783  43.068  29.663  14.499
38168W        W 9784  22.657  33.163   0.141
38169W        W 9785   8.177  41.873   1.300
38170W        W 9786   2.070  25.929   5.011
38171W        W 9787  18.574  42.457  14.303
38172W        W 9788  12.264  37.353   2.174
38173W        W 9789  25.368  17.206   4.337
38174W        W 9790  38.074  33.445   1.418
38175W        W 9791  21.941  31.493   1.736
38176W        W 9792   7.451  39.322  12.252
38177W        W 9793   5.775  40.959  14.877
38178W        W 9794  28.818  44.048  13.110
38179W        W 9795   4.783  38.111   3.675
38180W        W 9796   1.486  42.037   1.119
38181W        W 9797  26.763  22.093  14.761
38182W        W 9798  22.079  27.149   2.298
38183W        W 9799   8.157   9.687   2.782
38184W        W 9800  25.798   8.617   3.161
38185W        W 9801  38.510   2.021   2.778
38186W        W 9802  22.781  28.678  12.553
38187W        W 9803   6.903  11.931  10.377
38188W        W 9804   0.849  34.847   2.180
38189W        W 9805  23.897  35.137  14.148
38190W        W 9806  42.965   9.251   4.118
38191W        W 9807  38.948  39.261  10.041
38192W        W 9808   7.694  27.447   4.769
38193W        W 9809  13.177   7.235  10.270
38194W        W 9810  20.838  42.308   3.220
38195W        W 9811  31.468  16.615   3.139
38196W        W 9812  16.459  32.427   4.558
38197W        W 9813  13.317  35.003  10.256
38198W        W 9814  42.218  31.133   2.396
38199W        W 9815  25.314   2.025  13.404
38200W        W 9816   9.654  13.737  14.400
38201W        W 9817  15.695  41.920   4.931
38202W        W 9818  23.679  22.046  14.931
38203W        W 9819  17.491  28.488   1.933
38204W        W 9820  42.539  43.522  12.543
38205W        W 9821   8.755  41.724  12.798
38206W        W 9822  42.001   7.573  10.325
38207W        W 9823  30.487  36.352  12.959
38208W        W 9824  15.566   9.880  13.973
38209W        W 9825  34.464  38.585  11.176
38210W        W 9826   9.115  31.019   1.370
38211W        W 9827  14.849  14.328   4.475
38212W        W 9828  22.760   5.358   3.678
38213W        W 9829  36.315  31.388   0.818
38214W        W 9830   0.971  39.023   0.190
38215W        W 9831  25.995  35.327  14.517
38216W        W 9832  39.529   5.724   2.303
38217W        W 9833  17.866  13.051   3.356
38218W        W 9834  13.794   3.686   9.729
38219W        W 9835   5.981   9.667   4.277
38220W        W 9836  18.599  42.276   2.227
38221W        W 9837  23.086  36.455  13.582
38222W        W 9838   7.329   1.343   4.534
38223W        W 9839   9.783  37.893   0.274
38224W        W 9840  42.983  38.025   5.095
38225W        W 9841  18.854   0.826   2.715
38226W        W 9842   8.658  40.338  11.517
38227W        W 9843  31.004   0.905  14.947
38228W        W 9844   0.867  36.917  10.376
38229W        W 9845   4.481  21.577   1.710
38230W        W 9846  41.548   8.345   2.697
38231W        W 9847  25.641  30.922  10.785
38232W        W 9848  39.442   3.424  12.846
38233W        W 9849  20.485  21.247  12.128
38234W        W 9850  31.055  42.743   4.810
38235W        W 9851  43.351  43.002  13.479
38236W        W 9852  40.352  20.678   4.786
38237W        W 9853  12.613  44.014  14.383
38238W        W 9854  29.228  42.238  14.798
38239W        W 9855   7.296  28.413  13.528
38240W        W 9856   1.489   2.285   2.219
38241W        W 9857  21.612  11.315   3.369
38242W        W 9858   4.290  26.752  10.989
38243W        W 9859  27.215  41.908   1.225
38244W        W 9860  43.985   1.732  13.360
38245W        W 9861  32.033  27.807   0.563
38246W        W 9862  16.142   3.878   2.769
38247W        W 9863   1.554  42.540  13.048
38248W        W 9864  42.850  39.073   3.468
38249W        W 9865  39.972  16.120   0.371
38250W        W 9866  12.710  44.942  14.846
38251W        W 9867  38.651  41.334   1.651
38252W        W 9868  23.271   4.821   4.246
38253W        W 9869  14.885  41.777  12.264
38254W        W 9870  35.460  17.232   2.346
38255W        W 9871  12.181   9.182   0.952
38256W        W 9872  32.890  25.488   1.867
38257W        W 9873  42.199  28.520   0.964
38258W        W 9874  36.614   0.817   1.923
38259W        W 9875  42.076  14.620   0.499
38260W        W 9876  43.797  29.141   4.500
38261W        W 9877  41.393  27.039  12.121
38262W        W 9878  44.414  27.954   2.372
38263W        W 9879  12.694  37.264   2.810
38264W        W 9880   5.199   4.187  14.763
38265W        W 9881  44.691  42.359  10.505
38266W        W 9882  19.183   5.701  14.171
38267W        W 9883  15.179  15.306   1.735
38268W        W 9884   7.406   2.889  13.920
38269W        W 9885   5.658  12.621   0.346
38270W        W 9886  25.520  11.922  10.736
38271W        W 9887   2.458  38.551  11.760
38272W        W 9888   9.622  43.762   2.398
38273W        W 9889  38.939  19.074  10.254
38274W        W 9890  39.352  34.666  14.047
38275W        W 9891  13.670   2.408   0.009
38276W        W 9892   6.157   8.741  10.375
38277W        W 9893  38.424   8.856   0.526
38278W        W 9894  14.103  34.409  12.948
38279W        W 9895   2.841  13.169  10.805
38280W        W 9896  25.601  25.931   3.442
38281W        W 9897   0.938  22.250   1.406
38282W        W 9898  15.856  17.675  12.076
38283W        W 9899  19.284  37.702   0.438
38284W        W 9900  42.928  44.527  13.955
38285W        W 9901  28.486  23.540   0.940
38286W        W 9902  13.440  40.066   2.707
38287W        W 9903  10.720  37.621   2.699
38288W        W 9904  43.087  22.593  11.451
38289W        W 9905  22.360   2.001   3.267
38290W        W 9906  27.624  10.307   1.504
38291W        W 9907  22.481   2.708   0.445
38292W        W 9908  15.716  25.032   2.367
38293W        W 9909  13.770  20.077   0.396
38294W        W 9910   3.537  17.224  10.457
38295W        W 9911  40.201  15.695  14.830
38296W        W 9912   9.925  18.668   2.282
38297W        W 9913  20.740  31.382  11.113
38298W        W 9914  26.296  39.510  10.726
38299W        W 9915  41.351   5.963  11.967
38300W        W 9916   3.255  42.705  13.497
38301W        W 9917  43.439  27.664   4.291
38302W        W 9918  43.704  39.479   4.611
38303W        W 9919  28.796  20.954   0.773
38304W        W 9920  33.992   8.574   2.597
38305W        W 9921  12.153  34.407   1.350
38306W        W 9922   4.720   0.220   3.828
38307W        W 9923   1.450  43.709   9.953
38308W        W 9924  17.244  11.823  12.147
38309W        W 9925  34.394  15.706  11.694
38310W        W 9926  39.346  30.739   2.389
38311W        W 9927  12.635  40.503  11.395
38312W        W 9928   8.475  44.882  11.903
38313W        W 9929  37.466  38.422   4.744
38314W        W 9930  10.859   1.215  11.515
38315W        W 9931  44.438  39.208  12.407
38316W        W 9932  15.600  40.546   1.367
38317W        W 9933  21.565  12.046   0.710
38318W        W 9934  31.175  17.057   3.747
38319W        W 9935   7.244  39.344  14.974
38320W        W 9936  41.819   2.937  12.023
38321W        W 9937  43.307   5.517  11.995
38322W        W 9938  43.930   9.585   4.486
38323W        W 9939  38.994  36.127  10.752
38324W        W 9940  29.411  10.463   0.969
38325W        W 9941  43.385  43.831   3.458
38326W        W 9942  22.247  10.361  11.091
38327W        W 9943  26.958  34.059  14.711
38328W        W 9944  35.834  38.124  12.358
38329W        W 9945  13.668  14.129  11.872
38330W        W 9946  15.183  34.850  11.204
38331W        W 9947  31.105  27.684   0.648
38332W        W 9948  29.152  31.607  12.572
38333W        W 9949   1.939  12.857  11.152
38334W        W 9950  15.197  17.719  14.252
38335W        W 9951   1.539  21.742   1.807
38336W        W 9952  15.192  37.582   4.725
38337W        W 9953  18.619   3.155   1.452
38338W        W 9954  43.924  32.490   2.835
38339W        W 9955  30.135   6.775  11.807
38340W        W 9956  39.164  15.892  14.986
38341W        W 9957  22.518   7.631  11.848
38342W        W 9958  36.123  12.435   1.489
38343W        W 9959  16.697   6.346  10.365
38344W        W 9960  10.846  15.727  11.090
38345W        W 9961  21.541  30.939  14.570
38346W        W 9962   4.661  44.761   4.642
38347W        W 9963   5.724  44.335   2.943
38348W        W 9964  20.806  40.496   2.935
38349W        W 9965   2.168  44.693  11.934
38350W        W 9966  18.621  10.096  14.932
38351W        W 9967  15.474  32.372   4.941
38352W        W 9968  16.535  25.081  14.200
38353W        W 9969  41.997   2.493  12.946
38354W        W 9970   4.649  32.510  12.997
38355W        W 9971  33.552  43.865   5.095
38356W        W 9972  17.690  39.208  14.773
38357W        W 9973   7.529  29.891   0.870
38358W        W 9974  39.577  16.543   3.146
38359W        W 9975   4.557  24.949   4.198
38360W        W 9976  14.263  22.027  13.477
38361W        W 9977   3.049  16.187   1.731
38362W        W 9978   2.672  34.408  11.066
38363W        W 9979   6.502   3.949  12.960
38364W        W 9980  15.331  12.758   4.775
38365W        W 9981  25.935   3.540  11.626
38366W        W 9982  31.992  30.124   1.198
38367W        W 9983  24.091   4.953   2.956
38368W        W 9984  27.608  25.688  14.976
38369W        W 9985  15.564  18.974   2.320
38370W        W 9986  28.072  15.175   4.325
38371W        W 9987   4.774  16.751   0.515
38372W        W 9988  16.508  17.344  12.914
38373W        W 9989  13.975   2.058  11.100
38374W        W 9990  15.825  13.491   4.605
38375W        W 9991  21.917  19.169   0.972
38376W        W 9992   1.170  16.589  13.517
38377W        W 9993  18.484  33.908   1.595
38378W        W 9994  42.586  42.058   0.367
38379W        W 9995   8.134  31.656   0.703
38380W        W 9996  44.602  32.966  12.577
38381W        W 9997  27.191   3.745  13.291
38382W        W 9998  26.200   3.811   3.284
38383W        W 9999   4.720  31.507   4.587
38384W        W10000  40.961   4.699   2.305
38385W        W10001  20.980  24.963   0.314
38386W        W10002  42.504  27.957   3.863
38387W        W10003   2.338  16.013   2.215
38388W        W10004  29.955  41.341   2.206
38389W        W10005  26.979  39.371  11.823
38390W        W10006   0.365  14.720  11.842
38391W        W10007  40.004  21.206  12.057
38392W        W10008  24.629  29.873  14.557
38393W        W10009  20.371  25.500  14.893
38394W        W10010   0.083  42.332   0.556
38395W        W10011  33.141  21.814  13.884
38396W        W10012  37.157  27.890   0.295
38397W        W10013  29.352  19.731  14.374
38398W        W10014   3.220  17.798   1.431
38399W        W10015  22.115   7.715  12.134
38400W        W10016  13.671  14.750  14.583
38401W        W10017  36.831  37.599  11.503
38402W        W10018  19.344  17.740  10.719
38403W        W10019  40.539  11.007   1.284
38404W        W10020  14.117  17.605   5.220
38405W        W10021   4.341  33.982   2.735
38406W        W10022  34.880  42.801   4.463
38407W        W10023  39.911  38.444   2.889
38408W        W10024  38.807  15.286   0.922
38409W        W10025  24.421  37.881  12.466
38410W        W10026   8.205   4.877  13.047
38411W        W10027  35.364  35.737   1.810
38412W        W10028  24.822  18.090  12.035
38413W        W10029  25.440   0.744  14.306
38414W        W10030  20.635  32.666  11.985
38415W        W10031  22.278  15.895  10.584
38416W        W10032  34.495  30.029   4.114
38417W        W10033   8.649   4.995  11.408
38418W        W10034  25.940  13.710   1.355
38419W        W10035  29.505  10.202   2.000
38420W        W10036  23.055   5.257   0.293
38421W        W10037  42.533  24.064   2.386
38422W        W10038   9.098  44.369  14.269
38423W        W10039  43.780  19.088  12.092
38424W        W10040   4.183  21.988   0.907
38425W        W10041  39.708  25.129  14.387
38426W        W10042  22.644  13.736   1.719
38427W        W10043  15.253  14.052  13.976
38428W        W10044  22.074  24.053  14.576
38429W        W10045  10.274  19.118   2.540
38430W        W10046  32.935  22.987   4.569
38431W        W10047  15.724  19.838  12.409
38432W        W10048  33.304  27.004  11.492
38433W        W10049  23.099   9.422  13.482
38434W        W10050  20.970  26.396  11.621
38435W        W10051  25.789  13.145   3.693
38436W        W10052  36.279   2.545  14.327
38437W        W10053  29.708   1.913   2.411
38438W        W10054   4.343  33.254  14.384
38439W        W10055  33.397  32.543   3.923
38440W        W10056  13.944  25.039   3.547
38441W        W10057  10.668  42.501  14.097
38442W        W10058  21.215  35.611  11.067
38443W        W10059  34.513  16.623   1.226
38444W        W10060  24.526  30.040  12.935
38445W        W10061  23.223  27.226  10.595
38446W        W10062  25.482   8.835   4.027
38447W        W10063  13.070  20.562   2.786
38448W        W10064  13.613  25.954   2.887
38449W        W10065  19.259  21.134  13.967
38450W        W10066  22.656   8.378   3.637
38451W        W10067   2.521   7.776  11.493
38452W        W10068   4.777  37.484  11.361
38453W        W10069  35.005  30.628   0.876
38454W        W10070  13.665  24.301  14.357
38455W        W10071   9.825  12.768   1.714
38456W        W10072  33.791   9.250  10.593
38457W        W10073  37.851   4.234   1.776
38458W        W10074  22.684  10.791  12.969
38459W        W10075   3.025  39.916  14.357
38460W        W10076  44.632  11.680   4.014
38461W        W10077  22.255  14.596   4.600
38462W        W10078  26.228  14.868  12.998
38463W        W10079  24.112  12.784   2.630
38464W        W10080  40.942  31.214   4.243
38465W        W10081   3.419   4.335  11.609
38466W        W10082  41.692   0.183   0.095
38467W        W10083  24.188  37.019  12.164
38468W        W10084  36.955   9.896   0.678
38469W        W10085  22.704  22.704  14.643
38470W        W10086  33.556  18.271   0.490
38471W        W10087  19.335  11.613  11.933
38472W        W10088  13.815  40.049   1.364
38473W        W10089  23.187  35.563  12.736
38474W        W10090  26.416  32.636  10.755
38475W        W10091  38.494  10.439   0.415
38476W        W10092  43.908  32.588  12.978
38477W        W10093  22.321  11.349  13.525
38478W        W10094   5.633   7.350   0.476
38479W        W10095   4.469  14.294  12.446
38480W        W10096  11.794   6.622   0.073
38481W        W10097  22.492  18.660   0.738
38482W        W10098  29.164  33.075   3.602
38483W        W10099  26.064   0.202   2.441
38484W        W10100  35.146  44.905   1.754
38485W        W10101   3.136  44.015   4.656
38486W        W10102  27.688  19.974   0.691
38487W        W10103  24.543  41.744  13.904
38488W        W10104  23.122  22.125  12.116
38489W        W10105  31.011  39.539   3.725
38490W        W10106  24.542  35.062  11.520
38491W        W10107  21.074  11.851   0.696
38492W        W10108  21.670  42.300   2.852
38493W        W10109  22.541  25.630   0.927
38494W        W10110  30.699  17.035  12.011
38495W        W10111  22.148  16.205  13.603
38496W        W10112  27.453  41.597   3.284
38497W        W10113  33.885  26.600   3.151
38498W        W10114  28.255  13.278   0.401
38499W        W10115  39.425  26.997   2.864
38500W        W10116  31.525   8.327   4.686
38501W        W10117   2.318  39.450   3.222
38502W        W10118   2.388  33.773   4.168
38503W        W10119  12.843   4.677  14.463
38504W        W10120  16.045  16.556   3.350
38505W        W10121   0.790   2.032   2.736
38506W        W10122  43.913   0.449  12.911
38507W        W10123  33.686  11.592   2.831
38508W        W10124   4.641  30.979   4.456
38509W        W10125  30.994  33.497  12.168
38510W        W10126  23.472  11.434   3.047
38511W        W10127   5.512  18.720   1.648
38512W        W10128  28.399  38.065   2.500
38513W        W10129  19.226  12.203   1.622
38514W        W10130  14.280  17.770   0.416
38515W        W10131  38.385  18.081   2.001
38516W        W10132  20.614  14.828   3.163
38517W        W10133  17.153   9.774  13.082
38518W        W10134  41.210  11.131   0.258
38519W        W10135  10.229  27.334  13.142
38520W        W10136  21.552  36.254   0.822
38521W        W10137  38.279  24.197   1.281
38522W        W10138   2.762  21.168  10.796
38523W        W10139  42.834  20.100   0.525
38524W        W10140  23.217   5.836  11.085
38525W        W10141  17.944   2.639  14.421
38526W        W10142  33.265  12.043  11.955
38527W        W10143  38.306   3.817   2.843
38528W        W10144  12.222  26.512  13.517
38529W        W10145  43.741   6.738  14.798
38530W        W10146   7.783  33.997  14.018
38531W        W10147   7.946  27.980  10.681
38532W        W10148   1.233  16.283   3.825
38533W        W10149  30.566  13.170   1.883
38534W        W10150  41.856   6.136  12.680
38535W        W10151  42.868  43.866   3.650
38536W        W10152  20.512  20.052  10.738
38537W        W10153  10.117  39.573   1.711
38538W        W10154  10.149  21.533   2.787
38539W        W10155  17.048  20.138   0.657
38540W        W10156  32.418  33.625   3.196
38541W        W10157  44.737   9.311   1.757
38542W        W10158  43.788  34.829   3.519
38543W        W10159  14.118  17.784   5.700
38544W        W10160   7.693  38.096  12.682
38545W        W10161  34.988  23.575   1.940
38546W        W10162  32.080  19.730  12.974
38547W        W10163  20.616  20.300  14.893
38548W        W10164  41.128  14.784   0.353
38549W        W10165  42.226  33.499  13.452
38550W        W10166  31.543  35.354  11.622
38551W        W10167  25.051  16.255  13.627
38552W        W10168   4.150  23.167   2.896
38553W        W10169  18.748  37.108  14.849
38554W        W10170  32.903  20.601  10.982
38555W        W10171  19.549  42.411   4.651
38556W        W10172  20.673  31.875  11.050
38557W        W10173  24.163  15.639   4.556
38558W        W10174   5.414  20.522   2.234
38559W        W10175  40.518  38.814   2.552
38560W        W10176  30.965   9.089   2.764
38561W        W10177   9.880  41.420   3.738
38562W        W10178   6.869  20.793   4.614
38563W        W10179  10.134   7.235   0.099
38564W        W10180  15.619   5.965  14.943
38565W        W10181  33.454  32.350   0.977
38566W        W10182  24.176  16.550   1.201
38567W        W10183  28.062  39.778  13.513
38568W        W10184  28.086   0.965  10.409
38569W        W10185   1.702  27.946   4.219
38570W        W10186  35.441  40.843  10.747
38571W        W10187   8.361  12.366   2.686
38572W        W10188  16.103  38.926  11.580
38573W        W10189  18.661  22.972  13.451
38574W        W10190   7.860  16.936  12.025
38575W        W10191  34.979  41.317  14.462
38576W        W10192  21.797   3.009   2.612
38577W        W10193  40.814  10.529  13.418
38578W        W10194   6.410  26.013  10.709
38579W        W10195  25.895  27.456  11.510
38580W        W10196  32.571  40.496  13.449
38581W        W10197  18.113  11.849   2.759
38582W        W10198  26.528  17.522  11.633
38583W        W10199  20.517  17.253   3.342
38584W        W10200  34.563  38.024  13.105
38585W        W10201  37.378  23.815  12.905
38586W        W10202   3.259  31.731   3.751
38587W        W10203  40.338   8.625  13.357
38588W        W10204   1.339  26.484   4.402
38589W        W10205   1.419  13.069   0.002
38590W        W10206  12.334   1.087   1.354
38591W        W10207  39.046  25.548   0.700
38592W        W10208  12.223  22.004   3.706
38593W        W10209   3.463   4.906  11.197
38594W        W10210  39.952  43.350  13.306
38595W        W10211  17.013  40.242  13.076
38596W        W10212  34.651   6.430  11.602
38597W        W10213  14.692  14.081   2.137
38598W        W10214  17.769   3.958   1.857
38599W        W10215  31.382  28.132  13.624
38600W        W10216  30.550   5.628   1.007
38601W        W10217  43.817   0.227   3.235
38602W        W10218  12.416  23.963  14.709
38603W        W10219  33.827  23.503  12.448
38604W        W10220  38.305  29.454   4.778
38605W        W10221  33.859  11.132   1.305
38606W        W10222  20.485  17.289   4.711
38607W        W10223  23.652  13.813   0.735
38608W        W10224  30.448  12.309   1.408
38609W        W10225   5.763  14.707  13.317
38610W        W10226  21.085  20.022  13.825
38611W        W10227  28.582   8.944  10.968
38612W        W10228   3.012   8.863  11.065
38613W        W10229   6.325  39.464  13.077
38614W        W10230  29.575  30.020  10.411
38615W        W10231  26.511  21.143  12.322
38616W        W10232   5.891  40.849   4.135
38617W        W10233  29.905  37.450  11.967
38618W        W10234   9.082  19.066   2.189
38619W        W10235  21.139  21.294  14.309
38620W        W10236  12.848  23.648   0.350
38621W        W10237  32.557  43.371  14.773
38622W        W10238   5.276  21.586  12.826
38623W        W10239  39.783  34.839   0.775
38624W        W10240  35.512  33.080  14.519
38625W        W10241   5.371  43.096   0.961
38626W        W10242   6.324  35.129   2.345
38627W        W10243  25.951  27.165   0.909
38628W        W10244  41.870  37.015  12.406
38629W        W10245  19.607  39.764   0.759
38630W        W10246  40.761  34.995  13.789
38631W        W10247  40.037   8.761   1.325
38632W        W10248  25.063  26.486  12.807
38633W        W10249  13.521   1.293   4.441
38634W        W10250  42.759  33.593  12.580
38635W        W10251  14.673  42.294   4.538
38636W        W10252  33.488  37.547   3.247
38637W        W10253  30.549   8.781  13.666
38638W        W10254  21.531  40.511  11.751
38639W        W10255   1.694   4.049  12.163
38640W        W10256   3.456   1.135  13.783
38641W        W10257  30.012   7.828  13.639
38642W        W10258  42.452   0.527   2.357
38643W        W10259  36.024  21.151  12.981
38644W        W10260  37.537  28.250   0.311
38645W        W10261  33.890   2.302   0.959
38646W        W10262  26.420  17.751  11.190
38647W        W10263  10.723  17.064  12.568
38648W        W10264  41.453  31.110   4.315
38649W        W10265  21.250  23.776   0.010
38650W        W10266  27.736  42.929   2.221
38651W        W10267  10.306  44.720  10.954
38652W        W10268   1.733  34.783  11.377
38653W        W10269   3.000  25.589   3.174
38654W        W10270  29.302  27.109   2.227
38655W        W10271  24.745  35.355  11.146
38656W        W10272   8.323   1.043   1.093
38657W        W10273   2.284  30.117  12.024
38658W        W10274  17.667  13.544   0.219
38659W        W10275  34.384  10.706  14.452
38660W        W10276  16.780  35.321   4.706
38661W        W10277   1.612   4.533   0.772
38662W        W10278  12.617   1.942  11.081
38663W        W10279   2.185  11.828  13.527
38664W        W10280  33.087  21.189   2.241
38665W        W10281  11.089  42.017  13.239
38666W        W10282  18.019  37.076  10.694
38667W        W10283  40.881  32.030  12.072
38668W        W10284   5.997   3.690  13.854
38669W        W10285  11.682  41.647  12.083
38670W        W10286   2.966  36.531   2.845
38671W        W10287   7.705   3.769   0.684
38672W        W10288  13.378  25.936  14.309
38673W        W10289  17.009  43.392   2.717
38674W        W10290  25.053  31.940   1.729
38675W        W10291  42.057  39.388   0.282
38676W        W10292  40.978  10.918   2.467
38677W        W10293   9.742  39.092  11.782
38678W        W10294  44.235  25.943   3.276
38679W        W10295  21.696   4.803  14.933
38680W        W10296  33.377   3.694  11.348
38681W        W10297  44.799  43.911   3.866
38682W        W10298  29.153  28.844  14.947
38683W        W10299   6.428   6.374  11.630
38684W        W10300  43.973   9.389   2.350
38685W        W10301   0.261  24.598   5.282
38686W        W10302  14.919  23.987   1.852
38687W        W10303  26.968  11.819   3.635
38688W        W10304  18.756  17.792   3.611
38689W        W10305  30.247  12.486   0.391
38690W        W10306  36.143  32.984  11.493
38691W        W10307  20.245  22.519   9.938
38692W        W10308   2.976   4.819  13.717
38693W        W10309  38.986   9.430   4.908
38694W        W10310  21.961  14.835   2.731
38695W        W10311  24.606   3.867   3.684
38696W        W10312  16.648  44.520  10.484
38697W        W10313  28.245  26.929   3.588
38698W        W10314   2.276  14.216  13.111
38699W        W10315  32.334  21.223   1.732
38700W        W10316  16.749   2.250   1.263
38701W        W10317  41.169  40.346   2.302
38702W        W10318  42.963  44.472  10.935
38703W        W10319  33.091  34.583  12.768
38704W        W10320  12.241  29.739   4.672
38705W        W10321  31.112   7.267   3.391
38706W        W10322  37.468  10.726   2.804
38707W        W10323  19.819   2.650   0.890
38708W        W10324   6.313  10.996  11.609
38709W        W10325  13.869  16.322  11.151
38710W        W10326  35.620  13.246   0.573
38711W        W10327  34.811  39.812   3.769
38712W        W10328   2.685  24.185  12.511
38713W        W10329  16.075   2.186  11.963
38714W        W10330  42.299  15.361   2.881
38715W        W10331  35.886  28.204   2.808
38716W        W10332  39.498  43.438  13.862
38717W        W10333  44.559   3.314   4.047
38718W        W10334  27.588   0.858   3.309
38719W        W10335  26.900  23.667   2.317
38720W        W10336  36.928   4.746   3.264
38721W        W10337  29.403   3.700  12.376
38722W        W10338  14.192  29.159   0.743
38723W        W10339  33.339  43.756   4.060
38724W        W10340  21.614  31.502  14.488
38725W        W10341  39.441  14.572  14.810
38726W        W10342  38.402  28.668   4.352
38727W        W10343  41.168  20.733   3.728
38728W        W10344   0.548  14.867   2.817
38729W        W10345  40.667  15.545  14.543
38730W        W10346   9.819  44.561   4.923
38731W        W10347  16.557  19.996  12.188
38732W        W10348  36.981  17.433  13.195
38733W        W10349   0.981   1.417   0.731
38734W        W10350   3.335  17.812  13.607
38735W        W10351  17.654  31.525   2.440
38736W        W10352  40.565  39.150  12.607
38737W        W10353  37.933  41.001  10.504
38738W        W10354  23.488  30.588   0.506
38739W        W10355  15.637  33.594  10.875
38740W        W10356   8.100  21.042  12.870
38741W        W10357  32.639  12.201  12.858
38742W        W10358  40.431  26.225   1.526
38743W        W10359  10.079  18.000   4.677
38744W        W10360  37.491  38.187  11.378
38745W        W10361  13.121   9.710   3.209
38746W        W10362   0.848  12.748  11.172
38747W        W10363  23.202  33.937   3.588
38748W        W10364   5.219   0.157   4.596
38749W        W10365  38.282  36.187  11.051
38750W        W10366  23.701   0.456  10.614
38751W        W10367  32.660  42.353  13.439
38752W        W10368  37.057  17.407   3.015
38753W        W10369  14.845  40.229   3.827
38754W        W10370  24.727  17.626   1.259
38755W        W10371  29.361   0.363  13.509
38756W        W10372  23.255  35.346   0.749
38757W        W10373  11.814  17.315   0.770
38758W        W10374  20.177   6.810  13.251
38759W        W10375   5.304  39.595  13.390
38760W        W10376  28.222  10.806   0.953
38761W        W10377  35.077  26.708  14.825
38762W        W10378   5.125  13.606  12.180
38763W        W10379  33.295  17.163   1.372
38764W        W10380  34.086   1.887  11.529
38765W        W10381   0.815  29.645   0.293
38766W        W10382  34.147   3.482   0.521
38767W        W10383  38.334  43.693  11.150
38768W        W10384  44.921  41.495  12.083
38769W        W10385   2.465  21.505   3.594
38770W        W10386  17.629  39.005   0.773
38771W        W10387  41.306  25.884  14.064
38772W        W10388  30.970  41.387  13.027
38773W        W10389  21.329  15.916   1.798
38774W        W10390  26.160  29.906  11.250
38775W        W10391  43.782  44.717   3.322
38776W        W10392  28.691  41.175   3.758
38777W        W10393   3.420  22.978  13.328
38778W        W10394  23.191  37.858  11.563
38779W        W10395   9.153   7.290   0.788
38780W        W10396  18.956  23.174   3.538
38781W        W10397  26.017   2.762   4.031
38782W        W10398  16.352  11.844  14.360
38783W        W10399  32.444  40.380  14.460
38784W        W10400   4.305  25.505  12.237
38785W        W10401  20.757  44.247  10.480
38786W        W10402  24.652  37.994  14.974
38787W        W10403   5.873  20.075   2.257
38788W        W10404  35.905  10.917  12.495
38789W        W10405   7.693  27.860  14.489
38790W        W10406  16.672  16.747  14.619
38791W        W10407  33.379  19.997  11.468
38792W        W10408  31.827   0.235  11.665
38793W        W10409  41.763   8.648   3.362
38794W        W10410  24.243  20.670  10.376
38795W        W10411  14.077  10.750  13.317
38796W        W10412  27.504  18.300   4.443
38797W        W10413  30.991  25.742   2.285
38798W        W10414  17.321   0.450  11.004
38799W        W10415   8.926  31.502  13.151
38800W        W10416  41.003   1.801   0.370
38801W        W10417  37.383   8.480  10.765
38802W        W10418  29.276  16.154   5.110
38803W        W10419  43.392  44.805  14.884
38804W        W10420  35.003  38.947  11.471
38805W        W10421   0.967  24.225  12.018
38806W        W10422   8.211  18.262  10.973
38807W        W10423  40.534  23.321  13.934
38808W        W10424   1.992  36.566  14.012
38809W        W10425  34.932  44.746   3.667
38810W        W10426  29.796  30.728   0.461
38811W        W10427  18.987  24.614   1.802
38812W        W10428  24.747  12.605  12.189
38813W        W10429   9.902   4.460  10.664
38814W        W10430  35.152   3.408   0.326
38815W        W10431   3.953   9.890   1.716
38816W        W10432  42.520  22.138  11.990
38817W        W10433  26.222  29.891  14.865
38818W        W10434  42.996  40.640   0.427
38819W        W10435  29.431  41.549   3.228
38820W        W10436  21.620  15.568  14.005
38821W        W10437  36.127  32.743  12.365
38822W        W10438  15.947  41.115  11.617
38823W        W10439   2.893  10.844   3.691
38824W        W10440  35.916  20.676  12.031
38825W        W10441  38.329  26.693   2.149
38826W        W10442   4.980  36.947   1.336
38827W        W10443   5.575  12.564  11.910
38828W        W10444  32.680   1.686  11.486
38829W        W10445  36.791  15.661   1.895
38830W        W10446  21.630  14.796   1.304
38831W        W10447  13.523   4.730  13.303
38832W        W10448  30.905  23.799   4.630
38833W        W10449  40.444  16.733  13.865
38834W        W10450   9.670  38.277  13.414
38835W        W10451  39.890   2.403  13.740
38836W        W10452  42.010  34.584  10.494
38837W        W10453   1.821  38.717  13.324
38838W        W10454   4.138  23.369   2.392
38839W        W10455  31.205  10.459  10.322
38840W        W10456  33.581  30.912  14.335
38841W        W10457   3.025   3.511  10.751
38842W        W10458   5.173  23.065  12.605
38843W        W10459  41.896   4.187   2.045
38844W        W10460  44.788  41.824  13.451
38845W        W10461  15.670  26.184  13.576
38846W        W10462  30.411   7.224  14.523
38847W        W10463  30.038  27.870  11.093
38848W        W10464  40.412  26.993   4.519
38849W        W10465   3.846  31.102   1.419
38850W        W10466  30.014   5.842   3.601
38851W        W10467  44.251   7.319  14.460
38852W        W10468   8.983  18.201   4.559
38853W        W10469  29.078  39.269   0.824
38854W        W10470  38.056  19.439   5.058
38855W        W10471   9.097  24.174   4.326
38856W        W10472  22.999  12.166   2.203
38857W        W10473  33.737   2.752   3.540
38858W        W10474   2.325  25.938   3.233
38859W        W10475  42.479  39.750   1.727
38860W        W10476  31.819  23.259   3.720
38861W        W10477  44.897  21.918   3.220
38862W        W10478  11.346  36.390   2.252
38863W        W10479  31.859   8.978   3.489
38864W        W10480  18.308   5.394  12.959
38865W        W10481  25.187  33.111  14.774
38866W        W10482  19.656  43.218   0.790
38867W        W10483  19.737  16.121  13.204
38868W        W10484   0.418  37.693  12.884
38869W        W10485   2.891  31.461   0.469
38870W        W10486  37.364   9.028   0.117
38871W        W10487   1.206  19.796   4.970
38872W        W10488  44.780  25.414   4.025
38873W        W10489  17.344  39.564  12.541
38874W        W10490  13.209   5.700   3.297
38875W        W10491  33.489  18.123  13.619
38876W        W10492   8.529   4.579  10.753
38877W        W10493   6.331  44.948   2.859
38878W        W10494  28.130  43.590  13.476
38879W        W10495  29.574  27.454   3.306
38880W        W10496  22.771  31.556  12.344
38881W        W10497  38.896  17.512  11.143
38882W        W10498  20.773   3.771   1.774
38883W        W10499  23.319   4.666   3.446
38884W        W10500  22.784  27.923   2.395
38885W        W10501  34.984  34.154  13.373
38886W        W10502  21.956  44.780  13.383
38887W        W10503   8.239  16.166  12.880
38888W        W10504   3.133  16.256  11.719
38889W        W10505   5.800  41.215  13.557
38890W        W10506  19.733  43.310   1.291
38891W        W10507  22.979  27.176  12.332
38892W        W10508   5.828  18.739   2.923
38893W        W10509  42.487  33.185   2.946
38894W        W10510   8.677  41.297   0.472
38895W        W10511   4.869   5.396  10.308
38896W        W10512   8.811  33.036  12.124
38897W        W10513   8.213   0.959   1.578
38898W        W10514  23.992  15.676   2.736
38899W        W10515   4.737   7.624  13.962
38900W        W10516  10.677   9.195  14.975
38901W        W10517  10.152  34.657   0.240
38902W        W10518  29.454  43.771  13.646
38903W        W10519   7.558  34.471   2.336
38904W        W10520  32.507  19.353   2.116
38905W        W10521  25.572   3.785   2.219
38906W        W10522  33.857  42.941   4.392
38907W        W10523  34.369   5.719  14.566
38908W        W10524  25.584  40.842  13.942
38909W        W10525   5.585  37.301  14.355
38910W        W10526  20.892   5.374  13.554
38911W        W10527  18.719   7.376  13.863
38912W        W10528  33.412  12.760  12.736
38913W        W10529  41.350   8.468   2.228
38914W        W10530   5.271  16.644  10.699
38915W        W10531  30.879  13.816  14.907
38916W        W10532  37.727   6.832  12.257
38917W        W10533  32.648  12.750   3.563
38918W        W10534  42.105   5.876   1.301
38919W        W10535  27.529  42.817   1.367
38920W        W10536  13.713  27.917   3.679
38921W        W10537  33.212   2.654   2.750
38922W        W10538   9.124  34.205   3.662
38923W        W10539  24.032  33.646  10.194
38924W        W10540  39.978   4.247   4.082
38925W        W10541   1.530  36.751   0.364
38926W        W10542  13.840  33.031   4.495
38927W        W10543   4.867  23.093  14.822
38928W        W10544  12.385  34.255   2.225
38929W        W10545  16.454  26.976  14.012
38930W        W10546  25.979  21.264  12.872
38931W        W10547  42.863  20.699  11.664
38932W        W10548  14.021  39.935   4.929
38933W        W10549   9.015  30.726  10.176
38934W        W10550  38.717  18.174   1.009
38935W        W10551  29.892   3.392  10.686
38936W        W10552   2.780  30.381   1.260
38937W        W10553  23.986  28.878  14.355
38938W        W10554  35.454  31.558   1.947
38939W        W10555  33.885  23.610  13.831
38940W        W10556  25.550  28.272   1.189
38941W        W10557  41.334   2.641   2.348
38942W        W10558  29.264  11.805   5.339
38943W        W10559  10.871   4.306   3.450
38944W        W10560  21.652  14.994  12.770
38945W        W10561  24.134  43.592   3.858
38946W        W10562  12.198  30.099   1.277
38947W        W10563   4.942  15.274   0.978
38948W        W10564  37.583  24.651   0.944
38949W        W10565   4.749  26.115  10.642
38950W        W10566  44.203   3.745   4.790
38951W        W10567  32.644  24.002   1.237
38952W        W10568   1.263  42.772   5.065
38953W        W10569  37.325   4.906  11.612
38954W        W10570  30.463  29.567  14.063
38955W        W10571  22.734  12.187   0.359
38956W        W10572  19.452  38.410   1.108
38957W        W10573   5.233  37.803   0.159
38958W        W10574  13.757  40.780   0.429
38959W        W10575  15.124  29.536   2.661
38960W        W10576  39.902  16.993   0.085
38961W        W10577  12.930  29.453   1.242
38962W        W10578   2.782  38.742   3.693
38963W        W10579  18.629   3.902   3.791
38964W        W10580   8.881  34.025   3.162
38965W        W10581  28.156  22.898   4.593
38966W        W10582   8.395  30.880   0.149
38967W        W10583  37.569  40.256   2.708
38968W        W10584  37.925  28.708  13.578
38969W        W10585  14.525  16.141  13.255
38970W        W10586   1.466  14.068  13.898
38971W        W10587   2.813   7.306  14.926
38972W        W10588  40.469  19.462  12.118
38973W        W10589  39.526  13.428   0.950
38974W        W10590  34.471  35.945   0.855
38975W        W10591  16.136  28.244   1.868
38976W        W10592  36.315  29.947  12.614
38977W        W10593  17.773  21.953  13.525
38978W        W10594   4.148  43.850  10.548
38979W        W10595  20.752   1.406   4.869
38980W        W10596  21.739   0.477   0.203
38981W        W10597  15.015  23.964  13.547
38982W        W10598  19.248  29.604  13.029
38983W        W10599  25.706   0.822   2.394
38984W        W10600  11.640   9.074  13.649
38985W        W10601   3.724  34.097  12.976
38986W        W10602   8.982  16.863  11.501
38987W        W10603  40.010  33.308   4.513
38988W        W10604  14.763   4.551  12.088
38989W        W10605  28.785   1.866  12.490
38990W        W10606  33.591  29.516  11.240
38991W        W10607  13.685   0.835  11.677
38992W        W10608  37.402  24.379  13.750
38993W        W10609   8.697  26.577  12.540
38994W        W10610  34.495  24.637  11.032
38995W        W10611  43.931  20.042  10.907
38996W        W10612  43.024  34.023  11.887
38997W        W10613  10.068  24.142   4.001
38998W        W10614  16.763  42.112  13.020
38999W        W10615  18.194   1.494  12.519
39000W        W10616  14.003  38.865  11.628
39001W        W10617  33.970  24.602   4.680
39002W        W10618  41.622  27.606  11.475
39003W        W10619   2.181  30.991  11.749
39004W        W10620  15.729   5.294   2.145
39005W        W10621   0.374  27.641  11.610
39006W        W10622  27.380  12.610  12.074
39007W        W10623   9.084  35.168  11.618
39008W        W10624   9.260   2.475  14.827
39009W        W10625   8.522  13.234   0.259
39010W        W10626  14.222  44.018  13.966
39011W        W10627  15.648  13.516   2.862
39012W        W10628   1.807   6.831   1.799
39013W        W10629   7.848  22.472   4.179
39014W        W10630   3.742  28.551   3.417
39015W        W10631   4.482  33.529   4.033
39016W        W10632  30.001  13.684   4.930
39017W        W10633  19.880  11.305   9.996
39018W        W10634  23.830  16.244  12.829
39019W        W10635  37.563  24.617   4.634
39020W        W10636  37.974  33.646   4.604
39021W        W10637  16.347  17.246   0.306
39022W        W10638  32.959  41.345   3.458
39023W        W10639  40.924   1.934  14.002
39024W        W10640  10.409   8.832   4.544
39025W        W10641   9.143  23.037  12.110
39026W        W10642  39.556  18.123  11.537
39027W        W10643  10.613  14.689  11.291
39028W        W10644  28.873  33.278  12.007
39029W        W10645   3.267  42.011  13.930
39030W        W10646  16.850  39.362  11.386
39031W        W10647  32.683  23.192  12.961
39032W        W10648  43.960   4.178   2.116
39033W        W10649  41.201   0.974   1.607
39034W        W10650  21.056   5.903  13.993
39035W        W10651   5.479   4.872   3.284
39036W        W10652  20.530  10.321   4.148
39037W        W10653   7.560  22.220   2.376
39038W        W10654  16.247  35.807  14.732
39039W        W10655  29.806  16.026   0.935
39040W        W10656  36.003   8.128   4.019
39041W        W10657  41.122   3.479   0.409
39042W        W10658   1.524  36.448  12.206
39043W        W10659  12.824   4.925  12.348
39044W        W10660  37.815  20.618   2.306
39045W        W10661   6.370  15.496  11.141
39046W        W10662   5.571  36.329  11.562
39047W        W10663  14.967  36.185  10.463
39048W        W10664  34.661  33.405  11.149
39049W        W10665  28.953  24.714   2.405
39050W        W10666   0.632  42.821   2.344
39051W        W10667  43.689  28.651   1.291
39052W        W10668  28.175  24.692  12.084
39053W        W10669  35.838  18.122  13.426
39054W        W10670   7.942  24.153  11.145
39055W        W10671   9.370  16.511  11.580
39056W        W10672  23.250   2.717  11.096
39057W        W10673  43.953  43.442   0.410
39058W        W10674   0.380  11.808  12.219
39059W        W10675  22.497  43.959   4.804
39060W        W10676  43.978  43.770  10.357
39061W        W10677  15.888  27.539  14.286
39062W        W10678  20.057  24.432   2.940
39063W        W10679  15.572  15.748  12.604
39064W        W10680  24.654  21.276  13.005
39065W        W10681  29.586  15.685  14.844
39066W        W10682  23.632  24.451  10.655
39067W        W10683  39.564  34.533  11.459
39068W        W10684  42.868  25.662   1.403
39069W        W10685  27.296  17.850  12.281
39070W        W10686  32.834   5.327   0.051
39071W        W10687  28.903  41.963  11.682
39072W        W10688  41.436  13.645   1.886
39073W        W10689   2.936   8.346  12.450
39074W        W10690  15.782  37.844   2.735
39075W        W10691  24.994  29.427  12.604
39076W        W10692  41.762   5.641  11.871
39077W        W10693   7.347  30.313   1.147
39078W        W10694   0.538  23.777  11.474
39079W        W10695  27.979  34.873  10.556
39080W        W10696  20.392   8.345   4.593
39081W        W10697   5.395  34.417  14.835
39082W        W10698   7.410   5.375  11.459
39083W        W10699  35.792   2.778   2.351
39084W        W10700  39.461  41.553  12.106
39085W        W10701  10.769   8.359  10.741
39086W        W10702  35.891  34.343   2.264
39087W        W10703  12.046  19.819   0.372
39088W        W10704  42.722  39.695  11.240
39089W        W10705  39.633  33.475   2.373
39090W        W10706  14.709  36.444   1.739
39091W        W10707  14.798  25.338   3.683
39092W        W10708  43.962  33.146   2.367
39093W        W10709   5.243   1.777  13.592
39094W        W10710  16.917  42.282   3.794
39095W        W10711  18.644  10.228   4.500
39096W        W10712  21.231  10.173  13.915
39097W        W10713   4.744  16.427   4.677
39098W        W10714  29.040   0.505  12.898
39099W        W10715  26.157  21.718   0.433
39100W        W10716   5.973   3.577   0.970
39101W        W10717  23.212  18.650   2.272
39102W        W10718  20.198   0.727  12.480
39103W        W10719   1.669  29.116   1.437
39104W        W10720  25.103  38.415   2.286
39105W        W10721  33.130  21.655  11.057
39106W        W10722  44.918  32.543   0.883
39107W        W10723   2.762  20.265  10.740
39108W        W10724   9.902  27.283  11.559
39109W        W10725  41.398  35.305   0.153
39110W        W10726  10.259  21.457  13.540
39111W        W10727   1.258  11.646   0.303
39112W        W10728  38.755   5.397   1.675
39113W        W10729  39.504  12.667   2.846
39114W        W10730  40.967  10.882  11.524
39115W        W10731  28.695   4.219   0.376
39116W        W10732   0.018  33.443   1.002
39117W        W10733  11.771  10.634   1.923
39118W        W10734   7.806  40.525   2.868
39119W        W10735  11.779  36.892   1.457
39120W        W10736  32.514  12.598   2.711
39121W        W10737  43.814  29.179   3.984
39122W        W10738  31.806  42.422  13.002
39123W        W10739  36.889  43.330   0.770
39124W        W10740  26.215   4.783  14.884
39125W        W10741   0.481  22.209   5.282
39126W        W10742  14.147  41.000   0.163
39127W        W10743  34.909  29.958  14.481
39128W        W10744  24.037  23.535  14.972
39129W        W10745  15.817  15.794   9.834
39130W        W10746  32.898  43.751  10.054
39131W        W10747  38.831  31.454   4.906
39132W        W10748   3.247  13.249   2.591
39133W        W10749  11.198  15.705   1.897
39134W        W10750  24.941   0.601   3.703
39135W        W10751   7.488  21.724  12.206
39136W        W10752  33.144  43.094   2.154
39137W        W10753  34.492  34.976   1.164
39138W        W10754  12.254   8.592   3.378
39139W        W10755  14.562  44.905   1.315
39140W        W10756  11.422  14.127   1.317
39141W        W10757  10.198  34.018  11.619
39142W        W10758   5.739   6.150  11.817
39143W        W10759  37.513  40.288   2.174
39144W        W10760  24.242  16.085  14.411
39145W        W10761   1.725  42.103  13.251
39146W        W10762  33.538   6.130  13.357
39147W        W10763   8.335  22.764  14.823
39148W        W10764  12.705  24.023   4.337
39149W        W10765  13.568  18.606  11.278
39150W        W10766  31.532  21.534   1.477
39151W        W10767   8.150  44.852   3.735
39152W        W10768  25.421  44.843  12.818
39153W        W10769  27.781  20.734   0.245
39154W        W10770  22.758   2.241  11.761
39155W        W10771   8.151  14.822  14.073
39156W        W10772   4.924  22.234  14.223
39157W        W10773  25.655  24.109   0.576
39158W        W10774  12.623   5.998   9.772
39159W        W10775  23.431  20.477  12.882
39160W        W10776  39.050  29.198   0.378
39161W        W10777  25.406  34.960   2.443
39162W        W10778  42.286   5.646   3.608
39163W        W10779   4.868  22.560   0.132
39164W        W10780  30.511   1.441  13.340
39165W        W10781  26.899   7.676  14.361
39166W        W10782  29.167  30.083  12.430
39167W        W10783  39.807   1.414   2.522
39168W        W10784  30.675  21.595  14.085
39169W        W10785   0.196   6.743   0.956
39170W        W10786  42.975  19.570   3.673
39171W        W10787   6.952  22.019  14.793
39172W        W10788  22.442  21.779  14.762
39173W        W10789  20.827  35.848   2.678
39174W        W10790   0.837  26.485  11.028
39175W        W10791  44.367  24.010   3.468
39176W        W10792  20.732  32.885  11.107
39177W        W10793  24.691   8.628  13.484
39178W        W10794  44.979  20.222   1.481
39179W        W10795  34.425  41.895  12.844
39180W        W10796  40.958  30.705  12.165
39181W        W10797   8.083  34.031   0.999
39182W        W10798   9.351  13.679   3.149
39183W        W10799  28.932  34.059   0.407
39184W        W10800  20.714  40.386   0.321
39185W        W10801  33.904  21.034  12.079
39186W        W10802  35.303   2.740   4.450
39187W        W10803  21.090  16.089   4.148
39188W        W10804  34.130  15.847  14.980
39189W        W10805   5.812  28.316   0.052
39190W        W10806  42.891  15.706   1.403
39191W        W10807   6.230   7.240   1.012
39192W        W10808  19.746   3.955  11.576
39193W        W10809  31.526  11.237  11.306
39194W        W10810  31.527  20.004  12.484
39195W        W10811  33.114  40.613   0.714
39196W        W10812  25.735  28.504  10.984
39197W        W10813  33.102  31.719   2.886
39198W        W10814  28.941   5.374   1.187
39199W        W10815   5.875  19.825  12.999
39200W        W10816  13.782   5.820   0.363
39201W        W10817  31.145  10.379  12.999
39202W        W10818  18.824  12.054  11.138
39203W        W10819  32.129  33.407  14.837
39204W        W10820  30.986  27.205   0.042
39205W        W10821   2.486  20.115   2.880
39206W        W10822  15.275  26.109  13.909
39207W        W10823  43.733  34.346   3.684
39208W        W10824   8.219  28.958  10.890
39209W        W10825  24.466  11.037   2.329
39210W        W10826  37.385  43.611  12.082
39211W        W10827  40.017  26.932  11.037
39212W        W10828  18.457   2.666   1.522
39213W        W10829  43.876  16.802  13.368
39214W        W10830  30.163  19.406  11.283
39215W        W10831   9.384  39.140  13.284
39216W        W10832   4.936  43.814  14.256
39217W        W10833   1.054  36.512  10.652
39218W        W10834  18.292   4.229   2.158
39219W        W10835  39.010  21.080  12.443
39220W        W10836  43.986   7.999   1.934
39221W        W10837  38.012  20.328  13.401
39222W        W10838  30.799  18.818   4.550
39223W        W10839  27.685  32.171   3.783
39224W        W10840  15.747  38.018   4.151
39225W        W10841  40.771   5.528   4.120
39226W        W10842  18.555  27.537  11.509
39227W        W10843  18.818  16.904  11.152
39228W        W10844  26.263  32.080  13.784
39229W        W10845  30.683  23.142  11.974
39230W        W10846  25.580  17.317   3.336
39231W        W10847  19.579  28.932  13.552
39232W        W10848  34.631   3.673   0.800
39233W        W10849   5.581  19.992   2.901
39234W        W10850  17.125  32.596   0.339
39235W        W10851  37.636   5.538   3.133
39236W        W10852   7.394   9.192   2.838
39237W        W10853  40.398  21.942   2.656
39238W        W10854  23.700  27.465  10.524
39239W        W10855  19.514  44.580   2.706
39240W        W10856  29.559   3.940   1.407
39241W        W10857  20.595   9.702  10.729
39242W        W10858  11.190  29.323  12.813
39243W        W10859  23.021  14.912   0.253
39244W        W10860  14.498   4.136   3.504
39245W        W10861  28.310  19.759   4.640
39246W        W10862  44.850  43.490   2.016
39247W        W10863  26.478   5.903  12.542
39248W        W10864  33.143  36.943   3.803
39249W        W10865  25.582  10.359   1.291
39250W        W10866  36.629   7.385  12.632
39251W        W10867  26.951  22.528   0.659
39252W        W10868   0.349  24.939   0.301
39253W        W10869  41.819   7.338   1.763
39254W        W10870  27.978  41.305  12.424
39255W        W10871  15.216  28.420   1.404
39256W        W10872   4.901  20.407  12.875
39257W        W10873  22.617  26.869  14.995
39258W        W10874  28.819  30.634  11.396
39259W        W10875  26.517  33.654  11.977
39260W        W10876  31.620   6.908  11.113
39261W        W10877  14.679  16.253  14.191
39262W        W10878  20.624  31.860  14.733
39263W        W10879  28.196  36.046  10.913
39264W        W10880  18.143  21.633   0.828
39265W        W10881  21.956  17.773   3.897
39266W        W10882  43.071  14.818  12.516
39267W        W10883   8.117  14.702  11.497
39268W        W10884  13.936  42.405  11.612
39269W        W10885  19.680  20.511  14.044
39270W        W10886  14.076   4.646  14.532
39271W        W10887  21.705  22.530   0.968
39272W        W10888  43.896   4.722   4.335
39273W        W10889   4.949  12.028  13.881
39274W        W10890  24.409  37.602   3.362
39275W        W10891  14.675  29.656   0.326
39276W        W10892  30.147   1.757  14.202
39277W        W10893  24.873  37.206   4.004
39278W        W10894  26.536  35.130   1.435
39279W        W10895  39.181   7.107   2.713
39280W        W10896  20.374  14.023  13.277
39281W        W10897  10.757  40.360  12.550
39282W        W10898   8.051  22.112  14.259
39283W        W10899   7.821  44.326   0.902
39284W        W10900  42.991  41.686  12.315
39285W        W10901  19.679   6.401  14.738
39286W        W10902  19.653  10.613   1.641
39287W        W10903  24.870  39.086   0.032
39288W        W10904  10.802  17.069   3.276
39289W        W10905  26.062  10.882  13.365
39290W        W10906   9.351  16.383  12.475
39291W        W10907  27.651  21.084   4.643
39292W        W10908   0.943  19.586   3.008
39293W        W10909  20.380   3.884   3.658
39294W        W10910  24.628  30.527  12.778
39295W        W10911  21.794  41.505  11.449
39296W        W10912   7.508  36.891  10.440
39297W        W10913  40.406  28.163   0.634
39298W        W10914  13.697  30.001  12.861
39299W        W10915  24.088  11.809   0.418
39300W        W10916  23.471  30.165   1.276
39301W        W10917  23.540  33.394  11.914
39302W        W10918  15.078  39.902  10.660
39303W        W10919  21.376  26.121  12.951
39304W        W10920  40.084   0.617  13.574
39305W        W10921  39.675  25.257   4.075
39306W        W10922  38.106  26.206   2.107
39307W        W10923  27.381  38.984   2.383
39308W        W10924  41.414   6.682  14.836
39309W        W10925   4.035  14.331   2.695
39310W        W10926  43.954  28.710   5.057
39311W        W10927  33.396  31.095  13.895
39312W        W10928   7.197  23.502   4.859
39313W        W10929  35.302  23.087   0.395
39314W        W10930  28.498  17.195   4.594
39315W        W10931  16.080  37.130   1.416
39316W        W10932  18.207  22.043  10.629
39317W        W10933  20.665  25.525  10.427
39318W        W10934  27.702   1.571   1.785
39319W        W10935  24.114  31.330   0.936
39320W        W10936   3.955  31.431  14.329
39321W        W10937  43.332  44.412   1.224
39322W        W10938  13.070  19.593   4.181
39323W        W10939   7.177  39.668   0.409
39324W        W10940  41.836  32.290  14.909
39325W        W10941  23.020  13.373  13.117
39326W        W10942  23.561  29.074   4.173
39327W        W10943  14.121  29.295   3.695
39328W        W10944  25.426  38.414  13.974
39329W        W10945   8.410  33.859  11.107
39330W        W10946  10.395  17.123   4.655
39331W        W10947  18.872  36.005   1.901
39332W        W10948  25.705  43.474  14.766
39333W        W10949  19.352  39.529  12.344
39334W        W10950  26.670   7.193   4.647
39335W        W10951  44.977  12.745  14.809
39336W        W10952  40.402  29.007  11.279
39337W        W10953  40.492   2.785   0.470
39338W        W10954  40.914  24.370  13.132
39339W        W10955  42.019  41.343   3.273
39340W        W10956  13.342  34.107   3.553
39341W        W10957  39.118  19.548  14.048
39342W        W10958  19.829  44.300  11.138
39343W        W10959   8.420  19.232   0.814
39344W        W10960   2.598  13.640   0.315
39345W        W10961  44.523  10.689   4.668
39346W        W10962  25.712  21.474   0.341
39347W        W10963  41.793  39.279  12.918
39348W        W10964  13.630  33.469  11.426
39349W        W10965  30.020  16.517   0.928
39350W        W10966  37.885  42.479  10.986
39351W        W10967  31.515   8.818   1.091
39352W        W10968  32.065  10.096  13.262
39353W        W10969  16.717  13.681   2.108
39354W        W10970  26.123  16.369  11.171
39355W        W10971  42.417   8.852   1.093
39356W        W10972  12.711  40.899  13.011
39357W        W10973  32.469   2.485   4.269
39358W        W10974   5.647  29.505  12.664
39359W        W10975  40.323  27.399  13.878
39360W        W10976   1.641  23.268  13.521
39361W        W10977   2.255  39.721   1.600
39362W        W10978  29.457  10.417   0.451
39363W        W10979  42.290  13.046   2.175
39364W        W10980  39.175   6.420   4.095
39365W        W10981   9.654  32.248   5.045
39366W        W10982  21.108  18.080  11.881
39367W        W10983  31.002  40.771   3.009
39368W        W10984  43.104  29.382   5.077
39369W        W10985  11.797  17.179   1.271
39370W        W10986  29.456  34.518  10.573
39371W        W10987  44.421  18.093  12.831
39372W        W10988  32.939   6.614  11.261
39373W        W10989   1.391   5.422  13.447
39374W        W10990  19.523  38.971   4.600
39375W        W10991  36.468   2.712   1.684
39376W        W10992  25.017  31.695   2.822
39377W        W10993  23.920  41.819   0.191
39378W        W10994   3.167  44.387  12.769
39379W        W10995  23.651  14.885  11.155
39380W        W10996   0.680  15.620   4.159
39381W        W10997  18.050  29.176   2.759
39382W        W10998  25.000  20.130   1.433
39383W        W10999  39.545  12.804   0.375
39384W        W11000  36.104  10.116   3.386
39385W        W11001   8.051   5.176   3.085
39386W        W11002  21.622  38.745  10.075
39387W        W11003  20.912  11.652  13.226
39388W        W11004  14.305  31.231   4.891
39389W        W11005  24.582  12.413  12.830
39390W        W11006  39.011  27.925   1.890
39391W        W11007  29.958   5.360   2.729
39392W        W11008  41.863   1.627   2.672
39393W        W11009  21.912   3.895  12.098
39394W        W11010  19.660  23.621  11.472
39395W        W11011  23.570  13.347   0.939
39396W        W11012  27.574   7.219  12.390
39397W        W11013   4.198  24.263   1.620
39398W        W11014  38.391  41.289  14.009
39399W        W11015  41.544   2.278   4.170
39400W        W11016  21.491  26.241   0.512
39401W        W11017  17.069  35.016   5.028
39402W        W11018  11.369  30.544  10.735
39403W        W11019  31.294  42.748  10.147
39404W        W11020  26.187  13.126  13.358
39405W        W11021   3.915  22.766  12.049
39406W        W11022  39.117  12.898  12.382
39407W        W11023   1.180  11.097   1.918
39408W        W11024  28.818  26.059  14.011
39409W        W11025  32.651  29.436   4.199
39410W        W11026  11.427  22.606  11.015
39411W        W11027  42.738  42.405  14.033
39412W        W11028   2.748   1.378   1.976
39413W        W11029   5.397   0.722  12.296
39414W        W11030   5.683   6.694  12.099
39415W        W11031   9.259  30.032  12.612
39416W        W11032  36.835  21.470  12.932
39417W        W11033  32.952   8.110   1.340
39418W        W11034  24.584  40.607  12.027
39419W        W11035  17.534  26.052  10.779
39420W        W11036  42.277   1.837   0.903
39421W        W11037  36.821   7.877  12.451
39422W        W11038  19.857   0.362   3.190
39423W        W11039  31.878   1.967   1.353
39424W        W11040  33.963  31.133   3.239
39425W        W11041  32.169  24.869  10.669
39426W        W11042   3.019   6.336  13.426
39427W        W11043  19.562  42.482  11.626
39428W        W11044   4.214  26.239   4.221
39429W        W11045  12.514  11.694   3.235
39430W        W11046  37.535  43.710  13.011
39431W        W11047  36.650  31.529  10.704
39432W        W11048  14.314   4.006  10.136
39433W        W11049  28.966  24.216   3.181
39434W        W11050  23.254  34.592   2.918
39435W        W11051  23.218  21.315   0.846
39436W        W11052  12.288  38.812  12.372
39437W        W11053   8.361   7.114  11.591
39438W        W11054  15.472  36.386  13.842
39439W        W11055  39.413   1.431   4.858
39440W        W11056   7.705  16.872   0.741
39441W        W11057  33.256  40.536  14.811
39442W        W11058   4.366   6.120  14.321
39443W        W11059  10.630  39.422   0.321
39444W        W11060  15.693  12.845  14.501
39445W        W11061  20.130  27.789  13.551
39446W        W11062   2.480  23.041  10.269
39447W        W11063  39.311   3.661  12.202
39448W        W11064  34.324  41.245   0.233
39449W        W11065   6.078  44.514   2.620
39450W        W11066  30.393  43.577  10.952
39451W        W11067  18.626  13.311  14.082
39452W        W11068  33.867  43.397  12.191
39453W        W11069  20.716  14.377   1.365
39454W        W11070  25.820  17.109   4.612
39455W        W11071  32.592  21.224   1.272
39456W        W11072   3.173  14.280   2.438
39457W        W11073   2.558  44.467   2.769
39458W        W11074  37.504  10.246   0.693
39459W        W11075  29.543  40.606  10.939
39460W        W11076  13.625  32.371   0.389
39461W        W11077  21.966  22.619  11.980
39462W        W11078  39.544   0.802  11.841
39463W        W11079  14.277  13.774   1.233
39464W        W11080  34.292  31.946   1.833
39465W        W11081  33.128   6.053   1.313
39466W        W11082  14.109   5.859  11.206
39467W        W11083  38.635  20.816   4.278
39468W        W11084  10.837  39.042  14.558
39469W        W11085  32.578  19.720   4.574
39470W        W11086  16.699   5.734  11.586
39471W        W11087  23.735  25.548   0.316
39472W        W11088  44.958   9.733   2.882
39473W        W11089  31.954   3.217  14.864
39474W        W11090   4.416  16.510   2.989
39475W        W11091  18.893  11.658  10.815
39476W        W11092   5.989  10.997  12.914
39477W        W11093  43.828  33.003  14.906
39478W        W11094  15.825  21.704  12.987
39479W        W11095  36.791   1.299  10.882
39480W        W11096  29.480   9.507   2.445
39481W        W11097  23.604  22.022   1.777
39482W        W11098  39.214  43.872  13.259
39483W        W11099   3.988  42.295  12.813
39484W        W11100  17.796   7.981  13.000
39485W        W11101  13.294   9.829  12.849
39486W        W11102  22.251  44.482   4.541
39487W        W11103  18.033   7.283   0.235
39488W        W11104  34.591  35.629   3.442
39489W        W11105  19.686   2.801  14.365
39490W        W11106  44.860   0.836   0.663
39491W        W11107  29.970  38.504  12.424
39492W        W11108  13.811  16.552   3.401
39493W        W11109   5.644  26.950  12.480
39494W        W11110  20.141  22.780  12.332
39495W        W11111   9.200  23.024   3.642
39496W        W11112   3.868  40.323  11.867
39497W        W11113   3.009  33.227  14.971
39498W        W11114   4.512  19.596  12.875
39499W        W11115  16.887  20.037   5.117
39500W        W11116  20.691   8.918  14.359
39501W        W11117  20.308  37.525  13.853
39502W        W11118   8.814  18.668  12.172
39503W        W11119   8.286  28.684   1.473
39504W        W11120  25.319  43.358  13.412
39505W        W11121   1.763  26.861   3.642
39506W        W11122  21.628   0.616  11.002
39507W        W11123   5.189  41.590  10.999
39508W        W11124  22.181   0.240   3.051
39509W        W11125  21.289  15.361  12.960
39510W        W11126  19.364  14.437   4.042
39511W        W11127   2.754   9.163   3.985
39512W        W11128  34.070  18.149   0.358
39513W        W11129  20.000  21.079   3.184
39514W        W11130   8.086  31.741  14.383
39515W        W11131   4.095   6.197   2.782
39516W        W11132  19.510  29.374  11.261
39517W        W11133  30.481  28.121   0.735
39518W        W11134  36.462   8.840   5.334
39519W        W11135  42.585   0.442   0.973
39520W        W11136   6.481  30.546   0.605
39521W        W11137  28.335   5.428  10.706
39522W        W11138  12.264  13.539  10.694
39523W        W11139  34.062  15.964   3.104
39524W        W11140   8.249   6.729  14.823
39525W        W11141   7.855   6.226  11.206
39526W        W11142  41.824  44.382  11.526
39527W        W11143  42.323  39.350   4.241
39528W        W11144  16.800   6.207   0.969
39529W        W11145  39.329  11.327  11.538
39530W        W11146   5.167  36.406  10.114
39531W        W11147  21.500  18.171   4.947
39532W        W11148  44.550  41.071  12.792
39533W        W11149  18.726  41.484   1.717
39534W        W11150  39.355  13.340  10.381
39535W        W11151  12.871   8.717  12.040
39536W        W11152  41.313  30.509   4.561
39537W        W11153  13.229  25.881   4.857
39538W        W11154  40.993  17.344  12.413
39539W        W11155  28.959  24.668   4.390
39540W        W11156  12.604  38.388  14.599
39541W        W11157  35.340  35.284  12.406
39542W        W11158  29.663  12.053  12.091
39543W        W11159   1.519   0.372   3.643
39544W        W11160   9.021  43.764  14.687
39545W        W11161  34.869  33.589  10.713
39546W        W11162  37.050  15.159  14.727
39547W        W11163   3.673  14.491   2.321
39548W        W11164   8.384   9.918  11.880
39549W        W11165  10.088  23.914  14.853
39550W        W11166  27.989  35.936  13.004
39551W        W11167  22.289  32.395   0.495
39552W        W11168   0.902   0.978  13.479
39553W        W11169  13.742  15.877   4.601
39554W        W11170   6.264   7.378  10.767
39555W        W11171  18.735  24.970  11.471
39556W        W11172  39.590  24.800   0.935
39557W        W11173  16.917  28.458  11.333
39558W        W11174   0.443  38.378  11.511
39559W        W11175  40.641  41.960  11.556
39560W        W11176  22.342   1.917  13.907
39561W        W11177  37.124  34.799   4.714
39562W        W11178  21.641  16.847   3.180
39563W        W11179  41.613  22.010  13.068
39564W        W11180  20.191  43.361   2.361
39565W        W11181   0.425  15.763  12.802
39566W        W11182  11.700  17.814   0.814
39567W        W11183  23.241  38.866  13.475
39568W        W11184  11.138  39.119   3.211
39569W        W11185  19.706  26.624   4.288
39570W        W11186  16.094   6.704  13.052
39571W        W11187  34.153  14.496  11.952
39572W        W11188  37.808  38.610  14.466
39573W        W11189  37.343  40.820  11.039
39574W        W11190   4.299  13.055  11.447
39575W        W11191  11.860  20.510  13.063
39576W        W11192  42.527  14.614  14.731
39577W        W11193  24.312  34.884   2.863
39578W        W11194   4.320  29.552  10.929
39579W        W11195  22.303  16.475   4.439
39580W        W11196  29.743  10.682  11.254
39581W        W11197  23.714   7.428  14.560
39582W        W11198  35.621  43.538  11.537
39583W        W11199  20.723  36.554   3.347
39584W        W11200  37.587  20.855  10.805
39585W        W11201  27.737  28.567  13.273
39586W        W11202   3.609   6.608   2.066
39587W        W11203   2.689   9.840  11.610
39588W        W11204  31.397   7.407  12.191
39589W        W11205  19.806  33.038   3.340
39590W        W11206   5.865  30.443   1.809
39591W        W11207   3.763  33.934  11.633
39592W        W11208   4.338  25.344   3.954
39593W        W11209   7.437  12.112   3.075
39594W        W11210  26.987  29.449   4.803
39595W        W11211  11.887  36.136   0.513
39596W        W11212  39.819   8.360   3.591
39597W        W11213  27.049  44.534   0.142
39598W        W11214   7.159  14.820   1.375
39599W        W11215  12.806  27.549  11.254
39600W        W11216  32.412  17.628   2.401
39601W        W11217  21.417  34.805   4.130
39602W        W11218   2.919  44.730   1.073
39603W        W11219  28.014   4.885  14.313
39604W        W11220  17.435   8.618  11.945
39605W        W11221  11.609  38.497   1.886
39606W        W11222  25.225  33.394  13.810
39607W        W11223  42.414   7.853   2.307
39608W        W11224  26.158  29.236  13.919
39609W        W11225   0.627  26.532  14.128
39610W        W11226  32.017   9.590  14.966
39611W        W11227  24.693  28.928  11.757
39612W        W11228   9.070  12.997   1.417
39613W        W11229   6.659  32.882  11.039
39614W        W11230   8.088  39.878  12.654
39615W        W11231   4.776   2.391   4.460
39616W        W11232  25.457   7.159  13.337
39617W        W11233   3.950  32.465   1.008
39618W        W11234  38.465  26.526   0.003
39619W        W11235  43.225  28.077  14.983
39620W        W11236  39.326  14.851  12.916
39621W        W11237  37.513   3.168  13.520
39622W        W11238  30.146  24.047  12.749
39623W        W11239  27.310  23.704   2.654
39624W        W11240  34.083  31.046  13.446
39625W        W11241  21.587  23.842   0.450
39626W        W11242  16.829  15.721  13.480
39627W        W11243  14.213  16.846  10.251
39628W        W11244  30.862  23.238  13.443
39629W        W11245  31.922   5.932   1.215
39630W        W11246   8.302  40.294  14.837
39631W        W11247   8.715  23.904   1.130
39632W        W11248  42.549  43.867   4.086
39633W        W11249  16.552  31.969   3.365
39634W        W11250   8.799  12.268   3.696
39635W        W11251  27.054  37.857   0.363
39636W        W11252  43.397  33.620   0.316
39637W        W11253   9.357  22.538   3.664
39638W        W11254  19.376  29.623  13.884
39639W        W11255  11.808  43.442  10.709
39640W        W11256  20.049  44.602   3.595
39641W        W11257   4.501   9.608   2.432
39642W        W11258  33.170  31.349  14.862
39643W        W11259  32.033  22.686  10.803
39644W        W11260   4.807   6.354   2.289
39645W        W11261  43.951  28.951   0.339
39646W        W11262  41.818  32.991   4.662
39647W        W11263  41.264  16.847   4.209
39648W        W11264  30.343  29.550   4.112
39649W        W11265  10.177  10.875   1.788
39650W        W11266  23.656  40.387  12.191
39651W        W11267  12.740   8.700   4.380
39652W        W11268   5.443  21.645   2.420
39653W        W11269  40.398  33.163  13.846
39654W        W11270  29.212  35.382  13.066
39655W        W11271  25.172  17.627   0.486
39656W        W11272  31.377   3.368   1.952
39657W        W11273  33.222  13.941   1.389
39658W        W11274  10.922  30.106   4.486
39659W        W11275  15.600  15.791   3.110
39660W        W11276   3.084   6.789  10.202
39661W        W11277   7.106  31.117   0.257
39662W        W11278   7.168  21.549   0.958
39663W        W11279  24.088  44.394  10.739
39664W        W11280   3.402  23.584  14.369
39665W        W11281   1.219  31.483  13.451
39666W        W11282  36.243   2.837  12.097
39667W        W11283  17.661  37.998  10.918
39668W        W11284  14.841  38.716  14.250
39669W        W11285  15.673  39.078   4.086
39670W        W11286  25.015  13.360  12.023
39671W        W11287   3.843  24.070   3.748
39672W        W11288  38.442  30.865  13.061
39673W        W11289  40.265  15.673   0.356
39674W        W11290   1.226  16.622  12.432
39675W        W11291  28.983  25.654   1.376
39676W        W11292  43.252  25.595  14.821
39677W        W11293  30.482  10.364   9.818
39678W        W11294   5.535  39.632   3.262
39679W        W11295  37.506  21.023  11.301
39680W        W11296  10.353  27.520  13.961
39681W        W11297  28.348   6.694   4.885
39682W        W11298  27.651  14.045  12.442
39683W        W11299   1.836  16.077  12.985
39684W        W11300   5.404  42.114   4.744
39685W        W11301   0.888  11.177  11.740
39686W        W11302  43.208   8.466   5.128
39687W        W11303  27.633  14.190  14.007
39688W        W11304  16.519   3.982  10.997
39689W        W11305  42.417  19.356   4.339
39690W        W11306  24.546  41.487   2.179
39691W        W11307  22.042   5.224   3.117
39692W        W11308  37.884  28.649   4.524
39693W        W11309  33.570  18.805  10.814
39694W        W11310  19.129  16.098   3.193
39695W        W11311  17.612  21.741  12.626
39696W        W11312  23.464  35.146  10.699
39697W        W11313   6.925  43.297  13.830
39698W        W11314  32.167  13.335  10.672
39699W        W11315  21.691  22.713  14.593
39700W        W11316  37.790  20.093  12.995
39701W        W11317  40.360  11.470   3.012
39702W        W11318  26.024  29.475   3.610
39703W        W11319  11.216  33.480   2.837
39704W        W11320  41.979  18.598  14.002
39705W        W11321  21.737  12.854  14.506
39706W        W11322  15.208   2.631   2.864
39707W        W11323  44.199  20.284   1.944
39708W        W11324  33.107   5.245  13.483
39709W        W11325   1.037   3.105  11.596
39710W        W11326  15.450  13.259   4.873
39711W        W11327  33.485   8.173  13.863
39712W        W11328  27.479  14.120  10.981
39713W        W11329  38.749  15.630  10.690
39714W        W11330  40.627   5.462  14.522
39715W        W11331   7.687  37.604  12.511
39716W        W11332  21.600  29.586  12.650
39717W        W11333  16.469  14.540   5.017
39718W        W11334  22.841  16.304  11.165
39719W        W11335  37.311  31.970   1.791
39720W        W11336  32.403   7.217  11.620
39721W        W11337   4.794  23.598  10.747
39722W        W11338  32.123  35.403   4.561
39723W        W11339  40.756  14.773   1.367
39724W        W11340  42.752  17.806  14.372
39725W        W11341  26.632  26.058   9.971
39726W        W11342   2.355  32.647   3.267
39727W        W11343  21.022  33.923  13.457
39728W        W11344  33.676  18.759  12.057
39729W        W11345   2.215  42.462  14.438
39730W        W11346  10.917  11.677   0.226
39731W        W11347   9.390  19.115   4.207
39732W        W11348  43.665  32.118  12.965
39733W        W11349  28.901  29.502  12.511
39734W        W11350   4.272  26.920   1.839
39735W        W11351  27.487  20.991   2.159
39736W        W11352  23.717  30.230   2.692
39737W        W11353  38.571   6.886  11.492
39738W        W11354   7.459   5.009   3.260
39739W        W11355  17.502  25.563  11.090
39740W        W11356  39.320   9.150   2.289
39741W        W11357  38.848  21.746   3.815
39742W        W11358  40.581  16.216   4.630
39743W        W11359  35.347  38.243  11.662
39744W        W11360  33.315  32.231  12.051
39745W        W11361  28.904  39.364  10.708
39746W        W11362  15.658  16.051   2.456
39747W        W11363  39.455  14.130   3.716
39748W        W11364  41.900  33.720  13.777
39749W        W11365  20.321  14.394  12.778
39750W        W11366  19.276  29.152   0.225
39751W        W11367  20.496   5.159  13.858
39752W        W11368  26.013  42.862   3.273
39753W        W11369  34.066   8.797  14.770
39754W        W11370  25.477   1.420  13.239
39755W        W11371  10.287   5.851   3.899
39756W        W11372   0.938   0.566   4.247
39757W        W11373  17.629  24.200  13.933
39758W        W11374  16.020  28.771   1.930
39759W        W11375   3.556  37.084  11.652
39760W        W11376  14.500   7.419   0.083
39761W        W11377  16.128  25.579   1.717
39762W        W11378  42.820  27.631  14.857
39763W        W11379  23.220  16.324   2.067
39764W        W11380   1.299   4.752  14.832
39765W        W11381  32.371   0.385  14.894
39766W        W11382  14.779  37.536   4.393
39767W        W11383  27.215  40.419   3.189
39768W        W11384   6.897  33.215   0.135
39769W        W11385  15.804  40.280  12.588
39770W        W11386  40.285  25.074   0.198
39771W        W11387   6.723   8.475   0.845
39772W        W11388  16.656  36.541  14.317
39773W        W11389  37.933  15.787   0.874
39774W        W11390  21.215  16.482  14.041
39775W        W11391  42.892  19.957  13.566
39776W        W11392  35.107  44.209   2.001
39777W        W11393   3.936  42.336   0.258
39778W        W11394  16.861  43.896  14.989
39779W        W11395   5.706  35.855   1.236
39780W        W11396   9.831  42.912  13.888
39781W        W11397  27.886   9.407  13.771
39782W        W11398  30.525  21.618  12.065
39783W        W11399  17.565  24.506   2.744
39784W        W11400   6.712   7.159  11.040
39785W        W11401  40.435  29.683  14.057
39786W        W11402  34.602   2.744   1.106
39787W        W11403  37.908  16.036  11.061
39788W        W11404  38.987  36.406  13.389
39789W        W11405  24.008  15.238  11.129
39790W        W11406  12.162  37.252   5.137
39791W        W11407  20.562  14.680  11.229
39792W        W11408  16.552  26.545  14.328
39793W        W11409  43.233  43.731  13.893
39794W        W11410  44.926  27.037  13.387
39795W        W11411   7.699   6.902   4.161
39796W        W11412  28.635  35.094   2.734
39797W        W11413  38.413   4.761  13.378
39798W        W11414  31.895  15.671  11.796
39799W        W11415   2.225   9.541  11.642
39800W        W11416  31.936  20.715   2.333
39801W        W11417  31.381   9.700   0.635
39802W        W11418  18.186   0.458  13.373
39803W        W11419  11.672  41.984   2.944
39804W        W11420   3.091  16.814  11.175
39805W        W11421  32.123   1.410  12.473
39806W        W11422  32.559  20.033  11.411
39807W        W11423  15.850  39.817   3.697
39808W        W11424  28.426  38.473   3.249
39809W        W11425  15.390  32.058  10.972
39810W        W11426  25.496  33.366   2.390
39811W        W11427  11.094  32.055  10.675
39812W        W11428  28.127  29.089  10.166
39813W        W11429  20.747  20.608   3.175
39814W        W11430  32.504  31.539   3.879
39815W        W11431  26.936  14.560   2.446
39816W        W11432  16.726  11.873   2.189
39817W        W11433  33.707  16.757   4.960
39818W        W11434  41.407  33.974   2.817
39819W        W11435  12.809  17.311   3.305
39820W        W11436   9.339  18.841  12.558
39821W        W11437  26.132   7.724   1.106
39822W        W11438  38.324  32.995   1.307
39823W        W11439  28.115   9.128   3.812
39824W        W11440  14.782  34.801  10.889
39825W        W11441  34.563  13.658   4.905
39826W        W11442  20.256   7.721  13.921
39827W        W11443  44.450  39.941   3.097
39828W        W11444  34.264  29.002  11.219
39829W        W11445   4.309  26.007  13.038
39830W        W11446  18.271   9.287  13.881
39831W        W11447   8.682  27.445   3.594
39832W        W11448  19.249  23.245   2.354
39833W        W11449   8.904  21.037   1.832
39834W        W11450  23.525  13.450   4.078
39835W        W11451  24.696  32.707   1.877
39836W        W11452  22.045  26.516  13.621
39837W        W11453  29.659  42.227  12.716
39838W        W11454  16.336   1.910  12.976
39839W        W11455  26.475  40.033   3.112
39840W        W11456  36.371  11.244  13.968
39841W        W11457  11.631  16.067  11.942
39842W        W11458  11.923  22.118  12.228
39843W        W11459  20.126  21.712   3.859
39844W        W11460  12.438  35.866  10.698
39845W        W11461  14.263  43.870   3.609
39846W        W11462   3.894   9.437  11.115
39847W        W11463  30.664   4.729  14.884
39848W        W11464  18.557  13.833   2.335
39849W        W11465  18.173   9.326  14.784
39850W        W11466  35.919  37.819  13.376
39851W        W11467  14.781  38.084   2.893
39852W        W11468  23.440  32.651  14.908
39853W        W11469  24.406   7.002   0.937
39854W        W11470  13.782  41.262  12.904
39855W        W11471  21.285   5.635   3.330
39856W        W11472   1.188  14.239   1.348
39857W        W11473  31.148  14.039   4.101
39858W        W11474  39.228  13.643   3.175
39859W        W11475  31.066  21.883   0.303
39860W        W11476  19.214   8.119  12.377
39861W        W11477  34.243  41.243  12.036
39862W        W11478  40.425  10.284   1.640
39863W        W11479  44.089  23.937  11.576
39864W        W11480   9.887  35.633   0.896
39865W        W11481  30.770  19.605   3.172
39866W        W11482   2.164  15.389  13.379
39867W        W11483  18.602   7.635   3.459
39868W        W11484  40.427  36.598  13.331
39869W        W11485  27.662  34.919  12.458
39870W        W11486  27.480  30.880   4.818
39871W        W11487  22.124  37.777  14.260
39872W        W11488  38.526  25.677   1.284
39873W        W11489  44.036  21.072   0.916
39874W        W11490   6.330  20.050  13.879
39875W        W11491  34.275  33.485   3.753
39876W        W11492  30.155   0.973  11.004
39877W        W11493  20.498  12.226  13.917
39878W        W11494  15.728  44.550  11.886
39879W        W11495   3.694  38.434  13.747
39880W        W11496  35.683  16.342  11.578
39881W        W11497   8.699   5.661   1.927
39882W        W11498  25.560   7.450   3.978
39883W        W11499  15.880  20.494  13.919
39884W        W11500  39.951   6.547  12.657
39885W        W11501  43.601  34.598   5.477
39886W        W11502   7.915  11.165  11.963
39887W        W11503   8.891   5.526   2.773
39888W        W11504  25.429  21.702  13.571
39889W        W11505  11.336  12.821  13.041
39890W        W11506   1.758   9.291  12.556
39891W        W11507   1.719  15.221   4.562
39892W        W11508  15.154   3.849  13.119
39893W        W11509  44.416  13.541   3.197
39894W        W11510  25.228  12.788   0.488
39895W        W11511  20.576  10.888   2.245
39896W        W11512   3.721  33.494   2.368
39897W        W11513  17.621  44.031   0.231
39898W        W11514  19.583  34.005   4.853
39899W        W11515   4.630  40.766  13.472
39900W        W11516  15.591  42.880  14.846
39901W        W11517  36.424   0.336   1.006
39902W        W11518  42.307  23.026   0.936
39903W        W11519  44.058  18.546   1.241
39904W        W11520   5.867  38.099   2.361
39905W        W11521  14.174  23.046  11.655
39906W        W11522  34.398  35.570  12.303
39907W        W11523  11.486  32.405   4.779
39908W        W11524  11.640   9.243   1.884
39909W        W11525  10.726  23.821  11.886
39910W        W11526  15.056  44.422  14.919
39911W        W11527  24.205  29.400  13.348
39912W        W11528  41.015  20.966  12.090
39913W        W11529  18.500  15.567  11.104
39914W        W11530  30.609  34.060  10.715
39915W        W11531  32.925  19.069   3.393
39916W        W11532   6.223   6.444   1.913
39917W        W11533  20.503   5.303   4.153
39918W        W11534  26.187  20.039   3.374
39919W        W11535  17.123  38.973   4.673
39920W        W11536   5.773  32.817   3.652
39921W        W11537  15.433   6.874   2.848
39922W        W11538   5.158   1.430   3.066
39923W        W11539  21.121  15.547   4.157
39924W        W11540  25.956  43.896  13.330
39925W        W11541  32.889  16.568   0.292
39926W        W11542   1.034   7.284   3.960
39927W        W11543   3.425   8.940  13.963
39928W        W11544  34.270  41.031   1.616
39929W        W11545  35.497   7.775  13.989
39930W        W11546   5.232  28.154   2.701
39931W        W11547  31.936   3.300   3.067
39932W        W11548  40.940  32.090  13.491
39933W        W11549   9.743  22.477  14.311
39934W        W11550  13.743   7.599  12.770
39935W        W11551   3.658  21.278  13.884
39936W        W11552   3.966  12.929  12.559
39937W        W11553  17.095  39.840  10.930
39938W        W11554   6.955  38.368  12.964
39939W        W11555  14.908  34.360  12.449
39940W        W11556  43.229  35.005   5.390
39941W        W11557  12.830   2.936  13.894
39942W        W11558   8.169   3.719   0.414
39943W        W11559  44.787   1.919  12.348
39944W        W11560  39.234  43.436   1.859
39945W        W11561  16.583   6.470   4.212
39946W        W11562   2.588  31.194  11.495
39947W        W11563   9.366  27.911  11.124
39948W        W11564   7.963  33.526   0.948
39949W        W11565  17.798  30.050   1.924
39950W        W11566  23.466  25.145  12.039
39951W        W11567   3.912  10.794   4.547
39952W        W11568  10.113  27.832  13.003
39953W        W11569  22.992  24.997  12.914
39954W        W11570  11.362  12.601  13.840
39955W        W11571  20.202  20.076   1.290
39956W        W11572   0.204  15.104   1.488
39957W        W11573  17.282  41.072   3.242
39958W        W11574  17.664   5.383   0.295
39959W        W11575  25.254  19.955  13.001
39960W        W11576  42.738  11.828   3.753
39961W        W11577  14.335  40.535   3.719
39962W        W11578  26.950  17.199  10.589
39963W        W11579  10.098  32.132   0.049
39964W        W11580   9.632  43.326  10.734
39965W        W11581  17.991  11.796   3.656
39966W        W11582  25.637  31.457   0.785
39967W        W11583  44.747  26.173   1.385
39968W        W11584  25.570   6.867  10.482
39969W        W11585  37.516   2.652  13.729
39970W        W11586  27.996  31.446   1.459
39971W        W11587  30.502  24.079  13.742
39972W        W11588  35.667  24.321  12.510
39973W        W11589  22.182  23.694  12.861
39974W        W11590  32.521  13.958  10.788
39975W        W11591  39.941   1.179  11.676
39976W        W11592  25.189   8.290   4.059
39977W        W11593  35.992  35.035   1.218
39978W        W11594   6.909  21.164   2.726
39979W        W11595   7.333  40.762   1.249
39980W        W11596  14.209   2.450   0.874
39981W        W11597  32.598  22.098   1.663
39982W        W11598  25.752  21.176   3.632
39983W        W11599   2.155  42.221  13.495
39984W        W11600  44.251  44.958   3.269
39985W        W11601  33.035  23.856  12.883
39986W        W11602  27.959  30.756  12.526
39987W        W11603  33.565  33.401  14.091
39988W        W11604  34.941  44.390  13.030
39989W        W11605  34.778   1.665  10.457
39990W        W11606   3.784  34.506  13.525
39991W        W11607   6.050  25.896  14.360
39992W        W11608  39.689   3.037   3.081
39993W        W11609  39.354   2.384  11.597
39994W        W11610   9.471  24.455  13.851
39995W        W11611  17.064  29.290  13.949
39996W        W11612  43.091  44.341   4.596
39997W        W11613  38.515  34.610  13.049
39998W        W11614   9.430  15.647   0.414
39999W        W11615   4.864  36.996  13.809
40000W        W11616  23.210  38.488   3.840
40001W        W11617  33.421  12.356   0.862
40002W        W11618  36.162  24.880   3.245
40003W        W11619  26.655  21.193   3.179
40004W        W11620  25.482  31.571  12.339
40005W        W11621  16.909   6.106   2.808
40006W        W11622  32.942  17.604   0.378
40007W        W11623   9.753   9.659  13.977
40008W        W11624  31.699   0.347   4.551
40009W        W11625   9.800  19.130   2.742
40010W        W11626  23.145  11.508  13.469
40011W        W11627   4.761  37.134   4.717
40012W        W11628  17.236  18.719  11.882
40013W        W11629  35.915  29.747   2.358
40014W        W11630  37.646  39.020  10.750
40015W        W11631  30.499  36.843  12.086
40016W        W11632   4.468   7.192  11.002
40017W        W11633   4.926  12.753  10.654
40018W        W11634   0.735  38.648   1.905
40019W        W11635   3.900  35.340  11.105
40020W        W11636  22.656   3.282   1.261
40021W        W11637   1.863  21.772  14.748
40022W        W11638  30.077  44.042   3.846
40023W        W11639  11.358  27.187   3.788
40024W        W11640  10.663  26.113   1.985
40025W        W11641  12.234   0.990  12.901
40026W        W11642  20.878   4.690  14.260
40027W        W11643  43.953  44.819   4.565
40028W        W11644  25.653  31.911  14.392
40029W        W11645  18.090  34.192   1.794
40030W        W11646   4.931  31.147  11.447
40031W        W11647   6.438  27.700   0.924
40032W        W11648  18.015  44.045  10.178
40033W        W11649   3.372  18.698   3.734
40034W        W11650   0.363  24.388   0.954
40035W        W11651  20.715  31.151  10.636
40036W        W11652  30.886  19.430   4.561
40037W        W11653  12.222   3.149   4.156
40038W        W11654  31.383  38.558   3.100
40039W        W11655  44.964  30.963   1.830
40040W        W11656  38.814  23.130   1.798
40041W        W11657  19.228   1.027  12.362
40042W        W11658   7.618  11.323  11.496
40043W        W11659  30.095   4.065   2.122
40044W        W11660  30.088  13.072  11.835
40045W        W11661   4.462  29.631  13.499
40046W        W11662  41.985   6.881   3.782
40047W        W11663  14.842  17.270  10.693
40048W        W11664  12.737  42.977  12.015
40049W        W11665  44.045  22.961   2.794
40050W        W11666  27.679  17.430   4.067
40051W        W11667  10.795   3.476   4.028
40052W        W11668  16.101  30.392   1.297
40053W        W11669  40.419  31.353   1.434
40054W        W11670  25.152  12.730   2.146
40055W        W11671  34.110  10.213   1.197
40056W        W11672  26.567  18.070  12.504
40057W        W11673  19.689   6.802  10.676
40058W        W11674  23.977  18.685  14.909
40059W        W11675  29.155  41.387   4.846
40060W        W11676   0.376  33.998  10.891
40061W        W11677  42.376  17.535   4.897
40062W        W11678   3.354  42.223   1.277
40063W        W11679  22.694  30.143   3.778
40064W        W11680  42.151   0.039  11.914
40065W        W11681  19.568  37.071   2.199
40066W        W11682  35.036  39.835  12.989
40067W        W11683  31.339  25.548   2.754
40068W        W11684  14.882  39.028   0.713
40069W        W11685  44.328  13.045   3.247
40070W        W11686  39.366   6.275  11.606
40071W        W11687  16.394  29.968  12.004
40072W        W11688  15.118  17.164   4.132
40073W        W11689  30.994   5.009   2.475
40074W        W11690  10.104  42.174   1.427
40075W        W11691  16.182   0.980   3.990
40076W        W11692  22.766  40.570   3.264
40077W        W11693  10.600  37.576   4.499
40078W        W11694  11.764  39.892   4.593
40079W        W11695  10.298  39.981   1.989
40080W        W11696  22.471  16.736  11.134
40081W        W11697  23.774   9.087  12.893
40082W        W11698  36.878  16.338  14.304
40083W        W11699   0.843  22.493  10.582
40084W        W11700  42.271  42.500  13.060
40085W        W11701   8.886  17.224  14.891
40086W        W11702  21.031  21.060   3.167
40087W        W11703  13.379   0.262  13.541
40088W        W11704  41.739  14.775   3.459
40089W        W11705  30.015   9.367  13.756
40090W        W11706  26.889  36.508  11.593
40091W        W11707  17.263  28.466   2.410
40092W        W11708  42.355   3.148   1.862
40093W        W11709   7.359  31.073  14.050
40094W        W11710   5.458  34.877  14.589
40095W        W11711   5.475  20.691  14.023
40096W        W11712  11.354  15.764  11.061
40097W        W11713  38.332  18.483   1.254
40098W        W11714  14.434  13.125   2.435
40099W        W11715  25.536  11.331   3.813
40100W        W11716  37.625   7.388   2.894
40101W        W11717  15.368  26.737   2.148
40102W        W11718  29.098  18.868  13.942
40103W        W11719  34.228  19.669  14.018
40104W        W11720  44.144  10.595  12.009
40105W        W11721  26.704  13.609  12.625
40106W        W11722  10.168  35.825   2.523
40107W        W11723  25.624   2.060   0.174
40108W        W11724  24.017  19.028   0.419
40109W        W11725  40.842  23.962   2.748
40110W        W11726  37.675  35.626  11.160
40111W        W11727  12.731  14.903   3.437
40112W        W11728  41.979  31.599  14.271
40113W        W11729  43.339   2.742  14.828
40114W        W11730  28.912  32.335  12.989
40115W        W11731  13.876  12.079  12.150
40116W        W11732  35.984  37.593   2.176
40117W        W11733   4.812  43.895   0.219
40118W        W11734  20.386  16.824  11.222
40119W        W11735  37.140  31.022   0.645
40120W        W11736  40.141   4.106  13.396
40121W        W11737  32.446  26.698   1.815
40122W        W11738  16.356  44.223   4.761
40123W        W11739   5.856  13.778   3.185
40124W        W11740   6.384   2.129  14.235
40125W        W11741   4.148  33.434  12.367
40126W        W11742  34.071  12.569   2.736
40127W        W11743  23.549  13.597  11.721
40128W        W11744   6.937  33.862   4.222
40129W        W11745   0.583  20.072  13.970
40130W        W11746  24.627  35.112   1.977
40131W        W11747   9.381  34.942   0.473
40132W        W11748  40.231  43.274   4.293
40133W        W11749  15.337  41.404   3.105
40134W        W11750  14.951  10.439  13.332
40135W        W11751  35.424  12.673   4.323
40136W        W11752  14.423  39.166   0.421
40137W        W11753  44.920   0.741   1.217
40138W        W11754  16.728  27.667  11.174
40139W        W11755  13.634  38.857   1.352
40140W        W11756  16.953  30.482   0.688
40141W        W11757  38.376  32.351   4.902
40142W        W11758  22.211  35.789   1.280
40143W        W11759  12.999   3.445   1.876
40144W        W11760  44.839  30.064   0.864
40145W        W11761  35.322  42.303   2.817
40146W        W11762  17.108  11.853  10.483
40147W        W11763   1.941  44.355   2.111
40148W        W11764   8.893   9.609  14.407
40149W        W11765   7.611  27.656   1.859
40150W        W11766  16.263  42.270  13.653
40151W        W11767  38.533  13.114  13.390
40152W        W11768  41.908   3.275  13.358
40153W        W11769   8.253  44.061  10.677
40154W        W11770  36.974  36.865   2.930
40155W        W11771  31.229  33.144   3.082
40156W        W11772  23.556  28.288  10.953
40157W        W11773  26.015   5.723  10.817
40158W        W11774  44.985  18.023  11.127
40159W        W11775  18.291  19.772   0.199
40160W        W11776  36.918  32.982   3.273
40161W        W11777  16.799  44.087  12.266
40162W        W11778  42.018  31.936   1.293
40163W        W11779  16.548  29.292  14.080
40164W        W11780  10.812  39.930  13.809
40165W        W11781  44.727  39.803  10.395
40166W        W11782   8.805  34.614  13.037
40167W        W11783  24.245  35.451   3.864
40168W        W11784  43.872  41.842   1.722
40169W        W11785  17.190  21.355  14.773
40170W        W11786  22.309  26.993   1.368
40171W        W11787  44.693  36.902   3.156
40172W        W11788  11.376  41.861  12.420
40173W        W11789  20.540  33.924   0.807
40174W        W11790  34.735  32.094  11.568
40175W        W11791  11.060  11.024  11.231
40176W        W11792  10.821  36.538   3.374
40177W        W11793   5.378  29.491  11.354
40178W        W11794  28.062   8.777   3.450
40179W        W11795   4.003  24.673   4.584
40180W        W11796  43.291  16.454   0.329
40181W        W11797  14.777   3.417   2.694
40182W        W11798   5.212  27.122  14.003
40183W        W11799  42.038  40.595  12.355
40184W        W11800  26.994   9.671   2.200
40185W        W11801  11.786  32.824  12.257
40186W        W11802   6.855   1.441   2.004
40187W        W11803  32.505   8.322  13.986
40188W        W11804  16.120  35.524   2.296
40189W        W11805  19.439  44.428  10.177
40190W        W11806  13.285  38.907  13.985
40191W        W11807  21.792  38.902  14.319
40192W        W11808  36.300  39.461  11.481
40193W        W11809  35.917  27.815   1.855
40194W        W11810  24.077  12.814  14.453
40195W        W11811   4.006  11.740   0.220
40196W        W11812  42.990  41.463   1.782
40197W        W11813  17.856  41.528   4.276
40198W        W11814   7.827   4.683   3.075
40199W        W11815  21.253  38.127   1.839
40200W        W11816  13.954  39.901   3.648
40201W        W11817   7.192   6.889  13.589
40202W        W11818  29.725  30.896  12.384
40203W        W11819   1.384  32.810  13.818
40204W        W11820  28.698   4.715   2.887
40205W        W11821   1.428  33.134  13.399
40206W        W11822   4.669  25.183  11.545
40207W        W11823   0.317  12.378  11.950
40208W        W11824  18.840  23.575  12.972
40209W        W11825  17.570  44.486  11.977
40210W        W11826  41.864   6.199  10.703
40211W        W11827  40.520  44.941   2.698
40212W        W11828  42.535  31.465   3.297
40213W        W11829  26.104  22.973   2.242
40214W        W11830   3.157  31.619  13.985
40215W        W11831  33.684  12.287  12.817
40216W        W11832  30.432  14.698  11.623
40217W        W11833  16.664  39.815  14.356
40218W        W11834  41.567  21.124  11.385
40219W        W11835  42.688  44.947   4.046
40220W        W11836  37.409  34.355   0.771
40221W        W11837   3.005  28.980  14.995
40222W        W11838  10.907   0.900   0.384
40223W        W11839   1.246  25.209   2.956
40224W        W11840  37.323  30.961   2.882
40225W        W11841  37.425  16.293   0.333
40226W        W11842  14.050  17.827   2.266
40227W        W11843  33.137   4.265   0.945
40228W        W11844  30.649   2.309  13.354
40229W        W11845   0.936  30.466  14.044
40230W        W11846  42.182   2.500   2.332
40231W        W11847   7.783  31.117  12.863
40232W        W11848   1.915  24.269  14.000
40233W        W11849  35.717  22.338  14.805
40234W        W11850  24.511   4.661   2.193
40235W        W11851   6.713  25.078   2.178
40236W        W11852   5.859   0.608   0.458
40237W        W11853  16.112  42.587  11.189
40238W        W11854   2.362  39.819   4.401
40239W        W11855  33.011   2.829  10.979
40240W        W11856   5.467  23.788  14.809
40241W        W11857  25.292  33.897  14.535
40242W        W11858   4.241  23.012  12.365
40243W        W11859  38.787  34.000   3.090
40244W        W11860  11.640  37.399  14.030
40245W        W11861   8.379  25.547   1.421
40246W        W11862  16.144  27.342  13.789
40247W        W11863   7.676  20.965  14.585
40248W        W11864  10.548  21.900  14.505
40249W        W11865   3.073  12.148  13.558
40250W        W11866  42.361   2.301  14.016
40251W        W11867  36.934  14.114   2.795
40252W        W11868   0.382  39.047   2.092
40253W        W11869  23.992   2.228  14.929
40254W        W11870   7.974  12.195  13.994
40255W        W11871  27.331  36.986  12.848
40256W        W11872  15.209  25.255  14.212
40257W        W11873  10.851  24.536   4.082
40258W        W11874   4.794  40.046   3.832
40259W        W11875  17.673  23.957  13.454
40260W        W11876   8.106  13.948   4.404
40261W        W11877   6.648  29.566  11.616
40262W        W11878  26.371  25.306   9.966
40263W        W11879  33.805  32.096   1.775
40264W        W11880   0.730  14.601  10.640
40265W        W11881   2.410  26.787  14.054
40266W        W11882  15.883  23.449   3.814
40267W        W11883  37.657  29.045   4.239
40268W        W11884  33.290  10.129  10.733
40269W        W11885  29.721  32.706   3.677
40270W        W11886  40.737   2.020   0.786
40271W        W11887  24.553  17.936  12.845
40272W        W11888  40.336  16.303   3.872
40273W        W11889  19.484   8.309   2.496
40274W        W11890  28.581  23.072  13.538
40275W        W11891  28.232  39.989  13.957
40276W        W11892  23.104  24.489  12.991
40277W        W11893   9.107   1.971  14.857
40278W        W11894   5.088  29.646   2.222
40279W        W11895   4.834  16.930   3.873
40280W        W11896  28.687  28.206  14.441
40281W        W11897  41.502  33.563   4.545
40282W        W11898  13.617  23.606  10.674
40283W        W11899   7.875  26.243   3.928
40284W        W11900  28.034  24.891   1.032
40285W        W11901  16.244  30.840  12.117
40286W        W11902  37.805   8.194   2.432
40287W        W11903   6.168   6.949   3.674
40288W        W11904  13.295  30.553   2.696
40289W        W11905  41.870   1.649  12.602
40290W        W11906  27.382   4.306   2.708
40291W        W11907   4.776  44.745  11.212
40292W        W11908   9.751  27.440   3.646
40293W        W11909  12.821  16.323  14.627
40294W        W11910  43.087  39.116  11.920
40295W        W11911  33.418  27.152  10.741
40296W        W11912  35.120  19.141  12.034
40297W        W11913  41.820  23.010   4.699
40298W        W11914  14.853  33.610  11.897
40299W        W11915  25.525  18.736  14.871
40300W        W11916  32.412  42.534  11.596
40301W        W11917   1.001  21.296  13.005
40302W        W11918  28.527  43.027   4.957
40303W        W11919   7.317  24.733   2.601
40304W        W11920  16.661  44.834   2.143
40305W        W11921   7.530  20.806  11.355
40306W        W11922   8.785  44.515   3.261
40307W        W11923   6.702  24.164  11.663
40308W        W11924  26.639  15.759   3.218
40309W        W11925  41.969  13.433  13.612
40310W        W11926  16.489   8.246  11.631
40311W        W11927  36.791  14.069  11.360
40312W        W11928  14.559  28.068  13.371
40313W        W11929   2.689  33.981   4.578
40314W        W11930  20.792  19.029   3.794
40315W        W11931  33.643  10.806  12.520
40316W        W11932  36.907   5.578  13.925
40317W        W11933   9.939  39.624  11.663
40318W        W11934   0.381  33.848   2.793
40319W        W11935  25.528  15.414  14.897
40320W        W11936  21.349  22.062  14.801
40321W        W11937  16.925   6.207  13.944
40322W        W11938  17.844  23.220   0.270
40323W        W11939  33.795   7.333   2.313
40324W        W11940  31.413  23.076   4.640
40325W        W11941   1.707  32.845   4.608
40326W        W11942  36.109  23.845   3.426
40327W        W11943  14.831  39.824  12.075
40328W        W11944   5.319  38.082   4.140
40329W        W11945  43.025  30.098   2.114
40330W        W11946  22.434   7.112   2.309
40331W        W11947  38.494  14.177  13.903
40332W        W11948   2.478  18.189   1.917
40333W        W11949  21.700   2.930  12.660
40334W        W11950  37.411  19.024  10.437
40335W        W11951  43.043  26.949  12.378
40336W        W11952  40.817  33.456   1.724
40337W        W11953  23.499  23.995  13.857
40338W        W11954  28.436  31.980  14.282
40339W        W11955   5.835  16.091   3.626
40340W        W11956  44.909   4.093  10.723
40341W        W11957  20.201  36.906   4.969
40342W        W11958  42.999  29.596   1.829
40343W        W11959  11.661  26.545  13.547
40344W        W11960  16.539  35.020  11.048
40345W        W11961   0.818  44.544   2.666
40346W        W11962  42.020   2.080   3.602
40347W        W11963  14.819  42.761  11.994
40348W        W11964  33.558  42.500   3.732
40349W        W11965  36.418   5.068   4.146
40350W        W11966  42.356   5.330   1.825
40351W        W11967   1.698  32.114  10.633
40352W        W11968  10.788   6.747  13.886
40353W        W11969  33.951  34.349  11.728
40354W        W11970  22.508  11.567  10.623
40355W        W11971  19.147  23.558  14.995
40356W        W11972  15.645  42.795   2.107
40357W        W11973   2.881  30.257   3.762
40358W        W11974  33.153  13.565  11.108
40359W        W11975  37.912  38.350  12.076
40360W        W11976   5.756  26.657  13.492
40361W        W11977  36.241  11.595   5.333
40362W        W11978   7.962   9.175   4.555
40363W        W11979  21.055  17.672   3.350
40364W        W11980  18.769  38.955  10.716
40365W        W11981  20.252  21.037   0.059
40366W        W11982   4.331  27.591  11.643
40367W        W11983  16.972  22.788   1.389
40368W        W11984   5.929  31.415   3.405
40369W        W11985  29.471  33.000  14.539
40370W        W11986  37.057  36.170   0.966
40371W        W11987  13.090   0.982   3.682
40372W        W11988  16.841   6.132  13.032
40373W        W11989  25.682  16.244  12.454
40374W        W11990  26.965  29.329   1.009
40375W        W11991  31.716  29.602  11.046
40376W        W11992  33.110  27.093  12.089
40377W        W11993  34.555  43.545   0.000
40378W        W11994  27.955  42.806   0.522
40379W        W11995  13.265  11.803  14.468
40380W        W11996  31.648  18.001  13.450
40381W        W11997   6.389  24.010   4.448
40382W        W11998  22.934   4.546   1.720
40383W        W11999  39.463  14.634  12.481
40384W        W12000  19.720  11.956  13.615
40385W        W12001  27.023  44.000   4.061
40386W        W12002  35.084   6.310   5.021
40387W        W12003  30.951  39.390  11.613
40388W        W12004  10.276  29.670  10.691
40389W        W12005  18.236   0.229   0.776
40390W        W12006  19.942   4.793  10.520
40391W        W12007  27.416  20.732  14.824
40392W        W12008  27.609  23.270   4.366
40393W        W12009  29.350  25.560   2.671
40394W        W12010   6.464  13.248  13.817
40395W        W12011   8.540  14.306   1.207
40396W        W12012   7.428  43.831  11.969
40397W        W12013  29.604  38.049  12.196
40398W        W12014  13.567   6.821  13.459
40399W        W12015  23.758  19.022  13.679
40400W        W12016  17.089  23.190   4.442
40401W        W12017  14.117  22.877  14.984
40402W        W12018  37.413   3.762   0.227
40403W        W12019   0.966  16.041   4.209
40404W        W12020  18.519  16.073  14.319
40405W        W12021  20.063  43.989  13.374
40406W        W12022  24.486  38.031  13.347
40407W        W12023  17.784  13.726  12.013
40408W        W12024   4.323  43.890   1.806
40409W        W12025  27.824  18.793  14.665
40410W        W12026  12.090  21.663   0.387
40411W        W12027  42.620  30.173   3.638
40412W        W12028  13.222  43.037   4.133
40413W        W12029  11.371  44.692   2.874
40414W        W12030  29.093  43.387  13.526
40415W        W12031   0.381   7.877  14.068
40416W        W12032  21.827   3.082   5.062
40417W        W12033  22.982  10.302  13.558
40418W        W12034  23.527   4.416  13.404
40419W        W12035   4.515  32.825  13.408
40420W        W12036  34.917  29.992   4.683
40421W        W12037   6.802  31.296   2.275
40422W        W12038   1.690  41.482  12.464
40423W        W12039  38.649   2.374  11.089
40424W        W12040  28.533  16.243   1.251
40425W        W12041  34.789  11.310   1.486
40426W        W12042  27.355  10.861  14.390
40427W        W12043  42.418  36.990  13.992
40428W        W12044  23.588  37.027   2.401
40429W        W12045   8.506  14.140  12.021
40430W        W12046  24.680  13.744  10.948
40431W        W12047  21.095   4.213   3.175
40432W        W12048  24.575  17.290  14.970
40433W        W12049  34.802  40.141   0.513
40434W        W12050  39.770  31.059  12.440
40435W        W12051  39.714  28.673   2.732
40436W        W12052  19.603  16.400   3.305
40437W        W12053   5.234  36.699   2.832
40438W        W12054   6.345  17.606  13.539
40439W        W12055  14.725  19.030  11.944
40440W        W12056   4.645  44.214   3.662
40441W        W12057  30.108  41.350  12.002
40442W        W12058  23.124   7.862  11.073
40443W        W12059  35.885   1.378  12.390
40444W        W12060  38.070  13.866   1.381
40445W        W12061  36.012  15.483  12.695
40446W        W12062  13.391  42.386  11.664
40447W        W12063  36.932  29.029  13.510
40448W        W12064  24.715   5.629  14.503
40449W        W12065  12.732  35.851  14.340
40450W        W12066  18.060   5.482   3.609
40451W        W12067  42.268  35.977  11.156
40452W        W12068  43.445  31.645   1.255
40453W        W12069  26.278  31.461  13.437
40454W        W12070  44.194  20.602  12.083
40455W        W12071   8.831  20.195   3.962
40456W        W12072   2.417  20.103   3.774
40457W        W12073  28.190  41.996   2.792
40458W        W12074  41.838  42.527   1.781
40459W        W12075  43.024  15.188   1.415
40460W        W12076   2.176  14.473   3.725
40461W        W12077  29.605  12.402   3.782
40462W        W12078  12.811  40.413  13.276
40463W        W12079  15.944  36.533   0.816
40464W        W12080  23.529   3.635  11.640
40465W        W12081  28.545  27.026  12.027
40466W        W12082   7.022  28.836   0.388
40467W        W12083   2.963   5.261  10.392
40468W        W12084  12.271   6.192  10.671
40469W        W12085  14.377  18.660   1.469
40470W        W12086  40.425  32.919   1.267
40471W        W12087  22.597  35.311  11.380
40472W        W12088  31.629  12.221  11.018
40473W        W12089   6.923  18.627   4.950
40474W        W12090  13.066  41.883  14.762
40475W        W12091  18.260   8.239   0.791
40476W        W12092  36.056  40.385  13.256
40477W        W12093   4.171  44.733  14.049
40478W        W12094  18.032  22.233  12.863
40479W        W12095   8.646  12.559  14.464
40480W        W12096  39.223   4.849   3.375
40481W        W12097  25.192  23.689  13.890
40482W        W12098   5.137  16.564   3.196
40483W        W12099  42.971  32.022   1.313
40484W        W12100   2.696  37.658  14.463
40485W        W12101  30.512  20.785  13.832
40486W        W12102  12.528  14.776   0.271
40487W        W12103  19.023  26.576   5.044
40488W        W12104  14.777  41.802   4.519
40489W        W12105  23.538  17.980  14.492
40490W        W12106   5.024  12.417  12.893
40491W        W12107  23.508   7.823  12.585
40492W        W12108  26.972  18.872  14.362
40493W        W12109  38.473  26.553   2.673
40494W        W12110  24.348  38.346  11.519
40495W        W12111   9.778   3.734  12.426
40496W        W12112  38.362  15.525   0.937
40497W        W12113   6.726   4.131   0.682
40498W        W12114   9.828  40.315   0.239
40499W        W12115  31.541  20.053  11.050
40500W        W12116   7.183  14.161   1.910
40501W        W12117   7.924  23.140   0.025
40502W        W12118  37.901  32.634  11.166
40503W        W12119  31.856  36.320  11.172
40504W        W12120  19.817  13.806  14.836
40505W        W12121  13.996   2.720  11.723
40506W        W12122  15.802  12.434   3.833
40507W        W12123  11.427  15.611  12.019
40508W        W12124  40.367  30.462   9.913
40509W        W12125  23.015  43.799   3.595
40510W        W12126   1.489   1.348  11.289
40511W        W12127  32.290  29.116   1.671
40512W        W12128   3.861  20.021   0.329
40513W        W12129  37.337  43.073  13.521
40514W        W12130  28.948   6.085  12.242
40515W        W12131  20.786  12.875   1.276
40516W        W12132   5.993  33.026  14.403
40517W        W12133  23.139   3.509   1.352
40518W        W12134  23.460   3.257  12.119
40519W        W12135  38.523  28.274   1.195
40520W        W12136  23.689  33.843   1.400
40521W        W12137  34.899  12.348  13.713
40522W        W12138  44.273  22.792   4.175
40523W        W12139  14.359  44.878   0.839
40524W        W12140  21.742  19.223   1.446
40525W        W12141  29.545  22.468  11.708
40526W        W12142  25.643   7.879   4.362
40527W        W12143   3.712  42.463  12.412
40528W        W12144  13.755  21.964   3.541
40529W        W12145  34.252  30.645   4.120
40530W        W12146   9.867  42.963   0.372
40531W        W12147   0.821  34.584  14.830
40532W        W12148  21.576  14.759  12.124
40533W        W12149  42.003  10.701   4.148
40534W        W12150  21.252  29.540   3.163
40535W        W12151  14.021  28.950  10.544
40536W        W12152  39.749  21.151  14.342
40537W        W12153   0.319   0.909  14.083
40538W        W12154  11.791  35.476   2.375
40539W        W12155  22.520  12.142   4.349
40540W        W12156   6.382  37.324   4.760
40541W        W12157   0.688   2.964   3.694
40542W        W12158  39.702  35.318   0.983
40543W        W12159  25.981  16.817  11.391
40544W        W12160  10.946  43.888   4.123
40545W        W12161  21.795   6.897  14.379
40546W        W12162  44.935   3.286  11.234
40547W        W12163  23.009  25.124  10.738
40548W        W12164   0.910  14.477   2.759
40549W        W12165  28.874   5.542   0.250
40550W        W12166   1.685  19.245  11.665
40551W        W12167   6.665  42.871   1.276
40552W        W12168  17.534  19.648  13.295
40553W        W12169  42.801  18.968  12.927
40554W        W12170  14.291  28.494   4.619
40555W        W12171  27.884   7.180   0.147
40556W        W12172  21.440   7.369  14.305
40557W        W12173  37.040  40.375  12.546
40558W        W12174  27.445  42.399  10.910
40559W        W12175  22.499  12.894   2.816
40560W        W12176  20.735  34.354   4.310
40561W        W12177  17.322  16.111   3.374
40562W        W12178   6.148   0.670  14.311
40563W        W12179   7.350   6.321  14.919
40564W        W12180  26.776  13.052   3.478
40565W        W12181  16.061   9.762  14.907
40566W        W12182   0.784  20.571   0.149
40567W        W12183  29.773  40.309   3.391
40568W        W12184  14.884  34.661  11.605
40569W        W12185  43.121  40.094   2.896
40570W        W12186  34.923  42.334   1.967
40571W        W12187   9.197   0.955  11.165
40572W        W12188  18.567  10.368  14.480
40573W        W12189  32.435  38.979   0.617
40574W        W12190  17.525   4.712   3.691
40575W        W12191  41.060  30.960  13.884
40576W        W12192  16.267  13.995   4.124
40577W        W12193  26.481   7.337  13.280
40578W        W12194  15.701  44.099  11.517
40579W        W12195  37.910   4.984  14.475
40580W        W12196   6.089   1.352  12.171
40581W        W12197  36.029  25.493  11.610
40582W        W12198   1.492  32.333  14.518
40583W        W12199  35.061  11.556   3.491
40584W        W12200  41.594   9.752   3.200
40585W        W12201  32.955  27.067   2.138
40586W        W12202  23.977  26.156   3.288
40587W        W12203  15.106  40.516  14.256
40588W        W12204  22.381  34.687   2.355
40589W        W12205  22.224   1.769  12.504
40590W        W12206  12.352  40.081  14.912
40591W        W12207  43.308  36.888   1.382
40592W        W12208  31.519   9.060  14.285
40593W        W12209  12.313  42.714  13.903
40594W        W12210  30.832  33.597  10.607
40595W        W12211   5.989  13.103   2.084
40596W        W12212  31.430  24.481   1.162
40597W        W12213  23.302  39.932   3.673
40598W        W12214  30.238  35.087   4.833
40599W        W12215  35.362  29.446   1.097
40600W        W12216  10.771  35.070   4.627
40601W        W12217  31.568  23.174  11.967
40602W        W12218  23.166  39.806  14.178
40603W        W12219   4.752  12.341  10.365
40604W        W12220   2.731  32.968  13.871
40605W        W12221  18.509  43.773  13.872
40606W        W12222  10.897  15.250  13.298
40607W        W12223  15.134  33.935   2.384
40608W        W12224  11.610  20.004   0.090
40609W        W12225  44.333  32.831  14.853
40610W        W12226   7.443  27.505   0.958
40611W        W12227  32.131  20.158   3.594
40612W        W12228  35.021  10.404   4.888
40613W        W12229  26.290  28.715   1.863
40614W        W12230  36.439  42.522   3.772
40615W        W12231   2.280  25.498  10.632
40616W        W12232   3.752  18.078   2.180
40617W        W12233   0.203  17.153  11.032
40618W        W12234  24.147  24.607   2.703
40619W        W12235  10.387  32.644   2.780
40620W        W12236   1.137  14.927  10.649
40621W        W12237  42.170   2.895   2.693
40622W        W12238   7.197  43.230  14.319
40623W        W12239   9.376  42.641  13.806
40624W        W12240   6.886  28.609  11.868
40625W        W12241  18.854  43.365  13.956
40626W        W12242  19.187  30.973   2.435
40627W        W12243  17.583   4.592  14.260
40628W        W12244  26.448   9.376  13.528
40629W        W12245  19.246  17.273  12.025
40630W        W12246  32.618  24.438   2.078
40631W        W12247   6.103  30.877   3.337
40632W        W12248  38.291  38.029  14.439
40633W        W12249   3.440  23.200  14.793
40634W        W12250  26.746   3.973  13.347
40635W        W12251   6.263  43.680   1.107
40636W        W12252  28.506  28.086   0.839
40637W        W12253  33.142   5.199   0.984
40638W        W12254  21.041  39.452  11.577
40639W        W12255  18.113  23.265  11.971
40640W        W12256  36.592  43.475   3.196
40641W        W12257  38.976  32.937   1.491
40642W        W12258   0.886   7.135  13.910
40643W        W12259  28.048   6.443   0.850
40644W        W12260   4.749  26.720   2.392
40645W        W12261   9.329  19.529  13.035
40646W        W12262  44.732  20.525  13.492
40647W        W12263  28.671  42.216   2.847
40648W        W12264   0.864   3.071   5.073
40649W        W12265   8.706  26.958  13.377
40650W        W12266  32.570  14.497  12.513
40651W        W12267   8.011   7.882  13.331
40652W        W12268  36.842  17.262   3.953
40653W        W12269  14.137  16.888   5.569
40654W        W12270  14.843  12.787  10.743
40655W        W12271  16.747   9.037  11.599
40656W        W12272  25.199   3.860  12.953
40657W        W12273  12.625   5.502  11.532
40658W        W12274  23.565   8.134   0.350
40659W        W12275  44.498  12.175   2.406
40660W        W12276   2.857  35.311  10.660
40661W        W12277  33.288  30.519  14.494
40662W        W12278  33.103   6.769   1.850
40663W        W12279  15.136  15.601   3.335
40664W        W12280   4.303  25.189  14.351
40665W        W12281  10.869  21.482   0.731
40666W        W12282   4.940  41.955   4.533
40667W        W12283  24.561  22.775   2.706
40668W        W12284  33.164  21.584   4.746
40669W        W12285  41.449   5.649  13.329
40670W        W12286  17.705  22.029   4.502
40671W        W12287  22.660  24.958  12.468
40672W        W12288  12.075   5.874  12.194
40673W        W12289  11.605  40.769  14.912
40674W        W12290  33.911  29.200  12.088
40675W        W12291  32.334  27.942   2.823
40676W        W12292  19.242  30.487  12.993
40677W        W12293  30.464  39.182  14.200
40678W        W12294  18.915  19.669   2.851
40679W        W12295   4.765  37.772  14.930
40680W        W12296  18.581  21.855   0.662
40681W        W12297  23.215  10.383  13.996
40682W        W12298  15.600  20.424  13.473
40683W        W12299  10.274  44.570  11.952
40684W        W12300  37.649   4.867   5.107
40685W        W12301  11.669  17.095   4.537
40686W        W12302   9.125  34.572   0.223
40687W        W12303   1.934  31.405  11.348
40688W        W12304  25.941  29.674   4.739
40689W        W12305  11.692  34.709  12.929
40690W        W12306  17.264  35.801  14.727
40691W        W12307  23.042   0.457   1.796
40692W        W12308   4.299  22.210  10.611
40693W        W12309  32.396  23.675  10.953
40694W        W12310   7.798  29.209  10.665
40695W        W12311  35.336   3.022  13.383
40696W        W12312  12.709  25.175   2.653
40697W        W12313   4.756  21.008  13.670
40698W        W12314  33.287  26.028  12.126
40699W        W12315  35.562  42.307   4.300
40700W        W12316  22.268   1.074   4.567
40701W        W12317  17.970  34.417  11.254
40702W        W12318  24.726  40.430  14.430
40703W        W12319   6.654  43.881   3.641
40704W        W12320  10.774  28.643   0.273
40705W        W12321  27.994  44.263   1.995
40706W        W12322  21.533  14.599  14.957
40707W        W12323  18.539  13.116   3.933
40708W        W12324  22.581  29.676  14.056
40709W        W12325  36.828  15.317   2.274
40710W        W12326  18.352  31.086  13.865
40711W        W12327   1.004  42.390   1.720
40712W        W12328  39.864  19.665   3.002
40713W        W12329   0.847  19.689  14.398
40714W        W12330  21.282   6.169   0.555
40715W        W12331  40.670  28.202  10.173
40716W        W12332  11.696  20.268   0.858
40717W        W12333  19.918   3.472  10.759
40718W        W12334  18.232  13.453  11.830
40719W        W12335  39.409  43.352  13.270
40720W        W12336  28.134   5.850  10.940
40721W        W12337  42.436   4.874   3.531
40722W        W12338  41.603  12.553  14.309
40723W        W12339  28.923  13.058  14.766
40724W        W12340  33.396  19.104   4.680
40725W        W12341  28.626  43.560  13.365
40726W        W12342  42.075  14.377  12.611
40727W        W12343  31.954  42.429   1.451
40728W        W12344  40.944  13.893  11.668
40729W        W12345  29.668  14.713  14.004
40730W        W12346  29.738  37.963   4.473
40731W        W12347  29.697  41.802  13.801
40732W        W12348  24.107  24.979  12.548
40733W        W12349   2.125  21.267  14.432
40734W        W12350  36.114  24.584  14.889
40735W        W12351   3.781   1.836   4.061
40736W        W12352  23.192   6.953  12.147
40737W        W12353   8.801  43.778   1.444
40738W        W12354  38.843  27.154  11.513
40739W        W12355  40.840  38.393   4.721
40740W        W12356  35.992  15.641  14.921
40741W        W12357  22.737  39.925   0.903
40742W        W12358  43.036  34.258   3.555
40743W        W12359  19.981   9.748   0.500
40744W        W12360  18.751  29.046   3.707
40745W        W12361  27.331  29.594   0.787
40746W        W12362   8.310  24.681   0.993
40747W        W12363  44.817  29.998  12.867
40748W        W12364  20.686  40.191   4.452
40749W        W12365   6.103  33.579  13.069
40750W        W12366  31.709   8.497  13.054
40751W        W12367  33.053  34.006   4.641
40752W        W12368  36.103  13.368   2.806
40753W        W12369  32.602  22.151   2.197
40754W        W12370  22.491  10.184  12.203
40755W        W12371  18.789  11.275   1.397
40756W        W12372  34.548  37.941  12.598
40757W        W12373  25.859   1.756  13.109
40758W        W12374  14.624  26.372   4.844
40759W        W12375  34.121  40.959  14.776
40760W        W12376   8.902  30.801   4.617
40761W        W12377  41.820  28.524   1.338
40762W        W12378  19.595   8.213   0.994
40763W        W12379  20.333   2.792  12.131
40764W        W12380  34.044  12.759   2.228
40765W        W12381   4.332  41.601  13.440
40766W        W12382  10.698  36.361   1.953
40767W        W12383   0.311  11.160   4.595
40768W        W12384  15.787  41.909   1.229
40769W        W12385  33.362  38.845   0.030
40770W        W12386  38.106  26.480   3.631
40771W        W12387  18.740  26.729  12.046
40772W        W12388  25.072   6.338   4.660
40773W        W12389  44.027  12.865   0.964
40774W        W12390  41.784  11.316  13.921
40775W        W12391  34.941  30.878  13.615
40776W        W12392  40.616   3.456   1.877
40777W        W12393   3.312  31.408  12.997
40778W        W12394  33.705  23.698   4.501
40779W        W12395  12.840  20.982  11.086
40780W        W12396  40.283  17.269   2.735
40781W        W12397  41.777  12.875   0.360
40782W        W12398   9.537  15.033   1.423
40783W        W12399   7.698  33.449   0.506
40784W        W12400  23.128  21.787   1.765
40785W        W12401  35.433  18.601  13.037
40786W        W12402  36.582  16.740  14.522
40787W        W12403  17.394  18.235   2.787
40788W        W12404  42.676  21.696  11.766
40789W        W12405  16.645  25.529  14.963
40790W        W12406  17.055   6.656  11.505
40791W        W12407  39.721  19.305  13.602
40792W        W12408  40.804   2.749   2.831
40793W        W12409  32.459   2.441   2.114
40794W        W12410   1.951  21.901   5.261
40795W        W12411  38.577  23.227  12.204
40796W        W12412  24.709  29.855  11.527
40797W        W12413  26.779  20.609  14.024
40798W        W12414   3.561  20.525   3.197
40799W        W12415   6.891   4.134  12.104
40800W        W12416  26.261  44.875   4.604
40801W        W12417  34.033   8.348   4.704
40802W        W12418   3.787   0.360   0.089
40803W        W12419   4.180  24.434  13.891
40804W        W12420  36.914   3.471   0.213
40805W        W12421  33.190  43.504  14.017
40806W        W12422  44.733  31.221  12.279
40807W        W12423  32.550  42.072   4.505
40808W        W12424  25.041  30.198  14.483
40809W        W12425  15.544  21.685   4.559
40810W        W12426   7.252  28.144  14.477
40811W        W12427  12.637   4.781  10.201
40812W        W12428  18.083  38.598  11.364
40813W        W12429  34.447  44.370   4.744
40814W        W12430   7.046  16.925   0.638
40815W        W12431  12.181  36.576  10.536
40816W        W12432  36.400  28.632  10.478
40817W        W12433  42.884  24.601  14.693
40818W        W12434  22.117  19.245   4.267
40819W        W12435  25.318  29.499  10.790
40820W        W12436   9.331   5.397  13.306
40821W        W12437  17.259   1.199  14.346
40822W        W12438  16.501  33.331   2.627
40823W        W12439  32.957  33.340  10.627
40824W        W12440  34.467  15.596   3.160
40825W        W12441  33.109  31.356  11.845
40826W        W12442  28.853  16.684  14.436
40827W        W12443  42.431  15.807   1.913
40828W        W12444  16.306  38.254   0.824
40829W        W12445  30.890  33.828  11.085
40830W        W12446  22.404  36.057  14.012
40831W        W12447   0.980  36.645   2.779
40832W        W12448  31.125   2.044   0.757
40833W        W12449  33.340  42.060   2.174
40834W        W12450  14.009  38.415  11.909
40835W        W12451  35.072   9.867  11.722
40836W        W12452  41.862  17.807   3.296
40837W        W12453  36.522  43.691   0.866
40838W        W12454   1.522  44.880  13.792
40839W        W12455  37.108   2.459  11.083
40840W        W12456  15.760  22.604  14.034
40841W        W12457  19.519  40.059   3.069
40842W        W12458  27.881  13.639   5.456
40843W        W12459  14.828   7.417   0.911
40844W        W12460  29.407  35.783  12.781
40845W        W12461  33.471   2.375   2.191
40846W        W12462   9.733   7.120   1.489
40847W        W12463  18.547  33.710  11.947
40848W        W12464   5.267  23.512  10.885
40849W        W12465  39.558   0.577  14.216
40850W        W12466  14.248  15.277   0.352
40851W        W12467  30.031   1.521   1.409
40852W        W12468  21.287  12.706   3.223
40853W        W12469  44.547  10.314   1.670
40854W        W12470  28.483  37.481   1.806
40855W        W12471   9.550  43.297   2.145
40856W        W12472  10.434  30.203  14.235
40857W        W12473  35.162  34.483   3.118
40858W        W12474  37.303  16.071  14.898
40859W        W12475  16.448  36.300  13.815
40860W        W12476   8.706   4.870  13.134
40861W        W12477  10.183  16.585   4.043
40862W        W12478  11.190  21.143  10.900
40863W        W12479  30.991  20.699  14.430
40864W        W12480  10.096  15.618   1.778
40865W        W12481  21.091   2.755   0.387
40866W        W12482  22.596  22.737  13.081
40867W        W12483  26.978  42.010   4.232
40868W        W12484  39.359   5.810  10.330
40869W        W12485  41.087  23.464   4.519
40870W        W12486  13.431  15.316   3.378
40871W        W12487  33.398  29.189   3.675
40872W        W12488  42.044   3.012  11.532
40873W        W12489  34.887   9.282  10.903
40874W        W12490  11.385  33.048  13.554
40875W        W12491  20.466  38.861   4.378
40876W        W12492  41.897  27.597  14.745
40877W        W12493  13.767  44.772   1.650
40878W        W12494  36.480  10.249   5.022
40879W        W12495   5.828  10.288  11.271
40880W        W12496  39.362   1.171   2.382
40881W        W12497  30.132  25.084   4.064
40882W        W12498  27.144   4.565  10.262
40883W        W12499  17.613  34.169   1.088
40884W        W12500   2.030  32.461   4.792
40885W        W12501  18.691   9.828  13.070
40886W        W12502   4.196  36.324  11.646
40887W        W12503  28.694  42.389  13.376
40888W        W12504  31.542  27.142  10.606
40889W        W12505  28.096  15.275   3.826
40890W        W12506  29.974  14.753  13.575
40891W        W12507  38.327  15.303  11.160
40892W        W12508  10.140  35.249   3.076
40893W        W12509  29.431  43.087   4.206
40894W        W12510  23.259  30.788  12.805
40895W        W12511  44.501  34.467   2.361
40896W        W12512  27.141  37.332   0.286
40897W        W12513  36.386  10.947   2.368
40898W        W12514  28.639  14.029   2.852
40899W        W12515  28.937  26.627   1.370
40900W        W12516   5.420  43.795   4.164
40901W        W12517  23.690  20.025   3.911
40902W        W12518  41.597  27.777  13.294
40903W        W12519  28.218  19.454  10.805
40904W        W12520  33.899   4.464  13.881
40905W        W12521  19.098   7.383   1.635
40906W        W12522  13.292  31.983  12.865
40907W        W12523  31.807   4.035  13.826
40908W        W12524  33.010   6.826  12.238
40909W        W12525  22.269  22.497   3.746
40910W        W12526  40.429  41.061   2.903
40911W        W12527   6.817  20.531   0.250
40912W        W12528   9.182  36.546   2.931
40913W        W12529  38.077  34.394  12.891
40914W        W12530  12.953  22.590  14.299
40915W        W12531  32.380  27.409   2.833
40916W        W12532   6.725   0.752  12.072
40917W        W12533   8.885  11.934  13.452
40918W        W12534   2.671  10.432  11.093
40919W        W12535  15.160  11.602  13.773
40920W        W12536  17.516  21.308   1.912
40921W        W12537  25.016   1.881   3.902
40922W        W12538  34.695  16.227   0.011
40923W        W12539  43.503  30.083   3.839
40924W        W12540  23.745  23.299   2.297
40925W        W12541  22.545  25.154   3.837
40926W        W12542  39.692  33.964  10.688
40927W        W12543   0.702  22.593  14.286
40928W        W12544  20.078  27.878   4.980
40929W        W12545  20.612  22.051  14.452
40930W        W12546   6.910  37.804  13.370
40931W        W12547   0.720  15.328   3.742
40932W        W12548  35.083  11.392  11.582
40933W        W12549  15.105  32.143  12.421
40934W        W12550  35.163  11.682   1.688
40935W        W12551  43.441  20.792  14.302
40936W        W12552  13.126  33.672   3.706
40937W        W12553  28.068  24.566  14.819
40938W        W12554  37.027  39.447   4.410
40939W        W12555  43.733  29.663   1.422
40940W        W12556  18.513   3.385   3.679
40941W        W12557  36.660   9.155   0.386
40942W        W12558  42.248   0.944   4.879
40943W        W12559  14.484   4.644  13.594
40944W        W12560  14.313   3.838  12.483
40945W        W12561  41.970   0.150   0.770
40946W        W12562  22.024  37.860  10.985
40947W        W12563  15.432  19.629   1.142
40948W        W12564   0.877  35.096   4.559
40949W        W12565  43.490  26.612   2.677
40950W        W12566   8.280  37.506  10.714
40951W        W12567  38.022  32.904  13.027
40952W        W12568  18.872   9.358  12.596
40953W        W12569   2.677  16.286   3.180
40954W        W12570   3.431  42.411  11.922
40955W        W12571  16.906  23.154  11.030
40956W        W12572  15.560  38.056  11.010
40957W        W12573  26.513  29.652   3.533
40958W        W12574  43.505  35.747   3.406
40959W        W12575  16.360  12.893   0.449
40960W        W12576  28.640  10.313  14.815
40961W        W12577  37.887   1.200  13.530
40962W        W12578  27.126  26.433  11.614
40963W        W12579  12.184  13.237  11.095
40964W        W12580  42.621  12.254  14.961
40965W        W12581  21.955  22.441   4.150
40966W        W12582  30.911  34.374  14.512
40967W        W12583  31.882   8.180   4.313
40968W        W12584   9.171  14.804   2.672
40969W        W12585   2.522  18.562  12.442
40970W        W12586  26.131  21.379   0.030
40971W        W12587  23.620  16.624   0.542
40972W        W12588  19.584  34.095  12.063
40973W        W12589   5.737  19.584  14.935
40974W        W12590  12.682   8.218   3.675
40975W        W12591  44.788  28.476   0.690
40976W        W12592  38.312  19.594  13.646
40977W        W12593  36.418  10.870  11.631
40978W        W12594   2.780   3.329   1.580
40979W        W12595  18.154  28.432   3.271
40980W        W12596  27.750   9.970   0.266
40981W        W12597  37.652   5.406   4.926
40982W        W12598   6.958  33.369   4.120
40983W        W12599  33.349  15.158   0.967
40984W        W12600  29.569  13.514  12.032
40985W        W12601  35.476  42.043  14.881
40986W        W12602   5.661  41.246  12.020
40987W        W12603  42.477   5.687   4.125
40988W        W12604  14.886  31.804  13.359
40989W        W12605  29.606  44.291  14.502
40990W        W12606  15.335  22.521   2.699
40991W        W12607  41.827  25.541   3.160
40992W        W12608  16.676   2.832   1.963
40993W        W12609  22.043  18.973  13.386
40994W        W12610  35.829  22.043   0.733
40995W        W12611   9.370  30.446  12.333
40996W        W12612  42.062   1.448   3.799
40997W        W12613   1.397  11.191   3.467
40998W        W12614  40.397  32.400   2.618
40999W        W12615   4.013   2.006   4.474
41000W        W12616  39.928  39.758   3.732
41001W        W12617  29.416  24.597   4.117
41002W        W12618  35.119  20.651  11.504
41003W        W12619  33.315   8.617  13.662
41004W        W12620   1.116  35.398  13.494
41005W        W12621  41.049   4.306   2.615
41006W        W12622   9.276   4.503   3.758
41007W        W12623  16.037  37.633  12.088
41008W        W12624  29.115  22.197   0.700
41009W        W12625  12.339  43.090   4.137
41010W        W12626   2.935  12.684   3.698
41011W        W12627   1.823  16.274  12.076
41012W        W12628  24.994  14.754   0.690
41013W        W12629  25.807  17.410  13.868
41014W        W12630  33.690  42.589  13.500
41015W        W12631  38.625   4.875  11.212
41016W        W12632  30.507   2.611  11.265
41017W        W12633  13.222  19.510  11.064
41018W        W12634   9.804  32.475   0.873
41019W        W12635  36.536   3.953   0.712
41020W        W12636   6.136  39.841  12.123
41021W        W12637  31.379  30.148   1.791
41022W        W12638  38.374  11.866  11.608
41023W        W12639  15.104  23.165  10.568
41024W        W12640   8.481  20.120  12.903
41025W        W12641  34.970  41.781   3.700
41026W        W12642  40.774   6.961   3.195
41027W        W12643  22.022   7.769   1.231
41028W        W12644  14.014  40.053   0.718
41029W        W12645  31.924  21.165   3.034
41030W        W12646  34.643  23.632   4.155
41031W        W12647   6.960  34.872  14.969
41032W        W12648  22.507  32.094  14.991
41033W        W12649   1.083  24.752  12.754
41034W        W12650  40.968  25.574   0.275
41035W        W12651  29.931   3.732   4.630
41036W        W12652   1.072   9.738   3.185
41037W        W12653  11.728  25.954   2.281
41038W        W12654  11.043   0.477   3.167
41039W        W12655  38.860  27.647  13.924
41040W        W12656  38.517  27.202   2.181
41041W        W12657  35.923   3.492  12.855
41042W        W12658   3.505  22.697   1.325
41043W        W12659  28.901  43.009  14.439
41044W        W12660  27.945  41.027   4.227
41045W        W12661   0.897  26.158   4.549
41046W        W12662  27.251  28.682  13.384
41047W        W12663  10.675   1.207   1.679
41048W        W12664  26.715   4.777   2.865
41049W        W12665  21.971  32.578  12.896
41050W        W12666  17.801  25.176   3.715
41051W        W12667  28.149  25.355  14.324
41052W        W12668  10.122   2.116   3.121
41053W        W12669   6.153  35.093  14.039
41054W        W12670  14.798  14.592  12.443
41055W        W12671   4.327   8.083  11.426
41056W        W12672   5.832  43.109   2.174
41057W        W12673  33.458   7.271  14.821
41058W        W12674  17.685  37.811  12.877
41059W        W12675  16.639  25.040   3.861
41060W        W12676   7.675  17.242   3.718
41061W        W12677  10.360  31.670  12.019
41062W        W12678   1.022   4.661   1.419
41063W        W12679   3.249   1.518   5.323
41064W        W12680  13.231  25.359   0.628
41065W        W12681  40.833  11.761  12.145
41066W        W12682  43.509  29.370  11.180
41067W        W12683  44.327  36.056   0.905
41068W        W12684   1.664  23.782   2.486
41069W        W12685   5.264  33.873   1.016
41070W        W12686  28.131  24.227   2.227
41071W        W12687   6.197   6.172   0.001
41072W        W12688  42.356  28.503   0.090
41073W        W12689  29.787  30.817  10.951
41074W        W12690  24.509  19.711   0.962
41075W        W12691  28.486   3.809  12.456
41076W        W12692   3.542  19.141  11.182
41077W        W12693   5.721  18.213   2.307
41078W        W12694  44.827  29.807  10.685
41079W        W12695  34.356  21.313  12.103
41080W        W12696  21.686  14.869   3.192
41081W        W12697  32.964   5.664   3.652
41082W        W12698  28.722  18.758  14.997
41083W        W12699   4.995   4.468   0.775
41084W        W12700  21.615  14.066   2.297
41085W        W12701   1.729  17.009   4.261
41086W        W12702   7.312  42.981   0.648
41087W        W12703  25.724  30.089   2.150
41088W        W12704  16.738  41.790  11.653
41089W        W12705  13.708  20.424   0.043
41090W        W12706  15.640  27.470   4.756
41091W        W12707  21.986  38.612   1.390
41092W        W12708   0.286   9.700   4.273
41093W        W12709  20.099  42.297   5.529
41094W        W12710   2.879  11.309   0.938
41095W        W12711   0.961  22.476   3.549
41096W        W12712  31.952  21.708   2.291
41097W        W12713  10.813  17.102  10.796
41098W        W12714   5.588  13.725  14.289
41099W        W12715  24.353   2.484  12.154
41100W        W12716  35.145  23.927  11.629
41101W        W12717  29.162  22.670   4.609
41102W        W12718  21.129  18.053  12.950
41103W        W12719  17.604  32.699  10.741
41104W        W12720  34.569  10.223  14.385
41105W        W12721   4.577  13.986   4.987
41106W        W12722  34.106  22.696   0.226
41107W        W12723  43.477  13.664   3.917
41108W        W12724  13.918  10.910  12.826
41109W        W12725  20.835  40.092  13.005
41110W        W12726  22.946  16.606   3.623
41111W        W12727   0.560   2.394  11.559
41112W        W12728  17.269  20.283  13.821
41113W        W12729   3.506  21.092  13.069
41114W        W12730  34.377  28.246   1.381
41115W        W12731  26.395  16.610   2.131
41116W        W12732  18.520  23.044   4.354
41117W        W12733  13.834   5.313   2.473
41118W        W12734  35.564  42.924  13.542
41119W        W12735  30.375  30.477   5.016
41120W        W12736   7.342   8.762   0.841
41121W        W12737  37.977  13.414   9.656
41122W        W12738  42.261  19.796   4.548
41123W        W12739  33.317  25.712  12.860
41124W        W12740  17.188  23.652   4.250
41125W        W12741  29.071  21.863   1.799
41126W        W12742  37.897  41.274   0.463
41127W        W12743   3.414  29.969  10.670
41128W        W12744  25.941  30.407  10.517
41129W        W12745  36.494  38.592  13.363
41130W        W12746  28.207  38.116  13.953
41131W        W12747  35.917  25.294  12.136
41132W        W12748  15.772  32.507  12.596
41133W        W12749  36.030  26.178   4.581
41134W        W12750  40.658  38.938  10.227
41135W        W12751   1.641  26.980   4.133
41136W        W12752   7.507  25.002  14.986
41137W        W12753   0.039  12.236  14.942
41138W        W12754  37.460  37.307   0.262
41139W        W12755  30.692   5.994  10.781
41140W        W12756  33.064  27.972   4.176
41141W        W12757   1.534  13.727  11.981
41142W        W12758   6.148   4.715  12.078
41143W        W12759  13.358   3.978   4.967
41144W        W12760  12.857   7.941   4.523
41145W        W12761  30.614  29.850   3.660
41146W        W12762  14.244  34.200   3.769
41147W        W12763  23.457  14.549   3.300
41148W        W12764   0.415  43.257  13.924
41149W        W12765  11.770  32.854   4.540
41150W        W12766  34.016  19.650  11.613
41151W        W12767  11.603  12.807  12.608
41152W        W12768   8.509  31.086   2.218
41153W        W12769  31.934   3.093  14.011
41154W        W12770  36.919  18.381   2.711
41155W        W12771  24.094   5.491  14.795
41156W        W12772  39.963   7.776   0.986
41157W        W12773  23.111  26.617  14.359
41158W        W12774  38.757  40.239  10.232
41159W        W12775  37.380  13.727  13.925
41160W        W12776  27.172  21.655  14.530
41161W        W12777  38.554  17.162  11.496
41162W        W12778  22.725  37.552  11.425
41163W        W12779   0.571   2.906  11.581
41164W        W12780  41.024  14.726   3.445
41165W        W12781  36.887  40.394  14.529
41166W        W12782  31.694  25.006   3.434
41167W        W12783   1.612  28.212  12.394
41168W        W12784  21.701  29.424  11.157
41169W        W12785  27.883   1.262   3.204
41170W        W12786  10.140  14.653  11.517
41171W        W12787  39.944   4.760   0.715
41172W        W12788   4.273  22.647  13.898
41173W        W12789   4.878  23.206   3.151
41174W        W12790  38.337  34.160  14.924
41175W        W12791  16.629  41.329  13.461
41176W        W12792  43.667  43.410   2.766
41177W        W12793  34.514  30.626  13.424
41178W        W12794   9.360  21.155  10.592
41179W        W12795   8.337   0.110  14.437
41180W        W12796  38.976  14.214  11.236
41181W        W12797  33.574  41.863  11.331
41182W        W12798   3.835   3.451  11.016
41183W        W12799  26.637  16.371   9.915
41184W        W12800  22.865  19.069  13.931
41185W        W12801  11.589  20.821  11.549
41186W        W12802  12.016  16.703   4.643
41187W        W12803  34.397  30.136  12.521
41188W        W12804  35.594  42.379  10.758
41189W        W12805  15.623  35.011   0.939
41190W        W12806   8.812  36.895  12.206
41191W        W12807  25.258  44.527   2.192
41192W        W12808   0.870  11.821  12.394
41193W        W12809  25.978  26.173  13.808
41194W        W12810   1.434  16.109  13.813
41195W        W12811  25.541   5.987   4.110
41196W        W12812  40.302  16.366  11.878
41197W        W12813  17.720  37.352   4.094
41198W        W12814  19.156  14.079   0.666
41199W        W12815  20.142  25.380  12.522
41200W        W12816  35.848  36.902  10.712
41201W        W12817  22.557   9.851  13.970
41202W        W12818  25.473  10.523   0.337
41203W        W12819  19.315   7.294  12.964
41204W        W12820  23.457   1.075  11.603
41205W        W12821  33.531   0.221   2.541
41206W        W12822   5.271  35.917   3.447
41207W        W12823  41.083  41.845   2.644
41208W        W12824  39.352  23.679  14.972
41209W        W12825   3.913  26.008   2.334
41210W        W12826  43.002  39.365   1.680
41211W        W12827  44.832  30.142  14.294
41212W        W12828  24.149   2.921   0.674
41213W        W12829  35.853  29.559   3.267
41214W        W12830  12.366  38.140   1.426
41215W        W12831  25.821   3.328   0.487
41216W        W12832  43.868  23.527  13.269
41217W        W12833  26.129  16.041   0.710
41218W        W12834  39.517  11.113   3.158
41219W        W12835  19.021  11.345   3.092
41220W        W12836  13.265  44.305   3.718
41221W        W12837   6.430  22.251   1.339
41222W        W12838  35.441  37.621  13.468
41223W        W12839  20.667  40.277  12.017
41224W        W12840  31.842  33.534   5.001
41225W        W12841   7.569  39.169  13.037
41226W        W12842  30.732  42.486  10.270
41227W        W12843  39.381  16.582   3.616
41228W        W12844  30.246  24.685  11.111
41229W        W12845  21.784  17.034  12.000
41230W        W12846   6.787  11.799  11.366
41231W        W12847  28.168  37.556  14.997
41232W        W12848  41.422  25.557  11.181
41233W        W12849   2.224   8.597  11.411
41234W        W12850  39.391  44.346  13.451
41235W        W12851  29.452  36.544  11.024
41236W        W12852   6.730  11.353   1.431
41237W        W12853  27.140  30.028  12.539
41238W        W12854  32.656  13.857   1.409
41239W        W12855  19.614   2.869  14.882
41240W        W12856  27.195   8.171   2.342
41241W        W12857  44.415   8.876   3.689
41242W        W12858  31.100  29.508   0.285
41243W        W12859  38.524  33.307  12.552
41244W        W12860  31.483  44.885  14.133
41245W        W12861  19.462   4.219  13.149
41246W        W12862  37.941   0.822  12.631
41247W        W12863  38.468  40.377  12.945
41248W        W12864  12.664  33.211  12.539
41249W        W12865   2.026   6.372   4.636
41250W        W12866  42.487  35.489  11.173
41251W        W12867  14.482  25.211  13.289
41252W        W12868  34.502   1.806   2.292
41253W        W12869  38.301  30.302   1.872
41254W        W12870  14.210  17.528   4.044
41255W        W12871  14.774  29.482   0.841
41256W        W12872  37.043   3.321  11.277
41257W        W12873  37.164  11.240   4.468
41258W        W12874  38.039  38.332  13.488
41259W        W12875  28.391  44.443   3.819
41260W        W12876  11.261  17.686   4.629
41261W        W12877   2.863  43.794   5.073
41262W        W12878  14.865  15.879  11.976
41263W        W12879   0.352  29.415   2.290
41264W        W12880  41.337  33.357  11.539
41265W        W12881  28.776  10.820   1.039
41266W        W12882   7.567   0.989  11.946
41267W        W12883   9.284  22.062   0.954
41268W        W12884  42.858  32.457  12.054
41269W        W12885  12.778  26.503   1.187
41270W        W12886  28.589  37.988  13.025
41271W        W12887  30.475  15.871   1.276
41272W        W12888   4.438  27.263   4.087
41273W        W12889  11.890  15.249   3.386
41274W        W12890  30.944   1.392   3.734
41275W        W12891   2.730   3.246  11.145
41276W        W12892  23.053  33.869  14.502
41277W        W12893  20.647   3.775  14.031
41278W        W12894   0.025   0.566   2.134
41279W        W12895  10.831  38.035   4.409
41280W        W12896  27.485   2.641  11.496
41281W        W12897   4.500  33.452  14.934
41282W        W12898  26.160  13.192  13.921
41283W        W12899   4.876  24.197  14.813
41284W        W12900  17.672  20.166  14.116
41285W        W12901   9.715  14.837   4.695
41286W        W12902  14.244   6.674  12.701
41287W        W12903  33.947  12.786  11.402
41288W        W12904  29.703  37.552   4.881
41289W        W12905  37.908  34.156   2.756
41290W        W12906  29.621  19.324   0.010
41291W        W12907   3.289   3.340  11.167
41292W        W12908  31.641   0.687   4.127
41293W        W12909  14.184  34.608   0.033
41294W        W12910  15.775   4.482   0.768
41295W        W12911  11.994  21.699   1.876
41296W        W12912  35.135  42.775  12.898
41297W        W12913  33.920  20.090  13.812
41298W        W12914  19.499  21.773  11.187
41299W        W12915   4.973  32.599  13.404
41300W        W12916  11.224  19.964  13.372
41301W        W12917  31.138  34.049   3.120
41302W        W12918  22.139   5.486  14.348
41303W        W12919  15.436  44.463   0.278
41304W        W12920  32.275  12.275  11.897
41305W        W12921  15.586   2.374  10.669
41306W        W12922  41.440  18.783  12.405
41307W        W12923  43.671  19.207   1.790
41308W        W12924   8.227   8.725   2.338
41309W        W12925  21.053  43.901   4.664
41310W        W12926  36.191   6.770  12.194
41311W        W12927  32.448  37.479   0.344
41312W        W12928  41.307  40.066  12.012
41313W        W12929   5.677   9.577  12.487
41314W        W12930  24.134  33.718  11.607
41315W        W12931  40.274  29.552  10.636
41316W        W12932   8.233  20.936  13.695
41317W        W12933  33.595  35.873   4.254
41318W        W12934  39.971  25.435  11.041
41319W        W12935   4.198  21.063   3.356
41320W        W12936  27.217  19.032  11.504
41321W        W12937  25.133  36.165   2.957
41322W        W12938  27.939   9.482   4.158
41323W        W12939  28.072  23.472   1.715
41324W        W12940  13.199   1.972   0.927
41325W        W12941  43.876   3.816  12.030
41326W        W12942  35.115   3.389   2.195
41327W        W12943  30.386   3.768  12.591
41328W        W12944  35.499   7.319   1.259
41329W        W12945  15.619  38.415  12.988
41330W        W12946  43.706  12.065   4.221
41331W        W12947  33.994  31.077  12.910
41332W        W12948  11.490   1.168  13.217
41333W        W12949  37.887   7.748  11.494
41334W        W12950  14.985  26.135   1.366
41335W        W12951  21.665  23.529  14.838
41336W        W12952  10.782  15.114   1.254
41337W        W12953  38.957  16.321  12.801
41338W        W12954  42.458  41.883   2.424
41339W        W12955  18.647  16.568  10.789
41340W        W12956  27.118  39.367   2.664
41341W        W12957  19.107  31.395  13.065
41342W        W12958  30.393  12.312   3.222
41343W        W12959   2.888   3.746  11.185
41344W        W12960  40.907  32.443  13.883
41345W        W12961  37.462  31.448   3.015
41346W        W12962  27.519  14.617   3.495
41347W        W12963  14.659  35.096  14.321
41348W        W12964   9.149  18.674  10.778
41349W        W12965  21.397  44.776  11.547
41350W        W12966  24.560  12.189  10.966
41351W        W12967  32.030  25.236   2.191
41352W        W12968  41.557  24.654  14.382
41353W        W12969   3.774  37.429   1.918
41354W        W12970  25.268  26.464   2.777
41355W        W12971  21.609  16.402  11.541
41356W        W12972  26.099  41.783  11.609
41357W        W12973  44.014  21.586  14.227
41358W        W12974  40.291  33.020   0.766
41359W        W12975  13.946  35.862   1.738
41360W        W12976  31.732  40.733  11.100
41361W        W12977   0.619   6.971  14.545
41362W        W12978  22.523   9.432  14.330
41363W        W12979  21.103  41.341   0.257
41364W        W12980  35.771   0.533  11.499
41365W        W12981  13.314  19.719  13.374
41366W        W12982  25.363  38.848  12.838
41367W        W12983  26.314  20.311  10.952
41368W        W12984  44.116  41.178   4.938
41369W        W12985  23.074  22.267   1.062
41370W        W12986  33.604  24.067   3.645
41371W        W12987  34.815  20.662  11.078
41372W        W12988   7.823  20.003  12.002
41373W        W12989  25.654  16.277  11.923
41374W        W12990  12.794  37.613   3.163
41375W        W12991   1.464  18.935   3.627
41376W        W12992   9.234  33.607  12.424
41377W        W12993  17.850  18.184   4.585
41378W        W12994  18.182  37.878  11.974
41379W        W12995  20.567  34.621   0.641
41380W        W12996  19.063  42.461  14.487
41381W        W12997  10.745   5.939   4.153
41382W        W12998  22.207  10.744   4.429
41383W        W12999  44.934  34.838  13.773
41384W        W13000  39.004  17.268   4.803
41385W        W13001   2.955   6.629   1.484
41386W        W13002  38.954  37.382  12.062
41387W        W13003  10.185  15.650   3.693
41388W        W13004  14.644  35.479   0.250
41389W        W13005  27.649   2.145  11.468
41390W        W13006  38.499  20.866  13.092
41391W        W13007  10.343   1.971   5.002
41392W        W13008   7.450  23.111   0.915
41393W        W13009  31.617  40.408  14.777
41394W        W13010   0.856  44.321  13.264
41395W        W13011  24.728  41.660   1.673
41396W        W13012   2.989  35.538  14.976
41397W        W13013  26.110  17.667   1.966
41398W        W13014   2.453   7.445  12.395
41399W        W13015   9.400  28.446   0.911
41400W        W13016  31.777  18.515   5.113
41401W        W13017   9.625   8.588   4.157
41402W        W13018  20.675  37.841   2.658
41403W        W13019   1.247   6.981  12.062
41404W        W13020  26.453   3.323  11.983
41405W        W13021   6.075  33.518  11.262
41406W        W13022  33.477  43.441  12.517
41407W        W13023  34.882  16.044   1.999
41408W        W13024   5.752  28.779  13.113
41409W        W13025  11.348  28.887   1.265
41410W        W13026  42.443  35.958   2.348
41411W        W13027  13.914  40.813   1.035
41412W        W13028  25.136   5.130   3.981
41413W        W13029  20.369  27.384  12.494
41414W        W13030  41.919  21.242   4.144
41415W        W13031  26.020   2.999   2.587
41416W        W13032   5.914   6.665   4.073
41417W        W13033  42.442  39.051   3.799
41418W        W13034  35.057  28.437  10.633
41419W        W13035  10.481  31.099  13.729
41420W        W13036  44.882  40.227   4.748
41421W        W13037  22.887  11.701  13.075
41422W        W13038  34.428  23.937   3.157
41423W        W13039   6.702  18.605  11.977
41424W        W13040   0.146  27.508  13.341
41425W        W13041  38.518   4.340  14.974
41426W        W13042  17.486  11.233  11.906
41427W        W13043  26.695  22.161  13.427
41428W        W13044  20.654  41.552  10.783
41429W        W13045  14.195  17.785   4.755
41430W        W13046  22.497  31.930  13.921
41431W        W13047  17.505  36.042   1.324
41432W        W13048  27.932  34.515   3.610
41433W        W13049  28.232  35.425   0.372
41434W        W13050  18.962  37.331  11.214
41435W        W13051  44.235  19.893   3.340
41436W        W13052  20.028  29.027  10.616
41437W        W13053  36.632   0.400  10.574
41438W        W13054   8.630  33.504  11.978
41439W        W13055  44.217  15.645   0.807
41440W        W13056  12.389  28.415  11.954
41441W        W13057   3.741   1.310   1.820
41442W        W13058  31.985  20.548   3.266
41443W        W13059  32.688   9.264   3.936
41444W        W13060  33.594  25.740  12.445
41445W        W13061  16.621   4.679   3.684
41446W        W13062   4.365  22.021   2.446
41447W        W13063  43.388  40.767   4.490
41448W        W13064  31.499  33.680   2.399
41449W        W13065  31.414   6.874   3.205
41450W        W13066   5.308  11.137   4.762
41451W        W13067  12.846  22.284   0.722
41452W        W13068  35.527  28.680  12.786
41453W        W13069  36.631  33.952  12.472
41454W        W13070  37.030  12.856   0.883
41455W        W13071  39.220  10.880  14.790
41456W        W13072  33.382   6.040  11.909
41457W        W13073  17.499  20.542   4.866
41458W        W13074  30.174  20.038   3.742
41459W        W13075  10.153  11.691  13.293
41460W        W13076   2.711  11.723  12.398
41461W        W13077  12.770  27.807  12.260
41462W        W13078  27.224   5.955  12.889
41463W        W13079  24.229  12.327   2.844
41464W        W13080   3.831  18.779   2.794
41465W        W13081  42.867  22.503  12.036
41466W        W13082  21.919  17.627   2.478
41467W        W13083   6.563  16.703   0.498
41468W        W13084  35.335  14.257  12.417
41469W        W13085  32.489   8.787   3.213
41470W        W13086  19.393  30.542   2.181
41471W        W13087  39.459  34.870  12.991
41472W        W13088   3.138  35.641   2.719
41473W        W13089  39.842  40.248   1.909
41474W        W13090   1.256  19.755   1.144
41475W        W13091   2.548  13.043  12.590
41476W        W13092  35.768  17.569   3.123
41477W        W13093  32.812  23.241  13.923
41478W        W13094  44.961  11.761   0.758
41479W        W13095  24.411  28.989   0.610
41480W        W13096  16.559  24.085  12.641
41481W        W13097  31.832  23.193   0.220
41482W        W13098  41.433   1.405  14.963
41483W        W13099  37.004   5.327   4.396
41484W        W13100  41.795  14.080   3.814
41485W        W13101  24.212  19.480  11.989
41486W        W13102  36.966  23.488  14.261
41487W        W13103  15.235  17.890   3.671
41488W        W13104  23.069  24.005  13.198
41489W        W13105  37.381  20.985  14.009
41490W        W13106  41.419  19.983  12.912
41491W        W13107  22.665   5.758   4.593
41492W        W13108  15.544  33.350  12.945
41493W        W13109  11.678  35.615   3.783
41494W        W13110  36.981  32.964  13.315
41495W        W13111  14.655  24.583   3.664
41496W        W13112  41.565   0.877  12.319
41497W        W13113  10.113   5.666   1.354
41498W        W13114  14.194  10.947   3.236
41499W        W13115  23.453   4.334   4.122
41500W        W13116  23.472  25.280  14.249
41501W        W13117   6.746  22.049   2.668
41502W        W13118  38.306  38.411  10.727
41503W        W13119  35.005  19.514  10.574
41504W        W13120   2.885  31.373  10.720
41505W        W13121   8.333  15.075   2.234
41506W        W13122   6.799  37.377   1.766
41507W        W13123  37.157   1.972   1.967
41508W        W13124  18.555   3.030  11.184
41509W        W13125  36.528  28.421  12.577
41510W        W13126  35.780   1.233  11.070
41511W        W13127   0.564  15.369  11.186
41512W        W13128  38.664   4.225  12.511
41513W        W13129  21.185  19.210  13.516
41514W        W13130  31.132  15.315  12.024
41515W        W13131  27.518  26.964  14.492
41516W        W13132  29.222  43.561  12.043
41517W        W13133   2.297  34.057  11.078
41518W        W13134  12.900   1.917  14.975
41519W        W13135  10.247   9.415  12.023
41520W        W13136  33.352  36.951  13.898
41521W        W13137  20.993   8.610   2.121
41522W        W13138  37.580  23.255   4.227
41523W        W13139  10.849  40.465  10.532
41524W        W13140   2.230  25.073  11.199
41525W        W13141   4.360  36.118  11.168
41526W        W13142  15.205  19.149  11.392
41527W        W13143  38.972  24.834   1.436
41528W        W13144   7.691  21.109  10.575
41529W        W13145   7.321  34.427   0.364
41530W        W13146  32.159  38.116  14.359
41531W        W13147  31.713  42.815   2.268
41532W        W13148   5.169   8.406  11.846
41533W        W13149  31.444  21.982   1.180
41534W        W13150  34.714  37.522  12.900
41535W        W13151  20.871  40.598  13.113
41536W        W13152  12.746  41.570   0.484
41537W        W13153  20.508  42.689  13.016
41538W        W13154   2.431  30.650  13.562
41539W        W13155  33.917   5.215   2.839
41540W        W13156   6.242  37.236   9.940
41541W        W13157  36.272  13.694   2.334
41542W        W13158   2.207  38.635   4.587
41543W        W13159  28.607  42.461  12.430
41544W        W13160  39.745   0.042   3.814
41545W        W13161  38.982  11.609   1.500
41546W        W13162  38.096  42.549  12.489
41547W        W13163  20.703  26.043   0.749
41548W        W13164   0.455  23.579   3.115
41549W        W13165  26.897  30.989  11.154
41550W        W13166  33.513  25.073   0.852
41551W        W13167  29.438  16.442  13.291
41552W        W13168  36.148   9.129  11.995
41553W        W13169  33.137  28.739   3.757
41554W        W13170  14.637  27.163  10.947
41555W        W13171  27.870  27.681  11.082
41556W        W13172  44.734  25.573  13.388
41557W        W13173  15.723   9.324   3.658
41558W        W13174   9.622  26.792   0.280
41559W        W13175   5.167  39.019   2.703
41560W        W13176  39.808  16.960   3.418
41561W        W13177  27.157  34.842   1.957
41562W        W13178  12.023  16.157   1.426
41563W        W13179  22.786   6.443   0.535
41564W        W13180  25.069  11.795   3.361
41565W        W13181  20.127  15.594   2.647
41566W        W13182  20.783   7.643  13.802
41567W        W13183  33.398  35.313   4.890
41568W        W13184  44.966  38.140   3.156
41569W        W13185  11.924  29.422  13.343
41570W        W13186  34.296  30.553   2.732
41571W        W13187  14.477  42.880   5.029
41572W        W13188  39.957  34.454   1.092
41573W        W13189  14.504   0.952  12.485
41574W        W13190  31.416  31.593  11.936
41575W        W13191  19.297  14.053   3.696
41576W        W13192  43.877   6.691  13.319
41577W        W13193  22.392  15.112  13.068
41578W        W13194  17.352  24.692   4.228
41579W        W13195  42.283  14.963  14.435
41580W        W13196  20.517   5.864  10.672
41581W        W13197  34.638  30.239  10.681
41582W        W13198  22.169  13.073  13.406
41583W        W13199  35.776  29.149   0.732
41584W        W13200   4.012   2.805   2.682
41585W        W13201   0.505   2.313   3.599
41586W        W13202   7.904  36.593   2.673
41587W        W13203  32.875   0.253   0.877
41588W        W13204  37.106  30.344  10.667
41589W        W13205   1.831  14.333   2.611
41590W        W13206  36.587  36.472   1.717
41591W        W13207   3.956  39.842  14.283
41592W        W13208  27.572  39.983   3.837
41593W        W13209   7.331  36.101   2.106
41594W        W13210  21.478   9.159   3.267
41595W        W13211  42.298   9.117   1.649
41596W        W13212  27.163  10.104  10.717
41597W        W13213  11.201  31.424   1.661
41598W        W13214  37.855  24.344   5.039
41599W        W13215  27.146  26.530   0.183
41600W        W13216  34.903  25.396   3.695
41601W        W13217  22.615  35.573   0.420
41602W        W13218  16.180   6.194  14.057
41603W        W13219  42.407  25.507  12.055
41604W        W13220  17.301  43.829   2.659
41605W        W13221  41.015   5.953  13.337
41606W        W13222  41.969  13.366   0.271
41607W        W13223  41.970  39.074   4.540
41608W        W13224  31.348   9.802   1.505
41609W        W13225  22.530   1.954  10.788
41610W        W13226  23.084  16.969  11.973
41611W        W13227  28.012  21.781   2.354
41612W        W13228  23.702  14.499   2.406
41613W        W13229  32.016  20.311   1.214
41614W        W13230  15.802   5.679   0.351
41615W        W13231  35.152  44.435   4.612
41616W        W13232  34.734   1.454  13.904
41617W        W13233   5.237   0.723  10.558
41618W        W13234   3.057  21.835   4.650
41619W        W13235  39.071  41.713   1.584
41620W        W13236  44.419  43.916  10.097
41621W        W13237  14.859   0.055   0.897
41622W        W13238   8.726  34.706   0.628
41623W        W13239  20.077  35.525   2.205
41624W        W13240  16.970  33.150   3.730
41625W        W13241  20.331   7.415   1.047
41626W        W13242  21.947   8.500  12.812
41627W        W13243  36.264  16.936   1.273
41628W        W13244  10.013  12.094  13.969
41629W        W13245   8.820   9.936   3.406
41630W        W13246   0.864  41.967   0.483
41631W        W13247  27.183  10.003   1.694
41632W        W13248  19.649  30.656  11.958
41633W        W13249  22.847  17.837   4.160
41634W        W13250  35.887  26.652   4.450
41635W        W13251  25.207  17.997  10.652
41636W        W13252  21.772  34.564  11.000
41637W        W13253  43.475  34.030  12.112
41638W        W13254  11.625  24.636   3.654
41639W        W13255  38.035  11.510   2.673
41640W        W13256  36.392   6.687  10.712
41641W        W13257  22.448  11.281  11.550
41642W        W13258  32.357  33.113   0.844
41643W        W13259  33.276  30.752  12.448
41644W        W13260   5.414  37.373  11.651
41645W        W13261   3.925  21.043   1.807
41646W        W13262  24.517  16.777  11.723
41647W        W13263  34.307  25.501  12.932
41648W        W13264  17.098   7.911   2.721
41649W        W13265  16.232   7.037   4.578
41650W        W13266   0.419  41.586   1.529
41651W        W13267  29.596  40.353  13.988
41652W        W13268  24.570  16.844   0.266
41653W        W13269  21.964  14.399  14.616
41654W        W13270  24.145  36.472  10.771
41655W        W13271  10.893  35.430  14.304
41656W        W13272   2.189  14.738   0.887
41657W        W13273   3.297  38.319  10.756
41658W        W13274   8.318  35.113  12.048
41659W        W13275   6.672  40.752   3.954
41660W        W13276  37.852  37.329  14.929
41661W        W13277  16.626   5.779  13.352
41662W        W13278   9.641  22.506   4.861
41663W        W13279  14.318  31.648  11.649
41664W        W13280  14.866  19.670  13.530
41665W        W13281  43.909  36.839  14.804
41666W        W13282   5.419  11.859   1.734
41667W        W13283  40.827  31.142   2.480
41668W        W13284  36.969  16.556   4.237
41669W        W13285  15.468  37.890   2.281
41670W        W13286  11.682  29.211   2.101
41671W        W13287   9.946   8.689  12.441
41672W        W13288  33.179   2.939   3.356
41673W        W13289   1.629  16.816  13.530
41674W        W13290  25.087  24.146   4.676
41675W        W13291  23.324   9.492  14.084
41676W        W13292  32.176  12.702  13.591
41677W        W13293   7.868  17.777   1.704
41678W        W13294  32.074  33.356   4.556
41679W        W13295  34.336  17.682   2.610
41680W        W13296   1.813  40.853   1.916
41681W        W13297  21.954   2.663  11.076
41682W        W13298  12.095  14.301   3.196
41683W        W13299   8.339  23.567  14.004
41684W        W13300  33.359  23.168  14.431
41685W        W13301  12.656   2.260   2.399
41686W        W13302   7.974  39.175  11.620
41687W        W13303  25.539  43.380   0.310
41688W        W13304  17.158  29.721  13.058
41689W        W13305  27.611  28.926  11.127
41690W        W13306   1.761  23.753  13.406
41691W        W13307  12.812  20.084   2.844
41692W        W13308  10.328   3.946  13.819
41693W        W13309   9.228  24.179  11.560
41694W        W13310  17.704  33.624  11.103
41695W        W13311   5.301   7.937   4.467
41696W        W13312   1.741  25.201  11.324
41697W        W13313   4.502  15.629   4.558
41698W        W13314   4.482  17.195  10.862
41699W        W13315  39.534  26.980   1.161
41700W        W13316  37.919  11.123   1.650
41701W        W13317  39.596   3.862  12.598
41702W        W13318   5.422  24.588  12.003
41703W        W13319  44.919  15.868  11.098
41704W        W13320   6.158  33.578   2.125
41705W        W13321  20.664  26.201  14.071
41706W        W13322   5.704  22.726   4.105
41707W        W13323  40.008   0.545   3.092
41708W        W13324  22.926  11.608   0.836
41709W        W13325  12.152  13.119  13.304
41710W        W13326   2.985   8.488   2.395
41711W        W13327  14.092   9.813  14.975
41712W        W13328  39.240  26.942  11.234
41713W        W13329  34.112  39.262   2.922
41714W        W13330  18.929   2.920  12.087
41715W        W13331  42.080  24.052   4.182
41716W        W13332  26.728  27.285   1.344
41717W        W13333  33.311   6.916  14.461
41718W        W13334  12.841   2.377   1.224
41719W        W13335  22.698  23.996   0.474
41720W        W13336  35.379  36.962  10.459
41721W        W13337  20.045  43.564  12.128
41722W        W13338  27.043  40.507  13.404
41723W        W13339   7.244  23.267  12.799
41724W        W13340  29.791  20.949  12.108
41725W        W13341  41.527  41.305  13.437
41726W        W13342   1.263  41.897   1.604
41727W        W13343  43.206   6.204   0.238
41728W        W13344  42.692  29.028   2.929
41729W        W13345  33.519  27.651   5.283
41730W        W13346  12.233  38.842   3.681
41731W        W13347  39.557  10.281   3.611
41732W        W13348  21.720  33.444  12.361
41733W        W13349  24.927  40.929   0.592
41734W        W13350   2.670  13.945  14.229
41735W        W13351  17.032  23.658   0.752
41736W        W13352  38.303  19.162   3.359
41737W        W13353   3.838  30.843   2.815
41738W        W13354  24.677  20.926   1.712
41739W        W13355   1.992  36.495   0.424
41740W        W13356  40.136  22.128  13.576
41741W        W13357   4.681  26.391  11.092
41742W        W13358  13.319  22.988  13.548
41743W        W13359   4.326  30.943   1.696
41744W        W13360   3.523  29.280  13.325
41745W        W13361  23.571  39.953   2.822
41746W        W13362  29.226  16.712   2.781
41747W        W13363   0.371   0.388   3.746
41748W        W13364  21.064  41.689   4.067
41749W        W13365  31.904  31.409   4.647
41750W        W13366  12.416  37.493  14.960
41751W        W13367  44.883   7.920  13.971
41752W        W13368  38.293  18.832  11.351
41753W        W13369   8.592  12.312   0.422
41754W        W13370  10.684  30.408  10.450
41755W        W13371  14.618  37.990   4.240
41756W        W13372  28.861  17.283   4.984
41757W        W13373  26.007  44.834  12.179
41758W        W13374  11.152  24.052  10.998
41759W        W13375  24.786  40.472   4.144
41760W        W13376   5.987  40.555  12.343
41761W        W13377  32.068   7.734   1.631
41762W        W13378  15.434   3.269  11.362
41763W        W13379  35.852  31.180   0.753
41764W        W13380   5.757  30.556  14.481
41765W        W13381  39.960  15.787   0.801
41766W        W13382  41.537   5.546   4.344
41767W        W13383  14.213  43.061   1.292
41768W        W13384  24.058   6.892  13.395
41769W        W13385  31.530   1.955  10.932
41770W        W13386  16.621  32.349  11.933
41771W        W13387  22.606   3.758  11.616
41772W        W13388  43.111  19.081  14.337
41773W        W13389  28.608  24.323   4.988
41774W        W13390  42.152  15.866   0.834
41775W        W13391  42.056  37.934   1.891
41776W        W13392  33.471  21.972   3.050
41777W        W13393   3.742   1.829  11.267
41778W        W13394  24.655  41.374   1.233
41779W        W13395   0.759   0.528  13.709
41780W        W13396  19.670  35.260  11.380
41781W        W13397  11.712  12.233  11.023
41782W        W13398  28.373  12.137  12.508
41783W        W13399  18.284  36.262   2.275
41784W        W13400   0.546   8.830   1.784
41785W        W13401  28.114  44.401  12.008
41786W        W13402  38.497  26.208  14.563
41787W        W13403  34.393   6.752   1.801
41788W        W13404  24.863   6.233  13.314
41789W        W13405  27.417   9.780   4.050
41790W        W13406  21.758  18.235   0.909
41791W        W13407   4.447  44.453  12.422
41792W        W13408   2.305   1.427   4.584
41793W        W13409   0.956  33.437   4.635
41794W        W13410  28.500  20.604   4.981
41795W        W13411   6.351  32.732   4.703
41796W        W13412  17.369  44.308  13.557
41797W        W13413  15.137  33.470  11.219
41798W        W13414  38.486  41.437   3.160
41799W        W13415  36.025  43.257   4.728
41800W        W13416  15.206  20.802   2.364
41801W        W13417  17.037  33.326   1.836
41802W        W13418  15.175   7.113  13.906
41803W        W13419   3.683  30.053   1.416
41804W        W13420  33.349   4.845  14.248
41805W        W13421  32.800   0.816   2.051
41806W        W13422  31.875  34.339   1.319
41807W        W13423  14.068  35.528   1.333
41808W        W13424  23.036  28.980   2.882
41809W        W13425  24.589  25.509   0.872
41810W        W13426  22.999  15.962  12.326
41811W        W13427  16.004  35.344  14.697
41812W        W13428  35.960  10.342  10.711
41813W        W13429   3.324  22.768   4.533
41814W        W13430   7.963  10.455   3.343
41815W        W13431  33.350  27.046   4.478
41816W        W13432  17.612  44.759  13.432
41817W        W13433   8.929  11.914   1.349
41818W        W13434  22.123  26.481   5.282
41819W        W13435  28.022  37.128  13.823
41820W        W13436  36.854   6.356   1.665
41821W        W13437  35.605  33.569  12.113
41822W        W13438  12.015  39.970  10.561
41823W        W13439  23.110  43.310   0.447
41824W        W13440  24.593  16.771  14.302
41825W        W13441  30.564  35.614   2.001
41826W        W13442  23.195  31.264   4.323
41827W        W13443  33.852   6.972   0.383
41828W        W13444  24.318  30.183   0.269
41829W        W13445  43.069   7.484   1.724
41830W        W13446   6.929  32.041   4.886
41831W        W13447  38.114  35.503  14.584
41832W        W13448  40.808  42.978   4.608
41833W        W13449   6.281  15.721  14.782
41834W        W13450  22.241  25.483  14.841
41835W        W13451   7.181   0.850  12.835
41836W        W13452   3.453  26.742  12.650
41837W        W13453  36.359  31.164   1.868
41838W        W13454   8.883  18.457   1.934
41839W        W13455  13.238  12.336   2.249
41840W        W13456  29.581  20.551  11.838
41841W        W13457  42.407   7.898   4.304
41842W        W13458  26.390   2.411  13.674
41843W        W13459  38.084  30.823  14.040
41844W        W13460  35.761  13.624   2.297
41845W        W13461  28.821  32.658   2.781
41846W        W13462   9.700  29.796   3.679
41847W        W13463  21.562  36.012  12.003
41848W        W13464   7.034   7.501   0.771
41849W        W13465  10.273  28.555   0.341
41850W        W13466  34.509  40.028   2.864
41851W        W13467   8.466  28.425  14.099
41852W        W13468  29.557   0.668  14.913
41853W        W13469  44.834  22.150  13.478
41854W        W13470   6.829  17.894  13.300
41855W        W13471  14.618  21.246   5.180
41856W        W13472  23.734  33.057  14.664
41857W        W13473  39.839   1.400  14.579
41858W        W13474  29.392  12.105  12.582
41859W        W13475  11.635  25.683   3.741
41860W        W13476  34.682  18.504   4.253
41861W        W13477  37.313  21.113  10.443
41862W        W13478  44.833  43.021   3.765
41863W        W13479  25.955  37.735  10.477
41864W        W13480   1.134  14.967  12.871
41865W        W13481  27.459  12.858  14.347
41866W        W13482  38.491  32.836   2.673
41867W        W13483  21.566  18.312  12.079
41868W        W13484  19.588   8.744  13.986
41869W        W13485  31.454  10.396   2.710
41870W        W13486  38.861  17.146  14.332
41871W        W13487  12.705  10.897  10.718
41872W        W13488  10.900   9.992   2.435
41873W        W13489   4.883  43.303   0.231
41874W        W13490  32.515   8.987   1.686
41875W        W13491  18.838  19.001  14.420
41876W        W13492  18.846  21.809  12.850
41877W        W13493  27.121   7.207  14.373
41878W        W13494  27.906  44.343   3.953
41879W        W13495   5.379  29.209   2.242
41880W        W13496   4.043  42.816  12.925
41881W        W13497  10.794   6.847   3.118
41882W        W13498  33.371   0.062  12.533
41883W        W13499  32.490  38.838   3.677
41884W        W13500  22.952  15.675  13.692
41885W        W13501  23.678  35.967  14.931
41886W        W13502  19.246  19.185   1.721
41887W        W13503  13.541  29.449   2.826
41888W        W13504  20.641   3.110   1.131
41889W        W13505   7.951   3.297   0.605
41890W        W13506  35.614  26.698  14.483
41891W        W13507  42.025   1.862   3.139
41892W        W13508   6.904  11.788   1.673
41893W        W13509  29.626  42.566  14.899
41894W        W13510  11.642  13.750   2.140
41895W        W13511   2.491  33.818   5.096
41896W        W13512  18.320  42.565  10.259
41897W        W13513  25.733  40.962   2.175
41898W        W13514  20.947  28.697   3.699
41899W        W13515   0.399   6.312   2.724
41900W        W13516  15.913  25.115  12.011
41901W        W13517  33.052  11.242   3.137
41902W        W13518   2.603  40.031   3.595
41903W        W13519   6.856  42.571  14.870
41904W        W13520  38.449  43.487  14.398
41905W        W13521  42.843  36.230  14.389
41906W        W13522   5.212   2.745  14.516
41907W        W13523  18.373   1.365  13.354
41908W        W13524   5.463  34.027  14.502
41909W        W13525  44.952  35.369  12.077
41910W        W13526  29.460  36.035   0.311
41911W        W13527   7.692  33.564   2.866
41912W        W13528  35.004   4.271   1.827
41913W        W13529  32.060  27.694   1.082
41914W        W13530  23.983  12.667   4.003
41915W        W13531  15.874  30.691  14.502
41916W        W13532  28.207  31.531   3.307
41917W        W13533  43.083  15.634   5.101
41918W        W13534  15.354  25.454  13.284
41919W        W13535   0.545  39.959  12.075
41920W        W13536  43.062  32.909  10.766
41921W        W13537  23.355  13.955  13.696
41922W        W13538  39.500  43.680  14.875
41923W        W13539  41.261  38.532  13.895
41924W        W13540  19.464  33.168  10.726
41925W        W13541   2.349  43.414   4.558
41926W        W13542  19.521  32.921  13.446
41927W        W13543  16.148  18.092  13.811
41928W        W13544   1.850  24.697   4.353
41929W        W13545  32.790  21.466   1.727
41930W        W13546  37.216  17.809  13.487
41931W        W13547  26.099   0.102  11.645
41932W        W13548  30.674  25.121  13.755
41933W        W13549  43.048   5.373  10.354
41934W        W13550   3.898  10.596  14.510
41935W        W13551  43.456  10.858  11.484
41936W        W13552  13.373  11.935  11.990
41937W        W13553  22.278  40.441   0.351
41938W        W13554  12.356   9.836  13.832
41939W        W13555  30.907  43.238   2.618
41940W        W13556  36.912   6.660   2.835
41941W        W13557  15.535   3.421  13.793
41942W        W13558  20.640  12.168   1.879
41943W        W13559   6.327  13.630  11.516
41944W        W13560   8.122  17.576   4.424
41945W        W13561  17.405  41.237  11.100
41946W        W13562  22.318  33.633   5.101
41947W        W13563  38.336  18.319  11.250
41948W        W13564  38.109  11.748   0.213
41949W        W13565  10.364  27.729   3.103
41950W        W13566  34.107  16.255   0.794
41951W        W13567  14.253   4.168   5.106
41952W        W13568  26.761  40.035   1.193
41953W        W13569   7.690   4.419   0.926
41954W        W13570  24.673  37.155  12.053
41955W        W13571  26.156  13.670  11.577
41956W        W13572  29.577   5.856   4.883
41957W        W13573  15.685  25.069  14.913
41958W        W13574  18.659   8.267   4.472
41959W        W13575   7.785  39.247   2.360
41960W        W13576  37.857   3.780  12.330
41961W        W13577   4.045  25.239  13.496
41962W        W13578  11.714  20.179   1.932
41963W        W13579  41.190   0.947  14.317
41964W        W13580  33.011  32.336  11.544
41965W        W13581  34.480  40.286   4.545
41966W        W13582  31.080  16.966   4.939
41967W        W13583  12.461  16.268   1.718
41968W        W13584  12.420  22.621   0.802
41969W        W13585  36.126  15.996   0.745
41970W        W13586  42.213   2.300  11.253
41971W        W13587  42.854  42.171  14.481
41972W        W13588   3.738  18.222  14.052
41973W        W13589  43.118  36.922  10.648
41974W        W13590  30.026  21.019   0.499
41975W        W13591  28.677   8.466  13.590
41976W        W13592   1.858  11.788  14.681
41977W        W13593  11.387  18.323  11.068
41978W        W13594  25.428  10.216  10.293
41979W        W13595  29.023  17.059  10.996
41980W        W13596   4.132   2.833   1.833
41981W        W13597  10.166  12.503   1.999
41982W        W13598   3.400  11.917  10.603
41983W        W13599  27.620  44.000   4.511
41984W        W13600  24.410   9.277   1.741
41985W        W13601  10.354  22.791  12.562
41986W        W13602  32.842  41.014   2.754
41987W        W13603  30.962  34.521   2.289
41988W        W13604  43.242  18.385   4.235
41989W        W13605   7.046  29.400  13.543
41990W        W13606  11.324  28.744   0.369
41991W        W13607  20.343   2.369   3.602
41992W        W13608  17.618   1.804   3.163
41993W        W13609  42.614  30.336   0.098
41994W        W13610  35.404  36.949  12.980
41995W        W13611  16.743  33.918   3.101
41996W        W13612  36.976   7.066   3.244
41997W        W13613  22.686  30.389   2.359
41998W        W13614   5.104  28.142  14.522
41999W        W13615  12.663   0.682   4.582
42000W        W13616  25.953  44.536   1.761
42001W        W13617   5.367  43.240  11.333
42002W        W13618  34.933   1.269   1.379
42003W        W13619  17.161  10.933  14.876
42004W        W13620  25.645   9.879  13.973
42005W        W13621  34.010  34.057   2.193
42006W        W13622  28.649  22.199  14.081
42007W        W13623  27.129  10.448  13.024
42008W        W13624  28.335  12.106  14.068
42009W        W13625   9.749   0.238  12.648
42010W        W13626  14.934  37.131   4.668
42011W        W13627  32.295  13.190  13.411
42012W        W13628   0.923   8.336   4.595
42013W        W13629  37.528  42.993   2.170
42014W        W13630   8.912   6.869   0.973
42015W        W13631   7.391  15.207   1.121
42016W        W13632  19.018  26.486   3.633
42017W        W13633  27.378  32.421  11.068
42018W        W13634  36.536  36.629  11.457
42019W        W13635  33.608  38.332   4.505
42020W        W13636  27.747  38.013   1.938
42021W        W13637   1.515  43.469   2.262
42022W        W13638  33.388   4.301  12.012
42023W        W13639  13.139  29.032   1.429
42024W        W13640  19.163  34.963   3.471
42025W        W13641   9.799  12.287   4.349
42026W        W13642  25.522   7.747  12.858
42027W        W13643  15.264  29.448  11.871
42028W        W13644  26.594   3.884  13.826
42029W        W13645  26.127  29.469  13.387
42030W        W13646   8.918   7.839  14.608
42031W        W13647  38.902  40.883  14.015
42032W        W13648  38.138  32.099   2.267
42033W        W13649   9.148  43.623  13.778
42034W        W13650  28.705  41.573   4.581
42035W        W13651  36.895  30.948  13.251
42036W        W13652  29.402  44.387  11.047
42037W        W13653  14.732  19.535  11.954
42038W        W13654   9.618  33.998  10.775
42039W        W13655   5.727  40.913  11.548
42040W        W13656  43.444   4.154  10.797
42041W        W13657  27.463  31.435   0.675
42042W        W13658  42.400  41.906  11.109
42043W        W13659  20.772  14.630   4.947
42044W        W13660  11.847  11.385   0.229
42045W        W13661  40.652  36.354   2.016
42046W        W13662   2.621  10.807   2.264
42047W        W13663   2.538   8.550   2.829
42048W        W13664  14.641  19.288   1.716
42049W        W13665  35.801  27.465   3.171
42050W        W13666  22.901  13.774  12.794
42051W        W13667   8.493  22.025   2.419
42052W        W13668  12.159  30.194  11.723
42053W        W13669   2.295   6.865   4.634
42054W        W13670  32.553  28.154  12.421
42055W        W13671  33.561   7.089   5.428
42056W        W13672  30.240  14.750  11.151
42057W        W13673  20.164  23.242   3.872
42058W        W13674  19.862   7.187   3.247
42059W        W13675  37.867  32.092  11.006
42060W        W13676  24.746  32.178   4.144
42061W        W13677  33.057  38.571   1.930
42062W        W13678   4.190  20.964   4.691
42063W        W13679  24.504  34.654  12.967
42064W        W13680  14.662  16.651   1.902
42065W        W13681  22.662  33.587   0.487
42066W        W13682  27.508  42.891  11.746
42067W        W13683  41.263  30.248   4.104
42068W        W13684  28.163   5.253  14.821
42069W        W13685   9.987  43.754  10.835
42070W        W13686  29.718   3.181  11.554
42071W        W13687  44.748  29.406   2.739
42072W        W13688  27.835  42.155  14.999
42073W        W13689  36.935  42.578  10.982
42074W        W13690  44.429   2.209  12.559
42075W        W13691  29.556   8.817   4.957
42076W        W13692  41.443  10.247  10.715
42077W        W13693  41.503  41.944   2.297
42078W        W13694  28.642  16.400  14.827
42079W        W13695  25.705  17.274   9.973
42080W        W13696   3.321  34.426   0.386
42081W        W13697  31.832  15.505   4.150
42082W        W13698  38.910  42.888  11.027
42083W        W13699  37.049  41.466  12.512
42084W        W13700  27.891  11.758   2.696
42085W        W13701  36.721  12.679  14.789
42086W        W13702  13.861   1.007  12.160
42087W        W13703  42.200   4.450   3.905
42088W        W13704  20.994  17.783   2.856
42089W        W13705  34.985  31.072  11.995
42090W        W13706  14.039  31.501   3.680
42091W        W13707  41.969  33.093   1.761
42092W        W13708  15.686   8.972  13.004
42093W        W13709  43.794   4.942  12.927
42094W        W13710  18.030  42.567  10.694
42095W        W13711  41.624   4.437  14.691
42096W        W13712  39.316  33.383   4.894
42097W        W13713  30.920  41.590  10.301
42098W        W13714  24.957  36.919  12.863
42099W        W13715  18.479   9.662  11.037
42100W        W13716  41.502  37.061   2.922
42101W        W13717  20.472  33.608  12.966
42102W        W13718   2.772  44.996  13.399
42103W        W13719   0.761  16.777   0.320
42104W        W13720  14.490  21.081  12.089
42105W        W13721   1.209  33.431   1.180
42106W        W13722  13.616  22.747   1.813
42107W        W13723  24.407   9.258   0.793
42108W        W13724  24.220  40.349  14.506
42109W        W13725  19.865  35.999   0.813
42110W        W13726  28.257  19.003  14.866
42111W        W13727  29.014  43.841   3.192
42112W        W13728   1.841  32.551   3.190
42113W        W13729  34.995  32.524  11.498
42114W        W13730   4.270  19.741  12.448
42115W        W13731  13.824  19.283  13.831
42116W        W13732  22.978  14.138  14.007
42117W        W13733  43.381  20.455   4.738
42118W        W13734   1.984   3.429  10.680
42119W        W13735  33.573  23.616  14.265
42120W        W13736  24.132   7.410   3.898
42121W        W13737  31.024  15.268  11.060
42122W        W13738  17.507  44.587   5.395
42123W        W13739  18.337  23.048  12.499
42124W        W13740  14.192  23.592   1.948
42125W        W13741  40.383   1.805   0.396
42126W        W13742  40.204  33.774  10.722
42127W        W13743  32.621   4.353   2.511
42128W        W13744  15.325   4.212   0.772
42129W        W13745  10.185  25.693  12.552
42130W        W13746  25.084  30.593   2.480
42131W        W13747  24.668  35.618  13.073
42132W        W13748  14.825   5.105   3.836
42133W        W13749  18.274  34.168   0.051
42134W        W13750  23.599  35.602   2.844
42135W        W13751  34.136  35.163  11.510
42136W        W13752  27.979   3.039  11.023
42137W        W13753   8.859  34.856   3.179
42138W        W13754  24.963  35.087   4.804
42139W        W13755   4.472  11.276  13.335
42140W        W13756  31.571   8.035   3.696
42141W        W13757  31.977   5.230   1.880
42142W        W13758  35.416   2.505   3.211
42143W        W13759  39.845  23.964  14.987
42144W        W13760  14.633   8.885  13.405
42145W        W13761  24.460  21.230   0.338
42146W        W13762  30.037  43.582   3.568
42147W        W13763  42.514  12.830  13.158
42148W        W13764   2.863  33.515   4.887
42149W        W13765  19.154  25.287  11.496
42150W        W13766  40.598  13.888  12.545
42151W        W13767  36.344  21.085   9.743
42152W        W13768  15.236  11.294   2.300
42153W        W13769  21.076   0.338   1.240
42154W        W13770  15.354  44.542   3.243
42155W        W13771   5.704  16.558  11.513
42156W        W13772  10.616   7.583  12.884
42157W        W13773  31.101  11.743  10.249
42158W        W13774   4.958   8.647  10.893
42159W        W13775  30.770  29.600   2.373
42160W        W13776  33.975   0.267  14.028
42161W        W13777   7.380  41.388  14.727
42162W        W13778   8.742  31.136  10.382
42163W        W13779  28.958  43.043   2.631
42164W        W13780  13.881  34.617  12.514
42165W        W13781  12.073  30.305  11.204
42166W        W13782  19.164  25.570   3.661
42167W        W13783  29.874  23.508   3.756
42168W        W13784  40.989   2.259  11.610
42169W        W13785  23.766  43.724   3.028
42170W        W13786  37.344  21.479  13.801
42171W        W13787  27.033  21.579   2.014
42172W        W13788  44.430  35.589  14.950
42173W        W13789  43.892   9.098   4.262
42174W        W13790  44.446  44.421  13.490
42175W        W13791  25.231  25.073   0.857
42176W        W13792  38.932  44.046   1.372
42177W        W13793  42.502  31.101   0.343
42178W        W13794  27.207  26.625   3.386
42179W        W13795  10.061  41.211   5.471
42180W        W13796  23.134  33.350   0.397
42181W        W13797  35.484  41.000  13.631
42182W        W13798  17.055   7.225  13.028
42183W        W13799  19.056  15.030   1.350
42184W        W13800  38.456  36.264   4.635
42185W        W13801  27.451  41.404  11.448
42186W        W13802  36.577  37.500   3.906
42187W        W13803   0.030  11.270   3.367
42188W        W13804   6.011  30.354   0.791
42189W        W13805  34.041  43.317   4.062
42190W        W13806   1.748  20.552   4.181
42191W        W13807   1.422  41.531   1.950
42192W        W13808   0.203  18.364   1.900
42193W        W13809  24.922  27.608   0.393
42194W        W13810  15.287   7.603   1.692
42195W        W13811  14.676  41.894   0.486
42196W        W13812  11.805  39.073  11.509
42197W        W13813  30.610   7.163   4.748
42198W        W13814  40.329  12.603  14.720
42199W        W13815  25.264  44.194  14.941
42200W        W13816  36.447  10.943   0.800
42201W        W13817   2.253  28.667   3.890
42202W        W13818  39.355  36.930  10.770
42203W        W13819  38.375  36.577   2.623
42204W        W13820   0.481   7.903   1.742
42205W        W13821   5.394   7.178  11.097
42206W        W13822  17.447  44.037   4.211
42207W        W13823  42.753  27.883   0.458
42208W        W13824  31.017  32.482   1.414
42209W        W13825  34.202  17.091  11.035
42210W        W13826   4.541  18.590  10.650
42211W        W13827  34.171  17.570   0.859
42212W        W13828  37.275  27.629   4.226
42213W        W13829   9.319  10.215  13.255
42214W        W13830  36.171  33.436   9.736
42215W        W13831  10.841  35.922  14.091
42216W        W13832  42.383  31.845  13.104
42217W        W13833  23.426  44.207  14.067
42218W        W13834   6.893  31.556   3.721
42219W        W13835  24.502  12.421   0.678
42220W        W13836   2.379  37.056  12.891
42221W        W13837  13.638  33.943   4.364
42222W        W13838   9.216  28.076  10.219
42223W        W13839  39.830  22.173  10.702
42224W        W13840   9.372  19.339   2.558
42225W        W13841  18.774  26.120   4.831
42226W        W13842   1.176  31.936   3.306
42227W        W13843   2.363  36.042   0.435
42228W        W13844  32.644  32.137   0.954
42229W        W13845  24.259  19.144  14.973
42230W        W13846  38.350  10.193   0.861
42231W        W13847  12.363  11.673   1.435
42232W        W13848  15.129   1.957   3.554
42233W        W13849  37.062  12.598  10.277
42234W        W13850   0.489   5.937   4.099
42235W        W13851  13.023  19.374   3.308
42236W        W13852  25.749  38.266   4.111
42237W        W13853  11.323  28.509   0.901
42238W        W13854  16.674  41.880   5.072
42239W        W13855  21.671  12.259   0.224
42240W        W13856  22.646  21.669   2.667
42241W        W13857  14.605  37.717   3.405
42242W        W13858  24.104  32.897   0.400
42243W        W13859  20.206  41.703  14.715
42244W        W13860  36.112  31.493  13.802
42245W        W13861  19.675  23.713   1.406
42246W        W13862   7.669  19.674  14.893
42247W        W13863   8.151  26.650   2.637
42248W        W13864   3.423  26.458  14.969
42249W        W13865  19.048  21.060  14.480
42250W        W13866  15.597  37.136  13.512
42251W        W13867   0.670   5.618   0.468
42252W        W13868  33.491   0.240  14.299
42253W        W13869  27.607  25.211  13.490
42254W        W13870  33.583  21.817   4.934
42255W        W13871  16.068  29.134  13.948
42256W        W13872  34.702  24.546  13.321
42257W        W13873  35.931  12.601   2.637
42258W        W13874  32.307  29.017  13.660
42259W        W13875  42.971  42.508   2.159
42260W        W13876  35.033   1.529  11.547
42261W        W13877  22.529  15.933  13.896
42262W        W13878  43.338  37.953   0.125
42263W        W13879  33.476  12.665   1.716
42264W        W13880  23.952  36.824   3.269
42265W        W13881   9.549   2.667   0.634
42266W        W13882  34.229  13.298   3.234
42267W        W13883   2.218  22.462   3.177
42268W        W13884  24.726  33.697  13.840
42269W        W13885  24.112   5.820  13.890
42270W        W13886  44.246  23.290   4.134
42271W        W13887  12.548  28.951   4.629
42272W        W13888  24.703   3.312   1.497
42273W        W13889  38.998  13.115  14.413
42274W        W13890  13.093   3.626   2.373
42275W        W13891  36.869  38.429   4.321
42276W        W13892  30.498  19.507   0.036
42277W        W13893  18.861  44.381   4.169
42278W        W13894  26.853  39.461  13.922
42279W        W13895  28.183  41.820   1.866
42280W        W13896  29.358  40.903  14.805
42281W        W13897  37.032   8.817   1.318
42282W        W13898  13.190   3.623  12.973
42283W        W13899  19.460  34.332  12.876
42284W        W13900  33.758  30.521   4.956
42285W        W13901  33.155  12.330   3.163
42286W        W13902  35.661  21.024  12.342
42287W        W13903  30.071  40.816   4.832
42288W        W13904   4.882  35.829  13.047
42289W        W13905  22.181  33.732   2.242
42290W        W13906  22.337  22.096  10.605
42291W        W13907  10.605  32.423  13.408
42292W        W13908  30.545  32.959   0.074
42293W        W13909  27.685  32.425  11.531
42294W        W13910   8.257   4.483   0.910
42295W        W13911  40.419  20.109  10.927
42296W        W13912  39.931  24.348  13.975
42297W        W13913  25.653  33.682  12.350
42298W        W13914  18.278  13.334  14.924
42299W        W13915  15.202  19.268   3.294
42300W        W13916  28.207  10.216  12.094
42301W        W13917  11.369   8.626  14.434
42302W        W13918  15.692   7.822   9.973
42303W        W13919   2.198  16.110  10.966
42304W        W13920  42.381  28.951  14.327
42305W        W13921  16.570  13.320  14.251
42306W        W13922  13.966  26.889   0.533
42307W        W13923  17.511  11.751  13.042
42308W        W13924  17.710  15.777  14.471
42309W        W13925  11.434  25.140   1.397
42310W        W13926  42.051  22.565  11.606
42311W        W13927  33.413   5.879   1.701
42312W        W13928  38.039   5.248   3.691
42313W        W13929  37.368  25.212   0.938
42314W        W13930  30.671  15.693  10.570
42315W        W13931  17.716   1.719  12.474
42316W        W13932  15.876  26.755   1.916
42317W        W13933  32.127  31.055   0.302
42318W        W13934  38.999  19.197   1.448
42319W        W13935  33.452  11.303   3.797
42320W        W13936  29.658  21.152  11.114
42321W        W13937  37.969  32.632   1.471
42322W        W13938  38.754  12.651   3.708
42323W        W13939  31.842  28.939   4.244
42324W        W13940  35.863   4.306   4.107
42325W        W13941  43.484  37.905   9.862
42326W        W13942  26.011  38.266   3.667
42327W        W13943  25.560   7.619  11.925
42328W        W13944  19.050  43.763   0.751
42329W        W13945  41.995   5.211   0.416
42330W        W13946  39.075  39.057   1.382
42331W        W13947  42.407  44.512  12.539
42332W        W13948  17.233  26.961  13.517
42333W        W13949  13.849  33.948  12.002
42334W        W13950   5.815  23.254   3.244
42335W        W13951  11.456  11.176   4.505
42336W        W13952  28.525  29.425  10.117
42337W        W13953  19.538  33.108   3.788
42338W        W13954  42.075  33.048   4.124
42339W        W13955  18.692  38.509   0.081
42340W        W13956   5.876  21.471   0.559
42341W        W13957  33.588  13.432   2.685
42342W        W13958  21.293  17.329  11.192
42343W        W13959  31.951   5.522   0.613
42344W        W13960  33.796   1.808   0.040
42345W        W13961   6.397  42.907  14.404
42346W        W13962  31.051  42.813   2.857
42347W        W13963  44.543  33.793  11.450
42348W        W13964  35.070  23.551  10.580
42349W        W13965  42.313  44.981  13.284
42350W        W13966  36.139  19.469  11.907
42351W        W13967  41.966  21.313  11.137
42352W        W13968  29.068  16.344   3.321
42353W        W13969  38.276  16.270  11.628
42354W        W13970  38.416  11.286  14.251
42355W        W13971  32.908   7.585  13.006
42356W        W13972   8.680  33.387  14.857
42357W        W13973  15.749  24.108   2.370
42358W        W13974  16.847  44.867  14.765
42359W        W13975   3.729  41.019  14.795
42360W        W13976  15.375   3.941  14.008
42361W        W13977  41.767  16.561  11.130
42362W        W13978  22.992  38.863   4.121
42363W        W13979  42.100  16.655  14.785
42364W        W13980  13.900  13.711  14.952
42365W        W13981  18.625  20.370   3.898
42366W        W13982   8.123  36.083  13.014
42367W        W13983   1.132  37.484  14.367
42368W        W13984  44.384  24.076  11.053
42369W        W13985  39.252  37.582  11.614
42370W        W13986   9.940   3.705  11.128
42371W        W13987   7.149  37.895   2.686
42372W        W13988   8.959   1.433  13.284
42373W        W13989  22.310  37.962  10.568
42374W        W13990  15.095  12.780   0.827
42375W        W13991  35.847  19.110  11.142
42376W        W13992  28.171  39.275  13.405
42377W        W13993  16.068   3.349  13.885
42378W        W13994  24.209  38.299  12.267
42379W        W13995  44.704  14.817   0.837
42380W        W13996  43.509  13.405  14.365
42381W        W13997   1.630   4.332   3.066
42382W        W13998  12.153   2.865  12.779
42383W        W13999  12.017  43.814   2.475
42384W        W14000  35.035  11.349   2.878
42385W        W14001   9.712  32.860  12.265
42386W        W14002  14.507  39.829  11.680
42387W        W14003  13.922  10.756  14.941
42388W        W14004  15.246  41.320   1.755
42389W        W14005   9.730  36.344   0.440
42390W        W14006   6.691  22.749   4.555
42391W        W14007  24.301   4.625   4.315
42392W        W14008  21.240  41.789  11.490
42393W        W14009   9.826  22.257  12.032
42394W        W14010  27.123   2.316  14.314
42395W        W14011  41.500   6.786  10.696
42396W        W14012  16.309   4.696   3.263
42397W        W14013   6.410  22.780   1.340
42398W        W14014  22.298   1.052   2.237
42399W        W14015  36.773  33.862   4.705
42400W        W14016  24.936  40.641   1.839
42401W        W14017  41.878   0.058   4.497
42402W        W14018  41.959  36.459  10.614
42403W        W14019  42.474  28.240   4.289
42404W        W14020  28.199  36.485   3.252
42405W        W14021  32.512  37.506   2.416
42406W        W14022  38.057  24.084  14.023
42407W        W14023   1.797   8.852  11.531
42408W        W14024  16.113  41.229   2.744
42409W        W14025   0.996  20.106   3.833
42410W        W14026  43.882  28.010  13.554
42411W        W14027  37.771  21.171  12.512
42412W        W14028  28.574   9.286   1.864
42413W        W14029   9.092  25.922   4.617
42414W        W14030   7.840   5.124   4.315
42415W        W14031  12.284  26.885  14.903
42416W        W14032  17.986   5.133  12.624
42417W        W14033  23.614   9.690  14.551
42418W        W14034  42.716  25.205  11.488
42419W        W14035   4.766  14.816  11.717
42420W        W14036  10.825  30.445   2.793
42421W        W14037   2.732  12.647  11.413
42422W        W14038  17.241  13.707   0.026
42423W        W14039  22.791  16.644  14.929
42424W        W14040  10.383  26.181  11.048
42425W        W14041  34.522  25.059   0.658
42426W        W14042   4.172   0.493  13.447
42427W        W14043   0.503  30.047  12.357
42428W        W14044  18.382  15.095  13.296
42429W        W14045  30.977  16.226   4.215
42430W        W14046  16.880  26.948   0.523
42431W        W14047   8.858  19.924   3.046
42432W        W14048  38.322   0.757   1.222
42433W        W14049  21.082  23.448   4.813
42434W        W14050  20.770  35.879   2.158
42435W        W14051  17.963   9.372   1.325
42436W        W14052  26.742  26.773   0.444
42437W        W14053   9.951  40.342   0.758
42438W        W14054  10.303  31.957  14.574
42439W        W14055  14.609  40.255   1.305
42440W        W14056   6.119   4.488   2.879
42441W        W14057   9.316  38.077  11.233
42442W        W14058   0.724  25.972  12.895
42443W        W14059  16.086  23.143   0.418
42444W        W14060  36.944   3.532   1.367
42445W        W14061  21.818   1.698   0.876
42446W        W14062  22.717  36.498   0.381
42447W        W14063  32.314  34.079  11.365
42448W        W14064   8.837   3.950   1.228
42449W        W14065   0.871  23.018   4.627
42450W        W14066  22.278  22.134  11.563
42451W        W14067  17.208  26.647  14.792
42452W        W14068  40.299  11.844  12.350
42453W        W14069  11.472  36.469  11.705
42454W        W14070  27.501   7.875  13.035
42455W        W14071  37.111  22.705   4.066
42456W        W14072  18.769  15.633  14.445
42457W        W14073  36.377  41.438  12.814
42458W        W14074  24.603   7.804   3.247
42459W        W14075  11.857  34.417  14.472
42460W        W14076  22.168   7.745  10.683
42461W        W14077   9.360  33.962  14.202
42462W        W14078  40.486  37.432  12.013
42463W        W14079   3.794  37.565  11.715
42464W        W14080  29.002  31.924   0.168
42465W        W14081   0.968  20.984  11.606
42466W        W14082   4.874  33.906   2.777
42467W        W14083  43.556  26.943   0.405
42468W        W14084  35.199  16.827  13.453
42469W        W14085  27.956  14.289   4.210
42470W        W14086  25.220  37.854  12.811
42471W        W14087   1.034  42.048  11.114
42472W        W14088  28.473  16.900   2.419
42473W        W14089  23.321  19.286  13.806
42474W        W14090  22.304  26.149   0.730
42475W        W14091  35.580   6.888   0.987
42476W        W14092  28.685  35.070  12.489
42477W        W14093  34.636  17.262  13.300
42478W        W14094  17.143  44.482  10.984
42479W        W14095  39.420  23.824   1.000
42480W        W14096  28.717   0.920  13.938
42481W        W14097  38.891  20.940  11.110
42482W        W14098  28.935  31.403   0.245
42483W        W14099  20.216  16.123   4.287
42484W        W14100  15.709   6.775  10.997
42485W        W14101  34.933   0.626   3.543
42486W        W14102  37.526  32.349  11.298
42487W        W14103  39.807   8.392  12.593
42488W        W14104  32.888  29.414  14.951
42489W        W14105   8.408   8.299   0.319
42490W        W14106  26.423   4.453   3.884
42491W        W14107  38.867  26.922   4.467
42492W        W14108  22.736  15.603  14.541
42493W        W14109  29.632  42.332  12.227
42494W        W14110   9.903  10.815   2.286
42495W        W14111  34.316   0.250   5.478
42496W        W14112  42.903  37.413  11.706
42497W        W14113   0.104  28.011   2.635
42498W        W14114  43.276  32.160   1.711
42499W        W14115  27.620   2.466  12.399
42500W        W14116  44.795  15.870  12.041
42501W        W14117   1.247  42.826  12.264
42502W        W14118   5.978  29.809   3.365
42503W        W14119  34.672   7.281  11.111
42504W        W14120  23.681  27.640  12.794
42505W        W14121  23.931  20.993  14.428
42506W        W14122  34.638  22.666   4.271
42507W        W14123  38.897  43.566   3.670
42508W        W14124   2.982   9.772  13.805
42509W        W14125  26.580   1.536   1.354
42510W        W14126  18.280  24.154   1.482
42511W        W14127  43.465   1.276  11.213
42512W        W14128  17.760   1.215  12.524
42513W        W14129  20.521   1.300   4.340
42514W        W14130  18.592  37.643   1.575
42515W        W14131   4.864   6.838   2.443
42516W        W14132   0.051  40.449   3.238
42517W        W14133   6.941   7.568   4.271
42518W        W14134  13.302  14.327  11.578
42519W        W14135  43.733  17.819   3.235
42520W        W14136   7.110  27.493   1.840
42521W        W14137  10.454  35.709  14.383
42522W        W14138  20.435  20.550   1.253
42523W        W14139   8.799  33.359  12.555
42524W        W14140  34.905  41.272   4.354
42525W        W14141  36.988  14.183   1.253
42526W        W14142   8.729  17.110  11.097
42527W        W14143   0.097   8.266  10.910
42528W        W14144  32.886  39.294  13.592
42529W        W14145  16.360  35.568  12.086
42530W        W14146  14.843  33.092   4.543
42531W        W14147  18.283  26.755   3.346
42532W        W14148   4.684  15.195   0.534
42533W        W14149   0.916   7.759  10.591
42534W        W14150  42.755  12.248  10.749
42535W        W14151  26.120  36.580   3.135
42536W        W14152  33.624  24.075  12.962
42537W        W14153  11.710  44.779  14.338
42538W        W14154  29.587   7.153  14.092
42539W        W14155  24.981  35.977   3.846
42540W        W14156  15.911   1.915   3.703
42541W        W14157  10.479  39.627  11.679
42542W        W14158  35.677   0.779   0.908
42543W        W14159  37.573   0.915   0.733
42544W        W14160  20.030   6.400  11.549
42545W        W14161  18.002  12.788  12.408
42546W        W14162  34.677  11.326   3.723
42547W        W14163  32.455  39.792   0.147
42548W        W14164  24.274   1.376  12.969
42549W        W14165  30.091  39.963  11.558
42550W        W14166  32.814  26.992  11.678
42551W        W14167  30.477   7.814  10.840
42552W        W14168  33.954   4.669  14.770
42553W        W14169   3.767  33.530  10.818
42554W        W14170  38.061  32.621  14.038
42555W        W14171  27.341   6.594  13.793
42556W        W14172  27.043  32.545  11.460
42557W        W14173  11.774  14.840   4.307
42558W        W14174  26.626  22.539  12.471
42559W        W14175  44.102   8.735  12.932
42560W        W14176  23.215  23.163  13.608
42561W        W14177  13.235  13.583   1.828
42562W        W14178   1.745  31.498  13.376
42563W        W14179  41.014  31.713  11.151
42564W        W14180  14.643  15.594  12.343
42565W        W14181  40.186  30.421   4.066
42566W        W14182  24.436   4.453  14.916
42567W        W14183  31.865  30.654  11.511
42568W        W14184  13.625   9.628  12.484
42569W        W14185   0.767  17.647  11.177
42570W        W14186  37.972   1.275   2.857
42571W        W14187   7.370  12.295  14.855
42572W        W14188  12.429   5.691  12.515
42573W        W14189  26.463  44.765  11.949
42574W        W14190  12.419   8.438  13.462
42575W        W14191  41.445   9.182   1.961
42576W        W14192  43.008  36.542  13.421
42577W        W14193  38.320   9.401   1.411
42578W        W14194   9.605  43.210  12.520
42579W        W14195  43.877  38.656  11.625
42580W        W14196   6.707  14.334   4.404
42581W        W14197   1.715  18.196   0.337
42582W        W14198  31.473  35.928   0.811
42583W        W14199  22.164  11.209   4.658
42584W        W14200  25.343  16.659  10.725
42585W        W14201  11.190  41.319  14.445
42586W        W14202   8.127   4.367   2.816
42587W        W14203   6.182   6.246   5.447
42588W        W14204   1.769   9.394  14.314
42589W        W14205  14.540  25.894  11.089
42590W        W14206  21.565   5.404  12.356
42591W        W14207  14.872  32.998  13.569
42592W        W14208  29.005  11.851   4.511
42593W        W14209   4.250  22.772  11.399
42594W        W14210  37.533   3.801  14.223
42595W        W14211  16.090  39.376   3.322
42596W        W14212   7.337  37.465  14.996
42597W        W14213  22.312  18.125   3.170
42598W        W14214  44.436  32.407   4.197
42599W        W14215  17.990  38.373  10.361
42600W        W14216  33.388  14.386   1.620
42601W        W14217  40.974  24.814  12.847
42602W        W14218   9.277  39.018  11.513
42603W        W14219  26.988  18.035   3.725
42604W        W14220  16.294   4.307  12.553
42605W        W14221  12.280   9.368  13.484
42606W        W14222   3.283  44.273   4.232
42607W        W14223  37.664  31.560   3.472
42608W        W14224  36.619   5.842  12.433
42609W        W14225  23.073  15.446   3.126
42610W        W14226  22.171  23.610  14.822
42611W        W14227  31.438  19.480  12.505
42612W        W14228  40.970  30.624  10.852
42613W        W14229   5.508   1.829   4.662
42614W        W14230   1.237   1.291  14.735
42615W        W14231  18.464   4.216   1.669
42616W        W14232   5.217  30.552  12.825
42617W        W14233  17.726  34.035   2.146
42618W        W14234  14.900  17.621   2.683
42619W        W14235  12.891  33.571   4.176
42620W        W14236  12.143  31.610  13.136
42621W        W14237  43.462  28.518  14.807
42622W        W14238  42.248   9.889  11.120
42623W        W14239  24.656  34.101   2.897
42624W        W14240  29.957   7.128   0.502
42625W        W14241   4.499  37.034  10.690
42626W        W14242  17.716  17.080  12.134
42627W        W14243  16.306  33.873   0.800
42628W        W14244  42.198  43.399  11.085
42629W        W14245  24.241  15.160  13.395
42630W        W14246  29.938  16.140  14.018
42631W        W14247  40.690  38.527   0.766
42632W        W14248  39.701  31.572  14.142
42633W        W14249  26.249  44.292  14.332
42634W        W14250  32.531  16.683  11.587
42635W        W14251  18.691  27.924  12.574
42636W        W14252   8.193  25.197  13.440
42637W        W14253  39.333   6.150   3.713
42638W        W14254   7.681  12.894   3.138
42639W        W14255   6.379  25.616  11.984
42640W        W14256  33.738  43.050   1.261
42641W        W14257  12.851  42.469   0.967
42642W        W14258  13.057  41.844  13.336
42643W        W14259  40.973  13.433   0.495
42644W        W14260  35.835  42.777  11.574
42645W        W14261  29.077  22.764   1.858
42646W        W14262  10.225  19.780  12.797
42647W        W14263  16.481   4.267   1.950
42648W        W14264  14.313  14.432   0.376
42649W        W14265  37.318   2.952  11.098
42650W        W14266   3.168  37.453   4.883
42651W        W14267  26.050  41.215   1.258
42652W        W14268  23.986  41.252   4.073
42653W        W14269  12.409  18.143   0.841
42654W        W14270  42.854  10.377  11.132
42655W        W14271  30.579   0.263   1.373
42656W        W14272  25.012  41.359  12.989
42657W        W14273  22.778   9.856  14.449
42658W        W14274  12.621  31.875  10.612
42659W        W14275   6.268  43.935  13.985
42660W        W14276   0.921   0.002   1.003
42661W        W14277  34.398  43.535  10.399
42662W        W14278   4.972  36.734  13.355
42663W        W14279  39.901  15.590  13.833
42664W        W14280   0.503  18.605  12.593
42665W        W14281  23.196  40.550   2.815
42666W        W14282  32.315   5.884  12.034
42667W        W14283  32.696  17.351  10.617
42668W        W14284   9.866   0.957   1.360
42669W        W14285  20.560  44.745  11.654
42670W        W14286  21.717  29.384  13.516
42671W        W14287  42.881   3.556  12.973
42672W        W14288  37.835  29.071   1.751
42673W        W14289  28.959  44.414  12.477
42674W        W14290  14.708   0.809  14.015
42675W        W14291  20.237  18.826   2.579
42676W        W14292   1.959  23.135   5.007
42677W        W14293  19.489  31.451  12.398
42678W        W14294  34.425  28.063  14.737
42679W        W14295  24.184  27.085   1.663
42680W        W14296   1.425   4.547   4.031
42681W        W14297  40.854  35.533  14.433
42682W        W14298  32.576  14.126   2.162
42683W        W14299  27.267  26.913   2.736
42684W        W14300  10.318  31.142   2.771
42685W        W14301  18.169  37.366  12.041
42686W        W14302  15.883  34.183   0.749
42687W        W14303  32.187  34.178  12.223
42688W        W14304   2.755  44.108  10.998
42689W        W14305  10.912   3.715  13.004
42690W        W14306  12.897  35.061   0.017
42691W        W14307  42.407   0.226   1.933
42692W        W14308  18.827  38.420   3.721
42693W        W14309  16.299  22.691  11.253
42694W        W14310  30.421  40.811  11.651
42695W        W14311  35.063  15.025  10.814
42696W        W14312  14.777  38.592   2.967
42697W        W14313  18.752  32.995  11.203
42698W        W14314  27.516  24.504  10.853
42699W        W14315  28.763  33.578   2.754
42700W        W14316  10.113  10.710   4.575
42701W        W14317   8.207  18.076  13.462
42702W        W14318  19.243  20.253  12.940
42703W        W14319  20.487  40.254   2.592
42704W        W14320  15.297   6.187   1.740
42705W        W14321  37.398  13.584  13.012
42706W        W14322  17.086   5.327   1.615
42707W        W14323  23.527  34.902   3.239
42708W        W14324  39.810   4.505  10.587
42709W        W14325  32.210   1.953  11.526
42710W        W14326   2.308   9.562   3.875
42711W        W14327  21.546  14.880   4.082
42712W        W14328  19.442  33.349   1.496
42713W        W14329  17.201   5.381   2.409
42714W        W14330  13.442  32.568  14.923
42715W        W14331  19.131  14.130   0.149
42716W        W14332   2.221  22.144  13.417
42717W        W14333  26.745  14.153   1.301
42718W        W14334  14.726  42.326   1.813
42719W        W14335  35.159  10.779   0.737
42720W        W14336   6.929  40.322   1.674
42721W        W14337  40.812  26.611   5.220
42722W        W14338  23.264  24.244  10.343
42723W        W14339  22.100  27.464  12.099
42724W        W14340  28.032  22.312  14.763
42725W        W14341  44.883  37.862   0.673
42726W        W14342  13.477  43.113  10.267
42727W        W14343  19.766   5.246   0.922
42728W        W14344  43.803   8.801  11.440
42729W        W14345  43.146  33.264  12.402
42730W        W14346   1.311  10.299   0.806
42731W        W14347   5.504  13.164   2.885
42732W        W14348   3.992  18.381   3.127
42733W        W14349   6.253  33.588   2.633
42734W        W14350  36.331   9.658  13.117
42735W        W14351   0.017   1.337  13.923
42736W        W14352  10.739  26.194   1.480
42737W        W14353   0.798  10.801  12.078
42738W        W14354   7.364  32.436  14.492
42739W        W14355  20.479  26.491   3.314
42740W        W14356  14.784  17.332   3.135
42741W        W14357   7.201  14.065  12.464
42742W        W14358  23.548  28.223   1.326
42743W        W14359  30.106  26.489   0.941
42744W        W14360  38.268  13.580   0.982
42745W        W14361  32.813  16.143   1.121
42746W        W14362  33.682   8.248   1.000
42747W        W14363   9.826  37.503   2.367
42748W        W14364  15.171  20.867   3.210
42749W        W14365  26.903  26.868  11.477
42750W        W14366  18.397  25.133  12.634
42751W        W14367  39.422  16.612   2.674
42752W        W14368  40.249  10.140   9.938
42753W        W14369  20.671  36.166   4.171
42754W        W14370   7.366  37.072   4.801
42755W        W14371  37.787  39.122  14.445
42756W        W14372  11.791  38.868  12.342
42757W        W14373   3.310  42.531   1.744
42758W        W14374  10.264   2.375  11.065
42759W        W14375   7.105  17.993  14.515
42760W        W14376  14.147  17.975   2.755
42761W        W14377   5.892  20.799  12.001
42762W        W14378   4.566  36.612  14.318
42763W        W14379  30.074  41.816  11.189
42764W        W14380  15.174  32.525   1.395
42765W        W14381  31.327  15.347   4.130
42766W        W14382   8.745  16.992   4.243
42767W        W14383  43.540   3.799  13.068
42768W        W14384  29.636  42.700   1.404
42769W        W14385  33.422  38.042  11.529
42770W        W14386  34.006  41.125   1.030
42771W        W14387   4.764   1.543  13.655
42772W        W14388  23.596  40.712   3.266
42773W        W14389  37.392  16.606  13.438
42774W        W14390  38.987  12.775   2.673
42775W        W14391  44.264  44.447  14.326
42776W        W14392  35.532  40.564  11.915
42777W        W14393  37.443   0.319  14.280
42778W        W14394  18.824  20.312   1.291
42779W        W14395  33.566  16.604  12.561
42780W        W14396  17.720  44.899  12.927
42781W        W14397  13.264  37.040   3.159
42782W        W14398   2.370  35.276  14.050
42783W        W14399  42.869  16.649   4.630
42784W        W14400  40.856  23.006  14.217
42785W        W14401  33.333  42.076   3.866
42786W        W14402  21.259  25.910   4.990
42787W        W14403   2.165   9.156   4.188
42788W        W14404  30.073  30.466  11.555
42789W        W14405  22.411  42.752   4.162
42790W        W14406  25.333  25.064   4.555
42791W        W14407   5.423  35.480  13.352
42792W        W14408  27.062  30.875   0.355
42793W        W14409   9.671  14.324  13.083
42794W        W14410  31.084  16.072  10.723
42795W        W14411  13.357  18.532  13.894
42796W        W14412   1.305  21.791   2.711
42797W        W14413   9.373  20.444  12.788
42798W        W14414  39.995   6.787   2.962
42799W        W14415   3.351  12.814   3.984
42800W        W14416   4.893   1.761  12.016
42801W        W14417   5.866  16.779   2.711
42802W        W14418  33.487   9.769   0.892
42803W        W14419  40.826  28.570   4.641
42804W        W14420   1.454  25.170   3.919
42805W        W14421  26.435   5.428  11.019
42806W        W14422  18.428  35.687   1.298
42807W        W14423   5.730  12.230   2.704
42808W        W14424  32.845  28.563   3.371
42809W        W14425   2.451   5.373   1.434
42810W        W14426  22.153  12.496   3.837
42811W        W14427  25.801  31.188   0.366
42812W        W14428  26.171   6.924  11.591
42813W        W14429   0.472  21.008  12.369
42814W        W14430  25.493   3.169  13.044
42815W        W14431  21.093  12.329  12.132
42816W        W14432  33.374  33.575   1.328
42817W        W14433  10.309   7.130   2.097
42818W        W14434  14.729  18.067   0.468
42819W        W14435  22.662  24.390  13.695
42820W        W14436  41.737  27.600   4.573
42821W        W14437  33.327   5.438  14.876
42822W        W14438   8.880  21.063   1.296
42823W        W14439  40.881   4.518  12.352
42824W        W14440  21.263  34.647   0.927
42825W        W14441  36.066  42.554  12.390
42826W        W14442   9.664   2.465  10.544
42827W        W14443  18.000  25.164   0.420
42828W        W14444  33.551   1.946  10.996
42829W        W14445  30.553  39.785   3.649
42830W        W14446  21.089  34.729   1.860
42831W        W14447  26.226  21.938   3.292
42832W        W14448  28.914   8.922   0.898
42833W        W14449  28.755  12.123  13.688
42834W        W14450  21.689  38.333  12.085
42835W        W14451  22.644  32.007  12.529
42836W        W14452   3.262   1.753  11.452
42837W        W14453   8.659   3.444   1.259
42838W        W14454  29.915  20.208  14.811
42839W        W14455  13.699   8.915   0.213
42840W        W14456  37.424  15.762   0.333
42841W        W14457  33.913   3.255   0.940
42842W        W14458  33.980  35.651  11.536
42843W        W14459   1.255  32.125   4.178
42844W        W14460  30.642  31.425   2.238
42845W        W14461   6.344  41.077  11.049
42846W        W14462  35.041  16.567  14.473
42847W        W14463  23.499  17.753  10.564
42848W        W14464  11.781  30.674  13.844
42849W        W14465   2.202  16.727   3.787
42850W        W14466  42.939  12.897  14.477
42851W        W14467   3.831   3.355   2.667
42852W        W14468  24.592  32.275   1.049
42853W        W14469  13.367   2.992   4.730
42854W        W14470   1.039  14.210   1.879
42855W        W14471  43.287   4.476  11.229
42856W        W14472  41.942  38.772  11.100
42857W        W14473   9.271  36.119  13.877
42858W        W14474   2.207  33.750  13.912
42859W        W14475  26.070   0.828  12.040
42860W        W14476  32.985  22.059   3.287
42861W        W14477   2.189  23.671   2.381
42862W        W14478  14.673  21.263  11.649
42863W        W14479  44.474   2.896  14.266
42864W        W14480  37.470  25.616   1.759
42865W        W14481  24.959  41.338  10.658
42866W        W14482  44.914  24.873  12.059
42867W        W14483  37.630  21.566  14.808
42868W        W14484  22.161  30.416   0.933
42869W        W14485  30.941   9.711   3.301
42870W        W14486  28.119  34.363  10.639
42871W        W14487  13.233  43.328  14.514
42872W        W14488   4.669  30.924   3.930
42873W        W14489  42.248  43.869  10.598
42874W        W14490   0.769  42.524   4.207
42875W        W14491   5.362   2.020   3.736
42876W        W14492  25.632  23.332  11.130
42877W        W14493   0.369  33.861   5.005
42878W        W14494  19.213   9.951   1.215
42879W        W14495   9.393   8.877  10.738
42880W        W14496  10.976  28.195  14.407
42881W        W14497   0.454  37.227   3.038
42882W        W14498  20.295  24.950   4.731
42883W        W14499   1.351  17.956  12.894
42884W        W14500  44.447   8.263  14.670
42885W        W14501  19.820  17.681   1.424
42886W        W14502  14.800  29.944   1.972
42887W        W14503  31.149  14.951   3.627
42888W        W14504   2.367  31.634  10.939
42889W        W14505  30.444  15.161  13.354
42890W        W14506  10.503  37.647  13.369
42891W        W14507  18.164  11.336   2.787
42892W        W14508  27.638  44.662  10.655
42893W        W14509  35.223  31.046   1.326
42894W        W14510  44.427  33.443  11.079
42895W        W14511  37.861  13.840   4.249
42896W        W14512   7.463  38.984  10.622
42897W        W14513  25.854  43.762   0.974
42898W        W14514  18.161   6.844  10.769
42899W        W14515  29.881  16.712   4.829
42900W        W14516   2.232  25.516   4.742
42901W        W14517  15.896  40.055  13.529
42902W        W14518  18.808   4.392  12.352
42903W        W14519   8.331  43.965   2.912
42904W        W14520   1.689  40.343   0.658
42905W        W14521  27.966   0.362  12.924
42906W        W14522   0.776   3.347  13.525
42907W        W14523  36.979  19.682  14.463
42908W        W14524  44.563   6.292  14.369
42909W        W14525  28.901  26.004   4.525
42910W        W14526  17.206  22.238   4.956
42911W        W14527  20.218  15.882  12.585
42912W        W14528  30.539  30.829   3.655
42913W        W14529   6.960   6.796  14.041
42914W        W14530  12.480  26.611   4.739
42915W        W14531   3.951  19.602  13.436
42916W        W14532  10.764  16.624  11.674
42917W        W14533  16.195  22.062   0.995
42918W        W14534  23.861  28.986  13.377
42919W        W14535  14.580  33.024   2.587
42920W        W14536  20.573  18.711   1.499
42921W        W14537  13.720  17.883   3.509
42922W        W14538  26.231  21.413   3.428
42923W        W14539   3.232   9.013   2.335
42924W        W14540  11.781  33.932   0.647
42925W        W14541  15.416  29.039  11.642
42926W        W14542  35.440  13.828  11.045
42927W        W14543  28.115  41.388   0.389
42928W        W14544   9.054  12.894  14.332
42929W        W14545  18.565   5.743  10.666
42930W        W14546  29.497  30.459  10.133
42931W        W14547   9.706  41.833   3.519
42932W        W14548  38.633  40.711  11.964
42933W        W14549  29.535  29.673  13.947
42934W        W14550  24.022  39.450  13.964
42935W        W14551  13.279  25.943  13.284
42936W        W14552  16.064  36.401  11.794
42937W        W14553   3.332  23.469   1.966
42938W        W14554  15.776  44.800   4.233
42939W        W14555  38.013   7.369  13.430
42940W        W14556  24.276  11.104  13.677
42941W        W14557  29.473   2.322   2.164
42942W        W14558  18.826   4.755   0.447
42943W        W14559  20.304  30.029   4.517
42944W        W14560  36.556  15.163   0.983
42945W        W14561   5.141  12.345  12.366
42946W        W14562  23.421   7.499  13.356
42947W        W14563  13.842  23.623  12.621
42948W        W14564  19.574  36.370   3.811
42949W        W14565  44.664  17.030   3.688
42950W        W14566  30.572  42.421   3.693
42951W        W14567   5.800  41.415  14.095
42952W        W14568  40.602  42.562   1.476
42953W        W14569  15.594   6.771  14.342
42954W        W14570  17.715  14.728   3.328
42955W        W14571  22.305  44.252   1.789
42956W        W14572   3.410  43.977   1.930
42957W        W14573  30.171  20.048   2.201
42958W        W14574  30.159  13.554  11.175
42959W        W14575   9.231  34.548   4.084
42960W        W14576  36.662  43.922  10.775
42961W        W14577  12.842  25.279   0.247
42962W        W14578  15.181   7.311  12.914
42963W        W14579  17.582   4.362   3.014
42964W        W14580  24.091  21.261   4.485
42965W        W14581   5.370  33.154   0.062
42966W        W14582  42.422   7.094  13.037
42967W        W14583  42.077  11.602  11.684
42968W        W14584   1.272  26.665  11.245
42969W        W14585  37.052  20.100   2.336
42970W        W14586  12.576  28.898   0.619
42971W        W14587  11.843  22.948   1.013
42972W        W14588  16.021   9.529   0.367
42973W        W14589   2.397  33.929  14.375
42974W        W14590  13.223  19.636  13.970
42975W        W14591  10.354   4.639   2.653
42976W        W14592  37.998   4.108  12.968
42977W        W14593   5.202  40.460  12.071
42978W        W14594  28.167   4.551   4.572
42979W        W14595  13.345  36.303  13.325
42980W        W14596  36.959  40.466   0.034
42981W        W14597  25.279  10.884   3.855
42982W        W14598   1.260  30.025  13.464
42983W        W14599   2.443   6.248   0.445
42984W        W14600  16.781  37.084   3.288
42985W        W14601   9.667  27.140   1.224
42986W        W14602  42.332  25.459   3.144
42987W        W14603  20.563   5.232   2.825
42988W        W14604   6.447  33.942  14.234
42989W        W14605  20.656   7.311  14.786
42990W        W14606   6.450  11.777   4.113
42991W        W14607  32.887  15.709   4.044
42992W        W14608  38.479  42.571  14.491
42993W        W14609  17.587  10.162  10.746
42994W        W14610  13.633  34.159  12.429
42995W        W14611  43.435  42.958  12.574
42996W        W14612   2.368   2.485  13.478
42997W        W14613  20.569   6.168   2.969
42998W        W14614   0.983  10.689  14.343
42999W        W14615  30.808  31.028  12.997
43000W        W14616  34.933  39.473   1.312
43001W        W14617   4.242  27.849  12.849
43002W        W14618  25.473  18.208  14.341
43003W        W14619   2.354   3.235  13.957
43004W        W14620   5.022  41.770   2.848
43005W        W14621  43.349  31.343   0.821
43006W        W14622  19.143  18.646  12.041
43007W        W14623  18.729  32.895   4.309
43008W        W14624  42.738   1.658   0.733
43009W        W14625  10.206  43.536   1.549
43010W        W14626  38.231  13.230  10.072
43011W        W14627  10.578  20.555  13.375
43012W        W14628   2.516  19.208   2.825
43013W        W14629   0.014   8.184   3.656
43014W        W14630  22.576   8.143   4.092
43015W        W14631  27.156  20.263   1.832
43016W        W14632  33.853   3.442   1.413
43017W        W14633  41.007   0.112  12.396
43018W        W14634  41.220  42.313  14.083
43019W        W14635  12.608  40.490   1.271
43020W        W14636  17.841  23.598  14.433
43021W        W14637  34.294  25.772  11.132
43022W        W14638  11.727  26.647  12.583
43023W        W14639  32.946  14.108   1.781
43024W        W14640   4.260  37.334   3.171
43025W        W14641  34.012   2.365   5.501
43026W        W14642  40.943   2.875  10.465
43027W        W14643  13.800  27.029  11.128
43028W        W14644  21.224   3.935  14.225
43029W        W14645   0.445  40.814  10.683
43030W        W14646  11.574  22.680   4.643
43031W        W14647  26.102  32.099   4.668
43032W        W14648  37.199   3.163  10.392
43033W        W14649  36.471   8.396   2.380
43034W        W14650  32.398  40.415   1.422
43035W        W14651  38.934   5.542   4.938
43036W        W14652  11.933  17.046  11.993
43037W        W14653  11.732   0.827  11.583
43038W        W14654  27.877  13.277  11.969
43039W        W14655  16.602   9.091   1.822
43040W        W14656  43.298  27.604  12.861
43041W        W14657  11.523   3.840   0.009
43042W        W14658  39.138   9.725  14.458
43043W        W14659   5.157  28.558   0.452
43044W        W14660  15.169  33.885  12.199
43045W        W14661  19.491  30.666  13.961
43046W        W14662  20.580  15.331   3.312
43047W        W14663  17.045  40.573  13.481
43048W        W14664  37.880   0.508   2.434
43049W        W14665  16.540  10.261  12.507
43050W        W14666   6.846   0.377   4.880
43051W        W14667   9.354   5.275   2.601
43052W        W14668  37.843  31.461  12.638
43053W        W14669  40.841  35.105  14.726
43054W        W14670  32.920  36.520  11.490
43055W        W14671  36.840  23.247  12.988
43056W        W14672  23.136  23.610   0.975
43057W        W14673  11.309  25.794  13.046
43058W        W14674  39.035  24.405  14.352
43059W        W14675  35.915   5.540   3.106
43060W        W14676  30.696  38.833  10.665
43061W        W14677  44.209  23.117  13.275
43062W        W14678  26.193  41.011  12.163
43063W        W14679  18.103  38.070  12.445
43064W        W14680  39.202  34.406   4.694
43065W        W14681   0.710  39.370   3.416
43066W        W14682  12.861  44.630   3.708
43067W        W14683  27.373  14.673   1.736
43068W        W14684  39.845  39.842  12.954
43069W        W14685  16.269  14.786   3.712
43070W        W14686   2.706   8.733   3.695
43071W        W14687  44.028  44.452  13.118
43072W        W14688   9.385  23.242  13.135
43073W        W14689  27.690  25.564  14.474
43074W        W14690  35.002  18.868  13.145
43075W        W14691   9.677   3.924   3.198
43076W        W14692  39.611   1.367  11.178
43077W        W14693  12.665  11.220   0.480
43078W        W14694   2.776  44.450   4.040
43079W        W14695  33.488  11.889   0.633
43080W        W14696  25.107  27.943   2.770
43081W        W14697  19.773  23.862  13.285
43082W        W14698  33.164  30.650  12.958
43083W        W14699   5.383   1.826  12.173
43084W        W14700  36.003  35.828   2.397
43085W        W14701  29.116  41.810   1.890
43086W        W14702  11.159  12.062  12.920
43087W        W14703  32.515   3.681  11.684
43088W        W14704  21.534  16.697   1.249
43089W        W14705   2.999  34.769   0.592
43090W        W14706  26.550   5.189   3.182
43091W        W14707  30.945  14.643  14.427
43092W        W14708  28.302  17.220   5.058
43093W        W14709  17.765   9.549   4.826
43094W        W14710  42.553  37.994   5.416
43095W        W14711   5.669  32.401  12.950
43096W        W14712  38.336   9.352  13.981
43097W        W14713  43.771  29.993   0.950
43098W        W14714  37.118  32.924   3.864
43099W        W14715  17.247  33.350  14.603
43100W        W14716   7.683  15.166  12.100
43101W        W14717   2.145  38.951  10.665
43102W        W14718   4.229   2.536   1.315
43103W        W14719   4.394  25.413  14.797
43104W        W14720  25.062  28.067   1.254
43105W        W14721   5.242  18.166  11.695
43106W        W14722   7.365  12.567  14.288
43107W        W14723  25.385  18.078   2.273
43108W        W14724   3.427  19.696   0.590
43109W        W14725   0.222  41.813   3.252
43110W        W14726   0.801  23.226  10.270
43111W        W14727  18.629  28.497   0.230
43112W        W14728  12.151  11.246   0.646
43113W        W14729  21.221  12.206   4.070
43114W        W14730  18.216  31.120   1.859
43115W        W14731   1.422  24.168  13.446
43116W        W14732  44.889   1.479  11.006
43117W        W14733  43.192  25.062  11.668
43118W        W14734  38.908  32.612   1.900
43119W        W14735  41.339  10.253   3.086
43120W        W14736  20.530  36.551   1.129
43121W        W14737  13.736  39.707   0.987
43122W        W14738  26.282  25.705  14.461
43123W        W14739  14.542  15.106   3.800
43124W        W14740  37.623  11.878  14.493
43125W        W14741  29.352  33.059   1.745
43126W        W14742  38.512  10.814  13.467
43127W        W14743  15.663  32.558  10.152
43128W        W14744   7.290   1.399   1.711
43129W        W14745   3.285  41.235  14.325
43130W        W14746  43.500  40.755   0.327
43131W        W14747  13.143  27.923  14.711
43132W        W14748  33.983  41.455   1.435
43133W        W14749  14.177  43.319  14.473
43134W        W14750   3.878  15.528   2.199
43135W        W14751   2.265  31.553  13.476
43136W        W14752  32.962   7.285   2.794
43137W        W14753  16.634  21.755   0.967
43138W        W14754   2.470  29.267  12.549
43139W        W14755  15.847  29.724   2.821
43140W        W14756  22.934   2.912  10.131
43141W        W14757  11.209   6.545   0.927
43142W        W14758   2.402  31.330   2.334
43143W        W14759   4.339  14.580  11.521
43144W        W14760  21.717   0.047   3.263
43145W        W14761  40.533  30.984  12.041
43146W        W14762  15.945  14.393  11.594
43147W        W14763   0.249   0.880   3.658
43148W        W14764  15.870  20.143  11.595
43149W        W14765  44.718  44.344  11.644
43150W        W14766  35.580  19.994   0.249
43151W        W14767  21.977  38.798  10.831
43152W        W14768  41.591  36.082  11.518
43153W        W14769  29.549  28.719  13.282
43154W        W14770   0.586  11.948  10.217
43155W        W14771  18.663  19.825   1.534
43156W        W14772  35.960  11.177   0.684
43157W        W14773   4.415   0.677  14.768
43158W        W14774  36.946  19.170  12.705
43159W        W14775  17.594  38.815   3.794
43160W        W14776  13.052   5.706  11.938
43161W        W14777  11.930  16.287  12.410
43162W        W14778  31.912  43.777   1.139
43163W        W14779  29.477  22.736   3.117
43164W        W14780  40.391  35.119   3.040
43165W        W14781  17.238  43.475   2.236
43166W        W14782  36.817  29.984   2.088
43167W        W14783  35.094  30.593   2.350
43168W        W14784  23.475   8.841   4.042
43169W        W14785  34.967  16.977   2.182
43170W        W14786  28.536   5.816  13.574
43171W        W14787  32.140  35.069  10.558
43172W        W14788  13.865   7.277  12.347
43173W        W14789  29.462  19.812   2.696
43174W        W14790   4.290  24.383  14.858
43175W        W14791   0.613  36.874  11.336
43176W        W14792  12.754   5.290  11.991
43177W        W14793  36.267   6.336   3.314
43178W        W14794  20.487  43.435  11.497
43179W        W14795   8.676  44.159   1.135
43180W        W14796  24.422   7.267  13.418
43181W        W14797   5.355   0.734  11.779
43182W        W14798   1.864  26.533   1.722
43183W        W14799  22.451  28.945  11.077
43184W        W14800  25.206  40.809   4.151
43185W        W14801  36.169  27.761   2.980
43186W        W14802  24.804  35.870   1.476
43187W        W14803   4.205  28.053   2.823
43188W        W14804  33.104  15.971   3.123
43189W        W14805  18.177  19.706   1.336
43190W        W14806  36.910  18.261  10.914
43191W        W14807   5.207  40.234  11.174
43192W        W14808  40.767  26.258  11.631
43193W        W14809   7.261  18.086  11.445
43194W        W14810   0.410  12.484  12.886
43195W        W14811  44.600  16.726  14.816
43196W        W14812  30.178  43.835  14.689
43197W        W14813  30.349  13.203   3.851
43198W        W14814  22.509  18.333   2.714
43199W        W14815   6.644   8.025   2.992
43200W        W14816  15.841  31.619  14.311
43201W        W14817   0.059   1.201   1.000
43202W        W14818  20.050   9.384   3.954
43203W        W14819  19.971  24.325  13.947
43204W        W14820   7.117  31.694  12.460
43205W        W14821  26.619  31.538  14.742
43206W        W14822  18.093  43.829  11.459
43207W        W14823  34.153  33.141  12.414
43208W        W14824   0.308   2.510  12.913
43209W        W14825   1.392  21.212   1.866
43210W        W14826   3.444  41.882  11.989
43211W        W14827  17.063  13.872   2.893
43212W        W14828  21.343   2.046   2.706
43213W        W14829  37.628  24.906   2.317
43214W        W14830  28.427  20.921   3.534
43215W        W14831  18.585   1.886   2.633
43216W        W14832  17.054  24.276   4.186
43217W        W14833  38.783  43.776   1.805
43218W        W14834   4.865  40.383   0.841
43219W        W14835   5.306  39.992  11.793
43220W        W14836  25.650  19.230   1.471
43221W        W14837  17.604   4.465  14.934
43222W        W14838  28.018  22.977  10.613
43223W        W14839  30.033  37.190  10.374
43224W        W14840  40.330   3.831   0.515
43225W        W14841  29.967  38.691   0.898
43226W        W14842  41.722  33.946   1.442
43227W        W14843   9.569   7.724  12.462
43228W        W14844   1.920  37.079  10.799
43229W        W14845  20.101  17.285   0.030
43230W        W14846  14.913  40.350   2.816
43231W        W14847  43.940   9.957   2.714
43232W        W14848  14.870  25.384   4.582
43233W        W14849  44.813  24.047  12.797
43234W        W14850  29.623   2.410   2.640
43235W        W14851  44.973  18.531  12.615
43236W        W14852  15.827   5.755   1.220
43237W        W14853   5.301  27.750   1.771
43238W        W14854  30.981  26.525  11.749
43239W        W14855  25.947  16.746   2.414
43240W        W14856  23.516  44.783   2.235
43241W        W14857  38.378  27.505   0.759
43242W        W14858   1.878  21.757  13.314
43243W        W14859  17.490  40.002   0.247
43244W        W14860  14.006  34.946  13.072
43245W        W14861   8.411  14.217   2.686
43246W        W14862   6.268  32.122  10.684
43247W        W14863  37.548  27.957  12.078
43248W        W14864  16.434  36.134   2.337
43249W        W14865  39.126  17.000   0.331
43250W        W14866  39.249  29.934  11.112
43251W        W14867  33.483  27.237   0.269
43252W        W14868  22.553  18.689  13.428
43253W        W14869  43.117  31.517  11.614
43254W        W14870  23.804  39.037   3.598
43255W        W14871  30.096   0.026   1.277
43256W        W14872  35.127  13.163  12.174
43257W        W14873  31.708  30.156   4.960
43258W        W14874  37.022   2.437  13.075
43259W        W14875   2.285  44.607   3.722
43260W        W14876   2.777  36.961   0.635
43261W        W14877  28.999   8.930   1.810
43262W        W14878  13.349   0.908   4.120
43263W        W14879   7.811   5.162  11.162
43264W        W14880   4.049  31.564  11.221
43265W        W14881  15.336  26.465   0.775
43266W        W14882   6.496  12.345  12.064
43267W        W14883  17.325  26.675   3.211
43268W        W14884   0.584   9.914   0.024
43269W        W14885  44.907  12.097  13.575
43270W        W14886   9.383  26.427  14.459
43271W        W14887  26.918  41.388  12.307
43272W        W14888  34.340  36.307  14.864
43273W        W14889  26.582  34.389   2.520
43274W        W14890  41.316  38.977   3.751
43275W        W14891  22.076  21.933  13.588
43276W        W14892  11.346   1.245   0.446
43277W        W14893  35.849  32.386   2.336
43278W        W14894  42.919   8.347   3.583
43279W        W14895  18.312  10.038  13.379
43280W        W14896  39.855   5.830  14.764
43281W        W14897  20.364  15.514   0.008
43282W        W14898  39.296  26.085   0.002
43283W        W14899  11.211  33.573   4.705
43284W        W14900  29.591  15.163   3.280
43285W        W14901  28.389  27.927  14.968
43286W        W14902  38.922   8.135  11.116
43287W        W14903   2.125   1.783   4.237
43288W        W14904   9.892   6.424   1.674
43289W        W14905  18.299   0.432   3.161
43290W        W14906   7.327  16.582   0.926
43291W        W14907  21.967  13.720  13.982
43292W        W14908   5.772  13.442   4.199
43293W        W14909  29.931  16.364  11.981
43294W        W14910   5.456  31.018   2.134
43295W        W14911   3.331  40.275  14.561
43296W        W14912  21.040  38.522  13.972
43297W        W14913   8.774  21.715   2.737
43298W        W14914  12.727  43.489  14.509
43299W        W14915  26.950   7.529   1.704
43300W        W14916  18.828  24.743  11.023
43301W        W14917   7.204  37.060   2.296
43302W        W14918  26.291  26.917  13.097
43303W        W14919  36.030   2.471  12.999
43304W        W14920  34.521  29.610   0.282
43305W        W14921   6.576  10.258   2.116
43306W        W14922   4.991   6.618  14.924
43307W        W14923  20.003   8.812  13.027
43308W        W14924  18.657  33.489  13.299
43309W        W14925  11.264  34.089  13.814
43310W        W14926  12.407  26.740  13.975
43311W        W14927  21.953  30.551  11.650
43312W        W14928   6.885   4.796   3.505
43313W        W14929  31.767  34.207   3.828
43314W        W14930  44.389  16.764  11.114
43315W        W14931  36.989   3.452   3.901
43316W        W14932  30.887  18.102  13.833
43317W        W14933   2.498  11.037   0.735
43318W        W14934  27.238  36.802   1.299
43319W        W14935  44.971  33.580  14.586
43320W        W14936  15.859  29.856  11.948
43321W        W14937  42.725  39.803   2.716
43322W        W14938  14.338   2.831  12.142
43323W        W14939  27.767   3.510  11.053
43324W        W14940  10.607  23.219   2.736
43325W        W14941  18.726   0.779  12.629
43326W        W14942   5.315  17.256  11.455
43327W        W14943   0.214  14.555   0.779
43328W        W14944  17.922  27.658   3.222
43329W        W14945  35.490  33.100  14.024
43330W        W14946   4.831  17.608  11.395
43331W        W14947  30.533  20.047   1.417
43332W        W14948  20.804  17.121  11.087
43333W        W14949  30.766  36.914   2.365
43334W        W14950  36.131  37.138  12.412
43335W        W14951  11.867  27.074  12.888
43336W        W14952  33.477   1.747   4.569
43337W        W14953  42.486  17.689  11.013
43338W        W14954   3.459  35.124   1.831
43339W        W14955   0.934   8.841  13.279
43340W        W14956   9.253   8.388  10.704
43341W        W14957  39.994  34.141  14.233
43342W        W14958  35.489  21.297   1.291
43343W        W14959  11.046  30.968  10.597
43344W        W14960  36.970  30.372   1.787
43345W        W14961  29.987  15.239   4.646
43346W        W14962  14.651  42.029  13.237
43347W        W14963  27.628  37.572   0.810
43348W        W14964  38.771  41.249   4.640
43349W        W14965  10.993   6.377   4.747
43350W        W14966  21.626  21.749  10.515
43351W        W14967  27.564  18.096  14.332
43352W        W14968  21.899  41.113   5.213
43353W        W14969  18.735   4.009  10.990
43354W        W14970   0.541   4.715  11.982
43355W        W14971  19.864  17.035  13.892
43356W        W14972   1.975  25.004   1.556
43357W        W14973   6.428  16.079   3.571
43358W        W14974  27.173  17.319   3.343
43359W        W14975   0.783  23.212  11.007
43360W        W14976  10.152  11.743  14.810
43361W        W14977  12.369   9.604   2.726
43362W        W14978   7.723  11.869  10.861
43363W        W14979  19.541  16.914   4.203
43364W        W14980  34.410  12.808  11.116
43365W        W14981  11.278  35.758  13.366
43366W        W14982  42.275  29.872  11.893
43367W        W14983  40.325  14.761   4.904
43368W        W14984  18.686   6.760   1.819
43369W        W14985  27.664   7.919  10.589
43370W        W14986  36.775  29.072  11.110
43371W        W14987  41.318  29.413  13.942
43372W        W14988  33.142   3.657  10.470
43373W        W14989  23.244  19.206  14.784
43374W        W14990   2.332  19.206   1.582
43375W        W14991  17.593  31.117  14.471
43376W        W14992  24.489   3.334   4.103
43377W        W14993  16.098  40.243  14.436
43378W        W14994  38.819  32.088  10.430
43379W        W14995   8.642   1.718  14.751
43380W        W14996  10.587  25.646   0.201
43381W        W14997  11.416  34.851  13.355
43382W        W14998  22.326  13.540  14.860
43383W        W14999  30.577  32.449  14.853
43384W        W15000   4.776  15.907   3.717
43385W        W15001  21.192  16.118   3.231
43386W        W15002  29.475  22.457   2.145
43387W        W15003  39.313  24.298   4.161
43388W        W15004  34.111  37.221  12.550
43389W        W15005  35.030  14.100   4.415
43390W        W15006  15.072  19.510   2.849
43391W        W15007  36.131  19.073  14.916
43392W        W15008  44.630  23.070   0.318
43393W        W15009  24.324   3.949  13.398
43394W        W15010  15.288  22.088  13.394
43395W        W15011  19.197  41.327   2.683
43396W        W15012  36.090  32.346   1.430
43397W        W15013  20.981  38.967   4.529
43398W        W15014  35.410  12.682   1.837
43399W        W15015  38.449   1.505   2.792
43400W        W15016  31.903  31.061  14.832
43401W        W15017  32.401   6.797  14.437
43402W        W15018   5.850   4.090   0.905
43403W        W15019  29.112  18.698   4.076
43404W        W15020  28.721  12.571   1.036
43405W        W15021  13.202   5.274  12.498
43406W        W15022  41.349  42.739   1.867
43407W        W15023  14.108  29.221  13.818
43408W        W15024  37.341  39.411   3.639
43409W        W15025   3.960  20.781  12.978
43410W        W15026  14.570  39.062   4.900
43411W        W15027  44.727  16.884  13.698
43412W        W15028  23.075  16.888   4.207
43413W        W15029  21.088  20.778  14.511
43414W        W15030  36.218  34.580  11.913
43415W        W15031  20.270  27.664  10.504
43416W        W15032  43.845   4.097  13.400
43417W        W15033  22.525  39.743  11.975
43418W        W15034  12.955  43.426  14.960
43419W        W15035  21.097  14.144   3.214
43420W        W15036  20.631   8.167  13.072
43421W        W15037  38.159  23.733   1.041
43422W        W15038  38.154  14.141  12.409
43423W        W15039  17.992  32.622   4.617
43424W        W15040  29.685   6.883   1.333
43425W        W15041  17.131  35.401   1.694
43426W        W15042  22.902  29.032  12.157
43427W        W15043  40.914  15.650   4.415
43428W        W15044  12.871   7.736  12.838
43429W        W15045   1.007  35.913  14.287
43430W        W15046  36.929  31.017  14.770
43431W        W15047  17.144   2.023   4.368
43432W        W15048  28.588  41.025  11.845
43433W        W15049  16.367  36.059  14.272
43434W        W15050  31.033   3.225   3.756
43435W        W15051  29.520  23.750   1.396
43436W        W15052   6.674  31.938   3.436
43437W        W15053  30.152  18.487   4.139
43438W        W15054  41.491  40.159   3.896
43439W        W15055   3.960  37.805   2.223
43440W        W15056   6.897  28.139  13.804
43441W        W15057  15.987  41.857  13.487
43442W        W15058  40.696  11.325   2.623
43443W        W15059  15.190  23.758   2.328
43444W        W15060   7.667  42.941   2.427
43445W        W15061  35.683  36.948  14.412
43446W        W15062  26.599  17.653  14.624
43447W        W15063  29.997  33.446   4.679
43448W        W15064  36.717   6.756  11.993
43449W        W15065   4.674   3.430  14.299
43450W        W15066  22.106   0.623  12.119
43451W        W15067  15.216  34.507   3.117
43452W        W15068   2.418  26.470  12.424
43453W        W15069   9.827  22.975  12.391
43454W        W15070   7.360  35.960  12.455
43455W        W15071  10.293  35.322  14.078
43456W        W15072  13.305  27.680   1.619
43457W        W15073   4.829  40.119  12.083
43458W        W15074  36.902   9.716   4.661
43459W        W15075  42.036  25.462   4.130
43460W        W15076  27.990  12.575  14.294
43461W        W15077  19.778  29.553   3.105
43462W        W15078   4.842  42.652  12.140
43463W        W15079  36.897  21.431   2.806
43464W        W15080  33.034  40.445  12.052
43465W        W15081  25.462  32.706  12.119
43466W        W15082   0.648  35.537   1.813
43467W        W15083  40.584  24.537  12.457
43468W        W15084  36.269  33.833   4.664
43469W        W15085  20.037  13.684  14.374
43470W        W15086  35.067  29.476  11.577
43471W        W15087  21.448  22.525   1.760
43472W        W15088   3.371  17.800  14.104
43473W        W15089   5.443  17.494   1.328
43474W        W15090  23.343  25.251   4.074
43475W        W15091  24.704  39.864   3.494
43476W        W15092  17.098  36.886   2.660
43477W        W15093  35.689  11.075  14.227
43478W        W15094  42.552  23.662   4.671
43479W        W15095   1.161  13.164   2.498
43480W        W15096  41.546  19.306  12.336
43481W        W15097  22.006  15.345   2.326
43482W        W15098  39.074  32.239   2.256
43483W        W15099  32.844  17.465   2.174
43484W        W15100  44.575  33.290  14.363
43485W        W15101  11.558  37.826   0.785
43486W        W15102  21.734  13.519   0.717
43487W        W15103   2.446  21.975  12.947
43488W        W15104   4.451  38.981   3.470
43489W        W15105  28.981  26.229   2.231
43490W        W15106  16.620   4.245  13.846
43491W        W15107  37.849  17.077   3.699
43492W        W15108  26.900   5.779   1.564
43493W        W15109  37.808  42.562   0.724
43494W        W15110   7.607   2.899  10.953
43495W        W15111  38.989  21.889  14.454
43496W        W15112  12.596   1.532   4.174
43497W        W15113   2.976  22.263  11.564
43498W        W15114  41.881  39.796   5.102
43499W        W15115  38.239   2.484   1.842
43500W        W15116  21.079  34.896  10.489
43501W        W15117  36.025  10.160   0.580
43502W        W15118  28.113   0.880   4.585
43503W        W15119   0.299  34.863  11.400
43504W        W15120  16.699  31.203   4.392
43505W        W15121  44.241  40.946  11.967
43506W        W15122  27.779  11.824  12.815
43507W        W15123  15.585  20.615  10.831
43508W        W15124   3.551  14.232   2.790
43509W        W15125   9.356   9.893   0.201
43510W        W15126  14.059   0.451   2.342
43511W        W15127  15.323  14.581  11.104
43512W        W15128  43.096   5.123   2.449
43513W        W15129  13.153  33.525  10.755
43514W        W15130  34.525  30.649   3.625
43515W        W15131  18.305  20.744  12.959
43516W        W15132  23.761  19.540   3.091
43517W        W15133  10.309  18.436   4.980
43518W        W15134  11.810  33.413   0.905
43519W        W15135   5.636  44.867   3.727
43520W        W15136   9.702   4.310  14.911
43521W        W15137  36.261  44.046  14.944
43522W        W15138   2.300  24.985  10.691
43523W        W15139  41.377  36.854   1.534
43524W        W15140  36.327  12.792   2.356
43525W        W15141  33.793  42.513   4.714
43526W        W15142  41.311  25.667   1.873
43527W        W15143  38.071  36.545   0.451
43528W        W15144  30.976  13.048  13.617
43529W        W15145  19.154  10.096   4.489
43530W        W15146  40.932  28.958  13.884
43531W        W15147  23.086  30.768   4.350
43532W        W15148  41.618  19.798  12.448
43533W        W15149  22.307   7.221  12.625
43534W        W15150  11.194  31.459  12.590
43535W        W15151   0.941   7.344   4.460
43536W        W15152  20.149  23.505   0.949
43537W        W15153  29.843  26.998   2.106
43538W        W15154  40.471  25.445   0.510
43539W        W15155  40.531  35.043  13.349
43540W        W15156   6.195   5.943  10.959
43541W        W15157  30.370  16.109  13.765
43542W        W15158  29.381  27.657  11.938
43543W        W15159  11.355   4.945  11.549
43544W        W15160  11.244   1.438  10.569
43545W        W15161   8.768   3.969  12.372
43546W        W15162  37.425  37.562   3.716
43547W        W15163  34.493  16.689  11.865
43548W        W15164  13.654  43.848   4.714
43549W        W15165  21.700  31.722  14.951
43550W        W15166  17.277  31.656  10.259
43551W        W15167  28.105  23.389   4.474
43552W        W15168   0.329  36.710   0.793
43553W        W15169  25.890  40.472   4.815
43554W        W15170  30.418   9.782   0.319
43555W        W15171  32.978   9.606   0.828
43556W        W15172   3.023   9.279  13.929
43557W        W15173  30.202  41.006   3.801
43558W        W15174  44.998   5.136  11.484
43559W        W15175  37.537  44.377  11.170
43560W        W15176  21.364  35.497   1.042
43561W        W15177  32.453   4.885   3.666
43562W        W15178   3.468  33.658   2.826
43563W        W15179   0.989  32.649   2.198
43564W        W15180  41.416  14.374   3.596
43565W        W15181  44.996  20.551   1.881
43566W        W15182  12.904  18.885   3.190
43567W        W15183  35.585  19.537   1.867
43568W        W15184   4.756  22.015   0.211
43569W        W15185  36.399  23.092  11.650
43570W        W15186  20.914  21.056  11.251
43571W        W15187  25.891  14.555   5.064
43572W        W15188  39.806  35.323  11.502
43573W        W15189  34.972  12.717   3.596
43574W        W15190   2.857  36.914  14.650
43575W        W15191  20.853   9.755   4.877
43576W        W15192   4.671  16.251   1.318
43577W        W15193  19.046  33.310   1.909
43578W        W15194   3.667  18.651  13.359
43579W        W15195  20.230   0.406   0.919
43580W        W15196  42.194  16.846  10.973
43581W        W15197  10.443  37.376   1.846
43582W        W15198  43.816   0.877   4.370
43583W        W15199  25.667  43.003  14.976
43584W        W15200  22.599  12.619  13.063
43585W        W15201  28.378  17.566   1.627
43586W        W15202  21.264   5.250   0.181
43587W        W15203  29.630   8.948  14.474
43588W        W15204   2.967  34.499  11.897
43589W        W15205  38.905  31.708  11.173
43590W        W15206   0.317  38.153  11.991
43591W        W15207  12.682  13.214   1.902
43592W        W15208  26.050  41.755   1.242
43593W        W15209  17.571  17.631   1.790
43594W        W15210  10.892   8.385   1.446
43595W        W15211  42.683  12.220  12.514
43596W        W15212  10.470  26.700   3.712
43597W        W15213  34.594  12.678   4.952
43598W        W15214  35.387  43.442  13.453
43599W        W15215  10.219   8.794   1.415
43600W        W15216  33.815  25.452  12.095
43601W        W15217   0.485   1.429  11.540
43602W        W15218   0.406  24.309   4.584
43603W        W15219  33.889  25.691   3.354
43604W        W15220  17.061  16.551   3.243
43605W        W15221  14.612  31.088  11.450
43606W        W15222  20.312  18.263  10.667
43607W        W15223  17.114  24.212   0.766
43608W        W15224  17.580  14.733  13.794
43609W        W15225  43.848  41.852  12.779
43610W        W15226  25.129   5.317   4.485
43611W        W15227  43.686  17.562  14.008
43612W        W15228  33.379  41.050  10.802
43613W        W15229  30.476  43.843  12.008
43614W        W15230  44.472  26.196  14.278
43615W        W15231  27.232  29.009  14.768
43616W        W15232  30.596  26.705  10.505
43617W        W15233  23.656  33.081   0.160
43618W        W15234  35.970  30.652   2.502
43619W        W15235  20.770  21.244   2.737
43620W        W15236  39.276  37.891  11.184
43621W        W15237  15.409  26.184  11.964
43622W        W15238  42.824   1.834  10.663
43623W        W15239  13.932  17.112   4.767
43624W        W15240  39.381  43.201  11.125
43625W        W15241   0.492   0.943   0.843
43626W        W15242  18.746  23.511   1.350
43627W        W15243  16.600  42.573  12.030
43628W        W15244  39.054   6.195   1.082
43629W        W15245  44.823  12.306  10.513
43630W        W15246  39.544  29.928  11.556
43631W        W15247   4.197  19.658  14.531
43632W        W15248  13.708  11.366  12.918
43633W        W15249  44.830  34.567   4.681
43634W        W15250   2.734  12.664  10.911
43635W        W15251  33.857   3.829   4.118
43636W        W15252  33.122  42.770   3.159
43637W        W15253  18.139  10.450  11.608
43638W        W15254  33.535  13.653  11.592
43639W        W15255  24.710  11.138   2.771
43640W        W15256  14.185   2.033  13.039
43641W        W15257  34.285   1.212  11.151
43642W        W15258  40.722  11.146  13.910
43643W        W15259  11.642  14.060   4.085
43644W        W15260  29.180  17.703   4.945
43645W        W15261  17.400  12.610  13.763
43646W        W15262   5.365  24.171   0.674
43647W        W15263  16.596   3.182   2.534
43648W        W15264  31.636  29.819   1.448
43649W        W15265  40.591  15.236   4.568
43650W        W15266   2.005   1.057   1.476
43651W        W15267  25.110  41.354   1.488
43652W        W15268   4.412  28.453  14.004
43653W        W15269  18.286   9.906  10.519
43654W        W15270  12.788  18.466   1.066
43655W        W15271  10.221  27.646   3.605
43656W        W15272   1.819  41.863   1.794
43657W        W15273  44.426  11.019  11.985
43658W        W15274  14.124  41.274   0.969
43659W        W15275  41.731  22.112   3.721
43660W        W15276  34.352  12.586  11.628
43661W        W15277   9.836  44.836   0.021
43662W        W15278  44.009  30.513   1.794
43663W        W15279  39.093  27.629   4.595
43664W        W15280  26.482   7.833  12.948
43665W        W15281  11.351  36.024  14.801
43666W        W15282  22.796  44.775   3.367
43667W        W15283  26.853  14.286  10.974
43668W        W15284   4.301   0.662   5.147
43669W        W15285   3.671  44.103  14.420
43670W        W15286  43.321  39.613  14.942
43671W        W15287   5.359  17.077   1.618
43672W        W15288  26.196  44.231   2.192
43673W        W15289  38.153  43.474   0.931
43674W        W15290   7.743   8.759  12.082
43675W        W15291  17.813  38.898   4.265
43676W        W15292   0.404   0.714  12.586
43677W        W15293  23.774  39.083  13.419
43678W        W15294  32.343  42.833   0.065
43679W        W15295  39.537  14.652   0.319
43680W        W15296   3.521  20.306  14.951
43681W        W15297  15.200  33.375  13.624
43682W        W15298  33.553  30.024   9.913
43683W        W15299   2.030  35.463   4.693
43684W        W15300  35.582  11.412   2.151
43685W        W15301  26.419  34.505   3.531
43686W        W15302  42.893  30.122   1.123
43687W        W15303  20.053  26.023  12.872
43688W        W15304  30.835  15.264  13.050
43689W        W15305  25.197  43.280   4.565
43690W        W15306  30.379  22.478   2.618
43691W        W15307  28.946  41.509  12.495
43692W        W15308   1.013  25.699   3.362
43693W        W15309  41.552  19.601  13.856
43694W        W15310  20.389   5.076  10.225
43695W        W15311  32.855  29.796  13.913
43696W        W15312  41.091  38.011   1.975
43697W        W15313  38.551  29.915  13.493
43698W        W15314  24.643  17.505   3.793
43699W        W15315  23.987   2.535  13.425
43700W        W15316  26.010  41.338   4.275
43701W        W15317   9.883  23.755  11.083
43702W        W15318   0.433  21.050   2.290
43703W        W15319  29.470   5.934  14.528
43704W        W15320  20.595  43.697   0.683
43705W        W15321  21.372   1.702  13.988
43706W        W15322  38.149  37.138  11.455
43707W        W15323   8.304  32.993  10.875
43708W        W15324  27.917  32.891   0.687
43709W        W15325   5.912  12.760   2.929
43710W        W15326  36.490  23.743  11.225
43711W        W15327   5.181  10.992   0.974
43712W        W15328   8.728   6.915  14.457
43713W        W15329  35.645  21.874  13.831
43714W        W15330   2.718  11.258  13.111
43715W        W15331  34.321  44.164   4.279
43716W        W15332   6.752  21.555   3.441
43717W        W15333   6.640  44.312  12.046
43718W        W15334  25.513  34.610  10.697
43719W        W15335   4.414  18.059   4.736
43720W        W15336   6.938  34.446  13.955
43721W        W15337  31.909  15.889  13.380
43722W        W15338  29.725   6.098   0.919
43723W        W15339  42.776  36.593  12.579
43724W        W15340  35.973  35.080  13.087
43725W        W15341  16.231   9.379   2.707
43726W        W15342   2.947  28.558  10.752
43727W        W15343  43.035  12.593  11.973
43728W        W15344  24.931  30.983   1.166
43729W        W15345  34.512   0.386   3.746
43730W        W15346   8.417  19.732   0.627
43731W        W15347   8.926   8.202  14.237
43732W        W15348  33.465  11.589  12.082
43733W        W15349  42.556  14.315   1.790
43734W        W15350   1.945  24.411  10.145
43735W        W15351   8.767  39.459   0.606
43736W        W15352   2.259  25.504  13.517
43737W        W15353   1.465  43.228  12.535
43738W        W15354  10.191   4.032  13.324
43739W        W15355   2.026  38.143   4.487
43740W        W15356  21.713  38.040   2.809
43741W        W15357  30.614  10.421   2.888
43742W        W15358  13.148   4.214  12.064
43743W        W15359  20.996   6.354  11.670
43744W        W15360  20.390  26.441  12.938
43745W        W15361  14.326   7.680  13.963
43746W        W15362  18.663  14.848  10.886
43747W        W15363  24.632  10.671  10.995
43748W        W15364  37.693  15.316   3.367
43749W        W15365  18.129  39.467  11.726
43750W        W15366  30.111  27.376  14.126
43751W        W15367  27.995  38.284   4.665
43752W        W15368  31.539   8.907   3.085
43753W        W15369  40.981  20.461   0.964
43754W        W15370  23.658  11.489  12.039
43755W        W15371  29.526  27.604   1.387
43756W        W15372   8.584  29.013   1.751
43757W        W15373  41.564  17.302   1.348
43758W        W15374   6.669   3.794  14.272
43759W        W15375  37.892  11.299   4.126
43760W        W15376   6.295  28.912  14.048
43761W        W15377  16.805   1.135   0.438
43762W        W15378  21.478  32.737  12.893
43763W        W15379   4.822  15.107  10.270
43764W        W15380  40.532  11.652   9.965
43765W        W15381  30.395  28.964   0.267
43766W        W15382   3.814  16.221   3.918
43767W        W15383  30.476  22.983  13.789
43768W        W15384  20.192   8.949  12.552
43769W        W15385  30.576  32.027   4.172
43770W        W15386   6.041  13.523  10.230
43771W        W15387  28.151  40.509   2.852
43772W        W15388  15.498   0.805   4.507
43773W        W15389   7.307  31.073  11.132
43774W        W15390  30.517  43.234  11.329
43775W        W15391  30.632  16.884  11.472
43776W        W15392   5.488  25.159  13.888
43777W        W15393  14.628  23.670  12.159
43778W        W15394  34.623  25.282  14.660
43779W        W15395   6.844  20.563   0.783
43780W        W15396  15.028   5.455  12.392
43781W        W15397  25.862  44.019   1.849
43782W        W15398   7.769  42.617   3.717
43783W        W15399  20.330  41.837   0.220
43784W        W15400  21.472  43.810  12.176
43785W        W15401   5.940  21.051   1.867
43786W        W15402  23.247  43.523  13.598
43787W        W15403  22.580  28.150   2.815
43788W        W15404  21.881  15.344  13.087
43789W        W15405  27.439  16.781   2.904
43790W        W15406  11.418  37.781  12.417
43791W        W15407  41.510  23.098   0.458
43792W        W15408  27.299  17.826   3.375
43793W        W15409  40.884  44.773   4.865
43794W        W15410  30.707  28.482  14.591
43795W        W15411  33.548  19.451  14.927
43796W        W15412  15.734  16.790   3.891
43797W        W15413  34.895  43.539  13.372
43798W        W15414   9.580  14.763  13.605
43799W        W15415  17.657   2.484  12.012
43800W        W15416  12.128  25.658   4.509
43801W        W15417   2.356  11.794   1.812
43802W        W15418  23.753   5.944   1.377
43803W        W15419  44.213  18.036  14.386
43804W        W15420  29.235  14.730   2.188
43805W        W15421   4.751   5.350  13.386
43806W        W15422  25.001  15.784  14.885
43807W        W15423  42.406  35.876  12.032
43808W        W15424  31.119   6.864  13.833
43809W        W15425   1.163  40.087   4.129
43810W        W15426  12.193  26.850  10.862
43811W        W15427  43.764  33.671  13.256
43812W        W15428  29.808   6.213   2.964
43813W        W15429  22.323  20.375   1.447
43814W        W15430  44.211   3.811   1.799
43815W        W15431  13.672  42.950  10.714
43816W        W15432  37.831  40.570  12.466
43817W        W15433  26.655  17.627   0.775
43818W        W15434  20.034  15.126   2.299
43819W        W15435   1.921   2.005   0.037
43820W        W15436   7.118  28.715   4.154
43821W        W15437   7.864  28.181  14.862
43822W        W15438  31.650   4.234   1.884
43823W        W15439  29.518  17.677   4.164
43824W        W15440   8.081  33.439  11.096
43825W        W15441  14.313   8.867  13.014
43826W        W15442  33.528  27.724  11.577
43827W        W15443  16.422   0.028  10.735
43828W        W15444  14.885  36.559   4.034
43829W        W15445  16.699  10.628  10.411
43830W        W15446   7.338  32.543  12.614
43831W        W15447  34.433   4.858  14.269
43832W        W15448  32.633  38.106  13.320
43833W        W15449  12.696  41.892  12.939
43834W        W15450  35.502  39.015   4.907
43835W        W15451  27.538  15.512  10.405
43836W        W15452   4.503   2.971   1.207
43837W        W15453  26.213   9.311   4.088
43838W        W15454  31.950  37.055  12.917
43839W        W15455  40.998   5.088   0.230
43840W        W15456  21.158  44.760  13.883
43841W        W15457  29.887   0.530   3.589
43842W        W15458  40.305   1.029   1.928
43843W        W15459  18.545  32.727   3.771
43844W        W15460  21.663  23.208   4.083
43845W        W15461   4.315  32.715   0.741
43846W        W15462   8.761  40.392   0.241
43847W        W15463   8.732  41.529   4.600
43848W        W15464  30.491   7.960   4.391
43849W        W15465  28.098  39.098  14.851
43850W        W15466  38.337  31.579   2.205
43851W        W15467  24.227  34.022   4.096
43852W        W15468   0.168  19.549  12.121
43853W        W15469  39.534  10.914   0.470
43854W        W15470  39.042  24.752  14.705
43855W        W15471  26.215  14.181   9.820
43856W        W15472  20.089  11.311  10.964
43857W        W15473  12.227  18.214   1.794
43858W        W15474   2.161  30.662   2.820
43859W        W15475  42.325  32.012  14.440
43860W        W15476  43.270  11.657  13.079
43861W        W15477  37.415  30.119   1.914
43862W        W15478   6.493  27.985  11.156
43863W        W15479  11.252  38.840  10.740
43864W        W15480  20.782   7.243   1.290
43865W        W15481  36.884  18.274  10.366
43866W        W15482  13.206  11.404  11.116
43867W        W15483  35.337  38.878   0.389
43868W        W15484  24.149  30.628  13.355
43869W        W15485  31.101  13.605   2.347
43870W        W15486   0.467  13.827   3.702
43871W        W15487  39.048  43.141  14.190
43872W        W15488  30.313  38.365  14.240
43873W        W15489  15.250  36.930   3.902
43874W        W15490  23.735   5.494   2.238
43875W        W15491   0.064   6.129  14.517
43876W        W15492  11.722  30.619   4.563
43877W        W15493  31.755  29.520  10.125
43878W        W15494  15.063  29.632   1.653
43879W        W15495  36.126   2.945  13.944
43880W        W15496  13.259  12.269   1.186
43881W        W15497   3.208  17.764  11.494
43882W        W15498   0.338  40.903   3.245
43883W        W15499  43.324   6.417  14.756
43884W        W15500  35.489  31.151  11.977
43885W        W15501  13.767  26.179   1.328
43886W        W15502  31.979  27.951  12.893
43887W        W15503   4.741  26.858   1.532
43888W        W15504  37.286   1.214  14.337
43889W        W15505   2.374  33.539   4.665
43890W        W15506   5.130   1.636  10.620
43891W        W15507  38.847  31.640  12.167
43892W        W15508  19.583  40.330   2.639
43893W        W15509  17.451  31.426   4.131
43894W        W15510   2.358  16.740   1.444
43895W        W15511  32.950   0.841  11.445
43896W        W15512  21.493  23.278  11.664
43897W        W15513  42.808  40.362  11.728
43898W        W15514   3.420  11.147  10.983
43899W        W15515  19.097  42.363  12.532
43900W        W15516   2.893  31.681   2.426
43901W        W15517  20.675   3.726   0.495
43902W        W15518  24.962  41.474  12.050
43903W        W15519  42.216  18.786   0.862
43904W        W15520  33.414   3.558   3.261
43905W        W15521  20.552  15.777  14.423
43906W        W15522  41.216  43.963   3.717
43907W        W15523   4.295  34.312   1.360
43908W        W15524  35.048   8.730   0.990
43909W        W15525   1.072  42.750   4.590
43910W        W15526  18.005  40.973  12.756
43911W        W15527  35.378  39.336  14.363
43912W        W15528   9.633  31.533   4.310
43913W        W15529  29.596  33.424  10.145
43914W        W15530  30.674  23.503  11.123
43915W        W15531  43.810  38.119  14.343
43916W        W15532  40.912  16.724  10.584
43917W        W15533  30.516  24.193  11.912
43918W        W15534  21.750  36.102   2.739
43919W        W15535  33.340  33.834  13.843
43920W        W15536  14.126  13.006  12.029
43921W        W15537   1.935  32.643   2.153
43922W        W15538  21.524   9.186  11.597
43923W        W15539   6.751  22.240  12.888
43924W        W15540  19.247   5.953  13.720
43925W        W15541   2.452  31.754   4.570
43926W        W15542   0.774  20.209  14.445
43927W        W15543   0.397  37.315   9.739
43928W        W15544  31.474  29.872   0.958
43929W        W15545  25.815  18.191  12.066
43930W        W15546  19.465  27.307   0.855
43931W        W15547   7.732  17.304   4.210
43932W        W15548  39.017   5.450  14.220
43933W        W15549   3.865  42.389   2.919
43934W        W15550  37.040   9.181   4.727
43935W        W15551  33.164  21.378   2.708
43936W        W15552   1.002  18.107  11.932
43937W        W15553  22.520  23.686   2.955
43938W        W15554  19.263  10.070  11.148
43939W        W15555   0.627  37.849  12.395
43940W        W15556   7.878  26.511  13.605
43941W        W15557   8.146  32.304   1.288
43942W        W15558  43.406  18.163  13.226
43943W        W15559  38.375  37.841   3.244
43944W        W15560  25.499  21.733   2.316
43945W        W15561  41.532  21.495  13.868
43946W        W15562  25.944  13.101   1.834
43947W        W15563   9.728  15.811  13.066
43948W        W15564  26.685  21.257   3.674
43949W        W15565  26.551   3.787   4.109
43950W        W15566  29.493  20.800  14.351
43951W        W15567   3.196   3.921  13.549
43952W        W15568  25.028   4.871   1.416
43953W        W15569   5.899  20.590   0.556
43954W        W15570  32.653  15.887  12.994
43955W        W15571   0.471  36.377   2.790
43956W        W15572  11.734  44.530   3.485
43957W        W15573  26.550  28.364  12.072
43958W        W15574  12.334  20.169   3.169
43959W        W15575   3.434  21.634   1.823
43960W        W15576  38.960  36.084   0.536
43961W        W15577  15.424  16.337  10.548
43962W        W15578  13.350  10.375   3.543
43963W        W15579   8.753  23.770  12.390
43964W        W15580  38.512  22.226  13.138
43965W        W15581  17.499   9.560   3.973
43966W        W15582  20.788  25.770   1.223
43967W        W15583  22.304   6.269   0.492
43968W        W15584  15.695  12.737  13.506
43969W        W15585  25.892  31.624   4.840
43970W        W15586  22.820  27.143   1.301
43971W        W15587  36.679  31.447  13.982
43972W        W15588   1.140  40.318  14.232
43973W        W15589   0.238  21.556   4.117
43974W        W15590  42.753  37.021   2.197
43975W        W15591  42.428  39.490  14.246
43976W        W15592   9.562  35.552   3.650
43977W        W15593  17.847  30.446  13.411
43978W        W15594  24.263  29.070  12.974
43979W        W15595   5.201  42.008  14.421
43980W        W15596  10.470  43.707  11.036
43981W        W15597  42.817  33.383  10.722
43982W        W15598  29.381  23.121   3.866
43983W        W15599  12.710  11.418  14.437
43984W        W15600  40.718  43.439   4.319
43985W        W15601  40.537  42.094   3.637
43986W        W15602  25.895  38.562   1.730
43987W        W15603  26.797  39.720   2.851
43988W        W15604  12.630   4.651  13.567
43989W        W15605   1.539  39.123   4.245
43990W        W15606  36.808   6.744  11.092
43991W        W15607  15.541  23.152  12.994
43992W        W15608  27.985  25.015  10.577
43993W        W15609  44.847  41.427   2.784
43994W        W15610  34.162  37.109  14.507
43995W        W15611  19.810  24.596  14.347
43996W        W15612  35.706  27.922  10.993
43997W        W15613  26.022  18.811  12.409
43998W        W15614  33.032   5.060  10.407
43999W        W15615  27.162  27.212   2.255
44000W        W15616  37.087  12.387   1.859
44001W        W15617  28.056  16.615  10.097
44002W        W15618  43.389  44.357  14.410
44003W        W15619  28.394   9.185   3.329
44004W        W15620   6.519  12.232  11.107
44005W        W15621  29.071  31.232  13.476
44006W        W15622  12.903   6.563   4.043
44007W        W15623  13.100  40.755   1.403
44008W        W15624  40.740  29.739   3.862
44009W        W15625  38.773  44.009   2.300
44010W        W15626  22.513  33.092  12.424
44011W        W15627  37.915  27.447   3.808
44012W        W15628  11.806  14.738  11.195
44013W        W15629  24.735   3.281  12.516
44014W        W15630  15.814  40.008   4.207
44015W        W15631   1.884   0.051   2.786
44016W        W15632  13.028  18.117  12.591
44017W        W15633  39.455   0.718  12.844
44018W        W15634  19.868  36.804   1.250
44019W        W15635  33.524  44.971   2.992
44020W        W15636  13.138  29.904   0.513
44021W        W15637   0.611  29.947   1.311
44022W        W15638  32.620   3.511   1.888
44023W        W15639  26.984  12.352  13.815
44024W        W15640  41.828  26.452   4.003
44025W        W15641  32.577   2.075   2.508
44026W        W15642  13.023  17.111   3.733
44027W        W15643  33.476  21.155   4.625
44028W        W15644  30.548  34.010   0.690
44029W        W15645  31.979  28.110   2.408
44030W        W15646  44.898   2.500   0.261
44031W        W15647  34.632  43.369  14.515
44032W        W15648  11.439  37.012   0.254
44033W        W15649  44.506  23.682  13.063
44034W        W15650   1.333   7.763  14.525
44035W        W15651   8.337  10.107   9.906
44036W        W15652  19.040  29.564  11.279
44037W        W15653  35.494  29.881   3.503
44038W        W15654  16.237  22.439  13.893
44039W        W15655  39.212  22.760   5.091
44040W        W15656   5.811  24.731  13.573
44041W        W15657  27.165   2.923  12.916
44042W        W15658  41.277  21.233   4.507
44043W        W15659   1.448  21.531  10.636
44044W        W15660   8.071   2.755   3.184
44045W        W15661  27.083  34.602   4.606
44046W        W15662  10.422  24.183   3.081
44047W        W15663  15.988  15.327  11.761
44048W        W15664  44.564  27.264   1.704
44049W        W15665  26.017   8.201   3.734
44050W        W15666  37.012  41.360  14.517
44051W        W15667  10.365   0.371   1.709
44052W        W15668  37.850  41.598  10.647
44053W        W15669  31.600  10.891   1.801
44054W        W15670  14.283  40.829  12.876
44055W        W15671   1.718  15.048  14.019
44056W        W15672  31.749  27.486   5.082
44057W        W15673  22.518  20.093   2.426
44058W        W15674  15.640  24.937  14.412
44059W        W15675   6.897  14.730   0.437
44060W        W15676  38.474  16.082  12.456
44061W        W15677  31.004  19.269  14.329
44062W        W15678  22.705  27.694   0.134
44063W        W15679  33.155  12.011   0.243
44064W        W15680  39.587   2.233   4.640
44065W        W15681   7.377   7.828   1.927
44066W        W15682  39.249  44.088   0.807
44067W        W15683  12.107  34.644   4.137
44068W        W15684  15.311  34.357   3.593
44069W        W15685  36.989  22.116   4.438
44070W        W15686  24.946  10.188  14.500
44071W        W15687  28.750  13.841   4.066
44072W        W15688  39.504  43.552  12.403
44073W        W15689  21.840  40.515  13.108
44074W        W15690  14.825  35.196  10.551
44075W        W15691  33.063  22.732   1.289
44076W        W15692  29.374   9.348  11.590
44077W        W15693  33.077   1.215  10.781
44078W        W15694  32.853  23.072  14.404
44079W        W15695  15.077  27.005  11.206
44080W        W15696  41.502  22.566   4.067
44081W        W15697   1.328   1.260  12.342
44082W        W15698  31.074  34.063   2.577
44083W        W15699  37.411   0.326   1.280
44084W        W15700  39.360  22.542   2.742
44085W        W15701  22.875  21.129   3.739
44086W        W15702  19.780   3.783  12.985
44087W        W15703  20.019  34.502   0.214
44088W        W15704  36.875   9.865  10.879
44089W        W15705   1.383  37.850   3.923
44090W        W15706   3.291  12.659   5.025
44091W        W15707  26.568  36.827   3.027
44092W        W15708  15.084  27.037  10.685
44093W        W15709  10.657  44.309  13.465
44094W        W15710  34.404  15.153   1.232
44095W        W15711  37.886  10.706  10.307
44096W        W15712   4.200  34.914   2.361
44097W        W15713  37.110  38.340   3.427
44098W        W15714  18.859  20.227   4.579
44099W        W15715  35.599  34.764  11.433
44100W        W15716  28.074  14.738   1.641
44101W        W15717  29.108  11.840  11.243
44102W        W15718   2.509   7.744  13.756
44103W        W15719  18.240  25.572  12.382
44104W        W15720  37.824  13.200  13.800
44105W        W15721  33.724  43.445  14.024
44106W        W15722  19.344  10.874   4.431
44107W        W15723  33.464   7.311   2.958
44108W        W15724  19.145   4.833   1.459
44109W        W15725  27.769   4.355   0.436
44110W        W15726  14.219  13.147   0.558
44111W        W15727   3.755  41.993  13.155
44112W        W15728   9.306  19.767   2.841
44113W        W15729  34.382  20.195  13.988
44114W        W15730  42.052  37.660  11.204
44115W        W15731  36.038   4.814   1.028
44116W        W15732   5.255  37.358  12.574
44117W        W15733  40.805  38.312  11.076
44118W        W15734  28.013  16.037   1.819
44119W        W15735  30.802  11.630   0.436
44120W        W15736  19.636  33.783  14.778
44121W        W15737   0.053  20.235  13.194
44122W        W15738  26.421   6.924  11.127
44123W        W15739  19.026   8.253   3.167
44124W        W15740   3.866  27.032   0.483
44125W        W15741  29.081  36.146   3.245
44126W        W15742  38.576  42.246  14.912
44127W        W15743  23.086  31.584   3.891
44128W        W15744   2.164   3.842  10.955
44129W        W15745  20.567  37.006  13.893
44130W        W15746  34.393  29.064  14.946
44131W        W15747  31.118   8.761   3.334
44132W        W15748  38.130  10.771  12.583
44133W        W15749  24.067   1.831  12.758
44134W        W15750  16.190  15.091   0.825
44135W        W15751  35.913   8.515   3.075
44136W        W15752  18.219  30.676   4.321
44137W        W15753   4.778   0.503   5.082
44138W        W15754  37.658   2.577  11.083
44139W        W15755   2.674  23.826   2.234
44140W        W15756  28.588  26.882   2.622
44141W        W15757   9.058  28.244   1.315
44142W        W15758  43.976  13.289  14.788
44143W        W15759  41.015  15.216   3.714
44144W        W15760   3.327  11.804   5.087
44145W        W15761  15.316  26.625   4.264
44146W        W15762   6.820  23.288  11.597
44147W        W15763  14.643  26.161   1.833
44148W        W15764  13.747   8.767   3.073
44149W        W15765  20.299  33.196   3.403
44150W        W15766  13.831  34.098  11.081
44151W        W15767  35.791  42.547   2.746
44152W        W15768  34.608  35.668  13.335
44153W        W15769   3.570   1.909   0.545
44154W        W15770  17.353  26.494  10.199
44155W        W15771  19.770  39.958  10.929
44156W        W15772  10.166  39.600   0.682
44157W        W15773  30.962  28.639  12.476
44158W        W15774  15.124  21.652  14.396
44159W        W15775  11.713  18.692   1.941
44160W        W15776  34.404   4.316  12.140
44161W        W15777   6.847  13.169   4.256
44162W        W15778  40.492   3.844   4.142
44163W        W15779  31.588  25.095   2.929
44164W        W15780  24.130  22.229   4.068
44165W        W15781  37.816   6.812  12.781
44166W        W15782  29.657  23.161  12.860
44167W        W15783  44.474   0.505  13.569
44168W        W15784  24.442  27.761   0.488
44169W        W15785   5.649   0.719  14.456
44170W        W15786  31.544  44.378  11.657
44171W        W15787  31.765   4.986   4.119
44172W        W15788  22.470   0.242  12.040
44173W        W15789  43.240  36.026   4.633
44174W        W15790  32.042  35.162   2.275
44175W        W15791  34.785  30.695   4.072
44176W        W15792   5.800   6.661   1.678
44177W        W15793  39.559  42.980  11.552
44178W        W15794  37.565  39.160   0.823
44179W        W15795  37.294   2.464   1.839
44180W        W15796  38.784  39.314   3.368
44181W        W15797  11.387   6.291   0.517
44182W        W15798   5.137   5.330  12.571
44183W        W15799  19.168  18.500   1.402
44184W        W15800  25.506  37.040   2.184
44185W        W15801  15.456   1.499   2.417
44186W        W15802  35.659  43.197  14.414
44187W        W15803  32.828  29.123   1.651
44188W        W15804  42.237   5.794  12.019
44189W        W15805  22.083  43.384   2.322
44190W        W15806   7.568  31.973   9.827
44191W        W15807  28.760  31.327  12.823
44192W        W15808   9.735  22.990  10.607
44193W        W15809  29.040   7.913  13.957
44194W        W15810  37.378  11.835  11.564
44195W        W15811  39.316   7.184  11.759
44196W        W15812   9.426  44.861   3.181
44197W        W15813   4.979   7.467  11.157
44198W        W15814  23.081  42.867   3.120
44199W        W15815  19.950  30.456   3.658
44200W        W15816  28.449   0.579   0.447
44201W        W15817   1.113  36.031   0.821
44202W        W15818  37.245   8.950   9.748
44203W        W15819   5.232  24.654  13.026
44204W        W15820  23.295  16.306  14.428
44205W        W15821  26.064  30.418  11.043
44206W        W15822   1.103  39.371   2.414
44207W        W15823  29.890  44.278   1.718
44208W        W15824  33.083  18.620  10.949
44209W        W15825   2.972  17.573   1.868
44210W        W15826  27.457   3.326   2.372
44211W        W15827   5.759  17.757   2.067
44212W        W15828  35.887  40.826   0.518
44213W        W15829   5.666  26.433  12.635
44214W        W15830  37.526  40.995   2.614
44215W        W15831   1.250  34.616  12.547
44216W        W15832  21.125  29.604   2.224
44217W        W15833   0.371  42.163  14.777
44218W        W15834  40.960  36.721  11.747
44219W        W15835   4.359  14.184   3.528
44220W        W15836  38.520   7.841   3.127
44221W        W15837  16.066  41.205  14.644
44222W        W15838   7.382  43.313   1.186
44223W        W15839  19.708  13.368   1.068
44224W        W15840  15.672  24.392  13.335
44225W        W15841  16.317  40.327  12.568
44226W        W15842   9.332  28.159   1.749
44227W        W15843  32.128  20.180  11.678
44228W        W15844  10.386  27.098  11.428
44229W        W15845  38.066  34.439   0.311
44230W        W15846   9.173  21.186  14.427
44231W        W15847  44.710  32.466  13.537
44232W        W15848  25.399  11.374  14.794
44233W        W15849   9.381   5.106   1.723
44234W        W15850   1.722  14.259   1.268
44235W        W15851  27.878  25.641   2.179
44236W        W15852  34.387   8.574  14.076
44237W        W15853  30.308   9.966   4.165
44238W        W15854  33.546  39.511  12.290
44239W        W15855  22.770  14.878   3.772
44240W        W15856   4.929  26.216   2.321
44241W        W15857   7.352  44.448  11.617
44242W        W15858   4.159  12.901  10.980
44243W        W15859  12.910   8.200  12.632
44244W        W15860  13.816  14.161  11.393
44245W        W15861  20.058   6.185  10.598
44246W        W15862  20.637  12.041  11.473
44247W        W15863   2.274   8.759  13.420
44248W        W15864   3.501  26.868  13.671
44249W        W15865  14.271  20.436   3.406
44250W        W15866   0.675  19.626  11.221
44251W        W15867  10.539  27.163   1.493
44252W        W15868  15.860  33.052   1.378
44253W        W15869   8.696   1.352  12.329
44254W        W15870  37.554  28.646   1.870
44255W        W15871  33.911   5.218   3.679
44256W        W15872  35.508  12.167  11.392
44257W        W15873  40.844   5.517   0.006
44258W        W15874  10.115  28.827   4.231
44259W        W15875  15.396  10.677  13.282
44260W        W15876  16.838  36.041  13.528
44261W        W15877  23.045  27.711  13.571
44262W        W15878   3.215  30.210  11.074
44263W        W15879  44.191  14.023  14.388
44264W        W15880  44.445  23.627   4.544
44265W        W15881  14.052   4.509   1.697
44266W        W15882   5.470   6.029   4.408
44267W        W15883  37.869  26.113  11.741
44268W        W15884  12.697  21.571   1.243
44269W        W15885  31.449   0.532   3.657
44270W        W15886   2.606  27.649   1.930
44271W        W15887  40.100   6.853   3.827
44272W        W15888  36.459   6.329  12.125
44273W        W15889  21.816  38.309   2.347
44274W        W15890  44.056  33.977  11.530
44275W        W15891  10.693  37.470  13.841
44276W        W15892  18.522  42.728   3.240
44277W        W15893   7.759  32.153  12.866
44278W        W15894  35.330  33.700   0.484
44279W        W15895  14.859   6.451  14.926
44280W        W15896   8.079  44.374  14.475
44281W        W15897  24.178  17.065   1.365
44282W        W15898  23.610   9.597   1.862
44283W        W15899  23.488   4.750  12.907
44284W        W15900  30.399  27.224   1.037
44285W        W15901  36.572  26.228   2.368
44286W        W15902  13.819  29.428   4.157
44287W        W15903  19.608   2.291   0.524
44288W        W15904  27.501  17.028  13.364
44289W        W15905  17.087   5.226  13.911
44290W        W15906  12.377  38.473   4.738
44291W        W15907  16.442  37.658  11.232
44292W        W15908  39.389  35.439   2.426
44293W        W15909  40.689  40.690   3.194
44294W        W15910  11.708   2.313  13.749
44295W        W15911  11.968  11.372   2.764
44296W        W15912  30.979  31.603   3.714
44297W        W15913   7.300  28.361   4.474
44298W        W15914  19.949  38.308   3.630
44299W        W15915   3.382  39.323  11.412
44300W        W15916  15.645  23.652   2.600
44301W        W15917  14.040  10.338  10.757
44302W        W15918  24.240  22.284   1.395
44303W        W15919  30.241  21.002   0.983
44304W        W15920   0.967  15.986   1.526
44305W        W15921   9.418  38.281   3.169
44306W        W15922  16.828  14.190  13.128
44307W        W15923  27.990  16.361   1.379
44308W        W15924   8.121  38.420  14.846
44309W        W15925  24.261  31.057   0.507
44310W        W15926  30.128   6.184   4.630
44311W        W15927  25.035  31.718  13.000
44312W        W15928  17.139  43.867   9.863
44313W        W15929  18.611   3.906  12.318
44314W        W15930  26.231  40.666   2.076
44315W        W15931  19.543  38.394  14.865
44316W        W15932  26.954  42.315   1.034
44317W        W15933  40.432  43.968  13.870
44318W        W15934  16.472  27.427  13.367
44319W        W15935  38.349  39.016   4.775
44320W        W15936  10.198  19.230   3.042
44321W        W15937  20.714  10.509   3.152
44322W        W15938  29.048  44.522   4.360
44323W        W15939  40.857  27.291   4.546
44324W        W15940  42.048  15.586  10.288
44325W        W15941  32.024  40.012  11.778
44326W        W15942  29.808   0.414   3.091
44327W        W15943  18.618   1.751  12.409
44328W        W15944   2.838   2.004   3.939
44329W        W15945   3.917  36.397  11.218
44330W        W15946  26.075   1.353  12.015
44331W        W15947   5.015  34.539   4.338
44332W        W15948  36.375  35.463   1.663
44333W        W15949  37.584  44.509  14.701
44334W        W15950  10.534  19.501  11.144
44335W        W15951  23.893  25.950  11.523
44336W        W15952  20.066  14.338   4.741
44337W        W15953   9.102  38.406  14.788
44338W        W15954  12.351  12.000  11.605
44339W        W15955  38.054  19.197  14.854
44340W        W15956  42.294  22.637  14.058
44341W        W15957   3.668   0.019   4.590
44342W        W15958   4.231  38.805   1.266
44343W        W15959  36.949  20.709   3.587
44344W        W15960  13.832  44.723   3.094
44345W        W15961  14.417  33.834  14.028
44346W        W15962  31.538  26.104  10.688
44347W        W15963  26.362   3.870   4.586
44348W        W15964  24.207  30.396  12.499
44349W        W15965  16.163  25.578  12.055
44350W        W15966  18.067  11.373  13.870
44351W        W15967   6.875  25.960   0.593
44352W        W15968   5.758  27.094   2.460
44353W        W15969  24.408  17.861  10.481
44354W        W15970  38.386  44.783   0.486
44355W        W15971  13.759  14.641   0.921
44356W        W15972  32.089  27.581  14.542
44357W        W15973  20.957  39.010   3.529
44358W        W15974   9.649  19.081  12.042
44359W        W15975   8.178  35.397  14.905
44360W        W15976  28.759  44.729  14.053
44361W        W15977   3.656  41.328  10.412
44362W        W15978  24.536  42.594   0.101
44363W        W15979  32.687  32.962   3.452
44364W        W15980  28.448  17.134  10.535
44365W        W15981   4.957  20.957   1.812
44366W        W15982   1.974   0.313   4.544
44367W        W15983   2.790  14.358   4.692
44368W        W15984  30.158  23.115   0.355
44369W        W15985   7.480  18.956   0.308
44370W        W15986   7.939  20.767  11.656
44371W        W15987  21.376  28.045   9.889
44372W        W15988   1.341  27.523  12.452
44373W        W15989  30.090  20.512   3.965
44374W        W15990  31.889  19.708  14.700
44375W        W15991  21.134  17.873   1.886
44376W        W15992  17.703   0.810   1.293
44377W        W15993  18.058  19.051   4.187
44378W        W15994  30.087  28.525   0.379
44379W        W15995  27.937  29.553   1.802
44380W        W15996  17.179  33.882   4.226
44381W        W15997  35.306  38.364  13.087
44382W        W15998  13.675  40.423   0.795
44383W        W15999  20.138  24.621   3.432
44384W        W16000  24.913  26.197   3.058
44385W        W16001   9.640  10.932  14.376
44386W        W16002  42.751  21.201   3.575
44387W        W16003   4.383  17.086  11.865
44388W        W16004  35.968  19.142   3.196
44389W        W16005   3.451   9.285  13.585
44390W        W16006  35.114  39.578  12.080
44391W        W16007  41.337   7.459   2.575
44392W        W16008  34.801  23.393  14.734
44393W        W16009  39.536   0.973  14.528
44394W        W16010  18.902  16.895  12.622
44395W        W16011  28.998  15.132   2.455
44396W        W16012   0.296  19.015   1.215
44397W        W16013  13.375  15.828   4.130
44398W        W16014  38.817  21.716   4.822
44399W        W16015  43.656  40.277   2.972
44400W        W16016   6.553  26.415  12.382
44401W        W16017  22.029  18.578   2.646
44402W        W16018  29.603  10.244  14.962
44403W        W16019  34.907  11.249   0.772
44404W        W16020  15.288  13.046   3.428
44405W        W16021   3.267  10.322   4.585
44406W        W16022  39.511  44.852  13.731
44407W        W16023  14.808   6.387   0.826
44408W        W16024  41.014  19.683  13.879
44409W        W16025  26.642  31.959   2.246
44410W        W16026  37.534  36.134   4.988
44411W        W16027  21.857  30.561  12.335
44412W        W16028  36.862  10.220  10.466
44413W        W16029  16.254  19.811   5.159
44414W        W16030  17.774  15.510  13.617
44415W        W16031   1.975  41.830  11.592
44416W        W16032   0.513   3.388  10.450
44417W        W16033   4.637  30.670   5.135
44418W        W16034  42.729  37.050  11.379
44419W        W16035  28.766  28.026  10.321
44420W        W16036  17.862   2.496   3.038
44421W        W16037  10.824  10.364   2.085
44422W        W16038  10.664  16.935   3.750
44423W        W16039   8.331  10.098   3.250
44424W        W16040  40.834  21.027   1.898
44425W        W16041  20.534  22.561  14.336
44426W        W16042   2.391  42.887  14.153
44427W        W16043  22.800  11.087  13.436
44428W        W16044  20.767  16.334   4.916
44429W        W16045  21.218  13.148   1.464
44430W        W16046  44.368  12.619   0.403
44431W        W16047  44.457  33.063   9.995
44432W        W16048  15.036  15.119   1.235
44433W        W16049  18.331  15.552   3.731
44434W        W16050   1.269   0.752  13.817
44435W        W16051   8.925  37.159  14.168
44436W        W16052  23.342   1.787  11.150
44437W        W16053   9.259   4.043   3.999
44438W        W16054  44.026   2.197   1.838
44439W        W16055   9.824  38.685   2.390
44440W        W16056  15.311  37.051  12.154
44441W        W16057  28.659  10.914   0.554
44442W        W16058   7.137  30.285  14.014
44443W        W16059  37.515  31.301   2.529
44444W        W16060  26.153  36.927  13.860
44445W        W16061  13.042  17.840   2.315
44446W        W16062  29.444  31.422  10.617
44447W        W16063  22.140   7.461   3.984
44448W        W16064  44.863  40.005   3.393
44449W        W16065  18.595  38.335   3.272
44450W        W16066  37.991  18.752   3.316
44451W        W16067  32.854  39.159   3.485
44452W        W16068  44.180  26.022   0.281
44453W        W16069  39.542   8.241  13.058
44454W        W16070  43.371   7.144  14.482
44455W        W16071  34.465  21.800   0.077
44456W        W16072   2.569  34.394  12.178
44457W        W16073  31.471  35.885  11.966
44458W        W16074  37.538  17.221   4.428
44459W        W16075  23.464  21.972   2.658
44460W        W16076  30.049  23.372   0.866
44461W        W16077   1.776  21.712   3.451
44462W        W16078  10.779  21.937  10.491
44463W        W16079   0.249  26.678   2.627
44464W        W16080  20.183   8.821  12.027
44465W        W16081  18.188  13.208   2.966
44466W        W16082   2.751  38.069   1.470
44467W        W16083  21.268  11.209   1.200
44468W        W16084  26.137  29.407  10.741
44469W        W16085  32.002  16.920   4.527
44470W        W16086  17.240  17.136  10.360
44471W        W16087  41.465  38.979  10.906
44472W        W16088  44.019  29.689   4.514
44473W        W16089  33.661  19.093   4.092
44474W        W16090  29.710  27.183   0.446
44475W        W16091  11.564  22.460  10.243
44476W        W16092   9.659  16.386   1.677
44477W        W16093  38.994   5.874   1.686
44478W        W16094   6.234  28.946  13.014
44479W        W16095  38.798   3.283   3.325
44480W        W16096   9.803   9.922   1.938
44481W        W16097  41.347  37.873   1.259
44482W        W16098   5.152  36.070   4.314
44483W        W16099  43.370  14.172   1.768
44484W        W16100  37.836  14.092   5.747
44485W        W16101   7.631   2.387   2.788
44486W        W16102  44.277  12.302   1.934
44487W        W16103  12.619  14.598   3.828
44488W        W16104   9.714  19.687   2.302
44489W        W16105  33.646  25.872   1.534
44490W        W16106  21.093   7.718   4.672
44491W        W16107  44.410  39.887  11.147
44492W        W16108  17.809  30.984  14.932
44493W        W16109  12.426  38.323  13.023
44494W        W16110   7.371  16.798   0.248
44495W        W16111  43.927  14.114   5.031
44496W        W16112  14.786  42.576   0.959
44497W        W16113  26.000  38.507  11.962
44498W        W16114  39.305  13.391   4.178
44499W        W16115  30.037  38.577  13.829
44500W        W16116   5.876  26.879  11.860
44501W        W16117  17.313  37.520   1.412
44502W        W16118  27.238  18.588  14.027
44503W        W16119   5.494   3.964   3.240
44504W        W16120   3.742  30.023  12.561
44505W        W16121  17.304  12.858  10.569
44506W        W16122   1.045  40.740  12.473
44507W        W16123  36.621  22.453  12.821
44508W        W16124  15.877  41.820  11.130
44509W        W16125  10.854  14.577  12.985
44510W        W16126  21.185   3.586  11.790
44511W        W16127  32.975  32.871   0.801
44512W        W16128  11.633  34.647   2.617
44513W        W16129   0.420   9.564  11.096
44514W        W16130  24.981   8.552  14.025
44515W        W16131  10.753  27.453   0.707
44516W        W16132  22.566  11.115   1.325
44517W        W16133  16.099   9.851  13.935
44518W        W16134  44.871   7.616   3.653
44519W        W16135  22.275   5.314   1.436
44520W        W16136   1.988  24.592   4.824
44521W        W16137  15.314  30.047   1.956
44522W        W16138   5.067  19.695  11.996
44523W        W16139   4.700  37.927  11.988
44524W        W16140  42.384   5.396  12.528
44525W        W16141  12.368  41.126  11.123
44526W        W16142  26.446   7.448  11.888
44527W        W16143  44.966  42.047   4.575
44528W        W16144  44.336  25.598   1.408
44529W        W16145  31.705  11.927   4.517
44530W        W16146  22.754  31.167  11.679
44531W        W16147  38.517  15.546  12.319
44532W        W16148  16.713  28.254   1.578
44533W        W16149  27.654  22.055  14.458
44534W        W16150  25.748  29.185  13.119
44535W        W16151  18.622  18.540   5.085
44536W        W16152   1.633  39.766   3.707
44537W        W16153   3.897   1.743  13.571
44538W        W16154  10.277   2.332  12.507
44539W        W16155  30.970  34.508   2.849
44540W        W16156  10.244  15.621  14.756
44541W        W16157  35.267  31.682   3.410
44542W        W16158  43.413  30.053   1.309
44543W        W16159  14.820  13.152   3.248
44544W        W16160   1.391  28.916   2.403
44545W        W16161  31.903   2.439   4.391
44546W        W16162  10.106  25.293  13.999
44547W        W16163  30.165  12.738  10.928
44548W        W16164  24.012  34.852   0.378
44549W        W16165  23.698  31.002   4.292
44550W        W16166   6.335   3.722   3.436
44551W        W16167  36.787  12.207  13.003
44552W        W16168  33.029   0.515   1.711
44553W        W16169   5.784  30.050  11.240
44554W        W16170  22.586   5.974   1.860
44555W        W16171  37.985  13.647   0.540
44556W        W16172  16.277   7.306   1.916
44557W        W16173  25.783  17.356  13.371
44558W        W16174  31.440  37.820   3.729
44559W        W16175  42.255   0.136   3.218
44560W        W16176  31.068  36.059  13.936
44561W        W16177   8.822  29.977   4.583
44562W        W16178   7.269  20.199   2.275
44563W        W16179  27.969  35.046  11.834
44564W        W16180  19.781  14.687   0.827
44565W        W16181   1.983   5.206  10.643
44566W        W16182  26.460  30.521   3.279
44567W        W16183  27.257   9.753   0.769
44568W        W16184   4.294  14.776   2.728
44569W        W16185  27.130  34.443   1.003
44570W        W16186  24.242  22.036  11.595
44571W        W16187   6.170  17.604   3.796
44572W        W16188  10.382  25.435  12.966
44573W        W16189  28.117  18.584   2.638
44574W        W16190  20.114  33.654   2.655
44575W        W16191  28.016  25.082   0.561
44576W        W16192  32.014   0.545  10.235
44577W        W16193  17.522  27.500   3.581
44578W        W16194  11.381  36.438   4.569
44579W        W16195   8.348  22.508   3.753
44580W        W16196  28.464  30.410  14.944
44581W        W16197  28.514  36.397   0.284
44582W        W16198  11.600  31.294   4.269
44583W        W16199  10.819   8.455  11.244
44584W        W16200  14.882   0.859   0.367
44585W        W16201  23.622  32.390  12.549
44586W        W16202  19.042  32.634  14.317
44587W        W16203  10.788  24.008   2.109
44588W        W16204  43.384  43.515   1.489
44589W        W16205  31.841  24.169  12.646
44590W        W16206  24.681  31.401  11.269
44591W        W16207  12.751  23.080  13.415
44592W        W16208  11.317  37.953   4.156
44593W        W16209  38.626   3.936   1.818
44594W        W16210   2.196  40.760   1.372
44595W        W16211  44.346  26.449   2.117
44596W        W16212  24.750  15.792  14.414
44597W        W16213   8.774  28.482   4.554
44598W        W16214  28.478  33.608  13.503
44599W        W16215  15.126  31.562  11.039
44600W        W16216  34.582  42.542  11.637
44601W        W16217   6.162   2.000   1.244
44602W        W16218  23.802  23.589   4.644
44603W        W16219   9.889  28.393   4.039
44604W        W16220  43.313  16.504   1.278
44605W        W16221  28.624  11.704  13.955
44606W        W16222  37.103  30.350   4.056
44607W        W16223  38.972  31.628   3.845
44608W        W16224  43.483  20.595   2.410
44609W        W16225   1.171  14.287  12.121
44610W        W16226  42.930   1.117   5.034
44611W        W16227  34.157  18.440  14.671
44612W        W16228  35.337  32.456   2.508
44613W        W16229  16.390  31.018   4.786
44614W        W16230  19.692  18.972   4.590
44615W        W16231   7.359  38.576   4.178
44616W        W16232  17.086  10.694  11.180
44617W        W16233  12.357  34.540   0.437
44618W        W16234  32.085   1.037   4.004
44619W        W16235  22.763  37.023   0.305
44620W        W16236  26.955  13.613   2.711
44621W        W16237  29.439  32.409  13.031
44622W        W16238  22.820   0.831   9.983
44623W        W16239  35.372   9.704  13.483
44624W        W16240  28.562  31.712  13.852
44625W        W16241  43.438  34.651   1.312
44626W        W16242  10.758   0.235   3.713
44627W        W16243  25.017  37.703   4.070
44628W        W16244  30.098   4.905  11.653
44629W        W16245  41.467   5.677  13.903
44630W        W16246   6.668   9.432  11.809
44631W        W16247  38.794  29.936  12.078
44632W        W16248  14.117  44.216  10.686
44633W        W16249  43.468  29.366  14.606
44634W        W16250  19.751   2.743   4.217
44635W        W16251  19.488  21.106   3.230
44636W        W16252   9.126  22.256   1.848
44637W        W16253  12.677  27.817  14.958
44638W        W16254  19.804  20.814  12.937
44639W        W16255  15.340  38.336   4.208
44640W        W16256  20.161   6.444   3.753
44641W        W16257  36.039  26.591   4.921
44642W        W16258  42.964   2.478  13.931
44643W        W16259  26.013  31.983   5.178
44644W        W16260  25.726  41.409  11.569
44645W        W16261   7.829  40.383  12.353
44646W        W16262  36.619  31.361  13.092
44647W        W16263  20.268  37.103   1.798
44648W        W16264  22.212  25.959   4.109
44649W        W16265  28.502  33.336   3.396
44650W        W16266   1.869  12.110  11.072
44651W        W16267  19.222   2.914  10.622
44652W        W16268   3.939  42.311  14.735
44653W        W16269   9.168  43.526  12.407
44654W        W16270  24.173   7.305   1.929
44655W        W16271  16.987   8.313   1.967
44656W        W16272   9.775  31.496  13.675
44657W        W16273  43.706  25.517  13.537
44658W        W16274   6.131  26.563   0.656
44659W        W16275  26.069  36.295  13.455
44660W        W16276  29.026  36.609  11.653
44661W        W16277  13.201  19.021   2.170
44662W        W16278  19.053  31.996  10.357
44663W        W16279  23.777   5.385   1.400
44664W        W16280  20.542  37.949   0.460
44665W        W16281  37.878  36.508   2.307
44666W        W16282  26.580  42.309   1.936
44667W        W16283  38.560  30.762   1.843
44668W        W16284  27.503  42.420  11.439
44669W        W16285  36.567  32.056  12.615
44670W        W16286   4.772  42.408   3.286
44671W        W16287  19.140  39.618   4.296
44672W        W16288  16.432  28.280   0.274
44673W        W16289   2.538  28.432   2.941
44674W        W16290  15.305   1.022   2.331
44675W        W16291  40.023  44.346   0.746
44676W        W16292  26.340  11.432   4.447
44677W        W16293  26.452  25.472  14.041
44678W        W16294   4.649   2.235   0.412
44679W        W16295  12.382  16.675   2.114
44680W        W16296   1.425  42.536   1.371
44681W        W16297  35.411   7.184   4.575
44682W        W16298  42.258  38.997   1.217
44683W        W16299   6.502  44.575  10.265
44684W        W16300   2.110  19.459   0.195
44685W        W16301  38.555  11.285   0.867
44686W        W16302   2.406  34.862  12.278
44687W        W16303  41.016   4.330  13.884
44688W        W16304  36.808  14.861  11.697
44689W        W16305  16.366  34.108   4.203
44690W        W16306  32.526  24.757   0.747
44691W        W16307   8.835   3.314   0.303
44692W        W16308  16.603  25.074  12.907
44693W        W16309  32.006  25.811  14.432
44694W        W16310  44.493  38.579   3.274
44695W        W16311  30.925   1.353   0.275
44696W        W16312   4.264  33.538   2.334
44697W        W16313  36.138  33.866  11.619
44698W        W16314  14.594  35.875  11.141
44699W        W16315  21.028   9.524   3.941
44700W        W16316  17.696  27.959  11.128
44701W        W16317  33.900   9.283  14.445
44702W        W16318   0.971  31.571  12.119
44703W        W16319  40.454  23.344  12.981
44704W        W16320  21.198  26.023   3.291
44705W        W16321  14.261   4.927   1.943
44706W        W16322  32.375  10.689  14.425
44707W        W16323  21.902   1.490   1.374
44708W        W16324  43.922   4.589  13.283
44709W        W16325  30.543  32.689   0.832
44710W        W16326  27.239  13.175  13.364
44711W        W16327   7.908  14.011  11.184
44712W        W16328  43.964  21.758  10.994
44713W        W16329   4.299  38.538   1.730
44714W        W16330  36.069   9.499   1.195
44715W        W16331  28.516   1.836   2.423
44716W        W16332  28.629  11.646   2.235
44717W        W16333  29.186  26.514   1.804
44718W        W16334   6.628  38.846  12.930
44719W        W16335   5.837  39.806  14.466
44720W        W16336  21.435   4.024  13.756
44721W        W16337  42.604  43.683   2.730
44722W        W16338  26.017  26.983  11.653
44723W        W16339  42.367  28.958  11.981
44724W        W16340  22.433  20.611  13.016
44725W        W16341  26.493  36.724   3.535
44726W        W16342  28.013  33.534   3.381
44727W        W16343  27.349  15.716   2.345
44728W        W16344  17.335  29.915   4.113
44729W        W16345  21.468   5.125   1.924
44730W        W16346  24.709  30.987  13.989
44731W        W16347  32.758  30.106   5.044
44732W        W16348  19.747   9.675   0.998
44733W        W16349  44.429  38.385  12.316
44734W        W16350  30.686  33.946   0.203
44735W        W16351  16.707   6.806   4.593
44736W        W16352  14.404   6.865  13.144
44737W        W16353  37.339   0.423   0.691
44738W        W16354  42.317  12.684   1.301
44739W        W16355  21.547  18.376   2.644
44740W        W16356  10.824   9.660   3.745
44741W        W16357   1.635   7.371  13.058
44742W        W16358   5.820  30.794  14.964
44743W        W16359   3.466  32.380   0.851
44744W        W16360  29.065  29.451   4.628
44745W        W16361  10.391  15.217   0.044
44746W        W16362  15.824  25.918   4.650
44747W        W16363  41.093   3.951  14.407
44748W        W16364  11.203   5.983   4.403
44749W        W16365  31.624  29.429   4.210
44750W        W16366   0.064  20.128  13.862
44751W        W16367  23.834  28.569  10.617
44752W        W16368  12.248  32.533   1.791
44753W        W16369  11.752  24.688  12.421
44754W        W16370  11.177  17.182  13.745
44755W        W16371  34.077  32.886  14.801
44756W        W16372  38.347  40.227  12.000
44757W        W16373  28.934  24.727   3.890
44758W        W16374  38.960  44.964  14.728
44759W        W16375  27.495   7.225  14.812
44760W        W16376  26.010  36.111   3.365
44761W        W16377  30.338  15.563   1.760
44762W        W16378  30.081  14.293  14.839
44763W        W16379  40.784   1.274  14.411
44764W        W16380  32.063  16.884   3.734
44765W        W16381  39.480   1.722   3.481
44766W        W16382  19.287   9.222  11.157
44767W        W16383  17.099  40.494   2.383
44768W        W16384   3.033  44.386   1.898
44769W        W16385  36.790   4.273   4.362
44770W        W16386  16.277  30.146  11.528
44771W        W16387  28.488  15.657  14.301
44772W        W16388   4.358  42.877  12.016
44773W        W16389  14.824  24.972  14.392
44774W        W16390  32.434   1.401  14.826
44775W        W16391  40.246  16.228   0.816
44776W        W16392  33.943   8.334  14.577
44777W        W16393  23.744  17.125   0.569
44778W        W16394  33.589  19.753   3.330
44779W        W16395   6.398  18.042   3.736
44780W        W16396  28.885  25.422  13.280
44781W        W16397  26.996  32.397   2.364
44782W        W16398  13.292  20.393  11.401
44783W        W16399  25.969  18.317  14.297
44784W        W16400  42.781  17.366  13.353
44785W        W16401  33.269  34.831   5.053
44786W        W16402  16.725  15.202   2.076
44787W        W16403  26.487  21.721   0.832
44788W        W16404  20.740  22.129  13.406
44789W        W16405  16.243   5.567  11.010
44790W        W16406   0.404  18.639  11.655
44791W        W16407  18.848  29.662  13.942
44792W        W16408   5.401  14.190   3.746
44793W        W16409  10.495  37.523   4.993
44794W        W16410   5.220  13.613   4.604
44795W        W16411  40.816  39.290   2.413
44796W        W16412  27.767  19.527   5.157
44797W        W16413  24.227  10.614   2.150
44798W        W16414  14.872  22.593   3.996
44799W        W16415  22.562  19.338   2.835
44800W        W16416  31.928  30.623   0.501
44801W        W16417  34.617  25.175   1.461
44802W        W16418  28.903  24.420  13.355
44803W        W16419   1.148  31.661   1.733
44804W        W16420  40.419  34.426  14.404
44805W        W16421  25.577  27.046  11.911
44806W        W16422   6.425  13.740  14.075
44807W        W16423   0.554   1.524   3.776
44808W        W16424  43.502  44.272  13.081
44809W        W16425  25.003   4.685   2.934
44810W        W16426  22.641  39.579   3.249
44811W        W16427  23.318  36.570   2.204
44812W        W16428   1.698  10.607   3.620
44813W        W16429  29.981   5.227  13.586
44814W        W16430  29.115  34.864  13.897
44815W        W16431   4.457  17.256  11.363
44816W        W16432   3.856  32.617   2.247
44817W        W16433   8.441  17.392  13.695
44818W        W16434  35.032  31.407  12.410
44819W        W16435  30.586   8.216   0.778
44820W        W16436  30.597  44.500  14.355
44821W        W16437  24.695  43.322   4.695
44822W        W16438  21.274   1.325  14.793
44823W        W16439  32.325   7.232   1.438
44824W        W16440  19.042  24.735   4.502
44825W        W16441  35.665  16.775  12.969
44826W        W16442  20.511   3.234   0.286
44827W        W16443  23.024  34.761  10.641
44828W        W16444  16.548  15.185   1.214
44829W        W16445  13.810  34.995  13.580
44830W        W16446  34.251  42.157  11.632
44831W        W16447  41.901  23.596   0.043
44832W        W16448  16.712  30.197   2.092
44833W        W16449  32.128   9.824   4.789
44834W        W16450  34.452  43.509   3.312
44835W        W16451  32.733  36.096   0.246
44836W        W16452  38.468  43.790   2.689
44837W        W16453   2.766  11.341   1.450
44838W        W16454  16.758  27.139   2.370
44839W        W16455   5.351  14.179  14.455
44840W        W16456  29.474   7.658   4.156
44841W        W16457  30.359  27.138  12.121
44842W        W16458  25.543  26.620  14.884
44843W        W16459  27.370  24.724  14.562
44844W        W16460  28.403  15.334  13.493
44845W        W16461  31.571   5.822   4.336
44846W        W16462   1.786  15.092   0.744
44847W        W16463  12.727  29.530  13.080
44848W        W16464  29.169  28.322   5.478
44849W        W16465   3.097   5.174   1.781
44850W        W16466  28.954  35.972   4.515
44851W        W16467   0.422  34.039   0.274
44852W        W16468  15.323  20.197  14.347
44853W        W16469  30.183  37.464  13.157
44854W        W16470  17.457  41.276   4.655
44855W        W16471  32.672  41.951   1.284
44856W        W16472  24.532  37.343   1.707
44857W        W16473  12.509  20.541  12.522
44858W        W16474  34.478  24.163  13.580
44859W        W16475  14.283  10.660  14.347
44860W        W16476  39.023   7.969   3.753
44861W        W16477  20.506  28.014  10.879
44862W        W16478  27.479  31.164  14.440
44863W        W16479  28.596   1.286   2.722
44864W        W16480  32.402   1.013  13.497
44865W        W16481  24.298  44.475   3.675
44866W        W16482   9.761   4.647  13.862
44867W        W16483  19.113  37.339   2.220
44868W        W16484  19.662  18.044   2.737
44869W        W16485  24.687  41.536   0.305
44870W        W16486  34.467  25.669  14.991
44871W        W16487  24.708   1.189  13.811
44872W        W16488  39.341  27.147   4.589
44873W        W16489  18.631   9.827   0.409
44874W        W16490  38.530  43.961  11.540
44875W        W16491  10.898  19.583   1.890
44876W        W16492   3.369  25.053   3.085
44877W        W16493  10.227  37.323  13.657
44878W        W16494  28.014  31.907   4.153
44879W        W16495  10.414  15.172  12.100
44880W        W16496  29.084  10.880   2.344
44881W        W16497   5.028  34.935   2.750
44882W        W16498  19.776  10.845   4.169
44883W        W16499  20.682   2.906   0.660
44884W        W16500  17.559  32.986  10.306
44885W        W16501  42.619  23.490  11.096
44886W        W16502  27.453  30.522  10.989
44887W        W16503  26.010  39.911  13.385
44888W        W16504  16.763  28.869   3.244
44889W        W16505  16.843  39.104  12.865
44890W        W16506  38.425   7.266   2.343
44891W        W16507  38.588   4.684   0.910
44892W        W16508  21.527  21.554  14.540
44893W        W16509   4.917  36.442   4.547
44894W        W16510  10.875  22.286   2.986
44895W        W16511  25.854   3.812  13.476
44896W        W16512  15.107  44.976   2.308
44897W        W16513  25.380  41.025  14.407
44898W        W16514  18.006   2.940   4.741
44899W        W16515  38.362  24.475   2.009
44900W        W16516  13.875  20.150   4.284
44901W        W16517   0.958  30.321  13.019
44902W        W16518   4.747  35.399   3.861
44903W        W16519  21.086  18.985  12.083
44904W        W16520  27.613   6.632  11.502
44905W        W16521   1.182   6.750   3.786
44906W        W16522  12.312   7.983   4.523
44907W        W16523  17.801  30.634   3.402
44908W        W16524  36.607  10.300   2.633
44909W        W16525  16.342  37.327   2.620
44910W        W16526  36.606  30.511   4.062
44911W        W16527  14.509  33.083  14.341
44912W        W16528   6.937  16.177  14.520
44913W        W16529  15.811  42.807   0.338
44914W        W16530  12.297  20.684   4.341
44915W        W16531  32.348  26.567   9.927
44916W        W16532  38.781  33.582   2.786
44917W        W16533  11.246  23.348  14.859
44918W        W16534  13.163  30.417  13.739
44919W        W16535  43.222  14.783   3.148
44920W        W16536   9.260  25.568   0.680
44921W        W16537  15.182  11.124  14.574
44922W        W16538  36.854  33.179  12.021
44923W        W16539  22.483  28.151   0.292
44924W        W16540  14.222   7.788  14.872
44925W        W16541  35.088  20.595  14.905
44926W        W16542  44.274  16.549  10.294
44927W        W16543   6.515  27.172   0.853
44928W        W16544   6.398   4.628   1.888
44929W        W16545   8.279  21.975  13.378
44930W        W16546  32.233  11.128   2.414
44931W        W16547  24.260   1.265   3.746
44932W        W16548  34.337   7.230   2.341
44933W        W16549  18.092  26.059  13.530
44934W        W16550  11.344  15.560  14.869
44935W        W16551   2.663  27.052   4.408
44936W        W16552   9.262  35.968   3.635
44937W        W16553  43.778  18.565  12.093
44938W        W16554  23.525  39.232  14.794
44939W        W16555  40.391  27.653   0.857
44940W        W16556  37.070  26.012  10.754
44941W        W16557  26.533   7.546   1.401
44942W        W16558   1.955  11.575  11.132
44943W        W16559  25.146  11.143   0.202
44944W        W16560   8.652   4.177  14.937
44945W        W16561  44.282   4.915  13.433
44946W        W16562  32.600  14.271  12.976
44947W        W16563  25.040  40.468   4.594
44948W        W16564  43.171  29.015   2.718
44949W        W16565  37.357  33.684   4.177
44950W        W16566  39.498  28.977   1.397
44951W        W16567  21.723  31.752   0.758
44952W        W16568  36.331   7.366  13.483
44953W        W16569   0.316   2.206   4.622
44954W        W16570   4.986  10.818  13.002
44955W        W16571  24.654  34.403   4.682
44956W        W16572   7.518  32.130   1.758
44957W        W16573  17.265  24.591  13.990
44958W        W16574  42.493  37.660   9.796
44959W        W16575  26.499  33.945  13.988
44960W        W16576  29.151  35.090  14.760
44961W        W16577  18.027  30.081   0.078
44962W        W16578  12.522   5.105   0.311
44963W        W16579  20.466  44.241   9.983
44964W        W16580  20.160  11.991  14.802
44965W        W16581   6.484  34.026  10.741
44966W        W16582  42.506  15.847   2.783
44967W        W16583  11.354  23.273   4.095
44968W        W16584  24.580  37.539   2.906
44969W        W16585   0.685  21.702   0.869
44970W        W16586  38.646  37.445  12.488
44971W        W16587  10.581  35.092  13.489
44972W        W16588  22.146  28.408   1.319
44973W        W16589  21.544  28.022  10.766
44974W        W16590   1.561  40.636  12.506
44975W        W16591  10.723  42.511   2.282
44976W        W16592  35.274   4.511  12.558
44977W        W16593  10.149  37.411  11.909
44978W        W16594   9.655  14.279   3.208
44979W        W16595  17.767   5.590   4.167
44980W        W16596  15.434  17.276   1.681
44981W        W16597  35.822  14.305   0.252
44982W        W16598  34.090  35.480  11.064
44983W        W16599  16.760  19.273   2.908
44984W        W16600  19.701  35.388  12.937
44985W        W16601  15.838   6.019   1.649
44986W        W16602   2.982  17.496  13.333
44987W        W16603   8.446  29.124   1.236
44988W        W16604  44.861  32.125   4.198
44989W        W16605  42.902  38.784  11.033
44990W        W16606  30.619  21.013  14.723
44991W        W16607  44.515  12.158   1.500
44992W        W16608   2.083  28.600   0.923
44993W        W16609  22.751   4.089  12.911
44994W        W16610  17.704  18.121   1.033
44995W        W16611  39.844  39.356  10.648
44996W        W16612  22.750  39.558  14.907
44997W        W16613  26.654   4.236   4.332
44998W        W16614  41.073   1.253   3.759
44999W        W16615  27.787  35.075   4.478
45000W        W16616  34.666  30.555   0.515
45001W        W16617  39.518  37.779   2.282
45002W        W16618  43.847   1.280  14.716
45003W        W16619  20.085  32.907   2.918
45004W        W16620  30.810   1.773   3.125
45005W        W16621   7.183  12.516   4.537
45006W        W16622  33.055  36.820  13.462
45007W        W16623   7.971   5.442   0.865
45008W        W16624   9.173  12.689   2.875
45009W        W16625  44.221  30.937  13.148
45010W        W16626  31.985  41.689   0.860
45011W        W16627  17.663  16.084   2.224
45012W        W16628  41.044  44.896   1.163
45013W        W16629   0.769  42.773  10.599
45014W        W16630   2.564  30.401  14.589
45015W        W16631  11.750   1.117   2.650
45016W        W16632   1.417   6.127   0.341
45017W        W16633   6.767  30.767   2.248
45018W        W16634  19.364  35.894   0.098
45019W        W16635  33.578  16.228  13.006
45020W        W16636  27.091   0.851   3.175
45021W        W16637  24.486  10.811  14.057
45022W        W16638   1.087  22.094   0.396
45023W        W16639   6.854   0.634   3.352
45024W        W16640  25.703  29.428  10.460
45025W        W16641  18.628  15.382   2.135
45026W        W16642  11.304  14.311   3.554
45027W        W16643  11.990  32.364   4.578
45028W        W16644  42.092  36.621  13.763
45029W        W16645  28.015  29.950  11.538
45030W        W16646  44.256  26.771   0.868
45031W        W16647  12.791  18.970   4.537
45032W        W16648   6.913  22.016  13.342
45033W        W16649  39.792  16.307  13.488
45034W        W16650  42.267  34.398  10.994
45035W        W16651  22.246  36.439   0.034
45036W        W16652  24.244   4.286  11.241
45037W        W16653  15.287  15.058   4.173
45038W        W16654  43.212  23.428  10.499
45039W        W16655  30.168   8.185  10.664
45040W        W16656  15.768  29.962   4.193
45041W        W16657  44.213  19.300  11.170
45042W        W16658  36.961  41.815  11.671
45043W        W16659  27.167   5.447   3.889
45044W        W16660  43.638  15.635  11.032
45045W        W16661  11.217  41.127   2.890
45046W        W16662  22.976  34.536  13.593
45047W        W16663  36.876  14.964  12.470
45048W        W16664  15.646  23.224   0.716
45049W        W16665   0.429  44.171  12.990
45050W        W16666   9.634   4.758  14.361
45051W        W16667  26.983  11.881   4.607
45052W        W16668  27.429  33.780  10.605
45053W        W16669   5.196  36.444  12.970
45054W        W16670  28.533   1.418   3.984
45055W        W16671   4.117  44.276  12.858
45056W        W16672   8.250  22.229   0.248
45057W        W16673  28.147   2.504   4.304
45058W        W16674  39.285  30.666  14.041
45059W        W16675   5.371  40.740  11.202
45060W        W16676  25.640  13.033   4.623
45061W        W16677   4.784  13.997   3.288
45062W        W16678   4.369   9.585  10.392
45063W        W16679  30.534  23.929  12.396
45064W        W16680   3.167  40.796   0.242
45065W        W16681  31.611  29.692  11.966
45066W        W16682  33.451  37.930  14.404
45067W        W16683  28.581  31.213  13.739
45068W        W16684  30.962   6.391  10.542
45069W        W16685  15.851   5.924  13.732
45070W        W16686  30.647  12.619  10.979
45071W        W16687  43.296  13.445   2.562
45072W        W16688  13.120   3.936  12.481
45073W        W16689  24.456  43.013  14.302
45074W        W16690   9.318  39.327  11.948
45075W        W16691  37.251   3.716   3.071
45076W        W16692  34.175  36.781   3.812
45077W        W16693  38.849  27.367   0.962
45078W        W16694  44.437  22.162   1.362
45079W        W16695  30.241  44.417   0.808
45080W        W16696  17.766  27.453  10.382
45081W        W16697  23.852  29.421   1.666
45082W        W16698  26.195   9.373  14.364
45083W        W16699   0.357  27.930   2.195
45084W        W16700  13.254  27.674  13.611
45085W        W16701  25.861  40.280   1.208
45086W        W16702  12.743  24.022   3.279
45087W        W16703  22.983  30.441   0.418
45088W        W16704  18.519  28.914   2.728
45089W        W16705  30.169  34.944   2.322
45090W        W16706  13.657  24.535  12.164
45091W        W16707  37.508  16.245  12.820
45092W        W16708  12.923  36.041   2.398
45093W        W16709  17.706  25.990   2.835
45094W        W16710  17.650  14.607  14.925
45095W        W16711  30.314  22.254   4.603
45096W        W16712  34.333  22.700   0.688
45097W        W16713  22.765  22.600   3.739
45098W        W16714  42.793  20.514  12.169
45099W        W16715  44.836  22.415  13.032
45100W        W16716  14.738  11.831   3.348
45101W        W16717  41.780  30.875   3.701
45102W        W16718  14.826  25.602  13.375
45103W        W16719  24.508  27.459   4.525
45104W        W16720   7.357  22.302   4.243
45105W        W16721  24.869  38.529  14.929
45106W        W16722  25.003  43.062   5.041
45107W        W16723  38.851  37.021   2.147
45108W        W16724  11.298  17.821  14.850
45109W        W16725  17.612  28.017  11.629
45110W        W16726  36.757   5.841  13.449
45111W        W16727   3.142  22.773  12.569
45112W        W16728   1.823   4.829   0.417
45113W        W16729  19.711  32.698   1.043
45114W        W16730  18.559  41.766   2.196
45115W        W16731  36.522  21.565  10.561
45116W        W16732  24.580  23.642   3.574
45117W        W16733  24.591  40.273   1.762
45118W        W16734  27.463  13.436  11.680
45119W        W16735  20.226  36.508  12.564
45120W        W16736  23.341   1.766  13.874
45121W        W16737  28.116  35.155  13.816
45122W        W16738  20.930  23.562  10.927
45123W        W16739  15.345  37.565  12.788
45124W        W16740  17.150  25.631   0.756
45125W        W16741  43.491  17.519   1.262
45126W        W16742   1.265  41.388   2.910
45127W        W16743  13.747  19.859  12.160
45128W        W16744  16.647   3.815  14.497
45129W        W16745  42.785   1.330  11.986
45130W        W16746  16.045  42.347   1.284
45131W        W16747  33.452   2.520   3.190
45132W        W16748  25.427  33.132   3.733
45133W        W16749  25.711  33.376   1.017
45134W        W16750  23.751  30.158   0.371
45135W        W16751  33.209  10.114   1.334
45136W        W16752   9.209  21.047  11.651
45137W        W16753  22.265  11.374  11.055
45138W        W16754  28.534  43.548   0.246
45139W        W16755   3.769  21.761  13.760
45140W        W16756  37.262   8.343   1.191
45141W        W16757  15.319   0.267   0.803
45142W        W16758   8.934  15.663   0.620
45143W        W16759  19.721  18.406  14.342
45144W        W16760   3.924  15.328  13.810
45145W        W16761   7.911  41.070  13.022
45146W        W16762  35.434   1.993   3.246
45147W        W16763   2.176   0.747   4.854
45148W        W16764   6.703  15.090  11.341
45149W        W16765  22.363   7.387  14.754
45150W        W16766  25.346   3.496   3.214
45151W        W16767  31.343  32.056  13.575
45152W        W16768  39.880   7.768   4.363
45153W        W16769  41.284   5.166  13.327
45154W        W16770  23.491  26.098   3.469
45155W        W16771  27.151  42.941   1.708
45156W        W16772  36.583   5.334  12.616
45157W        W16773  15.738  36.127   3.810
45158W        W16774  43.046  20.216  12.606
45159W        W16775   0.477   8.113  12.554
45160W        W16776  24.992  30.235  13.010
45161W        W16777  15.224  40.447  14.759
45162W        W16778  28.233  37.520   9.814
45163W        W16779   7.003   4.289   3.624
45164W        W16780  40.698   5.140  13.936
45165W        W16781  39.916  30.020  13.069
45166W        W16782  39.138  17.567  14.215
45167W        W16783   5.177  34.030  10.103
45168W        W16784  17.523  29.321   3.658
45169W        W16785   3.744   3.248  11.980
45170W        W16786  27.928  31.895  13.048
45171W        W16787  35.007  36.623  12.430
45172W        W16788   4.920  44.291  11.015
45173W        W16789   2.099  14.292   3.062
45174W        W16790  22.144  37.372   0.037
45175W        W16791  15.234   4.498   1.418
45176W        W16792  42.237   5.682   3.107
45177W        W16793  39.314  25.615  11.130
45178W        W16794  43.469  42.904   3.829
45179W        W16795  23.110   8.873  11.031
45180W        W16796  36.465  36.079   3.676
45181W        W16797  28.700  39.826   1.793
45182W        W16798  36.867  16.521  12.457
45183W        W16799  10.328  44.434   5.334
45184W        W16800   9.766  18.789   3.146
45185W        W16801  24.448  31.446  13.960
45186W        W16802  15.725  40.847   3.887
45187W        W16803   5.829  13.098   0.063
45188W        W16804   1.916  30.028  11.096
45189W        W16805  16.042  27.526   2.637
45190W        W16806  29.447  33.638  12.798
45191W        W16807  44.751   5.127  13.460
45192W        W16808  28.406  28.642  12.461
45193W        W16809  30.035  19.100  14.734
45194W        W16810  25.246  27.521   4.652
45195W        W16811  37.907  44.277  11.662
45196W        W16812  16.745  10.103   2.800
45197W        W16813  28.700  34.255   4.184
45198W        W16814   1.170   9.765  12.920
45199W        W16815   9.904  19.714   3.755
45200W        W16816  26.160  39.272  11.618
45201W        W16817  40.680  12.267   5.047
45202W        W16818  42.911  30.019   2.613
45203W        W16819  13.733  36.755   4.674
45204W        W16820  40.660  15.057  11.134
45205W        W16821  27.557  27.481   3.872
45206W        W16822  17.308  19.619  10.141
45207W        W16823  40.486   1.170   1.083
45208W        W16824   4.688  32.666  12.516
45209W        W16825   5.946   9.655  12.915
45210W        W16826   8.084  20.244   1.869
45211W        W16827   2.612   6.689   3.785
45212W        W16828  43.419   8.748   2.910
45213W        W16829  26.014  43.769   2.877
45214W        W16830  28.188   5.241   3.203
45215W        W16831  34.582  42.741   0.444
45216W        W16832  18.242   8.330  13.846
45217W        W16833   9.781  23.759   2.390
45218W        W16834   4.747   6.854   4.559
45219W        W16835  16.243  31.956   4.617
45220W        W16836  30.636   7.580  14.222
45221W        W16837  10.452  26.721  11.032
45222W        W16838  22.606   9.681  12.928
45223W        W16839   6.854  40.507  13.886
45224W        W16840  12.266  39.870   4.690
45225W        W16841   9.763  39.351  12.618
45226W        W16842  24.612   9.420   3.959
45227W        W16843  11.550  29.868  13.353
45228W        W16844  33.507   6.684   3.041
45229W        W16845  29.253   3.802   4.143
45230W        W16846  35.824  32.921   2.326
45231W        W16847  22.955  43.838   4.572
45232W        W16848   0.707  41.450   4.328
45233W        W16849  13.259   6.402   2.706
45234W        W16850   3.466  12.040   1.273
45235W        W16851  14.741   7.860  14.970
45236W        W16852  38.206  26.896  13.244
45237W        W16853  28.799   7.219   0.149
45238W        W16854   0.521   2.256  13.893
45239W        W16855  14.586  16.321  11.897
45240W        W16856  15.241  42.447  14.960
45241W        W16857  17.627   1.464  11.111
45242W        W16858   3.806  25.488  11.249
45243W        W16859   0.826  24.817   0.978
45244W        W16860  37.995  37.838  12.036
45245W        W16861  38.063   6.428   3.164
45246W        W16862  42.923  32.437   3.172
45247W        W16863  33.088  39.052   0.854
45248W        W16864   9.277  17.749   2.032
45249W        W16865  18.809  39.844  14.832
45250W        W16866  17.174  28.980  13.545
45251W        W16867  36.901   0.540   2.273
45252W        W16868  32.398  16.715  13.353
45253W        W16869  32.134  42.930  11.798
45254W        W16870  40.569  29.096  12.628
45255W        W16871  14.294   9.860  10.756
45256W        W16872  11.236  26.632   2.419
45257W        W16873   6.966  40.962  14.133
45258W        W16874  44.319   0.972  14.483
45259W        W16875  33.517  39.486   1.687
45260W        W16876  20.304  42.780   1.993
45261W        W16877   6.905  21.094   3.277
45262W        W16878  19.283  31.535   3.369
45263W        W16879  20.845  28.672   0.274
45264W        W16880   3.811  44.277   3.026
45265W        W16881  10.400  13.820  13.843
45266W        W16882  44.788  22.122  13.985
45267W        W16883  28.448  35.286   4.073
45268W        W16884   6.836  23.303   3.297
45269W        W16885  11.196  32.726  11.204
45270W        W16886  13.048  23.507  13.433
45271W        W16887  41.405  17.079  13.126
45272W        W16888  16.977   4.349   1.903
45273W        W16889   8.500  22.061  11.531
45274W        W16890  34.069  44.039   0.477
45275W        W16891  35.055   8.385   2.088
45276W        W16892  29.221   0.321   0.174
45277W        W16893  30.437  22.856   3.529
45278W        W16894  21.824  42.417  14.746
45279W        W16895  41.730  41.483   2.294
45280W        W16896  14.383  43.409  11.683
45281W        W16897  43.211   5.766  10.671
45282W        W16898  25.594  33.193  12.237
45283W        W16899  21.067  24.765  10.726
45284W        W16900  32.617  28.208   5.654
45285W        W16901  38.751  27.766  10.676
45286W        W16902  23.213  40.656   9.975
45287W        W16903  44.345  14.535  10.304
45288W        W16904  28.095   4.131  13.563
45289W        W16905  23.471  25.645   3.733
45290W        W16906  10.778  13.141   4.356
45291W        W16907  27.201  11.433   1.336
45292W        W16908  14.728  11.338   4.698
45293W        W16909  33.924  39.973  13.835
45294W        W16910  24.363  40.226  11.553
45295W        W16911  40.600  36.148  12.402
45296W        W16912  14.046  23.412  14.267
45297W        W16913  44.698  23.101   4.268
45298W        W16914  31.455  44.818   3.667
45299W        W16915  35.084  37.438  10.826
45300W        W16916  28.534  41.962  10.724
45301W        W16917  17.136  40.203   1.603
45302W        W16918  23.487   3.061  12.664
45303W        W16919  19.055   5.765   3.584
45304W        W16920  40.383   0.799  12.738
45305W        W16921  29.603  30.655  14.998
45306W        W16922  38.997  34.496   9.946
45307W        W16923  18.830  37.941   3.512
45308W        W16924  13.657  38.069  11.690
45309W        W16925  43.901  13.821  11.176
45310W        W16926  40.352  33.830  13.020
45311W        W16927  14.847  43.776  12.876
45312W        W16928  35.504   3.174  12.889
45313W        W16929  37.298   7.422   4.580
45314W        W16930   2.971  31.678   0.953
45315W        W16931  21.021  15.776  12.766
45316W        W16932   3.526  17.138   5.006
45317W        W16933   1.720  15.646   1.773
45318W        W16934  12.668  35.216   4.025
45319W        W16935   2.235  41.867  13.905
45320W        W16936  18.130  24.591   1.212
45321W        W16937  13.719  34.002  13.380
45322W        W16938  23.955  13.353  14.493
45323W        W16939  24.645  23.590  12.394
45324W        W16940  25.453  18.554   3.590
45325W        W16941   7.559  39.026   4.979
45326W        W16942  16.885  17.337   3.739
45327W        W16943   7.278  31.084  14.602
45328W        W16944  33.556   8.332  11.896
45329W        W16945  23.459  25.402  13.392
45330W        W16946  10.849   5.492  14.840
45331W        W16947  14.808  16.618  11.045
45332W        W16948   2.577  27.603  10.641
45333W        W16949  33.080  16.108  11.042
45334W        W16950   6.954   5.481   2.740
45335W        W16951  14.821  12.312   0.887
45336W        W16952  33.987  17.123   0.622
45337W        W16953   8.606   7.818  11.146
45338W        W16954  36.083  18.050  11.129
45339W        W16955  31.587  38.564  11.479
45340W        W16956  11.248  44.941   3.858
45341W        W16957  42.937  30.769  12.553
45342W        W16958   7.327   2.649   4.522
45343W        W16959  40.794  15.052  13.560
45344W        W16960  25.242  44.021   4.412
45345W        W16961  23.200   1.570  14.336
45346W        W16962  31.016  23.538   0.842
45347W        W16963  28.100  12.620   1.746
45348W        W16964   8.434  32.443   0.367
45349W        W16965  38.038  23.472   0.620
45350W        W16966  13.717   6.849   3.228
45351W        W16967  25.833  16.763   9.795
45352W        W16968  41.312  16.293   2.738
45353W        W16969  19.574  26.009   0.704
45354W        W16970  24.974  19.211   3.767
45355W        W16971  43.876  41.858  14.728
45356W        W16972  33.521   7.694   4.763
45357W        W16973  32.825   2.183  10.503
45358W        W16974  27.034  12.077  14.233
45359W        W16975   8.275  16.487   0.790
45360W        W16976  19.362  31.723   3.858
45361W        W16977  37.032  30.907  12.744
45362W        W16978  38.998  38.311  13.909
45363W        W16979  11.289   1.019   2.866
45364W        W16980   7.795  32.104  10.993
45365W        W16981  14.771  11.643  10.514
45366W        W16982  12.168   3.369  10.330
45367W        W16983  28.097  34.141  11.119
45368W        W16984  20.046  27.488   4.130
45369W        W16985  26.708   3.714  14.724
45370W        W16986   2.804  38.529  14.248
45371W        W16987  39.024  43.658   4.519
45372W        W16988  25.090  10.932  10.988
45373W        W16989  24.285  15.268   1.895
45374W        W16990  37.100  14.336  13.500
45375W        W16991   1.466  26.473  14.118
45376W        W16992   4.420  17.710   3.120
45377W        W16993  31.582  40.014   4.557
45378W        W16994  25.889  30.120   1.243
45379W        W16995   1.828  39.968   1.345
45380W        W16996  20.401   0.187  12.504
45381W        W16997   2.707  13.864  12.316
45382W        W16998   7.963   2.829  14.884
45383W        W16999  30.561  10.419  13.740
45384W        W17000  30.025  44.506  12.871
45385W        W17001  13.691  16.815  14.937
45386W        W17002   9.177  25.619   1.697
45387W        W17003  28.656  20.300  14.877
45388W        W17004  20.228   3.497   2.376
45389W        W17005  11.670  10.006  14.861
45390W        W17006  36.877  32.116  14.339
45391W        W17007  17.786  18.225  10.789
45392W        W17008  38.052   1.268  14.900
45393W        W17009   6.181  43.065  13.355
45394W        W17010  19.111  33.090  11.629
45395W        W17011  14.410  29.442   4.081
45396W        W17012  31.691   4.385  11.158
45397W        W17013  18.698  25.981   0.391
45398W        W17014  22.022  13.118  14.840
45399W        W17015  33.474  21.232  14.444
45400W        W17016  18.898   0.740   0.573
45401W        W17017  11.053  36.105   2.848
45402W        W17018   2.866  11.335   4.231
45403W        W17019   6.465  44.847  14.848
45404W        W17020  18.067  38.258   2.351
45405W        W17021   4.345  20.057   1.919
45406W        W17022  22.161   5.084  11.574
45407W        W17023  31.975  26.160   4.309
45408W        W17024  21.294  35.169   4.621
45409W        W17025  12.008  41.376  13.007
45410W        W17026   7.245  14.420  11.601
45411W        W17027  32.546  32.434  14.027
45412W        W17028  31.143  32.062   3.982
45413W        W17029  26.188  32.652  14.493
45414W        W17030  18.707  24.007   1.215
45415W        W17031   5.226  38.170   2.943
45416W        W17032  12.513  29.653  12.626
45417W        W17033  27.806  20.529   2.829
45418W        W17034  24.274   7.275   0.410
45419W        W17035  36.145  12.088   4.454
45420W        W17036  15.368  42.655  10.724
45421W        W17037   3.897  35.846  11.155
45422W        W17038  43.001   1.253   3.900
45423W        W17039  29.226  19.307  11.175
45424W        W17040  15.936   6.530   2.840
45425W        W17041  14.120  16.306  12.094
45426W        W17042  14.664  15.295  13.882
45427W        W17043  22.150  23.766  13.858
45428W        W17044   4.235  31.414   0.405
45429W        W17045  37.556  29.884  11.661
45430W        W17046  15.832   9.234  12.263
45431W        W17047  43.365  26.211   4.942
45432W        W17048   0.378  28.159   1.720
45433W        W17049  40.960  35.469  13.886
45434W        W17050  44.200  24.914  11.703
45435W        W17051  15.513   1.834  13.561
45436W        W17052  33.449  29.250  10.661
45437W        W17053  37.004  28.672  14.851
45438W        W17054  31.349  37.014   4.626
45439W        W17055  19.013   6.051  12.419
45440W        W17056   1.415  30.542  13.735
45441W        W17057  12.268  20.028  11.092
45442W        W17058  42.314  43.388   4.090
45443W        W17059  20.007   8.286  11.961
45444W        W17060  39.461   7.663   3.114
45445W        W17061  33.813  33.576  12.542
45446W        W17062  22.010  22.067   0.961
45447W        W17063  44.188  22.460   2.680
45448W        W17064  20.121  20.768  13.362
45449W        W17065  14.639  27.449  14.822
45450W        W17066  30.042  31.935  10.495
45451W        W17067   3.202  24.510  11.986
45452W        W17068  44.799  15.149  10.771
45453W        W17069   3.707  26.621   0.799
45454W        W17070  15.104  19.248   2.373
45455W        W17071   8.203  22.091   4.133
45456W        W17072   2.405  24.194  13.796
45457W        W17073  37.959   5.933   3.237
45458W        W17074   4.158   9.243   1.285
45459W        W17075   8.732  32.357   4.688
45460W        W17076  12.325  37.093  13.103
45461W        W17077  18.050   9.058  11.568
45462W        W17078  14.549  27.050  13.406
45463W        W17079  39.154   3.829   1.754
45464W        W17080  22.098  30.403  13.819
45465W        W17081  26.069  10.379  14.255
45466W        W17082  31.658   0.723   3.216
45467W        W17083  24.083  40.921   1.731
45468W        W17084  36.033   8.646  11.124
45469W        W17085  31.383  14.583  12.094
45470W        W17086  19.144  34.692  13.593
45471W        W17087  18.710  28.909   1.326
45472W        W17088   9.850  18.287   4.278
45473W        W17089  31.073  39.751  10.732
45474W        W17090  41.510  32.960  11.236
45475W        W17091   4.098  22.065  12.630
45476W        W17092  40.592  15.417   3.207
45477W        W17093   2.216  10.927  12.049
45478W        W17094  15.789  35.508   4.636
45479W        W17095  35.210  31.367   4.859
45480W        W17096  14.179  27.553   1.584
45481W        W17097  25.573   7.470   1.284
45482W        W17098  16.329  38.449  11.587
45483W        W17099  17.804  36.450   1.336
45484W        W17100  31.343  26.566   2.519
45485W        W17101  38.797   0.044  12.957
45486W        W17102  41.067   3.756  11.989
45487W        W17103  44.557  31.465  14.494
45488W        W17104  11.773  32.906   0.406
45489W        W17105  15.285  35.362  11.256
45490W        W17106  22.624  24.691   2.915
45491W        W17107  11.304   2.410   2.620
45492W        W17108  40.095  18.085   3.075
45493W        W17109  30.093   7.273  11.650
45494W        W17110  42.017   0.845  12.987
45495W        W17111   0.410  19.083   0.285
45496W        W17112  30.442  23.281  11.541
45497W        W17113  27.741   0.860  13.643
45498W        W17114  27.643   6.378  13.413
45499W        W17115   5.999  27.132  12.793
45500W        W17116  10.143  38.042  13.414
45501W        W17117  39.913   3.364  13.096
45502W        W17118  13.646   2.814   2.406
45503W        W17119  30.414  24.804  11.630
45504W        W17120  31.471   9.404  11.163
45505W        W17121  35.855  11.283  10.663
45506W        W17122  23.976  28.548   1.297
45507W        W17123  39.316  32.831  12.996
45508W        W17124   8.657  37.912   1.260
45509W        W17125  38.428  15.123  12.907
45510W        W17126  31.095  14.080   2.622
45511W        W17127   8.905   4.660  11.102
45512W        W17128   8.352  23.482  12.652
45513W        W17129  26.956   9.727  14.895
45514W        W17130  23.273   6.000   1.142
45515W        W17131  43.369   0.939   2.356
45516W        W17132  41.347  18.691   0.351
45517W        W17133  29.110   7.961   3.968
45518W        W17134   9.680   1.027  11.219
45519W        W17135  26.015  37.919   1.971
45520W        W17136  24.799  13.310   0.170
45521W        W17137  19.526   1.381  13.954
45522W        W17138  19.102   6.539  11.150
45523W        W17139  16.796  42.518  10.657
45524W        W17140  24.161  43.972   2.677
45525W        W17141   3.784  12.698   1.076
45526W        W17142  29.602   9.820   2.865
45527W        W17143  28.512  38.983  13.952
45528W        W17144  27.422  40.064  12.082
45529W        W17145  40.901  39.066   1.496
45530W        W17146  38.398   0.997   2.726
45531W        W17147   0.490  42.335   3.376
45532W        W17148  20.074  13.894  12.509
45533W        W17149  22.186  25.611  11.963
45534W        W17150  32.914   4.447   4.305
45535W        W17151   9.248   2.945   4.913
45536W        W17152  12.959  39.463   1.381
45537W        W17153   6.257  26.755  14.714
45538W        W17154  26.487  39.244  11.133
45539W        W17155  18.577   1.997  13.316
45540W        W17156   3.761  22.530   1.763
45541W        W17157  26.259  21.153  13.313
45542W        W17158  15.927  27.087   2.877
45543W        W17159  40.664  21.280  12.315
45544W        W17160  40.077  20.825  13.464
45545W        W17161  14.644  39.736  14.330
45546W        W17162  20.113  34.935  10.940
45547W        W17163   2.628   6.419   1.918
45548W        W17164  17.072  18.245  13.085
45549W        W17165  42.019  12.702  13.029
45550W        W17166  10.249  40.434  13.754
45551W        W17167   3.472  25.707  14.287
45552W        W17168   7.845   1.395   0.429
45553W        W17169  11.541  29.006  14.242
45554W        W17170  34.233  42.592  13.415
45555W        W17171   8.400  24.780   2.777
45556W        W17172  39.185  16.114   4.271
45557W        W17173  21.697  31.835  11.094
45558W        W17174  18.265  40.051  11.995
45559W        W17175  17.044  36.988   1.361
45560W        W17176  28.938  24.222   3.691
45561W        W17177  19.695   6.024   0.494
45562W        W17178  30.403  43.405   3.888
45563W        W17179  38.476  42.928   4.757
45564W        W17180  13.298  19.552   0.977
45565W        W17181  40.611  24.451   4.479
45566W        W17182   3.893  27.655   1.431
45567W        W17183   3.702   9.150   3.854
45568W        W17184  26.925   6.789   1.371
45569W        W17185   2.365   1.195  11.883
45570W        W17186   5.383  14.788   0.201
45571W        W17187   8.835   5.397  13.974
45572W        W17188   4.837  23.518  11.670
45573W        W17189  27.876   4.937  13.809
45574W        W17190  23.995  31.488  11.015
45575W        W17191  41.617   9.779  10.549
45576W        W17192   1.456  40.785   0.417
45577W        W17193  27.575  28.871  11.990
45578W        W17194  31.257  38.353   1.135
45579W        W17195  24.398  29.205   3.104
45580W        W17196  16.292   5.908   2.401
45581W        W17197  21.135  28.491  11.276
45582W        W17198   9.888  24.382  12.167
45583W        W17199  11.295   9.967  11.420
45584W        W17200   5.972  40.393  11.316
45585W        W17201  30.219  11.419  11.040
45586W        W17202  29.777  41.757   0.290
45587W        W17203  43.791  15.736  10.523
45588W        W17204  32.980  27.480  14.019
45589W        W17205  21.728  10.127   0.740
45590W        W17206  17.379  13.186   2.462
45591W        W17207  35.520   5.882   1.379
45592W        W17208   7.656  18.647  14.007
45593W        W17209  31.178  33.092  11.891
45594W        W17210  10.030   8.962   5.070
45595W        W17211   9.679  25.258   3.778
45596W        W17212   8.355   2.247  13.278
45597W        W17213  34.676   8.450   0.752
45598W        W17214  35.342   7.158  12.132
45599W        W17215  33.999  34.919  13.866
45600W        W17216  16.764  40.517   1.770
45601W        W17217  16.926  37.582   3.159
45602W        W17218   8.534  41.512  10.021
45603W        W17219  28.380  30.881  11.131
45604W        W17220  10.206  29.929   0.206
45605W        W17221  21.045  19.847  11.563
45606W        W17222  41.404  24.433   3.793
45607W        W17223  18.225  21.046  10.740
45608W        W17224  19.206  44.206   3.249
45609W        W17225   0.431  26.168   4.333
45610W        W17226  32.181   3.840  12.066
45611W        W17227   9.471  23.759   0.688
45612W        W17228  32.148  33.357  13.833
45613W        W17229   6.145  13.777   0.464
45614W        W17230  32.855  18.726  14.636
45615W        W17231  28.632  42.755  10.223
45616W        W17232  14.362  31.516   0.747
45617W        W17233   3.551  32.994  13.621
45618W        W17234  27.216  12.747   1.673
45619W        W17235  36.549   3.793  12.468
45620W        W17236  38.304  27.042   1.740
45621W        W17237  28.170  18.334  12.655
45622W        W17238  29.131  35.474   4.555
45623W        W17239  35.302   9.776   3.580
45624W        W17240  43.816  37.062  12.928
45625W        W17241  40.585  42.440  11.120
45626W        W17242  40.150  23.742  11.989
45627W        W17243  27.860  32.876  13.870
45628W        W17244  28.680  13.242   1.753
45629W        W17245  30.176  25.641  13.546
45630W        W17246  14.616  33.607   0.732
45631W        W17247  28.721   6.644  13.898
45632W        W17248   1.849  26.686  14.717
45633W        W17249   9.949   3.347   4.412
45634W        W17250   2.765  18.062  11.517
45635W        W17251  36.902  22.836  12.644
45636W        W17252  39.788  14.550   1.371
45637W        W17253  35.175  41.549   2.262
45638W        W17254   8.233  13.210  13.400
45639W        W17255   9.815  34.598  13.972
45640W        W17256   3.298  31.787   1.469
45641W        W17257  39.844   6.015  10.679
45642W        W17258  30.533  18.052  14.626
45643W        W17259  25.168   2.750  13.093
45644W        W17260  41.480   6.853   0.879
45645W        W17261  36.264  44.768   0.058
45646W        W17262  15.294  17.565  10.409
45647W        W17263  40.059  41.517   0.800
45648W        W17264   4.303  16.755  13.941
45649W        W17265  40.730   2.086  12.051
45650W        W17266   2.546  27.469  11.957
45651W        W17267   5.661  37.981  14.906
45652W        W17268  31.108  29.966   1.324
45653W        W17269   8.958  31.396   1.748
45654W        W17270   1.046  22.965  10.635
45655W        W17271  11.163  38.107  13.083
45656W        W17272   3.178  13.354  14.436
45657W        W17273  35.417  10.626  14.321
45658W        W17274   5.645   9.619  14.876
45659W        W17275  23.145  36.872  11.682
45660W        W17276   7.255   4.078   3.125
45661W        W17277  41.374  24.579   0.766
45662W        W17278  26.935  35.433  13.486
45663W        W17279  31.132  35.018  13.823
45664W        W17280  38.546  30.920  10.738
45665W        W17281   1.345  34.904   2.875
45666W        W17282  36.303  29.805   1.968
45667W        W17283  32.724  16.382  12.454
45668W        W17284  36.112  34.511   0.422
45669W        W17285  21.082  42.021   3.638
45670W        W17286  34.997   0.438  14.802
45671W        W17287  22.696  22.284  13.345
45672W        W17288  31.477   8.156   1.951
45673W        W17289   5.705   3.632   4.603
45674W        W17290  13.366  27.567  11.074
45675W        W17291  41.474  44.306  13.988
45676W        W17292   0.452  32.224  14.714
45677W        W17293  27.813  14.722   4.481
45678W        W17294  29.500  23.728  13.517
45679W        W17295  39.337  12.238   1.715
45680W        W17296   4.439  23.545   4.993
45681W        W17297  25.112   8.456   2.815
45682W        W17298  34.160   0.342  12.949
45683W        W17299   6.252  15.868  12.935
45684W        W17300  14.222  34.128  13.471
45685W        W17301  25.065   6.187   4.160
45686W        W17302  19.358   6.205  14.324
45687W        W17303  12.186  44.897  13.551
45688W        W17304  42.232  28.661  11.240
45689W        W17305  38.573  39.501   0.579
45690W        W17306  21.664  44.334   0.239
45691W        W17307   0.797   7.934  13.380
45692W        W17308  31.042  33.350   4.523
45693W        W17309  35.771  41.532  11.968
45694W        W17310  14.794  24.395  14.328
45695W        W17311  11.392   4.424  11.564
45696W        W17312  38.872  18.851  10.732
45697W        W17313  27.636  26.506  14.323
45698W        W17314  43.218  11.883   0.502
45699W        W17315  12.324  40.075   2.559
45700W        W17316   4.846  20.698   2.773
45701W        W17317  35.226  10.458   1.848
45702W        W17318  11.243  29.718  11.534
45703W        W17319   9.878  26.668  12.086
45704W        W17320  33.378  43.036  13.484
45705W        W17321  33.620  35.767  12.949
45706W        W17322  44.517  25.151   1.614
45707W        W17323  31.415   1.769  14.233
45708W        W17324  19.179  29.867  14.292
45709W        W17325  25.654  13.998   2.911
45710W        W17326  14.943   7.671   3.510
45711W        W17327  17.762  27.158   1.405
45712W        W17328  12.145  24.635   3.741
45713W        W17329  22.311  14.325  12.177
45714W        W17330  28.427  29.941   4.144
45715W        W17331  40.358   7.810   3.605
45716W        W17332   8.098  13.702   2.940
45717W        W17333  28.585  22.334   0.513
45718W        W17334  31.264  31.273  11.088
45719W        W17335  34.011  40.050   2.234
45720W        W17336  16.631   3.904  11.949
45721W        W17337  34.632  26.627   0.123
45722W        W17338  43.055  37.462  13.521
45723W        W17339  44.973  14.431   4.653
45724W        W17340   7.440  40.971   2.235
45725W        W17341  36.772  25.620  11.995
45726W        W17342  36.103  32.467  11.568
45727W        W17343  43.325  18.967   4.468
45728W        W17344  26.712   1.286  12.638
45729W        W17345  21.585   0.241   1.189
45730W        W17346   4.673  21.182  10.638
45731W        W17347   2.848  43.583   4.604
45732W        W17348  41.412  15.228   0.424
45733W        W17349   6.179  33.725   3.670
45734W        W17350  22.652  42.827   1.263
45735W        W17351   4.199  10.886  13.570
45736W        W17352  19.743  43.397  10.623
45737W        W17353  21.247  30.599  13.525
45738W        W17354   4.817  27.336   2.438
45739W        W17355  42.527   2.200   4.122
45740W        W17356  29.045  31.495   4.679
45741W        W17357  29.170  12.901  11.651
45742W        W17358  15.469  15.262  11.621
45743W        W17359  41.135  24.259  11.611
45744W        W17360  42.624  27.091  11.487
45745W        W17361  37.256  16.195  12.361
45746W        W17362  33.682  22.843   4.637
45747W        W17363  14.671  36.917  12.863
45748W        W17364  23.003  31.749   4.388
45749W        W17365  14.125   8.183  13.903
45750W        W17366   4.691  17.948  14.469
45751W        W17367  24.888  42.827   4.588
45752W        W17368  33.656  43.701   0.456
45753W        W17369   9.398   2.346  13.519
45754W        W17370  24.089  18.243  12.795
45755W        W17371   0.676   5.450   4.236
45756W        W17372  26.098  34.361   2.701
45757W        W17373  44.044   2.726  14.775
45758W        W17374  39.912   4.318  12.018
45759W        W17375  21.495  22.261  14.320
45760W        W17376   2.088  24.061  14.438
45761W        W17377  42.946  21.545   3.925
45762W        W17378  11.214  44.978  12.978
45763W        W17379  44.389  18.554  14.331
45764W        W17380  32.324  36.548  11.160
45765W        W17381  29.360  32.414   3.297
45766W        W17382   1.354  21.258   2.798
45767W        W17383  15.767  26.269   1.750
45768W        W17384  26.754  25.043   4.946
45769W        W17385  35.352  15.297   2.299
45770W        W17386  36.855  37.892   3.153
45771W        W17387  15.921  12.504   1.314
45772W        W17388   2.556  28.369   4.191
45773W        W17389  33.918  34.805   2.854
45774W        W17390  29.016  13.556  12.408
45775W        W17391  18.349  44.298  11.568
45776W        W17392  23.577  31.081  14.839
45777W        W17393   0.464  25.562  14.424
45778W        W17394   7.990   0.676  13.022
45779W        W17395  10.752  13.747   1.870
45780W        W17396  40.941  39.770   4.589
45781W        W17397  16.532  12.661   3.236
45782W        W17398  13.842  24.733   0.024
45783W        W17399   3.861  28.042  12.145
45784W        W17400  14.621  19.618   3.280
45785W        W17401  41.278   4.433  11.165
45786W        W17402  37.480  36.136  11.859
45787W        W17403  10.882  41.810  11.020
45788W        W17404   3.872  14.135   1.813
45789W        W17405  17.266  39.279  14.040
45790W        W17406  14.427  32.217   3.812
45791W        W17407   6.483  20.281  10.799
45792W        W17408  25.411  14.789  10.645
45793W        W17409  29.862  31.117  13.958
45794W        W17410  18.058  15.259   0.957
45795W        W17411  29.960  36.070   0.500
45796W        W17412  23.449  18.756   3.196
45797W        W17413   1.915  39.540   4.327
45798W        W17414  34.642   6.741   0.019
45799W        W17415  37.480  28.422  14.829
45800W        W17416  15.704   7.229   2.312
45801W        W17417  40.721  29.193   3.805
45802W        W17418   7.824  16.596   2.687
45803W        W17419   8.419  21.003  11.008
45804W        W17420  10.223  25.214   4.651
45805W        W17421  30.254  13.193  13.094
45806W        W17422  34.909   5.399   0.969
45807W        W17423  30.165  29.900  11.525
45808W        W17424  29.673  24.193   4.363
45809W        W17425   7.387   7.887   0.763
45810W        W17426  36.868   6.984  11.553
45811W        W17427   8.614   5.798  11.431
45812W        W17428  33.520  20.517  10.635
45813W        W17429  34.560  15.141  13.903
45814W        W17430  43.916  18.127  12.861
45815W        W17431   1.922  39.775  10.781
45816W        W17432   9.214   4.689   2.453
45817W        W17433  15.660  43.371  12.156
45818W        W17434  23.648  20.297  13.333
45819W        W17435   0.457  43.238  12.503
45820W        W17436   3.735  39.972  11.507
45821W        W17437  38.087  21.641  13.107
45822W        W17438  18.611   1.322   1.023
45823W        W17439   3.097  30.534   2.418
45824W        W17440  32.877  22.875  10.785
45825W        W17441   1.769  32.764  14.585
45826W        W17442  17.778  42.316   3.302
45827W        W17443  16.337  15.036  12.638
45828W        W17444  42.019  28.095   4.994
45829W        W17445  11.846  38.334  14.965
45830W        W17446  16.033  20.494  14.796
45831W        W17447  37.624  32.134   2.228
45832W        W17448  15.081  30.412   0.343
45833W        W17449  39.061  22.399  14.377
45834W        W17450  32.898   2.209   0.801
45835W        W17451  39.986  32.150   5.228
45836W        W17452  11.236  15.119   1.006
45837W        W17453  37.520   0.630   5.085
45838W        W17454  36.484   5.364   1.276
45839W        W17455  17.634   0.951  13.015
45840W        W17456   2.265  33.059   3.642
45841W        W17457  20.324   0.856  12.006
45842W        W17458  32.756  22.053  14.328
45843W        W17459  40.807  12.958   0.360
45844W        W17460  17.248  43.820  10.360
45845W        W17461  43.738   5.885  12.864
45846W        W17462  23.988  20.260   0.434
45847W        W17463   0.356   8.409   2.683
45848W        W17464  43.278  30.640   0.196
45849W        W17465  29.498  29.545  10.201
45850W        W17466   4.100  38.007  11.650
45851W        W17467  32.943  31.708  10.760
45852W        W17468   4.994  37.329  14.952
45853W        W17469  31.177  36.811  13.488
45854W        W17470  15.739  14.193   4.089
45855W        W17471  24.628  18.181  14.892
45856W        W17472   1.316  28.403   2.324
45857W        W17473  13.913  38.812   1.936
45858W        W17474  36.403  33.055   3.276
45859W        W17475  19.856  23.332   3.089
45860W        W17476  16.681  31.882   2.851
45861W        W17477  37.913  36.548   1.350
45862W        W17478  12.604  39.430  11.409
45863W        W17479  39.341  40.392  14.322
45864W        W17480  38.728  10.771  10.193
45865W        W17481   5.741  15.688  10.668
45866W        W17482  13.105  37.233   0.400
45867W        W17483   3.415  24.619  13.428
45868W        W17484  44.544  23.197  12.882
45869W        W17485  16.830  30.615  13.416
45870W        W17486  41.203  27.100   3.839
45871W        W17487  10.257  25.739   0.872
45872W        W17488  26.204  21.233   1.720
45873W        W17489   2.766  14.832   1.828
45874W        W17490  40.620  30.503  14.695
45875W        W17491  31.706  15.358   1.831
45876W        W17492  18.346   9.349   2.678
45877W        W17493  22.582  40.606  12.583
45878W        W17494  29.707   9.343   3.007
45879W        W17495   6.869  18.712  13.392
45880W        W17496  33.449  30.915   3.047
45881W        W17497  40.017  38.291  11.665
45882W        W17498  44.877  19.011   3.012
45883W        W17499   5.659  16.362   4.046
45884W        W17500  43.804  43.458   1.112
45885W        W17501   8.373  23.849   2.824
45886W        W17502   6.472   2.946   1.408
45887W        W17503  13.927  19.119   3.042
45888W        W17504  32.922  15.057   3.221
45889W        W17505  44.976  32.039  14.363
45890W        W17506  14.146  36.117  11.063
45891W        W17507  36.092  18.867  10.699
45892W        W17508  40.839  40.893   1.822
45893W        W17509  44.774  40.858   3.350
45894W        W17510  43.979  27.941  14.432
45895W        W17511   5.478  24.680   4.316
45896W        W17512  26.451  22.628  13.337
45897W        W17513  29.541  23.185   1.371
45898W        W17514  31.231  18.493  11.617
45899W        W17515  44.834   2.721  13.759
45900W        W17516   8.662  42.556   1.706
45901W        W17517  17.309  13.692   1.497
45902W        W17518  25.741  10.848   3.628
45903W        W17519  20.664  39.378   3.739
45904W        W17520  43.055   6.710   1.342
45905W        W17521  19.266   1.437   2.637
45906W        W17522  29.366  24.008   2.861
45907W        W17523  13.333   1.305   2.879
45908W        W17524  31.438   2.918  13.869
45909W        W17525  12.875   9.155   4.552
45910W        W17526  39.828  30.090   0.046
45911W        W17527  22.530  13.524   4.134
45912W        W17528   3.193  12.843  14.366
45913W        W17529  28.578  10.588   1.460
45914W        W17530  19.245  24.224  11.608
45915W        W17531  13.704  30.299   3.065
45916W        W17532   7.675  21.221  11.639
45917W        W17533  30.861  15.065  11.668
45918W        W17534  22.297  18.292  11.247
45919W        W17535   4.820   4.900  14.406
45920W        W17536   7.816   6.279  13.437
45921W        W17537  33.434  30.195  12.896
45922W        W17538  26.566   3.714  12.961
45923W        W17539  17.037  19.184   1.576
45924W        W17540  17.807   7.769   1.798
45925W        W17541  37.666   2.833   4.009
45926W        W17542  34.577  33.151   4.758
45927W        W17543  15.147   4.517  14.876
45928W        W17544  30.469  14.845   1.322
45929W        W17545  14.095  17.582   0.857
45930W        W17546  27.634  13.531  12.428
45931W        W17547  42.439  22.626   3.687
45932W        W17548   8.404  25.217  10.558
45933W        W17549  37.618   7.985  14.302
45934W        W17550  35.986  16.041   3.347
45935W        W17551   3.212  10.302   1.884
45936W        W17552  19.098  30.906   2.926
45937W        W17553  10.167  38.844  11.975
45938W        W17554  21.147  15.324   5.022
45939W        W17555  12.935  17.199  12.167
45940W        W17556  30.021   6.514   5.053
45941W        W17557  10.291  18.443   4.466
45942W        W17558  17.601  31.937   3.214
45943W        W17559  17.117  23.582   0.101
45944W        W17560  16.691   1.093  11.890
45945W        W17561  38.101   7.896   0.451
45946W        W17562  12.205  31.813  14.069
45947W        W17563  15.780   2.230   1.406
45948W        W17564   7.785  25.997  13.633
45949W        W17565  43.407  14.790  10.526
45950W        W17566  32.973  42.728  12.651
45951W        W17567  29.095  30.500   0.876
45952W        W17568  10.743  20.637  12.892
45953W        W17569  43.486  19.605   3.753
45954W        W17570  26.146  22.672  13.967
45955W        W17571  40.845  24.177   0.429
45956W        W17572  37.366   4.373  10.878
45957W        W17573   1.395  30.498   1.418
45958W        W17574  28.011  27.832  10.621
45959W        W17575  34.279  39.937  12.055
45960W        W17576  14.808  11.395  12.435
45961W        W17577   6.876  25.122  13.189
45962W        W17578   4.621  37.372  14.588
45963W        W17579  19.497  28.975  14.063
45964W        W17580   8.326  33.620   0.186
45965W        W17581  16.549  31.449   1.498
45966W        W17582  10.677  18.479   0.138
45967W        W17583  12.572  42.591  13.460
45968W        W17584  19.784   7.279  14.719
45969W        W17585  41.028  38.868   0.999
45970W        W17586  18.811  17.095  13.134
45971W        W17587  34.843  43.005   3.987
45972W        W17588  35.123  22.504  11.176
45973W        W17589   1.892   6.959   0.080
45974W        W17590  36.359   7.375   0.355
45975W        W17591   0.369  12.874  12.063
45976W        W17592  24.210  19.774   3.891
45977W        W17593   5.675  16.054   3.141
45978W        W17594  31.374  37.448  12.148
45979W        W17595  12.328   9.012   3.683
45980W        W17596   7.318   7.354   2.235
45981W        W17597   2.970  19.777  12.880
45982W        W17598  24.456  24.548   3.671
45983W        W17599  23.012  20.563  13.843
45984W        W17600   5.110   6.043  11.079
45985W        W17601  42.012  11.866  11.235
45986W        W17602   6.835  33.440  11.706
45987W        W17603  33.309  31.770   1.811
45988W        W17604  10.786  20.023  10.766
45989W        W17605  40.747  18.150  12.311
45990W        W17606  16.379  25.505  13.442
45991W        W17607  24.195  36.956   4.710
45992W        W17608  17.279  10.716  14.396
45993W        W17609  40.440   7.278   4.588
45994W        W17610  38.332  32.871  11.061
45995W        W17611  26.464  32.669  12.087
45996W        W17612   0.505  24.752   4.305
45997W        W17613  23.310   6.964  10.587
45998W        W17614  22.083   2.335  14.420
45999W        W17615   2.359   5.893   1.676
46000W        W17616  14.722  25.247  13.750
46001W        W17617  11.901  11.154   1.904
46002W        W17618  32.663  20.492   2.883
46003W        W17619  38.602  37.973   2.788
46004W        W17620  33.650  34.444  10.264
46005W        W17621  30.931  25.963   0.346
46006W        W17622  39.344  40.748   0.276
46007W        W17623  21.551  14.141  11.413
46008W        W17624  29.234  10.702  14.107
46009W        W17625  43.591  40.288  12.643
46010W        W17626   4.771  44.997  10.272
46011W        W17627  28.475  44.982   3.088
46012W        W17628  22.409  10.915   0.269
46013W        W17629  19.618  15.339   3.317
46014W        W17630   8.931  12.810  11.912
46015W        W17631  41.258  23.031   0.910
46016W        W17632  10.527  14.758  13.357
46017W        W17633   9.537   7.107   3.633
46018W        W17634   2.792  44.569  10.241
46019W        W17635   4.714  16.078   2.823
46020W        W17636  42.111  17.357  10.924
46021W        W17637  13.909  23.175   1.750
46022W        W17638  20.073  31.062   1.887
46023W        W17639  33.472  23.813   1.749
46024W        W17640  16.788  17.563   4.205
46025W        W17641  23.729   1.361  14.016
46026W        W17642  15.838  38.132  13.484
46027W        W17643  30.474  32.934  14.044
46028W        W17644  28.583   5.223   3.833
46029W        W17645  11.651   9.266   4.708
46030W        W17646  35.991  12.149   2.413
46031W        W17647  15.498  16.314  13.423
46032W        W17648  36.784  35.273  13.417
46033W        W17649  39.404  38.699   1.164
46034W        W17650   8.763  37.330   4.671
46035W        W17651  15.782  34.036   3.627
46036W        W17652  28.087  34.481  11.666
46037W        W17653  24.946  12.569   0.859
46038W        W17654  21.948  36.541   2.938
46039W        W17655   9.315  34.649   2.251
46040W        W17656  42.518  41.692  12.048
46041W        W17657  42.477  23.906  10.761
46042W        W17658   9.602  18.293  11.592
46043W        W17659  27.064   3.017   2.457
46044W        W17660  39.750  31.593   1.906
46045W        W17661  12.654  15.996  14.984
46046W        W17662   2.268   8.114  11.170
46047W        W17663  13.091  32.672   1.302
46048W        W17664  16.567  14.812   0.223
46049W        W17665  44.757  30.179  11.035
46050W        W17666   0.316   5.400   2.175
46051W        W17667  43.233  36.818   4.257
46052W        W17668   9.326   3.198  10.887
46053W        W17669   9.994  18.675  10.879
46054W        W17670  15.063  28.623   3.458
46055W        W17671  40.558  15.359  12.428
46056W        W17672  27.707  22.503   0.257
46057W        W17673  25.931  31.714   3.741
46058W        W17674  34.988   2.387  14.970
46059W        W17675  37.349  36.990   2.087
46060W        W17676  23.571   8.638  11.090
46061W        W17677   7.165   2.144   2.796
46062W        W17678  32.876   9.363  11.153
46063W        W17679  14.199  33.485  13.112
46064W        W17680  36.430  22.797   4.572
46065W        W17681   6.436  39.919  14.940
46066W        W17682  43.262  23.975   1.776
46067W        W17683  28.882  28.045   5.144
46068W        W17684  12.121   1.832  12.276
46069W        W17685  32.999  29.460   4.577
46070W        W17686  18.818  25.616  14.001
46071W        W17687  24.122  11.318   1.355
46072W        W17688  36.257  41.715   2.450
46073W        W17689  34.930   8.834  11.819
46074W        W17690  18.267  19.138  13.334
46075W        W17691  13.392  22.763   0.607
46076W        W17692  23.739  32.513   0.313
46077W        W17693   0.233  33.582  12.493
46078W        W17694  18.812  30.164  13.962
46079W        W17695  20.561  14.309   4.593
46080W        W17696  31.611  22.536  14.095
46081W        W17697  43.057  42.965   2.391
46082W        W17698  16.052  27.397   4.015
46083W        W17699  44.781  32.166  12.059
46084W        W17700  30.152  36.985   0.252
46085W        W17701   1.865   7.370   1.702
46086W        W17702   7.097  13.275  14.471
46087W        W17703  40.304   5.775  10.668
46088W        W17704   2.388  41.996  11.240
46089W        W17705  26.599  22.502   2.696
46090W        W17706  19.600   0.495   2.207
46091W        W17707   5.984  20.120  10.772
46092W        W17708  33.687   3.785   1.031
46093W        W17709  14.118   4.803  12.865
46094W        W17710  32.572  40.273   0.546
46095W        W17711   9.155  18.480   4.964
46096W        W17712  37.005  19.863  11.834
46097W        W17713  15.287   6.293   5.079
46098W        W17714  23.968  38.451  11.858
46099W        W17715  44.008  43.777   4.624
46100W        W17716   8.666  41.899   2.311
46101W        W17717  25.117   9.614  11.563
46102W        W17718  34.542  34.013   1.477
46103W        W17719   7.885  15.657  12.970
46104W        W17720  17.705  18.324  10.273
46105W        W17721  32.351  21.949   4.151
46106W        W17722  29.004  19.195   3.305
46107W        W17723  37.211  17.291  13.628
46108W        W17724  30.120  17.598  13.597
46109W        W17725  17.404  28.986  14.893
46110W        W17726   2.751   6.184  13.833
46111W        W17727  37.814  21.566   0.335
46112W        W17728  29.245  27.037  11.569
46113W        W17729  31.488  24.501  12.383
46114W        W17730   2.311  37.390   1.536
46115W        W17731  36.386  26.194   3.313
46116W        W17732  12.188  31.460   1.735
46117W        W17733  27.966  19.268   0.835
46118W        W17734  35.347  29.677   4.662
46119W        W17735  17.768  11.468  12.689
46120W        W17736  29.736  14.709   2.310
46121W        W17737  34.054   3.758  11.017
46122W        W17738  12.724   2.051  11.586
46123W        W17739  36.118  17.658  13.427
46124W        W17740  10.342   9.474   3.741
46125W        W17741  15.514  42.385   0.416
46126W        W17742  31.098   7.633   1.699
46127W        W17743   7.805  28.896   1.263
46128W        W17744  25.197  36.825   3.260
46129W        W17745  14.060  20.687  12.428
46130W        W17746  18.583   7.732   0.884
46131W        W17747  44.063   2.734  13.366
46132W        W17748  36.994   5.290  13.492
46133W        W17749  36.107  28.274   1.752
46134W        W17750  12.776  39.943   4.877
46135W        W17751  19.091  20.775   1.257
46136W        W17752  38.461  16.146   3.691
46137W        W17753   8.103  25.984  14.073
46138W        W17754  44.115  12.755  12.480
46139W        W17755   4.203  21.891   3.482
46140W        W17756  26.208  34.491   4.011
46141W        W17757  38.413  32.820   3.569
46142W        W17758   9.658  17.228   2.771
46143W        W17759  29.273  33.519   2.821
46144W        W17760  12.984  12.651  10.280
46145W        W17761  41.996  35.324   0.909
46146W        W17762   3.074   9.510  13.318
46147W        W17763  32.120  31.952  14.817
46148W        W17764   8.985   9.260  13.211
46149W        W17765   4.291  17.227  10.391
46150W        W17766  25.928  26.221  14.766
46151W        W17767  27.017  16.287  13.458
46152W        W17768  15.249  10.093  13.072
46153W        W17769  39.370  24.594  13.995
46154W        W17770  11.032  34.698  14.294
46155W        W17771  39.663  42.262  11.169
46156W        W17772   4.745   5.496   4.255
46157W        W17773   8.654   2.026   4.119
46158W        W17774  43.448  16.103  10.899
46159W        W17775  40.656   9.871  10.628
46160W        W17776   4.431   7.768  14.988
46161W        W17777  30.081  24.000   1.595
46162W        W17778  18.934  35.596   1.281
46163W        W17779  31.072  38.781   1.414
46164W        W17780  36.770  11.293  12.646
46165W        W17781   6.202  26.246  14.028
46166W        W17782  25.591  22.986  12.614
46167W        W17783  32.326   1.455  10.699
46168W        W17784   8.832  13.946  14.691
46169W        W17785  14.724  16.014   1.243
46170W        W17786  42.755   3.974   1.665
46171W        W17787  18.220  17.191   0.329
46172W        W17788  27.556  30.284   2.469
46173W        W17789  42.511  34.710   0.036
46174W        W17790  34.969  14.047  11.049
46175W        W17791  27.577   7.210   4.431
46176W        W17792  19.242  44.721  14.990
46177W        W17793  21.691  19.326  13.546
46178W        W17794  22.388  31.162   2.810
46179W        W17795  32.576  21.288   2.209
46180W        W17796  43.692  34.964   2.196
46181W        W17797  23.500  44.015  13.601
46182W        W17798  23.996   7.405  12.535
46183W        W17799   3.866  28.315   0.769
46184W        W17800  22.209  35.927   4.066
46185W        W17801  12.748  29.590  10.758
46186W        W17802  25.568  31.523   4.033
46187W        W17803  22.028   7.597   4.588
46188W        W17804   0.001  12.543   3.669
46189W        W17805  43.959  24.709  11.148
46190W        W17806  19.483   6.743  14.073
46191W        W17807  22.798  16.544   1.797
46192W        W17808  18.730  36.003  12.447
46193W        W17809   3.878  38.798   0.870
46194W        W17810  26.484  40.579   0.355
46195W        W17811  44.335  35.192   1.277
46196W        W17812  43.491   1.886   3.456
46197W        W17813  17.785   3.869   3.205
46198W        W17814  20.022  12.465   0.912
46199W        W17815  33.536  35.418   0.500
46200W        W17816  14.356  25.596  11.525
46201W        W17817  17.605  26.171   3.318
46202W        W17818   8.607  42.431   0.384
46203W        W17819  12.221  12.995  11.556
46204W        W17820   7.234  26.069   4.645
46205W        W17821   6.611   5.300  14.872
46206W        W17822   4.871   2.655  11.703
46207W        W17823  14.331  20.699  13.796
46208W        W17824  31.396  44.037   1.770
46209W        W17825  26.860  12.282  14.997
46210W        W17826  33.008   1.976  11.055
46211W        W17827  27.086  33.425   3.881
46212W        W17828  24.261  24.728   2.203
46213W        W17829  10.947  35.153   2.746
46214W        W17830   8.356  12.671  11.105
46215W        W17831   8.358  34.704  12.417
46216W        W17832  44.725  21.431   3.276
46217W        W17833  19.265  24.183   1.956
46218W        W17834  33.659  41.323  13.970
46219W        W17835  37.044  32.336   0.039
46220W        W17836  44.396  28.551   2.862
46221W        W17837  35.987  11.124  11.476
46222W        W17838  28.151  34.679   0.063
46223W        W17839  29.184  32.527   0.927
46224W        W17840  30.108   9.687   2.916
46225W        W17841  37.826  20.684  14.446
46226W        W17842  40.667   0.503  12.433
46227W        W17843  33.267  34.118  11.007
46228W        W17844  10.666  26.481  11.495
46229W        W17845  32.013  35.889   3.279
46230W        W17846  34.389  32.273   3.542
46231W        W17847  41.715  37.366   3.273
46232W        W17848   8.228   7.047   4.096
46233W        W17849   0.968  23.252  11.860
46234W        W17850  24.490  42.063  13.419
46235W        W17851  40.088  19.261   2.773
46236W        W17852  18.455  28.470  11.367
46237W        W17853   2.986  17.783   3.815
46238W        W17854  42.297  43.090  10.348
46239W        W17855  19.875  21.904   1.461
46240W        W17856  24.623  31.129   3.210
46241W        W17857  41.101  28.479   1.671
46242W        W17858   6.993  36.923   0.426
46243W        W17859  44.057  40.683  14.661
46244W        W17860  24.419   7.175   4.737
46245W        W17861   2.166  21.008   1.484
46246W        W17862   5.360  38.591   4.052
46247W        W17863  32.625   8.532   3.681
46248W        W17864   8.067   3.909  11.471
46249W        W17865   0.702   9.946  12.789
46250W        W17866   2.881  23.918  10.258
46251W        W17867  38.907   7.660  11.954
46252W        W17868  41.078  38.993  10.552
46253W        W17869  41.090   3.882   2.886
46254W        W17870  39.535  38.870  11.212
46255W        W17871  16.994  36.615   1.712
46256W        W17872  44.278  44.658   3.703
46257W        W17873  32.455  43.874   3.675
46258W        W17874  40.382  16.276   3.372
46259W        W17875  19.711  29.995   3.762
46260W        W17876  41.293  10.484  11.473
46261W        W17877  42.673   6.235   0.959
46262W        W17878  40.404   8.748   3.102
46263W        W17879  16.637   0.831   2.242
46264W        W17880  19.304  22.588  12.235
46265W        W17881  10.850   3.279   5.016
46266W        W17882  30.892  25.641  12.779
46267W        W17883  34.952  12.677   4.106
46268W        W17884  37.154  11.652  13.997
46269W        W17885  33.808  15.179   3.660
46270W        W17886  42.405  22.386   2.339
46271W        W17887   3.850  44.745   2.658
46272W        W17888  16.733  33.049   0.884
46273W        W17889   3.789  24.331  11.950
46274W        W17890  30.683  20.303  11.163
46275W        W17891  42.689  39.769   4.199
46276W        W17892  29.669  24.239  10.676
46277W        W17893  20.919  35.926  11.737
46278W        W17894  11.719  39.872   1.330
46279W        W17895  13.381  12.715  14.291
46280W        W17896  12.499  40.220   4.046
46281W        W17897  17.326  38.343   0.852
46282W        W17898  20.498  19.154  11.110
46283W        W17899   1.031   0.321   2.307
46284W        W17900  33.113  36.312  13.463
46285W        W17901  29.636  32.396  12.507
46286W        W17902  26.506  25.568   2.237
46287W        W17903  25.450  20.105  13.937
46288W        W17904  43.034  34.333   2.266
46289W        W17905   8.592  35.176  12.493
46290W        W17906  40.054   7.944  11.198
46291W        W17907  14.209   9.103   0.248
46292W        W17908  37.968  15.573   2.680
46293W        W17909  15.240   8.018  14.262
46294W        W17910  42.497   9.044  13.331
46295W        W17911  33.228   8.689  12.029
46296W        W17912  14.237  16.626   2.616
46297W        W17913  12.637  12.375  10.957
46298W        W17914  24.700  38.201   4.162
46299W        W17915  15.286  21.128  13.393
46300W        W17916  26.400  11.817   2.766
46301W        W17917  42.259  10.190   1.720
46302W        W17918  37.065  34.985  12.036
46303W        W17919  33.492   4.407   3.713
46304W        W17920  27.722  34.920  10.983
46305W        W17921  26.055  44.209   0.770
46306W        W17922   8.138  16.254  13.773
46307W        W17923  29.950  26.142   2.640
46308W        W17924   6.417   9.168   2.663
46309W        W17925   1.432  41.787   0.264
46310W        W17926  37.897  26.535   1.148
46311W        W17927  26.720  10.038   0.226
46312W        W17928  43.909  33.209  14.031
46313W        W17929  13.163  17.203   2.386
46314W        W17930  41.473  14.354  11.979
46315W        W17931  19.897  25.626   0.797
46316W        W17932  15.117  44.249   2.902
46317W        W17933  20.727  42.451  13.935
46318W        W17934  10.173  24.718   0.914
46319W        W17935  37.248  43.356   1.934
46320W        W17936   9.611  27.759  12.784
46321W        W17937  23.122  31.460   1.046
46322W        W17938  29.715  44.685   3.701
46323W        W17939   0.021  10.415  14.405
46324W        W17940  23.566   5.273   0.430
46325W        W17941  32.490  14.730   3.818
46326W        W17942  21.908  11.593   1.769
46327W        W17943  30.912  18.017   0.337
46328W        W17944  39.345  38.332   0.170
46329W        W17945  26.502   0.213  14.374
46330W        W17946  28.635  36.488   0.856
46331W        W17947   6.478  36.545   0.057
46332W        W17948  20.675   2.766  10.725
46333W        W17949  17.075  10.164  10.300
46334W        W17950  34.855   9.289   2.672
46335W        W17951  39.966  44.189  13.746
46336W        W17952  38.059  19.217   4.222
46337W        W17953  39.526  21.620   2.454
46338W        W17954   9.647  23.136   2.685
46339W        W17955  37.048  33.466   3.070
46340W        W17956  14.580   2.265   0.150
46341W        W17957   1.185  20.390   2.380
46342W        W17958  14.612  21.147  13.941
46343W        W17959  33.745  10.274   3.238
46344W        W17960   3.506   5.323   0.928
46345W        W17961  33.384   3.413  12.015
46346W        W17962  39.606  16.625  14.430
46347W        W17963  17.170  15.963   5.222
46348W        W17964   4.920  19.082  12.446
46349W        W17965   7.399  21.201   3.375
46350W        W17966  40.364  32.926   4.509
46351W        W17967  39.532   6.584   1.884
46352W        W17968  16.535   2.674   2.457
46353W        W17969  15.747  16.191  14.923
46354W        W17970  17.767   6.849   0.450
46355W        W17971  35.485  34.824   2.891
46356W        W17972   5.966   5.966  13.166
46357W        W17973  12.288  37.276  11.768
46358W        W17974  29.445  29.099  13.896
46359W        W17975  36.577   3.723  10.663
46360W        W17976  22.230  24.621  12.414
46361W        W17977  18.800  21.518   2.217
46362W        W17978   6.671  25.180  11.966
46363W        W17979   9.470  26.931  11.157
46364W        W17980  34.372  16.121  11.315
46365W        W17981  23.459   3.931  12.530
46366W        W17982  32.067   8.771  13.338
46367W        W17983  44.815  24.948  14.341
46368W        W17984   3.328  36.777  12.995
46369W        W17985  37.990  19.258   0.731
46370W        W17986  12.251   5.730  10.041
46371W        W17987  26.776   8.201  11.200
46372W        W17988  24.674  24.640  11.546
46373W        W17989  25.415   3.251   5.082
46374W        W17990  19.714  36.002  14.242
46375W        W17991  10.632   7.898  11.332
46376W        W17992  15.340  38.273   0.986
46377W        W17993   5.224  44.747  10.314
46378W        W17994  11.833  34.689  10.735
46379W        W17995   4.699  41.604  11.168
46380W        W17996  41.169  13.885   0.352
46381W        W17997  43.320  23.593  14.379
46382W        W17998  34.637   2.892  11.861
46383W        W17999  16.803   3.931   0.906
46384W        W18000  19.220   0.426   1.836
46385W        W18001   1.764  29.300   3.266
46386W        W18002  28.461  20.121  13.439
46387W        W18003  24.228  13.046  13.546
46388W        W18004   5.967  17.867   3.086
46389W        W18005  28.727  28.190   0.363
46390W        W18006   0.870  13.752   2.045
46391W        W18007   0.961  44.254   3.675
46392W        W18008  29.363   0.012   3.359
46393W        W18009  12.025  16.030  11.143
46394W        W18010  39.390  17.938   3.230
46395W        W18011   5.242  42.670   1.878
46396W        W18012  20.810  11.189  13.431
46397W        W18013  11.101  14.176  14.975
46398W        W18014  15.310  38.968  12.043
46399W        W18015   6.924   9.873  13.069
46400W        W18016   0.394  24.210  14.725
46401W        W18017  44.619  28.972   0.891
46402W        W18018  36.987   8.615   3.220
46403W        W18019  11.705  14.290   4.548
46404W        W18020  33.134  18.228   4.846
46405W        W18021  43.178  34.028  12.915
46406W        W18022  23.753   3.233   0.550
46407W        W18023  24.378  37.120   3.174
46408W        W18024  25.694  36.853   4.657
46409W        W18025   5.790  44.954  13.796
46410W        W18026  11.656   2.495  10.781
46411W        W18027   7.577  29.059   1.833
46412W        W18028  10.279  42.531  11.830
46413W        W18029  12.868  36.499  13.329
46414W        W18030  23.503  43.544   4.232
46415W        W18031  21.711  19.122  11.440
46416W        W18032  29.698   8.618   2.230
46417W        W18033  18.957  19.821  11.579
46418W        W18034  24.309  19.041  12.223
46419W        W18035   2.856  24.929  10.197
46420W        W18036  18.301  10.031  11.368
46421W        W18037   7.243  14.352   4.387
46422W        W18038  28.849   8.788   4.971
46423W        W18039   0.855   8.326   2.521
46424W        W18040  25.925  12.754  13.594
46425W        W18041  26.622  22.223   4.098
46426W        W18042  19.034  12.200  11.922
46427W        W18043  34.681  44.976   0.808
46428W        W18044  12.314   4.774  14.381
46429W        W18045  37.013  18.780   3.156
46430W        W18046   0.915  11.712   2.190
46431W        W18047   7.844   6.299  11.710
46432W        W18048   4.716  42.334  12.546
46433W        W18049   9.105  29.585   4.363
46434W        W18050  17.770  39.490  11.186
46435W        W18051   4.262  35.214  14.689
46436W        W18052  24.517  22.552  10.773
46437W        W18053  30.409  15.331   4.330
46438W        W18054   1.340  15.247  12.486
46439W        W18055  39.016  41.893   4.023
46440W        W18056  20.621  41.230   4.634
46441W        W18057  24.232  25.629   1.220
46442W        W18058  23.274   0.304  14.825
46443W        W18059  32.040  38.832   3.404
46444W        W18060  16.621  29.697  12.419
46445W        W18061  12.024   8.362  11.182
46446W        W18062   1.379   2.460  12.027
46447W        W18063  20.223  39.234   4.050
46448W        W18064  41.446   2.993  12.449
46449W        W18065   7.738   9.937   2.466
46450W        W18066  18.031  40.281  11.602
46451W        W18067  12.752  12.434   3.711
46452W        W18068  15.038  23.100  11.642
46453W        W18069  43.603   0.168   1.109
46454W        W18070   0.696  43.469  12.943
46455W        W18071  26.157  44.340   1.255
46456W        W18072  32.957  14.600   0.449
46457W        W18073   5.691  25.502   0.477
46458W        W18074  33.490   0.290  13.782
46459W        W18075  16.570  28.125  12.023
46460W        W18076  18.818  33.334   4.614
46461W        W18077  34.690   3.833   4.080
46462W        W18078  30.155  21.903  13.338
46463W        W18079  36.736  18.969   0.378
46464W        W18080  27.183  15.198   1.698
46465W        W18081  30.449  28.006   4.925
46466W        W18082  43.549  33.544  13.918
46467W        W18083  30.944  34.789  12.580
46468W        W18084  43.457  36.609  13.059
46469W        W18085  32.847  37.476   1.332
46470W        W18086  34.908  41.300   1.830
46471W        W18087  22.740  13.265  14.970
46472W        W18088  33.498  21.732  12.479
46473W        W18089  23.522   5.399   4.677
46474W        W18090  41.835  12.044   3.154
46475W        W18091  23.414  13.798   1.199
46476W        W18092   8.390  27.260  11.552
46477W        W18093  24.046  36.478  12.104
46478W        W18094   5.256  23.774   1.985
46479W        W18095  38.211  24.017  10.269
46480W        W18096  15.111  24.884   1.774
46481W        W18097  34.462  31.858  12.905
46482W        W18098  43.244  17.016  10.174
46483W        W18099  34.986  27.954  11.457
46484W        W18100  10.671   3.827  14.464
46485W        W18101  33.476  39.798  14.047
46486W        W18102  11.365  16.699  10.863
46487W        W18103  33.248  41.861  14.572
46488W        W18104  15.368  24.445  10.961
46489W        W18105  25.707  41.400  14.820
46490W        W18106  18.746  21.209   1.323
46491W        W18107  28.433  32.648   1.697
46492W        W18108  42.984  26.194  10.665
46493W        W18109   1.254  41.988   2.146
46494W        W18110  44.931   4.253   4.449
46495W        W18111  34.749   6.267   0.894
46496W        W18112  13.150  31.834  13.916
46497W        W18113   3.369  44.329   3.320
46498W        W18114  13.009  11.245   0.886
46499W        W18115  11.142  12.879  14.273
46500W        W18116  33.276  20.570   1.817
46501W        W18117  43.477  10.209  10.740
46502W        W18118  28.639   9.124   3.782
46503W        W18119  30.912  22.439   4.130
46504W        W18120   7.714   8.815   1.694
46505W        W18121   3.431  28.212   3.781
46506W        W18122   1.405   0.944   9.961
46507W        W18123  35.775  35.484   4.078
46508W        W18124   2.722   5.164  14.891
46509W        W18125   2.653  38.814  10.630
46510W        W18126  43.030  12.273   3.732
46511W        W18127  36.112  26.143   3.750
46512W        W18128  11.120  20.780   1.372
46513W        W18129   4.787  29.509   4.335
46514W        W18130   1.397  31.425  13.993
46515W        W18131  12.223   0.485  10.616
46516W        W18132  35.159   8.907   4.901
46517W        W18133   0.485   9.956  11.450
46518W        W18134  27.573  21.575  14.233
46519W        W18135  44.479  37.926   1.676
46520W        W18136  17.410  44.467  13.018
46521W        W18137  13.385  11.980  10.329
46522W        W18138  33.486   6.260   3.355
46523W        W18139  15.332  31.571  14.182
46524W        W18140  38.619  33.807  12.586
46525W        W18141  21.506  30.541  11.930
46526W        W18142  38.513  23.361   1.237
46527W        W18143   4.536  11.155  12.465
46528W        W18144  20.536   1.394   0.246
46529W        W18145   9.624  31.398  14.164
46530W        W18146   2.891  23.407  14.408
46531W        W18147  39.531  22.722   2.230
46532W        W18148  21.287  23.061  12.474
46533W        W18149  24.248  20.333  10.784
46534W        W18150  23.944  39.841  10.968
46535W        W18151  34.483  13.673   2.295
46536W        W18152  35.708  30.455   0.236
46537W        W18153  30.434  17.665  13.088
46538W        W18154  25.583  30.136   2.650
46539W        W18155  19.439   8.121   3.521
46540W        W18156  34.390  24.816  14.800
46541W        W18157  39.313  15.664  12.556
46542W        W18158  25.684  17.168  12.923
46543W        W18159  24.227  11.491   2.191
46544W        W18160   6.712  12.311   1.912
46545W        W18161  19.137  42.916   0.977
46546W        W18162  36.550  18.799   3.355
46547W        W18163  19.379   8.551   4.955
46548W        W18164  15.755   6.900  14.898
46549W        W18165  30.058   4.505   4.676
46550W        W18166   3.277  20.690   0.207
46551W        W18167  17.513  14.553   3.862
46552W        W18168  11.791   5.227  11.595
46553W        W18169  18.160  14.770   4.206
46554W        W18170   3.387  10.301  13.358
46555W        W18171  32.432  39.031   2.330
46556W        W18172  26.682   2.742  10.746
46557W        W18173  11.625  27.644   1.825
46558W        W18174  13.449   3.976   2.836
46559W        W18175  34.659  28.231  13.754
46560W        W18176  24.936  41.548   0.789
46561W        W18177  29.363  29.185  13.371
46562W        W18178   0.382  22.969   9.769
46563W        W18179  41.867   7.345   0.897
46564W        W18180  10.769  33.670  14.922
46565W        W18181  11.752  15.367  11.583
46566W        W18182  27.955  21.504   4.493
46567W        W18183   0.856  15.083  12.447
46568W        W18184  14.208  44.529   1.286
46569W        W18185   9.684  39.104   3.705
46570W        W18186  27.458  20.716   1.729
46571W        W18187  38.711  27.664  11.558
46572W        W18188   8.759  38.887  12.455
46573W        W18189   2.519  40.777   4.123
46574W        W18190  17.818  40.961  13.243
46575W        W18191   4.685   1.597  14.203
46576W        W18192  22.704   5.926   0.546
46577W        W18193  38.696  35.850  11.068
46578W        W18194  24.508  27.213  12.808
46579W        W18195  25.711  42.785  11.554
46580W        W18196  33.194  14.302   3.594
46581W        W18197  27.043  16.593  10.253
46582W        W18198  31.716  31.041  11.135
46583W        W18199  42.728  10.783  14.753
46584W        W18200  38.618  21.036  12.086
46585W        W18201  13.219   5.865  10.429
46586W        W18202  32.235   3.497   5.042
46587W        W18203  28.758  23.530  13.879
46588W        W18204  19.712  39.930   1.271
46589W        W18205  28.117  38.607  13.921
46590W        W18206  12.264  18.587  12.368
46591W        W18207   7.157  31.165   4.867
46592W        W18208   0.665  18.842  10.262
46593W        W18209  14.867  41.925  12.773
46594W        W18210  10.175  28.533   1.909
46595W        W18211  33.857  35.413   2.293
46596W        W18212  11.483  40.532  13.042
46597W        W18213   3.545   3.368  10.130
46598W        W18214  28.450  33.026  10.418
46599W        W18215  38.861  19.834   2.838
46600W        W18216  31.912  43.007   1.839
46601W        W18217   9.329  21.064   2.520
46602W        W18218  11.289  36.128  14.286
46603W        W18219   0.786  39.367  13.994
46604W        W18220  11.284   0.897   1.345
46605W        W18221  28.259  21.642   0.834
46606W        W18222  12.106   4.439  10.968
46607W        W18223   6.651  20.673   1.843
46608W        W18224  28.729  11.248  13.343
46609W        W18225   9.923  42.945   2.293
46610W        W18226  25.195   5.184  11.576
46611W        W18227   4.784  13.221  12.208
46612W        W18228  18.977  10.116   2.587
46613W        W18229   5.000  43.114  14.764
46614W        W18230  10.434  11.703  10.300
46615W        W18231  16.254   1.088  14.506
46616W        W18232  14.200   2.789   4.664
46617W        W18233  26.600  22.031   0.404
46618W        W18234   3.842  13.265  12.210
46619W        W18235  12.109  35.631  10.383
46620W        W18236   3.821  13.177  11.238
46621W        W18237  25.827  19.526   4.968
46622W        W18238  20.720  42.545   1.762
46623W        W18239  21.679  31.985  12.446
46624W        W18240  15.725   5.238   1.242
46625W        W18241  17.219   1.181  10.370
46626W        W18242  15.598  15.861   1.172
46627W        W18243  24.946   4.662   3.849
46628W        W18244  10.212  33.099   0.413
46629W        W18245  34.430  21.238   2.310
46630W        W18246  37.124  18.420  14.292
46631W        W18247  17.336  42.095   3.093
46632W        W18248   6.268  30.232   2.809
46633W        W18249  27.082  20.222   0.407
46634W        W18250  44.624  44.269   3.551
46635W        W18251  31.495   3.390  13.144
46636W        W18252   8.730  19.639  14.045
46637W        W18253  29.936   8.719  10.589
46638W        W18254  11.015  17.458  12.976
46639W        W18255   1.053  36.531  13.061
46640W        W18256  39.646   6.227  12.909
46641W        W18257  28.443  34.987  12.022
46642W        W18258   8.092  35.009   2.757
46643W        W18259  33.333  35.385   2.354
46644W        W18260  41.691  19.352   1.724
46645W        W18261  16.766  29.563  13.323
46646W        W18262   9.855  35.623  11.712
46647W        W18263  23.623  37.748  13.870
46648W        W18264  34.756  21.472  13.421
46649W        W18265  14.221  43.832   0.843
46650W        W18266  30.623  35.580  10.673
46651W        W18267  44.062   1.378   0.884
46652W        W18268  10.601   8.232   1.005
46653W        W18269  22.142  29.873  11.846
46654W        W18270  28.032   3.406   1.347
46655W        W18271  27.449  13.262  10.537
46656W        W18272  32.432  43.770  10.267
46657W        W18273  20.244  29.503   1.881
46658W        W18274  42.564   5.037  13.339
46659W        W18275  39.305   7.692   1.667
46660W        W18276  21.766  42.225  12.921
46661W        W18277  34.513  17.722   1.673
46662W        W18278  41.206  14.101   3.198
46663W        W18279  23.014  41.906   1.313
46664W        W18280  35.276   1.936   0.008
46665W        W18281  13.329   2.208   1.346
46666W        W18282   1.879   1.306   4.299
46667W        W18283  34.833  20.629   0.816
46668W        W18284  18.951  43.799   1.255
46669W        W18285  26.120  11.737   3.896
46670W        W18286   9.432  40.920   1.939
46671W        W18287  42.351  22.813   0.086
46672W        W18288  20.806   1.611  14.849
46673W        W18289   6.709  11.365   0.391
46674W        W18290   7.822  30.423  14.409
46675W        W18291  42.474  22.719  12.568
46676W        W18292   7.407  29.649   1.804
46677W        W18293  12.595  25.744   0.291
46678W        W18294  10.181  39.873  12.068
46679W        W18295  44.331  31.607   0.840
46680W        W18296   7.690  26.725  12.581
46681W        W18297  31.941  21.800   3.867
46682W        W18298  13.535  10.898   1.012
46683W        W18299  21.044   0.719  11.630
46684W        W18300  19.162  42.502   0.374
46685W        W18301   4.430   7.810   1.791
46686W        W18302  23.012   0.899   0.634
46687W        W18303  14.675  29.436   1.944
46688W        W18304  36.286  10.724  14.958
46689W        W18305  39.493  18.459   3.130
46690W        W18306   9.872  10.221   1.485
46691W        W18307  13.142  23.123  13.092
46692W        W18308  36.332   1.933   2.307
46693W        W18309  13.614  39.827   0.470
46694W        W18310  40.906  25.763  11.724
46695W        W18311  40.041  37.822  11.868
46696W        W18312  43.868   9.191  13.549
46697W        W18313   5.922  24.933  14.033
46698W        W18314  22.008  13.252   4.394
46699W        W18315   9.247   8.976  12.901
46700W        W18316   8.764  36.851  13.757
46701W        W18317   5.685   5.115   4.168
46702W        W18318  25.662  15.342  12.405
46703W        W18319   7.145  23.404   2.690
46704W        W18320   6.936  43.679  11.160
46705W        W18321  28.885  34.926  11.637
46706W        W18322   8.686  41.827   1.369
46707W        W18323  17.149  36.816   2.150
46708W        W18324   9.947   6.146   5.112
46709W        W18325  19.782  36.597  12.283
46710W        W18326  38.363  36.350   2.158
46711W        W18327  19.817  14.890   4.572
46712W        W18328  24.098  33.543   3.926
46713W        W18329  44.513   6.407   4.685
46714W        W18330  13.285  39.348  10.588
46715W        W18331   2.879  14.168  11.898
46716W        W18332   6.761  15.645  10.486
46717W        W18333  28.440   3.935   3.316
46718W        W18334  35.522  35.648  13.791
46719W        W18335  31.961   0.809   0.309
46720W        W18336  43.434  37.712  11.051
46721W        W18337   8.690  32.890  14.882
46722W        W18338  32.423  41.021   2.417
46723W        W18339   0.492  14.119   3.245
46724W        W18340   1.743  18.719   0.174
46725W        W18341  24.540  37.639   4.240
46726W        W18342  37.994  30.398   4.064
46727W        W18343  29.426  34.464  13.752
46728W        W18344  27.524   7.431  13.384
46729W        W18345  12.932  44.302   3.309
46730W        W18346  19.664  38.949  13.047
46731W        W18347   2.539  41.442  12.907
46732W        W18348   9.780   2.356  14.836
46733W        W18349  43.299  22.585  12.342
46734W        W18350  44.437  20.087   4.643
46735W        W18351  42.347   6.164   3.297
46736W        W18352  10.203   1.386  13.298
46737W        W18353  17.885  38.362  14.635
46738W        W18354  34.671  44.233   2.318
46739W        W18355  25.203  43.893  11.707
46740W        W18356  43.751  32.902  11.552
46741W        W18357  10.689  26.555  14.774
46742W        W18358  18.161  33.382  13.258
46743W        W18359   8.710   4.454   1.210
46744W        W18360  39.111   0.436   4.291
46745W        W18361   3.349  27.207  11.214
46746W        W18362  41.807  14.534  11.123
46747W        W18363  38.762  18.029  11.195
46748W        W18364   6.830   7.794  11.807
46749W        W18365   2.325  17.271   5.063
46750W        W18366   3.958  16.806  11.962
46751W        W18367  14.876  30.439   1.870
46752W        W18368   2.619  26.696   2.338
46753W        W18369  31.074  42.321   2.702
46754W        W18370   8.463  25.544   4.228
46755W        W18371  13.671  18.594  10.777
46756W        W18372  38.993  37.069  12.568
46757W        W18373  29.224   8.931   2.315
46758W        W18374  17.203  16.029   1.957
46759W        W18375  14.260  24.233  11.595
46760W        W18376  40.750   7.374   1.936
46761W        W18377  15.000  22.182   3.195
46762W        W18378  42.132  34.294   1.360
46763W        W18379  24.063  29.458   2.158
46764W        W18380  33.014  11.125  12.074
46765W        W18381  17.944  29.563   0.234
46766W        W18382  15.255   7.879  10.586
46767W        W18383  41.396  35.969   1.180
46768W        W18384  20.136  23.448   1.482
46769W        W18385  25.380  37.202  11.144
46770W        W18386  16.841  44.906   5.030
46771W        W18387  34.546   7.249  14.927
46772W        W18388  29.970  18.994  12.175
46773W        W18389  10.266  28.354   4.383
46774W        W18390  24.211  22.085   3.211
46775W        W18391  13.510  20.784   1.765
46776W        W18392  10.100  44.155   3.297
46777W        W18393  17.248  17.339   2.414
46778W        W18394  35.843   8.894   4.499
46779W        W18395   7.398  12.019   2.557
46780W        W18396  18.089  37.738   2.407
46781W        W18397  20.151  44.541  11.887
46782W        W18398  23.444  28.507  11.398
46783W        W18399  37.511   7.493  13.526
46784W        W18400  29.921  26.918  11.237
46785W        W18401  24.519  27.723   2.586
46786W        W18402  18.138   3.161   0.836
46787W        W18403  16.547  38.165   2.262
46788W        W18404  14.599  26.904  12.452
46789W        W18405  40.460  18.684  10.588
46790W        W18406  40.451   7.365  13.980
46791W        W18407  36.451  41.446   4.080
46792W        W18408  26.001  23.988   3.024
46793W        W18409  16.314  14.722   1.193
46794W        W18410  38.541  11.872  10.705
46795W        W18411  29.115  26.125  11.765
46796W        W18412  25.703   7.834  10.687
46797W        W18413  41.334  17.809   0.707
46798W        W18414  27.996  39.826   4.638
46799W        W18415  37.473  12.350  11.472
46800W        W18416   2.303  43.266  13.759
46801W        W18417   9.082  18.175   2.342
46802W        W18418  35.571   2.342   0.861
46803W        W18419  38.845  38.799  12.020
46804W        W18420  15.576  16.692  12.531
46805W        W18421  11.804  22.105   2.716
46806W        W18422  31.646  22.106   2.115
46807W        W18423  21.558  38.777  11.124
46808W        W18424  15.317   1.702  11.881
46809W        W18425  35.611  25.354   4.642
46810W        W18426   1.516  18.574   2.723
46811W        W18427   0.548  23.476  10.631
46812W        W18428  25.754  42.036   2.405
46813W        W18429  35.960  33.058  11.022
46814W        W18430  38.795   5.739   1.233
46815W        W18431   2.243  32.842  11.885
46816W        W18432   1.677   0.781   3.317
46817W        W18433   2.400  38.954   2.400
46818W        W18434  37.466  39.193  11.192
46819W        W18435  17.264  28.421   3.257
46820W        W18436   2.365  25.135   3.581
46821W        W18437  35.862   3.436   4.568
46822W        W18438   1.699  36.194  13.799
46823W        W18439  21.039  22.106  11.057
46824W        W18440   1.876  16.537   3.397
46825W        W18441   9.009  38.482  10.222
46826W        W18442  34.458  29.875  12.089
46827W        W18443   3.812  34.408   1.126
46828W        W18444  38.023  30.532  14.470
46829W        W18445   6.100  42.861  10.512
46830W        W18446   4.805  24.018  12.802
46831W        W18447  16.321  26.079   1.644
46832W        W18448   6.190  15.779   2.498
46833W        W18449   8.203  23.678   1.462
46834W        W18450  31.973  28.691   0.993
46835W        W18451  25.526  27.094  11.392
46836W        W18452   2.262  41.576  14.326
46837W        W18453  44.799  24.669  11.213
46838W        W18454  18.077  37.184   2.603
46839W        W18455  32.173  27.633   2.434
46840W        W18456  42.917  22.550   3.531
46841W        W18457  18.536  28.185  10.144
46842W        W18458  10.214  42.633   1.639
46843W        W18459  20.169  24.051  13.555
46844W        W18460  13.275   4.495   5.078
46845W        W18461  25.917   7.673  11.149
46846W        W18462   4.816  28.813  10.948
46847W        W18463  31.672  24.396  11.105
46848W        W18464  17.259  30.105  11.419
46849W        W18465   3.864  40.581  13.878
46850W        W18466  41.444  40.809  13.583
46851W        W18467  14.284  32.156  11.622
46852W        W18468  39.411  41.443  11.094
46853W        W18469  28.532  39.375  14.763
46854W        W18470   3.809  17.598  13.386
46855W        W18471  28.222  38.307  13.243
46856W        W18472   3.872  19.418  12.559
46857W        W18473  37.402   0.917  13.529
46858W        W18474  33.173  33.094   3.637
46859W        W18475  24.713  11.518   2.367
46860W        W18476   8.604   9.706  10.114
46861W        W18477  39.475  20.703  14.617
46862W        W18478  12.913  37.251   4.540
46863W        W18479  41.431  27.203  13.046
46864W        W18480  16.365  34.296  11.588
46865W        W18481  15.692  34.465   0.283
46866W        W18482  41.972  28.401   0.482
46867W        W18483  44.519   6.522   4.154
46868W        W18484   4.982  35.364  13.950
46869W        W18485  27.160   3.506  14.562
46870W        W18486  32.443  36.556   4.237
46871W        W18487  41.999   7.266  11.603
46872W        W18488  44.559  24.034  13.452
46873W        W18489  41.566   9.659   1.348
46874W        W18490  27.088  29.751  13.775
46875W        W18491   4.853  19.833   0.849
46876W        W18492  36.811   1.003  14.131
46877W        W18493  17.195   2.693  11.018
46878W        W18494  26.913  10.957   0.271
46879W        W18495   2.371  21.076  11.121
46880W        W18496  20.299   1.772  14.835
46881W        W18497  28.429   9.370   2.793
46882W        W18498  10.683  13.349   0.857
46883W        W18499  30.467  14.282   3.341
46884W        W18500   0.314  22.026   3.895
46885W        W18501   7.632  44.526   0.453
46886W        W18502  26.207  23.948  13.350
46887W        W18503  20.849   1.710  13.928
46888W        W18504  25.186  42.321  11.141
46889W        W18505  27.741  10.813   0.670
46890W        W18506  41.996  33.096   2.725
46891W        W18507  32.068  29.460   4.842
46892W        W18508  12.808  24.724  10.716
46893W        W18509  27.035  42.978   2.772
46894W        W18510  10.831  41.566   4.362
46895W        W18511  29.916  18.124   1.331
46896W        W18512  39.939   8.732   3.974
46897W        W18513  25.959  16.346   4.200
46898W        W18514  28.480  25.020   3.825
46899W        W18515   0.822   6.329   3.090
46900W        W18516  13.616   0.970   3.680
46901W        W18517  22.756  27.093  10.805
46902W        W18518  26.626  40.990  12.455
46903W        W18519  16.122  24.059  10.201
46904W        W18520  19.223  32.344   0.762
46905W        W18521  11.206  14.205   2.725
46906W        W18522   6.872  24.185   2.059
46907W        W18523   9.688  15.065   3.370
46908W        W18524  31.696  43.785   3.352
46909W        W18525  18.004  23.804  12.054
46910W        W18526  13.072  28.679  11.338
46911W        W18527  36.652  42.256  14.427
46912W        W18528  36.945  10.493   3.869
46913W        W18529  29.109   2.852   4.218
46914W        W18530  28.131  14.382   1.227
46915W        W18531   3.820  43.330   0.807
46916W        W18532  37.971  37.582   0.370
46917W        W18533  42.794  30.106   4.247
46918W        W18534  13.371   0.049   1.868
46919W        W18535  42.316  17.239   2.671
46920W        W18536  42.853   2.946   1.894
46921W        W18537  43.711   9.783  13.825
46922W        W18538  15.322  14.106  10.965
46923W        W18539  28.382  18.814  12.657
46924W        W18540  27.605  34.903  14.827
46925W        W18541  23.176  26.149  14.113
46926W        W18542  16.557  23.793  13.479
46927W        W18543  42.061   8.824   2.494
46928W        W18544  29.424  34.414  12.376
46929W        W18545  22.117  40.178  11.105
46930W        W18546  31.988  34.573  11.941
46931W        W18547  16.873   0.674   0.195
46932W        W18548  15.674   5.588  14.574
46933W        W18549   9.265  31.812  14.343
46934W        W18550  18.123   3.058   3.849
46935W        W18551  17.599  35.551   1.980
46936W        W18552  40.110  24.531   4.467
46937W        W18553  21.846  26.644   4.858
46938W        W18554  24.975  40.914  11.444
46939W        W18555  39.812  31.944  13.159
46940W        W18556  41.554  43.521   3.493
46941W        W18557  43.356   6.703   1.811
46942W        W18558  33.213  33.483   4.589
46943W        W18559  11.167  40.763  12.575
46944W        W18560  15.807  33.479   4.394
46945W        W18561   1.642  44.920   4.754
46946W        W18562  35.062  27.505  13.815
46947W        W18563  27.004  38.642   3.378
46948W        W18564  12.667  24.205  12.422
46949W        W18565   0.774  33.789   3.177
46950W        W18566   3.082   4.916  13.211
46951W        W18567  31.316   1.743  12.903
46952W        W18568  28.110  20.961  10.698
46953W        W18569  14.218  19.022   1.844
46954W        W18570  35.774   8.170   0.016
46955W        W18571  14.826  26.052   0.886
46956W        W18572  33.931  20.485  13.397
46957W        W18573  38.823  20.280   3.655
46958W        W18574  16.382  14.116  11.724
46959W        W18575   3.395  12.258  12.615
46960W        W18576   3.852  43.858  12.026
46961W        W18577  24.098  24.147   4.992
46962W        W18578   8.937  17.730   1.298
46963W        W18579  13.400  38.413  12.838
46964W        W18580  43.223   6.466   3.123
46965W        W18581  35.390   2.160  11.658
46966W        W18582  36.933  41.212   4.000
46967W        W18583  42.561  14.968  12.389
46968W        W18584  30.676  27.493   4.971
46969W        W18585  41.016   6.788   2.717
46970W        W18586  28.099  43.267   0.833
46971W        W18587  10.948  14.259   2.096
46972W        W18588  30.466  38.789  11.128
46973W        W18589  12.398  26.105  12.185
46974W        W18590  41.572  21.553   3.219
46975W        W18591   2.227   7.596  11.080
46976W        W18592  33.197   8.283   0.811
46977W        W18593   6.934  11.196   4.652
46978W        W18594  25.579  42.186  14.348
46979W        W18595  22.088   9.154  14.293
46980W        W18596   3.949  11.196  12.446
46981W        W18597  17.110  29.940   3.265
46982W        W18598  25.726  37.012  14.496
46983W        W18599  40.836   2.472   2.364
46984W        W18600  20.085  39.992   4.681
46985W        W18601  26.395  23.775   4.190
46986W        W18602  19.470   9.811   1.986
46987W        W18603   7.993   6.701   3.792
46988W        W18604   7.455  27.940  10.866
46989W        W18605  15.832  38.900  12.924
46990W        W18606   7.979  42.878  11.147
46991W        W18607   1.931  12.707   1.213
46992W        W18608   5.389  10.904  14.822
46993W        W18609  16.688  23.763   2.804
46994W        W18610  34.860  44.785   2.651
46995W        W18611  39.909   9.839   0.377
46996W        W18612  33.267  34.344  14.275
46997W        W18613  18.846  35.080   3.856
46998W        W18614  37.165  12.156  13.955
46999W        W18615  12.796   6.550   0.537
47000W        W18616  26.456   4.823   0.401
47001W        W18617  31.589  36.420  10.519
47002W        W18618  40.806  13.136   1.754
47003W        W18619  43.440  30.337  14.321
47004W        W18620  28.734   6.136  13.912
47005W        W18621  20.140  29.598   0.893
47006W        W18622  19.620  28.961   4.776
47007W        W18623  28.126   6.306  13.153
47008W        W18624  22.134   3.991   1.818
47009W        W18625  44.101  34.973  14.510
47010W        W18626  16.333   2.250  13.536
47011W        W18627  28.430   9.096  11.553
47012W        W18628  44.747   3.226  13.446
47013W        W18629  23.713   4.510   2.198
47014W        W18630  37.294  29.655   1.203
47015W        W18631  12.624  10.368  11.590
47016W        W18632  31.963   1.332   2.767
47017W        W18633  16.238  39.760  13.280
47018W        W18634  38.214  13.863   1.903
47019W        W18635   8.694  18.766   0.956
47020W        W18636  23.103  13.112   4.110
47021W        W18637  26.641  23.587  14.053
47022W        W18638  17.242  26.859  11.918
47023W        W18639  16.493   0.192   3.862
47024W        W18640  43.119  36.413   1.357
47025W        W18641  34.224  37.281   3.904
47026W        W18642  22.129   7.803   0.726
47027W        W18643  11.025  38.360   4.042
47028W        W18644   2.817  27.259   4.882
47029W        W18645  23.584  34.013  11.626
47030W        W18646  36.478   5.853   1.439
47031W        W18647   5.790  30.433  12.871
47032W        W18648   0.487  42.271  12.287
47033W        W18649  13.931  11.822  12.835
47034W        W18650  17.689  20.273   1.817
47035W        W18651  24.529  17.989   3.356
47036W        W18652  20.080  37.902  13.583
47037W        W18653  34.809  36.187   2.796
47038W        W18654  41.131  35.103   5.026
47039W        W18655   3.353  28.462  13.146
47040W        W18656   7.917   9.737  11.679
47041W        W18657  21.716  37.421  14.428
47042W        W18658  32.408  32.700  14.443
47043W        W18659  32.096  43.076  14.697
47044W        W18660  25.113  15.297  13.766
47045W        W18661  20.085  30.067   0.447
47046W        W18662  32.058  27.494   1.584
47047W        W18663  22.052  16.678  11.650
47048W        W18664  23.582   5.734  11.992
47049W        W18665   5.985  34.638   3.008
47050W        W18666   0.237  22.286   1.813
47051W        W18667   0.460  33.472   0.714
47052W        W18668   5.388   8.314  12.282
47053W        W18669  27.348   5.670   1.808
47054W        W18670  16.312  23.446  13.189
47055W        W18671  41.463  31.251   3.384
47056W        W18672  12.714   6.229   0.964
47057W        W18673  39.414  18.750  11.177
47058W        W18674  33.601  19.213  11.146
47059W        W18675  11.706  30.816  11.978
47060W        W18676  33.849  41.143  12.955
47061W        W18677   4.095   8.617   0.411
47062W        W18678  22.263  34.682  12.172
47063W        W18679  25.477  12.859  13.324
47064W        W18680  44.342  35.843  12.535
47065W        W18681   5.233   4.248   2.117
47066W        W18682  26.522  42.741   3.837
47067W        W18683   5.880  21.667   2.169
47068W        W18684   2.944  43.708   3.671
47069W        W18685  21.051   6.505  14.890
47070W        W18686  23.163  24.010  12.699
47071W        W18687  27.133   2.305   0.531
47072W        W18688   3.966  39.491  10.705
47073W        W18689  16.645  29.680  10.649
47074W        W18690   3.907  26.238  14.898
47075W        W18691  40.832  30.031  14.725
47076W        W18692  40.136  36.089  14.380
47077W        W18693   9.707   7.952  12.955
47078W        W18694  39.589   2.199  12.544
47079W        W18695  23.648   5.350   3.626
47080W        W18696  30.997  24.112   0.034
47081W        W18697  44.276  15.651   2.632
47082W        W18698  38.516  12.943   1.708
47083W        W18699  18.079   0.361   1.280
47084W        W18700   9.197  35.648  12.460
47085W        W18701  16.857  44.358   1.398
47086W        W18702  43.887  21.262  14.601
47087W        W18703  42.980   7.891  12.917
47088W        W18704  28.970   3.457  10.502
47089W        W18705   3.283  44.779   2.365
47090W        W18706  23.590  36.206   4.677
47091W        W18707  35.000   3.396   3.166
47092W        W18708  22.791  43.370   0.006
47093W        W18709  25.587  44.278  11.584
47094W        W18710  24.094  37.916   4.138
47095W        W18711  39.535  33.896   1.648
47096W        W18712  44.008  36.353  13.378
47097W        W18713  10.170   2.774   1.900
47098W        W18714  34.439  44.800   1.247
47099W        W18715   6.085  38.809  11.166
47100W        W18716  14.036  41.521  14.079
47101W        W18717  13.324   2.779  11.066
47102W        W18718  28.441  32.942  14.704
47103W        W18719  11.830  35.913   1.422
47104W        W18720  26.842   7.299  13.690
47105W        W18721  16.702   5.872  11.077
47106W        W18722  39.329  12.242  14.542
47107W        W18723  12.579  41.934  14.897
47108W        W18724   0.861  13.383  13.920
47109W        W18725   4.934  22.246  13.275
47110W        W18726  32.656   6.821   2.269
47111W        W18727  19.593  14.291  11.163
47112W        W18728  44.299   7.965   2.373
47113W        W18729  25.593  10.925  14.985
47114W        W18730  12.911  43.458  12.035
47115W        W18731  43.719  35.520   3.855
47116W        W18732  40.760  18.724   1.386
47117W        W18733  30.876  41.026  12.618
47118W        W18734   2.258  43.257   5.408
47119W        W18735  19.503  11.106   1.744
47120W        W18736  44.354   4.401   1.023
47121W        W18737   7.210   3.717  13.497
47122W        W18738  35.628  33.004  11.511
47123W        W18739  28.507  36.371  12.401
47124W        W18740  14.701  23.907  11.441
47125W        W18741  38.576  22.118  11.156
47126W        W18742   6.742  30.399  12.127
47127W        W18743  40.144  25.125  12.083
47128W        W18744   4.900   1.749  11.069
47129W        W18745  24.087   9.883  11.047
47130W        W18746  19.986   8.119   3.277
47131W        W18747  27.317  27.324  12.818
47132W        W18748  13.797  16.798  11.945
47133W        W18749  13.646  44.865  13.807
47134W        W18750  27.435  36.672   1.769
47135W        W18751   3.022  41.581  13.760
47136W        W18752  14.176   9.253   3.896
47137W        W18753   8.175  24.269  11.600
47138W        W18754  18.487  19.660   2.536
47139W        W18755  33.091  15.182   1.848
47140W        W18756  12.155  10.233   2.011
47141W        W18757   2.385  28.728  11.465
47142W        W18758   0.338  26.154  12.373
47143W        W18759  28.507   1.460   0.462
47144W        W18760  22.848  42.455   4.279
47145W        W18761   3.848  43.954   1.610
47146W        W18762  36.562   7.966  14.533
47147W        W18763   3.942  39.308  12.623
47148W        W18764  21.125  27.078  14.974
47149W        W18765  13.189  30.980  10.925
47150W        W18766   7.813  27.448  11.410
47151W        W18767   6.301  44.898   0.740
47152W        W18768  17.700  16.683   4.674
47153W        W18769  12.671  43.134  13.391
47154W        W18770  24.309  44.941  11.390
47155W        W18771  24.462  35.057   0.448
47156W        W18772   6.569  15.237  12.365
47157W        W18773  29.518   2.896  13.753
47158W        W18774  30.581  22.698   3.049
47159W        W18775  42.767  37.839   2.639
47160W        W18776   2.735  33.767  13.199
47161W        W18777  42.008  43.844  11.484
47162W        W18778  44.286  25.172   4.125
47163W        W18779  42.988  15.122  13.502
47164W        W18780  26.925  30.389   0.527
47165W        W18781  31.023  22.597  14.903
47166W        W18782  16.614  40.365  14.370
47167W        W18783  22.366  19.665   4.508
47168W        W18784  10.203  26.614   3.227
47169W        W18785   4.299   6.682   0.338
47170W        W18786   1.288  37.056   3.159
47171W        W18787  28.021  19.120  12.019
47172W        W18788  28.172  15.034   4.811
47173W        W18789  28.487  44.222   1.228
47174W        W18790   3.401  10.958   3.381
47175W        W18791  25.942  15.386   0.340
47176W        W18792  16.352   8.805   4.270
47177W        W18793  28.571  15.293   5.046
47178W        W18794  24.618  13.136   3.331
47179W        W18795  21.001  30.184   0.271
47180W        W18796   6.793  21.256  11.045
47181W        W18797   2.390  18.181  13.326
47182W        W18798  20.169  17.747   4.908
47183W        W18799  41.133   4.786   4.674
47184W        W18800  23.641  40.914  10.486
47185W        W18801  12.296   2.287   3.512
47186W        W18802  43.457  39.244  13.432
47187W        W18803  14.595  39.513  11.028
47188W        W18804  30.870  17.456   2.352
47189W        W18805  34.358  39.882  13.546
47190W        W18806  39.849   9.125   2.367
47191W        W18807  44.034   4.251   4.172
47192W        W18808  27.969  31.492   3.763
47193W        W18809  10.473   3.222  12.423
47194W        W18810   2.546  22.223   2.872
47195W        W18811  41.368   7.185   0.036
47196W        W18812  33.167  38.078   2.786
47197W        W18813  44.631  21.629   1.580
47198W        W18814  32.911  21.743   1.298
47199W        W18815  21.299  26.708   3.687
47200W        W18816  28.427  38.901   4.407
47201W        W18817  33.983  44.560   1.316
47202W        W18818   4.699  15.622   5.030
47203W        W18819  34.997  28.951  10.533
47204W        W18820  29.938  10.691  10.594
47205W        W18821  28.489  11.571  12.959
47206W        W18822  32.634   0.229  12.139
47207W        W18823   4.957  15.584   0.271
47208W        W18824  22.525  22.669  13.633
47209W        W18825  43.518  30.112   0.347
47210W        W18826  12.075  30.997  10.605
47211W        W18827   9.116  28.981  10.305
47212W        W18828   9.148  19.752  11.268
47213W        W18829  33.036   1.008  12.810
47214W        W18830  35.866  41.335  12.823
47215W        W18831   5.777  16.726  10.642
47216W        W18832  21.147  35.070  13.161
47217W        W18833  36.773  36.507   0.679
47218W        W18834  20.154  41.060   0.740
47219W        W18835  15.792   6.145  10.427
47220W        W18836   5.717  11.477   4.692
47221W        W18837  16.534  27.183  11.225
47222W        W18838  41.952   1.154  12.561
47223W        W18839   6.627   6.478  12.456
47224W        W18840  14.745  44.769  13.939
47225W        W18841  18.557  35.987  11.554
47226W        W18842  32.508  19.658   1.277
47227W        W18843  22.112  20.538   0.462
47228W        W18844  32.172   2.195   1.729
47229W        W18845  36.752  32.890  13.764
47230W        W18846  22.723  27.707  13.140
47231W        W18847   3.283  33.090   3.775
47232W        W18848   6.450  32.020  11.165
47233W        W18849   4.954  29.660   3.343
47234W        W18850  24.302  14.227   4.582
47235W        W18851  42.948  15.580   0.428
47236W        W18852  39.045  21.821  13.423
47237W        W18853  20.518  28.934  11.302
47238W        W18854  35.527  28.965   1.242
47239W        W18855   6.283  21.227   1.283
47240W        W18856  42.252  36.906  14.510
47241W        W18857  18.054  37.231  14.954
47242W        W18858  16.752  26.123   2.412
47243W        W18859  35.918  12.656   1.077
47244W        W18860  20.564  43.334   3.323
47245W        W18861  24.474  41.604  12.081
47246W        W18862   2.470  32.361  14.220
47247W        W18863  15.664  44.384   0.816
47248W        W18864   0.460  38.384  14.013
47249W        W18865  27.454  19.850   1.613
47250W        W18866  17.710  21.143   4.177
47251W        W18867  35.506  25.387   0.052
47252W        W18868  28.831  33.920   2.239
47253W        W18869  40.011  37.467  12.228
47254W        W18870  19.074  16.724  14.477
47255W        W18871  43.733   6.847  11.194
47256W        W18872   0.502  21.022   3.151
47257W        W18873  12.931   6.117   0.241
47258W        W18874  18.240  33.425  10.424
47259W        W18875  41.001  32.359   4.791
47260W        W18876  19.150  21.752  13.386
47261W        W18877  14.838  32.588   4.337
47262W        W18878  33.146   1.786   1.876
47263W        W18879  17.826  40.306  12.891
47264W        W18880  18.849   5.402  10.298
47265W        W18881   5.300  17.123   3.803
47266W        W18882   6.266  36.941   2.792
47267W        W18883  40.379  30.392   3.172
47268W        W18884  32.120  15.920   3.672
47269W        W18885   8.523   3.476  13.915
47270W        W18886  36.109   8.817  14.676
47271W        W18887  11.758  43.760   0.383
47272W        W18888  32.963   9.925   2.892
47273W        W18889  33.212  26.665   1.407
47274W        W18890  23.563  16.596   2.333
47275W        W18891  21.506  17.740  14.350
47276W        W18892  27.445   9.124  11.607
47277W        W18893   1.186  28.714  14.007
47278W        W18894   7.463   3.381  13.782
47279W        W18895  19.559  31.549  11.922
47280W        W18896  22.192  28.247   4.578
47281W        W18897  41.501   0.015   0.949
47282W        W18898  10.152  36.914  11.498
47283W        W18899  42.459  19.420   3.761
47284W        W18900   9.065   8.341  11.533
47285W        W18901  17.473  22.452  12.063
47286W        W18902  37.136  25.704   2.190
47287W        W18903  24.598  42.061   0.265
47288W        W18904  20.591   3.398  11.550
47289W        W18905   0.346  15.269  10.682
47290W        W18906  28.188  37.600  10.462
47291W        W18907  35.107  26.649   0.912
47292W        W18908  23.305  26.505   4.595
47293W        W18909  14.416  12.114  11.112
47294W        W18910  27.863  23.801  13.862
47295W        W18911  33.067   2.010  11.572
47296W        W18912   0.560  30.435  12.707
47297W        W18913  16.717  22.254   2.733
47298W        W18914  26.706  34.909  12.619
47299W        W18915  29.467  21.226   4.546
47300W        W18916  35.467  25.943   3.096
47301W        W18917   2.743  39.905   1.631
47302W        W18918   0.898   4.374   1.836
47303W        W18919  34.863  27.856  14.527
47304W        W18920  36.805   4.739   4.096
47305W        W18921  19.135  36.029  11.604
47306W        W18922  44.266  29.121   5.086
47307W        W18923  16.327   0.024   0.979
47308W        W18924  28.389  40.395  14.987
47309W        W18925  11.142  22.767   5.067
47310W        W18926  22.988  31.578   1.876
47311W        W18927  33.548  12.069   2.282
47312W        W18928  44.602  34.550   5.151
47313W        W18929  39.020  21.172   2.552
47314W        W18930   9.687   5.301  11.939
47315W        W18931  35.525   4.160   3.144
47316W        W18932  42.808  42.240  11.503
47317W        W18933  32.611  44.668   2.472
47318W        W18934  10.917  33.967   0.910
47319W        W18935  15.649  30.255  14.307
47320W        W18936  36.217  25.684   0.308
47321W        W18937   5.853  33.401   2.881
47322W        W18938  36.977  38.698   1.939
47323W        W18939  41.755   7.071  12.584
47324W        W18940  23.551  28.186  13.955
47325W        W18941  22.032  20.675   2.685
47326W        W18942  14.200  12.276   3.884
47327W        W18943  26.939  25.468  13.069
47328W        W18944   6.458  34.315  11.180
47329W        W18945  21.370   5.924  10.051
47330W        W18946  31.208  10.542  13.481
47331W        W18947  22.939  43.072  12.346
47332W        W18948  32.875  26.104   0.324
47333W        W18949   1.810   7.247  13.955
47334W        W18950  35.905   4.239  12.104
47335W        W18951  11.258  20.003  10.474
47336W        W18952  30.094  37.109  10.877
47337W        W18953  23.651  25.208  11.176
47338W        W18954  20.199   8.469  12.397
47339W        W18955  17.337  41.444   5.162
47340W        W18956  10.864   4.538   0.093
47341W        W18957   1.412  12.033  14.965
47342W        W18958  15.087   3.223  11.782
47343W        W18959  19.513  23.012  13.682
47344W        W18960   2.675  22.615   0.927
47345W        W18961  37.886  19.730   1.506
47346W        W18962  10.578  40.286   3.147
47347W        W18963   8.375  18.292  12.047
47348W        W18964   3.747  29.484   1.889
47349W        W18965  26.576  38.519  12.624
47350W        W18966   5.009  39.999   2.776
47351W        W18967   8.898  40.862   4.508
47352W        W18968   5.839  30.338  14.011
47353W        W18969  42.323   2.637   0.594
47354W        W18970  44.846  10.421   4.354
47355W        W18971  25.108   3.970   2.050
47356W        W18972  32.367  43.290  14.296
47357W        W18973  13.071  18.272   1.481
47358W        W18974   6.941  22.199  11.281
47359W        W18975  23.861   1.822  13.813
47360W        W18976  26.207  15.307   1.736
47361W        W18977  42.263  37.646  12.940
47362W        W18978  38.540  40.160  14.266
47363W        W18979  16.424  32.110  11.517
47364W        W18980  33.858  21.087  11.145
47365W        W18981  24.453  10.810  11.439
47366W        W18982  41.559  27.462  14.385
47367W        W18983  16.255   8.488   4.715
47368W        W18984   5.264  23.285   1.830
47369W        W18985  13.725  39.484   4.832
47370W        W18986   6.633  13.398  12.433
47371W        W18987   2.305  14.683  14.913
47372W        W18988  14.785  36.059  11.602
47373W        W18989  20.786  38.503  10.703
47374W        W18990  37.711  24.768  11.559
47375W        W18991  32.137  38.506  14.998
47376W        W18992  41.753  34.370  14.418
47377W        W18993   3.542  41.526   0.795
47378W        W18994   1.504  25.698  13.025
47379W        W18995  37.520  31.313   4.861
47380W        W18996  15.289  15.926  14.765
47381W        W18997   2.992  31.214  14.675
47382W        W18998  10.578  43.274  14.950
47383W        W18999  42.842  24.784   0.957
47384W        W19000   5.015  39.077   0.232
47385W        W19001  32.123  33.911   0.423
47386W        W19002  14.643  33.388  13.871
47387W        W19003  19.773   0.189   1.816
47388W        W19004  42.061  11.267  12.114
47389W        W19005  15.881   6.234  13.136
47390W        W19006  24.127  37.975   0.041
47391W        W19007  15.134  13.084   3.910
47392W        W19008  27.727  41.582   1.984
47393W        W19009  30.596  32.745  11.568
47394W        W19010  23.504  40.384  11.694
47395W        W19011   0.736  11.650   0.340
47396W        W19012  16.411  24.565  10.989
47397W        W19013  32.007   8.125  12.796
47398W        W19014   3.693   2.548  13.889
47399W        W19015  19.763  16.986   0.897
47400W        W19016  31.463  23.966   1.186
47401W        W19017  23.759  44.470  14.404
47402W        W19018  22.555  12.779  13.623
47403W        W19019  16.313  33.600   1.253
47404W        W19020  34.961  44.882  12.840
47405W        W19021   5.085  14.244  11.580
47406W        W19022  35.357  35.201  11.113
47407W        W19023  28.948   2.249  11.594
47408W        W19024   0.869   0.916  12.411
47409W        W19025  20.018   1.777   2.331
47410W        W19026  36.015  28.088   3.787
47411W        W19027   5.292   0.293  12.539
47412W        W19028  10.707  18.532   0.642
47413W        W19029  42.961   4.078   4.753
47414W        W19030  16.800  10.113   3.308
47415W        W19031  41.282   5.899   0.898
47416W        W19032  33.994  24.988  13.895
47417W        W19033  43.727   7.275   4.094
47418W        W19034   9.953  31.046  13.867
47419W        W19035   9.249   2.729   2.361
47420W        W19036  33.758   0.602   4.187
47421W        W19037   4.921  43.536  12.515
47422W        W19038  18.770  44.410   2.337
47423W        W19039  26.430  39.755  12.019
47424W        W19040   1.116   9.649   0.871
47425W        W19041  36.139  15.204   1.297
47426W        W19042  44.571  15.366   0.322
47427W        W19043  26.844  13.943  10.331
47428W        W19044  39.438   3.753   4.136
47429W        W19045  11.765  13.275  12.429
47430W        W19046   3.208   6.620  13.036
47431W        W19047  33.180   6.199  14.544
47432W        W19048  26.225  26.743  10.954
47433W        W19049  32.344   5.451  13.966
47434W        W19050   5.632  33.350   3.697
47435W        W19051  23.632  35.034   1.240
47436W        W19052  43.299  43.907   4.847
47437W        W19053   2.878  32.139   2.185
47438W        W19054   4.943  26.211  11.531
47439W        W19055  36.361  41.240   1.873
47440W        W19056  20.150  41.591  10.911
47441W        W19057   9.328  29.680   1.732
47442W        W19058  24.040  38.996  11.223
47443W        W19059  16.855  37.342   2.722
47444W        W19060  25.160   1.440   4.142
47445W        W19061   9.598  43.102  14.871
47446W        W19062  30.084   7.434   0.899
47447W        W19063  13.782  39.395   1.961
47448W        W19064  44.893  19.508  14.434
47449W        W19065  39.427  35.614  13.872
47450W        W19066  20.368  30.966   0.501
47451W        W19067  16.828  16.152   1.280
47452W        W19068  15.285  40.110   4.244
47453W        W19069  42.974  42.771  13.769
47454W        W19070  41.782  29.060   2.458
47455W        W19071  24.516  13.709  10.469
47456W        W19072  14.334  41.975  14.901
47457W        W19073  22.251  35.578   5.024
47458W        W19074  25.653  27.579  14.337
47459W        W19075  23.758  28.540  12.276
47460W        W19076  33.387  40.753   0.295
47461W        W19077   6.502  34.902   2.819
47462W        W19078  25.199  34.906   1.561
47463W        W19079   0.921  27.884   2.847
47464W        W19080  36.493   3.480   2.727
47465W        W19081  21.120  35.442  12.461
47466W        W19082  23.489  22.367   0.368
47467W        W19083  16.217   0.781   1.380
47468W        W19084  11.380  21.168   2.352
47469W        W19085  13.401  29.416   2.213
47470W        W19086  12.254  14.719   1.159
47471W        W19087  36.917   9.763  13.335
47472W        W19088  40.509  17.460   0.630
47473W        W19089   7.432  43.406   1.712
47474W        W19090   7.023   9.148  11.581
47475W        W19091  20.500  29.922   1.720
47476W        W19092  17.488   9.785   4.445
47477W        W19093  34.188  12.347   3.210
47478W        W19094   9.054  22.208  14.580
47479W        W19095   1.273  39.480  14.268
47480W        W19096  17.145   4.834   1.803
47481W        W19097  24.974   2.813  12.539
47482W        W19098   0.341   9.476  11.601
47483W        W19099  11.359  20.090   1.213
47484W        W19100   5.164  12.013   0.767
47485W        W19101  35.102  38.341  14.208
47486W        W19102  40.045  28.449  12.873
47487W        W19103   2.869  30.465  11.369
47488W        W19104  14.273  11.848   3.604
47489W        W19105   7.939  12.678   5.032
47490W        W19106  28.712   8.610   4.492
47491W        W19107  41.363  28.597   3.583
47492W        W19108  27.458   7.293   0.955
47493W        W19109  27.160  30.578  11.897
47494W        W19110  15.584   8.201   3.313
47495W        W19111  10.592  24.066   4.060
47496W        W19112  15.582  19.760  11.400
47497W        W19113  39.578  42.737   4.049
47498W        W19114  19.244  20.498   4.385
47499W        W19115  42.333   9.625   2.582
47500W        W19116  35.767  33.443   3.699
47501W        W19117  39.830  41.908  12.107
47502W        W19118  39.015   0.511   3.305
47503W        W19119   3.935  28.607   2.409
47504W        W19120   5.394  43.734  11.453
47505W        W19121  25.950  31.548  13.042
47506W        W19122  29.122   5.937   3.526
47507W        W19123  21.192   0.503  13.022
47508W        W19124  36.524   1.609  11.183
47509W        W19125  35.414  11.293  13.057
47510W        W19126   0.250  30.134  11.179
47511W        W19127   6.682  42.400  12.175
47512W        W19128  26.178   6.711  10.714
47513W        W19129  10.118   7.838  11.237
47514W        W19130  39.085  41.878  14.030
47515W        W19131  37.344   5.327  10.896
47516W        W19132  34.986   8.801   2.375
47517W        W19133  36.118  25.288  10.670
47518W        W19134  42.392  10.100   3.391
47519W        W19135  10.630  23.538  12.629
47520W        W19136  21.159  30.116   2.131
47521W        W19137   5.480   1.023  10.910
47522W        W19138  37.797  32.487   2.991
47523W        W19139  11.623  40.329  13.985
47524W        W19140  31.964   5.006  13.083
47525W        W19141   0.355  28.434  14.311
47526W        W19142  19.154  29.132   1.167
47527W        W19143   9.621  20.768   0.221
47528W        W19144  42.508  13.744  11.557
47529W        W19145  38.569   4.907   3.802
47530W        W19146  25.147  31.219  13.092
47531W        W19147  34.779  34.537  11.574
47532W        W19148  22.640   9.646   4.124
47533W        W19149  11.293  41.364  10.394
47534W        W19150  31.469  40.275   3.714
47535W        W19151  14.768  40.032  12.923
47536W        W19152   0.833  14.786  13.512
47537W        W19153   8.149   2.467   2.761
47538W        W19154   0.455   7.245  13.636
47539W        W19155  40.850  35.089  12.953
47540W        W19156   2.161  19.316   4.114
47541W        W19157   6.235  39.278  11.297
47542W        W19158  21.969   8.848  12.003
47543W        W19159  40.561  28.231  13.009
47544W        W19160  30.761  24.088   0.529
47545W        W19161   0.865  14.726  12.057
47546W        W19162  38.099   6.413  13.001
47547W        W19163  21.082  17.715   0.568
47548W        W19164  10.927   5.731  13.615
47549W        W19165  19.995  33.578  11.292
47550W        W19166  28.618  37.072   3.688
47551W        W19167   0.283  14.777  10.829
47552W        W19168  34.387  24.500  12.865
47553W        W19169   5.577  36.358   5.236
47554W        W19170   4.711  38.320  11.124
47555W        W19171   6.888  34.124   2.882
47556W        W19172   7.094  17.036  11.604
47557W        W19173  42.558  21.063   1.911
47558W        W19174  18.743  23.903  11.384
47559W        W19175   9.769   8.351   4.926
47560W        W19176  15.065  44.944   1.409
47561W        W19177  31.465  18.074  10.907
47562W        W19178  38.793  30.028  10.188
47563W        W19179   0.652  33.946   0.758
47564W        W19180   0.780  13.704  13.449
47565W        W19181  30.581  37.788   4.072
47566W        W19182   3.945   6.762  14.972
47567W        W19183   0.337  31.624   4.736
47568W        W19184  34.900  32.085   2.796
47569W        W19185  24.993  10.830   4.329
47570W        W19186  43.858  15.539   2.923
47571W        W19187  20.560  22.783  12.623
47572W        W19188  10.102  32.621  11.979
47573W        W19189  15.407  33.239  14.516
47574W        W19190  35.282  35.789  12.447
47575W        W19191  42.180  43.369   2.759
47576W        W19192  14.397  33.957  13.004
47577W        W19193  21.780  40.504  14.429
47578W        W19194  12.329  31.898   1.327
47579W        W19195  39.708   2.385  11.191
47580W        W19196  40.337  42.938   2.761
47581W        W19197  40.485   5.312   2.368
47582W        W19198  21.245  39.528  14.852
47583W        W19199  34.302   7.725   1.621
47584W        W19200   2.796  26.318   2.675
47585W        W19201   5.184  18.516   0.700
47586W        W19202  27.608   5.755  12.567
47587W        W19203  26.680  39.017  10.095
47588W        W19204  39.858  29.184   3.758
47589W        W19205   9.950  18.619  11.372
47590W        W19206  25.038  37.384   1.420
47591W        W19207  40.489  38.265   1.729
47592W        W19208  11.133   3.999  14.308
47593W        W19209  37.558  17.663   0.324
47594W        W19210  43.779  14.855  12.977
47595W        W19211  41.213  15.393  13.511
47596W        W19212   0.859  11.673  11.904
47597W        W19213  17.650  37.831   4.290
47598W        W19214  35.057   5.888   2.207
47599W        W19215  14.686  31.613   1.406
47600W        W19216  40.897  25.506  10.711
47601W        W19217  39.805  31.376  13.369
47602W        W19218   4.302  34.668  12.233
47603W        W19219   9.971   7.224  10.256
47604W        W19220   7.257  23.821   1.392
47605W        W19221  19.061  14.311  12.050
47606W        W19222  25.072  41.299   4.016
47607W        W19223  23.790  17.783  14.901
47608W        W19224  19.067   2.793  14.854
47609W        W19225  23.073   7.021  14.019
47610W        W19226  36.539  23.553   3.571
47611W        W19227  22.145   2.782   4.785
47612W        W19228  17.180  31.867   4.102
47613W        W19229  15.304  34.815  13.567
47614W        W19230   4.535  21.990  11.692
47615W        W19231  41.933  23.889   1.733
47616W        W19232  42.311  16.146   3.713
47617W        W19233   4.394  39.461  12.866
47618W        W19234  43.004  42.461   3.996
47619W        W19235   9.687  36.861   4.092
47620W        W19236   5.932  30.106  13.559
47621W        W19237  23.624  13.696  13.346
47622W        W19238  26.589   7.378   0.906
47623W        W19239  17.144  26.292   4.185
47624W        W19240  42.877  37.861  10.991
47625W        W19241  19.780  12.880   0.296
47626W        W19242  24.776   5.346   2.623
47627W        W19243   4.922  18.573  13.774
47628W        W19244  11.145  39.419   0.437
47629W        W19245  13.418  38.533  15.000
47630W        W19246   8.404  13.766  11.216
47631W        W19247   5.854   1.376   1.777
47632W        W19248  23.788   6.439   1.300
47633W        W19249  40.026   2.265   4.943
47634W        W19250  42.865  13.615  12.731
47635W        W19251  25.242  20.240   0.744
47636W        W19252  13.870  40.511  14.320
47637W        W19253  36.420  31.221   3.897
47638W        W19254   3.390  11.606  12.002
47639W        W19255  20.630   1.208  10.799
47640W        W19256  26.942  44.930   3.301
47641W        W19257  24.118   6.174   5.051
47642W        W19258  14.548  27.017   2.160
47643W        W19259  13.154  33.031   2.364
47644W        W19260   6.367  32.604   1.602
47645W        W19261  18.978   4.324   4.583
47646W        W19262  10.347  20.850   1.834
47647W        W19263  11.715  42.426  12.505
47648W        W19264   3.683  23.006   0.365
47649W        W19265  25.693  33.858   2.408
47650W        W19266  14.983  25.937   3.109
47651W        W19267  41.865   2.242  13.385
47652W        W19268  36.027  41.076  12.388
47653W        W19269  15.938  21.788  11.246
47654W        W19270   2.674   9.322  11.551
47655W        W19271  39.194  31.427  14.092
47656W        W19272  36.767  22.646   3.693
47657W        W19273  19.066  15.795  12.087
47658W        W19274  44.381   6.369  11.507
47659W        W19275   3.296  14.159   3.787
47660W        W19276  27.981   1.578   3.983
47661W        W19277  18.092  29.641   1.808
47662W        W19278   6.701  19.552  10.512
47663W        W19279  29.739  35.427  13.007
47664W        W19280   2.217  43.565   1.637
47665W        W19281  18.413  32.589  13.818
47666W        W19282  42.478   6.475  11.111
47667W        W19283  33.983  19.606  13.541
47668W        W19284  25.731  29.968   0.754
47669W        W19285   8.718  18.653  14.118
47670W        W19286  40.739  23.228  12.280
47671W        W19287  25.391  11.338  13.836
47672W        W19288  29.493   7.619   2.316
47673W        W19289  44.804  17.666   4.402
47674W        W19290  14.180   7.466   4.599
47675W        W19291  18.052  17.985  14.938
47676W        W19292  41.542  18.624   2.303
47677W        W19293  22.419   1.267   3.234
47678W        W19294  31.389   2.483   4.342
47679W        W19295  41.980  42.857  12.677
47680W        W19296   0.957  12.420   4.530
47681W        W19297  30.144  29.082   0.848
47682W        W19298  19.269  27.772  10.491
47683W        W19299  10.276  21.345   4.113
47684W        W19300   8.482  29.030  12.319
47685W        W19301  12.356   9.424   4.391
47686W        W19302   2.270   7.406   0.290
47687W        W19303  21.031  20.136   1.819
47688W        W19304  31.824  26.138  14.049
47689W        W19305   4.623  37.375   5.167
47690W        W19306  39.559   3.662  14.428
47691W        W19307  29.565  21.422  12.056
47692W        W19308  23.506   6.201  14.777
47693W        W19309  20.861  12.004   0.252
47694W        W19310  21.041  28.202   1.903
47695W        W19311  40.480  40.311   5.056
47696W        W19312   3.771  23.998   3.219
47697W        W19313  22.218   8.704  12.421
47698W        W19314   2.004   0.823   2.429
47699W        W19315  44.955   3.018  14.425
47700W        W19316  27.212  10.382   3.181
47701W        W19317  33.063  41.508   1.432
47702W        W19318  41.104  18.422  13.569
47703W        W19319  43.735  24.575  12.552
47704W        W19320  12.918  12.361   4.196
47705W        W19321  19.596   5.928  10.650
47706W        W19322   5.516   1.772   1.834
47707W        W19323  20.767   8.865  13.323
47708W        W19324   7.976  26.965  11.572
47709W        W19325   1.654  25.184   0.335
47710W        W19326  39.529  12.892   9.499
47711W        W19327  14.330   4.892   4.584
47712W        W19328  42.269  12.162  10.905
47713W        W19329  27.338   3.607  11.942
47714W        W19330  31.980  37.347   3.287
47715W        W19331   2.842  42.419   0.253
47716W        W19332  13.836  12.331   0.477
47717W        W19333  12.294  42.542   4.149
47718W        W19334  33.470  42.012  10.417
47719W        W19335  19.783   5.315   1.455
47720W        W19336  40.339   0.987   4.559
47721W        W19337  33.361  16.345   0.372
47722W        W19338   8.383  17.274  12.035
47723W        W19339  39.891  25.915  12.425
47724W        W19340   3.802  32.601  11.895
47725W        W19341  36.968  34.555   1.676
47726W        W19342  33.006  39.789   2.275
47727W        W19343  22.463  14.746  13.427
47728W        W19344   0.481   8.003   3.471
47729W        W19345  19.866  29.693   4.158
47730W        W19346  30.193  27.465  11.483
47731W        W19347  10.193   8.393   2.691
47732W        W19348  14.768   7.624  12.091
47733W        W19349   2.901  44.529  10.736
47734W        W19350  32.141  17.778   4.044
47735W        W19351  33.977  36.371   1.294
47736W        W19352  28.834  18.277   4.384
47737W        W19353  18.236  41.853  12.472
47738W        W19354  27.680  19.244   4.245
47739W        W19355  21.207  39.360   4.166
47740W        W19356  22.094  17.650  13.781
47741W        W19357  21.277  13.848   4.740
47742W        W19358  43.634   0.733  11.162
47743W        W19359  19.052  13.965   2.248
47744W        W19360  34.478  21.700  14.555
47745W        W19361  35.182  42.012  12.541
47746W        W19362   9.641   3.085   3.614
47747W        W19363  39.994  41.158   3.706
47748W        W19364  14.648  11.829   0.740
47749W        W19365  36.968  28.206  12.784
47750W        W19366   8.767  19.022   0.459
47751W        W19367  14.318  33.453   1.440
47752W        W19368   1.560  40.337  12.923
47753W        W19369  41.847   2.658  11.215
47754W        W19370  40.002  33.021   0.322
47755W        W19371   4.469  15.194  10.683
47756W        W19372  42.078   7.650  12.228
47757W        W19373  32.311  12.623  10.738
47758W        W19374   8.872  39.562  12.088
47759W        W19375  40.468  21.951   0.543
47760W        W19376  14.209   7.453   2.271
47761W        W19377  33.846  19.481  12.511
47762W        W19378  15.523  44.345  12.321
47763W        W19379  42.489  35.762  10.736
47764W        W19380   5.354   4.190  11.676
47765W        W19381  35.440  39.802  10.658
47766W        W19382   6.610  44.365   5.053
47767W        W19383  30.609  24.161   2.867
47768W        W19384  44.342   9.239   4.045
47769W        W19385  43.431  28.192  12.029
47770W        W19386  31.384  22.502   0.849
47771W        W19387  15.093  27.274   3.286
47772W        W19388  17.274  33.152  11.553
47773W        W19389  13.995   9.634  13.941
47774W        W19390  16.606  43.106  11.939
47775W        W19391   8.852  39.921   2.418
47776W        W19392  43.977  30.543   4.344
47777W        W19393  43.001  15.229  10.525
47778W        W19394  41.932   4.337   0.519
47779W        W19395  30.410  33.565   4.403
47780W        W19396  16.108  41.737  12.220
47781W        W19397  38.790  29.105  10.480
47782W        W19398   9.437  36.005   5.138
47783W        W19399  13.655   8.242  13.015
47784W        W19400  38.479   6.332  12.161
47785W        W19401  20.022   8.459   4.224
47786W        W19402  36.543  11.905  11.720
47787W        W19403  11.525  16.725  11.553
47788W        W19404  43.440   0.513  14.218
47789W        W19405  18.089  32.431   3.740
47790W        W19406  21.917  40.747   0.144
47791W        W19407  24.645  24.670   4.141
47792W        W19408   0.846  30.577   3.181
47793W        W19409  31.862   1.328   0.485
47794W        W19410  40.757   5.279   2.844
47795W        W19411   2.267  35.510   0.398
47796W        W19412  18.747  44.894   0.038
47797W        W19413   4.463  23.441  12.022
47798W        W19414  35.055  20.871   4.868
47799W        W19415  18.954  33.406  11.974
47800W        W19416  13.716  19.128   2.151
47801W        W19417   2.924   8.827  14.161
47802W        W19418  24.995  41.402   4.521
47803W        W19419   4.946  39.451   4.145
47804W        W19420  42.428  29.115  13.494
47805W        W19421  10.804  20.172  13.125
47806W        W19422  44.027  33.581  13.699
47807W        W19423  15.321  38.487  12.515
47808W        W19424  12.721   7.437  14.464
47809W        W19425  34.438  28.755   1.385
47810W        W19426  30.390  34.352   0.318
47811W        W19427   3.333  28.295   3.262
47812W        W19428  19.706   3.237  12.606
47813W        W19429  40.397  21.102  12.707
47814W        W19430   8.829   0.852   1.260
47815W        W19431  10.421  29.582  12.184
47816W        W19432   0.243  22.340  14.914
47817W        W19433  31.742  44.009   5.329
47818W        W19434  12.221  23.097   0.699
47819W        W19435  43.365   1.534  13.991
47820W        W19436  31.986   2.696  14.905
47821W        W19437   0.892  43.030  13.944
47822W        W19438  43.290  24.630   0.026
47823W        W19439  18.791  43.360   0.961
47824W        W19440  30.919  26.946  10.987
47825W        W19441  12.752  33.614  13.279
47826W        W19442  33.828  27.676  11.994
47827W        W19443  33.947  16.130  11.014
47828W        W19444  41.998  11.749   1.470
47829W        W19445   3.511  22.693  12.910
47830W        W19446   2.585   1.856  12.904
47831W        W19447  26.522  39.380   0.673
47832W        W19448  41.820  30.853   0.013
47833W        W19449  39.006  34.599  10.572
47834W        W19450  18.281   8.854   2.215
47835W        W19451  15.782   9.865  13.515
47836W        W19452   0.808  23.417   4.975
47837W        W19453  15.180   8.917   0.479
47838W        W19454  35.951  23.026   1.954
47839W        W19455  31.055  44.322  11.505
47840W        W19456  44.975  43.891   2.861
47841W        W19457  18.316  32.005   0.733
47842W        W19458  16.495  36.448  12.080
47843W        W19459  36.474  16.696  13.447
47844W        W19460  14.126   5.398   4.581
47845W        W19461  33.911  29.481  10.560
47846W        W19462  19.792   8.380  13.636
47847W        W19463  13.113  13.123   1.626
47848W        W19464   6.232   0.963   2.699
47849W        W19465  38.505   0.737  11.549
47850W        W19466  24.504   7.784  13.914
47851W        W19467   5.881  25.275  13.565
47852W        W19468   0.474  36.622   5.196
47853W        W19469  14.739  13.831  11.389
47854W        W19470  20.811  39.540  12.374
47855W        W19471  41.412   7.733  11.097
47856W        W19472   0.542  35.174  14.081
47857W        W19473  38.780  41.748   4.468
47858W        W19474  11.673  30.185  10.451
47859W        W19475   7.836  15.326   0.871
47860W        W19476  41.712  17.661   2.418
47861W        W19477   1.716  28.987   2.854
47862W        W19478  24.703  40.894   1.043
47863W        W19479  12.819   7.508   1.037
47864W        W19480   9.121  28.901  12.162
47865W        W19481  13.035  15.455   5.052
47866W        W19482  14.556   6.903   9.992
47867W        W19483  35.374  20.781   3.223
47868W        W19484  35.049  34.008  12.413
47869W        W19485  17.098   1.070  13.045
47870W        W19486   4.777  38.690  10.110
47871W        W19487   5.024  37.323  13.427
47872W        W19488  35.114  39.939  14.442
47873W        W19489   0.842   0.236   3.839
47874W        W19490  32.020  13.195   3.220
47875W        W19491  41.534  39.796  12.431
47876W        W19492  16.213  10.833   4.271
47877W        W19493   7.288  28.675  14.341
47878W        W19494  21.187   2.481   4.709
47879W        W19495   9.657  42.097   4.465
47880W        W19496   5.516  17.190  13.700
47881W        W19497   5.833  12.774  11.494
47882W        W19498   1.859  19.660   1.292
47883W        W19499  26.166  17.065  10.069
47884W        W19500   5.315  41.326   2.758
47885W        W19501  43.535   8.337  14.732
47886W        W19502  31.086   1.758  10.837
47887W        W19503   1.784  17.610  12.943
47888W        W19504   8.488   8.673  14.915
47889W        W19505   6.530  23.412  14.003
47890W        W19506  21.795  40.063  11.546
47891W        W19507   0.179  41.317   4.202
47892W        W19508  10.323  14.625  12.840
47893W        W19509  18.557  11.481  10.476
47894W        W19510  17.720  20.158   2.937
47895W        W19511   5.184  26.605   0.782
47896W        W19512  10.979  12.617   4.197
47897W        W19513  24.400  44.344  13.705
47898W        W19514  33.678  34.554   4.866
47899W        W19515  11.295  18.261  12.051
47900W        W19516  38.014  28.078  14.498
47901W        W19517  13.719  40.786  12.145
47902W        W19518  10.670  20.005   0.562
47903W        W19519  28.840   0.760  11.575
47904W        W19520  23.235  33.017   1.403
47905W        W19521  14.828  40.901   4.808
47906W        W19522  35.880  21.547   0.517
47907W        W19523  42.875  31.282  13.554
47908W        W19524   2.883   7.355  12.688
47909W        W19525  36.759   2.904  12.279
47910W        W19526   1.916   2.223   0.825
47911W        W19527  13.391  17.635   4.345
47912W        W19528  37.958  42.428  13.574
47913W        W19529  26.697   3.792   3.105
47914W        W19530  40.102  12.924  11.961
47915W        W19531   5.253   4.263   2.631
47916W        W19532   6.779  39.161   3.113
47917W        W19533  28.734  22.139  13.565
47918W        W19534   1.348  35.840   1.235
47919W        W19535   7.246  23.181   0.452
47920W        W19536  33.453  19.443   1.267
47921W        W19537  35.500  38.464  14.481
47922W        W19538  11.204  12.943   3.702
47923W        W19539  37.373  43.993   1.692
47924W        W19540  44.434  20.088  11.076
47925W        W19541  14.781  10.116  10.798
47926W        W19542  10.387   3.371   3.223
47927W        W19543  42.314  13.076  12.320
47928W        W19544   8.955  22.738   4.009
47929W        W19545  36.447   0.770  14.410
47930W        W19546   3.753  16.182   2.543
47931W        W19547  41.132  26.128  14.515
47932W        W19548  29.986  21.708   2.274
47933W        W19549  41.750  27.506  10.965
47934W        W19550  21.980  12.872   1.955
47935W        W19551  28.540   0.192  10.770
47936W        W19552  26.940  28.379   3.807
47937W        W19553  38.429  39.735  14.559
47938W        W19554   9.142  33.539  14.456
47939W        W19555   5.223  21.497  12.071
47940W        W19556  25.426   1.891  11.375
47941W        W19557  15.709  26.916   4.657
47942W        W19558  21.042   1.800   3.303
47943W        W19559  16.536  32.080  12.367
47944W        W19560  11.208   8.885   1.149
47945W        W19561   3.846   5.988  13.729
47946W        W19562  38.178  35.485   0.402
47947W        W19563   7.520  31.036  11.994
47948W        W19564   2.320  39.020   3.795
47949W        W19565  19.808  15.282  11.131
47950W        W19566  27.395  23.802  14.859
47951W        W19567   9.383   4.566  11.265
47952W        W19568  16.346  15.285   1.703
47953W        W19569  32.915  26.934   4.230
47954W        W19570   2.390  32.785   4.062
47955W        W19571  39.000   6.360   4.589
47956W        W19572  11.005  15.877   0.104
47957W        W19573  36.968   8.896  10.302
47958W        W19574  20.767  39.364  11.101
47959W        W19575  34.201  26.486   0.429
47960W        W19576  27.984  18.084  10.662
47961W        W19577  42.465  20.328  14.347
47962W        W19578  26.019  16.628  12.381
47963W        W19579   5.828   8.399   1.465
47964W        W19580  43.441  20.976   4.573
47965W        W19581  33.442  33.920   0.018
47966W        W19582  36.380  20.236  13.291
47967W        W19583  30.884  19.148   2.632
47968W        W19584  20.968  38.008  14.027
47969W        W19585  36.004  39.435  14.993
47970W        W19586  28.586  14.588   0.841
47971W        W19587  44.215  28.666   1.172
47972W        W19588   8.747  10.848   3.604
47973W        W19589  37.243   4.566  12.509
47974W        W19590  43.415  12.393   0.933
47975W        W19591   3.253  25.928   1.873
47976W        W19592  39.452  19.170  14.205
47977W        W19593  33.336   8.749   5.212
47978W        W19594  32.884  22.601  12.133
47979W        W19595  29.888  41.873   4.153
47980W        W19596  14.306  41.349   1.993
47981W        W19597  23.439  15.824  14.102
47982W        W19598  15.418   6.232  11.350
47983W        W19599  16.530  27.324   3.251
47984W        W19600  35.211  18.744   2.351
47985W        W19601   0.845   3.404  14.038
47986W        W19602  24.135  14.589  14.797
47987W        W19603  32.584  38.565  14.694
47988W        W19604  35.132  29.520  12.562
47989W        W19605   5.313  25.529  11.975
47990W        W19606   1.796  39.566   3.230
47991W        W19607   8.403  30.738  13.111
47992W        W19608  35.914  11.119   3.236
47993W        W19609  25.952  38.550  14.848
47994W        W19610  15.150  43.564  13.373
47995W        W19611   5.852  15.002  14.974
47996W        W19612  11.869  13.718   3.322
47997W        W19613  43.555  37.368  13.486
47998W        W19614  18.109   0.234  11.967
47999W        W19615  40.918  43.201   0.716
48000W        W19616  43.956  31.623   4.175
48001W        W19617  33.695  26.412   1.372
48002W        W19618  22.036  11.232  13.955
48003W        W19619  39.051  26.174   1.282
48004W        W19620  39.280  18.112  14.176
48005W        W19621  35.806  28.605   1.972
48006W        W19622  34.592  34.679  13.968
48007W        W19623  15.632  43.280   0.764
48008W        W19624  18.046  36.814  11.137
48009W        W19625   1.967  17.656  12.021
48010W        W19626  14.169  37.967  14.269
48011W        W19627  32.987  35.096   3.135
48012W        W19628  32.927  20.623  14.462
48013W        W19629  44.145  19.805  11.863
48014W        W19630  34.114  26.102   1.285
48015W        W19631  10.519   8.468   4.088
48016W        W19632  34.160  14.585  13.466
48017W        W19633  11.750  30.525  11.555
48018W        W19634  33.956  36.980   4.239
48019W        W19635   4.340  17.360   0.711
48020W        W19636  44.309  15.451   5.091
48021W        W19637  28.246  21.228  14.968
48022W        W19638   2.135   4.286  12.083
48023W        W19639  36.908  14.714   1.021
48024W        W19640  18.114  23.709  14.857
48025W        W19641  44.023  15.148   3.216
48026W        W19642   8.342  15.280   4.327
48027W        W19643  44.002   9.376  14.015
48028W        W19644  13.304  24.486   1.632
48029W        W19645  39.072   8.040  13.992
48030W        W19646  30.891  12.076  12.496
48031W        W19647  31.024   5.184  12.951
48032W        W19648  27.794  31.899  11.619
48033W        W19649   4.469  16.405   0.765
48034W        W19650  41.409   0.287   0.524
48035W        W19651   6.679  29.128  11.160
48036W        W19652  19.308  20.752  12.811
48037W        W19653  18.062  15.302  12.976
48038W        W19654   6.150  27.951   2.774
48039W        W19655  24.274  27.236  11.895
48040W        W19656  23.002   5.300  12.590
48041W        W19657  13.687  16.614  12.428
48042W        W19658   3.142  17.115   0.326
48043W        W19659  30.622  42.254  13.640
48044W        W19660  35.691  37.158   2.266
48045W        W19661   4.861  36.122  12.460
48046W        W19662  36.925  37.177  13.993
48047W        W19663   3.650  26.987  14.165
48048W        W19664  22.935   3.851  12.493
48049W        W19665  27.504   5.650  11.628
48050W        W19666   9.570   0.231   4.235
48051W        W19667  42.370  19.140  10.962
48052W        W19668  24.150  29.905   2.811
48053W        W19669  41.144  38.811  10.026
48054W        W19670  12.301   4.148  13.718
48055W        W19671  37.985   9.697   5.505
48056W        W19672  43.036  34.347   1.186
48057W        W19673  35.683   2.248   4.542
48058W        W19674  19.912  44.787  13.428
48059W        W19675  33.362  30.558  10.630
48060W        W19676  34.237  19.645  12.126
48061W        W19677  39.385  44.964  12.393
48062W        W19678  33.389  33.122  11.840
48063W        W19679  23.915  21.557   0.719
48064W        W19680  36.490  16.629  11.573
48065W        W19681   6.888  37.842  11.921
48066W        W19682   3.045   7.565  13.538
48067W        W19683   2.564  24.903  13.520
48068W        W19684  43.978  30.642  11.563
48069W        W19685  37.952  43.858  12.608
48070W        W19686  25.555  25.893  14.817
48071W        W19687  19.311  10.474   4.787
48072W        W19688  18.022   0.487   2.277
48073W        W19689  21.154  37.965  13.516
48074W        W19690  39.511  13.598  14.924
48075W        W19691  21.670  14.580  13.583
48076W        W19692  40.739   9.641   5.013
48077W        W19693   5.308   2.403   3.275
48078W        W19694  22.369  15.633   4.874
48079W        W19695  24.506  30.659   0.246
48080W        W19696  36.925  27.726  11.412
48081W        W19697  34.127  15.284  12.968
48082W        W19698  17.333  33.540   4.607
48083W        W19699  13.148   5.902  13.300
48084W        W19700  10.125  35.788  12.128
48085W        W19701  17.368  20.755  12.978
48086W        W19702  10.677  41.400  13.148
48087W        W19703  23.724  23.450   4.119
48088W        W19704  10.308  38.362   3.675
48089W        W19705  41.630  14.747   0.212
48090W        W19706  43.206   3.337  11.688
48091W        W19707  34.836  11.896  13.453
48092W        W19708  38.589  26.641   3.634
48093W        W19709  17.072  30.491  12.073
48094W        W19710  30.195   6.861  12.668
48095W        W19711   7.393  21.591  13.050
48096W        W19712   5.097   8.687  13.073
48097W        W19713  42.937  16.786   3.116
48098W        W19714  20.183   5.799  14.267
48099W        W19715  41.699  28.559  11.151
48100W        W19716  34.847  19.840  11.467
48101W        W19717  21.111  29.497   4.581
48102W        W19718  13.649  36.192   0.908
48103W        W19719  20.991   4.866  10.617
48104W        W19720  29.477   4.193  10.708
48105W        W19721  13.803  21.048   1.368
48106W        W19722  33.472  25.896   2.434
48107W        W19723  26.190  20.981   3.131
48108W        W19724  18.933  43.888  11.076
48109W        W19725  11.161  36.784   0.917
48110W        W19726  43.739  38.496   4.243
48111W        W19727  38.849  21.660   2.757
48112W        W19728  35.060  42.791   1.701
48113W        W19729  14.667   6.412   3.408
48114W        W19730  13.737  11.926  11.508
48115W        W19731  30.085  27.003  12.720
48116W        W19732  31.190   9.081   4.569
48117W        W19733  40.013  38.067  10.870
48118W        W19734   9.675   3.934  11.527
48119W        W19735  26.253  25.120  12.834
48120W        W19736  41.310  41.776  13.421
48121W        W19737  11.323  16.622   2.286
48122W        W19738  18.091  20.743   2.307
48123W        W19739  33.995  18.843  11.142
48124W        W19740  41.461  16.293   1.804
48125W        W19741  19.006   6.317   0.318
48126W        W19742   3.860  28.049  11.083
48127W        W19743  28.304  42.419   3.756
48128W        W19744  32.088  24.362  10.728
48129W        W19745  23.706  30.925  13.045
48130W        W19746  39.244  11.563   2.342
48131W        W19747  21.033   3.344  12.244
48132W        W19748  34.380  17.754  14.518
48133W        W19749  13.871   3.176  11.044
48134W        W19750   2.325  16.229  14.281
48135W        W19751  25.566  21.920   1.320
48136W        W19752  22.369  27.879  12.776
48137W        W19753  19.034  43.316  12.970
48138W        W19754   5.997  15.214  10.710
48139W        W19755  29.046  41.092  11.617
48140W        W19756  24.501   5.992   1.866
48141W        W19757  21.363  24.656  11.139
48142W        W19758   4.318  39.471   2.203
48143W        W19759   0.507  22.072  11.596
48144W        W19760  37.395   6.728  14.048
48145W        W19761  11.443  38.526   1.407
48146W        W19762  21.796  41.780  12.637
48147W        W19763  34.040  32.624   3.244
48148W        W19764  29.235  38.510   0.232
48149W        W19765  39.537  12.558  12.419
48150W        W19766  17.743  26.108   4.755
48151W        W19767  12.122   5.776   4.308
48152W        W19768  42.404  16.580   3.266
48153W        W19769  38.115  20.787  10.768
48154W        W19770  28.104  19.650   3.196
48155W        W19771  15.784   0.441  13.369
48156W        W19772  40.300  24.814   4.089
48157W        W19773   0.267   6.825   3.585
48158W        W19774   0.659  41.675  11.122
48159W        W19775  34.016  15.874  12.424
48160W        W19776   1.488  25.546   4.263
48161W        W19777  14.176  21.381  11.690
48162W        W19778  39.439   6.639   4.448
48163W        W19779  26.501   5.772   3.773
48164W        W19780   0.305  44.725   4.517
48165W        W19781  22.721  24.846  14.879
48166W        W19782   5.340   5.133   2.327
48167W        W19783   3.760  24.947   5.166
48168W        W19784  19.431  42.532  12.937
48169W        W19785   4.172   0.896  13.774
48170W        W19786  20.941   4.454   1.825
48171W        W19787  14.324   8.866   0.740
48172W        W19788   0.827   4.798   4.498
48173W        W19789   9.981  29.889   0.693
48174W        W19790   3.300  43.267  14.376
48175W        W19791   6.951  42.690  12.965
48176W        W19792  35.378  25.008   2.730
48177W        W19793  31.188  27.962   2.861
48178W        W19794  21.682   5.027   1.442
48179W        W19795  37.649  11.130  13.369
48180W        W19796  36.536  17.034   0.850
48181W        W19797  13.748  11.108   2.112
48182W        W19798  40.350  41.126  11.243
48183W        W19799  12.058  42.947   0.463
48184W        W19800  29.206  42.466  13.479
48185W        W19801  13.727  41.454  11.552
48186W        W19802  17.841  31.777   0.281
48187W        W19803  24.832  20.670  14.034
48188W        W19804  41.951   0.989  10.650
48189W        W19805  33.884  36.302  12.085
48190W        W19806   3.202  15.717  14.993
48191W        W19807  43.222   7.663  14.369
48192W        W19808  37.986  28.708  12.246
48193W        W19809  23.080  24.428  12.060
48194W        W19810  42.068   6.767  12.867
48195W        W19811  37.257  38.565  11.642
48196W        W19812  18.193  19.205   4.650
48197W        W19813  17.526  22.175  12.935
48198W        W19814  12.633  36.979  12.011
48199W        W19815  33.438  37.041  14.780
48200W        W19816  31.597  28.781   2.683
48201W        W19817  22.069   7.335   0.908
48202W        W19818  18.551  24.814   4.722
48203W        W19819  23.864  42.289   3.867
48204W        W19820   2.766   8.501   1.895
48205W        W19821   3.432   9.154  13.086
48206W        W19822  15.736  42.844   5.306
48207W        W19823   2.981   7.192  13.167
48208W        W19824  43.141  33.173   4.244
48209W        W19825   3.796   9.114   4.357
48210W        W19826  35.965  22.973  14.562
48211W        W19827  28.240  36.342   4.117
48212W        W19828  12.884  27.089   2.273
48213W        W19829  20.572  41.521   1.463
48214W        W19830  42.420  13.722   2.767
48215W        W19831  19.628  30.675   2.617
48216W        W19832  34.879  25.918  12.979
48217W        W19833  24.021  30.441   4.562
48218W        W19834  36.937  39.456  14.002
48219W        W19835  25.888  44.696   0.889
48220W        W19836   6.269  16.212   2.238
48221W        W19837  17.145   0.503  12.889
48222W        W19838   5.715  41.746  13.383
48223W        W19839   3.698  14.674  12.201
48224W        W19840  42.484   3.557   0.393
48225W        W19841  22.887  24.473  11.143
48226W        W19842   0.744  38.907   1.160
48227W        W19843   2.336  25.037  12.023
48228W        W19844  28.884   1.995   3.182
48229W        W19845  16.586  11.105  10.586
48230W        W19846   0.308   8.399   0.237
48231W        W19847  39.540  44.809   1.992
48232W        W19848  20.379   6.282   0.457
48233W        W19849  42.027  19.942   3.737
48234W        W19850   4.278  35.978   2.454
48235W        W19851  44.246  10.210  11.161
48236W        W19852  11.332  26.876   3.308
48237W        W19853  40.291   3.598   3.733
48238W        W19854  37.476  34.678   0.363
48239W        W19855  15.089  20.293   2.444
48240W        W19856  13.901   6.697  13.091
48241W        W19857  36.763  43.926   0.010
48242W        W19858  34.040  43.005   4.893
48243W        W19859  20.246  44.295   3.984
48244W        W19860   3.503  38.795   0.522
48245W        W19861   0.259  10.222   0.357
48246W        W19862  27.964  25.040  12.424
48247W        W19863   9.375  22.633   2.771
48248W        W19864  10.448  28.616  12.056
48249W        W19865   8.699  13.593   4.308
48250W        W19866  27.513   6.127  11.466
48251W        W19867   2.377   9.871   1.983
48252W        W19868   4.461  13.177   4.669
48253W        W19869  13.316  28.555   4.315
48254W        W19870  27.629  17.705  10.609
48255W        W19871   4.857   7.928   1.426
48256W        W19872  27.088  44.819  11.614
48257W        W19873   6.654  44.940  11.448
48258W        W19874  38.923  14.721   4.794
48259W        W19875  39.707  39.390  11.150
48260W        W19876  22.409  25.328   5.088
48261W        W19877  13.039   6.838   3.604
48262W        W19878  11.124  42.009   2.855
48263W        W19879  27.775  19.949  12.692
48264W        W19880  42.292  30.381  11.984
48265W        W19881  25.198  44.463   4.736
48266W        W19882  29.942  42.284   2.033
48267W        W19883   9.793   7.720   4.238
48268W        W19884  26.895  23.585   4.168
48269W        W19885  40.827  25.116   1.351
48270W        W19886  15.524  42.073  13.562
48271W        W19887  26.499  22.248   3.604
48272W        W19888  33.927  39.773  10.982
48273W        W19889  18.714  25.846  12.382
48274W        W19890   9.889   4.761   5.015
48275W        W19891  20.306  37.429  10.726
48276W        W19892  42.752  29.666   2.269
48277W        W19893  22.481  31.531   3.821
48278W        W19894   3.347  42.071  11.510
48279W        W19895  35.446   9.749  11.083
48280W        W19896  43.194  14.861  14.369
48281W        W19897  20.432  23.834   1.744
48282W        W19898  21.136   2.981   1.758
48283W        W19899   7.507   3.411   2.290
48284W        W19900   8.121  27.979   2.344
48285W        W19901  22.381  34.459   0.949
48286W        W19902  30.831   7.565   1.220
48287W        W19903  19.791  31.602   3.422
48288W        W19904  10.589  22.257  13.471
48289W        W19905  17.101  18.791  10.474
48290W        W19906  30.462  16.766  13.033
48291W        W19907  36.511  36.610   3.696
48292W        W19908   3.034  11.648  13.862
48293W        W19909  29.502  42.728  12.565
48294W        W19910   1.322   4.897   4.388
48295W        W19911  35.972   6.602  13.894
48296W        W19912   9.132  40.369   4.481
48297W        W19913   2.209   3.191  14.974
48298W        W19914  20.255   9.650   3.232
48299W        W19915  20.318  13.347  12.052
48300W        W19916  32.118  35.894   2.777
48301W        W19917   1.469   1.223   0.782
48302W        W19918  14.213  19.564  14.923
48303W        W19919  26.712   4.881  14.959
48304W        W19920  35.059   6.282  11.928
48305W        W19921   3.326   4.495  14.423
48306W        W19922  28.896  12.280   3.238
48307W        W19923  30.476  31.637  10.373
48308W        W19924  20.711  13.726  11.790
48309W        W19925  25.303   7.227   3.149
48310W        W19926   7.773  35.257   3.658
48311W        W19927  10.671  12.116   3.510
48312W        W19928  31.482   0.882   0.149
48313W        W19929  34.001  35.294   2.771
48314W        W19930   4.497  24.970  12.069
48315W        W19931  27.160  35.894   1.593
48316W        W19932   8.433  19.814   2.766
48317W        W19933  44.929  12.712  10.846
48318W        W19934   5.939  26.615   4.903
48319W        W19935   7.882  14.888  10.662
48320W        W19936  12.551  15.751  13.449
48321W        W19937   5.281   9.241  12.359
48322W        W19938  42.737  29.660  14.117
48323W        W19939  25.258  35.455   1.225
48324W        W19940   4.715  41.268  14.386
48325W        W19941  27.112  14.840  12.527
48326W        W19942  16.193   9.415   0.880
48327W        W19943  29.186  18.534  14.903
48328W        W19944   4.237   5.482   4.187
48329W        W19945  17.321  29.205  11.847
48330W        W19946  44.727   6.133  13.521
48331W        W19947  15.645   5.332  13.736
48332W        W19948   6.253  21.222  12.665
48333W        W19949  32.934   9.394   2.572
48334W        W19950  10.871   6.598  14.392
48335W        W19951  25.625  36.306   0.749
48336W        W19952   3.353  39.405  14.851
48337W        W19953  15.366  18.082   1.832
48338W        W19954   3.244  17.786   2.316
48339W        W19955  32.502  32.428   1.347
48340W        W19956   5.625  38.990  11.005
48341W        W19957  31.067  20.781   2.334
48342W        W19958  10.429  29.085   2.714
48343W        W19959  28.850  29.170  14.499
48344W        W19960   8.393  20.466  10.959
48345W        W19961   1.870  12.311   4.557
48346W        W19962  36.021   4.934   2.338
48347W        W19963   6.636  33.049   3.860
48348W        W19964  33.338   3.581  12.899
48349W        W19965  17.108  44.578   2.355
48350W        W19966  22.011  27.003  12.382
48351W        W19967  29.447   2.083  11.612
48352W        W19968  35.720  31.016   1.229
48353W        W19969  25.574  21.520  11.113
48354W        W19970   4.537   3.064  11.655
48355W        W19971  34.656  25.339   3.098
48356W        W19972  31.337  27.158  13.932
48357W        W19973  13.187  22.194   4.575
48358W        W19974   0.735  42.010  13.776
48359W        W19975   3.111  38.879  12.649
48360W        W19976  31.294   1.270   4.677
48361W        W19977  15.322   9.852   0.720
48362W        W19978  44.835   4.163   3.760
48363W        W19979  36.038  42.502  12.892
48364W        W19980  16.355  38.885  10.643
48365W        W19981  42.417   7.685  14.943
48366W        W19982  16.212  42.534  11.695
48367W        W19983  16.045  18.274   3.765
48368W        W19984  28.407   7.346   2.366
48369W        W19985  28.846  17.573   1.882
48370W        W19986  14.308   4.243  10.613
48371W        W19987   6.777  17.744  13.794
48372W        W19988  40.213   2.008   1.217
48373W        W19989   4.248  18.678  12.922
48374W        W19990   5.751  25.303   3.749
48375W        W19991  26.765  24.790   0.510
48376W        W19992   9.645  39.307   3.236
48377W        W19993  20.517   6.248  11.505
48378W        W19994  32.633   6.671   4.266
48379W        W19995   9.354   4.961   4.549
48380W        W19996  44.556   3.435   1.673
48381W        W19997  19.747  23.194   3.583
48382W        W19998  10.059  37.112  11.035
48383W        W19999  29.835   2.375  14.410
48384W        W20000  25.627  11.195  13.383
48385W        W20001  10.665  38.717   1.607
48386W        W20002   7.682  33.970   2.511
48387W        W20003   4.417  22.264  11.285
48388W        W20004   1.345  41.039   1.808
48389W        W20005  17.269  24.151   1.411
48390W        W20006   5.400   4.185  10.654
48391W        W20007  16.272   2.194   0.312
48392W        W20008  29.917  20.278  11.516
48393W        W20009  29.213  10.163   3.256
48394W        W20010  24.040   7.890  11.169
48395W        W20011   9.094  27.100  13.849
48396W        W20012  13.903  41.703   2.431
48397W        W20013   8.435  29.489   1.868
48398W        W20014   3.508  42.548  14.926
48399W        W20015   8.592  16.821  11.924
48400W        W20016   2.784  30.970  11.073
48401W        W20017   0.750   9.297  13.435
48402W        W20018   5.892  30.686   4.582
48403W        W20019  43.891  32.829   4.850
48404W        W20020   6.695  39.811  12.061
48405W        W20021  44.479   0.573   0.991
48406W        W20022  12.309   1.952   2.736
48407W        W20023   6.923   9.793  11.518
48408W        W20024  38.399  15.164   1.304
48409W        W20025  25.982   2.916  11.140
48410W        W20026  42.971  40.964  14.467
48411W        W20027  37.663  19.552  13.814
48412W        W20028  13.846  27.554  14.390
48413W        W20029   1.069  15.301  11.247
48414W        W20030  13.546  36.963   0.261
48415W        W20031  25.651  43.029  14.038
48416W        W20032  31.095  40.250   3.018
48417W        W20033  18.665  32.287  11.548
48418W        W20034  13.085  13.228  14.804
48419W        W20035  21.719  13.104  12.867
48420W        W20036   3.273  13.752   2.305
48421W        W20037  31.503  43.895   0.821
48422W        W20038  29.768   0.973  10.642
48423W        W20039  41.651  44.934  12.140
48424W        W20040   1.294  15.731  13.400
48425W        W20041   7.096   6.499  12.217
48426W        W20042   0.968   3.545  10.258
48427W        W20043  16.563  42.787  12.500
48428W        W20044  35.772  44.240   1.426
48429W        W20045  41.442  29.173   0.411
48430W        W20046  22.778  36.900   4.607
48431W        W20047  24.547   2.926   3.765
48432W        W20048  31.069  16.536  11.595
48433W        W20049   0.164  39.420   2.809
48434W        W20050  13.748  32.064   3.057
48435W        W20051  33.957  12.800  10.886
48436W        W20052  26.642  31.440   1.240
48437W        W20053  31.352  15.720   1.718
48438W        W20054  29.972  27.638   2.709
48439W        W20055  16.184  25.080  13.229
48440W        W20056  44.412  26.210  11.765
48441W        W20057   8.311  36.141  12.114
48442W        W20058   1.016  39.697  13.226
48443W        W20059   8.907  35.632  12.896
48444W        W20060  23.132   1.372  11.933
48445W        W20061   4.963   5.794   0.050
48446W        W20062  12.151  38.319  11.983
48447W        W20063  22.307  27.245  11.554
48448W        W20064  32.219  42.729   2.161
48449W        W20065  25.945  25.130  10.293
48450W        W20066  23.754   9.855   1.352
48451W        W20067  23.224  18.334  13.015
48452W        W20068   6.348  42.810   3.291
48453W        W20069  17.493  21.736   3.719
48454W        W20070  23.104  27.110   2.785
48455W        W20071  37.783   4.221  13.869
48456W        W20072  44.846   3.864   1.693
48457W        W20073  19.546  28.766   3.757
48458W        W20074  10.870  34.868   3.296
48459W        W20075  15.921   0.031  10.527
48460W        W20076  41.488  33.075   2.851
48461W        W20077  21.815  41.691   4.534
48462W        W20078  26.599   8.244  13.520
48463W        W20079  19.609   6.342  13.757
48464W        W20080  28.508  23.274  11.412
48465W        W20081   7.220  39.048  12.617
48466W        W20082  35.095   4.460   4.793
48467W        W20083   6.632  16.062   4.078
48468W        W20084  15.070  19.129   9.506
48469W        W20085  10.057   0.924  12.124
48470W        W20086  10.247  12.914   3.712
48471W        W20087   6.954  36.054  10.680
48472W        W20088  28.951  41.536  14.331
48473W        W20089  36.989   3.607   2.630
48474W        W20090  20.673  15.796   4.242
48475W        W20091  38.365  31.357   2.690
48476W        W20092  42.893  41.133   4.541
48477W        W20093  43.591   6.175  10.683
48478W        W20094  42.590  12.957  11.094
48479W        W20095   7.398   2.006   1.015
48480W        W20096   2.287  22.081   9.808
48481W        W20097   0.420  44.374   2.919
48482W        W20098  31.055  30.541  10.549
48483W        W20099   6.364  17.163  13.248
48484W        W20100   0.767  33.388  13.775
48485W        W20101  39.486   5.645  14.028
48486W        W20102  41.889  20.247   0.477
48487W        W20103  23.351  38.048   4.612
48488W        W20104  36.520  42.365  12.608
48489W        W20105  31.054  19.339   1.168
48490W        W20106  10.826   2.957   4.192
48491W        W20107   0.489  38.400   2.332
48492W        W20108  17.849  18.718  12.914
48493W        W20109  38.352  15.699  10.363
48494W        W20110  21.438  23.105   4.565
48495W        W20111  28.377   2.092   3.306
48496W        W20112   7.901  35.684   1.202
48497W        W20113  13.095   3.400   4.557
48498W        W20114  24.547  14.863   1.731
48499W        W20115  23.548   3.749   0.331
48500W        W20116  18.048   8.383   2.867
48501W        W20117  26.516  44.416  14.785
48502W        W20118  17.799  10.134   3.136
48503W        W20119  10.219  21.071  10.086
48504W        W20120  33.960  20.633  10.873
48505W        W20121  35.999  17.303  13.014
48506W        W20122  12.440  42.045   3.313
48507W        W20123  18.111  10.522  13.397
48508W        W20124   6.977  10.892  13.915
48509W        W20125  33.712  12.169   3.947
48510W        W20126  27.764  38.433   3.801
48511W        W20127  43.596  43.348   3.650
48512W        W20128   4.689   1.321   3.290
48513W        W20129  37.585   5.353  14.217
48514W        W20130  11.257  36.472  10.711
48515W        W20131  16.520  26.014  11.931
48516W        W20132  21.811  16.732   2.714
48517W        W20133   7.726  12.193   0.853
48518W        W20134  41.109  37.966  13.738
48519W        W20135   7.336   9.169  14.427
48520W        W20136  24.789   2.016  14.838
48521W        W20137  16.323  44.910  13.873
48522W        W20138  30.890  32.000  13.825
48523W        W20139  26.527  32.450   4.844
48524W        W20140  43.576  44.953  12.482
48525W        W20141  33.113  40.870   3.663
48526W        W20142   2.248  41.079   1.761
48527W        W20143  14.154  36.476  12.011
48528W        W20144  28.523  43.283   1.194
48529W        W20145  37.260   9.836  12.605
48530W        W20146  34.329  39.824  14.096
48531W        W20147   3.423   5.712  13.557
48532W        W20148  28.540  14.026  13.027
48533W        W20149  41.538  24.214   1.717
48534W        W20150  37.714  33.230  11.344
48535W        W20151  18.979  21.082   3.201
48536W        W20152  25.465  20.147   1.696
48537W        W20153  40.231  37.476  11.556
48538W        W20154   6.642   4.589  12.086
48539W        W20155   9.405  16.263   2.968
48540W        W20156  41.250   8.777   2.761
48541W        W20157  40.294   3.892  12.092
48542W        W20158  35.529  31.611  11.547
48543W        W20159  36.097  20.648   4.113
48544W        W20160  20.594  21.364  10.431
48545W        W20161   5.382  11.269  10.660
48546W        W20162  35.114  38.127   1.344
48547W        W20163  34.455  23.080   3.222
48548W        W20164  29.863  16.447  13.603
48549W        W20165  18.296  29.567  10.780
48550W        W20166  36.056   2.014   3.632
48551W        W20167  13.497  39.513  11.390
48552W        W20168  36.866  42.416   3.107
48553W        W20169  14.308  24.266   0.790
48554W        W20170  20.575  18.769  12.861
48555W        W20171  27.878  34.993  12.950
48556W        W20172  20.180  39.590  13.597
48557W        W20173  37.466  39.839  13.408
48558W        W20174  44.520  44.803   0.544
48559W        W20175  34.362  14.625   1.262
48560W        W20176  37.897  37.823   3.785
48561W        W20177  32.021   6.182   5.000
48562W        W20178  32.107  33.849   4.685
48563W        W20179  31.591  39.645   2.327
48564W        W20180   3.412  44.191   5.069
48565W        W20181   5.548  32.443   4.501
48566W        W20182  44.897  10.908   0.517
48567W        W20183   0.001  28.745  12.023
48568W        W20184  30.072  20.708   3.389
48569W        W20185  34.991   0.225   0.463
48570W        W20186  14.775  35.019  13.510
48571W        W20187  13.314   5.227  13.009
48572W        W20188  37.450  14.790  13.065
48573W        W20189  44.468   8.197  14.168
48574W        W20190   9.354  21.130   1.507
48575W        W20191  42.318  35.575  13.068
48576W        W20192  35.753  20.730   2.863
48577W        W20193  10.643  15.588   4.512
48578W        W20194  18.969  30.401  14.827
48579W        W20195  25.541  13.076   2.814
48580W        W20196   5.377  21.710   2.933
48581W        W20197  19.292  24.661   4.064
48582W        W20198  13.057   1.711  10.970
48583W        W20199   6.177  19.010   4.530
48584W        W20200  13.786  19.550   0.333
48585W        W20201  38.330  19.704  14.494
48586W        W20202  25.695  16.538   2.888
48587W        W20203  37.950  37.323  11.927
48588W        W20204   0.413   8.292  12.085
48589W        W20205  34.380  18.853   1.384
48590W        W20206   6.967  38.623   2.338
48591W        W20207   4.420  22.272   5.499
48592W        W20208   9.721  27.093  13.359
48593W        W20209  20.949  30.851   2.640
48594W        W20210  44.997  12.695   1.749
48595W        W20211   7.711  23.828   3.613
48596W        W20212  20.288  15.116   1.353
48597W        W20213   1.404  23.563   1.242
48598W        W20214  37.976   5.273  12.461
48599W        W20215  24.029  25.118   2.454
48600W        W20216  31.775  43.326   4.282
48601W        W20217  44.516   9.831  11.424
48602W        W20218  23.987  39.796   4.212
48603W        W20219  17.295  31.198   3.687
48604W        W20220  24.947  33.433   3.312
48605W        W20221  41.178   6.646   2.177
48606W        W20222   7.416  23.761  13.533
48607W        W20223  35.010  26.037  13.509
48608W        W20224  13.532   9.659  13.307
48609W        W20225  29.355  40.460  13.511
48610W        W20226  32.423  26.598  13.955
48611W        W20227   1.461   6.654   0.030
48612W        W20228  42.440  42.525  14.446
48613W        W20229  17.988   6.206   0.390
48614W        W20230  28.713  43.960  12.589
48615W        W20231  30.494  27.970  13.499
48616W        W20232  33.635  25.296   1.675
48617W        W20233   8.422   6.875  11.070
48618W        W20234  36.034  25.668   4.552
48619W        W20235   0.134  27.528   1.954
48620W        W20236  44.012  27.192  12.573
48621W        W20237   6.706  38.000  14.392
48622W        W20238  44.522  27.121  11.376
48623W        W20239  22.804  16.741  13.642
48624W        W20240  20.327  26.017   1.415
48625W        W20241  38.331  26.036  13.103
48626W        W20242   7.933  43.435  14.013
48627W        W20243  17.604  35.606   0.972
48628W        W20244  33.010  43.976   3.570
48629W        W20245  32.323  20.192   1.757
48630W        W20246  22.104   9.838   2.373
48631W        W20247  43.947  43.394  13.505
48632W        W20248   1.383  39.605   4.154
48633W        W20249   0.758  13.180   5.066
48634W        W20250  37.100  24.818   3.214
48635W        W20251   7.865  33.787   3.349
48636W        W20252  44.941  10.240   3.073
48637W        W20253  18.179  18.468  14.870
48638W        W20254  40.013   9.882  14.864
48639W        W20255   5.465  44.549  13.948
48640W        W20256  44.244  40.115   2.154
48641W        W20257   7.817  43.932   4.273
48642W        W20258  43.308  23.498   3.598
48643W        W20259  40.451  14.107   0.832
48644W        W20260  25.893  18.334   1.399
48645W        W20261  17.521  34.490  10.578
48646W        W20262  30.676  17.087   4.658
48647W        W20263   1.646  15.320  13.377
48648W        W20264  20.017  38.830  13.497
48649W        W20265   9.295  40.474   4.982
48650W        W20266  18.721  38.650  13.037
48651W        W20267  35.874   5.677  14.668
48652W        W20268   5.249  35.881   2.458
48653W        W20269   3.885  27.990   0.336
48654W        W20270  11.153  38.953   2.237
48655W        W20271  25.178  43.182  14.985
48656W        W20272   7.475  43.018   2.909
48657W        W20273  39.651  26.993   0.146
48658W        W20274  19.051  20.161   3.623
48659W        W20275   7.856  28.472  12.861
48660W        W20276  42.034  18.545   4.630
48661W        W20277  15.756  34.565  10.066
48662W        W20278   8.807  17.748   2.764
48663W        W20279   0.928  34.610  10.750
48664W        W20280  36.881   3.263  10.800
48665W        W20281  35.399  40.529   2.765
48666W        W20282  30.651  10.527   1.527
48667W        W20283  29.481  31.041   1.708
48668W        W20284  14.124  37.959  11.490
48669W        W20285  23.147  15.213  11.453
48670W        W20286  30.828  15.290   2.462
48671W        W20287  23.757   7.789   1.847
48672W        W20288  16.698   2.607  10.826
48673W        W20289  32.384  13.136  12.431
48674W        W20290  21.622   5.755   0.240
48675W        W20291   3.191  34.180  12.984
48676W        W20292  26.074  21.695   1.496
48677W        W20293  22.552  25.724  12.884
48678W        W20294  25.652  10.389   2.216
48679W        W20295   1.779  18.073  12.591
48680W        W20296  36.435   8.665   1.031
48681W        W20297  27.384  27.510   1.431
48682W        W20298  41.414   4.026   3.993
48683W        W20299  41.996  26.936   3.918
48684W        W20300  21.629  35.501   2.014
48685W        W20301  17.516  16.990  13.056
48686W        W20302  36.168   9.951  14.024
48687W        W20303   8.428  38.781   0.055
48688W        W20304  39.806  18.123  14.920
48689W        W20305  31.861  21.237   0.279
48690W        W20306  11.881  42.847   4.194
48691W        W20307  34.870  24.053  10.104
48692W        W20308  37.743  12.801   1.429
48693W        W20309  15.320  32.356   2.304
48694W        W20310   2.803  32.701   1.298
48695W        W20311  11.890  22.482   0.800
48696W        W20312  27.738   5.568   0.716
48697W        W20313   9.081  12.758  12.604
48698W        W20314  31.466  36.413  12.019
48699W        W20315  17.724  25.075   2.794
48700W        W20316   3.793   2.826   4.321
48701W        W20317  22.088  20.721  14.852
48702W        W20318  37.924  30.483   4.569
48703W        W20319  29.061  15.199   0.934
48704W        W20320  15.257   5.279  11.960
48705W        W20321  19.113  24.254   0.448
48706W        W20322  21.092  25.536   0.488
48707W        W20323   1.938  25.072   2.655
48708W        W20324  29.740  28.657  11.266
48709W        W20325  43.665  43.913   1.346
48710W        W20326  17.689  33.999  14.398
48711W        W20327  20.894   6.328   1.877
48712W        W20328  29.067  17.678   2.395
48713W        W20329   1.683  37.099   1.095
48714W        W20330   4.756   5.636   3.198
48715W        W20331  19.826  39.620  14.373
48716W        W20332  31.520   4.071  14.811
48717W        W20333  16.317  35.372  11.588
48718W        W20334  31.387  25.011   0.490
48719W        W20335  28.914   6.544   2.730
48720W        W20336  27.202  32.210   2.815
48721W        W20337  24.692  28.605   3.418
48722W        W20338  32.147  28.922   4.633
48723W        W20339  19.796  26.571  13.733
48724W        W20340  28.464  35.538  12.587
48725W        W20341  42.466  39.417   0.656
48726W        W20342  16.856  20.622  13.909
48727W        W20343  30.341  33.085   1.085
48728W        W20344  20.202  20.463   1.913
48729W        W20345  37.412  19.141  10.937
48730W        W20346  31.306  15.493  13.025
48731W        W20347  26.013  26.678  13.970
48732W        W20348  28.562  13.735   0.456
48733W        W20349  36.781  16.778   3.803
48734W        W20350  31.987  15.317   0.390
48735W        W20351   8.266   2.322  10.980
48736W        W20352   9.990  26.978  11.119
48737W        W20353  26.228  25.177   5.008
48738W        W20354   0.761   5.498  11.953
48739W        W20355  41.588  35.113   1.174
48740W        W20356  16.688   6.780  10.680
48741W        W20357  17.923  32.111  14.856
48742W        W20358  26.322  36.897  12.961
48743W        W20359  18.075  34.339   0.924
48744W        W20360  30.898  30.922  10.850
48745W        W20361   8.927  12.102  14.761
48746W        W20362  18.512  20.736   1.468
48747W        W20363  29.652  30.491  13.635
48748W        W20364   4.985  40.349  12.568
48749W        W20365   9.138  39.251  13.727
48750W        W20366   8.720  10.872   0.787
48751W        W20367  16.122  29.729   2.387
48752W        W20368  33.912  17.562   3.372
48753W        W20369  27.592  26.746   0.382
48754W        W20370  25.335  26.182  11.583
48755W        W20371  15.919  44.420   4.567
48756W        W20372  14.018  16.141   3.674
48757W        W20373  44.200   2.471   3.914
48758W        W20374  37.380   5.390  11.388
48759W        W20375  34.234  28.414  12.977
48760W        W20376  22.141  37.391   0.547
48761W        W20377   3.419  42.733   1.288
48762W        W20378  31.405  38.142  14.760
48763W        W20379  41.885  33.880  13.286
48764W        W20380   6.722  26.767   2.879
48765W        W20381   3.806  26.261   3.290
48766W        W20382  38.938  42.045   1.220
48767W        W20383   0.339  42.215  11.766
48768W        W20384  20.553  10.820  14.859
48769W        W20385  40.402  21.782   2.151
48770W        W20386  29.471  21.077  13.899
48771W        W20387  15.104   5.448   1.115
48772W        W20388  14.696  40.407   4.700
48773W        W20389  30.371  41.149  12.630
48774W        W20390  27.165  17.744   0.800
48775W        W20391  37.596  20.851  11.766
48776W        W20392   7.535  13.823   2.757
48777W        W20393  26.131   7.268  14.276
48778W        W20394  15.989  32.391   1.033
48779W        W20395   6.346  14.135  13.704
48780W        W20396  33.103   4.471  14.557
48781W        W20397  18.070  39.644  13.982
48782W        W20398  21.518  17.808  11.333
48783W        W20399  16.448  19.656   3.135
48784W        W20400   1.670  22.655  12.420
48785W        W20401  43.206  23.637   0.278
48786W        W20402  16.265  40.726  14.072
48787W        W20403  10.805  26.290   3.708
48788W        W20404  43.631  17.986   2.043
48789W        W20405  13.677  28.517   1.941
48790W        W20406  39.056  15.032   4.376
48791W        W20407  40.593  42.885   4.167
48792W        W20408   4.622  36.106  14.396
48793W        W20409   8.519  13.199  11.190
48794W        W20410  26.643  32.787   4.451
48795W        W20411  43.888  35.447   2.889
48796W        W20412  28.379  23.215  14.023
48797W        W20413  17.548  18.241   4.997
48798W        W20414  27.444  25.196  14.833
48799W        W20415  11.762   9.863   1.216
48800W        W20416  32.462  35.625   0.878
48801W        W20417  32.661  39.809   2.644
48802W        W20418  16.093  38.317  13.972
48803W        W20419  29.543  19.775   5.152
48804W        W20420  35.940  19.859   3.666
48805W        W20421  13.104  17.335  13.360
48806W        W20422  10.320  13.655  12.990
48807W        W20423  38.017  34.742   1.482
48808W        W20424  24.039  17.029  10.496
48809W        W20425  36.714  15.966   1.411
48810W        W20426  32.630  35.446  12.196
48811W        W20427  34.593   0.812   1.259
48812W        W20428  10.167  29.698  14.447
48813W        W20429   9.369  38.034   0.549
48814W        W20430  24.441  43.781   4.670
48815W        W20431  35.516  35.921   1.000
48816W        W20432  19.582  29.523  14.772
48817W        W20433  42.887  38.915   5.025
48818W        W20434  26.550  13.251   2.594
48819W        W20435  31.107   3.523   2.391
48820W        W20436  25.705   1.679  14.088
48821W        W20437   0.699  14.271  11.863
48822W        W20438  40.411  44.077  12.492
48823W        W20439  18.693  31.399   2.639
48824W        W20440  40.719  43.780  14.873
48825W        W20441  23.418  26.555   3.217
48826W        W20442  20.137   9.837  13.186
48827W        W20443  21.631  15.356  12.422
48828W        W20444  22.513   0.910  14.792
48829W        W20445  12.459  22.376  14.355
48830W        W20446  40.091  38.548  12.324
48831W        W20447   2.304  40.235   1.431
48832W        W20448  41.729  32.491  11.106
48833W        W20449  38.906  38.871  13.862
48834W        W20450  11.288  18.883   1.742
48835W        W20451  44.600   8.854  12.912
48836W        W20452  21.658  43.227  12.326
48837W        W20453   0.977   8.847   4.558
48838W        W20454  14.750  29.102  14.352
48839W        W20455  30.174  15.994   2.768
48840W        W20456  41.774  43.069   2.783
48841W        W20457  12.666  13.875  10.666
48842W        W20458   5.305  18.793   4.738
48843W        W20459  42.929  43.946  11.045
48844W        W20460   8.854  10.084  12.168
48845W        W20461   3.301   2.772   4.148
48846W        W20462  26.026   5.010  12.940
48847W        W20463  15.344  18.352  11.452
48848W        W20464  38.519  13.597  14.931
48849W        W20465  12.684  33.495  11.067
48850W        W20466  14.890  32.092   0.589
48851W        W20467  26.696  37.708   3.573
48852W        W20468  13.725  30.990  14.795
48853W        W20469   2.862  33.483  11.774
48854W        W20470  42.903  43.946  12.086
48855W        W20471  34.680  14.606  13.360
48856W        W20472  29.035  28.180  13.545
48857W        W20473  18.726  34.930  13.282
48858W        W20474  35.382  43.058   0.776
48859W        W20475  39.579  32.985   4.663
48860W        W20476  39.383  23.033  11.572
48861W        W20477  26.431  23.236  11.536
48862W        W20478  37.895   9.940   0.842
48863W        W20479  26.450  32.657   1.861
48864W        W20480  22.272  10.195  14.942
48865W        W20481  40.794  16.061   2.687
48866W        W20482  37.378  15.541  10.709
48867W        W20483  32.013  24.686   0.817
48868W        W20484  17.045  30.550   2.627
48869W        W20485   1.734  22.790  13.332
48870W        W20486  36.063  15.566  14.415
48871W        W20487  44.712  33.553   0.044
48872W        W20488  18.602  27.170   1.022
48873W        W20489   8.554  14.143   1.771
48874W        W20490  10.939  38.895   4.123
48875W        W20491   9.382  37.082   4.497
48876W        W20492  12.290  36.872   0.761
48877W        W20493   0.503  32.301  12.508
48878W        W20494   7.759  35.190   1.071
48879W        W20495  44.246  16.403  10.786
48880W        W20496  27.092   9.072   4.553
48881W        W20497  44.931   7.602   0.885
48882W        W20498  29.108   5.199  14.859
48883W        W20499   9.548  20.683  12.368
48884W        W20500  20.661   4.996  12.439
48885W        W20501  28.089  34.901   1.828
48886W        W20502  40.318  24.298  12.818
48887W        W20503  39.518  38.996  14.334
48888W        W20504  20.185  24.148   2.126
48889W        W20505  15.997  39.898  12.295
48890W        W20506  22.374  33.157  10.534
48891W        W20507  31.935  36.684  10.809
48892W        W20508   2.808   9.658   3.789
48893W        W20509  32.549   3.832  14.578
48894W        W20510  12.219  40.298  14.467
48895W        W20511  40.064  21.689   4.305
48896W        W20512  38.696  37.469  10.276
48897W        W20513  39.022   4.916  10.787
48898W        W20514   3.981  23.660   0.553
48899W        W20515  42.345  10.157  13.934
48900W        W20516  29.161  19.181   3.818
48901W        W20517  31.126  15.881  13.341
48902W        W20518  31.897  10.884   1.365
48903W        W20519  25.364   3.817   4.817
48904W        W20520  31.974  29.725   3.951
48905W        W20521  13.852  41.799  12.017
48906W        W20522  39.578  14.697  10.533
48907W        W20523  38.610   4.279  13.340
48908W        W20524  41.510  19.248   3.823
48909W        W20525  29.602  38.053  11.124
48910W        W20526  44.473  17.847   2.451
48911W        W20527  38.002  43.033  11.831
48912W        W20528   3.938  12.120  14.336
48913W        W20529  23.649  30.892  12.110
48914W        W20530   9.335  32.188   0.953
48915W        W20531  31.636   1.214  12.470
48916W        W20532  32.189   6.955   1.947
48917W        W20533  31.103  38.894   2.810
48918W        W20534  14.295  21.881  11.534
48919W        W20535  19.789  34.972  12.259
48920W        W20536  33.881  10.665   0.539
48921W        W20537  25.035   0.166   1.598
48922W        W20538   1.795  37.033  14.074
48923W        W20539  43.015   5.726  14.490
48924W        W20540  43.811  24.716  14.878
48925W        W20541   4.993   5.405   0.968
48926W        W20542  28.892  29.682   4.196
48927W        W20543   9.090  31.390  10.691
48928W        W20544   4.398  37.550  10.578
48929W        W20545  23.179  18.323  14.393
48930W        W20546  12.711  41.918  14.373
48931W        W20547  34.041  26.599   3.643
48932W        W20548  42.803  12.103   1.445
48933W        W20549  21.596  24.065  13.463
48934W        W20550  14.810  24.537   2.613
48935W        W20551  43.325  43.016   2.831
48936W        W20552  17.676  30.705   1.246
48937W        W20553  18.534  21.689  14.750
48938W        W20554  15.079   5.007  11.559
48939W        W20555   0.267   1.909  12.502
48940W        W20556  37.920  44.028  11.192
48941W        W20557  17.792  10.975   0.173
48942W        W20558  22.546   5.932  13.015
48943W        W20559  30.421  19.168  11.879
48944W        W20560  23.907  15.937  11.626
48945W        W20561   3.084  27.645   4.665
48946W        W20562   2.597  19.302  13.788
48947W        W20563   1.702  44.670  14.399
48948W        W20564  31.561  35.517   1.796
48949W        W20565  32.134  16.556  12.413
48950W        W20566  44.197  36.839  13.214
48951W        W20567  34.206  17.698  14.004
48952W        W20568  41.027   7.857   0.045
48953W        W20569  39.471  29.464   1.170
48954W        W20570  38.731  13.448   1.192
48955W        W20571   7.936  34.563  13.889
48956W        W20572  40.873  39.568   1.248
48957W        W20573  44.528  10.663   9.906
48958W        W20574  41.257  14.372  10.660
48959W        W20575  11.328   7.729   0.244
48960W        W20576  44.730  28.392  13.355
48961W        W20577  18.270  17.165   1.933
48962W        W20578   6.425  23.773  14.384
48963W        W20579  21.403   9.079   2.752
48964W        W20580  18.050  39.056   0.461
48965W        W20581  11.514   7.183   3.077
48966W        W20582   9.849  21.112   2.678
48967W        W20583   4.124  27.230   0.080
48968W        W20584  12.073   1.336  12.424
48969W        W20585   6.163  22.231  12.499
48970W        W20586  17.337  18.094  14.415
48971W        W20587   9.633  14.093  10.877
48972W        W20588  41.038  38.937  12.474
48973W        W20589  12.334   0.540  12.658
48974W        W20590  43.010   0.898   1.906
48975W        W20591  44.898  30.522   1.413
48976W        W20592  31.689  22.308  11.475
48977W        W20593   2.493  28.537   2.425
48978W        W20594  24.142   2.882   2.153
48979W        W20595  14.068  27.036   1.664
48980W        W20596  27.551   8.443  12.802
48981W        W20597  28.319  24.780   0.198
48982W        W20598   9.433  25.607   2.125
48983W        W20599   8.810  34.238   0.472
48984W        W20600  20.321  26.566   2.650
48985W        W20601  24.761  42.946   3.108
48986W        W20602   6.201   0.724  11.469
48987W        W20603  20.679   0.737   0.886
48988W        W20604   2.016  24.013   2.781
48989W        W20605  29.411   1.286  12.514
48990W        W20606  20.248   0.523  14.463
48991W        W20607  41.558  40.778   4.475
48992W        W20608  38.597  14.832   0.381
48993W        W20609   1.215  36.115   4.721
48994W        W20610  35.877  24.585  13.845
48995W        W20611  35.446  12.721   3.352
48996W        W20612   3.468  38.429   2.920
48997W        W20613  34.456  29.197  14.474
48998W        W20614  26.052   7.327   1.455
48999W        W20615   2.688  44.276   0.930
49000W        W20616  35.322   3.323  10.700
49001W        W20617  31.113  21.147  10.553
49002W        W20618  31.230  43.788  12.445
49003W        W20619  21.547   7.598  12.500
49004W        W20620   7.338  10.376   5.023
49005W        W20621  29.735  12.634  11.204
49006W        W20622   2.505  28.445  11.895
49007W        W20623   2.000  42.930  14.494
49008W        W20624  28.684  39.371  11.155
49009W        W20625  41.151  41.422   1.244
49010W        W20626   1.867   3.952  14.925
49011W        W20627  41.339  40.379  10.683
49012W        W20628  27.995   6.236   1.337
49013W        W20629   3.264  41.036  10.898
49014W        W20630   7.096  13.602  12.287
49015W        W20631  39.740  25.121  13.371
49016W        W20632  23.008  30.168   1.102
49017W        W20633  25.736  36.119  14.753
49018W        W20634   5.858  29.849  13.055
49019W        W20635  12.626  10.169   1.778
49020W        W20636  32.596  28.610   0.335
49021W        W20637  37.896   0.725  12.121
49022W        W20638  34.081  42.792   1.842
49023W        W20639  33.026  13.799  10.668
49024W        W20640  22.225   7.503  13.067
49025W        W20641  40.320   5.777  13.337
49026W        W20642   7.304  15.766  13.858
49027W        W20643  26.266  27.883  14.382
49028W        W20644  42.593  13.831   5.104
49029W        W20645  12.719  39.011   1.308
49030W        W20646  12.146   5.422   0.476
49031W        W20647  19.771  18.267   2.296
49032W        W20648  41.310  19.407   0.879
49033W        W20649  29.934  36.660  11.153
49034W        W20650  25.178   2.847   4.708
49035W        W20651  32.953  17.000   1.014
49036W        W20652  22.147   0.168   2.541
49037W        W20653  32.073   0.186  10.617
49038W        W20654   5.024  25.920  13.541
49039W        W20655   8.700  37.469   0.007
49040W        W20656  28.019  32.106   4.662
49041W        W20657  28.067  38.062  11.216
49042W        W20658  14.020   0.010   1.230
49043W        W20659   6.623   9.075  14.935
49044W        W20660  25.164   7.138  11.586
49045W        W20661   6.482   4.332   4.691
49046W        W20662  12.282  27.370   1.077
49047W        W20663  38.006  37.660   4.863
49048W        W20664  26.487  43.575  12.470
49049W        W20665   1.770  25.183  13.789
49050W        W20666  37.644  35.077  12.517
49051W        W20667   3.528  30.016   2.983
49052W        W20668  17.203   2.167   5.241
49053W        W20669  25.999  36.562   3.634
49054W        W20670  17.035  37.406  14.405
49055W        W20671  30.529  26.890   4.181
49056W        W20672   8.589  29.540   5.139
49057W        W20673  29.910  44.469  12.367
49058W        W20674  39.859  30.357   0.826
49059W        W20675  29.029  38.327   2.688
49060W        W20676  34.890  43.881   1.670
49061W        W20677   6.278  28.931   3.223
49062W        W20678  21.519  29.665   2.630
49063W        W20679   4.004  20.689  10.568
49064W        W20680  26.418   9.764  11.935
49065W        W20681   2.716  38.732  12.340
49066W        W20682  23.212  43.391   3.834
49067W        W20683  24.555  43.752  10.643
49068W        W20684  44.942  21.323  10.980
49069W        W20685   8.629  13.742  11.678
49070W        W20686  16.366  31.083   2.470
49071W        W20687  29.251  20.928  11.989
49072W        W20688  22.176  41.479   0.278
49073W        W20689  28.003  36.367  14.539
49074W        W20690  37.890  17.824   1.959
49075W        W20691  43.495  36.449  13.565
49076W        W20692  14.648   3.124   9.787
49077W        W20693  28.287  29.951   1.891
49078W        W20694  43.673  27.731  10.101
49079W        W20695  10.157   3.437  11.509
49080W        W20696   0.292   0.433  13.891
49081W        W20697  42.005  27.450  13.361
49082W        W20698  40.176  33.269   2.670
49083W        W20699  19.010  18.227   0.270
49084W        W20700   8.711  17.103  12.674
49085W        W20701  34.817   2.001  12.477
49086W        W20702  30.344  23.773   1.208
49087W        W20703  32.378  25.245   3.589
49088W        W20704  22.707  15.247  13.454
49089W        W20705  13.034   7.048   1.277
49090W        W20706  10.105  35.015  11.671
49091W        W20707  40.640  21.966  10.827
49092W        W20708  16.124   7.645  13.283
49093W        W20709  44.871  23.641   4.885
49094W        W20710  33.210  40.401  12.592
49095W        W20711  35.351  25.171  13.337
49096W        W20712  12.867  33.183   1.727
49097W        W20713  24.240  11.355   2.707
49098W        W20714  24.172  14.077  12.361
49099W        W20715  29.651  14.551   0.732
49100W        W20716   6.226   2.580  10.989
49101W        W20717  11.028  10.545   3.575
49102W        W20718  43.295  38.559   2.871
49103W        W20719  16.863  25.397   1.404
49104W        W20720  31.633  33.585  14.757
49105W        W20721  24.948  19.264   2.333
49106W        W20722   9.652  26.499   3.320
49107W        W20723  35.331  11.261  13.895
49108W        W20724  28.017  24.900  13.436
49109W        W20725   7.778  40.914   0.038
49110W        W20726  21.154   5.657   0.507
49111W        W20727  13.086  23.494  14.763
49112W        W20728  15.122  38.031   0.582
49113W        W20729  35.825  33.398   2.067
49114W        W20730  32.509  38.736  13.978
49115W        W20731   4.634  19.082   1.735
49116W        W20732  26.067  16.595  11.867
49117W        W20733  22.825  30.920   0.530
49118W        W20734  16.241  34.893  12.409
49119W        W20735  41.042  16.603   3.553
49120W        W20736   4.296  37.382   4.626
49121W        W20737   5.823  38.949   3.386
49122W        W20738  32.417  11.167  10.802
49123W        W20739  17.946  16.536   2.244
49124W        W20740   4.214  13.830  12.485
49125W        W20741   0.375  23.019   3.748
49126W        W20742  19.950   9.243  14.765
49127W        W20743  35.616   5.066   3.965
49128W        W20744   5.320  41.178   0.002
49129W        W20745  28.520  24.518   3.644
49130W        W20746  37.602   1.476   4.191
49131W        W20747   2.920  41.447   0.162
49132W        W20748  26.426  15.697   3.712
49133W        W20749  41.234  41.344   2.185
49134W        W20750  21.063  12.932  12.424
49135W        W20751  36.427   6.469   0.346
49136W        W20752  41.722  24.708  13.819
49137W        W20753   8.503  12.226   1.394
49138W        W20754  28.200  33.731  14.821
49139W        W20755  44.929  10.645   1.420
49140W        W20756   1.463   9.415  13.876
49141W        W20757  10.569   0.525   3.310
49142W        W20758  44.841  42.554   0.963
49143W        W20759  26.691  10.167  12.954
49144W        W20760  10.859  15.988   4.244
49145W        W20761  42.871  40.531   2.823
49146W        W20762  15.170  37.620  13.975
49147W        W20763  21.033  20.015  14.792
49148W        W20764   9.217  25.481   2.576
49149W        W20765  36.790  22.578  14.171
49150W        W20766   9.774  23.767   3.817
49151W        W20767  38.865  24.316   1.354
49152W        W20768  10.813   7.883   1.353
49153W        W20769   0.970  39.028  12.019
49154W        W20770  37.346   5.337  12.921
49155W        W20771  36.535  42.749   2.435
49156W        W20772  16.631  28.020  14.443
49157W        W20773  38.852  24.076   4.010
49158W        W20774  26.331   1.602  14.791
49159W        W20775  26.745  35.287  13.944
49160W        W20776  11.185  23.029   0.359
49161W        W20777  41.771  43.397  12.800
49162W        W20778  24.288  31.029  10.917
49163W        W20779  23.517  19.435   3.806
49164W        W20780  39.296  29.025  14.443
49165W        W20781   0.595  43.479   2.615
49166W        W20782  17.522  39.585   4.325
49167W        W20783  27.976   4.244   4.190
49168W        W20784   5.240  20.527   4.511
49169W        W20785  12.838  43.369  13.863
49170W        W20786  10.253  38.304  11.902
49171W        W20787  20.003   1.741  11.172
49172W        W20788  12.626  26.130   0.844
49173W        W20789   6.409  25.179  12.874
49174W        W20790   3.861  38.269   0.965
49175W        W20791   3.054  34.142   1.770
49176W        W20792  25.519  15.656   1.627
49177W        W20793  34.168  29.876   3.619
49178W        W20794  43.925  37.631   0.243
49179W        W20795  39.204  41.160  12.855
49180W        W20796  27.471   4.087   4.344
49181W        W20797  19.313  14.239  12.950
49182W        W20798  42.022  41.952   2.128
49183W        W20799  26.400  12.791   1.447
49184W        W20800  18.643   2.238   1.335
49185W        W20801  43.355  35.149   1.389
49186W        W20802  16.348  21.654  13.104
49187W        W20803  38.832  44.124  14.009
49188W        W20804   8.153  42.873   2.290
49189W        W20805  31.645  38.815  14.299
49190W        W20806  21.207  32.501   4.739
49191W        W20807  38.361   7.779  11.180
49192W        W20808  38.510  11.403   0.225
49193W        W20809   9.653  33.407  14.407
49194W        W20810  17.274  41.714   0.542
49195W        W20811   2.228  29.019  13.416
49196W        W20812  38.335  33.352   2.683
49197W        W20813  39.845  17.305   2.462
49198W        W20814  23.085  10.193   0.716
49199W        W20815  15.853  21.207  14.484
49200W        W20816  17.538  43.281   3.615
49201W        W20817  28.092  17.640  10.365
49202W        W20818  40.948  33.998   0.350
49203W        W20819   5.322  30.637   2.703
49204W        W20820   1.305  16.589  14.527
49205W        W20821   0.234   5.360   1.261
49206W        W20822   5.862  16.659  13.910
49207W        W20823  24.718   0.557   3.023
49208W        W20824   1.838  43.066  10.103
49209W        W20825  39.786  26.438  14.182
49210W        W20826  37.929   5.717   1.232
49211W        W20827  21.522  36.629  13.989
49212W        W20828  24.642  30.051   2.612
49213W        W20829  22.442   4.417   1.825
49214W        W20830  41.518   0.719  10.731
49215W        W20831  31.981   6.223  14.860
49216W        W20832  14.104  38.099  11.002
49217W        W20833  12.220  39.951   1.224
49218W        W20834   3.907  11.809   1.151
49219W        W20835   5.242  29.124  11.031
49220W        W20836   7.780   8.909   4.159
49221W        W20837  30.904  35.466   3.320
49222W        W20838  28.496  30.180   2.357
49223W        W20839  33.062  29.390   9.990
49224W        W20840  15.250  31.349   2.134
49225W        W20841  31.404  12.661   3.619
49226W        W20842  17.489   3.239   2.250
49227W        W20843  10.799  40.155   1.873
49228W        W20844  16.076   0.248  14.897
49229W        W20845  38.504   2.912  14.287
49230W        W20846   0.283  39.916   4.637
49231W        W20847  12.767  26.569   2.207
49232W        W20848  26.586  15.267  12.948
49233W        W20849  12.624  10.182   2.829
49234W        W20850  24.094  17.316   0.199
49235W        W20851  41.975  15.216   3.269
49236W        W20852  27.591  29.081  13.304
49237W        W20853  22.384  36.018   0.305
49238W        W20854  40.766  30.645   3.736
49239W        W20855  19.286  34.932  12.346
49240W        W20856   7.714  19.475  11.979
49241W        W20857   0.489  24.885  10.725
49242W        W20858  20.713  30.636  10.642
49243W        W20859  44.545  42.780   0.023
49244W        W20860  44.476  14.441   0.401
49245W        W20861   4.187   6.789  13.310
49246W        W20862   0.576  21.742  12.900
49247W        W20863  11.874   8.798   4.662
49248W        W20864  16.950  14.735  11.473
49249W        W20865   7.675  42.983   1.479
49250W        W20866  10.314   1.948  13.800
49251W        W20867  28.174  10.467   4.909
49252W        W20868  15.631   1.942   2.227
49253W        W20869  24.756  33.198  13.946
49254W        W20870  19.615  36.548   4.302
49255W        W20871  39.722  12.594   4.582
49256W        W20872  20.775  22.065   3.255
49257W        W20873  27.870  42.835  12.565
49258W        W20874  42.508   0.394  13.553
49259W        W20875  12.658  17.291  14.782
49260W        W20876  35.513   8.717   2.297
49261W        W20877  26.865   1.192  13.133
49262W        W20878  25.121   5.778  13.448
49263W        W20879  10.094  37.559   3.256
49264W        W20880  29.184  14.119  14.062
49265W        W20881   9.613  31.558   0.191
49266W        W20882   5.331  42.262  13.846
49267W        W20883  37.075  18.623  13.381
49268W        W20884  25.071  36.446  13.113
49269W        W20885  40.409  38.326  13.323
49270W        W20886  41.389   7.119  13.413
49271W        W20887  25.247  28.357   4.172
49272W        W20888  35.132  25.161   3.223
49273W        W20889   7.494  40.122  14.514
49274W        W20890  17.503  40.461   4.327
49275W        W20891   2.000  15.338   0.322
49276W        W20892  24.406  43.488   0.216
49277W        W20893  11.399  29.205   1.660
49278W        W20894  27.890  33.547   0.221
49279W        W20895  34.073  19.075   2.815
49280W        W20896   1.788  25.916  12.399
49281W        W20897  15.337  24.941  11.568
49282W        W20898  36.771  29.633   1.305
49283W        W20899   4.921   6.963  11.067
49284W        W20900  15.155  27.459  14.085
49285W        W20901  10.745   7.636  11.982
49286W        W20902  33.269  28.106  10.365
49287W        W20903  25.056  17.641  13.885
49288W        W20904   1.359  36.089   2.174
49289W        W20905  44.450  15.531  13.386
49290W        W20906  18.193  13.325  14.409
49291W        W20907   8.465  23.290  13.105
49292W        W20908   0.028  19.815   4.890
49293W        W20909  16.618   6.697  11.200
49294W        W20910   7.468  42.793  11.171
49295W        W20911   2.682  13.929  10.923
49296W        W20912  27.778  32.457  10.724
49297W        W20913  40.035   9.363   1.891
49298W        W20914  33.524   8.715  13.187
49299W        W20915   5.973  29.013   0.350
49300W        W20916  14.287   1.532   3.159
49301W        W20917  41.016  36.885  12.226
49302W        W20918  30.644  26.551   4.601
49303W        W20919   7.779  13.369  10.640
49304W        W20920   5.924  12.668   2.392
49305W        W20921  30.262  20.303   2.652
49306W        W20922  26.605  13.490  10.307
49307W        W20923  32.918  15.063  12.562
49308W        W20924  18.652  39.716  12.847
49309W        W20925  15.601  38.475   3.249
49310W        W20926  14.231   8.421   5.081
49311W        W20927  15.082   1.307   3.682
49312W        W20928   5.162  29.250  12.497
49313W        W20929  43.452   5.248  11.570
49314W        W20930   7.198   5.434  11.945
49315W        W20931  27.504  34.748   3.752
49316W        W20932   6.461  15.125   0.879
49317W        W20933   6.275   3.525   2.952
49318W        W20934   7.957  34.008   0.010
49319W        W20935  10.169  28.701   2.924
49320W        W20936  25.444  16.312   4.175
49321W        W20937   9.289  22.065  10.722
49322W        W20938   3.837  40.140  13.346
49323W        W20939  37.940   7.869  12.785
49324W        W20940  15.120  38.302   3.223
49325W        W20941  31.461  24.766   1.588
49326W        W20942  40.193  10.816   5.622
49327W        W20943  39.453   7.223  13.609
49328W        W20944  22.760  40.269  12.951
49329W        W20945  25.562  15.534   0.757
49330W        W20946  38.905   8.050  14.481
49331W        W20947  15.175  10.669  14.326
49332W        W20948  11.687   8.474  12.888
49333W        W20949  43.785  19.324   4.781
49334W        W20950  13.822  12.601   3.741
49335W        W20951   6.552  15.266   4.112
49336W        W20952  31.453   5.105   1.877
49337W        W20953  33.350  39.424  10.109
49338W        W20954  38.052  15.966   1.369
49339W        W20955  24.701   8.016   4.244
49340W        W20956   6.207  34.071   2.406
49341W        W20957   9.200  13.448   3.606
49342W        W20958  30.665  20.492  14.794
49343W        W20959  13.143   0.067   1.376
49344W        W20960  17.747   4.315   1.306
49345W        W20961  42.622  10.429   1.992
49346W        W20962   5.408  36.544   4.261
49347W        W20963  18.316  10.236  10.908
49348W        W20964  32.573  20.026   2.653
49349W        W20965  17.260  41.691   1.192
49350W        W20966  23.862  36.327  11.590
49351W        W20967   2.829  12.561  11.885
49352W        W20968  14.431  13.634   3.653
49353W        W20969  17.091   4.203  12.925
49354W        W20970  37.253   4.907  12.131
49355W        W20971   1.871  24.756   0.104
49356W        W20972  32.656  17.553  14.499
49357W        W20973   4.840  16.667  10.404
49358W        W20974  21.966  25.485   1.797
49359W        W20975  34.878  13.357  14.000
49360W        W20976  44.973  19.516   0.920
49361W        W20977  19.335  35.900   3.886
49362W        W20978  16.017  25.711   2.907
49363W        W20979  16.475  26.984   2.857
49364W        W20980  27.738  16.464   9.714
49365W        W20981  41.075   7.148   0.474
49366W        W20982  19.281  23.480  10.930
49367W        W20983   1.725   8.205   2.834
49368W        W20984   3.268   9.152   4.119
49369W        W20985  27.171  39.727  10.965
49370W        W20986  30.629  32.384   2.782
49371W        W20987  43.922  31.077   2.848
49372W        W20988  27.900   6.413   5.105
49373W        W20989  40.317  25.484   4.710
49374W        W20990   3.287   1.021  10.239
49375W        W20991  37.612  11.135  10.192
49376W        W20992  19.094   2.097   1.707
49377W        W20993  11.721  36.619   0.434
49378W        W20994  18.633  26.205   0.855
49379W        W20995  24.100   6.449   2.694
49380W        W20996  12.462   9.286   3.147
49381W        W20997   3.443   3.812  11.033
49382W        W20998   4.681   7.453   0.305
49383W        W20999   2.508  44.307   0.373
49384W        W21000  12.341  17.713   1.199
49385W        W21001   7.871  38.495   1.266
49386W        W21002   1.907   9.196   1.565
49387W        W21003  36.068  32.818  13.165
49388W        W21004  21.072  30.531  12.893
49389W        W21005  33.995  43.750   2.640
49390W        W21006   1.761  19.318  11.169
49391W        W21007   8.403  15.765   3.908
49392W        W21008  24.227  34.644  11.280
49393W        W21009   3.872   7.552  13.555
49394W        W21010  13.675  35.861   1.291
49395W        W21011   4.176  33.864   0.040
49396W        W21012  41.762  28.220  11.544
49397W        W21013  44.389  37.309  12.932
49398W        W21014  14.400  31.167   0.096
49399W        W21015   5.899  28.704   3.613
49400W        W21016  40.983  37.568  14.900
49401W        W21017  39.468  39.380   4.632
49402W        W21018   4.860  27.588   1.984
49403W        W21019  15.978   8.712  10.741
49404W        W21020  16.219  15.747   1.900
49405W        W21021  40.286   3.949   2.457
49406W        W21022  14.858   7.049  13.305
49407W        W21023  30.059  16.920  13.454
49408W        W21024  15.531  31.097  12.501
49409W        W21025  32.527  20.884  12.303
49410W        W21026  18.788  31.787  11.631
49411W        W21027  25.962  24.381  13.432
49412W        W21028  19.878  18.184   4.932
49413W        W21029  32.578  13.553  14.290
49414W        W21030  25.557  42.964   1.384
49415W        W21031  19.490  41.010   3.070
49416W        W21032  32.048   7.042   3.836
49417W        W21033  39.584  20.652   2.775
49418W        W21034  10.851  16.786   2.411
49419W        W21035  25.902   2.455   0.364
49420W        W21036  44.397  18.019   3.836
49421W        W21037  43.790  15.295  13.689
49422W        W21038  14.525  38.873  13.415
49423W        W21039   5.915  40.743  13.358
49424W        W21040  39.369  19.116  11.518
49425W        W21041  30.158  18.331  14.350
49426W        W21042  30.996  12.604  13.103
49427W        W21043  22.589  37.034   3.260
49428W        W21044   7.126  33.416   2.435
49429W        W21045  42.793  41.062   3.684
49430W        W21046  41.546  29.539  14.927
49431W        W21047  42.504  12.703  14.178
49432W        W21048  21.955  43.270   1.817
49433W        W21049  34.694  11.684  14.507
49434W        W21050  26.168  16.680   3.376
49435W        W21051   6.331  14.636  13.846
49436W        W21052   3.698   4.194  14.207
49437W        W21053  39.833   7.265  14.896
49438W        W21054  12.664  12.878  14.035
49439W        W21055  18.325   4.672   2.830
49440W        W21056  10.260  20.797  13.038
49441W        W21057  33.446  39.817  10.746
49442W        W21058  15.718  20.862   2.336
49443W        W21059  10.782   9.758  12.746
49444W        W21060  28.456   2.694  11.651
49445W        W21061  15.316  17.265  14.735
49446W        W21062   0.085   7.610  14.425
49447W        W21063  42.089  12.720   1.772
49448W        W21064  27.504  31.375  10.680
49449W        W21065  34.624  31.538  10.298
49450W        W21066  11.832  34.410  13.334
49451W        W21067   2.309  11.230   1.205
49452W        W21068   1.904  43.273   0.805
49453W        W21069  24.468  17.515  13.145
49454W        W21070  10.161  35.640   0.451
49455W        W21071  15.905  40.549   2.967
49456W        W21072  15.641   9.621  11.981
49457W        W21073  37.093  44.861  13.057
49458W        W21074  29.912  36.015   2.890
49459W        W21075  42.706   7.795  11.136
49460W        W21076   7.295  22.221   3.314
49461W        W21077  20.308   6.297  14.391
49462W        W21078  18.280  27.418  12.910
49463W        W21079  14.932   1.356   1.346
49464W        W21080  27.904  33.644  11.987
49465W        W21081  34.113   2.877   3.210
49466W        W21082   3.279   3.283   4.245
49467W        W21083  14.505   8.938   3.621
49468W        W21084  10.780   8.400   0.555
49469W        W21085   2.732  16.828   0.351
49470W        W21086   4.612  27.132  13.941
49471W        W21087   0.938  40.623  13.788
49472W        W21088  34.119  28.933  11.707
49473W        W21089  23.014  39.490   3.652
49474W        W21090  10.620  18.343   4.062
49475W        W21091  42.946  36.046   3.627
49476W        W21092  28.142  32.982   2.674
49477W        W21093  21.930   3.896  13.786
49478W        W21094   6.937  36.447   2.350
49479W        W21095  24.149   8.184  13.051
49480W        W21096  24.211   6.765   0.292
49481W        W21097   6.394  42.290   2.470
49482W        W21098   7.225   2.526  12.656
49483W        W21099  23.020  31.164  13.780
49484W        W21100  13.958   8.112  12.598
49485W        W21101   1.123  26.369  12.012
49486W        W21102  34.540   2.483  12.162
49487W        W21103  18.132  41.028  12.265
49488W        W21104  39.839  34.643   1.650
49489W        W21105  24.992   0.662   1.705
49490W        W21106  40.973  14.150   0.751
49491W        W21107  18.270  10.831  13.002
49492W        W21108  26.467  18.088   4.472
49493W        W21109   5.659  38.926  11.968
49494W        W21110  22.776  23.403   3.293
49495W        W21111  15.682  43.802   0.970
49496W        W21112  26.408  13.813   3.651
49497W        W21113  42.744  24.212  12.123
49498W        W21114  41.803  16.715   4.540
49499W        W21115  37.226   1.515  10.111
49500W        W21116  12.307  24.619  10.659
49501W        W21117  24.924  15.092  11.288
49502W        W21118  18.746  17.648  10.105
49503W        W21119  32.557  43.032  11.542
49504W        W21120  41.920  36.964   1.703
49505W        W21121  31.234   6.171   2.690
49506W        W21122  20.570  42.759   0.832
49507W        W21123  24.604  34.556  11.636
49508W        W21124   1.268  16.201  11.456
49509W        W21125  38.887  39.804   1.810
49510W        W21126  31.523  32.574  14.914
49511W        W21127  31.029  38.367   2.166
49512W        W21128   9.813   9.965   0.449
49513W        W21129  20.804  24.019  13.036
49514W        W21130  34.195  24.663  10.609
49515W        W21131   1.472  25.541  12.545
49516W        W21132  10.332  20.178   4.102
49517W        W21133  42.617  26.498  10.924
49518W        W21134  18.987  15.722  11.106
49519W        W21135  26.750   5.180   4.594
49520W        W21136  43.422  38.188   4.874
49521W        W21137  12.186   4.404   0.706
49522W        W21138  20.681   2.964   4.599
49523W        W21139  42.889  18.225   0.576
49524W        W21140  29.592  40.993   2.345
49525W        W21141   6.414  17.815  14.509
49526W        W21142  14.756  18.642  14.888
49527W        W21143   1.826  18.120  10.488
49528W        W21144  19.949  22.141   0.969
49529W        W21145  18.717  30.863   4.087
49530W        W21146  39.950  17.123   0.576
49531W        W21147  44.349  25.936  13.306
49532W        W21148  25.517  44.110   0.794
49533W        W21149  18.784   4.290  10.578
49534W        W21150  14.239  29.095  10.982
49535W        W21151   5.137   0.357   5.481
49536W        W21152  12.677  35.080   0.906
49537W        W21153  40.340  14.264   0.314
49538W        W21154  15.523  41.854  11.520
49539W        W21155  38.971  14.156  14.130
49540W        W21156  23.038  11.733   0.330
49541W        W21157  39.319  24.709   0.490
49542W        W21158   5.691  16.562   3.154
49543W        W21159  23.890  32.569   4.212
49544W        W21160  22.737  12.645  14.551
49545W        W21161   3.352   5.246  12.428
49546W        W21162  24.151  23.599   3.851
49547W        W21163  42.931  24.323  12.571
49548W        W21164  19.983   6.255   0.131
49549W        W21165  14.430   9.827   1.415
49550W        W21166  33.082  27.031   3.223
49551W        W21167  21.288  42.338  14.993
49552W        W21168  44.262   8.185   3.291
49553W        W21169  11.595  44.420  10.705
49554W        W21170  33.593  39.352   3.662
49555W        W21171   1.468  26.069  14.807
49556W        W21172   0.701  16.666  12.405
49557W        W21173  31.415  34.775   2.926
49558W        W21174   0.452  31.559  11.216
49559W        W21175  43.925  12.882  10.784
49560W        W21176   7.824  25.300  10.317
49561W        W21177  30.047  27.431  14.646
49562W        W21178  32.821   0.758  13.738
49563W        W21179  42.786  20.091   1.039
49564W        W21180  32.123  31.345  11.041
49565W        W21181  19.071  12.377  14.261
49566W        W21182  14.307   9.296  13.337
49567W        W21183  14.762   4.492  12.607
49568W        W21184  34.541  29.453  11.115
49569W        W21185  28.939  34.503  13.527
49570W        W21186  30.573  21.729   0.472
49571W        W21187   6.652  30.556   2.719
49572W        W21188  14.839   4.192   2.251
49573W        W21189  44.121  41.010   4.015
49574W        W21190   8.651  34.183  10.555
49575W        W21191   3.395   4.816   2.774
49576W        W21192  18.086  23.192  11.441
49577W        W21193  12.106  41.456   2.194
49578W        W21194  42.041  42.480   2.252
49579W        W21195  26.693  11.094  11.895
49580W        W21196  22.731  22.651   0.920
49581W        W21197   0.379  29.912   0.438
49582W        W21198  16.225  14.506  10.980
49583W        W21199  37.370  15.138  12.611
49584W        W21200  29.919  15.839  14.452
49585W        W21201   7.905   6.940   1.618
49586W        W21202  28.644  26.068  13.533
49587W        W21203   6.078   1.841   1.760
49588W        W21204  11.333  23.812   4.125
49589W        W21205  21.113  14.124   2.476
49590W        W21206  39.973  44.375  14.783
49591W        W21207   5.685  33.157   0.972
49592W        W21208  29.529  35.614  11.883
49593W        W21209  38.206   9.710   4.660
49594W        W21210  42.068  32.607   0.885
49595W        W21211  27.471  26.795  13.914
49596W        W21212  19.728  33.453  14.355
49597W        W21213   8.459  34.592   2.084
49598W        W21214  34.943  31.095  11.069
49599W        W21215  28.006  25.224   4.591
49600W        W21216  22.092  26.174  13.998
49601W        W21217  26.056  28.460   3.680
49602W        W21218  38.403  42.074  13.506
49603W        W21219  15.294  39.385  12.411
49604W        W21220   5.932   7.249   1.442
49605W        W21221  42.834  38.080   0.351
49606W        W21222  14.490  27.276   4.124
49607W        W21223  41.513  35.810   0.694
49608W        W21224   1.908  24.061  13.022
49609W        W21225  31.544  24.683   2.617
49610W        W21226  21.772  43.469  13.758
49611W        W21227  38.563  24.088   1.717
49612W        W21228   9.144  43.611   2.244
49613W        W21229  21.607  12.652  13.536
49614W        W21230  17.147  29.360   4.979
49615W        W21231  10.189   5.430   3.613
49616W        W21232  11.542  19.761  14.032
49617W        W21233  13.759  44.059   3.776
49618W        W21234  29.396  11.482   3.610
49619W        W21235  16.730  28.688   0.248
49620W        W21236   6.805  12.278   3.289
49621W        W21237  33.510  12.816  11.680
49622W        W21238  36.304  42.324   1.887
49623W        W21239  20.688  29.323  12.517
49624W        W21240  39.993   8.717  11.519
49625W        W21241  24.156  15.063   3.656
49626W        W21242  30.898   1.862   4.098
49627W        W21243  11.746   5.839   2.043
49628W        W21244  14.813  33.090   5.367
49629W        W21245  29.074  19.008   1.856
49630W        W21246  22.508  14.108   3.344
49631W        W21247  32.771  35.751  12.630
49632W        W21248  26.507   9.852  13.316
49633W        W21249  39.540  29.697  13.806
49634W        W21250  18.623   8.785   4.618
49635W        W21251   5.732  30.818   0.850
49636W        W21252   9.220  27.387  14.530
49637W        W21253  29.588   9.485   3.794
49638W        W21254  23.621  28.943   0.191
49639W        W21255  24.561  27.610  11.068
49640W        W21256  16.149  13.111   0.017
49641W        W21257  21.091  32.174   3.755
49642W        W21258  30.817  20.997   3.800
49643W        W21259   2.709  33.598   3.291
49644W        W21260   0.694  33.790   4.143
49645W        W21261  19.640  33.440  13.351
49646W        W21262  43.842  32.412   4.560
49647W        W21263  15.097  29.959  13.615
49648W        W21264   7.934  38.465  13.996
49649W        W21265  22.516  28.152  13.936
49650W        W21266  20.119   3.420  12.832
49651W        W21267  29.519  44.527   4.154
49652W        W21268  24.490  14.567   0.861
49653W        W21269  24.733  38.023   2.740
49654W        W21270  29.911  21.000   3.792
49655W        W21271  36.706  26.506  11.032
49656W        W21272  13.869   1.431   1.406
49657W        W21273  23.993  44.970   0.333
49658W        W21274  19.788   9.304   0.256
49659W        W21275   4.479  39.751  11.950
49660W        W21276  29.198  15.476   5.433
49661W        W21277  15.737  17.458   2.497
49662W        W21278   2.974  33.802  10.490
49663W        W21279  38.678   9.873  10.034
49664W        W21280  33.203  39.052   3.847
49665W        W21281   8.863  39.853  11.005
49666W        W21282   5.675   6.611  14.379
49667W        W21283  11.986   9.311  14.493
49668W        W21284  11.144   8.323   1.877
49669W        W21285  21.928  30.469  12.872
49670W        W21286   6.920   1.930  14.848
49671W        W21287  35.278  30.866   2.759
49672W        W21288  25.725  43.195   4.586
49673W        W21289  35.494   4.201   4.555
49674W        W21290  26.512  20.760   0.852
49675W        W21291  33.855   9.879  10.332
49676W        W21292  21.626   3.403   2.279
49677W        W21293   9.654  36.541  12.336
49678W        W21294  27.995  28.372  11.561
49679W        W21295  29.544  19.086  12.991
49680W        W21296  44.417  39.553  10.743
49681W        W21297  21.003  20.733   2.711
49682W        W21298  43.030  23.815   3.265
49683W        W21299   5.286   1.206  10.376
49684W        W21300  32.714  39.242  11.225
49685W        W21301  31.347  24.394  14.748
49686W        W21302  20.985  38.330   3.732
49687W        W21303  27.415   1.451   4.640
49688W        W21304  36.620  37.878   0.439
49689W        W21305  22.531   4.271  14.824
49690W        W21306  34.532  23.518   2.853
49691W        W21307  44.393   5.029  14.973
49692W        W21308  15.041   6.973   9.752
49693W        W21309  36.464  17.318  11.196
49694W        W21310  44.325  24.156   2.405
49695W        W21311  15.092  37.137  12.626
49696W        W21312  38.809  25.492  11.017
49697W        W21313  15.865  11.643  14.300
49698W        W21314  17.788  12.898  11.623
49699W        W21315  36.851  29.471  12.990
49700W        W21316  29.670  32.336   2.797
49701W        W21317  17.588  32.172  12.427
49702W        W21318  31.965  30.216  10.314
49703W        W21319   6.923   8.628  11.475
49704W        W21320   5.732  38.329   2.812
49705W        W21321  34.894  33.647   1.438
49706W        W21322   0.408   0.008  11.541
49707W        W21323  22.468   1.395   1.447
49708W        W21324  33.572  29.680   0.270
49709W        W21325  13.531  40.896  14.971
49710W        W21326  43.990  23.893   4.761
49711W        W21327  34.084   3.282   4.640
49712W        W21328  40.121   2.755   4.218
49713W        W21329  39.943  21.958  11.160
49714W        W21330  25.242  31.432   2.444
49715W        W21331  41.527  31.857  14.880
49716W        W21332  35.766  28.302   4.288
49717W        W21333   9.074  41.027   3.639
49718W        W21334  34.534  37.471   3.070
49719W        W21335  19.182  13.250  14.755
49720W        W21336  20.792  22.943  14.822
49721W        W21337  25.142  29.606  11.674
49722W        W21338  19.523   1.845   2.486
49723W        W21339  12.374  22.462  12.291
49724W        W21340   0.793   7.097   0.425
49725W        W21341  43.799   3.171   2.234
49726W        W21342   6.309  39.184   4.841
49727W        W21343  28.638  22.439   3.785
49728W        W21344  27.335  42.527   3.579
49729W        W21345   4.467  21.582  10.402
49730W        W21346  25.427  10.431   3.612
49731W        W21347  36.479   4.301   2.125
49732W        W21348   3.852   7.457  12.060
49733W        W21349  13.885   6.751   3.704
49734W        W21350  26.731  33.912   2.320
49735W        W21351  32.551  38.257  12.838
49736W        W21352  24.624  26.395  13.861
49737W        W21353   6.882  15.540   9.941
49738W        W21354  40.992  17.665  14.755
49739W        W21355  10.166  43.722   2.858
49740W        W21356   2.250  18.617  12.013
49741W        W21357  26.121  14.490   3.417
49742W        W21358  19.419  42.279   1.901
49743W        W21359   2.494   9.216  12.608
49744W        W21360  11.811   8.622   4.173
49745W        W21361  24.979  16.561   2.344
49746W        W21362  15.043  31.031  12.371
49747W        W21363   8.260  41.749  12.393
49748W        W21364   3.794  12.782  13.042
49749W        W21365  40.932  24.596   3.703
49750W        W21366  34.852  33.876   0.215
49751W        W21367  15.611   1.409  12.971
49752W        W21368  41.069   4.793  14.089
49753W        W21369  44.027   0.260  13.393
49754W        W21370   6.246  18.313   3.188
49755W        W21371  22.388  21.600  11.662
49756W        W21372  34.313  25.478  10.696
49757W        W21373  36.509  10.557  10.685
49758W        W21374  39.888   1.693  11.602
49759W        W21375   2.202  28.669   0.394
49760W        W21376  19.088  38.867   3.735
49761W        W21377  23.961  38.457   0.098
49762W        W21378  31.438  39.119  12.470
49763W        W21379  35.459   5.945   2.865
49764W        W21380  11.793  41.502  11.614
49765W        W21381  35.014  32.624   2.150
49766W        W21382   4.873   0.087  14.508
49767W        W21383  40.935   2.161  14.532
49768W        W21384  15.533  15.231   1.340
49769W        W21385  32.297   2.461  10.678
49770W        W21386  14.716  44.026   0.762
49771W        W21387  10.389  25.452   1.305
49772W        W21388  11.225  24.679   4.874
49773W        W21389  20.698  36.843   1.906
49774W        W21390  19.522   7.432  13.433
49775W        W21391  43.494  17.229   0.836
49776W        W21392  38.910  10.643   5.545
49777W        W21393  33.041  25.609   2.354
49778W        W21394   9.789  37.109  10.607
49779W        W21395  20.755  26.703   2.928
49780W        W21396  33.454  43.076   2.563
49781W        W21397  43.821  21.798   3.319
49782W        W21398  21.982  37.561   2.901
49783W        W21399   2.736   0.011  12.421
49784W        W21400  31.226  44.658   5.084
49785W        W21401  43.068  43.946  14.360
49786W        W21402  43.322  12.572  14.666
49787W        W21403   6.615  18.800  11.080
49788W        W21404  42.571   7.238   3.228
49789W        W21405  44.641   5.241   3.239
49790W        W21406  32.976  13.513   0.364
49791W        W21407  35.696  23.149   0.013
49792W        W21408   1.891  31.526   4.872
49793W        W21409   5.883   7.442  13.422
49794W        W21410  23.285  16.824  12.437
49795W        W21411  12.474  41.008  14.895
49796W        W21412  22.741  13.612  10.866
49797W        W21413  29.078  25.182   2.173
49798W        W21414  43.826  35.445  10.417
49799W        W21415  38.092  23.292  11.539
49800W        W21416  36.576  28.631   2.593
49801W        W21417   5.256  42.482   3.736
49802W        W21418  26.159  17.575   0.750
49803W        W21419  33.560  14.859   1.794
49804W        W21420  18.315   4.795   0.399
49805W        W21421  15.231  20.473   4.064
49806W        W21422  28.035  34.453   0.524
49807W        W21423  11.526  40.447   3.539
49808W        W21424  41.152  30.187  10.592
49809W        W21425   9.866  31.897  13.351
49810W        W21426  18.098  32.515   1.308
49811W        W21427  20.270  16.696  12.625
49812W        W21428  25.075   3.133   1.801
49813W        W21429  18.737  12.791   3.561
49814W        W21430  30.861   7.424   3.823
49815W        W21431  43.389   7.422   0.500
49816W        W21432  40.809  30.073   1.496
49817W        W21433  37.838   9.785   2.648
49818W        W21434  25.986  39.836   1.492
49819W        W21435  39.801   2.313   1.370
49820W        W21436   8.659  34.949   1.742
49821W        W21437  43.937   5.054  11.606
49822W        W21438  10.570  32.355   4.505
49823W        W21439   5.258  21.267   3.196
49824W        W21440   4.902  36.788   0.837
49825W        W21441   1.676  14.786  10.851
49826W        W21442  42.001   1.967  12.976
49827W        W21443   9.094   4.143  12.023
49828W        W21444  14.043   3.843   4.686
49829W        W21445  40.975  32.527   4.309
49830W        W21446  39.911  44.978   4.327
49831W        W21447  43.140  17.595  13.988
49832W        W21448   8.114  34.290  14.287
49833W        W21449  23.652  27.078  14.580
49834W        W21450   0.203  25.835  14.073
49835W        W21451  15.240   8.751  13.147
49836W        W21452  21.032  12.005   3.642
49837W        W21453  42.349  42.992  11.407
49838W        W21454  39.565  35.666  14.976
49839W        W21455   9.286   7.134  11.933
49840W        W21456  42.043  41.082   2.529
49841W        W21457  31.052  26.225   3.244
49842W        W21458   2.892  24.405   3.693
49843W        W21459  28.182  43.419  12.041
49844W        W21460  43.951   5.222  14.802
49845W        W21461  33.059  44.048  12.887
49846W        W21462  29.868  14.212   2.175
49847W        W21463   4.241  15.758   4.138
49848W        W21464  30.057   5.083   2.247
49849W        W21465  19.075   9.822  14.784
49850W        W21466  22.614  39.429  11.586
49851W        W21467  18.456  34.957   2.869
49852W        W21468  35.554  15.151  10.663
49853W        W21469  16.307  40.762   1.838
49854W        W21470   1.742  43.537   1.284
49855W        W21471  30.924  37.603  13.955
49856W        W21472  12.335  43.265  11.568
49857W        W21473  34.183  28.743  13.396
49858W        W21474  17.341  27.826   4.096
49859W        W21475  11.694   0.045   3.614
49860W        W21476  44.935   4.002   0.352
49861W        W21477  34.006  20.772  13.820
49862W        W21478  30.926  27.224   1.021
49863W        W21479  33.976  28.981  13.792
49864W        W21480   1.223  44.729   4.199
49865W        W21481  16.029  41.887   0.738
49866W        W21482  25.034   5.732  11.825
49867W        W21483  26.991  22.199  11.239
49868W        W21484  17.901  25.629  13.773
49869W        W21485  42.247   8.902  11.095
49870W        W21486  43.500   9.251   2.184
49871W        W21487  12.287  27.534  13.654
49872W        W21488   8.972  12.464   1.371
49873W        W21489   4.399  38.808  11.985
49874W        W21490   4.152  30.428   0.464
49875W        W21491  26.531  25.469   4.687
49876W        W21492   2.791  15.472  13.758
49877W        W21493   5.385  33.978  11.613
49878W        W21494  28.364   9.660  10.415
49879W        W21495   2.411   7.042   4.162
49880W        W21496  27.763   0.794   4.177
49881W        W21497  12.721   2.343  13.415
49882W        W21498  32.775   4.846   2.390
49883W        W21499   4.173  28.271  12.512
49884W        W21500  15.680  40.563  13.004
49885W        W21501  39.024  10.084   2.284
49886W        W21502   5.378  21.515   0.713
49887W        W21503  33.798  16.817  11.194
49888W        W21504   8.329  19.388  12.523
49889W        W21505  31.416  33.023  14.691
49890W        W21506   7.567  44.411   2.817
49891W        W21507  37.566   6.329  12.099
49892W        W21508   1.977  35.313  13.034
49893W        W21509  17.173  21.300  13.885
49894W        W21510  42.545   6.849   2.191
49895W        W21511   4.321  39.511  11.493
49896W        W21512  10.888  35.430   0.776
49897W        W21513  21.274  42.410  13.099
49898W        W21514   5.331  11.588  11.051
49899W        W21515  30.695  14.030  13.526
49900W        W21516   4.756   8.335  12.145
49901W        W21517  33.848  12.655   0.737
49902W        W21518  39.682  29.022  11.049
49903W        W21519  11.314  39.683   3.993
49904W        W21520   8.697  34.098   4.650
49905W        W21521  22.303  22.217   0.002
49906W        W21522  17.069  28.055  14.780
49907W        W21523  28.170  35.588  14.889
49908W        W21524   1.462   1.303  11.838
49909W        W21525  40.083  19.058   4.208
49910W        W21526  44.696  18.207   1.933
49911W        W21527  39.338  43.315   2.728
49912W        W21528  38.211  18.043   1.029
49913W        W21529  12.851  27.186  11.955
49914W        W21530  33.573  29.206   1.410
49915W        W21531  14.899  14.959   2.351
49916W        W21532  23.868  44.451   5.018
49917W        W21533  37.012  30.404  12.599
49918W        W21534  10.596  26.525   0.303
49919W        W21535   6.068  28.453   3.208
49920W        W21536  10.960  40.129  10.916
49921W        W21537  14.183  33.613  13.610
49922W        W21538  20.078   7.977  12.440
49923W        W21539  38.043  33.032   1.767
49924W        W21540   4.810   9.653   4.016
49925W        W21541  27.134   0.451   0.917
49926W        W21542  36.517  26.728   1.337
49927W        W21543  10.031  25.077  12.858
49928W        W21544  34.295  32.384   4.424
49929W        W21545  25.596  27.852  10.247
49930W        W21546  10.059  26.649   5.096
49931W        W21547   0.705  19.165   1.505
49932W        W21548  12.601  42.410  11.211
49933W        W21549  15.795  14.292  13.128
49934W        W21550  10.949  25.894  14.379
49935W        W21551   5.833   7.849   4.671
49936W        W21552   3.624  39.674  13.520
49937W        W21553   8.707  25.725   2.664
49938W        W21554  11.626   7.319   3.648
49939W        W21555  23.755   3.635   3.699
49940W        W21556  13.077   8.182  13.993
49941W        W21557   5.834  36.105  11.979
49942W        W21558   6.968   8.896   4.664
49943W        W21559   5.122  30.818  12.393
49944W        W21560  43.486   5.915   2.403
49945W        W21561  29.487  33.078   2.284
49946W        W21562  32.526  36.046   2.147
49947W        W21563  44.249  21.517  12.247
49948W        W21564  26.636   7.063   3.191
49949W        W21565  27.176  14.255  10.583
49950W        W21566   6.069  39.301   0.365
49951W        W21567  13.168  42.502  14.009
49952W        W21568  18.992  19.528  11.983
49953W        W21569  38.431   7.690   4.549
49954W        W21570   2.495   6.397   4.431
49955W        W21571   0.655  40.856   1.090
49956W        W21572  10.843   2.223   2.450
49957W        W21573  36.609  38.743   0.904
49958W        W21574  27.742   9.247   2.150
49959W        W21575  30.917  13.775  13.082
49960W        W21576  33.699  44.908  14.969
49961W        W21577  11.858  33.165   1.772
49962W        W21578  37.901  33.503  13.275
49963W        W21579   2.330  33.554  13.460
49964W        W21580  16.336  15.025   5.032
49965W        W21581  19.015  14.843   2.628
49966W        W21582  30.440  14.563  14.484
49967W        W21583   4.284  20.253  10.613
49968W        W21584   2.787   3.435   2.091
49969W        W21585  15.245  25.619   3.916
49970W        W21586   0.302  27.140   2.851
49971W        W21587  34.941  43.820  12.918
49972W        W21588  44.900  28.381  14.670
49973W        W21589   1.436  33.159   4.281
49974W        W21590  35.935  19.991   1.367
49975W        W21591  16.388   7.668  12.836
49976W        W21592  15.857   3.466  13.398
49977W        W21593   1.546   4.408  12.987
49978W        W21594  27.792  23.267   2.772
49979W        W21595  34.244   2.735   2.581
49980W        W21596  37.761  42.535   4.358
49981W        W21597  19.122  34.387   0.970
49982W        W21598  21.568  36.759   0.808
49983W        W21599  41.986   8.426   4.555
49984W        W21600  14.166  35.322   0.328
49985W        W21601  35.076   5.166  13.004
49986W        W21602  25.752  33.877   3.353
49987W        W21603  27.745  26.710   1.819
49988W        W21604  40.552  25.585  13.303
49989W        W21605  32.161  18.729  11.947
49990W        W21606  16.812  44.302  13.537
49991W        W21607  34.922  33.403   0.412
49992W        W21608  36.966  39.348   2.916
49993W        W21609  32.441   0.817  11.599
49994W        W21610  14.141  29.712  13.003
49995W        W21611  23.666  33.921   2.283
49996W        W21612  19.624   4.209   3.366
49997W        W21613  11.114   1.956   0.003
49998W        W21614  42.510  18.763   4.487
49999W        W21615   8.935  12.038  12.310
50000W        W21616  28.793   7.817   0.990
50001W        W21617  10.920  34.396  12.555
50002W        W21618  27.113  22.020   4.101
50003W        W21619   9.155  33.131  14.858
50004W        W21620  32.405  14.221   3.144
50005W        W21621  11.743  35.765  14.016
50006W        W21622  41.889  20.839   4.470
50007W        W21623   9.968  43.626   3.324
50008W        W21624   0.357  27.644  10.745
50009W        W21625  35.408  14.055  13.721
50010W        W21626  36.887  30.699  11.009
50011W        W21627  41.827  12.827  12.543
50012W        W21628  44.006  27.602   2.980
50013W        W21629  18.033  43.426   3.588
50014W        W21630  29.912  35.103  14.244
50015W        W21631  19.276  14.577   0.767
50016W        W21632  38.641  33.500  14.426
50017W        W21633   8.944  30.370   1.019
50018W        W21634   7.452  21.103   2.822
50019W        W21635   0.770   1.340  11.125
50020W        W21636   6.418   1.799  13.825
50021W        W21637   4.468  13.282  14.046
50022W        W21638   8.643  34.941   2.725
50023W        W21639  36.125  15.007   4.184
50024W        W21640  14.469  14.668   2.464
50025W        W21641  30.238  42.237   3.299
50026W        W21642  34.093  10.941   1.936
50027W        W21643   9.524  10.311   1.114
50028W        W21644  29.929  32.487  12.914
50029W        W21645  25.225  11.837   4.865
50030W        W21646  25.747  12.650   3.403
50031W        W21647  42.137  13.858   0.303
50032W        W21648   5.212   8.465   2.274
50033W        W21649  27.520   1.493   3.598
50034W        W21650  42.316  39.534   1.244
50035W        W21651  28.068  15.802   0.514
50036W        W21652  23.285  32.027   3.656
50037W        W21653  18.135  16.485   3.656
50038W        W21654  32.819  20.594  14.980
50039W        W21655  27.865  17.713   0.215
50040W        W21656   2.219  28.181  14.600
50041W        W21657  12.202  11.166  12.483
50042W        W21658  31.566   0.462  13.479
50043W        W21659  43.244  24.229  13.893
50044W        W21660  26.638  12.782  14.257
50045W        W21661   9.346  37.775   1.407
50046W        W21662  25.689  13.217   2.300
50047W        W21663  25.205  37.129   2.822
50048W        W21664   8.898  37.612  13.609
50049W        W21665   2.455  15.535  12.035
50050W        W21666  23.517  19.636  14.778
50051W        W21667   8.366  40.123   4.126
50052W        W21668   1.012  14.213   0.022
50053W        W21669  24.563  39.205  10.757
50054W        W21670  21.166  40.086  14.829
50055W        W21671  27.606   1.243   0.477
50056W        W21672  25.252  32.181  12.961
50057W        W21673  43.322  11.515   0.145
50058W        W21674  21.413  39.632   1.056
50059W        W21675   4.909  21.315  10.153
50060W        W21676  23.366  19.627  12.895
50061W        W21677  27.715  35.406  14.736
50062W        W21678  28.132  16.016   3.328
50063W        W21679   0.107  25.739  12.169
50064W        W21680  31.516  22.978  12.554
50065W        W21681  37.455  39.836  14.419
50066W        W21682  23.595  17.657  11.922
50067W        W21683  37.205   9.818  10.490
50068W        W21684  17.173  17.630  10.746
50069W        W21685  28.601  44.609   0.342
50070W        W21686  32.860   5.751   4.147
50071W        W21687   9.318  14.868  12.481
50072W        W21688  37.822  38.829  13.486
50073W        W21689  31.054  19.415   5.284
50074W        W21690  14.305  36.284  11.550
50075W        W21691  14.864  12.363  11.076
50076W        W21692  15.094   8.615   1.324
50077W        W21693  26.052  19.282  14.431
50078W        W21694  41.570  42.692   0.992
50079W        W21695  26.447  28.205   2.199
50080W        W21696   5.828  14.704   3.141
50081W        W21697  32.483  28.507   2.817
50082W        W21698  24.307  24.741  13.313
50083W        W21699  28.612   6.699   3.930
50084W        W21700  24.210  22.797   1.385
50085W        W21701  38.391  21.053   0.238
50086W        W21702   8.398  24.427   1.973
50087W        W21703   9.359  41.374  14.245
50088W        W21704  27.028  16.804  13.322
50089W        W21705  32.882  10.628  11.988
50090W        W21706   3.253  36.485  13.432
50091W        W21707  26.167  43.628  13.715
50092W        W21708  38.539  21.780  11.624
50093W        W21709  43.993   3.897   3.754
50094W        W21710  11.663   3.465  10.478
50095W        W21711  41.061  19.147   1.317
50096W        W21712  31.567  44.760  10.023
50097W        W21713  41.989  41.124  11.537
50098W        W21714  17.135  28.562   0.545
50099W        W21715  10.586   2.152   2.882
50100W        W21716  13.047  29.796  14.553
50101W        W21717  23.127  12.873   1.370
50102W        W21718  26.721  14.563  12.306
50103W        W21719  17.030  41.047  13.747
50104W        W21720   3.744  24.342   5.491
50105W        W21721  35.917  30.506   1.180
50106W        W21722  23.631   4.727  10.694
50107W        W21723  37.561  11.798   0.305
50108W        W21724  20.223  40.226   4.240
50109W        W21725  10.593  33.282  14.557
50110W        W21726  40.469  27.993   2.155
50111W        W21727   2.577  13.365  12.184
50112W        W21728  15.203  27.519  14.825
50113W        W21729  42.048   7.023   2.353
50114W        W21730   9.668   3.617   0.419
50115W        W21731  22.971  11.342   3.107
50116W        W21732  21.966  39.196   0.536
50117W        W21733  16.087  44.479  12.857
50118W        W21734  16.201  29.957  10.773
50119W        W21735  35.618   3.888   1.456
50120W        W21736  14.329  18.692  11.950
50121W        W21737  15.907   7.022   2.735
50122W        W21738   5.313  14.551   2.874
50123W        W21739  10.299  44.741  14.790
50124W        W21740  25.466  37.798   1.852
50125W        W21741   2.026  31.064  13.543
50126W        W21742  25.245  21.232  13.479
50127W        W21743  39.062  37.979   0.436
50128W        W21744  16.261   3.029  14.827
50129W        W21745  28.718  44.403  14.443
50130W        W21746   0.165  16.260   4.682
50131W        W21747  27.553  41.927  12.629
50132W        W21748  19.605  39.386   4.245
50133W        W21749  22.901  33.064  11.334
50134W        W21750  32.412  35.018  12.348
50135W        W21751  24.476  29.470   0.482
50136W        W21752  10.124  38.975  14.845
50137W        W21753  12.630  15.163  11.137
50138W        W21754  36.991  17.950  12.301
50139W        W21755  22.581   0.400  10.698
50140W        W21756  31.461  25.210   1.874
50141W        W21757   1.926   2.145   4.968
50142W        W21758   1.402  23.073  12.667
50143W        W21759  30.414   7.492  13.780
50144W        W21760  26.693  37.967  11.600
50145W        W21761  34.540  19.120  14.774
50146W        W21762  34.826  40.311  10.814
50147W        W21763  41.402  37.138  11.656
50148W        W21764  12.190  41.497  12.533
50149W        W21765  23.696  16.965   4.443
50150W        W21766  24.255   1.856   4.730
50151W        W21767  18.687  44.606   9.783
50152W        W21768   9.140  10.293  14.342
50153W        W21769  13.228  27.254  12.883
50154W        W21770   7.665  36.590  14.524
50155W        W21771  15.275  44.049  13.175
50156W        W21772   4.469  41.812   4.342
50157W        W21773  37.779  21.781   3.004
50158W        W21774  14.710   7.288  14.116
50159W        W21775  33.045   1.994   5.755
50160W        W21776  30.708  37.636  12.516
50161W        W21777  16.447   1.445  12.642
50162W        W21778  39.347  28.574  14.198
50163W        W21779   4.548  38.377   2.175
50164W        W21780  32.887  17.153  11.045
50165W        W21781  29.019  22.661   2.878
50166W        W21782  11.614  17.462  12.033
50167W        W21783  30.002  15.672   1.363
50168W        W21784   1.717   8.213   4.187
50169W        W21785  44.328  21.926  12.554
50170W        W21786  31.052  28.155  10.642
50171W        W21787  11.578  23.646   3.726
50172W        W21788  20.656  17.609  11.197
50173W        W21789  15.798  32.142  13.623
50174W        W21790   9.779  43.340   2.619
50175W        W21791  24.887  32.601   3.891
50176W        W21792  28.789   7.821   4.915
50177W        W21793  35.663  37.304  13.927
50178W        W21794   2.637  27.491   2.442
50179W        W21795  36.935  34.534   4.165
50180W        W21796  39.930  11.389  11.956
50181W        W21797  42.804  32.070  12.884
50182W        W21798  16.865   9.220  13.848
50183W        W21799  35.533  23.161   0.871
50184W        W21800  21.127  15.767   2.234
50185W        W21801  34.903  14.120  14.391
50186W        W21802  23.100  35.570  13.748
50187W        W21803  23.179  13.849  11.469
50188W        W21804  23.212   0.378   1.290
50189W        W21805  24.793  37.642  12.159
50190W        W21806   0.593  26.517  12.033
50191W        W21807  13.049  29.088  10.736
50192W        W21808   1.619  41.269   0.678
50193W        W21809  21.030  39.006  14.987
50194W        W21810   7.860  23.335   3.696
50195W        W21811   6.412  22.004   4.321
50196W        W21812  15.327  28.703   1.974
50197W        W21813   7.940   8.518   0.278
50198W        W21814  31.738  39.460  11.201
50199W        W21815  42.092   3.499   1.292
50200W        W21816  23.122  34.616   4.580
50201W        W21817  41.821  28.826  12.697
50202W        W21818  33.768  30.427  11.554
50203W        W21819  43.758  18.105   0.316
50204W        W21820   9.657  41.581   2.143
50205W        W21821  44.029  13.743  12.077
50206W        W21822  34.391  39.300  14.052
50207W        W21823  22.296  22.172   3.310
50208W        W21824  12.711   2.326   3.823
50209W        W21825  31.103   0.457  10.119
50210W        W21826  26.979  31.885   0.557
50211W        W21827  40.015  36.582  14.539
50212W        W21828   6.323   3.167  11.594
50213W        W21829  17.210  13.114  12.033
50214W        W21830  23.013  20.861   0.977
50215W        W21831  40.844  36.917  14.443
50216W        W21832  28.619  18.763  11.591
50217W        W21833   1.659  11.161   3.901
50218W        W21834   2.285  44.297  13.835
50219W        W21835   1.850   1.412   0.495
50220W        W21836  36.942  21.103  13.552
50221W        W21837  19.712  40.249   3.538
50222W        W21838  11.027  36.861  11.031
50223W        W21839  16.639  36.198   3.841
50224W        W21840  44.175  33.619  14.219
50225W        W21841  23.162  27.131  14.299
50226W        W21842  15.336  23.004  13.469
50227W        W21843  20.575   4.757  12.911
50228W        W21844  41.816  15.216   2.688
50229W        W21845  43.753  27.699  13.936
50230W        W21846  11.661   5.336  10.484
50231W        W21847  27.426  43.589   1.675
50232W        W21848  38.860  14.041   0.498
50233W        W21849  39.839  17.749   1.782
50234W        W21850  37.028  11.484   1.882
50235W        W21851   5.843  24.002  13.050
50236W        W21852  35.439  36.999   5.033
50237W        W21853   3.250   7.934  13.839
50238W        W21854  22.064  20.014   4.744
50239W        W21855   3.139  27.930   2.472
50240W        W21856  18.463  26.063  10.731
50241W        W21857  23.179  42.384   0.697
50242W        W21858  34.047   4.835  11.121
50243W        W21859  20.762  29.551   0.709
50244W        W21860  30.972  11.884   0.858
50245W        W21861  27.654   6.787   2.405
50246W        W21862  36.437  30.496   2.629
50247W        W21863  37.905  18.361   0.765
50248W        W21864   1.490  13.664  12.851
50249W        W21865  16.870  41.561   0.866
50250W        W21866  27.086  21.056   2.921
50251W        W21867  22.535   0.880   2.653
50252W        W21868   2.446  27.419   4.128
50253W        W21869  38.275  24.107  11.759
50254W        W21870  14.653  39.484   0.779
50255W        W21871  24.298  23.248  14.070
50256W        W21872  26.621  41.766   3.763
50257W        W21873  24.580  42.461   3.133
50258W        W21874  17.511  38.142  13.888
50259W        W21875  14.627   4.517   3.197
50260W        W21876  29.611   5.160  14.911
50261W        W21877  29.996  17.633   4.349
50262W        W21878  26.211   3.895   0.931
50263W        W21879   2.577  14.331   1.884
50264W        W21880   8.740  26.525  10.325
50265W        W21881   4.008  16.073   2.081
50266W        W21882  29.506  36.605   3.823
50267W        W21883   6.454  26.195  13.595
50268W        W21884  38.266  41.686  11.159
50269W        W21885  42.893   4.176   1.204
50270W        W21886   4.421   1.942  12.012
50271W        W21887  13.912   6.868   5.666
50272W        W21888  37.248   5.412   2.783
50273W        W21889   1.961  39.109   3.400
50274W        W21890   3.249   8.288   4.287
50275W        W21891   6.127  38.813  14.716
50276W        W21892   8.411  36.929  12.567
50277W        W21893  25.158  24.718  13.613
50278W        W21894  15.775  42.594   3.062
50279W        W21895   2.978  41.365   2.162
50280W        W21896  38.063  25.015   2.786
50281W        W21897  42.284  15.416  11.137
50282W        W21898  42.662   1.070   3.159
50283W        W21899  13.904   7.761  11.805
50284W        W21900  21.585   3.510  12.102
50285W        W21901  40.125   8.049   2.654
50286W        W21902  13.160   9.701  11.580
50287W        W21903  22.162   3.437  12.027
50288W        W21904  11.389  19.619   2.814
50289W        W21905  36.566  14.897   1.411
50290W        W21906  34.664   0.283  12.940
50291W        W21907  37.402   3.212   3.077
50292W        W21908   9.462  40.410   0.882
50293W        W21909   1.886  35.033  13.878
50294W        W21910  37.425  28.548   2.883
50295W        W21911   9.910   6.681  13.852
50296W        W21912   3.471  28.523   1.494
50297W        W21913   7.647   1.258   4.077
50298W        W21914   5.073   6.851  13.502
50299W        W21915  11.599  42.174  12.024
50300W        W21916  18.379   2.879  13.966
50301W        W21917  21.194  17.079   1.242
50302W        W21918   9.403   2.931  12.554
50303W        W21919  34.849  28.145   3.183
50304W        W21920  31.102   3.746   3.396
50305W        W21921  30.121  15.933  12.200
50306W        W21922  43.789  13.626  13.047
50307W        W21923  11.219  11.838  14.266
50308W        W21924  40.089  22.950  13.068
50309W        W21925   9.809  34.832   3.143
50310W        W21926  26.820  17.782   1.232
50311W        W21927   7.848  39.973  14.934
50312W        W21928  21.697  28.148   2.647
50313W        W21929  24.713   6.276  10.729
50314W        W21930  43.367   1.843   4.811
50315W        W21931  35.969   8.956  12.508
50316W        W21932   7.184  35.971  11.147
50317W        W21933  34.833  28.381  14.578
50318W        W21934  27.981  41.998  11.935
50319W        W21935  42.390   6.954  11.266
50320W        W21936  15.721   5.651   5.471
50321W        W21937  42.746  32.855   0.182
50322W        W21938  22.594   2.477  10.778
50323W        W21939  28.558  14.272  12.487
50324W        W21940  13.397  10.166  13.294
50325W        W21941  32.062   5.419  12.798
50326W        W21942  24.404  19.503   5.177
50327W        W21943  10.457   0.194   4.429
50328W        W21944  28.504  32.965  11.839
50329W        W21945  25.840   6.129  12.059
50330W        W21946  19.918  31.586   1.776
50331W        W21947   2.915  31.985   4.736
50332W        W21948   7.753  18.719  10.664
50333W        W21949  18.039   1.418   3.755
50334W        W21950  33.112  23.797   2.917
50335W        W21951   6.859   1.684  12.909
50336W        W21952  42.863  15.256   2.322
50337W        W21953  31.818  18.729  11.574
50338W        W21954  20.075   6.934   4.144
50339W        W21955  14.292  26.399  13.921
50340W        W21956   8.389  20.432   3.823
50341W        W21957  37.549  30.844   4.611
50342W        W21958  14.671  43.445  12.536
50343W        W21959   8.705  25.140  12.441
50344W        W21960   6.907  28.703   1.978
50345W        W21961   2.741  31.985  12.914
50346W        W21962  16.590  37.950  12.406
50347W        W21963   8.179  36.543   1.411
50348W        W21964  42.268   0.272  11.083
50349W        W21965  25.193   3.246  14.457
50350W        W21966   0.454  34.435   0.726
50351W        W21967   1.826  18.063   2.335
50352W        W21968   1.795  30.954   3.083
50353W        W21969  26.633  25.730   3.600
50354W        W21970   2.502  14.887   3.699
50355W        W21971  31.928  20.421  10.843
50356W        W21972  17.828   0.703  11.529
50357W        W21973  13.247  10.935  11.987
50358W        W21974  10.149  29.099  10.441
50359W        W21975  15.761  34.909  11.459
50360W        W21976  17.668  41.401   0.483
50361W        W21977  10.608  42.235  11.164
50362W        W21978  37.804   7.635   0.064
50363W        W21979  18.535  41.852   3.096
50364W        W21980   2.842  12.227   3.926
50365W        W21981  22.170  33.184   2.930
50366W        W21982  31.075  25.637  14.861
50367W        W21983   9.192  38.505   4.101
50368W        W21984  24.458   3.713   3.215
50369W        W21985  32.165  34.552  11.459
50370W        W21986  37.867  25.079   0.955
50371W        W21987  17.452  24.436  13.514
50372W        W21988  34.283   0.913  14.917
50373W        W21989  17.169  23.156   3.303
50374W        W21990   6.314  35.863   4.987
50375W        W21991   4.404  31.388   3.293
50376W        W21992   9.378  36.095   4.645
50377W        W21993  39.085  33.854  13.833
50378W        W21994  35.713  30.544  13.816
50379W        W21995   4.571  25.874  11.051
50380W        W21996  16.563  23.532   1.795
50381W        W21997  12.164   4.420  11.893
50382W        W21998  24.102   3.142  10.478
50383W        W21999  20.945   2.381   0.909
50384W        W22000   1.845   2.174  12.053
50385W        W22001  32.595  29.371  12.656
50386W        W22002   4.782   9.387  13.533
50387W        W22003  16.794  34.583   2.693
50388W        W22004  20.549  23.763  13.782
50389W        W22005  16.220  42.092  14.145
50390W        W22006   4.248  11.749  13.375
50391W        W22007  36.907   2.003  14.107
50392W        W22008  12.180  37.880   3.658
50393W        W22009  16.501  22.288   3.215
50394W        W22010  29.194  10.694  12.424
50395W        W22011   2.922  28.443  13.438
50396W        W22012   3.632  44.725  10.594
50397W        W22013  28.042  32.365   1.907
50398W        W22014  34.029   1.800  13.983
50399W        W22015  27.472  23.780  10.295
50400W        W22016   9.523  37.218   1.274
50401W        W22017   6.262  39.816   0.838
50402W        W22018  18.152  13.735  12.647
50403W        W22019  39.807  22.253  14.752
50404W        W22020  11.174  28.484   1.931
50405W        W22021  42.442  37.361   1.920
50406W        W22022  10.465  18.890   1.444
50407W        W22023  32.026  31.390  12.576
50408W        W22024   4.241  34.167   0.455
50409W        W22025  35.615  23.282   2.287
50410W        W22026  24.581  18.201   0.936
50411W        W22027  42.489   8.297   4.633
50412W        W22028  27.658  29.451   4.125
50413W        W22029  31.103   9.381   2.318
50414W        W22030  11.546  25.392  12.123
50415W        W22031  16.092  38.902  12.465
50416W        W22032  44.963  30.646  11.064
50417W        W22033  19.752   5.184   2.329
50418W        W22034  16.213   9.112   0.117
50419W        W22035  35.812  16.568  11.140
50420W        W22036   7.754  18.993   2.434
50421W        W22037  30.451  30.757  11.348
50422W        W22038  17.245  12.258  12.428
50423W        W22039  17.727   0.431  13.038
50424W        W22040  33.856  24.746   1.545
50425W        W22041  27.418  29.415   3.226
50426W        W22042  17.387  40.379   5.223
50427W        W22043  43.769  40.548   4.164
50428W        W22044   6.248  22.066   1.798
50429W        W22045   4.218  43.753  10.007
50430W        W22046  12.671  24.639   2.736
50431W        W22047  44.414  40.095   4.176
50432W        W22048  23.954   3.269   2.444
50433W        W22049   3.875   5.310   2.393
50434W        W22050  23.673  30.254   4.934
50435W        W22051  34.517  41.538   3.272
50436W        W22052  36.125  43.370   2.954
50437W        W22053  32.123  31.541   4.199
50438W        W22054  16.532  42.340   2.346
50439W        W22055   7.567  22.818  14.084
50440W        W22056  43.484   3.819  13.866
50441W        W22057  33.731  28.541  12.825
50442W        W22058   4.055  20.127  11.072
50443W        W22059  14.575   7.446  11.170
50444W        W22060  18.732  21.996  11.564
50445W        W22061   6.967  13.277   2.258
50446W        W22062  38.943  35.202   1.806
50447W        W22063  16.856   6.804   1.456
50448W        W22064  39.618  43.463  10.749
50449W        W22065  17.106  21.783   1.217
50450W        W22066  37.514  43.014  10.683
50451W        W22067  26.919  31.367   2.852
50452W        W22068   7.747  42.082  14.760
50453W        W22069  44.857  37.160  12.741
50454W        W22070   2.641  30.886  14.421
50455W        W22071  13.596  15.660  11.568
50456W        W22072  19.242   3.115  11.443
50457W        W22073  32.364   7.814   0.807
50458W        W22074  28.629  19.271  12.868
50459W        W22075  23.105  11.914  11.586
50460W        W22076  26.951   3.553  10.747
50461W        W22077  41.363  14.999  14.401
50462W        W22078  12.792  33.974   1.449
50463W        W22079   4.184  32.415   0.329
50464W        W22080  21.638  12.323  11.327
50465W        W22081  32.851  14.213   4.966
50466W        W22082  23.946  44.844  13.390
50467W        W22083  32.407  38.494   4.089
50468W        W22084   6.397  28.072   3.245
50469W        W22085  38.767  39.531  12.525
50470W        W22086   1.373   1.519   0.325
50471W        W22087  32.386  36.598   0.442
50472W        W22088   9.476  27.440   2.365
50473W        W22089   2.477  17.789   3.819
50474W        W22090  17.191  35.991  10.708
50475W        W22091   5.683  40.192  12.096
50476W        W22092  30.707  26.440  12.337
50477W        W22093  21.150   4.275   0.511
50478W        W22094  11.417  26.621  10.737
50479W        W22095  39.047  24.420  11.825
50480W        W22096  43.940  11.144  13.801
50481W        W22097  12.297  43.809   1.468
50482W        W22098  29.986  38.040  13.952
50483W        W22099  19.066  38.152  12.353
50484W        W22100  37.029  38.920  10.956
50485W        W22101  21.922  33.235   4.888
50486W        W22102  17.307  21.011  10.623
50487W        W22103  26.392   8.874  10.917
50488W        W22104  21.433  39.257   2.272
50489W        W22105  30.009   3.048   0.447
50490W        W22106  23.136  38.687   3.264
50491W        W22107  44.489  19.263  12.504
50492W        W22108  34.076  37.073   4.801
50493W        W22109  10.210  39.852  10.252
50494W        W22110  44.158  38.262   1.864
50495W        W22111  44.452   4.372  12.678
50496W        W22112   5.991  37.547  14.745
50497W        W22113  20.590   7.407  13.386
50498W        W22114  13.903  15.678   2.241
50499W        W22115  28.562  16.440   9.664
50500W        W22116  19.634  31.080  13.506
50501W        W22117   8.452  38.497  13.890
50502W        W22118   5.513  36.413   0.349
50503W        W22119   4.943  35.933  14.006
50504W        W22120  34.541  33.931   0.946
50505W        W22121  10.702  22.925  14.324
50506W        W22122  36.151  44.669  11.182
50507W        W22123  28.966  23.260   2.244
50508W        W22124  23.617  42.176  11.634
50509W        W22125   4.881   2.985   2.154
50510W        W22126  16.785  12.715   4.399
50511W        W22127  44.915  27.639   4.465
50512W        W22128  32.483  26.970   2.261
50513W        W22129  18.303   3.664   3.257
50514W        W22130  44.495  31.097   2.752
50515W        W22131  33.467  37.113   4.204
50516W        W22132   7.469  38.388  13.057
50517W        W22133  43.255   8.777   2.410
50518W        W22134   0.292  29.183  14.964
50519W        W22135   3.689  37.042  14.990
50520W        W22136   7.862  38.878  12.026
50521W        W22137  32.403   3.884   0.515
50522W        W22138   9.256  32.317   1.751
50523W        W22139  41.322  44.390  12.395
50524W        W22140   7.197   0.777  14.390
50525W        W22141  21.610  21.733   3.661
50526W        W22142  30.343  22.218   0.468
50527W        W22143  35.755   5.701   4.438
50528W        W22144  28.483  15.106  10.822
50529W        W22145  19.285  29.346  13.477
50530W        W22146  42.943  18.824   4.147
50531W        W22147  26.032  26.624   0.069
50532W        W22148   3.871  24.043  14.766
50533W        W22149  44.269  31.326  14.896
50534W        W22150   0.140  33.863   0.685
50535W        W22151   8.109  13.182   3.212
50536W        W22152  27.178   4.467   1.309
50537W        W22153  13.718  22.823  14.657
50538W        W22154   5.783  40.627  12.874
50539W        W22155  22.706  18.359  10.450
50540W        W22156   2.909  12.787  13.291
50541W        W22157  42.685  34.850  13.984
50542W        W22158  34.623  25.654   2.621
50543W        W22159  14.560  38.315  12.939
50544W        W22160  43.100  27.184  10.624
50545W        W22161  31.050   3.664  13.132
50546W        W22162  30.593   2.784   3.215
50547W        W22163  42.815  21.003   4.043
50548W        W22164  22.929  20.963   1.487
50549W        W22165   6.166   3.517  11.252
50550W        W22166   2.004  19.144   2.771
50551W        W22167  29.622   7.163   0.898
50552W        W22168  31.051  42.325  12.198
50553W        W22169  37.588  10.259  13.031
50554W        W22170   7.795  36.019   4.016
50555W        W22171  10.132  22.150  14.337
50556W        W22172  33.057  21.768   3.730
50557W        W22173   6.526   7.605   0.790
50558W        W22174   8.268   1.888  14.424
50559W        W22175  12.365  18.736   3.793
50560W        W22176   0.909  40.342  11.651
50561W        W22177  19.149  36.880   1.957
50562W        W22178  36.766   1.769   4.095
50563W        W22179  40.574   2.297   2.968
50564W        W22180  27.175  16.100   1.525
50565W        W22181  13.834   3.041  13.050
50566W        W22182  32.044  10.474  12.893
50567W        W22183  23.242  23.624  11.607
50568W        W22184  43.672  31.847   1.680
50569W        W22185  12.187  39.804   0.317
50570W        W22186   3.043  14.885  13.027
50571W        W22187  26.784  29.945  10.709
50572W        W22188  24.595  36.972   0.769
50573W        W22189  10.064  15.235   2.116
50574W        W22190   3.976  42.856   2.652
50575W        W22191   4.255  40.040   0.560
50576W        W22192   7.699   7.176   4.598
50577W        W22193  28.643   9.877   0.780
50578W        W22194  34.270  40.909   0.632
50579W        W22195  19.181   6.321  14.826
50580W        W22196  30.564   7.179  10.433
50581W        W22197   0.545  15.217  13.350
50582W        W22198  31.915  27.092  11.164
50583W        W22199  12.316  42.016  11.054
50584W        W22200  20.166  36.068  12.970
50585W        W22201  41.413   9.750  14.339
50586W        W22202  22.288  38.971  10.449
50587W        W22203  13.621  31.420   2.782
50588W        W22204  18.795  36.067   2.423
50589W        W22205   3.353  32.543  14.259
50590W        W22206  25.449  35.975   5.120
50591W        W22207   4.425  23.590   0.266
50592W        W22208  41.617  35.140   2.888
50593W        W22209  32.043  31.592   1.479
50594W        W22210   5.726  34.475  14.358
50595W        W22211  42.772  15.719   4.661
50596W        W22212   6.894  31.033  14.268
50597W        W22213  15.128  33.766   4.686
50598W        W22214  28.900  14.279   2.491
50599W        W22215  28.126   4.622  13.437
50600W        W22216  39.359  11.530   4.063
50601W        W22217  15.288  44.757   0.979
50602W        W22218  36.331   8.709  12.856
50603W        W22219  13.678  17.183  13.489
50604W        W22220  19.909  39.899  13.925
50605W        W22221  13.724   4.719   2.673
50606W        W22222  27.774   0.542  14.742
50607W        W22223  22.169  39.455  12.172
50608W        W22224  40.325  39.290   4.169
50609W        W22225   2.245  21.485  13.025
50610W        W22226  22.685  41.552   4.567
50611W        W22227  42.383   1.330   1.015
50612W        W22228  44.873  33.546   3.802
50613W        W22229  27.377  27.539   2.862
50614W        W22230  26.619  19.952   4.625
50615W        W22231  33.957  21.641  10.700
50616W        W22232  19.959  23.011   0.833
50617W        W22233  44.113  29.038  10.383
50618W        W22234  21.962  43.600  11.177
50619W        W22235  44.200  19.899  13.286
50620W        W22236   7.564  29.204  13.547
50621W        W22237  31.439  14.344  11.631
50622W        W22238  39.987  27.769  14.780
50623W        W22239  17.701  18.498  12.003
50624W        W22240   7.742   8.898  10.604
50625W        W22241  36.934   8.897  12.338
50626W        W22242  10.522  33.607   3.361
50627W        W22243  15.342  13.913  12.084
50628W        W22244  12.320  28.484   2.126
50629W        W22245  24.752  22.749   3.651
50630W        W22246  20.224  34.091   0.440
50631W        W22247  30.847  34.474   3.709
50632W        W22248  41.874  16.288   2.573
50633W        W22249   7.345  36.539  11.612
50634W        W22250  10.592   9.154  14.472
50635W        W22251  38.846   8.157   2.868
50636W        W22252  24.157  32.032   1.226
50637W        W22253   3.742  36.874   3.302
50638W        W22254  13.867  25.487  14.498
50639W        W22255   3.193  41.933   3.236
50640W        W22256  27.723   7.480  13.883
50641W        W22257  14.331  25.410   4.313
50642W        W22258  24.738  29.898   2.126
50643W        W22259  25.037  39.130  10.978
50644W        W22260  24.044  18.737   4.563
50645W        W22261  42.430  38.384   0.670
50646W        W22262  30.609  13.873   2.621
50647W        W22263  36.049  40.512   1.236
50648W        W22264  16.681  40.392   1.246
50649W        W22265  29.188  33.464  12.392
50650W        W22266  13.112  22.966   3.299
50651W        W22267  30.388  37.858  12.168
50652W        W22268  31.296  32.499  13.310
50653W        W22269  11.717   1.747  11.538
50654W        W22270  31.330  44.835  11.798
50655W        W22271  38.081   4.728   3.784
50656W        W22272  36.620  16.334  11.979
50657W        W22273  25.168  41.332   0.355
50658W        W22274  37.611  11.219   2.664
50659W        W22275  14.109  24.852  13.315
50660W        W22276  28.013   7.755   2.496
50661W        W22277  18.264   5.981   2.386
50662W        W22278  35.605   9.894   0.784
50663W        W22279  16.203  21.617   0.703
50664W        W22280  20.387  31.925   2.687
50665W        W22281   8.164  29.239   2.682
50666W        W22282  44.904  30.690  11.598
50667W        W22283   4.773  21.532  13.740
50668W        W22284   7.294  37.393  14.470
50669W        W22285  17.838  17.199   1.615
50670W        W22286  33.402  23.289   4.627
50671W        W22287  36.795  37.757  12.531
50672W        W22288  39.401   4.753   1.966
50673W        W22289  22.542  28.633  14.982
50674W        W22290  32.260  30.642  14.397
50675W        W22291  11.932  31.063   3.346
50676W        W22292  14.743  21.695   4.107
50677W        W22293  38.183   4.945  12.117
50678W        W22294  37.867  18.085  11.149
50679W        W22295  29.369  32.995  11.516
50680W        W22296  30.278  18.625   3.129
50681W        W22297  19.767  41.790   0.803
50682W        W22298  37.098  38.427   0.961
50683W        W22299  23.036  15.708   1.950
50684W        W22300  27.444   1.740  12.411
50685W        W22301  21.551  37.134  12.419
50686W        W22302   3.804   1.276   5.490
50687W        W22303  39.996   7.809   0.478
50688W        W22304   8.645  36.077  13.073
50689W        W22305  13.020  15.302   2.371
50690W        W22306  21.358  39.689   4.984
50691W        W22307  40.786  25.974   3.766
50692W        W22308  27.086   6.392  11.525
50693W        W22309  31.106   2.377   3.372
50694W        W22310  13.245  39.709   4.883
50695W        W22311  25.595  24.275  11.107
50696W        W22312  17.438  34.601   3.348
50697W        W22313  13.620   7.355   4.996
50698W        W22314  38.499  31.085   2.251
50699W        W22315  38.753  42.357   3.239
50700W        W22316  26.501  35.113  12.085
50701W        W22317  43.822  29.959   2.632
50702W        W22318  33.856  33.193  11.069
50703W        W22319  20.623  41.264  13.016
50704W        W22320   6.782  18.219  11.639
50705W        W22321  13.022  23.745   3.856
50706W        W22322  34.039  16.727   0.987
50707W        W22323  18.097   6.908   0.909
50708W        W22324  22.633  10.844   4.768
50709W        W22325  36.585  13.564  10.677
50710W        W22326   3.071  14.379   2.953
50711W        W22327  21.103   5.784  11.465
50712W        W22328  38.721  25.606   4.112
50713W        W22329  23.372  10.265  12.401
50714W        W22330  35.570  23.141   4.521
50715W        W22331  12.211  11.842   2.847
50716W        W22332  21.144   2.464  10.753
50717W        W22333   5.247  40.517  14.428
50718W        W22334  39.663  35.742  12.501
50719W        W22335  31.390  27.779  10.489
50720W        W22336   9.884  27.487   0.781
50721W        W22337   2.717  23.405   4.537
50722W        W22338  26.502  32.063  14.805
50723W        W22339   9.861  28.828   3.770
50724W        W22340  37.994  37.068   1.352
50725W        W22341  11.643  27.146  13.819
50726W        W22342   0.468  31.133  13.436
50727W        W22343  32.363  21.309  11.219
50728W        W22344   6.093  39.072   4.382
50729W        W22345   7.404   7.853  14.709
50730W        W22346  38.841  16.332   0.929
50731W        W22347  32.377   5.227   0.421
50732W        W22348   3.307  22.253   1.463
50733W        W22349   9.602  13.846  13.500
50734W        W22350  32.982   9.617  10.664
50735W        W22351  28.111  31.357  13.910
50736W        W22352  39.801  22.155   4.431
50737W        W22353  28.047  27.132   1.696
50738W        W22354  18.643  11.170  14.924
50739W        W22355  13.433  29.046  12.508
50740W        W22356   7.862  37.983  14.982
50741W        W22357  31.818  25.846  13.625
50742W        W22358  38.127  37.791  13.992
50743W        W22359  42.423  19.808   2.859
50744W        W22360  23.699  25.226   0.719
50745W        W22361  18.379  35.143   1.850
50746W        W22362   9.787  19.218   3.888
50747W        W22363  31.181  40.894   4.353
50748W        W22364   9.308  43.533   0.237
50749W        W22365  26.930  25.601   0.373
50750W        W22366  28.983  40.319   2.353
50751W        W22367  33.140  30.945  13.451
50752W        W22368  39.770  29.133  11.967
50753W        W22369  27.147  38.994   4.130
50754W        W22370  29.331  35.951   0.819
50755W        W22371   6.512  35.456   1.250
50756W        W22372  14.120  36.608   0.238
50757W        W22373  21.679  26.605   2.807
50758W        W22374  34.992  40.762   4.544
50759W        W22375  43.328  16.643   4.848
50760W        W22376  26.058  23.130   4.569
50761W        W22377  34.699  12.765  13.483
50762W        W22378  16.682  16.090   5.398
50763W        W22379   4.317  31.553   4.920
50764W        W22380   3.518  11.599   0.184
50765W        W22381  15.308  27.479   2.204
50766W        W22382   6.125  31.012  11.111
50767W        W22383  30.411  33.158   1.813
50768W        W22384  31.199  37.386   2.667
50769W        W22385  32.602  19.620  13.035
50770W        W22386   4.146  26.452  11.848
50771W        W22387  26.468   4.728   2.415
50772W        W22388  18.103  30.240  11.553
50773W        W22389   6.978  15.259   3.566
50774W        W22390  11.173   3.004  14.098
50775W        W22391  20.266  34.409  13.841
50776W        W22392  17.266  26.241   2.928
50777W        W22393  22.634  37.403   1.334
50778W        W22394  14.497  40.970  14.764
50779W        W22395  39.956  21.316   0.981
50780W        W22396  22.668   1.744  11.636
50781W        W22397   5.598   7.940  10.674
50782W        W22398   0.478  17.396   2.399
50783W        W22399   7.717  28.925   0.729
50784W        W22400  25.677  31.511   2.194
50785W        W22401  23.062   3.449  13.433
50786W        W22402  20.552   7.242  12.616
50787W        W22403   0.200  32.119  13.865
50788W        W22404   7.799  24.047  13.291
50789W        W22405  33.561  42.028   0.909
50790W        W22406  12.373  12.781  12.000
50791W        W22407   4.691   3.746   4.670
50792W        W22408  37.480  21.682  12.462
50793W        W22409  19.279   6.308  12.812
50794W        W22410  15.481  40.606   4.265
50795W        W22411  36.421  34.020   1.248
50796W        W22412  39.461  44.302   3.083
50797W        W22413  25.599  25.602   2.656
50798W        W22414  10.867  30.392  11.851
50799W        W22415   7.784   8.062  13.750
50800W        W22416  16.174  10.326  12.986
50801W        W22417  27.593  37.741  12.470
50802W        W22418  44.714  32.048   1.804
50803W        W22419  24.073  28.723   0.320
50804W        W22420  40.537  33.513   3.438
50805W        W22421   1.704  13.448   3.353
50806W        W22422  23.183  22.679  14.422
50807W        W22423   6.816  32.523   1.332
50808W        W22424  17.764  22.034  11.541
50809W        W22425  43.573   7.251   0.970
50810W        W22426  23.732  29.521  13.488
50811W        W22427   9.612  22.457  10.627
50812W        W22428  16.212   7.231  14.003
50813W        W22429   6.695  34.422   2.046
50814W        W22430  25.564  24.609   4.680
50815W        W22431   9.370   9.806  14.342
50816W        W22432  22.586  35.065  12.278
50817W        W22433  37.809  18.480   2.938
50818W        W22434  18.420  10.892  11.633
50819W        W22435   9.929  12.081   2.899
50820W        W22436   5.743  36.608   0.789
50821W        W22437   2.237   0.268  14.084
50822W        W22438  42.045  14.799  13.978
50823W        W22439  17.354  14.118   2.531
50824W        W22440  13.875   6.406  14.355
50825W        W22441  22.559  38.418  10.069
50826W        W22442  43.569  31.705   3.455
50827W        W22443  16.543   8.340   2.300
50828W        W22444  41.889  10.369  12.636
50829W        W22445  17.513  17.747   0.725
50830W        W22446  14.523  24.997   4.631
50831W        W22447  27.955  36.844   0.746
50832W        W22448   2.269  38.568  13.551
50833W        W22449  43.308  17.423  12.182
50834W        W22450  42.805  44.022  13.929
50835W        W22451   9.178  43.955  12.792
50836W        W22452  10.366  26.477  12.990
50837W        W22453   4.614   0.491  10.187
50838W        W22454  27.563  28.042  10.860
50839W        W22455  15.617  29.989   2.410
50840W        W22456  31.102  27.160   0.539
50841W        W22457   8.274   5.019   0.873
50842W        W22458  21.027  28.151   2.419
50843W        W22459   4.282   6.243   3.626
50844W        W22460  11.713  18.267  11.714
50845W        W22461  31.532   3.802   3.115
50846W        W22462  23.777   4.879  13.328
50847W        W22463  21.589  39.789   3.837
50848W        W22464  44.270  41.900  13.026
50849W        W22465  33.935  44.259   2.663
50850W        W22466  24.814   7.329   3.252
50851W        W22467  17.697  35.922  14.990
50852W        W22468  19.103  31.435   0.926
50853W        W22469  25.934  32.991   0.770
50854W        W22470   0.277  22.061  12.614
50855W        W22471  11.862  33.115   2.679
50856W        W22472   1.979  29.490  14.330
50857W        W22473  11.690  19.306  11.488
50858W        W22474   1.931  22.317  12.128
50859W        W22475  29.695  20.771   2.701
50860W        W22476  31.336  14.122   1.558
50861W        W22477  33.870   0.718   2.622
50862W        W22478  22.140  39.762  14.803
50863W        W22479  41.002  25.594   4.075
50864W        W22480  24.797  24.917  13.317
50865W        W22481   2.060  17.629  12.507
50866W        W22482  29.089   2.374  12.627
50867W        W22483  35.660  25.747   0.442
50868W        W22484  22.546  10.364   4.562
50869W        W22485  30.216  14.294  11.350
50870W        W22486  22.296   7.003  14.419
50871W        W22487  39.088  21.298  11.989
50872W        W22488  28.080   0.315  14.339
50873W        W22489   9.408   2.424  11.343
50874W        W22490  39.464  13.844  12.035
50875W        W22491  42.352  42.957  10.889
50876W        W22492  12.860  34.777  12.313
50877W        W22493   6.820  28.130  14.764
50878W        W22494  21.166  29.561  12.319
50879W        W22495   4.103  23.736   4.641
50880W        W22496  10.282  18.994  11.181
50881W        W22497  15.102  16.329  11.925
50882W        W22498  18.793  39.427   0.438
50883W        W22499   0.446  29.507  12.538
50884W        W22500  25.514  37.776   4.201
50885W        W22501   2.258  41.370   4.023
50886W        W22502  13.610  32.725  11.138
50887W        W22503   0.688  19.307  10.521
50888W        W22504  11.899  13.750  10.348
50889W        W22505  28.443  17.140   0.251
50890W        W22506  18.297  10.688  11.165
50891W        W22507  24.976  17.223   0.732
50892W        W22508   2.739  36.016  10.750
50893W        W22509   6.792   7.188  11.569
50894W        W22510  12.659  21.046  13.349
50895W        W22511  40.949  20.804   3.260
50896W        W22512  16.040   8.600  11.645
50897W        W22513  32.244  22.339  14.386
50898W        W22514  20.489  35.667  11.587
50899W        W22515  30.167  25.125  13.782
50900W        W22516  28.859  42.869  13.554
50901W        W22517  26.026   9.188   1.681
50902W        W22518   2.933   9.441  12.457
50903W        W22519  22.116   8.484   4.361
50904W        W22520  35.057  14.541  11.925
50905W        W22521  33.889  33.566   2.372
50906W        W22522  35.973  35.167  14.725
50907W        W22523  29.566  35.350   3.326
50908W        W22524  23.740  23.638  11.653
50909W        W22525  22.965  41.030   1.270
50910W        W22526  21.630  21.046   0.956
50911W        W22527  41.411  18.081   3.125
50912W        W22528  21.283  23.179  11.027
50913W        W22529   3.925  41.091  13.865
50914W        W22530   6.631  37.239  12.031
50915W        W22531  33.577  16.873   1.827
50916W        W22532   0.565  35.962   3.583
50917W        W22533  28.838  31.084  11.078
50918W        W22534  37.970  10.554  14.463
50919W        W22535   2.280   7.165  11.993
50920W        W22536   7.709   4.179   1.419
50921W        W22537  13.958   6.284  10.096
50922W        W22538  41.115  27.553  13.345
50923W        W22539  24.110  31.385  10.484
50924W        W22540  43.482  30.619  13.370
50925W        W22541  43.810   4.421   1.697
50926W        W22542  19.314  20.476   2.881
50927W        W22543  15.560  21.312   0.960
50928W        W22544  41.598  20.203   2.966
50929W        W22545  25.155  15.313   2.769
50930W        W22546  31.959  29.155   2.567
50931W        W22547  40.755   0.258  11.971
50932W        W22548  24.687  44.741   4.620
50933W        W22549   9.275  36.874   0.966
50934W        W22550   5.997  24.152   2.704
50935W        W22551   1.729  12.343  11.959
50936W        W22552   6.489  31.767  11.614
50937W        W22553  14.683  10.722  11.593
50938W        W22554  42.441   2.407  10.708
50939W        W22555  30.194  26.274   4.605
50940W        W22556  36.853   0.249   0.734
50941W        W22557   3.430  23.417  10.673
50942W        W22558  11.781  29.274  12.016
50943W        W22559  17.279   9.314   2.867
50944W        W22560  34.004   1.394   3.073
50945W        W22561  43.376  16.755   3.421
50946W        W22562  43.532   4.101   4.105
50947W        W22563  38.406  40.496  11.548
50948W        W22564  31.547  39.299  13.949
50949W        W22565  40.970  40.557  13.969
50950W        W22566   2.680  37.597   3.607
50951W        W22567  43.282  22.842  11.858
50952W        W22568   9.416  44.646  11.370
50953W        W22569   9.338  38.148   1.805
50954W        W22570  21.528  33.072  14.683
50955W        W22571  38.277  30.580   0.929
50956W        W22572   9.680  13.335   3.409
50957W        W22573  44.815  30.328   3.189
50958W        W22574  12.821  27.014   3.161
50959W        W22575  18.955   3.862  11.897
50960W        W22576  41.071   3.545   1.297
50961W        W22577   5.469  32.550  10.546
50962W        W22578  12.483  29.651   2.396
50963W        W22579  43.417  14.611  14.839
50964W        W22580  25.259  42.868   4.222
50965W        W22581  22.535  36.867   4.136
50966W        W22582  39.739   1.392  12.473
50967W        W22583  11.116  33.004  14.020
50968W        W22584  22.919   5.211   0.805
50969W        W22585  12.265  36.899  12.623
50970W        W22586  10.556  28.152  10.397
50971W        W22587  14.601  18.009  11.134
50972W        W22588  26.165  41.013   0.778
50973W        W22589  34.084  11.420   1.750
50974W        W22590  42.000  31.911  13.449
50975W        W22591  22.830   9.390  13.925
50976W        W22592  26.508  18.092   3.941
50977W        W22593  10.719  39.632   1.892
50978W        W22594  23.124  22.698   0.551
50979W        W22595  31.543  42.583  14.851
50980W        W22596   7.623  31.700   2.409
50981W        W22597   7.886  23.724  12.784
50982W        W22598  39.487  14.207  11.249
50983W        W22599   4.134  18.445  13.375
50984W        W22600  37.842  23.251   2.979
50985W        W22601   8.421   5.765  10.963
50986W        W22602  31.121   9.153   0.278
50987W        W22603  15.510  20.434  14.801
50988W        W22604   6.031  29.121   3.866
50989W        W22605   2.479  33.328  13.022
50990W        W22606  10.154  16.597  10.283
50991W        W22607  36.566  37.944  12.941
50992W        W22608  10.217  19.044  12.040
50993W        W22609  15.031  22.161  11.080
50994W        W22610  22.282   2.936   0.893
50995W        W22611   5.956  37.925   1.871
50996W        W22612  12.290  20.774  12.940
50997W        W22613  42.401   3.805  12.967
50998W        W22614  35.119  38.644   1.471
50999W        W22615  30.496  22.404  14.857
51000W        W22616  20.474   5.704   3.615
51001W        W22617   6.943  15.375   0.930
51002W        W22618  32.104  23.161   0.917
51003W        W22619  40.837  20.239   2.366
51004W        W22620  30.605  42.004  10.458
51005W        W22621  13.524   7.803   1.031
51006W        W22622  28.056  20.969  12.898
51007W        W22623  35.975  18.177   1.742
51008W        W22624  24.558  39.467   3.842
51009W        W22625  39.453   1.224   3.419
51010W        W22626  42.579  38.346   2.958
51011W        W22627  25.565   1.267  13.721
51012W        W22628  16.098  32.656  14.369
51013W        W22629  19.702  34.603   4.205
51014W        W22630   3.171  38.834  10.613
51015W        W22631   4.443  36.347   4.707
51016W        W22632   7.236  18.098  13.606
51017W        W22633  36.955   9.605  13.821
51018W        W22634  14.397  44.388  11.478
51019W        W22635  36.914   3.445  12.134
51020W        W22636  11.989   4.244   2.591
51021W        W22637  22.149  32.109  11.068
51022W        W22638  28.396  24.024   1.803
51023W        W22639  27.559  20.770   0.809
51024W        W22640  25.432  28.441  12.510
51025W        W22641  19.079  11.189   4.086
51026W        W22642  19.623  37.601  14.473
51027W        W22643   2.237  42.792  14.947
51028W        W22644  22.439  33.587   2.729
51029W        W22645  18.795  23.507   0.365
51030W        W22646  11.093  43.366   2.727
51031W        W22647  36.788  22.475   4.757
51032W        W22648   3.985  15.100   3.131
51033W        W22649   0.363   4.692  14.971
51034W        W22650  25.534   2.280   2.637
51035W        W22651  38.162  37.254   4.054
51036W        W22652  16.838   8.225  13.502
51037W        W22653  20.710   5.271  14.318
51038W        W22654   2.647  36.047  12.903
51039W        W22655  14.492   5.863   1.788
51040W        W22656  16.996  29.620  11.023
51041W        W22657  42.302  30.764  11.076
51042W        W22658  21.192  42.657   1.424
51043W        W22659   5.825  30.869  13.985
51044W        W22660  35.893  43.537   3.734
51045W        W22661   9.155  12.089  11.843
51046W        W22662  44.594  37.267   3.600
51047W        W22663  37.706  27.126  13.007
51048W        W22664  28.156   5.856   4.412
51049W        W22665  43.540  32.960   3.309
51050W        W22666  31.069  23.950   1.881
51051W        W22667  39.341  17.546   1.712
51052W        W22668  14.223  33.983   3.287
51053W        W22669  14.780  19.160  14.722
51054W        W22670  44.696   5.643  13.317
51055W        W22671  24.138  37.505  14.046
51056W        W22672  25.698  27.086  14.495
51057W        W22673  41.931  10.841   4.651
51058W        W22674  10.739   2.178  14.724
51059W        W22675  13.280  22.917  10.769
51060W        W22676  15.828  40.839  14.339
51061W        W22677  39.331  32.174  12.350
51062W        W22678  15.220   6.962   2.358
51063W        W22679  14.686  12.318   3.110
51064W        W22680  18.880  16.481   0.675
51065W        W22681  41.971  35.885  12.606
51066W        W22682   5.233  24.642   1.433
51067W        W22683  20.827   0.942   4.038
51068W        W22684   3.812   2.011  14.019
51069W        W22685   1.031  36.605   3.603
51070W        W22686  35.558  40.070  14.861
51071W        W22687   8.074  29.120   1.670
51072W        W22688  12.975  44.771  14.392
51073W        W22689  16.864  41.549  14.829
51074W        W22690  39.070  13.658   0.212
51075W        W22691  31.628  21.394   3.851
51076W        W22692  21.084  19.957  12.874
51077W        W22693  12.718  44.307  11.012
51078W        W22694   9.319  37.947  13.043
51079W        W22695  21.675   2.920   4.591
51080W        W22696  37.824  29.955   0.241
51081W        W22697  37.326  27.592   0.760
51082W        W22698  14.392  32.532  12.857
51083W        W22699  32.344  24.274   4.504
51084W        W22700  18.188  24.222   4.631
51085W        W22701  10.569  25.557  14.319
51086W        W22702  40.807  17.203  14.652
51087W        W22703   7.650  40.113  12.770
51088W        W22704  10.123  44.206   0.283
51089W        W22705   9.489  23.725   5.097
51090W        W22706  44.336   6.508  12.412
51091W        W22707  44.495  11.614  11.405
51092W        W22708   1.316  16.461   1.276
51093W        W22709  16.305  35.317  13.821
51094W        W22710  38.136  27.477   0.271
51095W        W22711  33.063  11.105   4.643
51096W        W22712  14.684  44.282  11.915
51097W        W22713   6.962  42.994   2.902
51098W        W22714   1.473  26.058  10.612
51099W        W22715   8.301  40.000   3.295
51100W        W22716  35.498  18.647   0.529
51101W        W22717  37.143  31.561  10.529
51102W        W22718  25.021  13.167  13.043
51103W        W22719  26.030  26.482   3.983
51104W        W22720  16.673   7.809  11.433
51105W        W22721   1.861  29.551  11.311
51106W        W22722  21.757   9.981  14.837
51107W        W22723  11.376  43.799   2.870
51108W        W22724  25.400  29.411   4.174
51109W        W22725   4.165   3.116  11.272
51110W        W22726  42.617  20.182   4.553
51111W        W22727  43.959  44.922  12.878
51112W        W22728  23.213   1.436   2.620
51113W        W22729  25.340   6.909  14.446
51114W        W22730  20.549   5.921   1.062
51115W        W22731  44.500  38.168   0.779
51116W        W22732  32.190  30.093   0.274
51117W        W22733   9.773   0.933  13.954
51118W        W22734   5.862  43.815  14.332
51119W        W22735  23.185  42.370  11.822
51120W        W22736  16.119  10.768   3.746
51121W        W22737   3.319   8.883  10.613
51122W        W22738  25.739  32.774  11.301
51123W        W22739  24.109  20.188   2.127
51124W        W22740  43.463   4.323   3.294
51125W        W22741   8.016  24.753   1.851
51126W        W22742   5.288  37.005   1.828
51127W        W22743  44.534   1.099   0.973
51128W        W22744  16.298  26.087   4.701
51129W        W22745  15.114  10.744  14.995
51130W        W22746  43.944  21.721   4.572
51131W        W22747   5.433  43.492   4.853
51132W        W22748   1.681  44.965   4.248
51133W        W22749  31.034   4.375  11.548
51134W        W22750   0.471  20.259  13.489
51135W        W22751  27.990  32.420   3.413
51136W        W22752  21.591  34.521  13.738
51137W        W22753  33.562  36.605   2.934
51138W        W22754  25.011  20.018   2.817
51139W        W22755  23.980   6.888  12.545
51140W        W22756  10.515  16.829  14.330
51141W        W22757   2.229   6.177  12.127
51142W        W22758  40.806  18.067   0.026
51143W        W22759  17.198   6.910   2.932
51144W        W22760  13.769  42.984   4.702
51145W        W22761  18.627   4.353   2.537
51146W        W22762  19.464  12.293  12.872
51147W        W22763  40.560  41.390  14.904
51148W        W22764  36.865  38.777   3.228
51149W        W22765  18.012  43.348  14.365
51150W        W22766  13.383  14.076  10.606
51151W        W22767   5.257   5.160  14.482
51152W        W22768  28.171  43.751   2.249
51153W        W22769  20.070  30.509  12.551
51154W        W22770  33.108  35.997  11.718
51155W        W22771  26.684  39.588  13.454
51156W        W22772   5.216  34.459  14.357
51157W        W22773  15.788  16.833   1.243
51158W        W22774  26.193  11.843   3.370
51159W        W22775  30.190  20.779   2.864
51160W        W22776  22.769  16.143  11.906
51161W        W22777  15.834  38.936  10.651
51162W        W22778  10.320  11.398   4.076
51163W        W22779   6.892  28.217   4.141
51164W        W22780   3.973  39.813  11.951
51165W        W22781  20.734  27.592  13.837
51166W        W22782  13.723  28.182   4.562
51167W        W22783  12.661  17.870  11.126
51168W        W22784  25.603  23.440   5.084
51169W        W22785  12.091  25.544   0.219
51170W        W22786  33.605  43.391   3.818
51171W        W22787   3.162  16.086  13.797
51172W        W22788  23.961  16.715  13.002
51173W        W22789  34.894   6.899  12.614
51174W        W22790   6.473  12.840  10.663
51175W        W22791  43.540  43.837   4.371
51176W        W22792  17.139   4.317   4.320
51177W        W22793  17.743  20.758   3.772
51178W        W22794  20.229  21.153  14.015
51179W        W22795  10.364   4.385   1.380
51180W        W22796  16.393  17.098   4.586
51181W        W22797   7.668  18.309   1.311
51182W        W22798  31.056   7.690   0.299
51183W        W22799  35.957   1.408  12.954
51184W        W22800  18.117  23.172  14.291
51185W        W22801   1.670  42.829   4.736
51186W        W22802  38.993  38.938   2.238
51187W        W22803  27.937  44.062  13.421
51188W        W22804  40.860  21.224  12.906
51189W        W22805  38.261  36.373   0.982
51190W        W22806  36.916  42.916  10.588
51191W        W22807  32.014   3.714   3.349
51192W        W22808   8.232  16.158   3.577
51193W        W22809  18.924  28.051  14.309
51194W        W22810  35.991  42.766   4.927
51195W        W22811  31.663  11.399   1.781
51196W        W22812  13.227  38.207  11.462
51197W        W22813   5.405   6.520  13.245
51198W        W22814   6.626  28.106   2.586
51199W        W22815  39.386  39.493   2.661
51200W        W22816  34.788  18.483   2.247
51201W        W22817  17.740  30.507   2.864
51202W        W22818   6.424  30.016   3.256
51203W        W22819  37.068  32.210   1.231
51204W        W22820  25.905  25.157  12.461
51205W        W22821  40.335  34.137   2.736
51206W        W22822  21.060   1.572  14.386
51207W        W22823  11.665  31.483  12.837
51208W        W22824  43.183   2.229  14.891
51209W        W22825  24.329  25.060   2.903
51210W        W22826  40.561   9.635   2.272
51211W        W22827  39.559  42.032  13.833
51212W        W22828  32.461  19.822   4.058
51213W        W22829   6.403   0.717  14.756
51214W        W22830  11.884  43.998  11.565
51215W        W22831  28.529   2.219  10.896
51216W        W22832  25.127  23.757  12.572
51217W        W22833   4.932   1.304  11.313
51218W        W22834  24.399  17.944   2.511
51219W        W22835  40.054  42.973  13.913
51220W        W22836  39.078  21.769   2.273
51221W        W22837   7.214  30.562   2.071
51222W        W22838  37.667  27.758   0.287
51223W        W22839  17.466  35.897   3.149
51224W        W22840  23.045  18.643  11.714
51225W        W22841  34.822   3.383  10.608
51226W        W22842  16.239  15.515  11.041
51227W        W22843  34.792   1.890  14.784
51228W        W22844  44.892   1.316   4.440
51229W        W22845  35.459  39.490   3.612
51230W        W22846  37.802  38.714   1.910
51231W        W22847   3.445   3.426   4.743
51232W        W22848  32.886  34.499  13.244
51233W        W22849  15.118  28.862  10.690
51234W        W22850  22.539   3.745   1.983
51235W        W22851   3.939   9.583   2.157
51236W        W22852  31.114  23.497  14.349
51237W        W22853  29.456  12.290  13.957
51238W        W22854  34.884   4.108   0.978
51239W        W22855  26.861  23.975  13.768
51240W        W22856  29.044   2.294   1.898
51241W        W22857  45.000  31.006   2.789
51242W        W22858  37.888  29.935   1.971
51243W        W22859  22.714   0.637   0.305
51244W        W22860  29.716  36.635  12.491
51245W        W22861  16.751  17.618   1.183
51246W        W22862  16.237  32.837  14.843
51247W        W22863  17.289   7.252   2.234
51248W        W22864  27.600   7.792  14.850
51249W        W22865  17.780  44.614   9.776
51250W        W22866  44.244  19.705  12.356
51251W        W22867  27.172  23.593  11.926
51252W        W22868  37.361   8.380   2.722
51253W        W22869   2.551   1.135  13.737
51254W        W22870  21.273   2.890  12.335
51255W        W22871   6.137  26.197   3.222
51256W        W22872  27.428  17.104   0.298
51257W        W22873   9.461  40.401  11.160
51258W        W22874   3.285  15.729   1.485
51259W        W22875  26.991  20.347  13.586
51260W        W22876  16.019  40.368  12.050
51261W        W22877  39.581  38.907  10.662
51262W        W22878  40.549  19.182   1.243
51263W        W22879  24.108   6.359  10.279
51264W        W22880  33.454  38.816   0.538
51265W        W22881  32.604  26.408  13.515
51266W        W22882  26.428   9.342   0.724
51267W        W22883  22.424  43.292   1.011
51268W        W22884  35.117   6.210   2.601
51269W        W22885   3.858  40.939   2.460
51270W        W22886  42.510  12.592   2.214
51271W        W22887  25.883   4.367   1.709
51272W        W22888  19.251  40.633  14.426
51273W        W22889  37.377   6.420   2.819
51274W        W22890  29.953  36.515  14.213
51275W        W22891  39.372   3.520  10.519
51276W        W22892  24.140  27.158  14.752
51277W        W22893  12.566  23.714   4.745
51278W        W22894  10.237  13.094   0.099
51279W        W22895  37.439  14.337  11.926
51280W        W22896  34.130   2.523   1.342
51281W        W22897   8.765  31.799   4.604
51282W        W22898   0.982  34.982  12.015
51283W        W22899   5.702  26.087   1.764
51284W        W22900   2.836  28.132   3.261
51285W        W22901  39.542  25.586   0.945
51286W        W22902  39.429  29.047   2.928
51287W        W22903  10.768  15.036  10.500
51288W        W22904  40.373  37.597   3.130
51289W        W22905  11.399   1.825   3.832
51290W        W22906  26.404  41.465  12.346
51291W        W22907  23.592  14.219   2.831
51292W        W22908  37.572  20.415  11.517
51293W        W22909   4.709  41.880   3.317
51294W        W22910  21.437  12.469  10.898
51295W        W22911  40.804  26.216  12.693
51296W        W22912  12.676  20.151  10.813
51297W        W22913   5.656  21.781  11.309
51298W        W22914  22.696  24.434  12.411
51299W        W22915  25.915  37.803   3.870
51300W        W22916  23.149  11.656  12.038
51301W        W22917  40.468  32.696  11.694
51302W        W22918  43.307  27.180   2.359
51303W        W22919  11.646   5.758   4.609
51304W        W22920  40.065  34.974   1.199
51305W        W22921  19.312   1.475   3.670
51306W        W22922   7.842  38.486   0.262
51307W        W22923   7.531  28.646   2.735
51308W        W22924   4.485   1.532   2.292
51309W        W22925  29.141  12.604  14.891
51310W        W22926  30.512  41.039  12.127
51311W        W22927  16.170   7.423  10.403
51312W        W22928   4.314  23.651   2.846
51313W        W22929  33.577  26.675   2.694
51314W        W22930  27.597  44.236   9.865
51315W        W22931  12.624  37.063   3.281
51316W        W22932  16.854   6.398   0.110
51317W        W22933  10.644  35.453   0.297
51318W        W22934  37.950   6.222   4.669
51319W        W22935  12.354  38.406   0.045
51320W        W22936  41.852   7.804  13.833
51321W        W22937  42.280  21.186   4.577
51322W        W22938  28.625  43.298   0.688
51323W        W22939  19.715  34.663   1.779
51324W        W22940  40.435  19.161   0.227
51325W        W22941  13.394  19.784  10.573
51326W        W22942  30.941  23.314  10.577
51327W        W22943  32.882   6.627  14.490
51328W        W22944  11.692  11.847   5.031
51329W        W22945   2.998  18.781  11.557
51330W        W22946  41.711  25.060   3.306
51331W        W22947  25.633  29.749   3.830
51332W        W22948  38.543   3.875  11.561
51333W        W22949  18.326  44.333  14.537
51334W        W22950  18.516  26.933  12.503
51335W        W22951  32.448  11.771  13.100
51336W        W22952  30.597  16.813   2.697
51337W        W22953  32.579   4.562  12.346
51338W        W22954  24.550   9.839  14.719
51339W        W22955   4.029  30.722  11.539
51340W        W22956  38.866  29.593  10.712
51341W        W22957  39.489   3.153   4.749
51342W        W22958   6.175  19.519  13.883
51343W        W22959   2.009  40.161  14.335
51344W        W22960  22.177  23.106  10.508
51345W        W22961  36.953  38.654   1.410
51346W        W22962   8.096   2.831  11.048
51347W        W22963  31.159  24.663  13.327
51348W        W22964  21.835  34.375   3.527
51349W        W22965   7.861  35.145  10.758
51350W        W22966  34.630  43.919  10.667
51351W        W22967   3.814  26.730   1.636
51352W        W22968  19.315  11.937  14.428
51353W        W22969  33.145   1.759   0.854
51354W        W22970  37.499  44.211   0.188
51355W        W22971  41.288  33.536  10.567
51356W        W22972  18.694  38.064   0.825
51357W        W22973  22.815  18.013   2.983
51358W        W22974  41.093   2.242   2.765
51359W        W22975  37.805  14.745   0.761
51360W        W22976  17.603   8.664  14.054
51361W        W22977  12.486  33.593  12.837
51362W        W22978   3.823  23.745  10.733
51363W        W22979  15.766  30.263   2.838
51364W        W22980  29.452  44.856   0.974
51365W        W22981   7.560  39.494  11.776
51366W        W22982  27.478  10.417   2.667
51367W        W22983  29.112   4.192   0.783
51368W        W22984  12.517  27.228  11.573
51369W        W22985   4.313  30.665   4.715
51370W        W22986  34.486  10.605   1.774
51371W        W22987  28.199  29.925  10.668
51372W        W22988   0.369  35.651  11.923
51373W        W22989  22.656  42.515   2.384
51374W        W22990  13.135  24.489  14.311
51375W        W22991  25.456  39.132   2.339
51376W        W22992  21.985   3.928   3.267
51377W        W22993   3.505  15.303   1.870
51378W        W22994  20.154  41.269  10.484
51379W        W22995  41.755  41.460  13.970
51380W        W22996  44.461  35.002   0.800
51381W        W22997  10.362  31.060  14.231
51382W        W22998   6.593  32.118   1.545
51383W        W22999  28.583   8.964   0.156
51384W        W23000  40.470  20.500   1.171
51385W        W23001  43.933  17.626   0.379
51386W        W23002  30.711   6.917  11.205
51387W        W23003  21.731  25.545  14.886
51388W        W23004  19.346  34.508   3.704
51389W        W23005  29.994  17.148  13.902
51390W        W23006  15.074  28.946  13.935
51391W        W23007  24.481  34.094  12.427
51392W        W23008  11.011  26.498   1.831
51393W        W23009   5.093  19.543   4.122
51394W        W23010  20.554  41.566  12.577
51395W        W23011  40.230  34.562  12.022
51396W        W23012  28.208   0.232   3.468
51397W        W23013   6.671  38.407   0.561
51398W        W23014  40.740  39.461  14.991
51399W        W23015   6.629  17.156  11.410
51400W        W23016   9.716  25.949  12.669
51401W        W23017   7.739  39.976  11.884
51402W        W23018  26.198  35.086   4.539
51403W        W23019  39.077  28.536  13.770
51404W        W23020  22.545   3.257  11.687
51405W        W23021  29.459  18.347  13.483
51406W        W23022  42.534  35.287  12.713
51407W        W23023  23.557  25.699   0.808
51408W        W23024  31.116  13.684  14.455
51409W        W23025  31.515  38.538   4.509
51410W        W23026  36.293   5.903   3.020
51411W        W23027  16.677  42.789   2.615
51412W        W23028  36.395  19.771   0.319
51413W        W23029  36.257   2.965  11.076
51414W        W23030  28.293  13.866   1.270
51415W        W23031  42.340   8.337  10.435
51416W        W23032  31.520  32.072   3.237
51417W        W23033  25.934   2.908   0.770
51418W        W23034  32.710   4.642  10.326
51419W        W23035  44.100  28.759   4.123
51420W        W23036  13.367  30.164   0.931
51421W        W23037  20.534  30.659   2.877
51422W        W23038  22.018  16.465  11.191
51423W        W23039  43.845  28.161  14.888
51424W        W23040  23.834  23.028  13.855
51425W        W23041  37.114   8.006  14.571
51426W        W23042  40.420   9.673   0.138
51427W        W23043  28.614  10.231  13.429
51428W        W23044   0.360  16.104  14.649
51429W        W23045   2.106  12.149  12.322
51430W        W23046  36.067   8.767  13.566
51431W        W23047  25.338   5.637  11.409
51432W        W23048   4.601  16.980  13.594
51433W        W23049   3.600  21.339   2.703
51434W        W23050  38.409  11.196   1.780
51435W        W23051  28.667  19.716  12.614
51436W        W23052  31.978   9.719   2.337
51437W        W23053  15.588  13.841   2.439
51438W        W23054  39.300  30.059  12.033
51439W        W23055  27.587  27.923  14.709
51440W        W23056   5.922  40.521   1.933
51441W        W23057   9.778   1.564  13.099
51442W        W23058  11.862   0.361  12.661
51443W        W23059  11.608  38.596  14.583
51444W        W23060  22.326  20.620   3.172
51445W        W23061  28.175  32.152  12.480
51446W        W23062  15.575   4.777   2.182
51447W        W23063  35.407   1.702  14.539
51448W        W23064  43.082  27.933   3.725
51449W        W23065  11.798   5.486   3.782
51450W        W23066  11.644  31.990   4.500
51451W        W23067  25.654  31.438   2.771
51452W        W23068  29.252  21.581  12.490
51453W        W23069  18.347   1.356   3.219
51454W        W23070  35.480   8.161   2.301
51455W        W23071  39.914  22.245   0.634
51456W        W23072  19.977  42.134   0.495
51457W        W23073  20.045  40.230   2.852
51458W        W23074  16.683  13.682  13.817
51459W        W23075  38.021  22.156  10.789
51460W        W23076   6.432   1.377  13.484
51461W        W23077   9.373   0.288   5.274
51462W        W23078  28.477  25.092  13.314
51463W        W23079  22.555  39.077   2.186
51464W        W23080  40.829  19.477  14.360
51465W        W23081  24.312  22.250   0.497
51466W        W23082   5.209  18.045   0.414
51467W        W23083  35.436  12.631  14.789
51468W        W23084  26.516  20.676   4.903
51469W        W23085  11.733   6.580  13.761
51470W        W23086  26.833  11.900   1.810
51471W        W23087  24.955   8.326  11.208
51472W        W23088   4.918  41.022   3.931
51473W        W23089   2.487  44.860  13.843
51474W        W23090  11.772  23.733   1.754
51475W        W23091  44.809  37.493  12.356
51476W        W23092   1.979  20.341  14.960
51477W        W23093   5.824  20.335  13.027
51478W        W23094  35.581   4.658   0.744
51479W        W23095   0.488  21.592   3.660
51480W        W23096  26.541  22.726   3.154
51481W        W23097  37.898  33.055  10.865
51482W        W23098  42.918  44.502   2.902
51483W        W23099   6.805  13.546   3.840
51484W        W23100  42.916   5.059  13.961
51485W        W23101  30.997  24.031  12.057
51486W        W23102  31.654  35.064  13.907
51487W        W23103  24.262  10.616   1.645
51488W        W23104  15.761  42.069  11.929
51489W        W23105  15.766  21.401   4.178
51490W        W23106   7.859   5.601   4.606
51491W        W23107   2.023   1.438  14.050
51492W        W23108  44.730   8.471   3.266
51493W        W23109  10.770   9.216  11.572
51494W        W23110  35.454  21.608  11.548
51495W        W23111   3.991  26.713  11.412
51496W        W23112  36.392   3.332  12.990
51497W        W23113   7.411   6.742  12.564
51498W        W23114  11.739  14.372   2.720
51499W        W23115  18.387  33.142  12.056
51500W        W23116  38.573  22.619   2.356
51501W        W23117  32.174  17.596   0.849
51502W        W23118  21.801   2.695   1.744
51503W        W23119  35.399  22.309   2.259
51504W        W23120  12.215  42.016  10.543
51505W        W23121  12.704  32.737  10.781
51506W        W23122  15.352  29.951   2.868
51507W        W23123  11.595  35.358   4.574
51508W        W23124   8.329  20.607  10.465
51509W        W23125  23.775   8.849  11.523
51510W        W23126  19.934  24.525  11.973
51511W        W23127  29.065   7.770  11.362
51512W        W23128  43.043  43.371  10.723
51513W        W23129  10.750  18.588   4.685
51514W        W23130  28.374  38.905  12.116
51515W        W23131  42.482   7.587   3.855
51516W        W23132  35.401  40.628  13.977
51517W        W23133  26.944  36.443  13.430
51518W        W23134  16.152  18.510   1.174
51519W        W23135  42.470  29.978  11.445
51520W        W23136   8.870   0.530  12.888
51521W        W23137  21.087  40.055  13.461
51522W        W23138   9.116  42.459  12.464
51523W        W23139  35.818   2.220  14.340
51524W        W23140  35.842  10.795   2.405
51525W        W23141  35.635  25.655  12.524
51526W        W23142  28.060  16.565   2.437
51527W        W23143  25.042  15.796  13.953
51528W        W23144  30.950  17.511   0.472
51529W        W23145  20.951  16.793  14.506
51530W        W23146  29.949   9.383   2.255
51531W        W23147  22.705   5.789   0.055
51532W        W23148   8.589  19.190  12.118
51533W        W23149  21.296  39.472  12.538
51534W        W23150   5.829  16.083  12.688
51535W        W23151  23.158   6.928  11.070
51536W        W23152  28.525  25.987  12.469
51537W        W23153   2.734   6.642   0.645
51538W        W23154  38.358  23.989  14.832
51539W        W23155  31.986  17.284   4.165
51540W        W23156  43.814  35.900  10.657
51541W        W23157  44.921  20.790  13.903
51542W        W23158  32.602  16.620   1.189
51543W        W23159   0.758  13.256   2.143
51544W        W23160   8.795   9.658   4.293
51545W        W23161   3.300  22.730   4.029
51546W        W23162  27.681  33.852  12.468
51547W        W23163  33.962   7.286  14.113
51548W        W23164  13.386  39.830  14.033
51549W        W23165  38.903  28.257  10.714
51550W        W23166  33.647  11.705  14.451
51551W        W23167  11.437  28.587   2.381
51552W        W23168  27.190  35.420  12.024
51553W        W23169  17.287  31.010   1.444
51554W        W23170  34.662   3.875  10.650
51555W        W23171  17.187  13.233  12.973
51556W        W23172  40.455  22.601   1.368
51557W        W23173  35.264  11.669  11.987
51558W        W23174  25.300  27.966   2.276
51559W        W23175  18.687  37.039   2.185
51560W        W23176  17.215  24.393  14.482
51561W        W23177  21.042  43.517  10.604
51562W        W23178  23.042  15.355   4.160
51563W        W23179  19.788  27.588  10.656
51564W        W23180  32.414  35.517   1.426
51565W        W23181  39.459  28.041   0.789
51566W        W23182   3.281  22.121   0.972
51567W        W23183  36.641  27.028  11.178
51568W        W23184  23.220  12.246   0.499
51569W        W23185  38.886  22.168   0.746
51570W        W23186  15.299  29.135   5.040
51571W        W23187   7.508   2.470  13.575
51572W        W23188  38.465  12.188  13.317
51573W        W23189  29.473  18.978  12.002
51574W        W23190   7.733  16.142  12.868
51575W        W23191  31.645  19.020  11.164
51576W        W23192   5.536  32.862   3.168
51577W        W23193  44.336  15.854   3.639
51578W        W23194   3.502   3.750   4.123
51579W        W23195  27.887  24.603   0.429
51580W        W23196  16.751   5.261  10.120
51581W        W23197   9.933  29.051   1.262
51582W        W23198  16.796  28.189   2.421
51583W        W23199  21.986  19.579  11.620
51584W        W23200  15.754  37.431   0.902
51585W        W23201  11.081  38.106   2.144
51586W        W23202  24.708  37.958  11.443
51587W        W23203  24.590  35.983  11.365
51588W        W23204  15.064   2.928  12.542
51589W        W23205   7.049  31.924   1.666
51590W        W23206  24.253  40.803   2.928
51591W        W23207  24.034   7.623  14.069
51592W        W23208  17.363  10.325   1.348
51593W        W23209  19.547  42.717   0.713
51594W        W23210  28.771   0.059  14.985
51595W        W23211  14.205   6.318  11.999
51596W        W23212   4.778   3.432   3.372
51597W        W23213  15.086   6.694   3.196
51598W        W23214  32.067   7.048  14.742
51599W        W23215  31.884  31.446   2.498
51600W        W23216  31.029   3.858  14.810
51601W        W23217   5.631  42.511   4.483
51602W        W23218  32.867  14.091  12.555
51603W        W23219  42.029  17.147   2.242
51604W        W23220  32.916  42.852   0.902
51605W        W23221   2.798   5.728  11.229
51606W        W23222  19.147  37.329   0.785
51607W        W23223  31.805   1.449   1.440
51608W        W23224   3.709  14.237  10.587
51609W        W23225  26.608  18.893   1.878
51610W        W23226  26.453  29.202  14.359
51611W        W23227  43.036  33.431   4.707
51612W        W23228  19.574  26.674  14.370
51613W        W23229  27.918  39.286   3.618
51614W        W23230   1.038  38.033   0.354
51615W        W23231  30.011  37.989  12.524
51616W        W23232  33.372   0.534   0.891
51617W        W23233  36.266  16.047  12.217
51618W        W23234  36.338   5.202  14.943
51619W        W23235   9.621  39.825   3.278
51620W        W23236  42.337  42.933  13.360
51621W        W23237  18.040  37.424  12.951
51622W        W23238  34.975   4.620   4.185
51623W        W23239   5.324  15.794  14.956
51624W        W23240  32.242  40.882   3.330
51625W        W23241  26.938  24.200   4.726
51626W        W23242  36.036  34.809   3.637
51627W        W23243  22.592  42.908  13.245
51628W        W23244   3.387   3.773  13.087
51629W        W23245   4.242   7.824  12.308
51630W        W23246  34.668  24.498  10.554
51631W        W23247  30.563  34.894   3.570
51632W        W23248  24.969  12.200   3.676
51633W        W23249  38.686  24.085  12.068
51634W        W23250  31.950  31.538   1.985
51635W        W23251   1.250  41.335  14.325
51636W        W23252  32.717  44.202  10.255
51637W        W23253  43.026  11.191  14.427
51638W        W23254   5.208   9.974   0.744
51639W        W23255   7.444   5.515   0.755
51640W        W23256   2.241  41.809   2.268
51641W        W23257  27.653  32.419  13.441
51642W        W23258  29.517  29.963   0.450
51643W        W23259   8.397  42.801  12.928
51644W        W23260  43.034  25.865  14.417
51645W        W23261  32.543   9.049   0.294
51646W        W23262  39.435   3.454  13.364
51647W        W23263  17.123  23.904  14.335
51648W        W23264  26.576  20.271  14.378
51649W        W23265  26.785  19.490   4.703
51650W        W23266  14.872  26.581   0.507
51651W        W23267  32.672  28.962  14.028
51652W        W23268   0.065  33.094  12.308
51653W        W23269  18.313  37.135   3.944
51654W        W23270   1.936   2.291   4.022
51655W        W23271  15.758  30.485   2.329
51656W        W23272  37.430  35.626  11.635
51657W        W23273   9.297  41.229  11.207
51658W        W23274  41.504   6.963   2.642
51659W        W23275  13.128  24.457  12.393
51660W        W23276   4.648  37.542  12.357
51661W        W23277  34.705  16.858   1.678
51662W        W23278  11.069  17.748  14.356
51663W        W23279  29.150  12.066   3.728
51664W        W23280  11.741  28.392  13.454
51665W        W23281  31.841  19.890  13.419
51666W        W23282  41.002  36.875   1.158
51667W        W23283  10.552  25.116  11.991
51668W        W23284  41.754  22.203   4.708
51669W        W23285   8.421  38.489  11.615
51670W        W23286  20.174  16.790   1.747
51671W        W23287  20.265   3.834  11.565
51672W        W23288   8.294  14.562   0.801
51673W        W23289  25.549  30.571  12.390
51674W        W23290  35.509  27.229  14.930
51675W        W23291   4.262  33.674   4.498
51676W        W23292  27.399  12.830  10.775
51677W        W23293   9.428  37.616   4.540
51678W        W23294  42.553  29.065   3.582
51679W        W23295  15.412  11.735   2.690
51680W        W23296  22.164  16.030   1.369
51681W        W23297  11.255  18.718   3.286
51682W        W23298   8.783   8.293  12.367
51683W        W23299  39.755  13.169   2.709
51684W        W23300  16.996  21.645   3.841
51685W        W23301  13.548  18.207  12.694
51686W        W23302  44.418  35.749   5.446
51687W        W23303  20.914  21.994   1.347
51688W        W23304   1.052  44.666  14.685
51689W        W23305   5.286  28.123   3.912
51690W        W23306   9.722  22.529   4.287
51691W        W23307  32.431  25.047  13.305
51692W        W23308  31.215  35.730  11.540
51693W        W23309  30.757  18.203   2.801
51694W        W23310   4.788  29.403  14.931
51695W        W23311  40.981   5.203   2.381
51696W        W23312   9.248  17.585  12.097
51697W        W23313  33.104  19.133  11.198
51698W        W23314  21.586  25.602   2.769
51699W        W23315  28.986  16.695  13.515
51700W        W23316  39.284  25.574   4.750
51701W        W23317  43.071   5.552   1.451
51702W        W23318  14.769  26.023  13.074
51703W        W23319  31.868  19.186  12.276
51704W        W23320  12.593  40.796  10.806
51705W        W23321  39.650  13.367   2.205
51706W        W23322   1.418   9.598  11.918
51707W        W23323  11.008  31.481  14.518
51708W        W23324  19.620  17.377   3.214
51709W        W23325  23.036  22.666  12.828
51710W        W23326  16.076  17.598   1.694
51711W        W23327  13.805  11.684  13.320
51712W        W23328  33.553  30.673   1.664
51713W        W23329   6.095   6.015  11.468
51714W        W23330  11.089   9.900   1.919
51715W        W23331  32.053  17.806   2.772
51716W        W23332  24.182  21.109   0.797
51717W        W23333   4.293  30.152   4.607
51718W        W23334  43.958   2.025   2.754
51719W        W23335   4.415  27.175   2.818
51720W        W23336  17.995   8.440   2.357
51721W        W23337  44.031   6.698   4.058
51722W        W23338  26.596  38.467   2.193
51723W        W23339  37.208   0.757   1.063
51724W        W23340  23.581  16.228  13.772
51725W        W23341  44.220  34.048   4.828
51726W        W23342  27.298  13.027   5.559
51727W        W23343  39.511  32.608  13.910
51728W        W23344   0.267  24.531   2.299
51729W        W23345   4.849  31.675  12.638
51730W        W23346  14.757  44.536   0.965
51731W        W23347  15.681  44.075   3.729
51732W        W23348   2.416   4.492   0.851
51733W        W23349  11.819  28.690  11.139
51734W        W23350  26.075  11.252   3.689
51735W        W23351  15.817   0.768  10.530
51736W        W23352  18.611  34.991  11.016
51737W        W23353   2.481  27.668  13.795
51738W        W23354  34.216   5.202   1.970
51739W        W23355  18.396  26.356  10.288
51740W        W23356  15.690  30.475   4.577
51741W        W23357  12.855   0.742  14.476
51742W        W23358  31.711  26.051   2.741
51743W        W23359  17.615  33.229  10.768
51744W        W23360  21.251  23.664  13.981
51745W        W23361  22.054  29.734   3.558
51746W        W23362  24.653   9.155   0.332
51747W        W23363  35.347  29.798  12.049
51748W        W23364  30.265  24.005   4.821
51749W        W23365  21.003  25.734   1.936
51750W        W23366  27.443  13.228   2.871
51751W        W23367   1.950  43.118  11.078
51752W        W23368  43.719  42.464   1.184
51753W        W23369  33.050  22.983  12.661
51754W        W23370  35.555  11.566  10.356
51755W        W23371  30.107   0.809  12.670
51756W        W23372  40.981   0.940  11.440
51757W        W23373  10.217  15.068  11.220
51758W        W23374  11.635   7.864  13.781
51759W        W23375  34.407  22.120  14.238
51760W        W23376  14.771   9.090   2.036
51761W        W23377  29.514   3.345  14.034
51762W        W23378  40.867  21.040   0.853
51763W        W23379   7.569  11.091   1.264
51764W        W23380  13.813   5.139  13.110
51765W        W23381  24.498   4.653   3.106
51766W        W23382  10.239  28.025  11.340
51767W        W23383  44.525  23.753  10.150
51768W        W23384   5.926  23.149  11.992
51769W        W23385  39.972  33.943  11.515
51770W        W23386  43.238   5.637   0.266
51771W        W23387  17.285  24.521   3.208
51772W        W23388  11.028   3.410   2.009
51773W        W23389  34.398  39.668   2.277
51774W        W23390  30.098   7.950  13.131
51775W        W23391  43.376  38.948   0.674
51776W        W23392  33.094  30.857   1.870
51777W        W23393  20.642  33.956   3.637
51778W        W23394   3.732  17.560   4.217
51779W        W23395   4.781  31.781   4.143
51780W        W23396  22.127  30.080   0.161
51781W        W23397  44.302  17.672   4.230
51782W        W23398  10.538  34.078   3.649
51783W        W23399  15.089  16.362   4.551
51784W        W23400  33.169  39.035  11.072
51785W        W23401  38.550  24.201  14.356
51786W        W23402  30.838  13.198  12.513
51787W        W23403  21.543  25.151  11.524
51788W        W23404  15.431  19.968   4.177
51789W        W23405  17.373  42.734   0.404
51790W        W23406  32.811  32.176  11.993
51791W        W23407  16.246  35.917  10.681
51792W        W23408  40.494  36.925  13.930
51793W        W23409  41.107  21.839  11.018
51794W        W23410  16.199  19.067  13.259
51795W        W23411  34.811   3.929  13.407
51796W        W23412  34.974   8.302   1.594
51797W        W23413   5.445   7.701  11.098
51798W        W23414  12.843  36.451   1.224
51799W        W23415  41.484  15.178  14.915
51800W        W23416  21.194  10.680   3.222
51801W        W23417  15.571  34.769   5.004
51802W        W23418  25.624  26.157  10.631
51803W        W23419  36.760  22.269   1.792
51804W        W23420   7.793   9.415  14.308
51805W        W23421  40.857  17.707  12.056
51806W        W23422   8.661   2.251   4.573
51807W        W23423  39.846  29.568  12.412
51808W        W23424  17.676  20.804  14.486
51809W        W23425  30.539  29.992  13.778
51810W        W23426  32.729  38.333   1.267
51811W        W23427   5.814  24.189   0.949
51812W        W23428  44.193  38.782  12.578
51813W        W23429  37.846  35.036  14.539
51814W        W23430  17.215   3.782   2.783
51815W        W23431  12.111   8.088  10.751
51816W        W23432   6.485  14.536   2.302
51817W        W23433  27.437   2.355   4.166
51818W        W23434  19.543  17.723   2.329
51819W        W23435  35.020  31.226  13.115
51820W        W23436   6.727  32.066  11.956
51821W        W23437  11.412  17.078  11.184
51822W        W23438   9.566  34.632   3.587
51823W        W23439   1.089   8.428   0.398
51824W        W23440   7.067  44.989   2.258
51825W        W23441  37.198   5.132   4.867
51826W        W23442  14.759  20.324   1.287
51827W        W23443   6.641  44.133   1.870
51828W        W23444  11.088  22.397   0.855
51829W        W23445  36.348  28.970  11.395
51830W        W23446  34.350  16.129   0.364
51831W        W23447   9.603  14.192   0.857
51832W        W23448   4.403  43.227   0.405
51833W        W23449  22.475  18.143  12.398
51834W        W23450  36.893  26.169   3.232
51835W        W23451  31.982  41.052  13.859
51836W        W23452  29.559  43.322   2.571
51837W        W23453  16.156   8.418  12.919
51838W        W23454  14.705  44.262  12.833
51839W        W23455  40.050  42.252   1.483
51840W        W23456  18.440  40.470   5.014
51841W        W23457  19.552  41.941   3.183
51842W        W23458   0.767  40.772   4.899
51843W        W23459  35.557  42.758  12.601
51844W        W23460  21.804  24.356  12.482
51845W        W23461  37.396  29.506  12.975
51846W        W23462  33.446  29.691   1.286
51847W        W23463  24.346  39.096   0.656
51848W        W23464  39.921   6.752  10.547
51849W        W23465  27.682  22.035  13.505
51850W        W23466  42.581  17.134  11.687
51851W        W23467   1.169  31.608   4.219
51852W        W23468  29.994  16.143   3.243
51853W        W23469   5.810  40.550   2.444
51854W        W23470  15.590  28.287   2.755
51855W        W23471  44.987  41.434   1.783
51856W        W23472  11.299  17.021   1.904
51857W        W23473  31.607  35.344  10.652
51858W        W23474  37.111  26.632   4.101
51859W        W23475  33.382   5.409  12.649
51860W        W23476   0.119  35.118   3.845
51861W        W23477  12.759  41.477   3.720
51862W        W23478  38.921  34.166   2.057
51863W        W23479  31.243  42.443   3.190
51864W        W23480  43.585  18.513  12.816
51865W        W23481  29.550  16.241  14.752
51866W        W23482  23.035  16.411  12.596
51867W        W23483  35.950  20.012   3.173
51868W        W23484  36.444   8.220   0.762
51869W        W23485  13.277  38.951   3.706
51870W        W23486  22.699   8.690  14.697
51871W        W23487  20.095  34.909  10.400
51872W        W23488   3.170  30.166   0.438
51873W        W23489  33.987  11.889  12.937
51874W        W23490  22.233  36.934  11.429
51875W        W23491  14.338  38.495  11.511
51876W        W23492   0.631   8.701   0.499
51877W        W23493  12.165  35.674  14.778
51878W        W23494  41.571  43.816  10.602
51879W        W23495  28.310  33.934   2.265
51880W        W23496   9.773  22.250  11.069
51881W        W23497  10.013  42.386   0.220
51882W        W23498   6.932  40.540  10.924
51883W        W23499  26.495  20.045   1.230
51884W        W23500   9.906  40.838   1.710
51885W        W23501  30.846  36.133   0.433
51886W        W23502  33.452   8.314  12.854
51887W        W23503   9.371  40.560   1.573
51888W        W23504  18.165   5.669  13.461
51889W        W23505  11.267  20.495   4.483
51890W        W23506  35.030   8.253  11.128
51891W        W23507  36.562  31.737   3.871
51892W        W23508  22.972   2.012   3.414
51893W        W23509  21.585  33.638  10.842
51894W        W23510  15.549  29.044   4.607
51895W        W23511  18.183  36.029  13.046
51896W        W23512  33.964   1.512   2.322
51897W        W23513  28.619  43.017   4.449
51898W        W23514  40.650  22.162  13.446
51899W        W23515   3.331   4.190   1.667
51900W        W23516  13.694  27.235   4.202
51901W        W23517  12.213  23.275   4.097
51902W        W23518  37.168   4.761   2.179
51903W        W23519  30.511  11.511   1.725
51904W        W23520   1.775  38.922   4.678
51905W        W23521   2.259  32.852  14.389
51906W        W23522  20.244  12.668   0.494
51907W        W23523  18.200  32.241   4.326
51908W        W23524   6.273  32.954   4.239
51909W        W23525   3.511  20.662   4.307
51910W        W23526   4.734  12.183   0.477
51911W        W23527  15.731  26.757   0.562
51912W        W23528  37.588  26.133  12.467
51913W        W23529  39.855  36.798   0.980
51914W        W23530   3.795  17.606  10.688
51915W        W23531  36.923  34.062  12.011
51916W        W23532  41.785  32.653  13.852
51917W        W23533   9.893  27.878  14.896
51918W        W23534  13.516  40.371  13.967
51919W        W23535  27.729  13.023  13.932
51920W        W23536   2.754  35.735  12.493
51921W        W23537   2.223  43.552   1.108
51922W        W23538  11.829  13.353  14.160
51923W        W23539  37.469  32.634   2.194
51924W        W23540   4.209  39.647   0.904
51925W        W23541  42.908  33.031   1.684
51926W        W23542  10.645  21.469  14.014
51927W        W23543  12.764   8.341  11.720
51928W        W23544  29.507  20.201   4.529
51929W        W23545   1.011  40.184  13.024
51930W        W23546  27.553   3.387  14.263
51931W        W23547  16.293  37.848   2.590
51932W        W23548   5.925   8.881   3.736
51933W        W23549  20.910  31.728  11.598
51934W        W23550  25.957  16.091  14.223
51935W        W23551  14.625  14.573  13.291
51936W        W23552  23.581  18.896  10.657
51937W        W23553   6.431  43.817  14.455
51938W        W23554  14.189  10.923   4.635
51939W        W23555  27.601  19.045  12.361
51940W        W23556  23.790  41.056   2.890
51941W        W23557  10.336  27.180   3.864
51942W        W23558  30.390  21.907   0.003
51943W        W23559  37.696  21.586  11.272
51944W        W23560  22.034  31.421  13.807
51945W        W23561  22.135   7.863  14.797
51946W        W23562  11.759  25.751   0.889
51947W        W23563  33.988  16.696  11.955
51948W        W23564  32.348  37.513   1.189
51949W        W23565  22.077  28.890  12.905
51950W        W23566  26.135  13.784   1.843
51951W        W23567  27.935   1.469  11.030
51952W        W23568  35.063  35.966  10.677
51953W        W23569  44.472  34.276  11.602
51954W        W23570  31.571  23.051  11.404
51955W        W23571  37.352  28.769   1.401
51956W        W23572  31.755  43.335   2.238
51957W        W23573  42.362   0.674  10.766
51958W        W23574  21.994  12.955   3.661
51959W        W23575  40.954  14.098  11.214
51960W        W23576  39.488  13.840   2.229
51961W        W23577  11.198  19.153   4.079
51962W        W23578   3.781   2.542   1.565
51963W        W23579   7.677  24.153  11.584
51964W        W23580  14.102  12.337   4.849
51965W        W23581   2.011   7.785  11.513
51966W        W23582  43.832  12.894   1.462
51967W        W23583  20.700  42.056   4.157
51968W        W23584   3.343   6.880   1.202
51969W        W23585  38.301  22.213  11.608
51970W        W23586  43.470   4.903  13.339
51971W        W23587  22.617  11.720   3.026
51972W        W23588   7.330  24.513  14.970
51973W        W23589  39.114  12.560   2.208
51974W        W23590  22.061  12.874   4.746
51975W        W23591   1.386  32.979   0.219
51976W        W23592  39.889  26.899  10.542
51977W        W23593   7.895  33.463  12.471
51978W        W23594   9.648  42.821  13.357
51979W        W23595  16.802  19.011  12.494
51980W        W23596  44.418  27.395   3.229
51981W        W23597   7.953   3.141   2.389
51982W        W23598  22.409  39.481  13.350
51983W        W23599  16.671  19.848  13.424
51984W        W23600   9.279  13.666  14.753
51985W        W23601  25.467   9.498  14.788
51986W        W23602   9.173   8.166   4.697
51987W        W23603  26.433  12.753   2.755
51988W        W23604  33.672  39.440   2.700
51989W        W23605  21.265  10.043   0.549
51990W        W23606  34.831  29.737  10.758
51991W        W23607  39.903  41.083   2.862
51992W        W23608  18.607   1.017   4.090
51993W        W23609  17.038   7.740  14.757
51994W        W23610  39.556  33.561   0.832
51995W        W23611  38.026  13.069   1.760
51996W        W23612  11.009  33.211  14.924
51997W        W23613  19.285  40.463   3.318
51998W        W23614  19.249  16.365  14.870
51999W        W23615  14.712  33.341  10.964
52000W        W23616  31.514  27.042   4.273
52001W        W23617  14.790  31.345   0.964
52002W        W23618  27.608   2.408  13.690
52003W        W23619  16.601  12.112   1.728
52004W        W23620  39.415  17.668  11.071
52005W        W23621  26.908  10.041  11.159
52006W        W23622   5.367  24.669   0.264
52007W        W23623   7.971  23.077   4.150
52008W        W23624   5.502  12.320  12.781
52009W        W23625  24.587  19.518   3.662
52010W        W23626  10.571  17.871  14.505
52011W        W23627  14.136   7.935  14.381
52012W        W23628   5.470  27.039   0.892
52013W        W23629  15.948  35.130  11.906
52014W        W23630   6.410  41.305  11.512
52015W        W23631  28.192  25.167   3.103
52016W        W23632  15.291   8.302   2.857
52017W        W23633  30.777  31.577   0.368
52018W        W23634   6.835  43.424  10.730
52019W        W23635  22.414  26.152  13.527
52020W        W23636  17.169   4.287  11.571
52021W        W23637  14.065  31.182   0.501
52022W        W23638  25.228  25.726   3.138
52023W        W23639  18.489   9.716   4.182
52024W        W23640  30.136   8.906   2.308
52025W        W23641  38.483  37.673  12.070
52026W        W23642  34.549  39.867   1.331
52027W        W23643   5.243  41.769   0.155
52028W        W23644  14.551  27.460   3.366
52029W        W23645  42.842  21.751  13.530
52030W        W23646  17.661  20.256   3.951
52031W        W23647  34.960  25.010   0.408
52032W        W23648  30.608   3.707  14.480
52033W        W23649  18.747  43.496   4.689
52034W        W23650   1.355  38.887   2.399
52035W        W23651  29.931  18.221  11.751
52036W        W23652  11.342  33.163   0.940
52037W        W23653  43.665  41.391  12.669
52038W        W23654   6.885  18.318   3.862
52039W        W23655  40.827  17.805   1.424
52040W        W23656  13.581  26.219   0.840
52041W        W23657   0.669  10.191  12.316
52042W        W23658  23.786  25.745  14.803
52043W        W23659  23.062  41.850  11.028
52044W        W23660   2.346  32.943   1.368
52045W        W23661  11.102  14.792  12.539
52046W        W23662  20.799  39.846  11.392
52047W        W23663  31.749  25.215  11.018
52048W        W23664  23.098  35.672  14.268
52049W        W23665  15.835   1.710  12.052
52050W        W23666  30.972  44.026   1.417
52051W        W23667  36.362  15.509   2.146
52052W        W23668  17.897   8.340  13.457
52053W        W23669  20.733  14.863   1.253
52054W        W23670  28.833   9.315  14.865
52055W        W23671   5.265  11.751  14.498
52056W        W23672   7.936  42.972   4.164
52057W        W23673  26.654  31.482   0.730
52058W        W23674   9.244   2.795   1.016
52059W        W23675   3.958  31.374   1.881
52060W        W23676  36.440  15.660  12.507
52061W        W23677  23.273  22.782   1.538
52062W        W23678  39.010  16.614  12.130
52063W        W23679  34.340  23.577  12.471
52064W        W23680  13.135  37.805   2.341
52065W        W23681  26.511  23.449   1.437
52066W        W23682   8.474  40.299   0.685
52067W        W23683  11.806   9.871   3.726
52068W        W23684  12.673  36.254   3.120
52069W        W23685  35.064  37.567  14.346
52070W        W23686   3.495  29.751  13.538
52071W        W23687   3.624  28.933   1.229
52072W        W23688   1.920  10.592   2.707
52073W        W23689  21.253  16.215  12.979
52074W        W23690   9.449  35.404   1.839
52075W        W23691  19.728  27.886  13.159
52076W        W23692   2.384  39.604  12.463
52077W        W23693   3.443  23.745  13.060
52078W        W23694  26.169  15.083  13.494
52079W        W23695  33.638  38.839   4.558
52080W        W23696  42.947  18.738   1.829
52081W        W23697  20.072   5.376   3.645
52082W        W23698  40.419   3.457   2.372
52083W        W23699  37.968  32.986   2.781
52084W        W23700  32.972   9.888   2.377
52085W        W23701  17.549  22.219   0.949
52086W        W23702  12.005   3.847  14.829
52087W        W23703  34.472  31.038   1.823
52088W        W23704   6.145  40.907  11.978
52089W        W23705  11.446  33.386   2.382
52090W        W23706  38.338  36.309   1.487
52091W        W23707  22.333  24.105   3.501
52092W        W23708   9.272  39.126   2.902
52093W        W23709  26.646  31.658   1.800
52094W        W23710  10.209  24.667   4.677
52095W        W23711  11.066  29.091  14.463
52096W        W23712   0.374  37.564  10.970
52097W        W23713  40.812   0.285   1.416
52098W        W23714  40.385  39.067  13.091
52099W        W23715  18.316  42.901   2.764
52100W        W23716  17.367  23.116  13.783
52101W        W23717  13.132   9.801   4.078
52102W        W23718  17.272  14.102  11.159
52103W        W23719   5.180   7.020  11.519
52104W        W23720   7.927   2.020  12.056
52105W        W23721  17.669  40.801  10.884
52106W        W23722  32.980  39.076   2.970
52107W        W23723   3.605   9.946   4.454
52108W        W23724  42.980  23.683   4.355
52109W        W23725  29.853  44.187   2.908
52110W        W23726  38.231   3.469   0.518
52111W        W23727  38.337  44.263   0.342
52112W        W23728   6.676   6.308  10.469
52113W        W23729  36.330  25.942  12.940
52114W        W23730  39.808  16.820   4.420
52115W        W23731  42.578   3.311   1.419
52116W        W23732  17.934   3.793   2.309
52117W        W23733  16.009   6.930  10.449
52118W        W23734  15.624  36.635  13.371
52119W        W23735  28.274  14.561   4.610
52120W        W23736  43.896  13.504  13.538
52121W        W23737  10.961   4.578  14.427
52122W        W23738  10.911  11.348  11.955
52123W        W23739  18.825  41.547  14.977
52124W        W23740  26.281  26.564  14.628
52125W        W23741  27.876  14.290   3.239
52126W        W23742  22.066  30.107  11.389
52127W        W23743  22.103  10.477   0.916
52128W        W23744  20.653  29.498  12.031
52129W        W23745  31.081  35.666   4.231
52130W        W23746  13.103  36.401  13.774
52131W        W23747  11.325   5.453  11.725
52132W        W23748  30.934  16.394  14.632
52133W        W23749  12.884   7.269  13.441
52134W        W23750  31.348  34.587  14.711
52135W        W23751  15.075   6.263   4.620
52136W        W23752  11.781   1.480   0.223
52137W        W23753  43.810  15.361   1.009
52138W        W23754  19.882   9.252   2.768
52139W        W23755  20.065  11.743  12.492
52140W        W23756   1.971  14.731   1.361
52141W        W23757   4.633  13.237  13.226
52142W        W23758  32.094  33.795  14.093
52143W        W23759   5.885  30.583   3.709
52144W        W23760  30.530   7.276   2.448
52145W        W23761  16.807  32.419   3.347
52146W        W23762  38.907  37.161  10.655
52147W        W23763   2.812  16.665  10.761
52148W        W23764  23.151  27.455   3.613
52149W        W23765   6.229  21.547   3.803
52150W        W23766  40.836  31.394  11.508
52151W        W23767  33.436  17.730   0.383
52152W        W23768  27.419  10.254  13.547
52153W        W23769  23.028  18.026   1.094
52154W        W23770  43.470  40.212   2.137
52155W        W23771   8.789  41.162  10.840
52156W        W23772  34.236  42.900   1.369
52157W        W23773  38.309  19.126  12.916
52158W        W23774  15.223  19.587  12.172
52159W        W23775   0.019  13.374   0.053
52160W        W23776  14.571  15.635   2.578
52161W        W23777  44.946  21.655   2.769
52162W        W23778  28.676  16.574  13.930
52163W        W23779  29.454  27.652   0.441
52164W        W23780  36.184  40.737   1.735
52165W        W23781  41.227  24.473  14.004
52166W        W23782  28.198  26.016  10.600
52167W        W23783  15.238  43.873  11.597
52168W        W23784  20.083   0.029  11.742
52169W        W23785  33.937  33.792  13.094
52170W        W23786  31.167  29.944   0.550
52171W        W23787  22.592  35.750  14.422
52172W        W23788  41.562  39.365  13.830
52173W        W23789  22.197  40.473  13.517
52174W        W23790  22.709  42.286  11.131
52175W        W23791  11.139  30.862  14.926
52176W        W23792  21.079  18.485  12.209
52177W        W23793  29.123  43.339  11.567
52178W        W23794   3.799  22.792   4.349
52179W        W23795  40.068  31.166   3.554
52180W        W23796  32.588  21.584  14.432
52181W        W23797  34.409  20.288  14.480
52182W        W23798  28.771  13.766   1.453
52183W        W23799  43.954   5.415   1.928
52184W        W23800   3.224  41.129   0.667
52185W        W23801  13.347  39.329   4.536
52186W        W23802   4.657  13.354  11.207
52187W        W23803   7.359   9.705   4.383
52188W        W23804   1.566  41.267  11.079
52189W        W23805  28.046  22.397   4.629
52190W        W23806  10.646  40.549   4.462
52191W        W23807  19.797   3.713   2.203
52192W        W23808   6.605  12.139   2.449
52193W        W23809  28.230  33.888  14.023
52194W        W23810  12.601  28.202  10.625
52195W        W23811   7.651   3.716   3.188
52196W        W23812  16.608  38.882  12.469
52197W        W23813  25.624  24.116   4.793
52198W        W23814   8.599  32.527  10.841
52199W        W23815  23.729   1.857  10.862
52200W        W23816   3.006  22.019  11.112
52201W        W23817  22.982   1.180  10.378
52202W        W23818  26.265   5.804   3.324
52203W        W23819  29.335  18.690  14.390
52204W        W23820   3.472  39.214  13.325
52205W        W23821  36.147  38.101   2.008
52206W        W23822  34.311  44.195  11.001
52207W        W23823  11.430   9.882   4.597
52208W        W23824   5.773  41.746  11.870
52209W        W23825  37.741  21.744   2.490
52210W        W23826   5.183  44.709  10.835
52211W        W23827  35.948  13.792  11.514
52212W        W23828   3.669   8.163  12.955
52213W        W23829   3.111   3.000  14.828
52214W        W23830  30.598  18.804  13.149
52215W        W23831  15.646  31.653   0.458
52216W        W23832  39.772  41.243  12.724
52217W        W23833  35.816  41.548   2.167
52218W        W23834  29.482  42.370   2.896
52219W        W23835  25.670   3.858   1.711
52220W        W23836  13.566  18.151  11.036
52221W        W23837  26.411  12.641   4.197
52222W        W23838  24.964  23.736  13.424
52223W        W23839  38.633  28.499   1.722
52224W        W23840  26.208  17.102   4.265
52225W        W23841  39.192  29.538  14.592
52226W        W23842  28.603  24.916   3.325
52227W        W23843  36.865  32.945   4.312
52228W        W23844  35.874  27.292   1.802
52229W        W23845  42.909  12.693  14.966
52230W        W23846   1.792  18.321  14.831
52231W        W23847   2.174   4.981   2.073
52232W        W23848  26.703  38.041  12.527
52233W        W23849  20.603  44.011   4.917
52234W        W23850  28.958  27.879   0.722
52235W        W23851  26.082   5.391   2.663
52236W        W23852  20.119  31.117  14.413
52237W        W23853  13.626   8.086  10.696
52238W        W23854  30.400   5.383   1.486
52239W        W23855  32.998  42.328   2.475
52240W        W23856   2.805  43.445   4.114
52241W        W23857  33.129  42.244   2.961
52242W        W23858  18.149  31.974   1.228
52243W        W23859  24.019  33.514   3.407
52244W        W23860  35.434  27.962  12.020
52245W        W23861   9.479  25.193  11.494
52246W        W23862   6.094   7.608  12.974
52247W        W23863  22.484  25.123  11.597
52248W        W23864  25.265  40.941   3.649
52249W        W23865  13.124  41.243  14.293
52250W        W23866   6.139  25.193  11.101
52251W        W23867   7.819  18.763   1.993
52252W        W23868   7.114  33.509  12.145
52253W        W23869  17.028  23.304   1.805
52254W        W23870  18.861  30.951  12.131
52255W        W23871  23.028  10.402   4.339
52256W        W23872  14.034   2.222   1.828
52257W        W23873  33.436  13.200   4.114
52258W        W23874  37.654  44.874   1.252
52259W        W23875  36.585   2.377   2.283
52260W        W23876  29.875   4.675  12.989
52261W        W23877  42.557   5.246   4.963
52262W        W23878  13.130  22.515   0.226
52263W        W23879   7.439  30.976  10.622
52264W        W23880   1.818  14.543   5.017
52265W        W23881  26.173  26.911   2.178
52266W        W23882  20.326  14.595  14.962
52267W        W23883   2.863  18.967   1.433
52268W        W23884  35.729   2.894  11.981
52269W        W23885  23.090   9.487   1.922
52270W        W23886  43.402  39.890   4.579
52271W        W23887  13.924  13.117  14.526
52272W        W23888   1.503   7.712   0.037
52273W        W23889  21.721  42.074   2.308
52274W        W23890  43.014  17.117  13.797
52275W        W23891  13.011  44.399  12.666
52276W        W23892  28.275   2.820  13.761
52277W        W23893   0.772  41.731  12.442
52278W        W23894  10.278  22.101  10.963
52279W        W23895  12.288  30.591   1.045
52280W        W23896  27.683  34.227  11.449
52281W        W23897  34.916   1.737   4.604
52282W        W23898  27.142  28.141  14.558
52283W        W23899  20.701  17.663  10.690
52284W        W23900  23.901  13.312  11.002
52285W        W23901   9.131  29.162   4.026
52286W        W23902   7.766  18.205  10.733
52287W        W23903  38.313  10.617   4.790
52288W        W23904  27.142  41.409  14.318
52289W        W23905  29.616   4.159   0.921
52290W        W23906  40.900  38.965  14.929
52291W        W23907  36.334  17.710  11.495
52292W        W23908  14.900  32.893  11.152
52293W        W23909  38.321  13.461  10.935
52294W        W23910  17.518   0.389   2.363
52295W        W23911  15.732  10.930   1.928
52296W        W23912  35.794  16.222  12.131
52297W        W23913   3.668  42.928  13.823
52298W        W23914  10.597  35.560   4.714
52299W        W23915   1.449  24.556  14.842
52300W        W23916   0.446  10.722  14.347
52301W        W23917  26.101  42.236   0.452
52302W        W23918  27.081   7.509  14.818
52303W        W23919  37.020  39.306  12.982
52304W        W23920   3.987  33.163   3.103
52305W        W23921  27.930  19.794  14.400
52306W        W23922  37.047  30.489  11.453
52307W        W23923  34.556   7.770   4.038
52308W        W23924  16.473  43.315  13.372
52309W        W23925  35.948  25.757   2.649
52310W        W23926   8.184  11.853  14.831
52311W        W23927  44.977   7.250  11.921
52312W        W23928  11.139  11.834   0.678
52313W        W23929   3.930  27.234  10.518
52314W        W23930   7.380  41.522   2.167
52315W        W23931  42.101  27.722  11.256
52316W        W23932   1.838  35.341  11.773
52317W        W23933  28.844  15.069   5.415
52318W        W23934   8.908   4.960  12.373
52319W        W23935  17.497  30.724   2.400
52320W        W23936  32.190  20.617   4.324
52321W        W23937   7.244  19.191   1.228
52322W        W23938  11.869  37.428   0.877
52323W        W23939   2.561  24.487   1.309
52324W        W23940  38.985  25.053  13.819
52325W        W23941  32.671  18.679  11.993
52326W        W23942   0.438  31.781  12.526
52327W        W23943   9.678  35.431   3.152
52328W        W23944   7.889  35.028  13.094
52329W        W23945  24.121  40.518   3.380
52330W        W23946  19.602  22.538  13.499
52331W        W23947  36.167  26.523  11.090
52332W        W23948   8.445  13.762   0.505
52333W        W23949  27.498   0.092   1.779
52334W        W23950  34.432  19.464   2.121
52335W        W23951   2.595   4.971  13.417
52336W        W23952  42.729  28.011   2.096
52337W        W23953  29.714  42.021   4.633
52338W        W23954  14.707   2.326   1.672
52339W        W23955  21.217  28.237   3.697
52340W        W23956  41.701  33.592  12.862
52341W        W23957  19.273  19.487  12.423
52342W        W23958  12.676  33.642   4.649
52343W        W23959  30.601   4.846  11.693
52344W        W23960  34.667  18.516  11.973
52345W        W23961  30.210  12.044  14.771
52346W        W23962  20.326  30.079  12.440
52347W        W23963  21.517  33.636  12.841
52348W        W23964  16.777  18.776   3.933
52349W        W23965   8.925   5.036   4.238
52350W        W23966  43.896   8.688  13.408
52351W        W23967  27.902   9.811  12.091
52352W        W23968  25.970  32.912  10.685
52353W        W23969  35.876   9.676  14.378
52354W        W23970   7.864  23.671   0.208
52355W        W23971  36.905  19.326   3.170
52356W        W23972   8.265  14.027  10.790
52357W        W23973   8.163  17.815  12.703
52358W        W23974  41.221   4.768  13.005
52359W        W23975  37.440  20.177   4.083
52360W        W23976  28.974  40.491   4.904
52361W        W23977  40.336  14.649  12.896
52362W        W23978   7.275   8.659   2.455
52363W        W23979   5.188  35.390   0.694
52364W        W23980   3.331  32.608   2.954
52365W        W23981  26.056   6.763  13.693
52366W        W23982  44.348   0.941   4.240
52367W        W23983  30.212  18.544   0.837
52368W        W23984  20.240   5.883  12.743
52369W        W23985  27.180  26.670   1.785
52370W        W23986   8.277   1.350  13.091
52371W        W23987   6.602   1.477  14.736
52372W        W23988  11.969  41.042  12.487
52373W        W23989  18.118  41.947   4.028
52374W        W23990  10.384  23.519  13.956
52375W        W23991   2.533  33.555  10.339
52376W        W23992   9.631  37.019   2.317
52377W        W23993  31.326  33.446   0.407
52378W        W23994  27.947  24.242   2.716
52379W        W23995  22.959  19.566  12.490
52380W        W23996  44.016  44.742  12.314
52381W        W23997  12.618  13.056   4.633
52382W        W23998  37.783  31.200   3.835
52383W        W23999   4.750  17.736   0.819
52384W        W24000   0.718  32.070  10.813
52385W        W24001  35.558  33.108  12.538
52386W        W24002  43.488  24.554  11.129
52387W        W24003  15.608  13.841  13.546
52388W        W24004  23.203  26.523  12.887
52389W        W24005  14.700  44.221  13.989
52390W        W24006  27.258  19.577  12.945
52391W        W24007  13.652  17.700   5.421
52392W        W24008  11.457  11.352   2.740
52393W        W24009   1.713   6.786  13.456
52394W        W24010  17.255  27.493   1.655
52395W        W24011  21.667   9.887   4.725
52396W        W24012   3.453  32.214  11.953
52397W        W24013  41.982  25.162  11.944
52398W        W24014  44.752  15.351   0.830
52399W        W24015  22.582   0.167   1.872
52400W        W24016  28.604  29.047   0.764
52401W        W24017  25.241  26.262   2.278
52402W        W24018   8.365  17.714  10.495
52403W        W24019  30.716  15.168   1.669
52404W        W24020  21.303  31.401  14.905
52405W        W24021  26.476  27.745   4.144
52406W        W24022  26.504   8.488   1.185
52407W        W24023  36.887   5.191  10.730
52408W        W24024  32.005  25.938   3.252
52409W        W24025  37.632  28.031   0.771
52410W        W24026  44.314  21.938   0.893
52411W        W24027  13.402  13.835   2.751
52412W        W24028   2.775  22.698  13.386
52413W        W24029  10.305  25.977   1.340
52414W        W24030  12.620   0.471   2.060
52415W        W24031  40.243  16.281  11.046
52416W        W24032  22.555  39.824  12.929
52417W        W24033  41.400  18.182   4.134
52418W        W24034  28.221   3.055  12.011
52419W        W24035  33.849  41.270  10.745
52420W        W24036   6.873  27.631  13.045
52421W        W24037  27.015  17.663  14.942
52422W        W24038  10.277   0.564  11.854
52423W        W24039   7.126   6.618  10.496
52424W        W24040  36.936  10.393  14.187
52425W        W24041  43.172  33.586  11.456
52426W        W24042  11.171  40.862   0.890
52427W        W24043  21.466   4.337   2.109
52428W        W24044  37.897  34.172   0.757
52429W        W24045  21.321  10.012   1.909
52430W        W24046  21.669  11.196   3.872
52431W        W24047  37.893  38.112   3.311
52432W        W24048  18.987  16.574   1.193
52433W        W24049  42.749  18.617  13.294
52434W        W24050  23.974  33.125  11.967
52435W        W24051  20.085   6.632   1.339
52436W        W24052  26.203  21.126  11.919
52437W        W24053  32.704   3.308   3.847
52438W        W24054  12.198  30.540   1.552
52439W        W24055   8.813   3.609  13.306
52440W        W24056  11.916  26.466  10.693
52441W        W24057  10.300  36.535  13.227
52442W        W24058  25.458   9.076  11.037
52443W        W24059  24.780  20.194   4.891
52444W        W24060  20.270   9.070   4.347
52445W        W24061  42.859  30.489   2.408
52446W        W24062   5.238   8.439   0.016
52447W        W24063  27.601   4.348  12.110
52448W        W24064  23.493   2.832   0.322
52449W        W24065  23.978  20.857  10.773
52450W        W24066   1.562  18.540  12.533
52451W        W24067  39.841  28.182  13.552
52452W        W24068  34.538  17.714  10.924
52453W        W24069  22.579  20.514  14.767
52454W        W24070  44.827  31.664  11.925
52455W        W24071  15.253  27.166   4.557
52456W        W24072  38.567   0.671  12.913
52457W        W24073   2.300  36.417  12.093
52458W        W24074  18.281  23.529   0.307
52459W        W24075   3.231  30.910   5.009
52460W        W24076  19.116   8.485   3.723
52461W        W24077  29.718  43.834  10.412
52462W        W24078  12.851  41.983   4.598
52463W        W24079  42.097  14.803  11.527
52464W        W24080  30.735  33.943  14.711
52465W        W24081  24.590  24.342   2.319
52466W        W24082  29.675  15.553  10.942
52467W        W24083  28.915  10.421   4.605
52468W        W24084  13.757  28.945  12.895
52469W        W24085  16.189  18.095   5.519
52470W        W24086  37.020  29.174   2.199
52471W        W24087  29.461  15.558  14.346
52472W        W24088  29.394   1.333  10.624
52473W        W24089   4.724   8.680  11.756
52474W        W24090  39.501  15.590   1.918
52475W        W24091   7.408  15.408   2.107
52476W        W24092   3.265  19.846  12.420
52477W        W24093   2.084  25.019  13.404
52478W        W24094  11.405   7.653  11.102
52479W        W24095   6.860  34.063   1.685
52480W        W24096  21.715  37.648   1.809
52481W        W24097  26.579   6.188   3.464
52482W        W24098   4.240  11.239  14.242
52483W        W24099  19.626   0.312  10.252
52484W        W24100  39.323  25.433  13.454
52485W        W24101  13.687  11.605   0.256
52486W        W24102  18.542   7.773  14.920
52487W        W24103  35.108  31.375  13.584
52488W        W24104   2.446  18.127   0.913
52489W        W24105  30.957  38.885  12.566
52490W        W24106  26.147  39.052   1.742
52491W        W24107  16.617  11.127   4.375
52492W        W24108  22.671  12.579   4.009
52493W        W24109  10.964   1.630   1.764
52494W        W24110   5.816   4.610   0.858
52495W        W24111  17.072   8.682  13.322
52496W        W24112  41.347  44.519   0.893
52497W        W24113  33.099  19.616  14.570
52498W        W24114  41.626   0.038  14.341
52499W        W24115  20.021  33.055  13.369
52500W        W24116  19.224  22.714   3.678
52501W        W24117  16.829  41.224   4.457
52502W        W24118  21.490  23.196  14.448
52503W        W24119  13.164   3.891   0.614
52504W        W24120  16.851  13.925  14.792
52505W        W24121  28.901  25.067   0.079
52506W        W24122  34.708  10.821   3.747
52507W        W24123  19.077   8.765  13.819
52508W        W24124  10.049   6.796  12.463
52509W        W24125  33.549  20.377   0.243
52510W        W24126  13.041  20.079  11.789
52511W        W24127  16.699  35.696  13.937
52512W        W24128   3.497  42.429   3.721
52513W        W24129   9.120   4.862  11.591
52514W        W24130  12.111   9.792  11.207
52515W        W24131   4.307   1.697   3.198
52516W        W24132  31.141  44.524   1.429
52517W        W24133  28.135  16.182  11.455
52518W        W24134  30.627  39.372  10.604
52519W        W24135   6.419  41.391   1.107
52520W        W24136  28.944   1.679   2.736
52521W        W24137  10.430  17.039   0.820
52522W        W24138  37.439  30.203   1.002
52523W        W24139  37.131  38.856   2.775
52524W        W24140  30.055  10.321   1.280
52525W        W24141  43.289  12.660  11.533
52526W        W24142  24.640  34.458   2.302
52527W        W24143  39.553  38.859   3.913
52528W        W24144  44.384  43.729  11.159
52529W        W24145  24.687   6.642  12.504
52530W        W24146  29.161  15.930  10.112
52531W        W24147  33.958  43.244   2.557
52532W        W24148  26.531   7.726   1.907
52533W        W24149  20.095  23.531  13.556
52534W        W24150  15.546  19.624   3.125
52535W        W24151  16.018  10.221  12.498
52536W        W24152  29.214  15.430  13.809
52537W        W24153  24.567  33.122   0.945
52538W        W24154  33.187  34.534   0.285
52539W        W24155  17.792  24.011  11.613
52540W        W24156  17.095   1.102   4.152
52541W        W24157  38.321   2.502  14.578
52542W        W24158  28.719  10.734  12.633
52543W        W24159   8.701  25.116  13.388
52544W        W24160   5.712  25.550  14.542
52545W        W24161  10.172  14.170  13.027
52546W        W24162   0.242  40.817   2.434
52547W        W24163  33.799  14.927   4.119
52548W        W24164  31.901  13.781  14.877
52549W        W24165  34.481  21.653  10.688
52550W        W24166  35.877  35.484   1.507
52551W        W24167  37.436  34.434  14.047
52552W        W24168  18.704  33.348  12.402
52553W        W24169  20.111   2.306   1.210
52554W        W24170   4.285   9.148   0.776
52555W        W24171  18.548  16.593   3.018
52556W        W24172  10.206  36.375  13.718
52557W        W24173  40.132  14.624  11.782
52558W        W24174  14.993  42.955   4.965
52559W        W24175   9.862  27.878   3.286
52560W        W24176  33.893  14.642   4.550
52561W        W24177  44.447  28.473  10.824
52562W        W24178  29.561  43.909   1.859
52563W        W24179  36.116  19.055   4.105
52564W        W24180  19.899  39.072   0.770
52565W        W24181   3.409   3.843   3.163
52566W        W24182  41.848   5.148   4.424
52567W        W24183  38.810  29.656  11.231
52568W        W24184   1.250   7.910  14.019
52569W        W24185  38.840  31.633  14.397
52570W        W24186  11.311   9.752  11.897
52571W        W24187  28.176   5.194   0.686
52572W        W24188  44.837   9.709  14.262
52573W        W24189  17.085  30.004   1.255
52574W        W24190   4.224  30.100  13.011
52575W        W24191  31.928  37.301  14.816
52576W        W24192  15.691  26.620  12.047
52577W        W24193  43.979  11.384   4.087
52578W        W24194   0.588  19.582   0.405
52579W        W24195  24.173   6.430   4.050
52580W        W24196   7.964   3.883   2.796
52581W        W24197  12.558  23.646  13.538
52582W        W24198  20.936  17.191   1.660
52583W        W24199  42.494   5.643  11.602
52584W        W24200  28.445  37.987  10.902
52585W        W24201  41.763  26.733   1.286
52586W        W24202  19.623  29.852   1.366
52587W        W24203   0.252  36.074   4.570
52588W        W24204  30.530  36.554   1.010
52589W        W24205  13.888  11.443   1.751
52590W        W24206  43.814  15.136   0.536
52591W        W24207  20.704  24.217  12.135
52592W        W24208  18.944  27.231  12.632
52593W        W24209  25.278  17.265  13.300
52594W        W24210  41.765   1.004   1.847
52595W        W24211  44.670  32.285   2.259
52596W        W24212  34.581  22.183   1.398
52597W        W24213  20.225  34.533  11.609
52598W        W24214  24.219   6.288  14.105
52599W        W24215  11.161  11.622  14.756
52600W        W24216  29.381  15.191  14.962
52601W        W24217  26.058  24.714  13.064
52602W        W24218  12.770   6.880   5.227
52603W        W24219  12.699  18.879  13.529
52604W        W24220  34.869   9.645   3.337
52605W        W24221  19.745  22.099  13.778
52606W        W24222  17.514  43.345   2.678
52607W        W24223   0.348  23.745  10.221
52608W        W24224  44.160   1.870   1.147
52609W        W24225  33.135  38.531   1.003
52610W        W24226  32.726  13.672   2.942
52611W        W24227  27.240   6.341  12.539
52612W        W24228  29.527  40.584   4.145
52613W        W24229  36.135  23.227   2.399
52614W        W24230   9.332  13.548  12.928
52615W        W24231  14.852  25.840   3.635
52616W        W24232   2.492  33.130   3.161
52617W        W24233  22.668  42.028  10.685
52618W        W24234  25.722  31.153   4.986
52619W        W24235  28.955  34.481  12.595
52620W        W24236   3.762  35.555  14.512
52621W        W24237   9.454  29.585  11.932
52622W        W24238  41.513  38.854  13.487
52623W        W24239  43.241  35.090  10.072
52624W        W24240  28.053  19.120   3.421
52625W        W24241  33.611   5.844   4.606
52626W        W24242   0.399   9.727  12.417
52627W        W24243  14.473  26.773   4.531
52628W        W24244  26.621  42.059  10.695
52629W        W24245   1.288   0.457   3.179
52630W        W24246  37.588  12.786  14.677
52631W        W24247   6.235  40.453  14.116
52632W        W24248   8.155   6.656   3.305
52633W        W24249  30.778  26.921   3.735
52634W        W24250  11.882  20.968   2.276
52635W        W24251   6.578  38.012  13.060
52636W        W24252  31.142  24.442   4.330
52637W        W24253  23.511  20.970  10.473
52638W        W24254  40.859  17.634  10.736
52639W        W24255  40.852  42.834   3.727
52640W        W24256  37.560  33.353   3.753
52641W        W24257  41.040  13.658   2.417
52642W        W24258  24.478  14.327   3.171
52643W        W24259   9.100   5.487   0.831
52644W        W24260   3.466  35.403   2.369
52645W        W24261  44.766  15.187   2.715
52646W        W24262  44.007   4.626  12.553
52647W        W24263  32.918  10.369   1.705
52648W        W24264  44.965  36.398   1.079
52649W        W24265   4.824  33.248  14.078
52650W        W24266  18.513  14.634   1.829
52651W        W24267  30.069  13.227  10.804
52652W        W24268  11.392  28.892  12.587
52653W        W24269  25.941  35.096   3.175
52654W        W24270  27.124   6.813   2.377
52655W        W24271   5.934  38.084  11.677
52656W        W24272   0.757  40.234  10.774
52657W        W24273  35.891   2.939   0.786
52658W        W24274  30.393  36.869  14.789
52659W        W24275  15.623  20.117   1.155
52660W        W24276  15.736  41.437  13.284
52661W        W24277  40.135  36.444   1.930
52662W        W24278  19.373  25.954   2.410
52663W        W24279   4.044   5.818  12.934
52664W        W24280  35.913  15.128  11.039
52665W        W24281  12.903  31.622   4.532
52666W        W24282  12.234   4.953  13.420
52667W        W24283  26.969  38.353   4.892
52668W        W24284  31.457   9.813   3.357
52669W        W24285   4.578  19.901  10.816
52670W        W24286  19.501   1.034  14.767
52671W        W24287  13.114  21.511  13.866
52672W        W24288   1.346  10.054  11.676
52673W        W24289  44.520  24.946  13.880
52674W        W24290  29.148  38.096  14.936
52675W        W24291  11.389  34.557   0.767
52676W        W24292  26.401  18.688   3.336
52677W        W24293  17.906   1.417   2.394
52678W        W24294   6.330  24.008   3.908
52679W        W24295  17.219  24.914  13.573
52680W        W24296  16.603   0.993  12.399
52681W        W24297   7.778  21.793   1.879
52682W        W24298  41.301  23.927   3.956
52683W        W24299  44.468   7.810   1.840
52684W        W24300  26.058   8.222  11.998
52685W        W24301  28.587  38.769  12.570
52686W        W24302   0.529  36.154  11.923
52687W        W24303  41.818  38.518  11.519
52688W        W24304  39.830  41.571  11.736
52689W        W24305  28.011  43.206  11.605
52690W        W24306   5.073  37.778  11.661
52691W        W24307  13.283  13.581   0.344
52692W        W24308   9.779  13.811  13.003
52693W        W24309  20.558  35.509   1.333
52694W        W24310   0.817  33.334  13.281
52695W        W24311  24.264  26.422   2.760
52696W        W24312   1.876  22.201   1.164
52697W        W24313  42.864   2.277  14.391
52698W        W24314  13.994  10.118  14.298
52699W        W24315  34.431  35.077  12.122
52700W        W24316  29.179  31.395   4.175
52701W        W24317  19.868  24.778  13.718
52702W        W24318   7.127  32.664  11.037
52703W        W24319  15.773  40.876   2.527
52704W        W24320  43.024  19.794   1.854
52705W        W24321   1.756  34.456  12.604
52706W        W24322  27.551  16.516  11.971
52707W        W24323  24.446  25.784  11.122
52708W        W24324  14.716  22.442  12.602
52709W        W24325  37.841  16.332  14.335
52710W        W24326  17.650   2.431   4.413
52711W        W24327  30.149  13.612   2.724
52712W        W24328  18.507  14.125  13.378
52713W        W24329  35.054  13.092   1.915
52714W        W24330  15.640  13.981  11.619
52715W        W24331  42.484  14.532  13.864
52716W        W24332  17.599  13.539   2.173
52717W        W24333   0.817  24.168   0.785
52718W        W24334  26.414  43.761  14.217
52719W        W24335  39.072   2.537   0.248
52720W        W24336   2.340  13.119  14.062
52721W        W24337  11.634  39.311  10.124
52722W        W24338   0.229  36.964  11.648
52723W        W24339   4.425   8.745   1.327
52724W        W24340  29.445  29.758   1.346
52725W        W24341  14.159  32.509   0.423
52726W        W24342  32.700  42.871   1.380
52727W        W24343  27.040  16.865  14.530
52728W        W24344  20.618  12.372  11.896
52729W        W24345  23.596  31.179  11.094
52730W        W24346  16.858  36.091   4.289
52731W        W24347   0.206  37.110  11.120
52732W        W24348   6.889  18.233   4.595
52733W        W24349  26.163   8.134  10.714
52734W        W24350  14.159  33.022  10.295
52735W        W24351  16.117  18.128  13.290
52736W        W24352  11.861   4.221  11.528
52737W        W24353  42.756  37.031  13.535
52738W        W24354  35.937  10.898  11.015
52739W        W24355   2.761  27.986   1.294
52740W        W24356  27.285  20.138  12.694
52741W        W24357  11.316   0.089   1.978
52742W        W24358  32.824  28.408   5.219
52743W        W24359   2.864  16.057   4.335
52744W        W24360  23.597  29.837   3.014
52745W        W24361   1.747  25.703   0.819
52746W        W24362  22.458  35.322   1.197
52747W        W24363  42.616  16.704  14.878
52748W        W24364  27.308   2.167  12.736
52749W        W24365  21.185   7.039   3.864
52750W        W24366  19.193  27.965   0.175
52751W        W24367  35.070  33.048  14.783
52752W        W24368  41.789  11.394   2.824
52753W        W24369   2.975  29.847  13.560
52754W        W24370  31.121   8.415   0.962
52755W        W24371  26.502  29.193   0.266
52756W        W24372  14.710  21.227   2.369
52757W        W24373  38.149  30.542  11.960
52758W        W24374  28.374  23.757  12.859
52759W        W24375  21.071  43.153   2.307
52760W        W24376   9.293  30.062   4.324
52761W        W24377  16.696  14.126   4.801
52762W        W24378  16.951  23.879  11.319
52763W        W24379  43.992  36.923   3.756
52764W        W24380  38.364  11.247  12.810
52765W        W24381   5.246  44.354  12.100
52766W        W24382  37.394  42.009   5.078
52767W        W24383  31.458  17.129   3.284
52768W        W24384  17.138  44.726   0.319
52769W        W24385  11.488  36.353   0.831
52770W        W24386  19.869  33.085   2.191
52771W        W24387   5.226  11.129   0.481
52772W        W24388  27.427  26.185   1.149
52773W        W24389  15.714  21.566   1.460
52774W        W24390   0.500  17.063   1.173
52775W        W24391  19.271  22.008  14.063
52776W        W24392  21.858   0.912  13.879
52777W        W24393  10.596  15.756   1.903
52778W        W24394  26.212  37.863  11.382
52779W        W24395  42.954  12.151   0.934
52780W        W24396   6.826  23.095  11.105
52781W        W24397  12.298   5.447  14.961
52782W        W24398   5.191  21.191   3.705
52783W        W24399  18.901   6.824  12.109
52784W        W24400   4.355  29.605   4.617
52785W        W24401  16.891   5.383  12.592
52786W        W24402   0.413  43.496  14.878
52787W        W24403  27.038   0.875  12.452
52788W        W24404   8.715   1.476  12.833
52789W        W24405  27.220  24.919   2.498
52790W        W24406  15.247  12.618  13.924
52791W        W24407  42.478  18.915  14.117
52792W        W24408  37.567  32.823   0.797
52793W        W24409   2.230  34.875   1.319
52794W        W24410  36.640  33.962  13.444
52795W        W24411  20.509  15.902   4.726
52796W        W24412  35.415   8.273  14.031
52797W        W24413   1.976   1.757   1.668
52798W        W24414   0.009  18.701   2.630
52799W        W24415   9.269   7.327  12.395
52800W        W24416  36.348   5.270   3.223
52801W        W24417   8.694  19.586  10.534
52802W        W24418  29.224  25.491  14.848
52803W        W24419  21.662  37.108  12.905
52804W        W24420   3.196   0.597  14.901
52805W        W24421  10.905  40.455  12.054
52806W        W24422  34.053  23.777  12.841
52807W        W24423  19.072  29.139  10.994
52808W        W24424  18.184  22.678  13.562
52809W        W24425  40.932  16.861  13.757
52810W        W24426  40.785   9.868  11.137
52811W        W24427   4.367  27.412   1.847
52812W        W24428  23.428  31.242  13.457
52813W        W24429  23.978  40.511   0.977
52814W        W24430  41.631  34.893   5.055
52815W        W24431  42.333  20.576  12.431
52816W        W24432  13.825  19.081  12.937
52817W        W24433  14.536   0.239  11.287
52818W        W24434  26.611  27.715   2.327
52819W        W24435  30.170  29.535  13.401
52820W        W24436  39.879  26.842   3.220
52821W        W24437  14.231  13.653   0.351
52822W        W24438  17.518   7.274   0.302
52823W        W24439  29.077  38.122  12.933
52824W        W24440  14.147  26.699   2.399
52825W        W24441   4.882   9.026   2.869
52826W        W24442   0.356  29.932   2.191
52827W        W24443  14.493   8.200  10.762
52828W        W24444  43.245  33.068  11.576
52829W        W24445  39.121  11.794  12.975
52830W        W24446  21.328  35.933  11.465
52831W        W24447  43.842  35.525  13.842
52832W        W24448  44.059  31.011   1.269
52833W        W24449  40.611  32.300  10.337
52834W        W24450   3.827   4.177   4.158
52835W        W24451  35.456  30.222   3.910
52836W        W24452   1.230  16.210  10.951
52837W        W24453  40.917  13.039  12.471
52838W        W24454  13.659   3.344   3.203
52839W        W24455  26.193  16.191  12.615
52840W        W24456  28.909  21.704   1.344
52841W        W24457  43.350  24.257  12.047
52842W        W24458  34.541  38.888   2.249
52843W        W24459  10.767  32.508  10.519
52844W        W24460  39.308  31.391   3.204
52845W        W24461  14.391  22.607  11.475
52846W        W24462  44.337  25.874  11.370
52847W        W24463  17.481   6.925  14.489
52848W        W24464   2.809  37.518  11.648
52849W        W24465   5.170  22.552  11.113
52850W        W24466   3.183  27.170  13.413
52851W        W24467  31.001  36.645  11.975
52852W        W24468   3.553  36.524  13.913
52853W        W24469  11.544  33.421   3.242
52854W        W24470  12.682  36.764  12.917
52855W        W24471  12.868  31.006  12.569
52856W        W24472  20.763  32.127  10.615
52857W        W24473   3.928   6.679  10.749
52858W        W24474  14.267   8.247   1.191
52859W        W24475   4.972  16.571  14.996
52860W        W24476  25.780   3.899  11.980
52861W        W24477  42.974  12.354   2.328
52862W        W24478  12.336  13.139  12.384
52863W        W24479  43.917  32.582   3.323
52864W        W24480  14.844   6.714   1.337
52865W        W24481  26.681  26.996  14.532
52866W        W24482  32.210  44.318  12.850
52867W        W24483  29.580   2.190  12.456
52868W        W24484  32.520  11.727   1.746
52869W        W24485  41.982  32.142  12.966
52870W        W24486  16.446  18.057  11.411
52871W        W24487  13.030  33.066   4.119
52872W        W24488  28.481   5.191   4.910
52873W        W24489  29.615  30.030   1.756
52874W        W24490  39.000  16.754  10.749
52875W        W24491   8.082  43.416   2.336
52876W        W24492  43.385  10.225  13.835
52877W        W24493  20.704  28.528  10.996
52878W        W24494  34.972   5.437   1.502
52879W        W24495  34.565   6.145  12.063
52880W        W24496   7.136  17.755   2.360
52881W        W24497  19.192  42.785  14.860
52882W        W24498  19.754  21.026   1.730
52883W        W24499  12.311  15.168  10.741
52884W        W24500  39.714  44.430   1.145
52885W        W24501  31.471  26.459   3.022
52886W        W24502  43.510   9.956   0.960
52887W        W24503   8.792   5.924   0.973
52888W        W24504  31.856  28.666  11.521
52889W        W24505  40.287   5.994   1.831
52890W        W24506  23.595  17.095   1.465
52891W        W24507  34.031  44.316   5.520
52892W        W24508  20.725  16.635   0.720
52893W        W24509  19.392  39.594  10.610
52894W        W24510  32.612  30.010  13.513
52895W        W24511  38.569  41.857   1.684
52896W        W24512   1.429  10.139  13.474
52897W        W24513   8.837  10.249  11.668
52898W        W24514  28.079  31.010   3.994
52899W        W24515  42.724  23.282  13.261
52900W        W24516   1.553  21.927  11.602
52901W        W24517   6.459  43.647   4.338
52902W        W24518  34.698  11.720   2.772
52903W        W24519  29.308  33.357  10.614
52904W        W24520   3.718   2.861  12.931
52905W        W24521  10.321  20.041  13.797
52906W        W24522  13.285  41.244   4.808
52907W        W24523  11.223  28.697   4.164
52908W        W24524  19.642  27.172   4.249
52909W        W24525  11.411  35.417   0.818
52910W        W24526   3.761  42.055  14.081
52911W        W24527   3.314  19.267  10.733
52912W        W24528  28.146  23.886   0.751
52913W        W24529  16.683  41.073   0.902
52914W        W24530  33.688   7.194   4.896
52915W        W24531  19.040  10.140  11.626
52916W        W24532  25.072  22.966  14.476
52917W        W24533  16.317  41.364   3.200
52918W        W24534   1.233  20.233   0.404
52919W        W24535  14.080  32.980   4.040
52920W        W24536  39.724   3.461  11.267
52921W        W24537  14.685  19.509   0.139
52922W        W24538   1.407   7.827  10.742
52923W        W24539   3.965  43.799  13.009
52924W        W24540  32.906  21.164  10.355
52925W        W24541  14.353  18.216   3.317
52926W        W24542  23.503  41.948  13.487
52927W        W24543  40.420  28.202  10.642
52928W        W24544   0.292   4.253  14.675
52929W        W24545   3.866  29.729  13.893
52930W        W24546  37.684  20.506   2.804
52931W        W24547  27.902  20.752   3.792
52932W        W24548  37.141  11.907   1.606
52933W        W24549   1.970  31.611   2.347
52934W        W24550  26.032  28.103  14.790
52935W        W24551  24.705  13.902  14.680
52936W        W24552  34.530   8.649  11.183
52937W        W24553   8.452  43.064   4.105
52938W        W24554  14.797   5.612  11.142
52939W        W24555  24.433  38.127  13.896
52940W        W24556  16.543   7.815   0.857
52941W        W24557   6.085  42.850   1.352
52942W        W24558  25.249   3.271  12.519
52943W        W24559  27.633  24.387   2.127
52944W        W24560  22.128  40.541   1.317
52945W        W24561   2.527  30.725   5.000
52946W        W24562   7.260   9.232   2.318
52947W        W24563  10.141  30.460   1.824
52948W        W24564  27.253  42.094   1.759
52949W        W24565  26.117  28.189  13.920
52950W        W24566  12.242   8.507   3.883
52951W        W24567  22.726  10.823  14.354
52952W        W24568  33.451  30.691   0.243
52953W        W24569  34.233  34.760   3.275
52954W        W24570  10.978  12.105   1.290
52955W        W24571   6.278  18.337  11.865
52956W        W24572   7.611  25.122   3.318
52957W        W24573  13.168   4.721   2.372
52958W        W24574  21.913   7.218  14.938
52959W        W24575  39.965  13.945  11.883
52960W        W24576  36.501  25.488   4.735
52961W        W24577  38.880  26.584  12.517
52962W        W24578  21.821  39.011  11.526
52963W        W24579  24.309  10.150   1.445
52964W        W24580  32.008  29.721   1.884
52965W        W24581   7.079  38.937   4.777
52966W        W24582  28.234  13.050  14.053
52967W        W24583  44.822  27.555   4.961
52968W        W24584  42.000  32.032  11.133
52969W        W24585   8.281   5.832   2.743
52970W        W24586  42.638  30.467  14.062
52971W        W24587  25.526   5.447   4.168
52972W        W24588  10.875  19.310  14.483
52973W        W24589  25.749  23.056  10.724
52974W        W24590   0.991  24.569  11.618
52975W        W24591  13.879  17.674  14.947
52976W        W24592   2.890  37.932   4.918
52977W        W24593  22.636  16.704  10.655
52978W        W24594  24.478  17.040   4.331
52979W        W24595  35.085   7.381  12.518
52980W        W24596  15.094  27.022  12.519
52981W        W24597  26.947  12.178   2.362
52982W        W24598  32.877   2.202  14.900
52983W        W24599   1.932  25.500   1.722
52984W        W24600  13.850  40.336   1.783
52985W        W24601  24.610  38.127   0.780
52986W        W24602  14.872  41.477   3.331
52987W        W24603  41.947  17.782  13.490
52988W        W24604  10.243  11.721  11.968
52989W        W24605  36.288  10.823   4.407
52990W        W24606   1.429  19.799   0.668
52991W        W24607  14.780  21.083  13.453
52992W        W24608   0.680  30.622   2.668
52993W        W24609  21.421   2.170   0.924
52994W        W24610  18.152   7.903   1.340
52995W        W24611  21.594   5.017  10.921
52996W        W24612   2.733  22.145  10.713
52997W        W24613  32.077   0.730  14.371
52998W        W24614  24.278  10.617   0.054
52999W        W24615  17.873  16.521  11.875
53000W        W24616  34.411  31.656  14.636
53001W        W24617  14.613  16.146   4.542
53002W        W24618  28.585  20.061   2.635
53003W        W24619  24.558  29.573  12.366
53004W        W24620  15.594  16.641  11.502
53005W        W24621  12.534   5.655  14.497
53006W        W24622  44.421   6.381   1.245
53007W        W24623  11.243  13.361   0.862
53008W        W24624  20.917  24.971  10.235
53009W        W24625  43.418   2.407   0.722
53010W        W24626  32.252  43.956   5.475
53011W        W24627   2.919   6.666   4.616
53012W        W24628  14.090  13.842  13.453
53013W        W24629  31.982  14.635   1.138
53014W        W24630   5.411   3.225  14.882
53015W        W24631  31.111   8.100  11.928
53016W        W24632   9.821  36.617  14.456
53017W        W24633  31.071   4.889  11.531
53018W        W24634  39.661  44.552  14.420
53019W        W24635  12.762  12.324  11.441
53020W        W24636  19.356  36.023  13.417
53021W        W24637  11.878  44.889   1.723
53022W        W24638  30.812  32.609   4.982
53023W        W24639  40.476  16.744  10.865
53024W        W24640   2.710  21.081  10.295
53025W        W24641   7.158  23.736   4.029
53026W        W24642  16.741  40.859   2.434
53027W        W24643  22.302  24.162   4.001
53028W        W24644  43.082  44.884   0.291
53029W        W24645  13.374   1.657   1.304
53030W        W24646  31.017  25.606   1.263
53031W        W24647  18.678  33.995  13.364
53032W        W24648  25.462  33.447   3.342
53033W        W24649   3.919  31.929   0.891
53034W        W24650  43.997  21.295   3.371
53035W        W24651   3.394  13.715   2.820
53036W        W24652  22.051  25.892  11.536
53037W        W24653   8.902  30.316   4.962
53038W        W24654  44.434  34.182   2.972
53039W        W24655  14.129   0.002  11.492
53040W        W24656  20.537  34.400  14.293
53041W        W24657   2.811  36.660   1.407
53042W        W24658  21.561  13.860   4.190
53043W        W24659   4.211   7.679   0.474
53044W        W24660  19.015   3.474   0.694
53045W        W24661  17.212  38.946   1.670
53046W        W24662   1.493   6.342  12.448
53047W        W24663  22.189  41.344   4.644
53048W        W24664   8.253  44.956   1.872
53049W        W24665  31.376  18.141   4.101
53050W        W24666   7.318  40.976   1.726
53051W        W24667  32.551  30.622  12.105
53052W        W24668  31.099  15.212  12.622
53053W        W24669  39.288  16.074  10.832
53054W        W24670  32.677  42.424   3.143
53055W        W24671   2.398  16.712  14.019
53056W        W24672  33.340  26.211   0.079
53057W        W24673  15.801  31.013  14.890
53058W        W24674  15.046  39.626   4.234
53059W        W24675  23.228   5.400   2.291
53060W        W24676  26.556  17.091  12.766
53061W        W24677  35.206  39.369  13.331
53062W        W24678   0.207  30.959  14.498
53063W        W24679  35.391  29.381   4.198
53064W        W24680  32.425  19.388   0.800
53065W        W24681  43.895  13.844   3.676
53066W        W24682  35.332   5.273  13.537
53067W        W24683   0.462  43.382  13.427
53068W        W24684  40.035  34.269   4.234
53069W        W24685  17.069  42.362  11.856
53070W        W24686  26.765  24.192   2.222
53071W        W24687  13.561  18.228   5.481
53072W        W24688  38.613  14.824  10.503
53073W        W24689  40.748  29.704   2.279
53074W        W24690  37.324  40.990  11.519
53075W        W24691  37.731  10.731   1.930
53076W        W24692  31.575  18.760  14.986
53077W        W24693  37.817  37.026   2.336
53078W        W24694  15.683  19.888   2.362
53079W        W24695   6.880  13.503  14.990
53080W        W24696  36.195  24.472  12.484
53081W        W24697   6.502   5.045  12.500
53082W        W24698  34.403  37.588  11.839
53083W        W24699  42.382  26.131   1.837
53084W        W24700   2.839  30.919   0.480
53085W        W24701  23.104  23.186   0.364
53086W        W24702  17.077  10.390  11.620
53087W        W24703  11.175   4.700   0.483
53088W        W24704  32.700  32.441  10.768
53089W        W24705   9.368  30.591  11.019
53090W        W24706  44.877  11.655  12.182
53091W        W24707  16.092   5.706  14.267
53092W        W24708  37.375  15.097  10.951
53093W        W24709  35.680  16.252   2.931
53094W        W24710   9.725  39.615   2.828
53095W        W24711  23.996  43.048  11.627
53096W        W24712  34.356  24.985  14.293
53097W        W24713  27.488   2.833  11.005
53098W        W24714  42.956  33.926   1.511
53099W        W24715  32.834  23.768  10.670
53100W        W24716  28.626   9.132  14.252
53101W        W24717  25.082  15.064   2.318
53102W        W24718  24.511  41.436  13.003
53103W        W24719  30.942   1.604   1.126
53104W        W24720  41.527  36.520   3.739
53105W        W24721  15.275   2.257   0.312
53106W        W24722   6.380  10.361  13.802
53107W        W24723  43.715  12.580   4.157
53108W        W24724  17.131   5.708  14.218
53109W        W24725  43.114  30.574   4.929
53110W        W24726   6.160   0.430   2.744
53111W        W24727  41.835  37.784  11.970
53112W        W24728  13.149  30.484   1.836
53113W        W24729  28.207  38.061  14.872
53114W        W24730  23.657   0.752  12.909
53115W        W24731  13.365  23.946  11.550
53116W        W24732  25.538   6.899  10.999
53117W        W24733  27.004  15.215   1.196
53118W        W24734  37.895  33.913   1.220
53119W        W24735   6.290  39.005  13.341
53120W        W24736  14.905  31.112   1.436
53121W        W24737  16.156  18.086  11.858
53122W        W24738  42.470  17.071   1.272
53123W        W24739   2.779   2.406   1.793
53124W        W24740   4.197  17.190   1.318
53125W        W24741  40.088  27.550  13.430
53126W        W24742  13.304  24.576   4.284
53127W        W24743   0.139  24.386   4.068
53128W        W24744  24.798  25.671   3.395
53129W        W24745  40.856  17.036  11.088
53130W        W24746  43.300  44.536  13.501
53131W        W24747   6.687  20.097   0.474
53132W        W24748   2.381  35.100  10.648
53133W        W24749  16.236  22.934   2.427
53134W        W24750  13.559  28.596  13.877
53135W        W24751  18.480  26.080   2.337
53136W        W24752  40.846   7.954   4.944
53137W        W24753  30.930   3.192  13.499
53138W        W24754  41.481   4.794   3.720
53139W        W24755  24.835  38.897  14.552
53140W        W24756   6.431  32.691   2.641
53141W        W24757  15.530  24.566  12.856
53142W        W24758  14.060  21.495  14.370
53143W        W24759   2.206  17.195   4.180
53144W        W24760  28.431  36.517  11.496
53145W        W24761  23.442  42.166  12.634
53146W        W24762  41.307  22.028   1.310
53147W        W24763  18.729  17.058   3.187
53148W        W24764   8.358  18.795  12.416
53149W        W24765  16.814  21.699  10.817
53150W        W24766  23.710  24.817  14.182
53151W        W24767   3.734   2.316   0.259
53152W        W24768  34.087  11.144   0.257
53153W        W24769  34.849  14.892   1.288
53154W        W24770   0.515  11.393  10.989
53155W        W24771  21.926  19.117   3.296
53156W        W24772  34.487  17.257  13.860
53157W        W24773  29.600  32.683  13.474
53158W        W24774  30.496  11.215   1.285
53159W        W24775  25.897  14.322  12.575
53160W        W24776  43.356   3.120   2.535
53161W        W24777  20.019   8.774   1.751
53162W        W24778  12.814  43.841   0.274
53163W        W24779   0.550   9.929   3.894
53164W        W24780  26.546  28.467  11.586
53165W        W24781  16.079  19.343  10.330
53166W        W24782  10.601  10.563  14.425
53167W        W24783  12.843  39.360   4.557
53168W        W24784  20.201  14.788   3.668
53169W        W24785   7.329  35.089  10.821
53170W        W24786  16.733  32.389  11.168
53171W        W24787  14.967   4.212   4.008
53172W        W24788  20.602  16.110  10.928
53173W        W24789  12.613  12.959  13.473
53174W        W24790  16.974  42.446   4.792
53175W        W24791  12.756   3.441  13.924
53176W        W24792  22.099  28.329  14.977
53177W        W24793  29.422  36.330  11.481
53178W        W24794   2.873  39.747  12.551
53179W        W24795  10.888  42.022   2.412
53180W        W24796  17.613  34.816  11.960
53181W        W24797  19.323  10.219   1.654
53182W        W24798  37.860   9.501   3.614
53183W        W24799   9.286  13.224  12.547
53184W        W24800  24.604   8.622   2.813
53185W        W24801  36.088  25.161   4.577
53186W        W24802  41.848  35.636   3.725
53187W        W24803  34.615   6.507  12.853
53188W        W24804  40.020  34.150   1.642
53189W        W24805   6.345  36.087  13.257
53190W        W24806  21.331  41.287  11.465
53191W        W24807  11.388  17.600   2.629
53192W        W24808   9.643  39.504   2.336
53193W        W24809  39.655   1.419   0.450
53194W        W24810  12.129  40.429  13.973
53195W        W24811   2.969  10.740   4.656
53196W        W24812  13.148  15.379  11.476
53197W        W24813  43.685  30.547  12.008
53198W        W24814  35.379  37.965  14.460
53199W        W24815  40.811  11.930   0.422
53200W        W24816  12.136  20.261  11.518
53201W        W24817  36.540  29.506  13.917
53202W        W24818   8.926  40.750  13.722
53203W        W24819   1.074  20.539  14.731
53204W        W24820  27.891  19.012   2.372
53205W        W24821  21.207   1.481   5.148
53206W        W24822  30.547  29.506  10.345
53207W        W24823  33.430  29.009  12.072
53208W        W24824  13.522  24.739  14.111
53209W        W24825  15.633  11.029  10.212
53210W        W24826  33.373   0.976  12.070
53211W        W24827  18.968   5.475  12.547
53212W        W24828  43.558  25.673   3.677
53213W        W24829  19.675   6.662   4.654
53214W        W24830  22.565  24.479   0.251
53215W        W24831  38.785   8.241   3.379
53216W        W24832  40.475  34.652  10.665
53217W        W24833  11.274   0.387   3.619
53218W        W24834  28.569   6.682  12.607
53219W        W24835  14.165  14.057   0.695
53220W        W24836   4.301  20.083  11.528
53221W        W24837  18.756  29.376   4.108
53222W        W24838   5.033  44.829   2.310
53223W        W24839  37.197  43.442   3.336
53224W        W24840  36.637   9.599  14.831
53225W        W24841  20.820   3.872  14.536
53226W        W24842  36.844   7.739  14.187
53227W        W24843  25.175  44.345   0.423
53228W        W24844  20.805   2.905   2.716
53229W        W24845  41.715  11.124   4.062
53230W        W24846  41.330  24.678  14.864
53231W        W24847  28.546  13.372  13.587
53232W        W24848  23.931   7.915  14.496
53233W        W24849  39.775  23.518  11.181
53234W        W24850  38.149   5.459   3.221
53235W        W24851  15.172  36.809  13.563
53236W        W24852   9.422  21.052  14.851
53237W        W24853   4.199  27.209   1.399
53238W        W24854  41.458  43.089   3.188
53239W        W24855  36.393  14.131  13.914
53240W        W24856  33.478  30.667   2.582
53241W        W24857   6.411  41.271   2.474
53242W        W24858  13.691  24.600   3.617
53243W        W24859  32.146  14.122   4.804
53244W        W24860  38.859  13.907   4.955
53245W        W24861   2.334  17.719   1.195
53246W        W24862  19.171  14.084   3.197
53247W        W24863  11.768  13.209   3.246
53248W        W24864   3.593   4.704  13.272
53249W        W24865  13.169   0.550  13.937
53250W        W24866  10.894  19.965   1.025
53251W        W24867  29.530  28.196  13.382
53252W        W24868  22.014  15.132   4.075
53253W        W24869  23.537   6.849   1.685
53254W        W24870  43.923  34.170   2.470
53255W        W24871  37.770  25.188  10.040
53256W        W24872  29.051  25.595   4.779
53257W        W24873  10.374  17.028  12.169
53258W        W24874  26.214   0.937  12.950
53259W        W24875   9.119  40.778   0.953
53260W        W24876  41.152  30.027  11.068
53261W        W24877   9.666   5.055  13.511
53262W        W24878  27.710  22.111   1.560
53263W        W24879  10.861  20.799   4.172
53264W        W24880  21.582   2.161  14.416
53265W        W24881   2.190  13.428   1.704
53266W        W24882  10.283  35.255  10.647
53267W        W24883   4.938   7.739   1.933
53268W        W24884  31.202  22.015   1.628
53269W        W24885  11.546  41.554   3.266
53270W        W24886  33.459  32.155   3.594
53271W        W24887  18.063  28.796   4.068
53272W        W24888  44.289  31.230  11.265
53273W        W24889  32.360  43.750   0.471
53274W        W24890  16.553  35.616   0.331
53275W        W24891  32.192  38.384   3.645
53276W        W24892   4.499  14.224   4.025
53277W        W24893   6.870  19.286  10.985
53278W        W24894  34.400   7.409  11.577
53279W        W24895  41.281  15.769  11.468
53280W        W24896  42.207  14.452  14.380
53281W        W24897  25.066  42.238   2.460
53282W        W24898  15.876   6.134  11.619
53283W        W24899   4.876   9.359   0.223
53284W        W24900  39.785  27.287  13.986
53285W        W24901   3.757  32.640   4.305
53286W        W24902  24.997   6.673   2.463
53287W        W24903   3.204  40.085   1.767
53288W        W24904  28.867   7.592  14.324
53289W        W24905  17.850  18.724  13.791
53290W        W24906  22.494   1.943   3.757
53291W        W24907  10.307  19.222   3.546
53292W        W24908  42.488  39.943   2.253
53293W        W24909  24.922   4.757  13.758
53294W        W24910  36.980   8.625  11.899
53295W        W24911   9.060  29.188   2.369
53296W        W24912  44.246  33.345  14.942
53297W        W24913  41.093   6.400   1.704
53298W        W24914  11.872  21.334  13.458
53299W        W24915  27.987  37.970  14.400
53300W        W24916  29.997  39.391  12.378
53301W        W24917  16.885  16.702  11.978
53302W        W24918   1.394  35.821   0.213
53303W        W24919  41.569  28.113  12.894
53304W        W24920   0.970  19.105  12.473
53305W        W24921   0.901  24.933   2.027
53306W        W24922  28.618  16.063   0.238
53307W        W24923  14.548   2.448   4.034
53308W        W24924  41.979  44.712   3.240
53309W        W24925  43.978  25.851  12.307
53310W        W24926  36.578  38.242  13.835
53311W        W24927  29.150   0.808   2.534
53312W        W24928  25.612  32.298  11.137
53313W        W24929  25.573  30.701   1.812
53314W        W24930  26.712  39.509   1.145
53315W        W24931  33.491  14.386   2.606
53316W        W24932  14.589  11.026   2.711
53317W        W24933  15.978  33.178  14.417
53318W        W24934   1.133  29.529  14.706
53319W        W24935  18.172  40.326   1.012
53320W        W24936  31.061  16.877   1.746
53321W        W24937  20.048  36.319   1.198
53322W        W24938  27.286  16.716   0.859
53323W        W24939  35.386  44.548   1.215
53324W        W24940  30.573  41.473  14.917
53325W        W24941  16.129  31.034   2.921
53326W        W24942  16.159   4.644  11.872
53327W        W24943  25.290  22.869   3.659
53328W        W24944  17.158   9.764   2.133
53329W        W24945  34.585  34.720   0.285
53330W        W24946  23.121  19.055   4.545
53331W        W24947  24.113  33.219  11.485
53332W        W24948  28.622  15.846   4.596
53333W        W24949   2.484  38.147  14.433
53334W        W24950  40.484  13.571   2.881
53335W        W24951  25.776  25.543  14.495
53336W        W24952  13.608  38.021   3.300
53337W        W24953   7.216  43.185   2.496
53338W        W24954  22.545   7.817   4.752
53339W        W24955   1.425  13.276  12.510
53340W        W24956   8.158  28.065  14.343
53341W        W24957  13.344  14.612   1.242
53342W        W24958  23.598  26.961   1.901
53343W        W24959  17.162  18.408   0.268
53344W        W24960  24.020  41.452   2.638
53345W        W24961  27.750   8.469  10.445
53346W        W24962  43.813  29.365  12.606
53347W        W24963  43.291  12.078  14.565
53348W        W24964  32.980  16.585   4.572
53349W        W24965  27.987   2.803  14.215
53350W        W24966  10.977  21.175  14.906
53351W        W24967  19.071   9.261   2.366
53352W        W24968  24.520  18.140   0.415
53353W        W24969   9.857  21.660  12.593
53354W        W24970   6.235  14.765   1.394
53355W        W24971  11.932  11.761  11.074
53356W        W24972  34.518   5.762   2.226
53357W        W24973  15.604  26.935  11.556
53358W        W24974   1.766   8.435   4.693
53359W        W24975  17.153   6.567  10.618
53360W        W24976  29.638  34.934  13.835
53361W        W24977  23.519  36.748  13.792
53362W        W24978   4.255  26.548   2.352
53363W        W24979  19.276  27.514   0.426
53364W        W24980  24.072  27.708   4.617
53365W        W24981  19.181  10.891   0.911
53366W        W24982  26.116   7.873   4.581
53367W        W24983  40.846  36.556  12.572
53368W        W24984  43.362  43.714   0.966
53369W        W24985  44.490  18.740  12.579
53370W        W24986  29.504   2.959   0.336
53371W        W24987   7.601   1.523  10.796
53372W        W24988  41.718  28.720   0.851
53373W        W24989  21.631  35.656   3.774
53374W        W24990  21.493   2.105  12.109
53375W        W24991   2.773  42.952  12.083
53376W        W24992   1.181  36.560  14.455
53377W        W24993  17.089  41.013   4.891
53378W        W24994   6.492   0.970   3.559
53379W        W24995  16.121  17.156  13.818
53380W        W24996  33.029  21.677  11.899
53381W        W24997  11.528  34.993  14.972
53382W        W24998  31.972  28.114   1.403
53383W        W24999  32.230  41.892   5.296
53384W        W25000   1.196  10.549   1.907
53385W        W25001  39.946  39.556   1.306
53386W        W25002  41.342  38.052  14.190
53387W        W25003   6.692   3.338   3.243
53388W        W25004  38.889  36.383   0.954
53389W        W25005  15.173  32.581   0.402
53390W        W25006  22.158  24.241  14.116
53391W        W25007   8.604  21.034  12.756
53392W        W25008  29.156  14.669  13.296
53393W        W25009  23.988  41.719   4.594
53394W        W25010  34.873  35.486  12.502
53395W        W25011  25.676  32.866  13.111
53396W        W25012  22.860  30.397   5.123
53397W        W25013  17.084  38.863  14.282
53398W        W25014  27.001  15.805  14.727
53399W        W25015  18.872  40.275  14.523
53400W        W25016  40.622  30.055  12.499
53401W        W25017  31.069  23.707   1.385
53402W        W25018  34.457  43.292   3.768
53403W        W25019  34.666  27.075  11.969
53404W        W25020  23.534  17.205  12.695
53405W        W25021  17.320  42.797   1.259
53406W        W25022   5.442  42.773  12.959
53407W        W25023   8.282  28.480  13.613
53408W        W25024  18.240  44.919   9.780
53409W        W25025  33.655  30.145  14.862
53410W        W25026  29.189   5.204   2.313
53411W        W25027  38.153  27.057  12.748
53412W        W25028  20.380   9.356  13.835
53413W        W25029  31.487  31.807   3.679
53414W        W25030  27.522  15.068  10.675
53415W        W25031   4.338   9.929   0.085
53416W        W25032  35.311  29.456  13.112
53417W        W25033  12.612  16.995  12.521
53418W        W25034  40.372   5.881   3.246
53419W        W25035  21.712  13.651  11.581
53420W        W25036   2.659   3.933  10.752
53421W        W25037  18.070  42.957  11.920
53422W        W25038  39.596  35.943   3.796
53423W        W25039  19.607   5.398  11.510
53424W        W25040   2.227  22.660  13.431
53425W        W25041  33.490   7.188  10.601
53426W        W25042  20.121  13.377   1.718
53427W        W25043   9.521  17.799  14.344
53428W        W25044  29.734  28.118   0.272
53429W        W25045  44.505  37.573  10.606
53430W        W25046  39.980   1.876  12.586
53431W        W25047   8.229  16.890  11.080
53432W        W25048  11.568   1.204  12.371
53433W        W25049   2.004  22.614   4.511
53434W        W25050  34.104  15.893  13.754
53435W        W25051  35.350  28.687   2.184
53436W        W25052  26.694  24.064   3.597
53437W        W25053  35.334   0.860   4.253
53438W        W25054   3.319   4.324   4.888
53439W        W25055  42.326  32.489   3.669
53440W        W25056  16.597  27.473  12.596
53441W        W25057  43.570   6.378  12.887
53442W        W25058  29.077  16.227  14.556
53443W        W25059  40.556  12.186  12.027
53444W        W25060  26.674  33.102  11.114
53445W        W25061  14.769  18.103  14.932
53446W        W25062  41.362  23.008  12.859
53447W        W25063   7.873  26.922  14.437
53448W        W25064  26.077   6.390   1.575
53449W        W25065  28.152  42.291  13.278
53450W        W25066  19.709  41.522  10.643
53451W        W25067  20.031   6.122  12.353
53452W        W25068  19.125  28.108  11.707
53453W        W25069  13.281  21.707  14.316
53454W        W25070   5.658  37.573   2.423
53455W        W25071  30.200  22.496   1.386
53456W        W25072  11.365  28.130   3.792
53457W        W25073  37.717  40.929   3.362
53458W        W25074  19.870  18.216   0.442
53459W        W25075  21.131  27.282   0.448
53460W        W25076  41.732  12.378   2.719
53461W        W25077  36.551  13.278   2.546
53462W        W25078  44.313  10.940  10.642
53463W        W25079  14.710  38.350   1.422
53464W        W25080  41.366   7.842   0.800
53465W        W25081  15.305  34.103   1.328
53466W        W25082  22.242  21.270  14.801
53467W        W25083  44.260  38.412  10.179
53468W        W25084  35.977  11.939   3.553
53469W        W25085   3.433  14.786  14.285
53470W        W25086  17.088  22.703   4.584
53471W        W25087   7.362  40.442  13.921
53472W        W25088  27.577  39.880  12.554
53473W        W25089  17.188  26.204  13.048
53474W        W25090  29.476  40.317   2.237
53475W        W25091   6.892  20.747   3.710
53476W        W25092   7.684  36.913  11.521
53477W        W25093  38.858  24.806  11.550
53478W        W25094  12.680   6.990   0.269
53479W        W25095   9.904   9.789  12.068
53480W        W25096  26.293   3.848  11.960
53481W        W25097  25.130  35.933   1.072
53482W        W25098  24.477   1.630  10.992
53483W        W25099   6.704  11.278  14.137
53484W        W25100  14.512   2.383   2.722
53485W        W25101  24.159   8.702  12.179
53486W        W25102  27.938  11.667  10.704
53487W        W25103  43.500  37.386   1.343
53488W        W25104   4.997   2.237   0.955
53489W        W25105  43.838   3.754   3.263
53490W        W25106  24.186  40.358   0.503
53491W        W25107  15.241  25.546   2.905
53492W        W25108   1.200  39.476   0.310
53493W        W25109  41.087  14.885  11.413
53494W        W25110   8.372   7.146   3.214
53495W        W25111  15.511   5.286  12.388
53496W        W25112  14.880  22.651  11.244
53497W        W25113   2.885  15.743   2.410
53498W        W25114  16.131   8.893  12.746
53499W        W25115  10.349  35.619  11.010
53500W        W25116  15.335  39.436  10.736
53501W        W25117  17.977   3.465   3.587
53502W        W25118  35.594  32.452  10.673
53503W        W25119  20.996  22.648  12.383
53504W        W25120  42.907  44.856  10.605
53505W        W25121  12.076  17.722  12.959
53506W        W25122  32.448  35.487  11.718
53507W        W25123   5.751   4.620   4.287
53508W        W25124  36.613  23.497   2.165
53509W        W25125   7.893  44.273   1.424
53510W        W25126  29.564   4.979  11.138
53511W        W25127  10.834   0.706  11.750
53512W        W25128  30.832  37.738   4.953
53513W        W25129  15.809  30.235   3.690
53514W        W25130  44.263  16.653   5.090
53515W        W25131  11.611  25.566   0.408
53516W        W25132   4.969  16.601   2.228
53517W        W25133  27.699   9.195  13.315
53518W        W25134   2.714  39.862  13.493
53519W        W25135  37.423  15.432   4.611
53520W        W25136  22.976   1.482   3.366
53521W        W25137  33.272  36.334   3.812
53522W        W25138  20.490  28.139   4.210
53523W        W25139  30.789  40.596   4.488
53524W        W25140   3.334  14.457  11.894
53525W        W25141  30.206  43.135   0.668
53526W        W25142  20.535  22.255   4.598
53527W        W25143  28.023  23.865  13.349
53528W        W25144  27.205  42.484  12.003
53529W        W25145  15.298  25.170  12.020
53530W        W25146   0.502  32.603   2.446
53531W        W25147   3.802   5.342  12.922
53532W        W25148  10.100   8.757   4.132
53533W        W25149  16.343  10.209  14.928
53534W        W25150  44.287  17.040  10.671
53535W        W25151  34.027  23.025  12.526
53536W        W25152  31.208  38.842  10.645
53537W        W25153  36.792  12.755  12.473
53538W        W25154  29.335  40.778  10.514
53539W        W25155  31.994   1.838   4.823
53540W        W25156  33.114   5.770   0.272
53541W        W25157  30.618  42.951  11.987
53542W        W25158  16.824  37.869  11.476
53543W        W25159  23.526   2.221  13.899
53544W        W25160  16.752   0.309   0.829
53545W        W25161  27.211   2.759   1.425
53546W        W25162  28.740  27.861   4.070
53547W        W25163  37.538  37.872   0.254
53548W        W25164   0.067  19.876  11.701
53549W        W25165  12.470  11.288  13.306
53550W        W25166  10.626  18.069   4.534
53551W        W25167   5.760  13.720   3.734
53552W        W25168  21.731  27.514  13.923
53553W        W25169  23.076  17.034   1.344
53554W        W25170  22.807  24.752  13.348
53555W        W25171   7.591  11.661   0.771
53556W        W25172   1.780   0.819  11.927
53557W        W25173  26.805  31.114  14.974
53558W        W25174   7.794  36.107  14.479
53559W        W25175   8.128   8.212   0.780
53560W        W25176   2.453   6.389  10.768
53561W        W25177  39.872  29.601  13.421
53562W        W25178   6.373  15.686   4.311
53563W        W25179   0.763   8.709  11.654
53564W        W25180  39.814  23.808  14.037
53565W        W25181   5.903  11.392  12.593
53566W        W25182  17.239  43.562  12.908
53567W        W25183  33.443  12.531  13.206
53568W        W25184  37.576  28.538  10.916
53569W        W25185  42.324  20.502   3.284
53570W        W25186   8.627  19.683   1.478
53571W        W25187  40.078  39.902  12.488
53572W        W25188  31.070  13.682  12.542
53573W        W25189  43.352  32.899   0.870
53574W        W25190   0.369  13.595   3.243
53575W        W25191  30.711  26.331  12.828
53576W        W25192  39.875  10.048  11.628
53577W        W25193  35.997  19.735  13.425
53578W        W25194  41.562   8.246   1.807
53579W        W25195   4.272  20.221   4.168
53580W        W25196  26.796   2.878  12.050
53581W        W25197   4.252  32.910  11.776
53582W        W25198  43.446   8.369   2.190
53583W        W25199  42.609  35.799  11.558
53584W        W25200  33.411  12.809  14.068
53585W        W25201  33.965   3.147   2.735
53586W        W25202  29.583   9.837  11.207
53587W        W25203  31.416  41.909  13.596
53588W        W25204  23.572  36.101   3.816
53589W        W25205  19.756  21.369  12.926
53590W        W25206  37.134  20.711  11.545
53591W        W25207   5.394   4.247  11.175
53592W        W25208  35.549  11.919   2.219
53593W        W25209  42.495  22.662   4.540
53594W        W25210  27.494  43.447  14.076
53595W        W25211  24.971  18.708   3.652
53596W        W25212   1.100  40.141  13.709
53597W        W25213   0.728   3.943  13.852
53598W        W25214   9.714  19.444   0.482
53599W        W25215   8.213  27.733  11.603
53600W        W25216  15.784  22.657  11.386
53601W        W25217  44.009   8.210   4.687
53602W        W25218  19.804  29.915  12.421
53603W        W25219  26.958  26.559  13.861
53604W        W25220  39.498  17.777  14.522
53605W        W25221  28.186  16.673   0.103
53606W        W25222  19.079  10.345  14.875
53607W        W25223   8.450  42.063   1.759
53608W        W25224  38.784   0.172   0.763
53609W        W25225  21.555  23.629   4.730
53610W        W25226   9.453  34.593  14.804
53611W        W25227  36.548  34.360  10.772
53612W        W25228  36.403   7.777  11.567
53613W        W25229   5.373  41.726   1.869
53614W        W25230  33.293  42.473   4.890
53615W        W25231   7.930  14.218  13.310
53616W        W25232   8.487  11.894   5.010
53617W        W25233  17.004  43.776   4.321
53618W        W25234   6.319  13.990   5.224
53619W        W25235  11.238  10.543  11.234
53620W        W25236  40.377  24.073   2.990
53621W        W25237  38.595  22.247   1.670
53622W        W25238  28.137  34.328   2.573
53623W        W25239  40.246  34.116   2.184
53624W        W25240  24.348  28.853   1.089
53625W        W25241  24.704  44.040   3.251
53626W        W25242  41.456  40.336  13.379
53627W        W25243  28.471  14.541   5.095
53628W        W25244  15.552  35.501  14.343
53629W        W25245  20.715   6.716  11.462
53630W        W25246  30.090  26.497  11.512
53631W        W25247  34.809  21.780   2.840
53632W        W25248  20.648  16.628  10.828
53633W        W25249  37.889   9.123   2.162
53634W        W25250  29.000  14.662   5.072
53635W        W25251  34.058   9.597   2.359
53636W        W25252  29.836  39.956  12.956
53637W        W25253  26.572  23.990   5.024
53638W        W25254  29.790  26.000   1.627
53639W        W25255  18.329  10.896   3.586
53640W        W25256   7.096  23.217  14.652
53641W        W25257  31.782  41.126  10.319
53642W        W25258   8.118  25.075   4.116
53643W        W25259  27.937   7.375   4.787
53644W        W25260  30.154   7.416  13.036
53645W        W25261  23.035  40.922  13.622
53646W        W25262   4.466  11.742   2.911
53647W        W25263   5.891  12.373  13.582
53648W        W25264  36.148  43.391  11.540
53649W        W25265  31.486  19.499   2.407
53650W        W25266  44.696  19.977  14.328
53651W        W25267  20.046   8.546  14.919
53652W        W25268   5.761   4.490  12.890
53653W        W25269  18.529  21.686   1.176
53654W        W25270  41.464  20.118  14.331
53655W        W25271   3.489  10.431  14.239
53656W        W25272  28.916  12.694  10.706
53657W        W25273  31.137  13.865  12.049
53658W        W25274   6.848   6.358   4.479
53659W        W25275  10.407  33.970  11.158
53660W        W25276   0.745   1.542   2.847
53661W        W25277  22.402  11.789  14.019
53662W        W25278   5.352   5.832  11.942
53663W        W25279  23.270  42.753  11.113
53664W        W25280  10.879  18.634  12.489
53665W        W25281   0.948  39.108   3.839
53666W        W25282  43.011   8.383   2.753
53667W        W25283  12.306  18.488   2.261
53668W        W25284  18.688   3.524   4.175
53669W        W25285  32.879   2.738  14.908
53670W        W25286  32.998  44.920   5.170
53671W        W25287  30.433   4.764   0.836
53672W        W25288  36.871  29.398  12.116
53673W        W25289  12.594  17.233  13.326
53674W        W25290  15.203  34.974   3.349
53675W        W25291  18.660   7.694   1.440
53676W        W25292  30.301   1.906   3.125
53677W        W25293  29.855   3.267  14.442
53678W        W25294  43.151  38.188  10.138
53679W        W25295   8.632  26.176  14.992
53680W        W25296  35.389   5.854  11.932
53681W        W25297  31.151  39.871  12.332
53682W        W25298  43.667  40.471  14.912
53683W        W25299  43.839  15.172  11.115
53684W        W25300  37.269  40.861  10.511
53685W        W25301  10.444  12.612   0.322
53686W        W25302  27.230  22.241   0.323
53687W        W25303  29.486  24.475   3.612
53688W        W25304  32.790  44.529   9.772
53689W        W25305  35.309  41.948   3.345
53690W        W25306  31.211  24.970   3.259
53691W        W25307   0.898  17.316  13.837
53692W        W25308  36.386  40.601   4.607
53693W        W25309  31.080  41.100   3.880
53694W        W25310  34.654  15.071   4.267
53695W        W25311   8.713  44.305  10.634
53696W        W25312  44.161   0.270  14.839
53697W        W25313  18.814  32.067  12.083
53698W        W25314  35.248  27.620   3.976
53699W        W25315  31.312   4.620   1.773
53700W        W25316  32.426  17.680   0.408
53701W        W25317   5.838  43.758   0.821
53702W        W25318  43.570  29.079   5.016
53703W        W25319  42.178   6.683  14.741
53704W        W25320   8.349  44.983   2.784
53705W        W25321  36.964  38.255   4.804
53706W        W25322  23.108  35.886   4.072
53707W        W25323  25.453  12.053   0.381
53708W        W25324  17.231   1.926  12.436
53709W        W25325  21.114   4.333  14.548
53710W        W25326  38.448   5.853   3.414
53711W        W25327  34.527   8.297   1.266
53712W        W25328   3.700  31.365  12.033
53713W        W25329  19.233  19.093  14.876
53714W        W25330  23.218  10.670   2.851
53715W        W25331   8.797  35.895   1.351
53716W        W25332  10.345  44.174  14.824
53717W        W25333  12.290  26.118   1.643
53718W        W25334  15.777  33.085   3.230
53719W        W25335  41.862  37.125   3.705
53720W        W25336  24.415  12.863   4.188
53721W        W25337  44.936  12.897   4.464
53722W        W25338  44.150   7.766  11.847
53723W        W25339   4.436   3.970   4.183
53724W        W25340  43.465   5.270   3.605
53725W        W25341  42.799  41.715  11.449
53726W        W25342  25.086   1.541  13.591
53727W        W25343  29.888  12.701  12.105
53728W        W25344  19.013  37.014   4.560
53729W        W25345  17.586  37.087   2.728
53730W        W25346  20.947  20.126   3.169
53731W        W25347  14.180  44.018  13.101
53732W        W25348  12.726  24.308  13.737
53733W        W25349  13.093  30.012   3.440
53734W        W25350  32.962   5.319  12.980
53735W        W25351  35.326  25.695  11.966
53736W        W25352  25.929  18.742  13.333
53737W        W25353  21.618  43.724   0.777
53738W        W25354  21.202  29.568  13.593
53739W        W25355  18.814  30.574   3.435
53740W        W25356  15.629  43.080   1.685
53741W        W25357  14.512   4.347   1.880
53742W        W25358   1.039  28.875   0.880
53743W        W25359  32.053  42.844   3.159
53744W        W25360  30.641  41.052   1.775
53745W        W25361  11.783  23.729  12.509
53746W        W25362  12.527  23.949   0.681
53747W        W25363  29.554  19.258  12.434
53748W        W25364  29.742  42.427   3.357
53749W        W25365  21.315  34.270   2.607
53750W        W25366  11.414  39.860  14.094
53751W        W25367  43.536   6.604  14.329
53752W        W25368  12.583   4.152   0.316
53753W        W25369  18.625  30.962  14.289
53754W        W25370  20.620  11.849   1.473
53755W        W25371  23.720  34.157   1.821
53756W        W25372  33.270  36.127   0.211
53757W        W25373   2.313  18.981  12.886
53758W        W25374  39.470   1.913   5.060
53759W        W25375   8.167  11.650   4.692
53760W        W25376  34.869   5.171  10.565
53761W        W25377  15.608  33.697  11.987
53762W        W25378  14.299  14.756  12.484
53763W        W25379  18.329   3.457  11.456
53764W        W25380  13.181  14.666  10.443
53765W        W25381   3.936  10.506  13.357
53766W        W25382  36.396  40.072  10.699
53767W        W25383  13.732  22.400   3.788
53768W        W25384   5.167  40.097  10.468
53769W        W25385  11.329  42.445   3.001
53770W        W25386  27.440  19.853   1.112
53771W        W25387  12.684  26.000   1.965
53772W        W25388  16.069   1.826   4.594
53773W        W25389  27.007   8.131  12.137
53774W        W25390   8.244  27.481   0.145
53775W        W25391  28.511  43.278  11.455
53776W        W25392   0.323  34.356   1.344
53777W        W25393  21.648   4.554   1.257
53778W        W25394  13.763   4.232  14.597
53779W        W25395  39.531  34.554   2.844
53780W        W25396  16.535   8.714   0.013
53781W        W25397  10.521  26.600   1.761
53782W        W25398  26.053  15.759   4.387
53783W        W25399  38.327   4.980  12.920
53784W        W25400  33.563   9.324   3.266
53785W        W25401  33.050  16.786  12.493
53786W        W25402  35.297  37.118   1.332
53787W        W25403   9.303  39.937  12.781
53788W        W25404  37.036  13.306  13.415
53789W        W25405   3.848  14.092  13.895
53790W        W25406   2.996   4.299   2.074
53791W        W25407  22.999   4.428  10.791
53792W        W25408  43.607  18.201  10.579
53793W        W25409  18.336  15.012   3.778
53794W        W25410  37.365  35.404  10.766
53795W        W25411  20.573  43.998  14.836
53796W        W25412   8.036  21.112   4.154
53797W        W25413  11.803  24.937   2.202
53798W        W25414  25.946  20.782  13.054
53799W        W25415  37.406  15.298  13.119
53800W        W25416  19.777  33.628   2.270
53801W        W25417  25.800  15.235  14.400
53802W        W25418  11.739  23.765  10.537
53803W        W25419   7.704  43.916  12.408
53804W        W25420  22.052  42.795  11.559
53805W        W25421  16.033  11.222  11.407
53806W        W25422   1.029  40.599   3.267
53807W        W25423  30.202  41.800   4.544
53808W        W25424  21.515   7.267   2.429
53809W        W25425   8.891  29.397   3.583
53810W        W25426  17.065  19.188   3.762
53811W        W25427  40.634  17.132   3.646
53812W        W25428   6.461  37.079   2.007
53813W        W25429  27.083  42.535   0.543
53814W        W25430  30.038  41.555  14.883
53815W        W25431  26.976  26.021  13.894
53816W        W25432   7.345  39.474   0.890
53817W        W25433  14.390  28.109  12.032
53818W        W25434  40.613  16.490  14.450
53819W        W25435  42.744  44.909   2.656
53820W        W25436  17.522  21.756  14.830
53821W        W25437  35.572  35.080  13.771
53822W        W25438   1.117  23.129  14.521
53823W        W25439  13.637   3.135  12.591
53824W        W25440  33.469  18.603   4.723
53825W        W25441   0.299  35.680  10.098
53826W        W25442  35.853  13.811  13.039
53827W        W25443  21.127  25.127  14.319
53828W        W25444  16.253   5.323   1.308
53829W        W25445  38.191  22.000   1.229
53830W        W25446   7.808  27.095   1.374
53831W        W25447   3.715  22.895  14.459
53832W        W25448  15.993  43.776   3.408
53833W        W25449  15.842  12.398  11.845
53834W        W25450  17.334  41.299   0.869
53835W        W25451  37.799  27.136  14.943
53836W        W25452  43.012  21.534   4.903
53837W        W25453  39.799  21.452   3.921
53838W        W25454  13.738  37.522  10.443
53839W        W25455  23.698  35.836  13.144
53840W        W25456   9.392  11.716  12.110
53841W        W25457  19.771  16.053  14.252
53842W        W25458  28.036  11.119  14.952
53843W        W25459  22.973   2.871   0.337
53844W        W25460   7.178  11.559  11.650
53845W        W25461  30.523   8.100   3.176
53846W        W25462   4.303  27.977  13.763
53847W        W25463  16.813  10.959   0.873
53848W        W25464  16.749  30.930  11.205
53849W        W25465  44.615  17.914   5.333
53850W        W25466  11.842   8.774   3.676
53851W        W25467  16.288   8.540  13.905
53852W        W25468  41.037  33.652  10.986
53853W        W25469  42.876   5.335  12.393
53854W        W25470   2.123  16.902   4.635
53855W        W25471  11.470   0.046  11.972
53856W        W25472  35.481  10.293   4.115
53857W        W25473  26.519  31.976  13.325
53858W        W25474  12.149  19.975   2.174
53859W        W25475  11.369  35.644   4.199
53860W        W25476  26.499  34.037   3.747
53861W        W25477  27.885  39.133   5.033
53862W        W25478  10.580  38.409  10.540
53863W        W25479  12.116  31.024   1.393
53864W        W25480  32.420   2.324  10.187
53865W        W25481  44.600  23.486   1.907
53866W        W25482   2.441  42.528   0.925
53867W        W25483  26.159   2.253   0.777
53868W        W25484  30.501  26.444   2.167
53869W        W25485  11.557  28.540   4.805
53870W        W25486  30.498  38.605  12.457
53871W        W25487  18.552  37.595  13.033
53872W        W25488  40.503   5.730  11.597
53873W        W25489  35.616  23.450   3.720
53874W        W25490  44.259  34.539   3.306
53875W        W25491  22.825  27.647   1.091
53876W        W25492  26.440  11.120  12.979
53877W        W25493  13.553   8.914  13.427
53878W        W25494  37.294  32.561   3.175
53879W        W25495  29.649  29.605  13.436
53880W        W25496  28.607  18.024   0.914
53881W        W25497  11.703  13.613  12.007
53882W        W25498  40.486   5.714   2.756
53883W        W25499  15.871  30.060   1.957
53884W        W25500  39.790  30.839   2.725
53885W        W25501   0.246   2.844  12.426
53886W        W25502   9.159  20.170   0.857
53887W        W25503  32.210  35.016  12.864
53888W        W25504   6.948  27.593   3.755
53889W        W25505   8.944  10.746  14.901
53890W        W25506  43.719  42.107  11.171
53891W        W25507  32.034  30.211   2.244
53892W        W25508   8.294  20.570   0.734
53893W        W25509  28.033   5.065  12.097
53894W        W25510  11.581   5.734  12.929
53895W        W25511   3.060  14.851  11.114
53896W        W25512  24.461  30.076  10.611
53897W        W25513  20.682   9.250   0.221
53898W        W25514   1.181  43.861   4.038
53899W        W25515  14.122  36.520  14.707
53900W        W25516  37.486  23.479  11.429
53901W        W25517  10.467  40.296   0.770
53902W        W25518  31.920  32.835   0.520
53903W        W25519  24.128   9.368  10.927
53904W        W25520  10.105  37.404  13.114
53905W        W25521  40.054  41.969   1.051
53906W        W25522  21.031   3.372  13.335
53907W        W25523  29.860   1.244  12.763
53908W        W25524  30.882  39.492  14.266
53909W        W25525  24.226  36.805  13.560
53910W        W25526  43.969  44.553   4.110
53911W        W25527   5.338  16.249  14.056
53912W        W25528  18.209   6.688  13.419
53913W        W25529  19.085  33.552   3.740
53914W        W25530  24.764  22.078  11.593
53915W        W25531  19.683  26.957  12.109
53916W        W25532  19.659  22.116  11.850
53917W        W25533  15.082   5.503  11.547
53918W        W25534  27.874  37.046   3.208
53919W        W25535  34.558  28.664   3.771
53920W        W25536  39.305  15.271   3.934
53921W        W25537  20.738  30.438   4.181
53922W        W25538  30.011   7.778  11.636
53923W        W25539   2.362  26.265  14.096
53924W        W25540   1.329  43.210   4.803
53925W        W25541  33.123  20.212  13.086
53926W        W25542   3.716  11.402   3.644
53927W        W25543  15.297  13.825   1.699
53928W        W25544  12.287  10.381   0.908
53929W        W25545  10.753   4.655  13.778
53930W        W25546   5.353   4.644   1.354
53931W        W25547  16.772  20.457   4.263
53932W        W25548  14.641  15.668  11.568
53933W        W25549  13.062  29.096   3.874
53934W        W25550   3.020  12.271  10.710
53935W        W25551   5.339   8.666  13.549
53936W        W25552  11.725  16.573  12.015
53937W        W25553  21.953   0.001   0.371
53938W        W25554  43.954  19.530  14.047
53939W        W25555  12.782  24.594  13.305
53940W        W25556  30.362   2.884  13.989
53941W        W25557   1.806  27.179   4.581
53942W        W25558  44.440   5.177   2.723
53943W        W25559  30.178  32.339   0.944
53944W        W25560  31.909  13.385   5.051
53945W        W25561  33.288  22.486   3.339
53946W        W25562  42.839  35.393   5.405
53947W        W25563  23.433  37.339  14.722
53948W        W25564   5.844   1.285  11.162
53949W        W25565  13.882  27.713  11.064
53950W        W25566  27.923  20.223   3.225
53951W        W25567  38.906  40.570  11.490
53952W        W25568   8.839  28.665   0.253
53953W        W25569  22.503  25.638  11.458
53954W        W25570  23.036  21.086  11.738
53955W        W25571   6.431  32.548  13.588
53956W        W25572  10.556  27.459  12.596
53957W        W25573   4.011  19.928  10.268
53958W        W25574  37.931  14.999  11.030
53959W        W25575  30.429  33.589   3.896
53960W        W25576  37.681  43.415  11.691
53961W        W25577  44.711  44.720   3.941
53962W        W25578   9.716   9.923   3.315
53963W        W25579  44.575  35.150  14.321
53964W        W25580  41.354  21.391  12.059
53965W        W25581  18.787   3.213  12.604
53966W        W25582  13.298  33.367   0.491
53967W        W25583  22.596  10.190   2.270
53968W        W25584   3.389   0.273   4.181
53969W        W25585  12.611  35.307   3.514
53970W        W25586   2.447  13.452   3.755
53971W        W25587  40.314  39.027  12.165
53972W        W25588  10.915  29.493  11.887
53973W        W25589  22.919   8.831   0.714
53974W        W25590  34.301   3.248  14.997
53975W        W25591  26.088  29.598   3.125
53976W        W25592   3.673  38.582  14.794
53977W        W25593  14.097  18.578   5.098
53978W        W25594  38.560  27.739   1.208
53979W        W25595  27.786   8.580  12.085
53980W        W25596  44.853  23.288  11.140
53981W        W25597  19.769  27.437  13.861
53982W        W25598   1.393  37.333   3.963
53983W        W25599  26.019  22.177  12.398
53984W        W25600  14.161  44.380   3.684
53985W        W25601   2.637   3.941   1.980
53986W        W25602   1.707   0.335   1.863
53987W        W25603   7.442  31.868  11.544
53988W        W25604  43.781  17.256  14.625
53989W        W25605  22.703  36.692  11.310
53990W        W25606  36.255  44.352   1.245
53991W        W25607   0.504  13.797  11.931
53992W        W25608  31.889  28.175  13.817
53993W        W25609   3.955  15.850  13.369
53994W        W25610  32.350  16.760   0.156
53995W        W25611  39.643  29.992   0.518
53996W        W25612  12.615  26.968  10.568
53997W        W25613  30.287  26.137   1.773
53998W        W25614  16.498  31.032  13.440
53999W        W25615  13.536  10.029   1.334
54000W        W25616   7.400  44.954  14.394
54001W        W25617   6.328   9.153  13.939
54002W        W25618  27.143  39.626   3.211
54003W        W25619   3.178  29.531   1.844
54004W        W25620   0.315  30.491   0.397
54005W        W25621   7.700   4.379  13.634
54006W        W25622  38.470  40.727   2.068
54007W        W25623  36.860   9.344  14.424
54008W        W25624  27.142  21.925   4.610
54009W        W25625  10.162  41.581  11.823
54010W        W25626  30.562   7.712  12.952
54011W        W25627   4.749   8.643  10.426
54012W        W25628  35.742  27.809   4.141
54013W        W25629  38.994  26.725   2.649
54014W        W25630  24.636  23.762  14.280
54015W        W25631  38.543  34.690   1.200
54016W        W25632  33.363  10.918  12.937
54017W        W25633  18.660  19.818  10.737
54018W        W25634  38.596  26.195  13.553
54019W        W25635  12.674   1.308   2.156
54020W        W25636  22.238  22.143   1.944
54021W        W25637  27.428   7.644  14.391
54022W        W25638  13.790  24.229  13.364
54023W        W25639  20.243  44.043  10.974
54024W        W25640  41.769  41.885   4.150
54025W        W25641  13.908  28.592  14.392
54026W        W25642  26.061  26.973   4.230
54027W        W25643   2.990  32.166   0.825
54028W        W25644  34.990  22.639   2.410
54029W        W25645  26.457   4.367   0.881
54030W        W25646   9.632  10.183   5.134
54031W        W25647  39.984   7.862   1.474
54032W        W25648  30.920   8.113   4.649
54033W        W25649  18.696  30.870   2.595
54034W        W25650  15.902  11.157  14.857
54035W        W25651  36.632  14.916   3.589
54036W        W25652  31.490  34.037   0.776
54037W        W25653  24.563  17.438   4.667
54038W        W25654  24.257  10.622   0.807
54039W        W25655  25.462  44.823   0.338
54040W        W25656  26.300  16.826  13.949
54041W        W25657  36.496  30.041   3.792
54042W        W25658  44.805  17.697  11.578
54043W        W25659  35.420   5.262  11.604
54044W        W25660   0.713  22.704  11.023
54045W        W25661   6.688  12.680   4.606
54046W        W25662  10.855  13.245  10.743
54047W        W25663  40.001  23.938  11.513
54048W        W25664   6.542  23.738   3.212
54049W        W25665   0.599  35.298  13.543
54050W        W25666  14.750  32.227  13.063
54051W        W25667  31.878  17.591   2.315
54052W        W25668  43.969  29.586  11.067
54053W        W25669   8.336  17.617  11.674
54054W        W25670   2.422  31.694  11.445
54055W        W25671  16.995  27.054   1.898
54056W        W25672  37.536  11.643   1.814
54057W        W25673   9.103  17.328   4.406
54058W        W25674  44.367  11.958   3.646
54059W        W25675   1.767  30.077  12.073
54060W        W25676  12.918  42.329  13.152
54061W        W25677  16.018  42.388  14.506
54062W        W25678   8.425  16.571   1.301
54063W        W25679   9.257   8.477   0.049
54064W        W25680  38.274  22.748  14.449
54065W        W25681  18.229  23.660   1.326
54066W        W25682  31.646  35.187   4.544
54067W        W25683   1.816   9.639   1.329
54068W        W25684  44.966  39.058  12.175
54069W        W25685  37.755  30.586   0.808
54070W        W25686  38.321  43.753   0.210
54071W        W25687  23.511   6.215   0.280
54072W        W25688   0.911  22.056  11.951
54073W        W25689   4.458  41.875   0.796
54074W        W25690   8.347  17.670   4.919
54075W        W25691   7.243  30.688  13.709
54076W        W25692  20.564  30.434   0.430
54077W        W25693  39.448  32.835  14.456
54078W        W25694  16.699  27.628  12.111
54079W        W25695  15.181  39.476   0.787
54080W        W25696  30.475  37.357  14.917
54081W        W25697  19.238  19.796   0.243
54082W        W25698  42.833   8.157   2.325
54083W        W25699  39.373  33.476   1.925
54084W        W25700  28.669  32.863   3.378
54085W        W25701  23.567   7.109  11.341
54086W        W25702   9.651  11.376  11.437
54087W        W25703  15.690  42.941   4.337
54088W        W25704  43.649  35.533  14.366
54089W        W25705  36.847  30.432   0.935
54090W        W25706  20.071  44.938  11.113
54091W        W25707  13.366   3.153  13.249
54092W        W25708  11.383   6.740  10.655
54093W        W25709  25.958  21.758  12.672
54094W        W25710  43.583  13.320   0.164
54095W        W25711   3.259  34.609   4.717
54096W        W25712  14.728  35.089  11.823
54097W        W25713   1.286  25.626  10.361
54098W        W25714  12.033  26.992  13.512
54099W        W25715  26.386  22.954   1.265
54100W        W25716  19.606  38.448  13.929
54101W        W25717  28.350  29.183  14.408
54102W        W25718   7.837  27.071   3.433
54103W        W25719  43.070  33.429   2.224
54104W        W25720  17.698  21.930   3.288
54105W        W25721  43.222  18.684   3.742
54106W        W25722   5.756  35.564   2.792
54107W        W25723  25.334   1.042  11.015
54108W        W25724  10.751  43.237  13.036
54109W        W25725   4.799  35.594  14.382
54110W        W25726   4.479  16.193  10.697
54111W        W25727  32.137   5.466   3.201
54112W        W25728   3.530   0.763   0.262
54113W        W25729  25.236  25.035  11.952
54114W        W25730  16.680  34.129  10.733
54115W        W25731  17.944  35.048   2.722
54116W        W25732  15.256  31.029   2.951
54117W        W25733  23.589  44.961  10.776
54118W        W25734   9.298  20.584  11.906
54119W        W25735  26.167  33.407   1.777
54120W        W25736  18.016  26.893   2.713
54121W        W25737   4.776  38.303  12.775
54122W        W25738  23.810  28.027  12.024
54123W        W25739   1.003  17.479   2.407
54124W        W25740  11.213  43.916   0.009
54125W        W25741  41.859  36.759  11.008
54126W        W25742  21.729   8.850   3.590
54127W        W25743  36.481  24.791  11.676
54128W        W25744   6.385  42.277  11.617
54129W        W25745  29.529  43.450   0.006
54130W        W25746  43.510  41.044  11.086
54131W        W25747   9.275   7.574  12.875
54132W        W25748   1.850  11.228   3.231
54133W        W25749  30.734   4.805   0.394
54134W        W25750  30.464   8.214  11.194
54135W        W25751  18.638  26.386   3.305
54136W        W25752  40.520   0.325  12.908
54137W        W25753  43.475  35.820   2.170
54138W        W25754  17.851  19.341  14.452
54139W        W25755   0.282  20.762   2.721
54140W        W25756  43.100  35.237  10.936
54141W        W25757  21.906  21.276  11.924
54142W        W25758  31.854  12.756  14.156
54143W        W25759  12.234   3.391  14.842
54144W        W25760  32.887  26.642   0.970
54145W        W25761  39.086  32.009   4.575
54146W        W25762   9.263   0.202  12.815
54147W        W25763  22.366  38.349  13.672
54148W        W25764  40.370  39.552  13.330
54149W        W25765  10.490   5.826  14.641
54150W        W25766  13.707  35.311   0.531
54151W        W25767  43.745  28.103   4.398
54152W        W25768  16.463  29.742  11.158
54153W        W25769  22.013  31.178  12.431
54154W        W25770  18.096   8.252  14.798
54155W        W25771   8.098  39.375  11.110
54156W        W25772  23.683  39.922   2.322
54157W        W25773  34.035   0.564   0.426
54158W        W25774  42.821  21.573   1.842
54159W        W25775  24.850   0.253  12.056
54160W        W25776   2.610   6.920   3.303
54161W        W25777  31.837   2.850  12.462
54162W        W25778  13.337   6.348   4.650
54163W        W25779  30.902   2.141   1.230
54164W        W25780   7.484   8.325  11.963
54165W        W25781  28.931  38.398  12.532
54166W        W25782  25.700  26.001   2.345
54167W        W25783  43.931  16.765   4.255
54168W        W25784  12.859  11.720  13.017
54169W        W25785  22.364   0.916  13.848
54170W        W25786   8.457   7.750   2.794
54171W        W25787  20.560  26.612  11.852
54172W        W25788  30.487  17.914  11.762
54173W        W25789   0.485  18.764  13.450
54174W        W25790  21.735   8.342   2.256
54175W        W25791  15.126  21.588  12.521
54176W        W25792  14.410  18.022   0.875
54177W        W25793  11.646   2.327   2.198
54178W        W25794   1.200   8.211   2.895
54179W        W25795   5.492  15.740  11.128
54180W        W25796  33.095  39.751  13.545
54181W        W25797   5.692  17.494  11.863
54182W        W25798  41.961  37.311  13.262
54183W        W25799  22.485  27.049   0.888
54184W        W25800   0.587   6.238  11.032
54185W        W25801  23.986  38.111   0.518
54186W        W25802  33.174  12.797  13.615
54187W        W25803   3.949   1.019   1.463
54188W        W25804  38.705   1.696  13.142
54189W        W25805  21.248  33.548   1.284
54190W        W25806  10.430  37.017  13.314
54191W        W25807  22.729  15.743   1.513
54192W        W25808   9.670  30.724  11.421
54193W        W25809  44.601  26.986  14.757
54194W        W25810  37.041  24.610   4.023
54195W        W25811   6.422  23.765  13.056
54196W        W25812  37.724  20.558   0.367
54197W        W25813  24.937  35.551   1.886
54198W        W25814  24.622  39.158   4.239
54199W        W25815  19.982  25.648   4.092
54200W        W25816  24.951  43.454   0.963
54201W        W25817  22.053   4.288   3.933
54202W        W25818  37.475  34.879  13.756
54203W        W25819  16.264  23.993  13.885
54204W        W25820  36.605  31.147   3.383
54205W        W25821  42.368  32.289   3.189
54206W        W25822  34.154  33.363  12.888
54207W        W25823  28.740  32.659   0.150
54208W        W25824  12.068   8.591  12.497
54209W        W25825  27.415   1.774  14.942
54210W        W25826   2.291  36.087  11.661
54211W        W25827  14.405  23.114   1.940
54212W        W25828  12.949  17.273   0.245
54213W        W25829  30.173   8.250   3.597
54214W        W25830  26.660  17.641  12.132
54215W        W25831  25.191  31.877   4.090
54216W        W25832  31.408  29.639   1.857
54217W        W25833   2.578  19.594  14.969
54218W        W25834  26.609   7.615   3.306
54219W        W25835  31.591  24.259   1.602
54220W        W25836   4.696  32.300   4.063
54221W        W25837  28.968  39.345   2.848
54222W        W25838  27.442   0.930  14.583
54223W        W25839   9.204   2.213   2.346
54224W        W25840  34.093  38.943  11.573
54225W        W25841  19.178  26.494   1.733
54226W        W25842  24.579  10.388  12.033
54227W        W25843  19.985   9.192   1.145
54228W        W25844  39.550   2.429   0.485
54229W        W25845   0.944  12.795   3.297
54230W        W25846  40.354  23.124  13.484
54231W        W25847  25.893  27.188   1.837
54232W        W25848  12.849   9.600  11.183
54233W        W25849   2.993   7.652   3.702
54234W        W25850  37.429   5.898   2.798
54235W        W25851  12.320  15.126   0.821
54236W        W25852  44.341  17.446  11.674
54237W        W25853   2.748  28.434   3.700
54238W        W25854  18.766  42.166   5.053
54239W        W25855  18.134  37.310  13.966
54240W        W25856  40.441  33.827   0.348
54241W        W25857  44.854   2.714  10.475
54242W        W25858  34.923  44.716   5.494
54243W        W25859  14.167  17.538  14.485
54244W        W25860   3.835  41.279   5.202
54245W        W25861  25.643   3.203   2.891
54246W        W25862   0.834  18.977   2.347
54247W        W25863  42.792  26.597  11.406
54248W        W25864  16.392  29.625   4.304
54249W        W25865  40.253  31.107  10.711
54250W        W25866  42.959  16.691  11.413
54251W        W25867   6.464  24.302   5.022
54252W        W25868  13.393  31.809   4.602
54253W        W25869  18.290  34.923   2.360
54254W        W25870  34.065  36.654   3.109
54255W        W25871  31.110  12.540  13.599
54256W        W25872   8.449  23.547   4.120
54257W        W25873  15.512  10.149  12.435
54258W        W25874  20.452  26.006  13.649
54259W        W25875   8.803  43.998  13.754
54260W        W25876  13.293  15.050  13.227
54261W        W25877  18.679  34.686   4.144
54262W        W25878  35.823  20.615  11.138
54263W        W25879  29.589  25.671  14.451
54264W        W25880  44.932  17.179   4.621
54265W        W25881  31.887  30.621   1.421
54266W        W25882  28.659  16.386   4.598
54267W        W25883  37.463  13.218   1.568
54268W        W25884  25.676  19.038  10.515
54269W        W25885  28.627  37.978  11.381
54270W        W25886  23.664   7.248  10.862
54271W        W25887   5.024  25.426  12.805
54272W        W25888  13.735  12.080   3.767
54273W        W25889  23.488  43.457   3.366
54274W        W25890  29.600  37.066  11.087
54275W        W25891  43.986  40.542   3.298
54276W        W25892  40.944   8.855  11.225
54277W        W25893  12.622  29.825   1.392
54278W        W25894  38.285  33.042   2.243
54279W        W25895  20.108  41.372  14.000
54280W        W25896  26.232  10.124   3.324
54281W        W25897  22.607   6.782   3.708
54282W        W25898   2.388  18.717   2.652
54283W        W25899   8.436  32.196   5.193
54284W        W25900   3.888  17.638   1.312
54285W        W25901  25.359  25.507   1.244
54286W        W25902  43.718  24.827   4.810
54287W        W25903  13.122  10.211  11.543
54288W        W25904   6.420  20.072   4.239
54289W        W25905   2.674  42.726  12.543
54290W        W25906   7.204  26.266  14.818
54291W        W25907  28.172  17.452   4.280
54292W        W25908  21.563   6.604   0.676
54293W        W25909  13.187  11.943   3.087
54294W        W25910  19.896  19.541   3.853
54295W        W25911   9.955  27.625   2.346
54296W        W25912  19.772   0.363   0.344
54297W        W25913  25.147  22.510   0.894
54298W        W25914  10.642  15.650  11.555
54299W        W25915  11.279  28.596  14.388
54300W        W25916  28.098   9.040  11.110
54301W        W25917  41.424  24.059   0.867
54302W        W25918  36.742   3.594   5.095
54303W        W25919  14.227  20.084   1.944
54304W        W25920  33.587  29.748   2.818
54305W        W25921  27.072   6.107   2.392
54306W        W25922  38.007  10.282  14.923
54307W        W25923   1.984   8.737   0.762
54308W        W25924  44.793  37.355   0.140
54309W        W25925  27.618  42.268  13.327
54310W        W25926  13.207  11.861  12.482
54311W        W25927  35.883  26.923  14.049
54312W        W25928  39.724   1.820   1.224
54313W        W25929  24.086  23.704   2.771
54314W        W25930   0.399  11.391  11.882
54315W        W25931   4.128   6.826  13.876
54316W        W25932  33.027  31.231  12.508
54317W        W25933  18.706  18.883   1.185
54318W        W25934  16.761  35.138  13.528
54319W        W25935   6.075  30.206   4.569
54320W        W25936   0.927  21.992   4.469
54321W        W25937  38.872  18.211   4.876
54322W        W25938   6.347   0.361  10.698
54323W        W25939  34.042  21.990  14.581
54324W        W25940  38.984  32.429   1.343
54325W        W25941  41.989  37.978  10.266
54326W        W25942  33.837  41.844  10.766
54327W        W25943  19.282  14.527  12.477
54328W        W25944   8.163   7.435   1.734
54329W        W25945  36.873   3.825   3.590
54330W        W25946  11.128  34.580   1.210
54331W        W25947  35.490  36.658   4.159
54332W        W25948   6.085  27.086   1.640
54333W        W25949  15.066  15.923   3.711
54334W        W25950  14.506  25.890   2.276
54335W        W25951  41.289   0.804   3.123
54336W        W25952  24.769  15.541  11.988
54337W        W25953  35.413  25.201  12.407
54338W        W25954  42.344  38.378  11.534
54339W        W25955  24.347  16.298  12.999
54340W        W25956   3.265   1.056   3.627
54341W        W25957  38.099   9.937   9.962
54342W        W25958  44.936   8.119  13.494
54343W        W25959   1.352  14.912   2.232
54344W        W25960  27.138  14.648  14.786
54345W        W25961  36.228  10.939   9.684
54346W        W25962  38.554  42.958  14.175
54347W        W25963  16.129  16.808   4.233
54348W        W25964  20.301   9.397  11.947
54349W        W25965  33.655   9.527  11.229
54350W        W25966  33.266   3.283   0.610
54351W        W25967  36.001  44.535   4.882
54352W        W25968   6.268   1.644  14.312
54353W        W25969  23.898   3.526   4.962
54354W        W25970  22.701   4.877  12.468
54355W        W25971  29.296  26.314   4.587
54356W        W25972  39.420   7.387  11.164
54357W        W25973  34.282  31.430  12.051
54358W        W25974  17.086  21.165   3.223
54359W        W25975  32.613   5.181   3.221
54360W        W25976  13.418   4.395  12.508
54361W        W25977  25.681   1.979   1.001
54362W        W25978  23.028  21.939  13.161
54363W        W25979   7.574   0.371  10.623
54364W        W25980  22.609  11.755  11.683
54365W        W25981  18.513   9.595  11.960
54366W        W25982  33.010  35.089   1.224
54367W        W25983  40.687   0.154   0.900
54368W        W25984   3.707  21.062   3.134
54369W        W25985  13.588   3.972  12.232
54370W        W25986  24.106  10.850  13.270
54371W        W25987  39.868  43.393   0.785
54372W        W25988  35.280  14.143   0.259
54373W        W25989   2.323  37.028   3.943
54374W        W25990  41.876  13.928   1.848
54375W        W25991   5.272  39.980  12.347
54376W        W25992  34.647  27.562   1.705
54377W        W25993  16.354  22.623  13.188
54378W        W25994  28.408  33.084  13.423
54379W        W25995   4.293  19.597   0.076
54380W        W25996  35.537  42.566   0.786
54381W        W25997  12.873   5.539  10.673
54382W        W25998   3.025  27.129  14.855
54383W        W25999  36.023   9.652   3.164
54384W        W26000   0.262  41.782  12.571
54385W        W26001  32.994  29.190  11.460
54386W        W26002   9.876   0.212   1.834
54387W        W26003  37.138  14.358  14.331
54388W        W26004  28.146  35.672  13.918
54389W        W26005  23.028  41.156   2.309
54390W        W26006  15.853  25.927  12.634
54391W        W26007  17.051  18.082  14.861
54392W        W26008   1.921   0.545   1.425
54393W        W26009  36.632  11.361   5.580
54394W        W26010  24.631  15.864  12.341
54395W        W26011  31.407   9.573  13.405
54396W        W26012  25.136  31.709  11.979
54397W        W26013   9.213  32.910   4.144
54398W        W26014  22.116  22.910   2.809
54399W        W26015   8.126  12.660  11.590
54400W        W26016  13.181  28.987  12.047
54401W        W26017  32.431   6.360  11.301
54402W        W26018  40.873  26.169   1.251
54403W        W26019  23.067  39.607   4.493
54404W        W26020  19.637  42.789   1.222
54405W        W26021  37.309  10.132  14.438
54406W        W26022  44.943  33.115  13.483
54407W        W26023  19.830  22.576  13.050
54408W        W26024  17.763  31.926  12.009
54409W        W26025  28.124   9.371  11.932
54410W        W26026  25.472  31.937   4.851
54411W        W26027   1.472  38.278   1.371
54412W        W26028   5.912  38.609   4.551
54413W        W26029  12.305   8.086   3.274
54414W        W26030  21.947  34.374  13.413
54415W        W26031  25.630  15.526   3.731
54416W        W26032  23.174  13.795   1.807
54417W        W26033  10.649  30.458   4.787
54418W        W26034  35.798  30.863  14.693
54419W        W26035   1.910  13.910  10.579
54420W        W26036   7.399  30.244   0.088
54421W        W26037   3.907  16.522  12.404
54422W        W26038  36.055  29.604  13.820
54423W        W26039  20.336   4.255   2.790
54424W        W26040  41.668  36.022   2.044
54425W        W26041  39.343  35.449  10.638
54426W        W26042  17.821   1.340   3.269
54427W        W26043  36.339  14.987  14.044
54428W        W26044   2.983   5.394  13.408
54429W        W26045  12.582   5.739   0.896
54430W        W26046  28.496   6.362  13.509
54431W        W26047  13.311   2.493   5.097
54432W        W26048  38.619  14.788   3.518
54433W        W26049  32.685  44.027   1.387
54434W        W26050  44.944  23.988  11.899
54435W        W26051  22.710  22.941  12.493
54436W        W26052  30.737   0.557  14.409
54437W        W26053  31.587   8.408   2.916
54438W        W26054  43.320  40.341   0.752
54439W        W26055   9.380  33.039   2.745
54440W        W26056   3.331  19.384  12.638
54441W        W26057  36.196  16.814  12.983
54442W        W26058  27.579  37.772   2.734
54443W        W26059  12.614  16.244   2.221
54444W        W26060  12.849  38.440   3.182
54445W        W26061   6.937   3.726  14.712
54446W        W26062  19.169   5.255   1.992
54447W        W26063  14.578  43.050   4.114
54448W        W26064  37.143  37.075   4.354
54449W        W26065  14.172   4.626   2.881
54450W        W26066  18.756  11.275   4.481
54451W        W26067   3.792  19.596  12.072
54452W        W26068  34.646  42.232   1.310
54453W        W26069  20.111   3.475  13.330
54454W        W26070  26.535  15.885  10.552
54455W        W26071  31.170  23.107  12.961
54456W        W26072   6.906  40.441  12.346
54457W        W26073  39.245  19.550   1.742
54458W        W26074  23.038  27.946  14.818
54459W        W26075  28.688  32.976   4.486
54460W        W26076  30.369  40.413   4.229
54461W        W26077  37.937  19.371  14.368
54462W        W26078  33.017  29.881  12.031
54463W        W26079  10.042  28.096   2.163
54464W        W26080  34.621   3.857  12.072
54465W        W26081  17.159   5.678  11.832
54466W        W26082  16.079  29.229   2.728
54467W        W26083   8.125  28.682   4.308
54468W        W26084  44.922  11.199  11.945
54469W        W26085   0.602  38.534  12.945
54470W        W26086  38.012   5.201   1.212
54471W        W26087   8.366  19.125  14.830
54472W        W26088  31.286  35.109   1.617
54473W        W26089  13.784  14.255   2.356
54474W        W26090  18.620  41.423  10.653
54475W        W26091  19.266  15.779  14.316
54476W        W26092  39.827  41.903   0.079
54477W        W26093  28.632   1.760   4.735
54478W        W26094  20.356  44.000   0.303
54479W        W26095  35.287  13.419   2.280
54480W        W26096   3.021  36.372   1.756
54481W        W26097  17.795  30.671  11.592
54482W        W26098  37.038   9.342  10.600
54483W        W26099  43.844   4.938   1.737
54484W        W26100  29.850  13.368   4.539
54485W        W26101   9.650  25.300  13.760
54486W        W26102  44.817  35.867  11.974
54487W        W26103  35.820  29.018  14.173
54488W        W26104  12.706  22.521   4.395
54489W        W26105  20.035  14.259   0.707
54490W        W26106   8.911  29.749  11.265
54491W        W26107  34.018  11.876  11.256
54492W        W26108  26.317   3.098  12.439
54493W        W26109  20.112   7.621  14.920
54494W        W26110   0.972  31.471   3.225
54495W        W26111  21.061  43.751  11.531
54496W        W26112  19.768   0.923  13.880
54497W        W26113  22.121  31.172   2.353
54498W        W26114   2.169   2.735   0.841
54499W        W26115   1.318  20.701   1.903
54500W        W26116  32.589  13.643   2.436
54501W        W26117  17.534  41.776   3.951
54502W        W26118  16.768  34.604  11.619
54503W        W26119  33.056  41.030  14.968
54504W        W26120  33.949   1.748  10.662
54505W        W26121  31.334  20.562  13.504
54506W        W26122  14.391  20.447  11.103
54507W        W26123  21.303  25.724  12.164
54508W        W26124   0.318  14.353  12.226
54509W        W26125  16.138  33.453  13.997
54510W        W26126  34.549   1.633   4.986
54511W        W26127  10.964   3.976   2.788
54512W        W26128  14.783   7.668   1.879
54513W        W26129  37.850  11.256  12.889
54514W        W26130  41.577  27.444   0.724
54515W        W26131   4.059  36.047  14.273
54516W        W26132  19.088  42.033   2.256
54517W        W26133   4.777   1.736   0.901
54518W        W26134   4.948  23.587  12.161
54519W        W26135  34.600  19.426   4.581
54520W        W26136  28.532  21.202  12.909
54521W        W26137  40.940  11.939   3.728
54522W        W26138  28.884  34.473   3.767
54523W        W26139  28.207  35.519  12.130
54524W        W26140  32.180  35.438  14.519
54525W        W26141  41.941   3.182  14.723
54526W        W26142  18.077  15.108   2.398
54527W        W26143   3.361  17.820   0.924
54528W        W26144  14.595  16.507   0.653
54529W        W26145  26.142   2.010   0.270
54530W        W26146  22.149   3.544  11.511
54531W        W26147   4.592   8.921  12.203
54532W        W26148   1.497  10.121  12.158
54533W        W26149  12.495  25.088  14.181
54534W        W26150  27.289  28.925   3.352
54535W        W26151  28.872  18.504   1.727
54536W        W26152  13.150  11.325  14.713
54537W        W26153  10.898   4.206  13.121
54538W        W26154  13.193  39.586   2.773
54539W        W26155  11.064  36.614   2.746
54540W        W26156  20.001  30.331  14.786
54541W        W26157  12.596  35.346  14.063
54542W        W26158   5.061  33.938  11.172
54543W        W26159  32.397   7.893  11.369
54544W        W26160  20.755   9.309   0.754
54545W        W26161  21.998  28.720  11.126
54546W        W26162   3.490  12.236  14.039
54547W        W26163  29.570  39.995  13.432
54548W        W26164  14.800  37.060   4.150
54549W        W26165   1.238  12.318  12.137
54550W        W26166  41.668   6.046   4.367
54551W        W26167  15.026  21.789  12.050
54552W        W26168  31.978  13.036   0.389
54553W        W26169  32.523   3.817   3.269
54554W        W26170  44.796  34.359   1.354
54555W        W26171  20.568  18.662  10.464
54556W        W26172  18.072  25.963  11.960
54557W        W26173  15.600  24.592   1.203
54558W        W26174   8.800  22.631   0.447
54559W        W26175  13.733  14.871   1.879
54560W        W26176   6.683  14.497   0.023
54561W        W26177  41.960  25.707  13.824
54562W        W26178  25.480  35.924   4.572
54563W        W26179  37.957  21.865  14.510
54564W        W26180  38.764  12.363   4.811
54565W        W26181  11.424   3.952  13.852
54566W        W26182  15.228   8.810  14.498
54567W        W26183  27.954   8.438   4.971
54568W        W26184  33.742   7.791   4.287
54569W        W26185  25.717  32.990   3.313
54570W        W26186  10.440  26.069  14.395
54571W        W26187  39.036  21.471   1.424
54572W        W26188   0.163  15.942   2.638
54573W        W26189  23.078  13.098   0.902
54574W        W26190  17.650  16.024  13.916
54575W        W26191   5.731  13.618   2.714
54576W        W26192  14.249  31.837  14.316
54577W        W26193   9.719   5.459  10.393
54578W        W26194  23.725   3.209  14.589
54579W        W26195   6.197  24.647   1.669
54580W        W26196  40.051  10.878  13.064
54581W        W26197  11.580  42.504   1.771
54582W        W26198  11.672  12.644   3.129
54583W        W26199  13.110   9.946  14.064
54584W        W26200   1.147  24.645  11.093
54585W        W26201  15.728  10.872   4.534
54586W        W26202  38.950   7.311  11.396
54587W        W26203  19.613   5.047   3.935
54588W        W26204  27.150  27.704   4.297
54589W        W26205  30.507  20.989   3.372
54590W        W26206  28.578  27.967   3.260
54591W        W26207  42.279  34.598   2.872
54592W        W26208  43.528  24.809  10.695
54593W        W26209   3.428  37.030   2.210
54594W        W26210  29.203  39.478  11.221
54595W        W26211   3.520  35.000  11.113
54596W        W26212  36.901  15.743   0.002
54597W        W26213   2.806  18.094  12.376
54598W        W26214  25.150  42.595  13.589
54599W        W26215   9.964  34.292  12.164
54600W        W26216  22.455   6.813  13.536
54601W        W26217  11.584  13.062  14.532
54602W        W26218  34.446  11.993   0.007
54603W        W26219   0.171   7.954   0.511
54604W        W26220  33.721   2.909  11.920
54605W        W26221   6.863  28.065   3.034
54606W        W26222  14.511  39.875  12.467
54607W        W26223   6.941  36.050   1.340
54608W        W26224  15.777  19.687  10.580
54609W        W26225  30.386  36.012  10.492
54610W        W26226   3.186  39.312  12.899
54611W        W26227  39.792  11.598  12.397
54612W        W26228  16.730  31.781   5.278
54613W        W26229   3.686  25.001  11.432
54614W        W26230  23.748  26.067   1.989
54615W        W26231   6.093   6.572  13.030
54616W        W26232  38.022  38.106   0.371
54617W        W26233  10.627  35.320   3.255
54618W        W26234  44.860   3.740   3.187
54619W        W26235  40.912   2.033   4.220
54620W        W26236   9.572  42.628   0.083
54621W        W26237  24.923  29.162  12.178
54622W        W26238  11.622  23.819  13.521
54623W        W26239   1.344  10.202   3.434
54624W        W26240  38.207  39.039  11.704
54625W        W26241  32.934  35.448  10.583
54626W        W26242  22.440   9.572   0.929
54627W        W26243  25.132  18.703   1.759
54628W        W26244  34.830  25.721  12.002
54629W        W26245  24.759  31.065   4.003
54630W        W26246   8.138  11.694   3.731
54631W        W26247  18.697  15.805   0.481
54632W        W26248   6.966   2.455  14.754
54633W        W26249  35.066  34.500  12.582
54634W        W26250   6.822  36.166  14.413
54635W        W26251   1.135   1.909   0.548
54636W        W26252  16.589  30.613   2.417
54637W        W26253  26.113   1.335   3.836
54638W        W26254   5.026  23.195  13.960
54639W        W26255  24.205  30.421   2.841
54640W        W26256   1.367  36.477  11.714
54641W        W26257   8.908  33.477   0.843
54642W        W26258  16.980   7.392  13.527
54643W        W26259   6.698   4.302  11.166
54644W        W26260  31.216  37.493   5.214
54645W        W26261  39.404   9.450   4.148
54646W        W26262  43.070  17.616  12.615
54647W        W26263   2.398  30.113  10.931
54648W        W26264  44.777  43.796   3.349
54649W        W26265  28.762  41.567  12.012
54650W        W26266  12.146  24.131   3.597
54651W        W26267  20.681   2.026  12.486
54652W        W26268   6.929  44.375  12.523
54653W        W26269  40.419  38.040   2.212
54654W        W26270  24.917   7.855  11.037
54655W        W26271   8.800  44.740   2.788
54656W        W26272  21.930  37.111   3.725
54657W        W26273  44.529  23.228  10.728
54658W        W26274  38.303   7.705  13.160
54659W        W26275   9.695  44.226  10.785
54660W        W26276  38.708  16.641   3.670
54661W        W26277  42.548  38.575  12.067
54662W        W26278   0.271  12.839   4.034
54663W        W26279  28.511  28.545  10.643
54664W        W26280  36.279  31.685  14.933
54665W        W26281   1.845  44.070   9.875
54666W        W26282  34.917  39.174  12.366
54667W        W26283  44.876  14.028   3.754
54668W        W26284  24.036  26.692   3.192
54669W        W26285   5.943  24.220  12.156
54670W        W26286  35.465  22.592   4.643
54671W        W26287  42.472  20.235   3.746
54672W        W26288  38.669   1.894   0.325
54673W        W26289  41.916  34.842  13.454
54674W        W26290   1.261   7.331   2.619
54675W        W26291  24.588  27.292   1.402
54676W        W26292  38.264  26.597  13.770
54677W        W26293  25.062  41.166  13.508
54678W        W26294  12.157  41.682  14.261
54679W        W26295  27.745   1.884  10.708
54680W        W26296  43.398  34.652  10.307
54681W        W26297  26.203   1.311   1.096
54682W        W26298  28.101   6.901  12.502
54683W        W26299  14.852   5.281   1.521
54684W        W26300  40.829  32.836   4.723
54685W        W26301  28.957   3.779   0.249
54686W        W26302  42.011  42.537  13.523
54687W        W26303  36.056  11.938  14.399
54688W        W26304  22.166  31.756  11.768
54689W        W26305  38.948  37.134   0.215
54690W        W26306  30.402  41.309  14.446
54691W        W26307  21.616  44.526   2.442
54692W        W26308  12.172  31.319  14.230
54693W        W26309  34.347  26.022   1.750
54694W        W26310  19.491  25.438  11.134
54695W        W26311  35.974   6.440  11.892
54696W        W26312  11.627  10.725  14.330
54697W        W26313  37.978  44.476  13.017
54698W        W26314  35.071  24.740   5.082
54699W        W26315   9.821  12.378  14.806
54700W        W26316  33.624  36.813   4.618
54701W        W26317   2.737  37.412   3.142
54702W        W26318   5.670  23.232  13.379
54703W        W26319  43.939  18.003   1.187
54704W        W26320  19.585   8.693   0.814
54705W        W26321  10.075  39.144  13.007
54706W        W26322   6.767  39.096  12.388
54707W        W26323  33.603  37.329   1.058
54708W        W26324  18.780   0.850  11.194
54709W        W26325  39.976  17.679  14.702
54710W        W26326   6.900  14.583  14.399
54711W        W26327  39.730   4.832  12.960
54712W        W26328   6.408  36.243   4.607
54713W        W26329  20.139  20.062  13.889
54714W        W26330  18.647  44.196  12.415
54715W        W26331   3.789   7.153  11.636
54716W        W26332  36.454  19.133   2.965
54717W        W26333  27.338  15.822   0.105
54718W        W26334  19.127  38.958  13.000
54719W        W26335  38.797  15.990   2.385
54720W        W26336  35.487  24.231  14.540
54721W        W26337  23.493  24.947  11.581
54722W        W26338   8.598  40.137   1.378
54723W        W26339   2.709  44.388  13.075
54724W        W26340  31.425  43.132   2.592
54725W        W26341  43.085  27.142  14.832
54726W        W26342  23.147  24.069   1.843
54727W        W26343  17.238   6.648  11.982
54728W        W26344  17.075  41.323   2.725
54729W        W26345  24.577  20.118  11.171
54730W        W26346   5.322  21.182  12.478
54731W        W26347  37.407  27.224  14.018
54732W        W26348  39.995  26.258  12.788
54733W        W26349  20.009   7.098  10.942
54734W        W26350  29.434  35.807   2.770
54735W        W26351   7.921  42.803   3.239
54736W        W26352   5.422  33.107  11.664
54737W        W26353  38.890  13.680   5.403
54738W        W26354  27.694  36.013   2.396
54739W        W26355  35.988  15.538   3.388
54740W        W26356   7.285  28.816   4.726
54741W        W26357   3.342  26.604  13.130
54742W        W26358   7.036  38.099   4.901
54743W        W26359  26.810  11.214   2.147
54744W        W26360  31.520  39.906  14.805
54745W        W26361  17.687  13.711   4.221
54746W        W26362  17.094  24.244  11.015
54747W        W26363  25.491  28.994   3.243
54748W        W26364  22.825  33.899  12.846
54749W        W26365  24.474  32.837   3.621
54750W        W26366  17.232  22.992  14.550
54751W        W26367  42.350  41.855  13.569
54752W        W26368  10.100   2.762  14.899
54753W        W26369   6.744  13.895   3.451
54754W        W26370  22.954  19.539   4.436
54755W        W26371  38.935   9.191   3.321
54756W        W26372  39.860  44.200  13.243
54757W        W26373   1.419  39.508  10.653
54758W        W26374  33.694  29.452   4.156
54759W        W26375   5.622  26.731   0.480
54760W        W26376  27.193  31.189  14.022
54761W        W26377  26.160  31.827   3.306
54762W        W26378  21.825  13.605  14.855
54763W        W26379  26.584  23.348  14.494
54764W        W26380  31.626  19.113  10.645
54765W        W26381  21.280   3.786   4.419
54766W        W26382  42.920  44.837   4.534
54767W        W26383  28.690  27.582  10.608
54768W        W26384  41.781  12.800  11.646
54769W        W26385  22.070  25.462  13.430
54770W        W26386  28.975  31.232   2.882
54771W        W26387  33.877  44.275   0.897
54772W        W26388   9.866  36.933  13.116
54773W        W26389  15.848  23.823   0.127
54774W        W26390  35.932  36.075  10.953
54775W        W26391  26.004  34.018  12.537
54776W        W26392  13.565  23.254  12.878
54777W        W26393  19.880  39.117  14.434
54778W        W26394  12.735   7.440   0.001
54779W        W26395  33.969  38.972  13.838
54780W        W26396  31.078   3.391  12.584
54781W        W26397   7.215  10.228   0.677
54782W        W26398  27.043   1.284  13.784
54783W        W26399  18.277  29.216   3.837
54784W        W26400  42.512  28.920   1.160
54785W        W26401  18.686  34.213   3.934
54786W        W26402  23.166  34.895   0.998
54787W        W26403  20.719  39.225  11.975
54788W        W26404   0.894  33.587   3.652
54789W        W26405   2.786  22.809   2.355
54790W        W26406  25.563  35.002   1.228
54791W        W26407  31.715   3.395   4.342
54792W        W26408  28.227   0.019   5.149
54793W        W26409   2.559  12.170  13.623
54794W        W26410  20.070  27.294  12.015
54795W        W26411  16.676  13.150   0.079
54796W        W26412  31.077  16.810  11.168
54797W        W26413   7.161  12.685  13.819
54798W        W26414   6.800   3.642  12.125
54799W        W26415  15.386  28.010   2.339
54800W        W26416  41.009  29.374   4.199
54801W        W26417  39.502  13.278  11.997
54802W        W26418   0.710  20.157  10.715
54803W        W26419  21.039  15.120   3.176
54804W        W26420  25.570   4.883  11.762
54805W        W26421  36.300  44.830  13.479
54806W        W26422   9.431  23.182   3.193
54807W        W26423  35.890  26.946   3.116
54808W        W26424  42.885  18.344   3.272
54809W        W26425   0.939  32.109   4.649
54810W        W26426   7.840   1.817   0.751
54811W        W26427  42.280  34.898  10.886
54812W        W26428  34.221  42.987  13.042
54813W        W26429   0.730  14.800  14.056
54814W        W26430  22.727   8.899   3.661
54815W        W26431  34.679  42.499   4.053
54816W        W26432  16.866  31.102   1.160
54817W        W26433  26.378   1.382   2.153
54818W        W26434   4.415   2.825  14.914
54819W        W26435  41.970   4.252  11.004
54820W        W26436  35.398  22.259   1.025
54821W        W26437  16.618  26.136  13.359
54822W        W26438  28.085  15.865   4.190
54823W        W26439  44.654  19.063  14.254
54824W        W26440  16.648  26.157   4.303
54825W        W26441  29.422  39.126   2.869
54826W        W26442   9.163   9.427   1.460
54827W        W26443   8.473  37.137   0.340
54828W        W26444  10.789   2.456  13.322
54829W        W26445  20.049   5.240   1.909
54830W        W26446  27.678   3.758   1.560
54831W        W26447  22.910  15.864   3.389
54832W        W26448   8.528   1.917  11.182
54833W        W26449  22.537  39.951   1.389
54834W        W26450   9.847  29.412  13.973
54835W        W26451  14.952  19.341   5.423
54836W        W26452  34.222  22.329  11.742
54837W        W26453  20.834  11.893  11.955
54838W        W26454   9.599  24.032   2.800
54839W        W26455  31.049  24.274  10.689
54840W        W26456   1.795   7.888  11.073
54841W        W26457  40.904  26.681   1.438
54842W        W26458  25.101  31.449   1.932
54843W        W26459  34.543  10.889  11.928
54844W        W26460  24.985  23.294  14.873
54845W        W26461   3.839   6.627   3.575
54846W        W26462   5.812  33.673   3.316
54847W        W26463   0.390  14.594  13.732
54848W        W26464   3.363  22.846   2.792
54849W        W26465  12.850  40.437   1.742
54850W        W26466  43.901   6.720   2.322
54851W        W26467  37.885  27.641  14.841
54852W        W26468   6.175  32.117  12.797
54853W        W26469   7.560  19.766   4.666
54854W        W26470  31.684  11.707  11.479
54855W        W26471  38.119  11.851   1.447
54856W        W26472  32.459  33.424  12.086
54857W        W26473  24.633  11.552   4.280
54858W        W26474  31.974  39.324   4.577
54859W        W26475  18.768  12.817  14.262
54860W        W26476  27.201   8.287  13.143
54861W        W26477  40.712  36.751  14.932
54862W        W26478  44.487   2.383   3.472
54863W        W26479   8.736  11.104  10.731
54864W        W26480  18.070  40.070   3.662
54865W        W26481  35.993  24.075   0.895
54866W        W26482  41.617  24.241   4.225
54867W        W26483  29.516  28.598   4.269
54868W        W26484   6.387  44.873   4.209
54869W        W26485   3.779  13.289   4.596
54870W        W26486  25.319  31.586   1.469
54871W        W26487  29.684  38.869   1.876
54872W        W26488   6.640  23.420   2.780
54873W        W26489   0.294  14.860  10.319
54874W        W26490  14.075  31.887  12.038
54875W        W26491  43.399  41.291   4.477
54876W        W26492  10.459  32.434  11.661
54877W        W26493  15.659  11.184  14.390
54878W        W26494  29.167   4.848   2.692
54879W        W26495  20.579  27.107  13.962
54880W        W26496  17.114   3.375  13.837
54881W        W26497  22.009  12.148   4.557
54882W        W26498  22.367  36.500  12.808
54883W        W26499  44.445  43.809  14.909
54884W        W26500  17.295  31.497  13.246
54885W        W26501   3.443  18.514  11.975
54886W        W26502  33.611  23.020  11.465
54887W        W26503  11.221  40.218   3.885
54888W        W26504  10.929  33.959  11.127
54889W        W26505  44.686  16.514   3.753
54890W        W26506  40.054  32.378  12.982
54891W        W26507   9.456   3.831  14.991
54892W        W26508  30.228  31.084   2.342
54893W        W26509  23.117  16.523  10.723
54894W        W26510  14.397  42.534  10.833
54895W        W26511  38.075  29.155   2.733
54896W        W26512  16.155   8.331   2.633
54897W        W26513  21.086  24.923   1.394
54898W        W26514   3.724  12.180   0.310
54899W        W26515  35.982   6.311  12.388
54900W        W26516   8.619  37.597  12.062
54901W        W26517  21.196  27.989  13.414
54902W        W26518   4.892  29.878   0.438
54903W        W26519  39.369  40.371  12.428
54904W        W26520   1.277  35.317   0.257
54905W        W26521   8.687  20.239  11.424
54906W        W26522   5.748  28.024  13.764
54907W        W26523  16.051  35.613  14.256
54908W        W26524   2.348  24.736  10.252
54909W        W26525  36.360  39.019  12.446
54910W        W26526   1.767  14.535  12.554
54911W        W26527  25.447   4.850   2.309
54912W        W26528  15.005   6.267  12.308
54913W        W26529   7.778   4.425  13.133
54914W        W26530  43.583  38.777  13.267
54915W        W26531  43.192  39.798   4.114
54916W        W26532  32.999  25.145   1.479
54917W        W26533  38.557  32.208  14.839
54918W        W26534  42.038  23.132  11.793
54919W        W26535  40.532  25.227  12.934
54920W        W26536  34.695  37.420   4.069
54921W        W26537  23.644   3.324   2.893
54922W        W26538  17.429  21.848   1.953
54923W        W26539  25.073   1.511   4.654
54924W        W26540  23.521  16.659   4.069
54925W        W26541  22.224  17.313  12.991
54926W        W26542  29.691  19.595  10.656
54927W        W26543  19.951   2.702  13.930
54928W        W26544   3.053  21.272  11.732
54929W        W26545  34.018  24.121   4.518
54930W        W26546  11.724  43.229  13.464
54931W        W26547   0.788   2.537   2.708
54932W        W26548   8.904   9.126   1.800
54933W        W26549  19.144  17.330  13.461
54934W        W26550  44.265  35.224  11.687
54935W        W26551  21.735   0.443  13.714
54936W        W26552  16.654   7.851   3.633
54937W        W26553   0.007  24.228   5.602
54938W        W26554  15.470   9.087   3.272
54939W        W26555  35.068   9.892   0.784
54940W        W26556  40.315   8.215   2.206
54941W        W26557  28.685   1.587  14.358
54942W        W26558   0.007   5.699   4.138
54943W        W26559   8.410  16.663  12.801
54944W        W26560   5.868  11.040   2.662
54945W        W26561  14.110  20.135   3.811
54946W        W26562  24.867  17.598   3.340
54947W        W26563   3.892  13.468  12.688
54948W        W26564  28.090   9.138  12.909
54949W        W26565  38.753  38.543  11.596
54950W        W26566  29.929  24.997  10.873
54951W        W26567  23.220  29.466   0.732
54952W        W26568  11.104  15.350  10.854
54953W        W26569  19.700   5.652  13.051
54954W        W26570  29.993  28.714   4.087
54955W        W26571  43.865  42.301   0.244
54956W        W26572  29.005  18.614   2.212
54957W        W26573  13.340   9.704  10.631
54958W        W26574  37.560  37.640  12.176
54959W        W26575   7.974  13.515  11.099
54960W        W26576  42.442  20.688  10.585
54961W        W26577  32.526  20.599  13.147
54962W        W26578  22.219  13.840   3.673
54963W        W26579   8.094   4.789  13.945
54964W        W26580  35.409  10.322  14.771
54965W        W26581  17.976  40.584   3.728
54966W        W26582  38.498  14.307  11.111
54967W        W26583   8.611  40.722   3.632
54968W        W26584  44.429  39.720  12.494
54969W        W26585  26.912  17.383   0.400
54970W        W26586  41.319   9.386   3.457
54971W        W26587   4.198  15.080  12.944
54972W        W26588  25.385  26.149  13.564
54973W        W26589   9.172  30.389  11.465
54974W        W26590  39.406  43.899  12.762
54975W        W26591  30.924  15.992   1.528
54976W        W26592  11.293  24.026  10.504
54977W        W26593  37.259  22.470   3.620
54978W        W26594  11.537  38.396  11.618
54979W        W26595  36.386  27.034   3.638
54980W        W26596   9.681  22.948   4.603
54981W        W26597   3.190   1.527   2.680
54982W        W26598  18.044  43.849   0.476
54983W        W26599  24.699  36.961  14.367
54984W        W26600   4.427  41.595  12.483
54985W        W26601  18.516  39.802   1.908
54986W        W26602   2.025  28.358   4.238
54987W        W26603  13.663  19.584   3.214
54988W        W26604  19.158  19.756   3.352
54989W        W26605  30.200  32.595  14.440
54990W        W26606   7.941  29.595   0.004
54991W        W26607  22.907  16.572  11.619
54992W        W26608  24.397  33.189   1.807
54993W        W26609   6.841  24.470  12.644
54994W        W26610   6.116  38.835   0.927
54995W        W26611  43.314  26.067  11.051
54996W        W26612  18.242  36.827  12.036
54997W        W26613   1.400  18.806  13.415
54998W        W26614   9.811  13.120  13.813
54999W        W26615  21.753  34.052   2.402
55000W        W26616  36.866  32.710  11.202
55001W        W26617  10.078  35.021  13.426
55002W        W26618  17.503  43.701  12.449
55003W        W26619  42.677  39.166   2.537
55004W        W26620  26.677  12.839   4.578
55005W        W26621  29.821  22.917   0.723
55006W        W26622   9.346   0.943   4.681
55007W        W26623  34.859   7.458   3.761
55008W        W26624   8.332  23.792  13.056
55009W        W26625   8.388  36.757   0.725
55010W        W26626  38.355   3.136  11.163
55011W        W26627   2.573  30.017  14.017
55012W        W26628   6.971  25.617   3.760
55013W        W26629  31.704  32.872   1.441
55014W        W26630  26.683  30.051   2.694
55015W        W26631  25.558   5.711   1.643
55016W        W26632   3.355   0.554   3.661
55017W        W26633   2.231  40.896   2.228
55018W        W26634   8.361   3.303   2.116
55019W        W26635  10.147   5.471   3.078
55020W        W26636  22.581  37.632   1.807
55021W        W26637  36.230  28.737   4.163
55022W        W26638   9.135   3.351   2.756
55023W        W26639  22.297  43.504   2.827
55024W        W26640  35.984  43.282   1.619
55025W        W26641  11.725  27.192   3.439
55026W        W26642  40.049  32.783   2.726
55027W        W26643  37.912  32.432   0.063
55028W        W26644  22.932   3.942  14.792
55029W        W26645  20.945  11.504   0.314
55030W        W26646  24.902   3.892  10.773
55031W        W26647  31.436   1.022   5.102
55032W        W26648  37.378  14.331  14.812
55033W        W26649  23.231  22.162  11.570
55034W        W26650  37.134  14.041   3.274
55035W        W26651  31.469  16.339   3.984
55036W        W26652  43.937  38.237   9.796
55037W        W26653  38.026  27.321   2.877
55038W        W26654   4.851  32.120  11.687
55039W        W26655   8.974  28.276   2.130
55040W        W26656   7.147  34.457   1.454
55041W        W26657   8.409  40.821  14.345
55042W        W26658  39.454   3.769   3.538
55043W        W26659  40.792   4.357  10.968
55044W        W26660  22.878  10.323  12.531
55045W        W26661  12.670   7.078  10.463
55046W        W26662  37.329  42.461   2.848
55047W        W26663   9.743   9.595  11.381
55048W        W26664  26.964  16.070  10.269
55049W        W26665   7.900   9.252  11.919
55050W        W26666  44.316  31.464   3.838
55051W        W26667  39.904   4.151  11.531
55052W        W26668   1.333   7.274  11.621
55053W        W26669  26.693  19.179   3.260
55054W        W26670  19.566   7.301  10.720
55055W        W26671  21.970  34.882  12.562
55056W        W26672  42.530  34.507  12.319
55057W        W26673  23.310  16.724   2.765
55058W        W26674  27.450   7.834  11.062
55059W        W26675  39.849  43.100   2.631
55060W        W26676  40.939  21.237  14.942
55061W        W26677   9.897  13.774   0.933
55062W        W26678  29.063  13.855   0.588
55063W        W26679  27.110  42.997  10.987
55064W        W26680  23.707   4.389   3.682
55065W        W26681  20.195  44.410  12.387
55066W        W26682  41.815  19.764  11.207
55067W        W26683  28.055  29.913   2.364
55068W        W26684  43.435  30.864  14.233
55069W        W26685   3.064  20.475   3.134
55070W        W26686  18.638  42.170  12.367
55071W        W26687   9.595  11.646   3.681
55072W        W26688  29.502  15.533  10.099
55073W        W26689  12.059  22.127  14.594
55074W        W26690   9.866   1.630   1.713
55075W        W26691  33.523  31.414   3.079
55076W        W26692   3.342  20.714   1.223
55077W        W26693  18.260   0.066   5.153
55078W        W26694   7.949  29.363  11.121
55079W        W26695  12.048  29.958  13.387
55080W        W26696  33.034  39.629   1.767
55081W        W26697  34.976  26.676   3.265
55082W        W26698   0.455  38.339  12.460
55083W        W26699  41.488  44.663   2.812
55084W        W26700   8.429   9.893   4.637
55085W        W26701  14.110  41.978   2.865
55086W        W26702   0.397  20.530   2.261
55087W        W26703  26.833   3.485  13.555
55088W        W26704  30.452  25.664   5.087
55089W        W26705  10.613   2.405   4.887
55090W        W26706  39.334  24.525   1.858
55091W        W26707  44.193  17.569   0.873
55092W        W26708  21.006  21.069   2.302
55093W        W26709  12.122   4.889   1.226
55094W        W26710  24.215  14.345  11.475
55095W        W26711   1.360  37.629  13.910
55096W        W26712   4.741  41.286  13.441
55097W        W26713  25.577   9.403   1.439
55098W        W26714  33.891  35.063   4.903
55099W        W26715  15.005  24.727  11.199
55100W        W26716  23.650  30.997  13.947
55101W        W26717  32.599  28.187   0.001
55102W        W26718  27.220  27.071  12.386
55103W        W26719  25.190  26.966  14.399
55104W        W26720   9.844  30.326   0.963
55105W        W26721  30.530   9.326  13.779
55106W        W26722  40.447  38.457  11.946
55107W        W26723  31.291   8.721   2.643
55108W        W26724   2.374   3.247   0.856
55109W        W26725  16.351  38.428  12.482
55110W        W26726  22.833  20.527   3.297
55111W        W26727  36.155  40.389  11.094
55112W        W26728  31.318  18.285  12.068
55113W        W26729  17.103   8.881   4.648
55114W        W26730  22.856  13.223  10.278
55115W        W26731  23.752  24.676   2.375
55116W        W26732  14.578   9.850   4.585
55117W        W26733  27.871   6.240   3.382
55118W        W26734  16.298  16.496  11.200
55119W        W26735  29.011  22.532  13.863
55120W        W26736   3.215  38.377  13.939
55121W        W26737   5.552  23.712   3.325
55122W        W26738  18.555  20.643   2.525
55123W        W26739  20.645  15.500  11.571
55124W        W26740  41.127  26.030  11.309
55125W        W26741  11.420   1.797   0.402
55126W        W26742  31.934  26.069  12.038
55127W        W26743  35.535  13.560  10.612
55128W        W26744  39.806  12.215   1.923
55129W        W26745  43.035  28.032  13.019
55130W        W26746  15.485  26.693  12.517
55131W        W26747   5.945  13.873  13.920
55132W        W26748   9.406  20.328   1.879
55133W        W26749   3.182  29.679  11.082
55134W        W26750   7.273  20.263  11.983
55135W        W26751  42.508  17.032  13.640
55136W        W26752  12.360  10.392  12.030
55137W        W26753  30.107  13.967   0.240
55138W        W26754  41.785  10.586  11.625
55139W        W26755   3.142   2.510   2.781
55140W        W26756  31.463  25.739   1.932
55141W        W26757  28.182   2.280   1.909
55142W        W26758   9.882  27.884  10.930
55143W        W26759   1.713  21.113   4.554
55144W        W26760  11.798  34.831   3.691
55145W        W26761   3.755  22.271   1.167
55146W        W26762  15.741  25.034   0.920
55147W        W26763  29.916  17.290  12.410
55148W        W26764   4.514  30.349   3.235
55149W        W26765  38.882  21.184   3.038
55150W        W26766  33.368  12.810   3.287
55151W        W26767  19.045  34.084   3.547
55152W        W26768  11.884  15.727   4.145
55153W        W26769  24.462  38.669   0.923
55154W        W26770  17.585  38.402   2.249
55155W        W26771  35.474  28.116   3.767
55156W        W26772  20.800  42.233  12.923
55157W        W26773  31.094   0.904  11.486
55158W        W26774  16.716  35.907  10.914
55159W        W26775   0.913  19.179   0.161
55160W        W26776  14.743  28.492   0.007
55161W        W26777  32.081  32.155  11.597
55162W        W26778   6.666   2.124   4.100
55163W        W26779  25.485  42.315  13.334
55164W        W26780  14.050  10.117   1.186
55165W        W26781   7.175  22.113  12.333
55166W        W26782  21.870  36.125   1.484
55167W        W26783   6.910  16.766  12.058
55168W        W26784  41.447  23.510  13.740
55169W        W26785  38.028  35.519  11.524
55170W        W26786  29.251  44.343  11.574
55171W        W26787  34.419  41.513   1.799
55172W        W26788   3.705  35.407  12.577
55173W        W26789   3.898  19.994  14.253
55174W        W26790  33.476  29.674   4.574
55175W        W26791  21.152   9.458  12.404
55176W        W26792  25.721  21.265  11.936
55177W        W26793  23.736  40.223   3.222
55178W        W26794  19.606  44.372   0.166
55179W        W26795  44.542  11.828   5.019
55180W        W26796  28.968   4.271   3.227
55181W        W26797  25.888  11.169  13.830
55182W        W26798  29.464  16.778   3.687
55183W        W26799  16.694  37.927   1.348
55184W        W26800  42.237   1.420  12.146
55185W        W26801  19.275  27.746   3.645
55186W        W26802  35.941  23.903   5.163
55187W        W26803  32.053   8.446  10.721
55188W        W26804   5.076   8.784  12.164
55189W        W26805  44.506   6.758  10.623
55190W        W26806  39.490  43.283   0.447
55191W        W26807  12.087  35.499  13.281
55192W        W26808  14.069  40.315   3.340
55193W        W26809  44.723  22.725   3.432
55194W        W26810  34.136  41.944   2.691
55195W        W26811  26.734   4.232  11.107
55196W        W26812  12.217   1.623   1.454
55197W        W26813  11.598  30.105   0.444
55198W        W26814  13.252  18.821   4.745
55199W        W26815  37.560  22.491   2.415
55200W        W26816  39.604   1.878  14.454
55201W        W26817  39.523  25.004  12.921
55202W        W26818   4.974  10.953  12.081
55203W        W26819  13.020  28.046   3.230
55204W        W26820  26.492  32.601   2.898
55205W        W26821   1.555  41.018  14.008
55206W        W26822   8.790  35.855   3.424
55207W        W26823  32.133  38.085   1.785
55208W        W26824  26.914  16.123   0.156
55209W        W26825   7.288  11.190  12.942
55210W        W26826   0.876   6.363   4.565
55211W        W26827  21.493   5.075  13.556
55212W        W26828  30.562  14.367   2.815
55213W        W26829  37.539   9.966  11.422
55214W        W26830   0.400  40.132   1.658
55215W        W26831  32.696  34.429   2.394
55216W        W26832  39.091   4.585  12.589
55217W        W26833  26.510  28.656   3.786
55218W        W26834   1.746  36.044  12.475
55219W        W26835  34.391  17.111   0.965
55220W        W26836   1.761  44.914   5.277
55221W        W26837  27.453  26.208   3.619
55222W        W26838  10.727  34.810  11.194
55223W        W26839   4.848  20.971  12.680
55224W        W26840  20.311  28.142  10.344
55225W        W26841  21.760  10.630  11.145
55226W        W26842   8.947  26.282  11.647
55227W        W26843  41.997  13.335  12.628
55228W        W26844  15.324  32.831  14.967
55229W        W26845  11.248   0.999  12.761
55230W        W26846  33.226   5.999  12.390
55231W        W26847   0.057  11.718  14.856
55232W        W26848  42.991  10.422  10.626
55233W        W26849  24.475   2.615  11.157
55234W        W26850  44.336  30.010  10.593
55235W        W26851  36.289   8.878  11.504
55236W        W26852  11.797  41.178   1.868
55237W        W26853   4.310  10.709   3.572
55238W        W26854  22.781  22.168   4.589
55239W        W26855  21.177  41.890   0.289
55240W        W26856  22.640  24.154   4.737
55241W        W26857  35.525  35.976  12.857
55242W        W26858  26.584  25.643  11.761
55243W        W26859   1.455  39.452   0.805
55244W        W26860  17.289  17.036  14.817
55245W        W26861   0.328  23.776  13.956
55246W        W26862   2.491  24.041   3.777
55247W        W26863  41.547  16.231  13.472
55248W        W26864   1.190  26.157   3.131
55249W        W26865   6.864  37.981   3.104
55250W        W26866  28.833  10.484  14.345
55251W        W26867  25.437  42.717   0.345
55252W        W26868   8.708  11.380  11.599
55253W        W26869  35.509   1.544   1.363
55254W        W26870  21.972  18.693   0.797
55255W        W26871   8.892  31.517   1.191
55256W        W26872  12.952   2.777   0.456
55257W        W26873  10.382  11.168   4.560
55258W        W26874  27.634  12.837  10.304
55259W        W26875  30.641   7.940  12.086
55260W        W26876   5.273   3.257  14.316
55261W        W26877  41.185  32.724  12.679
55262W        W26878  16.796  35.390  13.030
55263W        W26879  37.021  17.643  13.983
55264W        W26880  36.159   8.285  11.473
55265W        W26881  23.617  35.629   0.444
55266W        W26882   2.498  16.658   0.782
55267W        W26883  16.659  34.417  11.167
55268W        W26884  27.588   1.360  13.594
55269W        W26885   9.639  34.377   4.406
55270W        W26886  28.036  39.761  10.850
55271W        W26887  38.254  28.576  14.943
55272W        W26888  21.501  29.980   4.368
55273W        W26889  28.681  37.518   2.828
55274W        W26890   9.239  10.811   3.249
55275W        W26891  38.350  38.144  12.215
55276W        W26892  42.002   1.496   1.450
55277W        W26893  11.812  26.099   4.588
55278W        W26894  20.635  25.779  14.405
55279W        W26895  40.734   4.772   1.098
55280W        W26896   3.421  43.684   5.132
55281W        W26897   9.079  27.482   1.797
55282W        W26898   0.885  35.992   5.122
55283W        W26899  32.438   3.732   3.811
55284W        W26900  13.684  20.601   3.129
55285W        W26901  10.679  17.870  12.911
55286W        W26902   2.010  18.968   1.918
55287W        W26903  28.557  20.360  11.080
55288W        W26904  29.474  34.406  14.265
55289W        W26905   1.847  13.071  14.253
55290W        W26906  22.970  29.940  10.960
55291W        W26907   3.740   4.775  11.616
55292W        W26908  21.286  28.952   1.307
55293W        W26909  43.198  41.175   2.158
55294W        W26910  12.954  40.972   4.510
55295W        W26911   0.796  15.051   2.202
55296W        W26912  14.855  14.600  14.667
55297W        W26913  17.219  43.980  13.210
55298W        W26914   4.057   8.927   2.696
55299W        W26915  44.594  23.028   5.050
55300W        W26916  12.238  18.315   4.594
55301W        W26917   5.184   7.741   2.930
55302W        W26918  39.685  42.064  11.632
55303W        W26919  44.410   4.717  10.790
55304W        W26920  23.979  34.786  12.246
55305W        W26921  42.452   4.917   1.139
55306W        W26922  41.532  22.273  12.234
55307W        W26923   9.303  23.442  11.766
55308W        W26924  30.644  41.355   3.789
55309W        W26925   1.427  12.252  14.111
55310W        W26926   2.204  21.546  11.156
55311W        W26927   0.296  43.476  14.369
55312W        W26928  18.199  37.568  11.557
55313W        W26929  37.606  26.716  14.659
55314W        W26930  11.381  26.168   2.586
55315W        W26931  33.311  28.800  12.519
55316W        W26932   8.809  38.807  11.531
55317W        W26933   0.539  24.437   0.197
55318W        W26934  40.440  19.647  11.163
55319W        W26935  29.836   5.422   4.146
55320W        W26936  31.379   7.553   3.715
55321W        W26937  43.426  19.995  13.708
55322W        W26938  33.521  32.694  12.115
55323W        W26939  25.801  36.051  10.777
55324W        W26940  39.290  13.323  10.884
55325W        W26941  35.599  39.331   0.335
55326W        W26942  10.152  10.453   3.882
55327W        W26943  26.946  27.397   3.941
55328W        W26944  44.599  38.694   4.869
55329W        W26945  17.242   1.074   1.110
55330W        W26946  28.054  29.173  11.076
55331W        W26947  42.740  35.731  14.510
55332W        W26948  10.859   9.197   2.626
55333W        W26949  32.425  36.539   1.147
55334W        W26950  42.777  32.288   3.637
55335W        W26951  28.637  38.418   4.187
55336W        W26952  17.210  12.829  12.561
55337W        W26953  23.080  25.004   1.877
55338W        W26954  39.243  40.821   2.672
55339W        W26955  30.600   8.665   2.367
55340W        W26956  22.758  22.393   3.273
55341W        W26957  31.251  29.437   2.307
55342W        W26958  13.252  44.076   0.140
55343W        W26959  20.986   9.224   3.506
55344W        W26960  34.270   0.824   2.264
55345W        W26961  38.240  41.235   3.994
55346W        W26962  29.625  27.895   1.815
55347W        W26963  18.730   1.623  13.683
55348W        W26964  19.344  22.883   1.414
55349W        W26965  31.022  35.985   3.641
55350W        W26966  20.722  37.390   1.714
55351W        W26967  12.381   9.897   4.657
55352W        W26968  26.142  25.128   0.987
55353W        W26969  34.061  31.743   2.403
55354W        W26970  32.083  13.549   0.335
55355W        W26971  30.183  27.265   4.947
55356W        W26972  22.456  29.247  12.991
55357W        W26973  21.795  11.663   2.701
55358W        W26974  44.304  33.297  10.576
55359W        W26975  17.096  40.952  12.498
55360W        W26976  29.225  33.943  11.677
55361W        W26977  27.225  35.365   0.389
55362W        W26978   0.182  15.044   0.967
55363W        W26979   9.741  24.616  12.951
55364W        W26980  27.747  10.726   3.917
55365W        W26981  17.359  44.437   1.920
55366W        W26982  20.637  23.190   3.048
55367W        W26983  43.345   7.232   2.716
55368W        W26984  19.555  26.493   5.064
55369W        W26985   0.956  38.340  11.588
55370W        W26986   5.774  21.132   3.231
55371W        W26987   8.828  19.218  13.437
55372W        W26988  36.285   1.179  11.038
55373W        W26989  32.889  13.124  11.146
55374W        W26990  41.644  26.212  14.275
55375W        W26991  40.585   5.150   3.772
55376W        W26992  23.024  37.283   1.035
55377W        W26993  35.213  13.094  11.621
55378W        W26994  30.928   8.471   1.440
55379W        W26995  37.670   3.341  12.563
55380W        W26996   3.986   5.511   2.857
55381W        W26997  23.753  36.712   4.609
55382W        W26998  11.302   1.998  11.447
55383W        W26999  13.294  37.608   1.289
55384W        W27000  37.897  37.852  14.897
55385W        W27001  35.916  23.260  11.833
55386W        W27002   9.731  15.250   2.883
55387W        W27003  18.416  33.386  12.818
55388W        W27004  39.673  21.160   2.640
55389W        W27005  14.045   0.388   0.827
55390W        W27006  15.338  43.391   1.973
55391W        W27007  41.534  42.297  14.996
55392W        W27008  27.279  43.830  10.549
55393W        W27009  19.049   9.886   0.718
55394W        W27010  34.526  21.000   4.832
55395W        W27011  29.805  27.416   4.624
55396W        W27012  11.692  29.640  12.898
55397W        W27013  28.957  11.859  10.759
55398W        W27014  30.150  19.049  13.151
55399W        W27015  38.339  42.550   0.411
55400W        W27016  15.559  42.326  12.841
55401W        W27017  28.906  41.487  13.435
55402W        W27018  27.659  22.752   4.588
55403W        W27019  29.706  31.489   4.062
55404W        W27020  24.577   5.615  10.993
55405W        W27021  44.170  20.521   4.439
55406W        W27022  42.969  16.309  14.569
55407W        W27023  18.734  10.345   0.368
55408W        W27024   6.777  22.763  11.518
55409W        W27025   7.963  27.252   1.846
55410W        W27026   5.654  25.743  13.362
55411W        W27027  16.753  37.123   0.700
55412W        W27028  19.523   4.601  10.173
55413W        W27029  39.796  42.535   0.538
55414W        W27030  27.208   4.543   2.154
55415W        W27031  38.253   9.332   0.442
55416W        W27032   1.953  20.529  13.865
55417W        W27033  12.453  42.976   2.468
55418W        W27034  13.613  22.238   1.989
55419W        W27035  27.172  37.343  14.417
55420W        W27036  38.338  39.094   0.307
55421W        W27037   8.720  21.557   1.183
55422W        W27038   2.955  36.288   0.490
55423W        W27039  37.735   4.302   4.736
55424W        W27040   4.611  27.762   4.099
55425W        W27041  28.032  29.090  12.097
55426W        W27042  31.484  17.056  12.525
55427W        W27043  13.564  31.452   1.121
55428W        W27044  24.997  35.430  14.363
55429W        W27045  39.406  38.417   3.665
55430W        W27046  39.833  35.581  14.268
55431W        W27047  18.837   8.688   0.399
55432W        W27048  11.094  21.702  13.929
55433W        W27049   1.254  23.576  12.615
55434W        W27050  15.727  33.101  10.092
55435W        W27051  24.737  11.678   4.766
55436W        W27052  25.355  35.050  12.814
55437W        W27053  30.494  32.468   1.327
55438W        W27054  10.194   0.376   2.647
55439W        W27055   3.990  10.859   0.394
55440W        W27056  36.638  15.291   0.014
55441W        W27057  29.862  30.083  11.885
55442W        W27058  38.703  16.008   4.153
55443W        W27059  24.623  44.004  11.084
55444W        W27060  42.114  41.467   4.143
55445W        W27061  38.356  44.414  12.462
55446W        W27062  32.584  20.330   0.742
55447W        W27063  12.621  10.680  14.258
55448W        W27064  40.785  28.057   3.205
55449W        W27065  25.777  42.301  10.443
55450W        W27066  34.909  29.993  12.503
55451W        W27067  28.155  23.502  11.077
55452W        W27068  33.913  36.894   2.665
55453W        W27069  24.215   6.422  12.484
55454W        W27070  12.249   1.452   2.493
55455W        W27071  31.007  20.560   0.782
55456W        W27072  29.827   2.860  10.714
55457W        W27073   7.409  26.235   1.271
55458W        W27074   0.813   7.648  13.820
55459W        W27075  31.484   7.740   0.909
55460W        W27076  28.665  39.509  14.274
55461W        W27077  18.367  41.393   4.428
55462W        W27078  25.894  11.098  12.927
55463W        W27079  14.961  41.974  13.641
55464W        W27080  31.494   4.590  14.677
55465W        W27081  38.636  39.153  13.389
55466W        W27082  32.053  14.405   2.701
55467W        W27083  25.493  27.601   3.643
55468W        W27084  42.009  40.055  10.725
55469W        W27085   1.483  18.770  11.553
55470W        W27086  41.670  40.488   2.234
55471W        W27087  12.773  33.414   1.259
55472W        W27088  33.318  16.143   1.156
55473W        W27089  29.443   3.678  10.677
55474W        W27090  12.693  26.406   4.294
55475W        W27091  27.025  34.853   4.123
55476W        W27092  10.412  42.448   3.130
55477W        W27093   7.170  21.515  12.536
55478W        W27094  39.525  17.453   3.371
55479W        W27095  44.701  26.697   3.845
55480W        W27096   3.021   7.669  11.479
55481W        W27097  11.740  23.268  10.657
55482W        W27098  43.021  41.873  10.581
55483W        W27099   4.730  33.583  14.447
55484W        W27100  39.975  20.272  12.188
55485W        W27101  37.022  29.973   3.721
55486W        W27102  37.192   0.520  11.058
55487W        W27103  21.933  21.721  14.813
55488W        W27104   3.426   5.407   4.863
55489W        W27105  25.747  35.586  13.984
55490W        W27106  14.807   2.718  12.948
55491W        W27107  42.544  34.657   0.546
55492W        W27108   1.986  24.550   2.775
55493W        W27109  38.352  14.137  14.857
55494W        W27110  23.619  19.323  11.570
55495W        W27111  23.611  28.569   0.929
55496W        W27112   3.823  12.344   3.390
55497W        W27113  38.088  25.150   0.472
55498W        W27114  22.065  11.489  12.381
55499W        W27115  39.590  25.615  14.900
55500W        W27116  37.963  36.506  14.556
55501W        W27117  33.776  11.237  13.914
55502W        W27118   2.024  21.535   3.903
55503W        W27119  31.431  40.778   3.716
55504W        W27120  31.895   0.750   4.981
55505W        W27121  21.978  36.407  13.117
55506W        W27122  13.860  24.037  10.830
55507W        W27123  39.896  11.353  12.856
55508W        W27124  44.418  42.990   3.454
55509W        W27125  19.103  21.435   2.640
55510W        W27126   7.300  29.935   3.228
55511W        W27127  44.861  15.992   2.223
55512W        W27128   1.312  21.010  11.232
55513W        W27129   1.160  20.553  11.068
55514W        W27130  27.407  42.219   3.997
55515W        W27131  39.368  26.137   3.655
55516W        W27132  24.301   4.919  12.519
55517W        W27133  44.609   6.256  10.801
55518W        W27134  21.273   7.255   1.431
55519W        W27135  39.790  18.667   4.138
55520W        W27136  39.969  26.755  12.655
55521W        W27137   6.159  22.614  12.110
55522W        W27138   5.362  17.041   0.713
55523W        W27139  37.765   1.971   4.099
55524W        W27140  37.508  11.667   4.274
55525W        W27141  18.304  44.968  14.768
55526W        W27142  21.779  38.870  13.438
55527W        W27143  33.429  13.760   9.996
55528W        W27144  37.407  44.294   2.327
55529W        W27145  41.876  23.901   0.693
55530W        W27146  39.064  41.277  12.326
55531W        W27147  15.233  36.929  10.691
55532W        W27148  32.543   6.458  14.012
55533W        W27149  34.170  32.503   1.736
55534W        W27150  15.419  40.488   2.773
55535W        W27151   3.359  37.858  11.114
55536W        W27152  24.775  40.028   4.527
55537W        W27153  26.136   0.794   4.615
55538W        W27154  20.621  33.940   4.624
55539W        W27155  19.851  30.346  11.095
55540W        W27156  25.680  18.276   2.692
55541W        W27157  15.529   8.797   3.722
55542W        W27158  40.199  44.883   0.404
55543W        W27159  35.816   0.518   4.490
55544W        W27160  18.786  20.226  12.671
55545W        W27161  41.335  18.015  11.164
55546W        W27162  43.417  25.134   0.891
55547W        W27163  23.505  24.018  11.400
55548W        W27164  37.819  39.900  14.022
55549W        W27165   9.866   8.734   2.228
55550W        W27166  29.368  20.287   1.284
55551W        W27167  33.679   6.343   0.256
55552W        W27168  22.472   8.135   3.208
55553W        W27169   7.164  19.637  14.817
55554W        W27170  38.337   8.339   3.154
55555W        W27171  34.579  34.976  10.614
55556W        W27172  40.818  28.210   1.351
55557W        W27173  40.089  37.787  13.527
55558W        W27174  28.075  34.517  14.535
55559W        W27175  28.998   1.409   0.689
55560W        W27176  12.243  25.803   0.675
55561W        W27177  28.133  33.879  13.163
55562W        W27178  41.308  19.782  13.412
55563W        W27179  31.606  36.925   0.104
55564W        W27180   9.091  38.920  12.871
55565W        W27181  20.980  44.099  10.041
55566W        W27182  30.102  42.811   9.792
55567W        W27183  37.118  39.938  11.391
55568W        W27184  34.315  40.381   0.462
55569W        W27185  25.044  16.059   2.393
55570W        W27186  37.369   6.489   0.888
55571W        W27187   5.296   3.478   3.273
55572W        W27188  35.510  17.498  10.702
55573W        W27189  17.221  22.228   4.422
55574W        W27190  35.596  13.024  10.652
55575W        W27191  33.577  39.348   4.589
55576W        W27192  36.451  18.535   0.226
55577W        W27193  39.325   9.455  14.029
55578W        W27194  29.918  36.080  14.987
55579W        W27195   6.627   2.943   0.483
55580W        W27196  40.517  42.867   5.006
55581W        W27197  23.310  38.527  12.545
55582W        W27198  23.576  22.066  13.949
55583W        W27199  18.252  15.691   0.714
55584W        W27200  22.879  36.010   0.485
55585W        W27201   8.161   5.636  14.833
55586W        W27202  25.025  24.549  12.993
55587W        W27203  19.986  27.903  11.263
55588W        W27204   0.370  20.542  14.537
55589W        W27205  19.689  33.937  13.114
55590W        W27206  18.119   7.054  11.941
55591W        W27207  17.088  14.256  12.204
55592W        W27208  23.328  28.901  13.370
55593W        W27209  44.415  14.108  10.592
55594W        W27210   1.543  44.505   2.938
55595W        W27211  44.167   9.235   3.121
55596W        W27212   5.017  10.600  13.896
55597W        W27213   7.944  29.174   2.186
55598W        W27214  19.421   4.742  12.131
55599W        W27215   9.210  30.918  12.158
55600W        W27216   2.988  14.063   3.358
55601W        W27217   5.633  41.531   3.971
55602W        W27218   9.341  20.230   4.131
55603W        W27219  27.996  20.783  12.423
55604W        W27220   3.847  26.218  12.963
55605W        W27221  22.685  42.583   3.315
55606W        W27222  44.787  42.758   0.479
55607W        W27223  34.477  36.480  12.411
55608W        W27224  41.338  29.617  11.519
55609W        W27225  22.050  13.645   0.315
55610W        W27226  42.449   0.879   2.738
55611W        W27227  36.463  33.472   1.418
55612W        W27228   5.281  22.772   1.839
55613W        W27229  18.236   5.224   0.666
55614W        W27230  38.226  14.649   4.397
55615W        W27231  16.733  33.680  14.308
55616W        W27232  40.344  13.188  11.488
55617W        W27233  38.127  28.461   0.437
55618W        W27234   4.983  40.374  13.569
55619W        W27235   1.969   7.708  10.626
55620W        W27236  25.257  24.991   2.865
55621W        W27237  21.540   0.878  10.576
55622W        W27238   1.476  35.473   3.572
55623W        W27239   1.368  41.003   3.263
55624W        W27240  17.097  28.178  12.994
55625W        W27241  33.032  18.004  12.837
55626W        W27242  34.598  10.680  13.996
55627W        W27243  14.268  25.996  12.907
55628W        W27244   4.703  31.471  13.095
55629W        W27245  10.745  23.468  14.959
55630W        W27246   6.259   0.844  10.519
55631W        W27247  21.300  38.468   4.110
55632W        W27248   6.885   6.018   4.112
55633W        W27249  10.367  30.381  12.579
55634W        W27250  33.947  17.255  13.948
55635W        W27251   4.744  10.857   3.208
55636W        W27252  42.729  38.584   2.204
55637W        W27253  38.138  29.441   0.772
55638W        W27254  42.599   4.614  11.519
55639W        W27255  20.269  41.437   4.982
55640W        W27256  20.260  16.327  14.782
55641W        W27257  35.781  44.448  12.922
55642W        W27258  20.987  32.522   0.809
55643W        W27259  21.783  21.923   4.146
55644W        W27260  44.219  44.366  10.625
55645W        W27261  30.314  33.625   0.356
55646W        W27262  17.299  38.156   4.518
55647W        W27263  17.780  22.948   1.234
55648W        W27264  32.797  20.569  12.657
55649W        W27265  20.411   5.429  13.420
55650W        W27266  34.983  27.726   0.372
55651W        W27267  20.073   9.177   3.432
55652W        W27268  10.718  14.118   2.553
55653W        W27269  13.731  31.360   0.152
55654W        W27270  26.532  33.412   2.291
55655W        W27271   4.821  25.157   4.586
55656W        W27272  44.553  16.255  12.831
55657W        W27273  14.756   4.431  13.144
55658W        W27274  22.778  22.511   1.433
55659W        W27275  28.600  27.369  12.416
55660W        W27276  33.140  38.104   4.547
55661W        W27277  37.529   6.723   3.744
55662W        W27278  39.632  11.367   4.980
55663W        W27279  26.624  24.514  11.214
55664W        W27280  33.372  26.207  14.022
55665W        W27281  14.171   0.066  10.965
55666W        W27282   1.272  35.101   0.714
55667W        W27283  42.415   2.920  14.710
55668W        W27284  22.994  32.672   4.133
55669W        W27285  21.638   1.291   2.922
55670W        W27286  41.012   6.251   2.742
55671W        W27287  44.113  34.443  13.898
55672W        W27288  11.738   3.396   3.988
55673W        W27289   0.926  35.484  12.622
55674W        W27290  37.841  30.338  11.570
55675W        W27291   0.348   8.905   0.907
55676W        W27292  36.167  33.291   2.497
55677W        W27293  36.083  17.310   0.733
55678W        W27294  31.241  23.529   4.346
55679W        W27295  43.259  28.573  13.785
55680W        W27296   2.518  11.654  10.750
55681W        W27297  22.408  35.663  12.036
55682W        W27298   8.189  14.527   3.735
55683W        W27299  42.306  11.475   4.609
55684W        W27300  31.421   7.214   0.797
55685W        W27301  35.523   9.858  12.971
55686W        W27302  37.103  39.887   9.966
55687W        W27303  12.806  37.841  13.896
55688W        W27304   6.391  42.675   5.097
55689W        W27305  42.827  16.312  13.106
55690W        W27306  38.551   4.309   4.023
55691W        W27307   4.639  17.266   0.248
55692W        W27308  25.202  36.857   4.383
55693W        W27309  26.127  33.580  13.997
55694W        W27310  30.688   3.442   5.082
55695W        W27311   3.266  35.583  13.299
55696W        W27312  40.554  32.426  12.111
55697W        W27313  31.836   1.247  14.351
55698W        W27314  32.643   8.089  12.512
55699W        W27315   1.853   1.083   2.866
55700W        W27316   4.261  20.722   0.524
55701W        W27317  31.552  42.999  13.942
55702W        W27318  25.265  22.720   2.198
55703W        W27319   5.785  22.288  14.363
55704W        W27320  35.365  43.743   1.896
55705W        W27321  34.341  41.329   4.412
55706W        W27322  42.577  28.718   4.098
55707W        W27323  16.739  25.923   0.881
55708W        W27324  18.524  37.003  13.794
55709W        W27325  35.106   3.757  10.974
55710W        W27326  32.028  41.387   2.384
55711W        W27327  13.769   2.408  14.459
55712W        W27328  20.633   7.196   0.281
55713W        W27329  16.644   7.727  13.316
55714W        W27330  36.568  33.794   0.802
55715W        W27331  34.054  43.292   0.749
55716W        W27332   2.448  25.254  10.214
55717W        W27333  23.154   3.858  14.338
55718W        W27334  39.900  23.423  11.669
55719W        W27335  33.382  35.705  11.400
55720W        W27336  37.069  44.003  11.541
55721W        W27337  11.240  18.256   0.301
55722W        W27338  26.675  22.216   3.127
55723W        W27339   1.456   0.888  11.533
55724W        W27340   8.870  13.679  13.104
55725W        W27341  35.434  18.332  11.849
55726W        W27342  40.471  26.561  14.808
55727W        W27343  25.589  26.692   4.129
55728W        W27344   8.871  26.285   3.759
55729W        W27345  27.776  15.269  14.832
55730W        W27346   3.900  31.769  10.745
55731W        W27347  30.922  32.816  11.071
55732W        W27348  40.522   8.227  14.426
55733W        W27349  34.048  35.070   0.800
55734W        W27350  12.179  30.118  13.886
55735W        W27351   9.936  32.382   2.992
55736W        W27352  21.993  17.358   0.841
55737W        W27353  19.585   3.427  14.467
55738W        W27354  37.126  13.361  12.542
55739W        W27355   1.537  35.032  13.000
55740W        W27356  28.043   6.700  10.382
55741W        W27357  23.737  44.093   3.378
55742W        W27358   0.769  10.286   4.187
55743W        W27359   2.433  39.254   1.345
55744W        W27360   6.188  27.663  12.525
55745W        W27361  16.488   2.212  12.259
55746W        W27362  39.224  19.649  12.639
55747W        W27363  24.174  21.650   4.147
55748W        W27364  38.912  22.003   1.332
55749W        W27365  16.207  39.869   3.228
55750W        W27366  25.008  30.746   5.084
55751W        W27367  38.472  23.968   4.890
55752W        W27368  32.534   0.479  11.203
55753W        W27369  32.642  19.769   1.776
55754W        W27370  33.851  44.792   5.279
55755W        W27371  19.701  43.824  11.347
55756W        W27372  26.093  31.987   2.835
55757W        W27373  25.221  25.917  14.432
55758W        W27374  19.936  23.070   4.300
55759W        W27375  16.596  15.701   3.984
55760W        W27376  19.072  39.220   4.673
55761W        W27377  15.064  25.619  12.891
55762W        W27378  41.017  37.672   0.897
55763W        W27379   2.177  13.357   0.440
55764W        W27380  44.254  13.247  13.827
55765W        W27381   7.783  11.881   3.389
55766W        W27382   6.141   9.810  13.886
55767W        W27383  16.378  36.544   4.195
55768W        W27384   7.324  23.999  11.988
55769W        W27385  40.063  18.608   2.271
55770W        W27386  21.783  36.954   1.264
55771W        W27387  24.258   1.861   4.239
55772W        W27388  12.239  43.350   1.219
55773W        W27389  12.169  14.981  13.124
55774W        W27390  18.639  40.042   4.826
55775W        W27391   4.813  29.476  13.142
55776W        W27392  11.397  40.480  12.174
55777W        W27393  41.582   5.640   0.509
55778W        W27394   5.428   3.733  14.826
55779W        W27395  31.431  11.345   2.744
55780W        W27396  23.938  31.198  11.841
55781W        W27397  24.574  17.972   4.688
55782W        W27398  24.576  11.991   0.425
55783W        W27399  23.090  24.462  14.008
55784W        W27400   6.461  26.323  14.476
55785W        W27401   8.238  41.794   2.643
55786W        W27402  29.168  40.768   2.121
55787W        W27403   2.947  22.860  10.218
55788W        W27404  26.421  29.580   2.405
55789W        W27405  14.769   2.844  13.902
55790W        W27406  18.641  13.228  13.585
55791W        W27407   0.905  25.312   0.771
55792W        W27408  39.547  35.511  11.966
55793W        W27409  11.098  43.807   0.994
55794W        W27410   6.822  16.070  10.767
55795W        W27411  25.515  18.063   3.697
55796W        W27412   2.461  32.585  11.457
55797W        W27413  33.523  30.045  11.174
55798W        W27414  31.620  25.053  12.906
55799W        W27415  41.241  17.760   0.202
55800W        W27416  44.749   0.317   0.637
55801W        W27417   8.238  36.225   4.264
55802W        W27418   9.707  10.220   3.743
55803W        W27419   5.769  28.267  10.502
55804W        W27420  38.790  15.797   0.756
55805W        W27421   5.940  18.838   1.383
55806W        W27422  29.287  43.557  11.109
55807W        W27423  12.060  33.038  14.960
55808W        W27424  10.948   8.846   4.693
55809W        W27425  40.859  11.025   4.884
55810W        W27426  37.365  12.709  13.855
55811W        W27427   6.931  15.120  13.164
55812W        W27428  28.882   1.463   2.250
55813W        W27429  39.941  14.720   2.734
55814W        W27430  10.127   9.752  13.476
55815W        W27431  41.074  12.682   1.691
55816W        W27432  10.171  29.017  11.484
55817W        W27433  40.556  26.533   2.733
55818W        W27434  33.538  28.551  10.323
55819W        W27435   9.780  42.397  13.625
55820W        W27436  35.496  31.060  11.096
55821W        W27437  19.765  26.434  12.153
55822W        W27438   2.859  43.142  11.606
55823W        W27439  26.643  11.775  14.959
55824W        W27440  21.103   7.790   3.279
55825W        W27441  13.158  43.298  12.477
55826W        W27442   2.424  38.338  11.277
55827W        W27443  19.331  41.052  11.179
55828W        W27444  22.469  20.032   3.249
55829W        W27445  20.631  42.486   1.260
55830W        W27446  27.811  10.715  14.215
55831W        W27447  30.549  28.059  10.416
55832W        W27448  33.177  12.494   0.410
55833W        W27449  43.731   6.346   3.143
55834W        W27450  15.174  43.955   4.873
55835W        W27451  30.424  32.463  12.840
55836W        W27452  19.336  41.658   4.596
55837W        W27453  44.284  37.821   2.815
55838W        W27454  20.517   0.076   0.014
55839W        W27455  10.268   4.329   0.028
55840W        W27456   4.008  18.649  14.169
55841W        W27457  21.871  23.579  10.437
55842W        W27458  20.799  15.365   1.220
55843W        W27459  19.235  24.884  12.427
55844W        W27460  40.435   6.855  10.730
55845W        W27461  29.098  29.677   2.747
55846W        W27462  34.862  11.038  12.447
55847W        W27463  27.408  15.101  13.369
55848W        W27464   3.770  13.960   4.573
55849W        W27465   0.359  20.516   0.486
55850W        W27466  35.162  37.401  13.859
55851W        W27467  10.854  32.001  12.293
55852W        W27468  41.274  22.099  12.665
55853W        W27469  24.181   3.479  14.258
55854W        W27470   2.703  10.767  11.942
55855W        W27471  37.355  40.863  13.134
55856W        W27472  21.136  10.786  13.497
55857W        W27473  22.969   5.616  13.898
55858W        W27474  17.903  20.597   3.257
55859W        W27475   8.973  25.237  11.497
55860W        W27476  36.938   6.907  13.852
55861W        W27477   3.206   0.411   0.845
55862W        W27478   4.191   0.418  11.879
55863W        W27479  30.602  25.473   4.627
55864W        W27480  32.647  12.074  11.058
55865W        W27481  20.653  14.208  10.485
55866W        W27482  42.040  16.308  13.346
55867W        W27483  41.588  31.628   1.432
55868W        W27484  15.725  11.666   4.976
55869W        W27485   9.409  12.278  10.453
55870W        W27486  43.858  43.717   3.233
55871W        W27487  27.926  11.589   4.514
55872W        W27488  38.977   1.844   4.830
55873W        W27489  18.597   8.788  10.273
55874W        W27490  12.346  16.868  14.799
55875W        W27491   7.832  27.092   2.838
55876W        W27492   2.233  44.404  11.519
55877W        W27493   7.364  26.599   4.620
55878W        W27494   6.480  28.468   2.909
55879W        W27495  31.756   8.463   3.905
55880W        W27496  29.558  13.882  11.612
55881W        W27497  32.424  37.039   3.142
55882W        W27498  22.444  26.681   3.162
55883W        W27499  12.321   8.677   0.528
55884W        W27500   5.209  27.218   1.792
55885W        W27501  41.013  23.563   3.664
55886W        W27502  40.405   7.051  12.060
55887W        W27503   4.744   2.941  14.461
55888W        W27504   6.813  33.973  12.887
55889W        W27505  37.985  43.971  13.113
55890W        W27506  13.768   8.681   1.604
55891W        W27507  26.310  42.819  14.473
55892W        W27508  32.987   4.625   2.820
55893W        W27509  16.647  15.783  10.170
55894W        W27510  35.524  35.823   4.385
55895W        W27511  19.319  42.791   2.805
55896W        W27512  22.184   9.662   1.460
55897W        W27513  43.471  43.253   0.744
55898W        W27514  34.425  40.589   1.854
55899W        W27515  24.585  13.005  11.913
55900W        W27516  34.467   4.594  14.726
55901W        W27517   0.292  19.654   2.321
55902W        W27518  19.370   4.986   3.486
55903W        W27519  27.475   9.273   0.868
55904W        W27520   0.863  42.892   1.841
55905W        W27521  27.407  31.827   5.097
55906W        W27522  28.833  33.858   4.486
55907W        W27523   3.999   2.541  12.622
55908W        W27524   5.716   9.081  11.145
55909W        W27525   7.749  11.120   0.293
55910W        W27526  33.549  34.364  12.663
55911W        W27527   7.897   8.209   3.779
55912W        W27528  22.659  43.750   1.188
55913W        W27529  28.441  13.766   5.457
55914W        W27530  41.703  38.094   4.605
55915W        W27531  38.209  19.667  11.213
55916W        W27532  37.466  34.372  12.417
55917W        W27533   4.013  38.304  12.498
55918W        W27534   9.903  33.860   4.195
55919W        W27535  42.398  18.597   0.415
55920W        W27536  41.866  37.957   0.487
55921W        W27537  25.778  20.063  14.867
55922W        W27538   8.698  40.654  10.705
55923W        W27539   3.942  42.447  13.807
55924W        W27540  20.524   6.879  14.533
55925W        W27541  20.140  36.568  13.094
55926W        W27542  21.568  20.574   0.373
55927W        W27543   9.445  15.717   3.476
55928W        W27544  37.497  21.844   0.738
55929W        W27545  37.924  11.785   3.986
55930W        W27546  30.398  31.991  10.006
55931W        W27547  44.564  36.920   1.870
55932W        W27548  23.430  20.063   1.469
55933W        W27549   9.176   7.405  10.756
55934W        W27550  32.488   6.105  14.999
55935W        W27551  24.009  33.078   3.728
55936W        W27552  31.636  16.454   1.265
55937W        W27553   4.265  18.159  10.676
55938W        W27554  24.401  44.311   0.844
55939W        W27555  18.826  41.700  11.041
55940W        W27556  17.759  44.123   5.390
55941W        W27557  24.754  35.442   1.170
55942W        W27558  11.147  40.925  12.056
55943W        W27559  19.650  11.385   0.351
55944W        W27560  10.902  43.730  13.052
55945W        W27561  20.772  24.446   4.249
55946W        W27562   3.490  38.294   0.349
55947W        W27563  21.792   6.181   0.467
55948W        W27564  30.628  25.802  11.409
55949W        W27565  18.696   7.904  11.208
55950W        W27566  11.159  33.860  13.354
55951W        W27567  26.113   1.853  14.342
55952W        W27568  44.217  40.353  11.122
55953W        W27569  35.128  25.440  14.678
55954W        W27570  29.137  27.070  14.351
55955W        W27571  41.495  23.553  12.787
55956W        W27572   8.904  42.469  13.607
55957W        W27573  28.204   0.819  13.871
55958W        W27574   5.239  23.518   2.937
55959W        W27575  25.022  32.332  13.901
55960W        W27576  22.929  19.106   2.159
55961W        W27577   4.339   9.425  13.086
55962W        W27578  15.707   4.595   9.748
55963W        W27579  44.473   0.001  10.679
55964W        W27580  37.568  38.387   0.267
55965W        W27581  35.995  36.535   4.337
55966W        W27582  25.615   2.196  13.009
55967W        W27583  29.113  18.726  12.928
55968W        W27584  24.753  41.270  13.929
55969W        W27585  19.827  19.652  13.547
55970W        W27586  34.513  31.213  10.797
55971W        W27587  16.394  17.198  10.648
55972W        W27588  19.622  44.198   5.189
55973W        W27589  10.617   4.601   3.804
55974W        W27590  36.161  37.527   4.180
55975W        W27591   7.838  16.527  11.081
55976W        W27592  30.551  20.515   3.114
55977W        W27593  27.752  13.749  12.888
55978W        W27594  30.166   6.473  11.018
55979W        W27595  13.888   8.797  12.079
55980W        W27596   4.395   9.838   1.979
55981W        W27597   4.928  26.722  11.964
55982W        W27598  13.077   3.829  14.761
55983W        W27599  33.089  39.539  11.034
55984W        W27600  39.508   1.940  11.343
55985W        W27601  11.852   2.563   0.347
55986W        W27602  10.633  22.400  10.709
55987W        W27603  41.486  30.715   0.417
55988W        W27604  34.735  19.460  12.141
55989W        W27605   1.293   9.611  10.872
55990W        W27606   8.225  29.459   3.152
55991W        W27607  21.957  23.244   3.654
55992W        W27608  15.100  32.543  13.328
55993W        W27609  14.109  19.113   1.306
55994W        W27610  13.117  44.552   0.352
55995W        W27611  38.881  20.017   0.274
55996W        W27612  14.340  14.599   1.397
55997W        W27613  19.255  21.001   1.900
55998W        W27614  42.595  20.514  14.904
55999W        W27615  39.129   2.895   1.085
56000W        W27616  34.386  37.011   2.874
56001W        W27617  10.824  18.076   3.141
56002W        W27618  17.765  10.162   2.627
56003W        W27619  14.013  30.584  13.919
56004W        W27620  39.967   9.513  11.269
56005W        W27621  35.194   5.142   1.871
56006W        W27622  20.064  17.333   1.820
56007W        W27623   4.750  34.408  12.048
56008W        W27624  26.485  16.294   0.406
56009W        W27625   7.664   7.182   3.717
56010W        W27626  14.608  31.058   0.562
56011W        W27627  33.704  28.615  11.876
56012W        W27628  14.719  33.461  12.365
56013W        W27629   6.589  27.082   3.497
56014W        W27630   5.703  32.055   4.179
56015W        W27631   2.665  30.694   2.659
56016W        W27632  33.220  24.981  11.456
56017W        W27633  19.680  28.500  13.825
56018W        W27634  37.894  29.640   3.216
56019W        W27635   6.755   8.176   1.974
56020W        W27636  18.490  11.333   1.834
56021W        W27637  18.561  20.651  14.997
56022W        W27638  25.492  37.774  13.271
56023W        W27639  38.527  31.870   3.647
56024W        W27640   7.554  33.605   1.520
56025W        W27641  31.832  30.686   2.338
56026W        W27642  31.677  42.872   1.399
56027W        W27643  36.889  21.548  10.926
56028W        W27644  11.089  18.178   1.381
56029W        W27645   3.585   7.267  14.376
56030W        W27646   1.537  33.872   1.877
56031W        W27647  38.866  26.062  12.372
56032W        W27648  27.454  24.967  12.405
56033W        W27649  21.736  44.411   4.580
56034W        W27650  41.511  42.104   3.638
56035W        W27651  36.010  13.650  12.018
56036W        W27652  35.994  43.892  11.461
56037W        W27653  12.321   9.856   0.679
56038W        W27654   0.882   2.946  14.284
56039W        W27655  15.791  25.354  11.580
56040W        W27656  28.673  40.727   2.303
56041W        W27657  36.806  13.799   0.674
56042W        W27658   4.497  28.195   0.133
56043W        W27659  33.904  14.918   2.204
56044W        W27660  37.550  21.026  12.962
56045W        W27661  10.403  39.308   5.079
56046W        W27662  20.795  23.757  14.267
56047W        W27663   2.396  36.985  10.607
56048W        W27664  26.522  37.287   0.862
56049W        W27665  20.399  18.297   1.011
56050W        W27666  27.678  12.827  13.419
56051W        W27667  40.739  43.861   4.723
56052W        W27668  24.187   1.483   0.196
56053W        W27669  19.518  41.610   0.360
56054W        W27670  44.988  17.339  12.937
56055W        W27671   3.934  19.119  13.919
56056W        W27672   4.178  14.107  13.492
56057W        W27673  18.306   1.668   0.786
56058W        W27674  16.272  20.589   4.110
56059W        W27675  37.342  11.883   3.279
56060W        W27676  21.167   2.053   1.932
56061W        W27677  40.423  36.082  13.427
56062W        W27678  43.309  10.622  11.013
56063W        W27679  21.173  42.267   1.775
56064W        W27680   7.370  22.663   0.421
56065W        W27681  29.163  13.306   1.820
56066W        W27682  32.995  25.244   4.673
56067W        W27683  24.067  24.898   5.114
56068W        W27684   8.467  25.231  11.521
56069W        W27685  36.432  16.707   3.441
56070W        W27686  39.361  21.677   3.773
56071W        W27687  39.619   9.400   2.765
56072W        W27688  21.557  33.891   2.869
56073W        W27689  14.127  30.520  11.017
56074W        W27690  33.968  43.767   0.902
56075W        W27691  43.041  42.022   4.921
56076W        W27692  31.217  33.980   2.086
56077W        W27693  41.647  15.712  14.047
56078W        W27694  21.995   6.455   2.877
56079W        W27695  30.352  24.761  12.947
56080W        W27696  44.937   7.651   2.690
56081W        W27697  24.504  33.485   2.213
56082W        W27698  19.359  42.777   1.901
56083W        W27699  36.824  36.308  13.477
56084W        W27700  26.727  16.105   3.723
56085W        W27701  22.943  42.958   3.986
56086W        W27702  38.611   6.936  10.657
56087W        W27703  43.426  31.575  10.371
56088W        W27704  16.793   8.476   4.693
56089W        W27705  16.106   9.624  11.116
56090W        W27706  31.927  29.786   5.214
56091W        W27707   8.652   6.362   2.177
56092W        W27708  19.768  15.183   0.390
56093W        W27709  41.286  37.555  14.003
56094W        W27710  35.133   5.455  14.357
56095W        W27711  31.617  15.357   0.783
56096W        W27712   4.262  15.636  13.006
56097W        W27713  23.206  42.218   1.692
56098W        W27714  32.396  19.064  12.243
56099W        W27715   7.921  19.745   2.764
56100W        W27716   3.258  32.724   5.213
56101W        W27717  14.235  21.765  12.536
56102W        W27718  15.708   7.171   0.449
56103W        W27719  14.320  40.045   0.285
56104W        W27720  37.932   0.396   5.314
56105W        W27721  27.096   8.275  12.622
56106W        W27722  33.087  31.477   2.413
56107W        W27723  39.658  18.212  13.839
56108W        W27724  37.144  21.203   4.132
56109W        W27725  25.517  10.616  11.117
56110W        W27726  22.656  33.909  13.744
56111W        W27727   8.223  44.870  12.367
56112W        W27728  21.300   2.761   0.932
56113W        W27729  12.319  41.659  13.353
56114W        W27730   4.219  44.375   0.800
56115W        W27731  11.633  29.943  12.397
56116W        W27732  22.695  21.930   0.204
56117W        W27733   3.319  12.305   3.646
56118W        W27734   8.628  41.189   1.753
56119W        W27735  13.653  36.569   2.420
56120W        W27736  25.100  30.442  11.079
56121W        W27737  23.581  31.625   3.697
56122W        W27738  32.699   9.218   3.419
56123W        W27739  26.227  29.227   4.475
56124W        W27740  44.242  44.346   1.431
56125W        W27741  16.915  17.118  11.659
56126W        W27742  19.215  32.903   0.286
56127W        W27743  33.928  13.830  12.963
56128W        W27744  20.937  27.043  10.485
56129W        W27745  35.938  38.366  10.590
56130W        W27746  19.923  25.731   3.236
56131W        W27747   8.381   3.282  10.761
56132W        W27748  42.788  13.906  13.145
56133W        W27749  37.928  39.504   3.283
56134W        W27750   1.309   4.413  13.448
56135W        W27751  12.167   7.610   2.176
56136W        W27752  34.257  15.155   3.943
56137W        W27753  43.600  29.605   4.215
56138W        W27754  16.779  37.930  10.478
56139W        W27755  11.390   7.680   3.221
56140W        W27756  26.721  39.890  10.732
56141W        W27757  18.184  24.208  13.417
56142W        W27758   0.428  21.158  11.869
56143W        W27759  10.167   5.156  12.003
56144W        W27760  19.616  26.096  12.518
56145W        W27761   1.802  18.531   5.083
56146W        W27762  16.879  19.979  12.578
56147W        W27763  32.354  32.391   4.632
56148W        W27764  19.045  28.635   3.605
56149W        W27765  43.953   1.727   3.177
56150W        W27766  22.980  42.335  13.329
56151W        W27767  17.206   7.881   4.800
56152W        W27768   5.124  25.747  10.661
56153W        W27769  28.489   1.037  12.228
56154W        W27770  35.873  15.601  13.558
56155W        W27771  44.447  17.339   2.359
56156W        W27772  15.744  38.352   2.779
56157W        W27773  29.856  40.441  14.484
56158W        W27774  31.178  19.231  10.909
56159W        W27775   8.985  24.266  13.808
56160W        W27776  44.760   2.303   4.729
56161W        W27777  38.651  34.941   2.759
56162W        W27778   1.295   4.678   0.364
56163W        W27779   1.198  27.224  14.576
56164W        W27780  28.887  19.494   1.828
56165W        W27781  44.475  28.022  10.561
56166W        W27782  38.472  35.899  12.796
56167W        W27783  40.743  10.763  11.076
56168W        W27784   2.198  36.140  13.803
56169W        W27785   4.379   5.836  14.976
56170W        W27786  24.321  31.538   1.400
56171W        W27787  27.239  32.580  14.433
56172W        W27788   4.696  41.465   3.650
56173W        W27789   8.749  27.454   0.378
56174W        W27790  42.978   2.134   0.782
56175W        W27791   1.051  31.078  12.310
56176W        W27792  41.810  27.130   4.853
56177W        W27793  24.726   1.256  11.536
56178W        W27794  32.544  31.096  14.353
56179W        W27795  43.987   7.609   2.830
56180W        W27796   1.752  26.135  12.860
56181W        W27797   5.694  44.570   2.030
56182W        W27798  32.080  34.086   4.234
56183W        W27799  28.005  14.268  14.455
56184W        W27800  44.960  15.563  14.313
56185W        W27801  31.181  23.633  13.322
56186W        W27802   9.108  13.234   0.403
56187W        W27803  38.308  27.038   0.044
56188W        W27804  44.383   0.228   0.291
56189W        W27805  25.075  38.053  11.045
56190W        W27806   7.925  12.277  14.992
56191W        W27807  12.665  44.141   4.543
56192W        W27808  39.161  40.126  14.787
56193W        W27809  17.925   3.814  13.934
56194W        W27810  18.497   6.602   3.377
56195W        W27811  39.050  11.072   2.330
56196W        W27812  33.880  41.998   2.258
56197W        W27813  13.048  11.183  12.410
56198W        W27814  33.682  14.575  11.644
56199W        W27815  19.246   2.987  12.727
56200W        W27816  43.258  21.782   1.668
56201W        W27817   1.731  27.702   2.495
56202W        W27818  42.774  41.208  11.306
56203W        W27819  40.319  41.958  12.316
56204W        W27820  30.200  21.660  14.264
56205W        W27821  22.115  29.913  13.969
56206W        W27822  18.628   8.330   2.739
56207W        W27823  42.239  33.591   2.718
56208W        W27824  21.979  23.203  14.565
56209W        W27825  25.516  29.663  12.315
56210W        W27826  42.902  11.490  13.982
56211W        W27827   9.242   4.109  11.107
56212W        W27828  36.853  19.985  12.305
56213W        W27829  24.766   2.893   2.778
56214W        W27830  15.220   4.259  13.487
56215W        W27831  25.521  31.480  11.698
56216W        W27832  17.700   9.911  12.971
56217W        W27833   5.430  43.486   1.396
56218W        W27834  43.734  31.241  12.342
56219W        W27835  30.100  38.461  12.926
56220W        W27836   0.517  42.490  10.963
56221W        W27837  19.179   1.867   2.897
56222W        W27838   2.051  25.254   9.795
56223W        W27839  41.377  17.151  11.159
56224W        W27840  10.674  19.789   2.318
56225W        W27841  12.816  30.379   2.684
56226W        W27842  18.519  15.553  13.014
56227W        W27843   2.306  20.599  12.917
56228W        W27844  30.423   6.639   4.757
56229W        W27845  42.960   5.537  13.781
56230W        W27846  37.105  29.662  14.302
56231W        W27847  17.652   4.010   2.669
56232W        W27848  24.488  25.243   2.171
56233W        W27849  11.866  30.933  13.414
56234W        W27850   7.501  22.457  12.591
56235W        W27851  25.063  27.151  10.561
56236W        W27852  21.983  23.042  11.636
56237W        W27853   8.243   0.790  14.386
56238W        W27854  10.628  18.978   0.325
56239W        W27855  14.193  17.336   2.304
56240W        W27856   3.458  37.086  14.495
56241W        W27857  21.109  31.669   3.726
56242W        W27858  14.579  27.070   1.635
56243W        W27859  24.705  25.643   2.449
56244W        W27860  35.120  19.274   3.864
56245W        W27861  20.225   4.828   4.493
56246W        W27862  23.255   9.953  14.290
56247W        W27863  36.950  29.634   2.453
56248W        W27864  44.779   0.363  11.974
56249W        W27865  10.366  12.842   5.059
56250W        W27866  34.038   1.360  14.976
56251W        W27867  39.443  37.915   4.149
56252W        W27868   3.194  22.982   0.185
56253W        W27869  30.154  23.851  11.892
56254W        W27870  37.060  16.302   0.705
56255W        W27871  31.596  15.724   3.742
56256W        W27872  25.562  36.314  11.971
56257W        W27873  18.251  28.031   1.207
56258W        W27874  13.269   9.345  11.030
56259W        W27875  39.429   0.819  10.439
56260W        W27876  18.366  44.712   1.926
56261W        W27877  40.330   7.301   3.730
56262W        W27878  30.220  29.374  11.633
56263W        W27879   8.503  35.448   3.774
56264W        W27880  24.016  39.306  12.065
56265W        W27881  41.937  10.270  12.136
56266W        W27882  26.028  32.581   2.624
56267W        W27883  35.307   8.017  12.069
56268W        W27884   5.158  43.789   9.496
56269W        W27885  14.530  43.878  14.373
56270W        W27886   6.873   3.215  12.973
56271W        W27887   1.514   9.697   3.631
56272W        W27888   2.912  20.501   2.622
56273W        W27889   1.781  13.553   0.749
56274W        W27890  30.627  43.319  14.478
56275W        W27891  18.360  40.858   1.798
56276W        W27892  14.232  11.555   1.389
56277W        W27893  27.060  18.546   2.762
56278W        W27894  21.717  41.358   1.833
56279W        W27895   2.794  23.253  11.527
56280W        W27896  22.796  31.136  10.779
56281W        W27897  30.137  33.677  12.456
56282W        W27898  27.645  42.971  13.913
56283W        W27899  12.803   8.704  13.712
56284W        W27900  21.367  10.432  14.787
56285W        W27901   4.675  10.289  11.939
56286W        W27902  22.100  25.450   3.924
56287W        W27903  16.120   8.798  14.720
56288W        W27904  32.585  43.580  11.108
56289W        W27905  21.494  29.988   1.730
56290W        W27906  11.851  40.672   1.792
56291W        W27907   8.878  39.059  11.979
56292W        W27908  38.706  33.068   3.904
56293W        W27909   5.652   9.697   0.806
56294W        W27910  36.368   9.385  11.454
56295W        W27911  26.431   6.906   3.993
56296W        W27912  35.367  22.636  12.427
56297W        W27913  13.795  29.013  11.236
56298W        W27914  12.679  38.841   4.526
56299W        W27915  12.413  31.515  11.460
56300W        W27916  27.111  11.675   2.237
56301W        W27917  28.517  39.399   2.617
56302W        W27918  38.360  17.112  14.813
56303W        W27919  12.263  33.838   2.615
56304W        W27920  31.122  36.323  12.398
56305W        W27921  17.298  30.606  11.614
56306W        W27922  25.161  27.698  12.132
56307W        W27923   1.520  21.454   3.822
56308W        W27924  22.272   6.400  12.943
56309W        W27925  10.272  24.409  14.917
56310W        W27926  39.497  35.913   3.309
56311W        W27927   4.388   5.195   2.869
56312W        W27928  34.882  19.174   2.246
56313W        W27929  27.924  32.085  14.347
56314W        W27930  38.642  27.200   0.433
56315W        W27931  32.615  13.635  13.414
56316W        W27932  37.512  42.557   1.916
56317W        W27933  19.052  21.972   2.685
56318W        W27934  18.995  30.922   0.888
56319W        W27935   8.607   6.198   0.414
56320W        W27936   4.880  17.638   4.080
56321W        W27937  24.632  35.469  12.144
56322W        W27938   9.289  33.413   4.149
56323W        W27939   9.829  19.987  11.272
56324W        W27940   5.342  27.200  13.481
56325W        W27941   3.286  21.548  12.913
56326W        W27942  12.754   2.250  14.309
56327W        W27943   3.244  26.174  11.118
56328W        W27944  23.549  41.511   4.798
56329W        W27945  27.165  35.625  11.511
56330W        W27946  24.772  40.005   0.789
56331W        W27947  10.885   5.631  11.128
56332W        W27948  22.173  30.668  13.324
56333W        W27949  34.252  44.291  14.261
56334W        W27950  37.849   1.443  14.413
56335W        W27951  38.844  26.260  11.622
56336W        W27952  21.356  10.161  11.051
56337W        W27953  44.295  20.974   4.633
56338W        W27954  24.493  22.480   1.872
56339W        W27955  33.352   5.398  10.696
56340W        W27956   8.690  27.715  10.837
56341W        W27957  21.985   1.789  10.819
56342W        W27958  35.920  29.334  11.140
56343W        W27959   5.033  29.386   0.378
56344W        W27960   6.075  36.130  11.507
56345W        W27961  18.199  43.928  10.627
56346W        W27962  34.434  24.358   4.965
56347W        W27963  26.106   2.922   0.272
56348W        W27964   8.027   7.885   2.514
56349W        W27965  23.500  44.947  13.661
56350W        W27966   1.671  33.038   2.771
56351W        W27967  14.099  27.407   5.120
56352W        W27968  26.997   7.849  12.916
56353W        W27969  25.737  44.508  12.563
56354W        W27970  30.522  30.055  10.539
56355W        W27971  38.280  16.792  11.254
56356W        W27972  11.399  10.139  12.225
56357W        W27973  44.463  30.550   4.546
56358W        W27974   8.798  29.198  13.794
56359W        W27975  40.077  41.671   3.643
56360W        W27976  21.786  40.755   4.117
56361W        W27977  19.203  15.351  14.587
56362W        W27978  27.335  21.580  11.591
56363W        W27979   0.157  13.407  11.953
56364W        W27980  40.586   9.293  11.924
56365W        W27981   5.010  34.083   3.250
56366W        W27982  33.862  28.928   1.761
56367W        W27983  31.329  27.685  13.316
56368W        W27984  18.344  39.428  13.591
56369W        W27985  26.035   5.884   1.451
56370W        W27986   0.978  13.119  13.492
56371W        W27987  35.528  17.219  14.903
56372W        W27988  33.316  28.739  11.587
56373W        W27989   7.252   3.303   0.010
56374W        W27990  42.183  27.701   2.827
56375W        W27991  44.039  36.493   4.514
56376W        W27992  31.121   7.825   2.197
56377W        W27993  32.898   7.112  11.391
56378W        W27994  21.162  33.974  10.733
56379W        W27995   5.275  16.565   0.448
56380W        W27996  24.216   4.501  11.693
56381W        W27997  13.080  19.082   2.724
56382W        W27998  43.693  22.586   2.924
56383W        W27999  40.903   0.162   4.523
56384W        W28000  43.450  18.733   1.694
56385W        W28001  16.228  44.374   2.124
56386W        W28002  23.525  13.807   0.223
56387W        W28003  26.980  24.018  12.438
56388W        W28004  24.725  16.606   1.754
56389W        W28005   9.136  40.824  12.095
56390W        W28006  43.982  23.133  10.792
56391W        W28007  35.345  39.153  11.165
56392W        W28008  44.341  24.722   3.710
56393W        W28009  27.033  24.646  10.629
56394W        W28010  24.155  14.136  10.591
56395W        W28011  13.747  16.383  12.948
56396W        W28012  41.741  18.598   4.190
56397W        W28013  14.173  26.267   2.109
56398W        W28014  30.283  26.214  13.072
56399W        W28015   0.374  22.043  12.106
56400W        W28016  11.310   1.711  11.875
56401W        W28017  42.777  33.085  12.733
56402W        W28018  41.809  18.234  11.209
56403W        W28019  34.565  41.015   4.064
56404W        W28020  42.337  17.938  14.752
56405W        W28021  32.197  37.440  12.673
56406W        W28022   3.391  40.246  13.102
56407W        W28023   3.869  18.833   3.756
56408W        W28024  15.413  25.738  14.226
56409W        W28025  40.475  13.299   4.894
56410W        W28026   0.301  25.624   4.212
56411W        W28027  37.992  10.356  11.026
56412W        W28028  12.919  42.819  12.499
56413W        W28029   1.268  27.646   3.618
56414W        W28030  38.933  16.596   0.062
56415W        W28031  16.986  16.851   4.986
56416W        W28032  43.281  39.109  12.904
56417W        W28033  41.299  32.771  14.014
56418W        W28034  27.598   1.278   4.159
56419W        W28035   0.322  39.804  12.511
56420W        W28036  42.039   3.361   0.197
56421W        W28037  42.267   4.156   1.690
56422W        W28038  16.373  34.139   1.229
56423W        W28039  20.145   0.001  10.613
56424W        W28040   4.781  15.759  12.980
56425W        W28041   1.205  43.680  12.561
56426W        W28042   9.325  34.533  13.849
56427W        W28043   3.045  29.553   0.137
56428W        W28044  39.770  29.399  10.663
56429W        W28045  41.920  25.698  12.899
56430W        W28046   8.829  11.375   0.775
56431W        W28047   6.315  16.690   4.629
56432W        W28048  15.191   5.204  12.824
56433W        W28049  28.578   5.148  11.047
56434W        W28050   3.802  29.472  12.876
56435W        W28051  37.559  18.844  13.361
56436W        W28052  22.034   8.349   2.882
56437W        W28053   1.324  12.857   2.952
56438W        W28054  35.327  43.263  12.145
56439W        W28055   2.309  36.867  11.108
56440W        W28056   5.762  11.359  14.537
56441W        W28057  25.134  40.840  12.670
56442W        W28058   6.416  37.425   2.713
56443W        W28059  28.905  41.587   1.162
56444W        W28060  22.139  12.580   4.329
56445W        W28061   8.383  23.044   1.910
56446W        W28062  40.798  12.902  11.511
56447W        W28063  31.595   0.816  14.158
56448W        W28064  10.367  16.235  12.424
56449W        W28065  12.702  32.547  13.808
56450W        W28066  26.505  38.023  14.457
56451W        W28067  39.065  34.464   3.398
56452W        W28068  28.026  28.898  11.577
56453W        W28069  14.246  29.653  14.787
56454W        W28070  41.557   3.927  14.930
56455W        W28071  14.517  38.028   2.054
56456W        W28072   9.713  15.722  12.554
56457W        W28073  24.938  30.543  13.771
56458W        W28074   6.499  40.831   4.866
56459W        W28075   1.015  34.461  12.042
56460W        W28076  14.237  20.486   4.394
56461W        W28077   2.211  37.404  14.425
56462W        W28078  38.883  15.789  11.663
56463W        W28079   0.241  10.940   1.718
56464W        W28080  13.808  27.352  12.907
56465W        W28081  37.866   8.443  11.015
56466W        W28082  25.281  42.800  11.863
56467W        W28083  17.193  32.840   1.934
56468W        W28084  30.232  25.172   1.242
56469W        W28085  39.419   8.703   4.661
56470W        W28086  11.948  35.998   2.423
56471W        W28087   6.768  27.186  10.827
56472W        W28088   0.427  28.563   3.803
56473W        W28089  42.334   2.499  12.535
56474W        W28090  19.999   9.070  10.241
56475W        W28091  32.542  17.021   3.596
56476W        W28092  40.523  40.286  13.953
56477W        W28093  12.518  15.104   1.354
56478W        W28094  17.644  26.191   1.816
56479W        W28095   0.317  35.599  13.915
56480W        W28096   9.389  33.767   3.788
56481W        W28097  10.164  22.009   0.489
56482W        W28098   8.925  26.783   1.227
56483W        W28099  40.334  37.018  14.417
56484W        W28100  41.947  19.431   1.225
56485W        W28101  29.631   2.878  13.233
56486W        W28102  40.847  26.782   4.729
56487W        W28103   1.912  25.071   2.075
56488W        W28104  34.147  17.348  13.472
56489W        W28105  25.036  25.447   3.791
56490W        W28106  13.028  16.716  10.614
56491W        W28107  26.467  18.156  14.318
56492W        W28108  13.176   1.447   1.732
56493W        W28109  36.397  36.206   0.876
56494W        W28110  21.896  31.377  11.979
56495W        W28111   8.790  12.669   4.742
56496W        W28112  20.587   4.941  13.400
56497W        W28113   0.678  17.821  11.640
56498W        W28114  21.030  19.454  13.026
56499W        W28115  44.651   4.674   3.728
56500W        W28116   7.145  41.950   2.318
56501W        W28117  10.141  13.429   3.669
56502W        W28118  33.727   6.746  13.380
56503W        W28119  38.643  17.541  14.866
56504W        W28120  42.045  22.920   0.493
56505W        W28121  41.041  44.313  12.811
56506W        W28122  11.318  17.324   4.257
56507W        W28123  16.247   8.530  13.407
56508W        W28124   6.440  24.429   2.749
56509W        W28125  29.977  32.034   0.328
56510W        W28126   8.292  37.131   4.570
56511W        W28127  17.172  20.007  13.410
56512W        W28128  38.489  36.895   4.189
56513W        W28129  35.577   4.420  14.798
56514W        W28130  42.063  11.365  13.474
56515W        W28131   7.837  32.158   0.878
56516W        W28132   1.434  24.490  11.914
56517W        W28133   1.280  27.088   2.776
56518W        W28134   2.370  18.040   2.936
56519W        W28135  13.592  23.907   2.888
56520W        W28136  13.448  30.089  11.123
56521W        W28137  43.826  34.129  11.108
56522W        W28138  24.649   4.452   2.638
56523W        W28139  28.917  38.897  11.194
56524W        W28140  26.709  22.157   1.742
56525W        W28141  40.561  13.380   3.373
56526W        W28142  30.767  32.218   0.953
56527W        W28143  41.900  43.847  10.985
56528W        W28144  31.338  44.527   2.789
56529W        W28145  26.343  17.792   3.538
56530W        W28146   5.268  44.552  13.483
56531W        W28147  43.390  37.548   1.822
56532W        W28148  11.831   8.251   3.658
56533W        W28149  28.735  16.602  11.621
56534W        W28150   9.740  44.770  10.728
56535W        W28151  40.704  16.664  12.875
56536W        W28152  26.560  33.738   0.474
56537W        W28153   3.243  18.015   2.787
56538W        W28154  16.531  13.684  10.677
56539W        W28155  44.890  17.659  12.233
56540W        W28156  13.829  24.709   1.488
56541W        W28157  17.778  11.250   1.171
56542W        W28158  11.188   4.241  14.767
56543W        W28159  38.963   8.698  10.293
56544W        W28160  28.177   9.896  11.219
56545W        W28161  18.264   9.157   4.512
56546W        W28162  14.891  10.163  12.103
56547W        W28163  18.051   9.970  11.824
56548W        W28164  17.224  37.555   4.161
56549W        W28165   6.097   9.952   0.776
56550W        W28166   8.212  27.422   1.433
56551W        W28167  20.391  42.261   0.845
56552W        W28168  26.936  19.684   4.251
56553W        W28169  36.829  27.869   2.801
56554W        W28170  35.379  43.552   2.866
56555W        W28171   8.131  24.190   4.278
56556W        W28172  10.640   2.445   4.361
56557W        W28173  36.072  29.585  11.591
56558W        W28174  41.061   9.321  12.156
56559W        W28175  36.934  19.476   4.626
56560W        W28176  27.992  43.387  13.934
56561W        W28177  44.390  43.059  12.322
56562W        W28178  16.845   1.927  13.082
56563W        W28179  34.037  23.685   2.862
56564W        W28180  19.557   1.876  12.388
56565W        W28181   5.301  28.594   4.814
56566W        W28182   7.389  31.544   4.624
56567W        W28183  19.388  13.117   3.225
56568W        W28184  16.074  28.054  11.151
56569W        W28185  30.792   1.198   0.779
56570W        W28186  38.447  15.579   4.315
56571W        W28187   6.188  20.168   0.278
56572W        W28188  34.565  19.707  13.097
56573W        W28189  44.883  39.469  12.515
56574W        W28190  39.818  40.579   0.054
56575W        W28191  40.797  24.523  11.919
56576W        W28192  43.927  22.517   4.447
56577W        W28193  26.162  43.099   1.659
56578W        W28194   7.216  14.341   0.378
56579W        W28195  23.643  12.740  11.150
56580W        W28196   9.380  24.791  10.675
56581W        W28197  36.474   6.859   2.240
56582W        W28198  36.599  15.708   4.067
56583W        W28199  23.614  21.791  11.601
56584W        W28200  16.620   5.725   0.838
56585W        W28201  32.451  10.332   3.634
56586W        W28202  24.526  39.758   3.004
56587W        W28203  25.950   9.763   4.208
56588W        W28204  19.818   3.190  14.070
56589W        W28205  31.866  42.959   4.612
56590W        W28206  43.277  40.308   4.275
56591W        W28207  42.989   0.070   2.253
56592W        W28208  22.974  44.294   0.716
56593W        W28209  38.295  42.207  11.118
56594W        W28210  24.112  32.839   0.916
56595W        W28211  35.997  34.447   4.024
56596W        W28212  24.155   4.274   2.285
56597W        W28213   8.441  28.132   3.824
56598W        W28214  40.864  36.259   0.027
56599W        W28215  19.803   9.158  11.126
56600W        W28216   3.114  20.705   1.703
56601W        W28217  18.139  32.944   2.345
56602W        W28218  14.780  38.288   0.263
56603W        W28219  11.252  34.952   4.396
56604W        W28220   2.780  29.537  13.907
56605W        W28221  16.819  12.882  12.901
56606W        W28222  38.456  33.445   1.027
56607W        W28223  19.715  19.058   3.723
56608W        W28224   9.312  20.569  13.811
56609W        W28225  34.694  19.216   1.748
56610W        W28226  28.359  30.899   4.417
56611W        W28227  44.414  41.905   3.890
56612W        W28228   9.404  31.442   3.083
56613W        W28229  34.421  20.815  12.173
56614W        W28230  16.669  35.176   3.796
56615W        W28231  21.091  11.729   1.194
56616W        W28232  25.111  24.345  13.947
56617W        W28233   8.159  22.137  11.921
56618W        W28234  28.637  27.489  13.982
56619W        W28235   1.065  29.373  11.582
56620W        W28236  17.836  12.561   1.275
56621W        W28237  34.878  21.146  12.096
56622W        W28238   4.793  24.622   3.692
56623W        W28239  13.355   5.670   4.158
56624W        W28240   5.233   0.502   1.193
56625W        W28241  43.710  41.365   0.366
56626W        W28242  22.650  15.760   0.060
56627W        W28243  30.971  35.748  13.530
56628W        W28244  19.790   4.352   1.214
56629W        W28245  19.892  44.162   1.763
56630W        W28246   0.682  24.541   1.786
56631W        W28247  42.249  32.159   1.718
56632W        W28248   0.455   9.199   0.470
56633W        W28249  23.234  20.449   0.427
56634W        W28250  13.292  10.346  13.782
56635W        W28251  14.636  42.059  10.557
56636W        W28252  37.313  41.809   2.278
56637W        W28253   3.334  30.601  13.937
56638W        W28254  35.992  23.168   4.196
56639W        W28255  14.389   3.765   2.803
56640W        W28256  31.123  43.004  12.851
56641W        W28257  38.473  36.420   0.033
56642W        W28258  38.731  15.681   0.245
56643W        W28259  35.080  20.716  10.621
56644W        W28260  39.444   0.345   1.926
56645W        W28261  42.599  10.320  13.368
56646W        W28262   7.960  18.788  11.602
56647W        W28263  34.365  32.374   1.218
56648W        W28264   5.557  13.222  13.294
56649W        W28265  25.171   1.068   2.370
56650W        W28266  44.989  18.511  13.472
56651W        W28267   7.112  24.046  12.726
56652W        W28268  22.861  15.435  12.228
56653W        W28269   7.733  28.393   0.750
56654W        W28270  17.226  20.323   4.496
56655W        W28271  41.301  30.523  11.237
56656W        W28272  35.230  19.563  13.954
56657W        W28273  18.996  25.630  14.549
56658W        W28274   2.006  11.788  10.675
56659W        W28275  15.040  10.198   2.699
56660W        W28276   3.330  35.797   3.897
56661W        W28277  21.017   8.098  13.846
56662W        W28278  28.621   8.306   2.816
56663W        W28279  11.092  20.664   2.265
56664W        W28280   9.678  18.225  10.723
56665W        W28281  44.091   9.512   4.980
56666W        W28282  39.184  44.322  11.091
56667W        W28283  33.108   0.090  13.056
56668W        W28284  41.496  36.853  12.058
56669W        W28285  43.877  15.584   3.459
56670W        W28286  32.502  33.352  10.381
56671W        W28287  19.037  21.647   3.118
56672W        W28288   6.488  17.063   2.224
56673W        W28289   5.541   2.910   1.379
56674W        W28290   2.483  23.045  13.660
56675W        W28291  23.639  33.387  13.905
56676W        W28292  40.072  34.852  12.470
56677W        W28293  12.319  12.588   1.450
56678W        W28294  12.040  10.316   3.883
56679W        W28295  20.170  12.362  10.774
56680W        W28296  11.843  40.413  13.507
56681W        W28297  24.952  38.765   4.223
56682W        W28298  14.256  39.479   4.610
56683W        W28299  19.304   3.313   3.210
56684W        W28300   6.747  29.705  14.972
56685W        W28301  31.829  36.378   3.740
56686W        W28302  19.305  37.813   3.225
56687W        W28303  44.437  19.855   0.249
56688W        W28304  33.602  12.792   0.261
56689W        W28305  21.222   0.702   0.305
56690W        W28306  10.447  31.356  11.034
56691W        W28307  14.113  15.064  14.852
56692W        W28308   9.424   2.868   1.482
56693W        W28309   6.955  42.744  11.215
56694W        W28310   8.392  35.901   2.815
56695W        W28311  17.826  20.283   4.541
56696W        W28312   0.047  29.674   3.689
56697W        W28313   2.198  19.586  14.566
56698W        W28314  28.873   0.709   3.764
56699W        W28315  13.260  18.153  11.696
56700W        W28316  32.169  15.855  14.991
56701W        W28317   2.943   8.656   1.308
56702W        W28318   4.223  13.092  10.491
56703W        W28319  14.315  37.310   0.759
56704W        W28320  22.009  20.663   3.614
56705W        W28321  28.483  18.671   3.902
56706W        W28322  10.306  24.736   1.958
56707W        W28323  44.570  21.711   2.395
56708W        W28324  13.979  21.511   1.562
56709W        W28325  37.798  41.312   3.715
56710W        W28326  28.047  44.579  11.223
56711W        W28327   5.331  43.629   0.912
56712W        W28328  42.869  23.536   2.851
56713W        W28329  23.665  31.887  13.905
56714W        W28330  13.892  37.952   2.789
56715W        W28331  26.623  37.257   1.756
56716W        W28332  44.952  32.042   3.704
56717W        W28333  42.610   6.923   0.348
56718W        W28334  33.695  14.432   2.097
56719W        W28335  43.112   9.656   2.988
56720W        W28336   9.722  28.411   3.022
56721W        W28337  25.506   9.580   0.317
56722W        W28338  26.397  13.523   4.076
56723W        W28339  36.010  25.375   3.226
56724W        W28340   4.701   2.239  10.163
56725W        W28341  28.511   2.213   4.136
56726W        W28342  17.187  23.923   3.836
56727W        W28343  24.131  19.528  12.493
56728W        W28344  20.043   3.333  11.278
56729W        W28345   5.805  11.515  13.117
56730W        W28346  29.738  26.781  13.528
56731W        W28347   1.565   8.742  14.358
56732W        W28348   6.105  31.235  12.494
56733W        W28349   2.231  22.686  14.593
56734W        W28350  16.131  19.732  12.059
56735W        W28351  40.279   7.403   0.852
56736W        W28352  26.025  24.733   2.985
56737W        W28353  29.192  17.346   3.208
56738W        W28354  13.276   3.229  14.779
56739W        W28355  39.443  41.854   1.222
56740W        W28356   2.744  17.182  11.166
56741W        W28357   3.989  32.627  11.409
56742W        W28358  26.895   8.709  13.305
56743W        W28359  21.957  18.594  12.507
56744W        W28360  31.646   6.380   2.410
56745W        W28361  22.111  26.115   0.248
56746W        W28362   1.697  37.912   3.504
56747W        W28363  25.229   0.563   2.377
56748W        W28364  33.884  42.851   3.874
56749W        W28365   4.964  10.361  13.423
56750W        W28366   1.806  28.432   3.774
56751W        W28367  28.282   3.981  12.983
56752W        W28368  18.615  14.836  12.614
56753W        W28369  43.809   3.930   4.509
56754W        W28370  40.047  16.119  10.605
56755W        W28371  44.153  35.682   2.095
56756W        W28372  32.280  23.180  13.894
56757W        W28373  41.264  10.085  11.164
56758W        W28374  22.113  32.177  12.062
56759W        W28375  40.380  18.101  12.647
56760W        W28376  14.792  24.498   3.137
56761W        W28377   2.975   0.768  11.578
56762W        W28378  44.412  26.928   3.041
56763W        W28379  25.305  39.413   2.779
56764W        W28380  35.364   8.278  14.556
56765W        W28381  19.414  25.673   4.107
56766W        W28382   1.990  39.079  11.986
56767W        W28383  11.118  28.863  13.968
56768W        W28384  19.327  13.146   0.782
56769W        W28385  43.346  35.548   2.591
56770W        W28386  39.391  17.015   0.792
56771W        W28387  33.450  38.441  13.157
56772W        W28388  35.903  22.306   4.822
56773W        W28389   7.491  17.516   1.427
56774W        W28390  30.548  39.476   4.605
56775W        W28391  11.429  21.197   1.456
56776W        W28392  38.840  24.174  13.471
56777W        W28393  10.820  30.629  11.395
56778W        W28394   8.439  14.835   4.113
56779W        W28395  44.369  12.677  12.943
56780W        W28396  21.223  16.191  11.969
56781W        W28397  33.413  29.750  13.924
56782W        W28398  40.700  35.537  10.711
56783W        W28399  19.651   3.157   1.397
56784W        W28400  10.726  41.752   3.865
56785W        W28401  18.652  40.849  13.876
56786W        W28402   0.793   9.821   2.615
56787W        W28403   7.298   7.394  13.396
56788W        W28404  43.440  39.921   1.712
56789W        W28405  26.118  19.273  10.744
56790W        W28406  42.981  41.947  11.876
56791W        W28407  25.036   7.780  13.803
56792W        W28408  36.540  18.270  11.715
56793W        W28409  37.602  24.528  14.995
56794W        W28410   2.141  16.160  11.459
56795W        W28411   6.472  36.278   1.316
56796W        W28412  34.159  16.434   3.333
56797W        W28413   1.850  43.041  13.509
56798W        W28414  28.966  16.642   2.334
56799W        W28415  42.877  19.576  11.851
56800W        W28416  10.318   2.906   2.393
56801W        W28417  12.098  32.895   2.167
56802W        W28418  22.183  39.361   3.308
56803W        W28419  15.747   9.928  12.982
56804W        W28420  44.044  41.981   4.663
56805W        W28421   6.669  33.727   3.797
56806W        W28422  41.903  14.715   2.974
56807W        W28423  30.366  16.132   0.825
56808W        W28424  20.504  11.668   4.234
56809W        W28425   4.770  42.820  14.407
56810W        W28426   2.731  38.566   0.264
56811W        W28427  12.604  24.051  14.173
56812W        W28428  13.766   6.238   4.398
56813W        W28429  28.477  27.255  13.542
56814W        W28430  24.786  21.965  14.329
56815W        W28431  19.032  22.216   4.563
56816W        W28432  28.013  40.306  13.480
56817W        W28433   7.591  19.807  13.464
56818W        W28434  40.450  21.212  13.224
56819W        W28435  38.660  22.178   4.070
56820W        W28436   9.600  10.184  14.043
56821W        W28437  32.385  16.313  11.211
56822W        W28438  28.168  12.098   1.785
56823W        W28439  34.406  27.077  10.669
56824W        W28440  26.626  31.017   3.303
56825W        W28441  35.382   7.412  13.640
56826W        W28442   2.176   5.932   0.801
56827W        W28443   1.271  22.564  13.389
56828W        W28444  43.227   3.768   1.747
56829W        W28445  32.273  25.165   1.574
56830W        W28446  14.287  19.024  14.889
56831W        W28447  18.566  36.941  11.630
56832W        W28448  15.080  17.741   3.211
56833W        W28449  29.950   6.797   4.618
56834W        W28450  40.288  44.690   4.119
56835W        W28451  25.093   9.076  10.687
56836W        W28452  29.530  38.397   3.354
56837W        W28453   1.360  36.852   1.609
56838W        W28454  19.062  42.214   3.757
56839W        W28455  44.325  15.612   3.163
56840W        W28456  14.966  39.215   1.174
56841W        W28457  21.103  33.466  10.712
56842W        W28458  15.537  39.588   4.084
56843W        W28459  22.662  43.932  14.231
56844W        W28460  16.444  31.745  10.652
56845W        W28461  36.522  30.405  12.479
56846W        W28462  28.786  33.606   3.742
56847W        W28463  24.011  44.895   1.449
56848W        W28464   6.026  13.338   0.781
56849W        W28465  22.024  12.791  13.826
56850W        W28466   6.670  30.374  13.367
56851W        W28467  39.928  34.413   2.561
56852W        W28468  17.605  40.382  11.359
56853W        W28469  12.783  25.828  11.553
56854W        W28470  44.541  30.515   0.913
56855W        W28471  27.909  31.652   2.905
56856W        W28472  20.800  17.224  12.040
56857W        W28473   2.460  42.759   0.444
56858W        W28474  15.646   9.421  11.208
56859W        W28475  34.426   6.821  11.119
56860W        W28476   1.150   5.638   1.526
56861W        W28477  24.669  13.600   2.982
56862W        W28478  26.973  13.665   1.212
56863W        W28479  19.441  20.373   2.397
56864W        W28480  16.429  25.703   1.290
56865W        W28481  13.056   0.474   4.227
56866W        W28482  33.192  23.767   4.578
56867W        W28483   1.980  10.983  14.167
56868W        W28484  14.748   3.321   5.009
56869W        W28485  22.563  37.493  14.218
56870W        W28486  44.854  14.654  11.068
56871W        W28487   2.771  41.906  13.031
56872W        W28488   5.394   5.910   1.799
56873W        W28489  20.344  43.383  14.211
56874W        W28490   8.371  29.978  12.440
56875W        W28491  24.793   0.271   2.028
56876W        W28492  18.460  34.570  11.320
56877W        W28493  14.643  12.379  12.467
56878W        W28494  38.399  20.000  13.306
56879W        W28495  22.667  40.763   3.723
56880W        W28496  29.161  42.678  10.183
56881W        W28497  22.627   1.292   1.919
56882W        W28498  11.753  10.945   2.358
56883W        W28499   1.384  28.438  11.140
56884W        W28500   4.818   7.200  10.619
56885W        W28501  20.531  22.618   3.129
56886W        W28502  30.924   2.950  13.951
56887W        W28503  35.284  32.662  12.805
56888W        W28504  14.257  20.635   1.969
56889W        W28505   2.520  12.200  11.574
56890W        W28506  11.339  33.321  11.872
56891W        W28507  37.130  28.714  11.148
56892W        W28508  36.544  28.951   3.573
56893W        W28509  38.427  32.063  11.850
56894W        W28510   3.648  16.179   3.435
56895W        W28511  11.794  33.539  14.841
56896W        W28512  35.327  21.570   3.711
56897W        W28513  33.561  11.734   4.218
56898W        W28514  36.954  25.736   4.657
56899W        W28515  24.074  20.756   3.613
56900W        W28516   0.945   1.690  10.337
56901W        W28517  24.172   3.279   1.447
56902W        W28518  21.500  15.011  13.260
56903W        W28519  40.356   6.298   2.256
56904W        W28520  24.495  43.442   0.722
56905W        W28521   2.812  10.451   0.331
56906W        W28522  44.410  30.541   4.015
56907W        W28523  29.249  28.138   0.402
56908W        W28524  32.945   7.334   3.715
56909W        W28525   4.637   6.678  12.637
56910W        W28526   8.464  37.072   3.236
56911W        W28527  40.949  14.504   4.267
56912W        W28528  26.714  21.259   1.736
56913W        W28529  29.009  22.747  11.974
56914W        W28530   6.652  25.547  11.553
56915W        W28531  32.976  17.163  14.603
56916W        W28532  27.267  28.482   1.807
56917W        W28533  11.866   8.120  12.594
56918W        W28534  28.965  41.079   1.141
56919W        W28535  30.920  37.829   2.887
56920W        W28536  25.046  44.398   3.031
56921W        W28537  21.960  11.071   0.037
56922W        W28538  43.059   6.149  13.610
56923W        W28539  38.340   2.333  13.655
56924W        W28540  30.485   8.900   2.811
56925W        W28541  14.255  19.309   0.376
56926W        W28542  36.506   8.206  13.102
56927W        W28543  35.978   4.850  13.596
56928W        W28544  20.165  41.307  12.789
56929W        W28545   9.913  43.436   0.686
56930W        W28546  22.500  10.973  13.863
56931W        W28547   5.499   4.414   3.526
56932W        W28548   8.731   3.762   4.611
56933W        W28549  23.833  34.348   4.090
56934W        W28550  14.411   1.083   0.299
56935W        W28551  32.419  35.487  13.458
56936W        W28552  37.075  19.309   4.112
56937W        W28553  19.215   6.423  12.102
56938W        W28554  18.076   2.664   3.506
56939W        W28555  13.718   2.143  13.341
56940W        W28556  15.777  26.622   3.203
56941W        W28557  14.873   4.889   4.613
56942W        W28558  11.463  11.921   2.278
56943W        W28559  26.223  31.526   1.509
56944W        W28560  44.961   4.895   2.783
56945W        W28561   9.530  29.308   2.540
56946W        W28562   1.302  14.256   3.717
56947W        W28563  26.120  24.489  13.928
56948W        W28564  14.530  30.113   4.985
56949W        W28565   6.448  14.346  12.115
56950W        W28566  38.575  15.599  13.940
56951W        W28567  26.455  17.099   4.715
56952W        W28568  20.141   6.734   0.325
56953W        W28569  18.169   3.488   0.233
56954W        W28570  11.223  43.054  12.054
56955W        W28571  16.327   7.908   4.082
56956W        W28572  38.643  11.363  12.347
56957W        W28573  11.849   1.390  14.181
56958W        W28574  18.961  20.498   2.226
56959W        W28575  13.793  24.109   3.689
56960W        W28576   1.988   5.748   3.231
56961W        W28577   5.353  39.070  13.313
56962W        W28578   3.412  40.078  10.711
56963W        W28579  18.123  35.642   0.851
56964W        W28580   4.248  12.105   3.220
56965W        W28581  14.289  28.110  12.940
56966W        W28582   7.956   2.211  12.937
56967W        W28583  39.896  14.407  14.993
56968W        W28584  44.610  33.302  11.566
56969W        W28585  24.169  23.325   1.375
56970W        W28586  39.035  10.708   0.501
56971W        W28587  34.872  20.141  13.117
56972W        W28588  43.481  11.172  14.698
56973W        W28589  11.391  23.867  13.999
56974W        W28590  15.072  30.459  13.431
56975W        W28591  10.618   3.752  13.447
56976W        W28592  39.823   2.198  11.735
56977W        W28593  10.133  33.142  12.071
56978W        W28594  18.619  34.312  12.573
56979W        W28595  42.986   6.182   4.487
56980W        W28596  42.292  39.563  12.882
56981W        W28597   3.018   3.651   2.907
56982W        W28598  40.462  36.930   3.637
56983W        W28599  18.098   8.112   4.746
56984W        W28600   4.717  30.705  10.677
56985W        W28601  36.275  44.575   0.749
56986W        W28602  13.801  41.325  14.727
56987W        W28603  27.570  40.657  14.319
56988W        W28604  23.037  36.821   4.168
56989W        W28605  22.288  31.466   3.323
56990W        W28606  41.966  25.138   2.851
56991W        W28607  25.815   1.186  10.965
56992W        W28608  27.121   6.483   2.760
56993W        W28609  43.820   6.192  12.445
56994W        W28610  30.053   3.396   0.825
56995W        W28611  24.605  38.553   4.550
56996W        W28612  32.693  44.383  13.019
56997W        W28613  39.776  36.294   1.105
56998W        W28614  42.927   3.481  14.964
56999W        W28615  35.086  28.596  14.982
57000W        W28616  15.081  36.368  11.269
57001W        W28617  26.119  24.610  12.548
57002W        W28618   5.711  33.968  10.483
57003W        W28619  10.580   8.295  13.941
57004W        W28620  30.628  29.714  11.608
57005W        W28621  33.055  26.945   0.175
57006W        W28622   1.674   2.370  14.764
57007W        W28623  21.783   0.996   2.266
57008W        W28624  21.991  25.315   0.268
57009W        W28625  19.694   4.709   0.772
57010W        W28626  23.900   8.434  11.850
57011W        W28627   2.897  14.366  11.034
57012W        W28628  24.777  16.630  13.374
57013W        W28629  44.296  41.033  13.271
57014W        W28630  41.434  39.284   4.609
57015W        W28631  23.209  30.410   4.730
57016W        W28632   2.975  41.848   4.248
57017W        W28633  23.058   6.975  11.586
57018W        W28634   5.735  36.051   2.656
57019W        W28635   9.701   3.430   1.918
57020W        W28636  15.627  35.573   0.424
57021W        W28637  12.682  41.233   3.271
57022W        W28638  41.515   5.192   1.164
57023W        W28639  16.846  18.532   0.698
57024W        W28640   6.828  26.028   0.079
57025W        W28641   9.260  38.456   0.838
57026W        W28642  24.779  43.679  11.473
57027W        W28643  18.507  29.989  12.064
57028W        W28644   1.347  28.168   3.706
57029W        W28645  17.109  41.268  12.932
57030W        W28646  28.524  36.932  13.910
57031W        W28647  23.710  35.110  13.650
57032W        W28648  14.891  23.000   1.792
57033W        W28649  16.784  38.055  11.941
57034W        W28650  31.907  24.975  13.355
57035W        W28651  14.111   0.499  11.673
57036W        W28652  11.396  39.914   3.510
57037W        W28653  10.157   0.914  13.057
57038W        W28654  22.681  39.583   2.319
57039W        W28655  34.229  43.377  10.861
57040W        W28656  11.410  43.398   0.874
57041W        W28657  34.488   9.659  11.026
57042W        W28658  44.954  41.957   2.728
57043W        W28659  39.440  26.490   1.382
57044W        W28660  17.653  25.904   0.932
57045W        W28661  39.570  37.910   0.389
57046W        W28662  23.146   1.061   4.488
57047W        W28663  23.138   7.403  11.318
57048W        W28664  11.646  22.760  14.716
57049W        W28665  14.120  27.792  13.414
57050W        W28666   4.373  29.348   3.127
57051W        W28667  20.059  30.045  13.413
57052W        W28668  38.790  26.848   1.891
57053W        W28669   8.395  42.767  12.039
57054W        W28670  18.690  28.964  10.526
57055W        W28671  36.104  37.079   0.352
57056W        W28672  34.493  30.922   0.909
57057W        W28673  33.005  28.332   2.420
57058W        W28674  22.553  20.831  10.677
57059W        W28675   1.803  28.157   0.969
57060W        W28676  40.545  34.225  11.587
57061W        W28677  41.281  22.496   2.849
57062W        W28678  13.398  18.234  10.493
57063W        W28679  15.278  19.206  14.462
57064W        W28680  29.526  44.362   0.379
57065W        W28681  42.714  15.052   2.797
57066W        W28682   6.840  17.639  12.848
57067W        W28683  34.599  22.590   3.392
57068W        W28684   6.903  30.389   0.868
57069W        W28685  31.639  31.344  11.549
57070W        W28686  26.723  33.643  11.094
57071W        W28687  14.018  44.461  14.916
57072W        W28688   1.390  34.534   4.772
57073W        W28689   9.656  19.038   0.087
57074W        W28690  17.645  36.851  11.461
57075W        W28691  42.490  35.426   9.777
57076W        W28692  16.767   0.373   4.292
57077W        W28693  26.669  33.781   4.598
57078W        W28694  10.372  42.002  11.593
57079W        W28695   8.476  25.123   4.519
57080W        W28696   8.512   7.871  13.377
57081W        W28697  29.493  37.030   4.137
57082W        W28698  17.278  13.134  10.988
57083W        W28699  15.776  24.081   2.881
57084W        W28700  10.750  44.900  11.247
57085W        W28701   3.239   4.386   1.203
57086W        W28702  15.190  30.548   4.540
57087W        W28703  20.771   3.821   4.045
57088W        W28704   5.947  20.072   1.726
57089W        W28705  21.455  10.300   2.340
57090W        W28706  10.704   6.357   1.812
57091W        W28707   2.029   0.494   3.607
57092W        W28708  18.591  15.605  12.129
57093W        W28709  35.453  40.826   2.354
57094W        W28710  10.638  15.110  13.730
57095W        W28711  41.309  38.540  14.399
57096W        W28712  40.876  22.064  14.290
57097W        W28713   1.233  14.236  12.638
57098W        W28714  32.912  13.337  12.173
57099W        W28715  18.160   4.502   3.729
57100W        W28716  19.674  11.272  10.627
57101W        W28717   0.428  21.028  10.066
57102W        W28718  40.264  23.551   3.252
57103W        W28719  30.570  30.358  14.980
57104W        W28720   8.304  25.202  14.490
57105W        W28721  29.148  32.587   1.840
57106W        W28722  28.977   2.913   0.294
57107W        W28723  42.069  16.772   2.741
57108W        W28724  25.312  36.911   0.364
57109W        W28725  10.423   9.203   2.327
57110W        W28726   1.508  30.147  12.579
57111W        W28727   6.904  32.678   2.922
57112W        W28728  28.378  36.655   4.510
57113W        W28729  12.286  28.611   1.120
57114W        W28730  17.560  26.746   1.136
57115W        W28731   4.667  29.072   4.029
57116W        W28732  31.860  36.839   0.973
57117W        W28733  17.935  18.760  11.018
57118W        W28734   0.338  43.911  12.094
57119W        W28735  27.693   3.711   4.664
57120W        W28736  35.972   2.385  12.062
57121W        W28737   6.394   2.994  13.861
57122W        W28738   7.880   1.494  14.435
57123W        W28739  23.832  30.412  12.135
57124W        W28740  17.063  34.328   3.116
57125W        W28741   4.691  23.593   0.967
57126W        W28742  20.231  19.261  11.642
57127W        W28743  17.528  30.332   3.785
57128W        W28744  42.268  30.769  13.897
57129W        W28745  34.326   3.435  10.686
57130W        W28746  27.636  29.330  14.773
57131W        W28747  11.437  25.946   4.183
57132W        W28748  25.458  44.068   5.095
57133W        W28749  35.669   0.622  10.653
57134W        W28750  18.321  40.349  14.525
57135W        W28751  30.455  15.058  11.988
57136W        W28752  35.405  21.473  10.534
57137W        W28753  27.704  35.107  13.430
57138W        W28754  39.291  20.241   0.537
57139W        W28755  22.608   4.946   0.254
57140W        W28756  15.628  33.318   1.808
57141W        W28757  21.027  33.138  13.614
57142W        W28758  24.295  20.616   2.354
57143W        W28759  33.257  40.473   4.068
57144W        W28760  37.620   2.754   3.141
57145W        W28761   6.812  10.525   0.787
57146W        W28762  35.038   2.805   1.410
57147W        W28763  20.302  24.441   4.866
57148W        W28764  16.105  28.405  14.883
57149W        W28765  25.564  24.127   0.079
57150W        W28766  25.930  37.448   3.130
57151W        W28767  15.520  16.651   0.338
57152W        W28768  43.939  44.277   3.668
57153W        W28769  37.879  37.608   3.188
57154W        W28770   6.819  41.926   4.081
57155W        W28771   3.222  40.268   0.372
57156W        W28772   8.755  34.045   1.754
57157W        W28773  10.399   2.385   2.204
57158W        W28774  38.040  24.732   4.752
57159W        W28775   4.938  32.564  10.506
57160W        W28776  17.634  23.625   0.030
57161W        W28777  22.080  35.133   4.807
57162W        W28778  16.034  25.604  13.798
57163W        W28779  26.977  17.111   4.677
57164W        W28780   0.002  22.374   4.665
57165W        W28781  16.193  35.840  13.826
57166W        W28782  18.817  33.931  11.564
57167W        W28783  23.587   6.994   0.277
57168W        W28784   5.940  39.346  12.234
57169W        W28785  37.023  30.607   4.913
57170W        W28786  18.680   0.509   2.202
57171W        W28787  26.545  29.576   2.897
57172W        W28788   9.740  23.497  12.404
57173W        W28789  22.824  41.524  11.573
57174W        W28790  22.999  35.329   1.232
57175W        W28791  23.635  28.497  13.329
57176W        W28792  20.136  24.111   4.108
57177W        W28793  32.061  19.181   1.803
57178W        W28794  38.782  13.508   4.159
57179W        W28795  11.053  42.159   3.783
57180W        W28796  41.426  20.968   9.942
57181W        W28797   4.639   9.769  11.215
57182W        W28798  44.851  31.377  12.934
57183W        W28799  27.544  25.614   2.931
57184W        W28800  40.246   0.446   4.543
57185W        W28801  22.683  44.264   1.431
57186W        W28802  18.847  16.241   4.020
57187W        W28803  17.676  27.899   0.837
57188W        W28804   7.534  27.240  14.693
57189W        W28805  13.734   0.829  13.918
57190W        W28806  25.806  34.194  10.786
57191W        W28807  26.594  22.841   2.278
57192W        W28808  16.090   3.274   3.891
57193W        W28809  36.043   1.940  10.523
57194W        W28810  16.225   4.825  12.904
57195W        W28811  26.712  36.934   4.941
57196W        W28812   9.538   9.182   0.710
57197W        W28813   0.663  28.203   4.129
57198W        W28814  21.097   2.199   0.449
57199W        W28815   4.987   0.452   4.224
57200W        W28816   9.656  11.863  14.881
57201W        W28817  42.922  37.492   4.347
57202W        W28818   2.382  43.484  11.558
57203W        W28819  29.292  38.571  14.325
57204W        W28820  27.389  27.000  11.584
57205W        W28821  35.425  37.447  12.123
57206W        W28822  16.534  38.807   2.679
57207W        W28823   5.246  30.100  14.813
57208W        W28824  40.527  43.371   4.820
57209W        W28825  25.173  30.724   2.982
57210W        W28826   4.454   0.228   3.379
57211W        W28827  37.515   2.869  14.734
57212W        W28828   4.799  44.812  13.539
57213W        W28829   5.392   4.658  10.869
57214W        W28830  25.119  40.106  13.483
57215W        W28831  26.645  18.031  11.727
57216W        W28832   4.677  38.734   5.215
57217W        W28833  38.469  10.858  10.643
57218W        W28834  24.442   3.692   1.267
57219W        W28835  37.032  20.987  13.057
57220W        W28836  27.574  26.039  12.890
57221W        W28837   9.325  28.696   1.368
57222W        W28838  42.556  24.246  14.331
57223W        W28839   4.675   6.769  13.146
57224W        W28840   7.427  35.341   1.491
57225W        W28841  27.052  44.577  12.067
57226W        W28842  39.947   7.447  13.392
57227W        W28843   4.356   2.956   2.285
57228W        W28844  15.166   9.661   1.538
57229W        W28845  29.391  12.565   0.805
57230W        W28846  17.452  24.162   2.361
57231W        W28847   2.173  26.951   4.205
57232W        W28848  35.756  13.040  14.762
57233W        W28849   5.686  12.560  11.069
57234W        W28850  43.362  37.889  13.579
57235W        W28851  34.470  23.562   1.826
57236W        W28852  32.325  27.274  14.880
57237W        W28853   9.658  16.445   4.710
57238W        W28854   5.772  21.395   1.172
57239W        W28855  36.562  40.479   1.403
57240W        W28856  14.267   2.359  14.306
57241W        W28857  35.842   5.028  11.410
57242W        W28858  19.113   1.647   0.390
57243W        W28859  39.671  34.101   0.784
57244W        W28860  11.987   7.192   3.261
57245W        W28861  16.987   0.777   0.748
57246W        W28862  42.829  11.333   3.310
57247W        W28863  37.945  43.008  10.975
57248W        W28864   1.950  35.949   3.311
57249W        W28865  15.154  12.139  14.748
57250W        W28866  20.992  22.401   4.953
57251W        W28867   6.858  12.896  13.378
57252W        W28868  15.785  38.272   3.689
57253W        W28869  23.596  36.537  14.255
57254W        W28870   6.195  23.323   4.044
57255W        W28871  31.601  14.112  12.059
57256W        W28872  18.829  34.042   0.721
57257W        W28873  43.380  26.497   3.196
57258W        W28874  18.836  35.998   0.855
57259W        W28875  32.395  21.685   1.456
57260W        W28876  32.788   9.756   0.372
57261W        W28877  39.454  24.737  14.995
57262W        W28878  31.249  29.456  12.239
57263W        W28879  38.392  40.487  12.446
57264W        W28880  23.758  34.320  12.011
57265W        W28881  22.820  42.215  13.928
57266W        W28882   7.645  44.850   3.719
57267W        W28883  40.442  25.431  11.775
57268W        W28884   0.753  11.303  12.238
57269W        W28885  42.796  20.028   0.017
57270W        W28886  37.013   8.435   1.708
57271W        W28887  19.120  40.411   2.839
57272W        W28888  11.923  13.792  13.864
57273W        W28889  16.230   3.385  14.402
57274W        W28890  22.623   2.444   4.413
57275W        W28891  24.815  12.661  14.522
57276W        W28892  18.757  27.614   4.170
57277W        W28893  25.157  13.324   0.535
57278W        W28894   9.333  15.601  14.028
57279W        W28895  35.653   3.780   0.954
57280W        W28896  39.899  44.384  10.667
57281W        W28897  23.806   7.433   3.493
57282W        W28898  21.822  26.384  12.852
57283W        W28899   3.947   9.264  13.825
57284W        W28900   9.406   3.863   0.849
57285W        W28901  29.750  38.925  14.585
57286W        W28902  25.279   2.829   2.870
57287W        W28903  30.012  32.821  13.806
57288W        W28904  42.308  21.527   1.797
57289W        W28905  34.232   9.435  12.057
57290W        W28906  21.907  40.572  11.373
57291W        W28907  28.991  23.244  11.150
57292W        W28908  36.980  28.067  13.294
57293W        W28909   7.806   7.647   0.539
57294W        W28910  37.463  31.644   2.145
57295W        W28911  17.709  17.808  10.014
57296W        W28912   2.606  13.490  11.175
57297W        W28913   3.538  22.494  10.233
57298W        W28914  40.033  44.884  14.914
57299W        W28915  29.521  30.226   5.461
57300W        W28916  40.175   5.023   1.835
57301W        W28917  41.635  10.902   0.431
57302W        W28918  43.103  42.424  14.852
57303W        W28919  21.682  10.444  13.904
57304W        W28920   3.730  16.689   3.624
57305W        W28921   7.317  13.099  13.567
57306W        W28922  43.372  43.752  12.974
57307W        W28923  27.701  34.768  11.479
57308W        W28924  44.401  36.756  11.501
57309W        W28925  33.797  39.520  14.647
57310W        W28926   4.519  12.265  11.987
57311W        W28927   6.803  15.844  13.781
57312W        W28928  21.216  27.667   2.300
57313W        W28929  36.069  13.272   1.735
57314W        W28930  35.157   2.209   4.531
57315W        W28931   2.342  23.006   4.542
57316W        W28932  12.137  30.412   4.256
57317W        W28933  14.261  44.998   3.172
57318W        W28934  22.977  35.371  12.333
57319W        W28935  39.122  41.500   3.696
57320W        W28936  39.090   3.083   4.355
57321W        W28937   6.567   6.823   2.662
57322W        W28938  20.638  34.129   3.155
57323W        W28939  20.264  20.660   3.372
57324W        W28940  15.650  33.515  12.468
57325W        W28941  28.151  42.882  13.983
57326W        W28942  19.209   5.316  11.117
57327W        W28943   6.138  35.771  12.893
57328W        W28944   6.513   5.326   2.952
57329W        W28945  25.033  19.788   3.676
57330W        W28946  22.900  35.641   2.321
57331W        W28947  23.957  11.037   2.259
57332W        W28948  18.161  40.997   4.099
57333W        W28949   7.047  29.313   1.270
57334W        W28950  16.206  26.149   0.538
57335W        W28951  37.563  44.000  10.790
57336W        W28952  33.957  32.234   0.373
57337W        W28953  43.515   8.091  12.509
57338W        W28954  21.934   7.150   1.786
57339W        W28955  37.983  16.600  13.647
57340W        W28956   7.811  44.349  13.872
57341W        W28957  23.988  13.847  14.305
57342W        W28958  18.602  33.508   2.818
57343W        W28959  35.450  16.224   4.389
57344W        W28960  25.485  38.199   3.685
57345W        W28961   1.505  20.464   3.708
57346W        W28962  33.455   1.702   5.567
57347W        W28963   0.567  38.169   1.854
57348W        W28964  16.733  21.450  11.773
57349W        W28965  10.885  27.173  11.252
57350W        W28966  43.968  12.095  11.977
57351W        W28967  11.259   8.361  13.145
57352W        W28968  41.810  22.017  12.572
57353W        W28969  22.122  20.952   0.819
57354W        W28970   7.318  30.177   1.677
57355W        W28971  42.854  36.558  11.531
57356W        W28972  13.952  30.021  11.049
57357W        W28973   5.860   0.729  13.131
57358W        W28974  22.785  11.353   1.751
57359W        W28975  28.929   3.556  12.566
57360W        W28976  14.275  41.892   1.379
57361W        W28977  23.288  33.031  11.006
57362W        W28978   7.354  36.268   1.602
57363W        W28979  19.118  22.750  13.468
57364W        W28980  31.924  17.545  13.343
57365W        W28981  10.784   5.560   1.188
57366W        W28982  29.870  37.408  13.572
57367W        W28983  13.299  17.593  14.326
57368W        W28984  41.867  25.383   0.301
57369W        W28985  12.613   8.849   2.345
57370W        W28986  27.550  17.838  14.799
57371W        W28987   1.020   8.896   0.224
57372W        W28988  15.585  38.497  10.452
57373W        W28989  38.084  17.377  13.716
57374W        W28990   3.712  34.974   3.289
57375W        W28991  42.546   6.274   1.467
57376W        W28992  13.229   0.584   1.180
57377W        W28993  21.577  17.117  13.415
57378W        W28994  17.029  20.025   4.134
57379W        W28995  13.352  34.416   1.910
57380W        W28996  36.521  26.021   4.675
57381W        W28997  30.432  13.673  13.267
57382W        W28998  39.055  27.496  10.166
57383W        W28999  29.096  38.439   4.797
57384W        W29000   6.744  35.336  13.394
57385W        W29001  28.898  27.074   1.832
57386W        W29002  14.013  38.919  13.372
57387W        W29003  43.905  34.679  13.074
57388W        W29004   5.108  37.380   3.246
57389W        W29005  23.435  35.960  13.976
57390W        W29006  36.926  42.773  13.672
57391W        W29007  42.307  27.127   1.909
57392W        W29008  13.296   9.216  11.538
57393W        W29009  11.179  13.230   0.356
57394W        W29010  27.424  14.817   4.807
57395W        W29011  16.686  32.264   0.339
57396W        W29012  16.890  30.010  12.085
57397W        W29013  41.061  35.890  12.480
57398W        W29014  18.289  42.962  12.571
57399W        W29015  37.009  16.827  10.668
57400W        W29016  23.418  34.597  14.843
57401W        W29017  12.947  42.042   0.262
57402W        W29018  23.887  18.164  13.679
57403W        W29019   6.216  14.129  12.527
57404W        W29020   7.411  30.082   2.190
57405W        W29021  34.884  14.146   2.663
57406W        W29022  26.189  43.045  14.951
57407W        W29023  35.323   9.040   2.672
57408W        W29024  13.080  14.698  12.881
57409W        W29025  43.916  11.730   1.254
57410W        W29026  13.277  44.465  13.104
57411W        W29027  29.771  25.112   0.343
57412W        W29028  19.787  26.449   0.857
57413W        W29029  41.301  25.995   3.838
57414W        W29030  25.246  23.026  10.553
57415W        W29031  27.856  36.401  12.422
57416W        W29032   6.994  30.153  11.078
57417W        W29033   6.060  19.311  12.131
57418W        W29034   9.639  25.552   0.273
57419W        W29035  42.010   7.746   4.032
57420W        W29036  40.424   9.326   4.262
57421W        W29037  17.099  25.650   0.218
57422W        W29038  39.354  41.562  13.657
57423W        W29039  25.764  28.880   2.789
57424W        W29040   0.829   7.223  11.554
57425W        W29041   6.343  25.195   3.410
57426W        W29042  17.666  19.509  11.802
57427W        W29043  27.019  39.387   1.603
57428W        W29044  40.038  36.617   1.441
57429W        W29045  13.434   2.738  12.934
57430W        W29046  21.202  36.946  13.080
57431W        W29047  35.030  26.744   1.697
57432W        W29048  41.810  19.709  14.330
57433W        W29049  12.367  33.756   2.123
57434W        W29050   1.941  31.577   3.359
57435W        W29051  40.963   6.893   0.924
57436W        W29052  32.570  36.575   3.292
57437W        W29053  17.909  15.004  13.493
57438W        W29054  39.874  40.328  11.715
57439W        W29055   1.390   4.331  11.596
57440W        W29056  38.026   1.817   2.750
57441W        W29057  28.026  25.753   4.729
57442W        W29058  43.569  37.694  11.938
57443W        W29059   3.804   1.212  11.528
57444W        W29060  14.722  36.178   4.725
57445W        W29061   1.426  36.668  14.003
57446W        W29062  33.464   6.008   2.863
57447W        W29063   2.400  27.877  12.868
57448W        W29064  21.697  31.580   1.275
57449W        W29065  29.931  24.218  13.525
57450W        W29066   3.419  11.777   1.867
57451W        W29067  20.695   3.453   3.302
57452W        W29068  34.386  44.565   2.648
57453W        W29069  21.765   5.333  11.848
57454W        W29070  36.490  37.090   3.151
57455W        W29071  12.209   1.918   0.790
57456W        W29072  25.541  26.015   1.344
57457W        W29073  16.107   7.236   1.444
57458W        W29074  16.828  43.421  13.731
57459W        W29075  12.096  27.924  14.308
57460W        W29076  25.441  24.082   1.478
57461W        W29077   7.844  38.830  13.379
57462W        W29078   3.320  44.548   2.837
57463W        W29079  34.059   6.470  10.236
57464W        W29080  20.636  27.427   4.656
57465W        W29081   0.568  17.188   4.863
57466W        W29082   1.944   6.133   2.373
57467W        W29083  15.558  17.481  12.910
57468W        W29084  24.175  31.879   2.791
57469W        W29085  35.895  40.319  10.666
57470W        W29086   3.584  14.466  14.786
57471W        W29087  27.505  19.014   0.956
57472W        W29088  16.133  35.484   4.111
57473W        W29089  40.545  43.720  10.681
57474W        W29090  21.653   1.559   4.348
57475W        W29091  28.292  13.683  10.552
57476W        W29092  35.874  23.039  13.605
57477W        W29093   6.373  39.518   4.369
57478W        W29094  41.491  17.669  13.762
57479W        W29095  10.270  23.647   3.947
57480W        W29096  41.957  18.500   3.709
57481W        W29097  17.879  25.064  12.444
57482W        W29098   9.296  44.957   2.694
57483W        W29099   9.361  16.381   4.225
57484W        W29100  23.060  15.796  13.189
57485W        W29101  23.754  43.037   0.892
57486W        W29102  11.625  18.897   4.218
57487W        W29103  11.770  25.759  12.440
57488W        W29104  24.206  20.050  14.587
57489W        W29105   2.896  11.109   3.263
57490W        W29106  16.093  32.001  14.044
57491W        W29107  42.953  43.796  11.557
57492W        W29108   2.666   5.790   0.708
57493W        W29109  20.100   2.962   0.100
57494W        W29110  39.525  29.896   2.760
57495W        W29111  20.158  12.882  10.721
57496W        W29112  12.557   5.932  14.947
57497W        W29113  38.375  16.530  12.686
57498W        W29114  23.474  44.373  12.857
57499W        W29115  43.317  27.152   4.427
57500W        W29116  18.046  38.368  10.900
57501W        W29117  37.453  24.136   3.368
57502W        W29118  30.576  10.235  12.262
57503W        W29119   5.819  37.379  10.514
57504W        W29120  27.481  26.696  10.727
57505W        W29121  36.925  40.155   2.782
57506W        W29122   8.138   4.266  11.100
57507W        W29123  18.127   2.393  14.005
57508W        W29124  41.275  26.577  14.246
57509W        W29125  28.110  10.369   1.310
57510W        W29126  42.173  14.213   2.645
57511W        W29127  33.472  14.739   3.777
57512W        W29128  34.405  41.928  10.827
57513W        W29129  11.083  41.608  12.892
57514W        W29130  16.551   2.213   0.760
57515W        W29131  30.379  17.084   0.768
57516W        W29132  36.889  21.991   3.471
57517W        W29133  15.043   9.968   1.154
57518W        W29134  36.844  28.162  11.651
57519W        W29135  17.999  44.548  10.247
57520W        W29136   9.763   2.078   1.356
57521W        W29137  10.268  28.730   2.380
57522W        W29138  44.880  23.240   0.731
57523W        W29139  18.063  10.737   4.508
57524W        W29140  40.124  23.031  14.749
57525W        W29141  18.105  17.769   2.213
57526W        W29142  23.454  36.866   3.379
57527W        W29143  38.504  23.624   3.369
57528W        W29144   3.522  29.655  14.290
57529W        W29145  15.594   7.220   1.424
57530W        W29146   8.128  14.603  13.611
57531W        W29147   7.405  33.533   3.367
57532W        W29148  14.390  38.163   4.657
57533W        W29149   3.244   7.353   2.546
57534W        W29150  11.342  41.024   4.218
57535W        W29151  25.954  15.277   2.189
57536W        W29152  40.491  29.960   1.904
57537W        W29153   3.352   6.834   3.816
57538W        W29154  12.228  18.757   2.767
57539W        W29155   7.161  24.622  13.825
57540W        W29156  13.751  16.682   2.898
57541W        W29157  15.010  37.423  14.424
57542W        W29158  20.403  40.030  11.643
57543W        W29159   0.503  40.414  12.899
57544W        W29160  36.676  32.441  10.787
57545W        W29161  42.920  11.652  11.929
57546W        W29162  34.904  41.818   1.936
57547W        W29163  33.966  29.612   3.187
57548W        W29164  26.937  13.196  12.934
57549W        W29165  38.819  41.485  10.501
57550W        W29166  27.967   8.757   2.956
57551W        W29167  42.081  18.273  13.549
57552W        W29168  21.788   2.481   3.385
57553W        W29169  17.702  20.797   1.836
57554W        W29170  14.205   4.947  11.533
57555W        W29171  19.660  16.553  13.939
57556W        W29172  30.626  37.379  12.944
57557W        W29173  40.576  27.363  11.616
57558W        W29174  26.483  35.495  10.841
57559W        W29175  14.487  21.030  13.027
57560W        W29176  36.889  20.070   2.900
57561W        W29177   8.898   1.235   2.788
57562W        W29178  15.250   1.317  11.532
57563W        W29179  33.419   0.069  11.570
57564W        W29180  42.789  26.892   4.598
57565W        W29181  21.237  15.331   0.930
57566W        W29182  26.688  26.782   1.456
57567W        W29183  39.788  44.060   4.641
57568W        W29184  42.871   7.001  11.890
57569W        W29185  24.114   5.931   2.806
57570W        W29186  35.928   4.466   4.590
57571W        W29187  12.101  38.791  14.727
57572W        W29188  14.647   6.375   4.389
57573W        W29189  30.933  43.334   3.128
57574W        W29190  12.672  20.727   3.122
57575W        W29191  28.475  16.857  13.506
57576W        W29192  15.334  34.425  11.485
57577W        W29193  35.521  17.975   1.912
57578W        W29194   8.899  36.309   4.659
57579W        W29195  43.527  34.475   2.203
57580W        W29196  27.534  28.436   1.377
57581W        W29197  15.679   8.764  12.465
57582W        W29198  41.823  32.147   3.179
57583W        W29199   1.253  30.073  14.436
57584W        W29200   9.877  40.447  13.394
57585W        W29201   5.289  38.276   0.538
57586W        W29202  39.107  18.833   9.785
57587W        W29203   4.428  25.451   0.691
57588W        W29204   6.702  28.604   2.446
57589W        W29205   4.399  34.347  14.996
57590W        W29206  15.850  44.118  10.221
57591W        W29207   9.081   0.518   1.568
57592W        W29208  14.794  28.045  11.709
57593W        W29209  13.373  22.669   5.276
57594W        W29210  37.818  40.415  13.809
57595W        W29211   7.481   7.356   2.746
57596W        W29212  12.234  40.351   3.384
57597W        W29213  37.077  44.918   0.396
57598W        W29214  10.768  37.554  10.768
57599W        W29215  43.395   5.421   0.738
57600W        W29216   8.877  42.406  11.995
57601W        W29217  42.476  26.904   3.307
57602W        W29218  25.656  38.969   3.338
57603W        W29219   6.002  26.337  10.692
57604W        W29220  26.155  43.108  11.374
57605W        W29221  25.238  30.859  14.806
57606W        W29222  12.720  27.663   0.986
57607W        W29223   4.675  18.141  10.983
57608W        W29224   2.330  21.110   3.896
57609W        W29225  25.666  31.053   4.238
57610W        W29226  12.376  34.098   1.730
57611W        W29227  37.365  23.111  11.071
57612W        W29228   0.170   1.462  10.585
57613W        W29229  19.908   0.319  12.586
57614W        W29230  16.661  12.755  13.413
57615W        W29231  28.751  11.348   1.815
57616W        W29232  24.224   1.429  11.528
57617W        W29233  41.797  28.673  12.198
57618W        W29234  22.403  16.300  10.897
57619W        W29235   6.377  32.291  11.601
57620W        W29236  28.477   6.375  10.400
57621W        W29237   5.263  14.334   0.481
57622W        W29238   0.225  35.847  10.601
57623W        W29239  36.300  21.563  13.148
57624W        W29240  29.465  29.929  11.437
57625W        W29241  21.050  27.980   1.386
57626W        W29242  13.918  29.106   1.295
57627W        W29243  16.704  42.063  13.932
57628W        W29244  17.080  28.844   4.080
57629W        W29245  25.532  26.119  12.349
57630W        W29246  29.072  41.882  10.787
57631W        W29247  11.138  10.910  13.459
57632W        W29248  11.404   8.486   1.413
57633W        W29249  37.780  30.395   2.201
57634W        W29250  18.325  36.417   1.357
57635W        W29251  37.653  37.267   4.077
57636W        W29252  13.355   5.181   1.851
57637W        W29253  28.682  37.987  11.900
57638W        W29254  25.172  11.783  14.494
57639W        W29255  41.565  33.551   1.133
57640W        W29256   8.759   2.711  14.025
57641W        W29257  34.423  11.588  11.072
57642W        W29258  29.494   7.059  14.594
57643W        W29259  31.711  17.516  14.870
57644W        W29260   6.812  26.639  10.943
57645W        W29261  44.405  15.026  10.434
57646W        W29262  16.525   8.330   1.357
57647W        W29263  42.714  18.277   1.892
57648W        W29264  30.179  23.845  13.223
57649W        W29265  26.308  23.176  14.028
57650W        W29266  20.632  36.629   4.402
57651W        W29267  34.897  23.243  12.007
57652W        W29268   6.690  28.587   0.667
57653W        W29269  33.363   2.859   3.851
57654W        W29270  30.707  17.745   1.579
57655W        W29271  20.260  35.913   1.421
57656W        W29272  13.616   0.303  13.039
57657W        W29273  44.005  22.282   2.166
57658W        W29274   2.695  27.532   3.695
57659W        W29275   3.008  29.605   4.544
57660W        W29276  20.510   4.302  10.656
57661W        W29277   4.888   6.007   0.500
57662W        W29278  13.445  35.829  13.169
57663W        W29279  32.186   3.325   4.023
57664W        W29280  24.204  43.930   3.222
57665W        W29281  36.526  29.501   4.565
57666W        W29282   3.188  41.481   2.641
57667W        W29283  38.004  18.813   0.992
57668W        W29284  39.025  41.972  10.610
57669W        W29285   6.824   9.343   4.091
57670W        W29286  16.752  15.332  10.501
57671W        W29287  35.129   1.023  11.582
57672W        W29288  26.606  33.161  13.366
57673W        W29289  21.662   1.992   5.083
57674W        W29290  41.959  38.114   2.360
57675W        W29291  14.423  13.208  14.605
57676W        W29292  30.611  39.904  13.463
57677W        W29293   4.206   0.826  12.699
57678W        W29294  20.046  43.072  12.231
57679W        W29295  18.021  39.568   4.513
57680W        W29296  31.510  40.382   2.759
57681W        W29297  43.788  39.651  13.496
57682W        W29298   9.802  35.103   3.573
57683W        W29299   6.542  13.132  11.096
57684W        W29300   4.276  15.850  11.061
57685W        W29301  24.021   7.932  12.584
57686W        W29302  16.004   4.999  11.545
57687W        W29303   4.126   0.100   0.387
57688W        W29304  34.072  35.647   3.133
57689W        W29305  25.116   2.549   0.910
57690W        W29306  17.557  25.603   4.469
57691W        W29307   4.269  31.349   1.301
57692W        W29308  22.835  20.746  14.343
57693W        W29309  23.057  38.391   1.775
57694W        W29310  41.440  37.037  11.151
57695W        W29311  18.499  20.921   3.238
57696W        W29312  19.606  36.623   2.815
57697W        W29313  29.547   6.657  14.919
57698W        W29314   9.203  35.088   4.854
57699W        W29315  12.872  21.589  14.891
57700W        W29316  37.379  29.459  14.735
57701W        W29317  37.100  23.376   4.613
57702W        W29318   9.180  22.760   4.966
57703W        W29319  37.862   9.848   5.021
57704W        W29320  13.290  36.784   2.143
57705W        W29321  11.628  13.865   0.256
57706W        W29322  24.084   1.927  12.251
57707W        W29323   3.294  27.142   1.735
57708W        W29324  19.629  31.165   2.704
57709W        W29325  17.683  43.743   3.319
57710W        W29326  41.452  33.975  14.628
57711W        W29327  16.552  25.629  14.466
57712W        W29328  16.373  39.064   2.251
57713W        W29329  33.463  12.832   9.952
57714W        W29330  28.411   9.421  13.851
57715W        W29331  33.144  26.650  12.972
57716W        W29332  19.794  25.197   1.082
57717W        W29333  27.202   7.681   2.121
57718W        W29334   7.462  38.569   4.704
57719W        W29335  21.522   4.678  14.472
57720W        W29336  26.483   8.571   0.321
57721W        W29337   0.967  35.298   4.074
57722W        W29338  20.661  18.957  11.546
57723W        W29339  10.536  21.853  10.010
57724W        W29340  16.597  43.794   4.645
57725W        W29341  17.230  11.129   2.362
57726W        W29342  14.253  28.960   3.297
57727W        W29343  37.154  28.817  13.947
57728W        W29344  31.952   7.119  12.841
57729W        W29345  42.991   0.728   1.394
57730W        W29346  14.848  33.452   1.335
57731W        W29347  38.476  20.500   2.267
57732W        W29348  16.993  43.651  12.472
57733W        W29349  24.473   8.870   2.348
57734W        W29350   5.269   9.840  10.590
57735W        W29351  42.745  18.200  12.149
57736W        W29352  34.135  16.139  11.929
57737W        W29353  39.335  18.504   1.862
57738W        W29354  17.166  25.128  11.301
57739W        W29355  29.272   9.239   4.827
57740W        W29356   4.729  26.591  13.065
57741W        W29357  37.509   1.361   2.627
57742W        W29358  21.760  39.445   3.035
57743W        W29359   8.216  31.386   1.883
57744W        W29360  30.126  23.175  11.158
57745W        W29361  41.672  21.808  12.046
57746W        W29362  12.735  37.090  10.850
57747W        W29363  37.003   4.326   1.913
57748W        W29364  13.068   0.825   2.803
57749W        W29365   5.387  39.946   1.266
57750W        W29366  16.594  17.082   4.106
57751W        W29367  25.383  34.531  14.790
57752W        W29368  28.025   2.284  14.024
57753W        W29369  36.041  29.570  14.895
57754W        W29370  33.980   8.392  11.623
57755W        W29371   8.812  38.916   0.378
57756W        W29372   0.130  22.595   0.990
57757W        W29373   9.550  31.504  14.666
57758W        W29374  28.904   6.633  14.369
57759W        W29375  25.664  35.009   0.379
57760W        W29376  11.795  24.175  12.258
57761W        W29377  33.494   2.741   4.854
57762W        W29378  40.549   9.433  12.428
57763W        W29379  38.893   1.324   4.887
57764W        W29380  26.683  42.710   0.829
57765W        W29381  17.149  35.011  14.346
57766W        W29382  30.078   9.111  12.930
57767W        W29383  37.437   8.971  10.548
57768W        W29384  12.845  20.265   3.314
57769W        W29385  17.629   8.712   2.685
57770W        W29386  25.208  44.747   3.913
57771W        W29387   5.951  40.801   1.138
57772W        W29388  38.041  26.037   1.252
57773W        W29389  20.019  10.911  10.590
57774W        W29390  21.692   4.881   0.431
57775W        W29391  28.424  32.947   0.724
57776W        W29392  16.770   2.657   0.951
57777W        W29393  26.234  34.485   0.895
57778W        W29394  22.697  30.512   4.627
57779W        W29395   8.202  21.314  14.046
57780W        W29396  26.443  24.020  11.113
57781W        W29397  43.107   8.162  11.126
57782W        W29398  34.176  27.345  11.100
57783W        W29399  25.125  37.912   2.370
57784W        W29400   6.142  41.814   1.210
57785W        W29401  27.170   0.796   2.222
57786W        W29402  28.230  14.842  11.917
57787W        W29403   0.269  26.822   4.183
57788W        W29404  19.209  36.619  13.900
57789W        W29405  29.946  25.524  14.008
57790W        W29406  42.027   0.547   2.730
57791W        W29407   9.252  35.095   4.346
57792W        W29408  35.079  27.030   1.241
57793W        W29409   8.961  25.325  13.774
57794W        W29410  28.036  33.528   1.476
57795W        W29411  11.034  23.926   3.727
57796W        W29412  27.448  44.789   0.410
57797W        W29413  39.162  11.985   0.739
57798W        W29414  42.568   3.805  14.491
57799W        W29415  34.399  11.747   4.629
57800W        W29416  42.430  24.088  12.580
57801W        W29417  27.873  22.524   4.164
57802W        W29418  38.026   3.737   0.911
57803W        W29419   6.367  41.905   4.352
57804W        W29420   1.932  34.366  13.164
57805W        W29421  13.802  29.895   2.773
57806W        W29422  19.858   0.685  11.007
57807W        W29423  36.601  14.054  10.031
57808W        W29424   0.325   6.677  10.924
57809W        W29425   9.833  20.046   4.158
57810W        W29426  22.506  17.614   1.724
57811W        W29427   2.502  12.604   1.278
57812W        W29428  33.124  24.477   4.121
57813W        W29429  26.092  44.108  13.873
57814W        W29430   4.851  39.847  11.639
57815W        W29431  36.576  13.049  13.323
57816W        W29432   8.374  26.157  14.521
57817W        W29433  37.382  27.533  10.690
57818W        W29434  40.474  41.369  10.446
57819W        W29435  32.319  28.481  13.671
57820W        W29436   0.805  42.311  11.489
57821W        W29437  34.480   5.811  11.123
57822W        W29438  36.512   2.462  11.014
57823W        W29439   7.860  15.798  13.914
57824W        W29440  19.408  31.090  10.701
57825W        W29441  37.651  25.635  12.246
57826W        W29442  36.936  25.135  12.649
57827W        W29443  38.843  21.244   4.046
57828W        W29444  32.199  18.246   2.987
57829W        W29445  41.343  24.175  13.429
57830W        W29446  25.198  30.824   4.260
57831W        W29447  44.269  33.933   0.098
57832W        W29448  30.038  39.132  14.979
57833W        W29449  26.819  40.504  12.466
57834W        W29450  25.919  41.597  10.980
57835W        W29451   5.381  16.662  13.726
57836W        W29452  24.770   4.270  13.926
57837W        W29453  22.266  19.099   0.610
57838W        W29454  13.500   9.371   3.376
57839W        W29455  32.336  29.925  11.564
57840W        W29456  30.674  20.791   1.163
57841W        W29457  10.670  33.918  12.520
57842W        W29458  34.148  35.905   3.557
57843W        W29459  33.522  25.172   3.651
57844W        W29460   7.641  25.119   2.344
57845W        W29461  30.494  17.336   2.696
57846W        W29462  38.484   9.671  12.399
57847W        W29463   7.111  36.040   3.215
57848W        W29464  15.354  31.856   2.159
57849W        W29465  19.200  43.297   3.309
57850W        W29466  18.848  23.189  11.080
57851W        W29467  16.732  40.745   4.633
57852W        W29468  15.804  14.771  11.067
57853W        W29469   3.135  28.311  14.138
57854W        W29470  10.166  33.703   3.729
57855W        W29471  26.641  29.991   2.174
57856W        W29472  11.136   4.083  10.526
57857W        W29473  11.907   7.059  12.561
57858W        W29474  35.629  17.602   0.946
57859W        W29475  28.470  24.734  14.009
57860W        W29476  24.315  18.416  13.936
57861W        W29477  20.843   6.834  10.477
57862W        W29478  11.136  40.258   3.184
57863W        W29479   5.379   8.715   3.180
57864W        W29480   3.011  33.704   0.950
57865W        W29481  22.987  19.664  14.784
57866W        W29482  21.450   6.420   2.849
57867W        W29483  16.275  33.821   3.780
57868W        W29484  16.122  34.594   3.287
57869W        W29485  34.780  32.347  11.008
57870W        W29486  22.019  44.312  13.805
57871W        W29487  36.532  17.755  12.441
57872W        W29488  33.153   7.733   0.459
57873W        W29489  29.707  27.266  11.553
57874W        W29490   4.250   5.321  12.671
57875W        W29491  10.764  42.002  10.566
57876W        W29492  13.636  25.887  11.395
57877W        W29493  38.940  29.026  12.536
57878W        W29494  25.635   0.565   5.254
57879W        W29495  34.754  43.258  12.057
57880W        W29496  11.734   7.783   3.889
57881W        W29497  15.058  17.749   4.564
57882W        W29498  33.066  42.362   3.494
57883W        W29499  41.803   5.718  12.374
57884W        W29500  33.565   3.570   0.265
57885W        W29501  13.308  20.263  14.713
57886W        W29502  10.092  26.234   0.912
57887W        W29503  15.246  11.193   3.401
57888W        W29504  38.133  24.720  13.354
57889W        W29505  44.058   3.205   4.102
57890W        W29506  33.928   8.793  10.398
57891W        W29507  25.258  10.418  14.866
57892W        W29508  28.956  17.118  11.867
57893W        W29509  11.757  18.915  12.362
57894W        W29510  28.742  19.197  11.361
57895W        W29511  10.677   9.916   4.198
57896W        W29512  33.004  14.362  14.367
57897W        W29513   5.677  23.739   2.789
57898W        W29514  15.215   9.199   3.730
57899W        W29515  31.013   7.927   0.803
57900W        W29516   6.299  33.124   2.908
57901W        W29517  42.847  10.992   2.881
57902W        W29518   4.448  27.729  10.613
57903W        W29519  25.069  26.063   0.363
57904W        W29520  14.133  12.186  13.128
57905W        W29521   9.211  16.124   4.662
57906W        W29522  36.596  25.793  12.496
57907W        W29523  17.234  12.354   3.671
57908W        W29524  17.313  38.838   3.339
57909W        W29525  42.363  23.582  12.406
57910W        W29526  36.458  14.132   5.254
57911W        W29527   2.338  22.545   2.305
57912W        W29528  10.294  27.630   1.412
57913W        W29529  39.464  35.082  11.177
57914W        W29530  11.617   4.877   3.144
57915W        W29531  40.502  15.473   2.277
57916W        W29532  21.487  12.833   1.793
57917W        W29533   5.531   4.654  11.459
57918W        W29534   9.151   3.870  11.578
57919W        W29535   9.171   5.839  13.490
57920W        W29536  28.878  24.054  11.886
57921W        W29537  43.378  41.949  13.503
57922W        W29538   1.315  23.057  13.162
57923W        W29539   2.565  17.618  13.626
57924W        W29540   5.220  41.198   1.830
57925W        W29541  20.684  20.557   1.724
57926W        W29542  34.519  43.286   4.316
57927W        W29543   7.384  33.667  14.409
57928W        W29544   0.995  27.659   4.494
57929W        W29545  25.675  35.080  14.868
57930W        W29546  42.837   8.260   0.503
57931W        W29547  37.992  41.060   1.361
57932W        W29548  33.183   6.233  10.635
57933W        W29549  21.551  40.900  12.662
57934W        W29550  27.504  28.922  13.807
57935W        W29551  40.589  10.720   0.208
57936W        W29552  15.846  34.111   1.297
57937W        W29553   2.715  15.385   1.282
57938W        W29554   6.418  42.430   1.959
57939W        W29555  19.944  15.641   1.087
57940W        W29556  32.260  26.245   1.359
57941W        W29557  30.740   2.949  10.481
57942W        W29558   5.863   8.895  11.650
57943W        W29559  43.401  20.253  10.636
57944W        W29560  14.375  26.089  12.014
57945W        W29561  11.541  24.013  11.332
57946W        W29562  40.357  38.572  10.885
57947W        W29563   7.361  27.584   2.312
57948W        W29564  18.767  33.853  12.398
57949W        W29565  12.679   2.555  12.551
57950W        W29566  15.950  21.687  12.203
57951W        W29567   3.369   5.872   4.535
57952W        W29568  11.108  25.741   4.526
57953W        W29569   6.341  22.128  12.006
57954W        W29570   4.820  30.555   1.803
57955W        W29571   0.521  24.182   5.468
57956W        W29572  28.594  13.368  14.513
57957W        W29573  19.329  37.496  12.531
57958W        W29574   2.436  31.473   3.246
57959W        W29575  43.307  10.870   0.662
57960W        W29576  34.191   2.251  13.690
57961W        W29577  21.224   5.964  10.967
57962W        W29578  25.336   7.459   2.702
57963W        W29579  40.508  14.722   4.420
57964W        W29580  30.520   7.443   4.229
57965W        W29581   5.431  37.193   2.809
57966W        W29582  42.669   2.060  14.826
57967W        W29583   2.919  20.225   1.702
57968W        W29584  41.877  29.084  11.929
57969W        W29585  22.945  31.670  13.941
57970W        W29586   7.637   8.680  12.608
57971W        W29587  25.110   8.171   1.268
57972W        W29588  29.207  19.654  12.488
57973W        W29589  30.463  23.277   1.365
57974W        W29590  26.155  36.295  14.493
57975W        W29591  25.673  20.683   4.288
57976W        W29592   8.305  20.951   3.751
57977W        W29593  29.437   5.918  12.127
57978W        W29594   5.022  26.440   4.990
57979W        W29595  21.083   8.661   2.630
57980W        W29596   6.786  36.370   0.897
57981W        W29597  42.497  33.960   0.834
57982W        W29598  22.072   8.182  12.413
57983W        W29599  33.459   1.336   4.242
57984W        W29600  38.522  17.591  10.801
57985W        W29601  22.465   8.644  10.770
57986W        W29602  26.776  27.461  10.647
57987W        W29603   9.206  28.055   2.523
57988W        W29604  12.228  44.946  11.775
57989W        W29605  37.326  26.909   0.049
57990W        W29606  10.538   4.313  14.591
57991W        W29607   4.001  17.836   1.789
57992W        W29608  23.994  17.569  10.615
57993W        W29609  20.731  35.457   1.860
57994W        W29610  10.640  33.527  11.078
57995W        W29611  38.571  40.189  13.446
57996W        W29612  21.183  37.166   4.985
57997W        W29613  22.807  19.360  10.587
57998W        W29614  30.409  15.355   1.273
57999W        W29615   4.372   8.388   4.481
58000W        W29616   5.886  44.970   4.161
58001W        W29617  42.846  19.991  14.497
58002W        W29618  19.271  41.246   4.905
58003W        W29619  27.885  16.701  14.283
58004W        W29620  10.280  10.318  12.873
58005W        W29621  13.837   1.749   3.399
58006W        W29622  41.462  35.079  13.419
58007W        W29623  30.908  23.480  11.585
58008W        W29624  38.422  16.665  10.768
58009W        W29625  27.919  32.580   2.908
58010W        W29626   5.905   2.677  11.700
58011W        W29627  18.702  17.289   2.701
58012W        W29628  17.976  26.002  14.877
58013W        W29629  35.833   9.232  14.905
58014W        W29630  12.293  14.146   3.786
58015W        W29631  28.451  34.868   1.387
58016W        W29632  13.757  41.025   4.881
58017W        W29633  25.731  13.259  13.576
58018W        W29634  14.978   1.557  11.164
58019W        W29635   7.384  41.482  12.418
58020W        W29636  35.859  39.166   1.334
58021W        W29637  43.930  14.237  10.402
58022W        W29638  30.370   3.262  14.360
58023W        W29639  43.550  15.712  13.939
58024W        W29640  21.157   8.976   0.735
58025W        W29641  37.969   1.721  13.610
58026W        W29642  19.541  38.658   3.609
58027W        W29643   2.788  22.837  14.467
58028W        W29644   4.464  39.403   1.724
58029W        W29645   6.697  24.650   1.866
58030W        W29646  37.559  22.723   0.520
58031W        W29647  44.417  32.339  14.669
58032W        W29648  30.344  17.207  11.196
58033W        W29649  35.733  35.587   2.779
58034W        W29650   3.791  32.335  12.377
58035W        W29651  15.583  20.868  11.278
58036W        W29652  21.943   9.414   3.262
58037W        W29653  11.120   9.682  13.109
58038W        W29654  21.806  38.359  13.535
58039W        W29655  39.012  14.832   2.674
58040W        W29656  34.590   6.131   1.378
58041W        W29657  12.610   7.778  12.401
58042W        W29658  14.191  25.520  14.101
58043W        W29659  10.891  13.344   3.172
58044W        W29660  33.040  28.953  10.542
58045W        W29661  16.441  31.000   0.208
58046W        W29662   3.788  19.932  12.465
58047W        W29663  33.509  37.102  13.392
58048W        W29664  28.177  27.437  14.204
58049W        W29665  27.064  41.136  14.814
58050W        W29666   4.202   9.625  11.500
58051W        W29667  43.806  34.296  11.852
58052W        W29668  44.810  24.764   0.841
58053W        W29669   4.949  21.295  14.578
58054W        W29670   5.750  38.836  14.343
58055W        W29671   2.925  20.345   0.728
58056W        W29672  31.202  43.482   4.121
58057W        W29673  33.571  14.719  14.804
58058W        W29674  12.668   7.720   1.486
58059W        W29675  18.643  29.964  12.572
58060W        W29676  31.983   4.684  12.420
58061W        W29677   2.156  15.322   1.192
58062W        W29678  30.902   1.301  10.681
58063W        W29679  14.566  18.768  11.477
58064W        W29680  29.044  26.614  12.629
58065W        W29681  42.275  14.171   3.650
58066W        W29682  32.611  39.099  12.402
58067W        W29683  21.534   2.484   0.500
58068W        W29684  44.983  34.000  14.938
58069W        W29685  44.439   5.247  13.073
58070W        W29686  16.463  18.667   0.293
58071W        W29687  38.535   5.398   3.635
58072W        W29688  34.872  15.374  11.134
58073W        W29689  18.640  37.161  12.112
58074W        W29690  30.541  30.701   0.712
58075W        W29691   7.105  39.967   3.928
58076W        W29692  39.421  18.016   3.766
58077W        W29693  23.466  43.937   4.681
58078W        W29694   9.179   0.518  14.253
58079W        W29695  36.144   5.806   3.542
58080W        W29696  25.223  16.244   4.667
58081W        W29697   0.469  22.579  11.874
58082W        W29698  30.078   2.614  12.936
58083W        W29699  14.671  22.062   1.331
58084W        W29700  32.772  16.761  14.310
58085W        W29701   6.579   0.634   1.769
58086W        W29702  36.941  39.944  11.858
58087W        W29703   5.851  43.500   3.569
58088W        W29704  18.982  34.930   2.989
58089W        W29705  28.555  40.236   2.069
58090W        W29706  23.629   6.960   2.407
58091W        W29707  44.910  17.693   0.217
58092W        W29708   3.694  32.390   1.816
58093W        W29709   6.300  12.737  13.530
58094W        W29710  35.346  16.203   2.560
58095W        W29711  12.090  44.573   4.167
58096W        W29712  36.093  23.577   3.875
58097W        W29713  27.855   1.760  13.975
58098W        W29714   9.133  23.106   2.767
58099W        W29715  43.341  23.029   0.826
58100W        W29716   9.371  18.166   4.215
58101W        W29717   6.659  13.230   1.801
58102W        W29718   8.785  36.224   3.059
58103W        W29719   2.141   1.731  11.989
58104W        W29720  25.128  24.891   1.373
58105W        W29721  15.243  40.303   1.864
58106W        W29722  22.072  38.613  11.830
58107W        W29723  10.645  28.048   2.736
58108W        W29724  25.195  16.029  10.800
58109W        W29725  10.163  33.573  14.475
58110W        W29726  41.644  41.298   1.296
58111W        W29727  20.093  31.954  11.683
58112W        W29728   6.396  39.205  14.955
58113W        W29729   7.790  18.774   1.478
58114W        W29730  21.520  27.995   0.599
58115W        W29731  42.687  24.936   1.468
58116W        W29732  18.078   8.322  10.760
58117W        W29733   2.836   2.691  13.400
58118W        W29734  18.792   4.417   0.854
58119W        W29735  27.580  29.881   4.462
58120W        W29736  30.655  23.042  10.909
58121W        W29737  34.364  10.691  13.512
58122W        W29738  19.778  19.498   1.877
58123W        W29739  24.630  17.669  14.182
58124W        W29740  18.571  29.972   1.380
58125W        W29741  34.809   6.835   3.144
58126W        W29742  20.764  27.262   3.715
58127W        W29743   3.242  19.630   3.159
58128W        W29744   6.013  37.891   0.858
58129W        W29745  10.322  21.711  10.630
58130W        W29746  32.094  32.349   3.646
58131W        W29747   4.770   4.454   4.086
58132W        W29748  34.130  26.377  14.567
58133W        W29749  16.824  16.223  12.541
58134W        W29750   7.921  43.000  12.047
58135W        W29751  22.522   3.245   2.166
58136W        W29752  22.265  28.622  10.695
58137W        W29753  39.917   1.773   4.242
58138W        W29754   1.291  33.028   2.418
58139W        W29755  23.653  35.864  11.199
58140W        W29756  22.522  34.068  12.469
58141W        W29757   7.323   5.050   4.175
58142W        W29758  30.201  31.598  11.206
58143W        W29759  29.484  25.018   5.085
58144W        W29760   8.793  28.595  10.850
58145W        W29761  26.631  20.288   2.125
58146W        W29762  40.752  20.866  13.530
58147W        W29763  36.892  16.244  13.804
58148W        W29764  31.440  27.875  11.773
58149W        W29765  44.769  12.782  14.349
58150W        W29766  14.312  43.967   3.107
58151W        W29767  13.648   4.189   0.854
58152W        W29768  26.767   9.395  12.129
58153W        W29769  41.898  42.941  14.815
58154W        W29770   9.310  34.937  12.023
58155W        W29771  12.872  34.428   2.262
58156W        W29772  12.532   1.873   0.355
58157W        W29773  21.348   1.486   0.679
58158W        W29774   3.734  15.745   4.174
58159W        W29775  17.742  26.563  13.858
58160W        W29776  20.512   2.011   2.391
58161W        W29777  19.586  26.260  14.093
58162W        W29778  28.639  10.605   2.342
58163W        W29779  41.004  38.916   3.351
58164W        W29780  16.101  19.620   0.059
58165W        W29781  29.390  38.613   2.909
58166W        W29782  26.252  14.291  12.197
58167W        W29783   5.858  10.254   4.928
58168W        W29784  12.114  39.392  11.211
58169W        W29785   5.629  43.957   3.714
58170W        W29786  44.433  27.450   4.622
58171W        W29787   9.233  32.351  10.692
58172W        W29788  24.692  26.432   1.288
58173W        W29789  35.884  29.829  12.018
58174W        W29790   9.307   9.174  12.018
58175W        W29791  29.782  28.390   1.152
58176W        W29792  15.431   7.246   4.895
58177W        W29793  41.030   6.300   4.808
58178W        W29794   1.482   4.036   4.165
58179W        W29795  15.763  25.434   1.297
58180W        W29796  31.203  42.438  14.457
58181W        W29797  36.916  16.221   0.213
58182W        W29798  39.328  31.549   4.636
58183W        W29799   5.885  23.741   4.191
58184W        W29800  22.691  33.653  14.201
58185W        W29801  20.256  24.121  11.909
58186W        W29802  42.777  16.656  13.946
58187W        W29803  20.753  34.245   2.643
58188W        W29804  31.253  22.188   3.052
58189W        W29805   9.755  31.881  11.271
58190W        W29806   0.156  29.101   2.665
58191W        W29807  42.565  42.223  12.018
58192W        W29808   6.517  13.651  11.019
58193W        W29809  12.258  13.175   3.153
58194W        W29810  29.245  31.852  11.631
58195W        W29811   7.251  24.021   3.385
58196W        W29812  30.792  16.825  13.452
58197W        W29813  15.732  13.599   1.846
58198W        W29814  43.249  20.161  13.246
58199W        W29815  31.911   7.364  11.550
58200W        W29816  14.336   6.723   1.360
58201W        W29817  10.345   4.733  13.003
58202W        W29818   2.701  37.064   1.135
58203W        W29819  42.571  44.812   0.276
58204W        W29820  43.281  15.663  10.671
58205W        W29821  33.357  17.666  13.423
58206W        W29822  43.123  25.310  10.607
58207W        W29823  26.547   2.839   4.960
58208W        W29824  25.337   8.252   4.558
58209W        W29825  12.571  22.013  14.755
58210W        W29826   5.900  41.901   1.731
58211W        W29827  27.221  20.777  14.291
58212W        W29828  24.711  16.122   1.038
58213W        W29829   9.823  11.353  14.928
58214W        W29830  28.930  30.447   2.260
58215W        W29831  37.070  37.666   0.265
58216W        W29832   9.174  15.640   4.472
58217W        W29833  33.654  16.571  14.586
58218W        W29834  11.652   5.940  14.297
58219W        W29835  38.671  11.379   4.617
58220W        W29836  17.557  38.970  13.339
58221W        W29837  38.891   3.079  10.597
58222W        W29838   0.699  13.800  14.902
58223W        W29839   7.212  20.744   1.230
58224W        W29840  17.558  12.619   3.191
58225W        W29841  14.807   0.910  10.613
58226W        W29842  19.134   5.188  12.140
58227W        W29843   5.488  12.667   3.333
58228W        W29844  42.308   8.257   3.257
58229W        W29845  41.224  38.035  12.858
58230W        W29846  24.593  13.962   0.857
58231W        W29847   4.288   1.620  10.524
58232W        W29848  40.526   0.525   0.046
58233W        W29849  10.870  31.151  14.096
58234W        W29850  25.735   1.451   0.963
58235W        W29851  11.115  16.013  11.971
58236W        W29852   8.915   3.462  12.365
58237W        W29853  18.738   0.514  12.146
58238W        W29854  25.250  38.958  14.212
58239W        W29855  23.458   1.727   3.748
58240W        W29856   9.846  20.280  13.910
58241W        W29857  37.639  25.251  10.601
58242W        W29858  29.400  34.716   1.907
58243W        W29859  24.588  24.595   1.335
58244W        W29860  37.402   3.308  14.475
58245W        W29861  12.639  21.276  13.945
58246W        W29862  43.568  11.694  14.737
58247W        W29863  28.423  36.663   2.816
58248W        W29864  13.184   7.305  14.809
58249W        W29865  35.880  34.851   2.160
58250W        W29866  33.040   7.331  12.340
58251W        W29867  36.964   1.316   1.203
58252W        W29868  42.710  35.083  10.105
58253W        W29869  10.280  43.049  11.935
58254W        W29870  31.655  36.886  14.100
58255W        W29871  12.262  28.403  14.490
58256W        W29872  35.840  13.800  13.964
58257W        W29873  29.625  24.555  14.888
58258W        W29874  18.671  13.295  13.088
58259W        W29875  26.557  36.431   1.798
58260W        W29876  29.892  41.248  12.511
58261W        W29877  33.025  32.661  11.956
58262W        W29878  28.775  25.687  11.617
58263W        W29879  31.897  10.878  14.367
58264W        W29880  39.811  13.417  12.862
58265W        W29881  10.833  25.740   1.187
58266W        W29882  39.388  19.530   4.655
58267W        W29883   8.923  44.741  14.935
58268W        W29884  27.228  36.852  14.294
58269W        W29885   1.075  44.791   1.472
58270W        W29886   4.275  12.781   1.975
58271W        W29887   5.499   2.966  11.569
58272W        W29888   4.214  20.032   2.810
58273W        W29889  41.507  42.869  10.326
58274W        W29890  27.626   0.264   2.757
58275W        W29891  22.589  38.062   0.537
58276W        W29892  18.964  30.639  13.859
58277W        W29893   8.598  39.612   1.470
58278W        W29894  31.024  37.381   3.148
58279W        W29895   5.929  26.499   1.957
58280W        W29896  10.286   7.318  14.600
58281W        W29897  16.986  29.643  14.442
58282W        W29898  11.422   8.670  11.797
58283W        W29899  39.573  25.519  12.487
58284W        W29900  26.696  14.040  12.297
58285W        W29901  28.957  41.993  13.527
58286W        W29902  35.520  44.721   4.820
58287W        W29903  33.638  43.384   4.882
58288W        W29904  16.738  38.976  13.886
58289W        W29905  22.059  14.189  11.465
58290W        W29906  41.483  29.559   2.697
58291W        W29907   2.779  39.209  14.012
58292W        W29908  42.522  11.263  14.993
58293W        W29909   6.343  21.699   0.447
58294W        W29910  22.920  31.893  10.495
58295W        W29911  10.034  24.702  13.522
58296W        W29912  14.781  35.101   3.637
58297W        W29913  28.674   5.802  11.663
58298W        W29914  20.971  34.503   3.326
58299W        W29915  30.600  38.383   3.513
58300W        W29916  24.049  35.365   0.488
58301W        W29917  33.589  37.628   1.900
58302W        W29918  22.896  18.026  12.036
58303W        W29919  27.879  40.347   4.551
58304W        W29920  42.884   6.781   3.818
58305W        W29921  19.342  18.684   3.790
58306W        W29922  15.518  22.142   3.162
58307W        W29923  37.977  10.825  10.775
58308W        W29924  44.955  31.938   0.365
58309W        W29925  29.133  31.065  12.524
58310W        W29926  34.212  20.724  14.630
58311W        W29927  26.646   3.194   3.753
58312W        W29928   6.180  11.150   1.774
58313W        W29929  32.202   0.472   4.657
58314W        W29930   8.317  22.665   1.548
58315W        W29931  13.150  27.695  14.122
58316W        W29932  28.671  20.164  12.888
58317W        W29933  42.746  39.175   1.236
58318W        W29934  18.747  25.163  14.682
58319W        W29935  44.871  35.852   0.230
58320W        W29936  25.364  29.667  13.871
58321W        W29937   1.003  37.880   1.803
58322W        W29938  31.231  26.067   1.248
58323W        W29939  34.447   2.160   3.209
58324W        W29940  21.358  42.338  11.586
58325W        W29941  41.209  44.837   3.643
58326W        W29942  20.738  28.406  10.501
58327W        W29943  20.128  43.513   0.425
58328W        W29944  14.239  38.019  12.190
58329W        W29945  32.448   8.795  11.736
58330W        W29946   6.477  14.770   4.147
58331W        W29947  13.401  24.123  13.029
58332W        W29948   9.007   7.306   4.310
58333W        W29949  24.419  11.762  11.691
58334W        W29950   5.179   0.983   4.970
58335W        W29951  36.331  33.605   1.935
58336W        W29952   3.080  27.477   2.708
58337W        W29953  28.943   4.856  10.540
58338W        W29954  33.010  28.071  14.667
58339W        W29955   7.405  29.161   4.132
58340W        W29956  38.888  41.844  14.870
58341W        W29957  22.528  12.129   3.324
58342W        W29958  27.871  16.988   9.758
58343W        W29959  36.960  34.021   2.765
58344W        W29960  24.212  32.193   5.029
58345W        W29961  24.980  37.850  14.490
58346W        W29962  11.184   4.685  11.106
58347W        W29963  15.821  37.362  14.822
58348W        W29964  44.482  13.764   2.731
58349W        W29965  27.437  14.419   4.256
58350W        W29966  26.566  33.973   5.070
58351W        W29967  22.827  29.373   3.213
58352W        W29968  39.966  11.902  11.948
58353W        W29969   9.374  22.444   0.368
58354W        W29970  31.598  19.805   1.978
58355W        W29971  14.874  32.972  10.638
58356W        W29972  44.730  31.958  10.652
58357W        W29973  37.530  15.529   2.931
58358W        W29974  13.806  38.794   3.793
58359W        W29975  21.693   0.508   2.291
58360W        W29976  17.977  25.446   4.131
58361W        W29977   2.183  15.576   1.975
58362W        W29978  36.529  43.943   1.398
58363W        W29979   1.307  20.504  12.893
58364W        W29980   8.335   9.725  11.383
58365W        W29981  37.034  23.537   1.327
58366W        W29982  30.312  10.682  12.954
58367W        W29983  16.405  23.582   3.764
58368W        W29984  13.608  12.128   0.041
58369W        W29985   2.157  43.304   4.103
58370W        W29986  15.710  24.102   0.933
58371W        W29987  36.495  27.355   0.078
58372W        W29988  27.732  11.168   3.634
58373W        W29989  21.981   4.904   3.556
58374W        W29990  40.954  40.031  10.669
58375W        W29991   5.101  30.974   4.722
58376W        W29992  25.715  21.429   1.269
58377W        W29993  13.698  10.693  12.034
58378W        W29994  44.401   7.877   3.729
58379W        W29995  39.435  11.449   1.339
58380W        W29996  35.066  41.902   0.475
58381W        W29997  34.885  15.840  12.530
58382W        W29998   4.958  36.207  13.443
58383W        W29999   7.012  28.657  13.904
58384W        W30000  11.435  26.816   1.980
58385W        W30001   4.352   5.151   1.472
58386W        W30002  16.192   4.237   4.557
58387W        W30003  30.362  24.438   2.345
58388W        W30004  23.662   7.418  12.908
58389W        W30005  14.372  12.801  11.639
58390W        W30006   3.469  35.079   4.608
58391W        W30007  18.256   9.053  14.349
58392W        W30008   0.108  29.955   4.136
58393W        W30009  12.070  31.086   4.572
58394W        W30010  31.937  40.311   0.759
58395W        W30011  39.846  43.714   3.661
58396W        W30012   8.244  21.367  12.512
58397W        W30013  42.742  34.991   5.084
58398W        W30014  39.050  32.905  13.813
58399W        W30015  44.808  10.149  13.030
58400W        W30016  44.130  41.331   1.202
58401W        W30017   1.395   5.638  12.363
58402W        W30018  36.729  10.459  12.838
58403W        W30019  40.403  28.442   2.381
58404W        W30020   0.659  36.002   9.861
58405W        W30021   6.160   9.423  12.484
58406W        W30022  16.762  40.888  14.373
58407W        W30023  33.104  15.623  13.888
58408W        W30024  18.590  30.927   4.583
58409W        W30025  36.355  23.671   2.576
58410W        W30026  41.034  39.844   3.648
58411W        W30027  16.635  29.237  10.972
58412W        W30028  28.585  32.976   2.433
58413W        W30029  12.673   4.157  13.377
58414W        W30030  27.233   0.556  14.890
58415W        W30031  17.477  10.672   2.379
58416W        W30032   1.956   3.229  13.565
58417W        W30033  16.019  42.330   9.708
58418W        W30034  18.626  30.841  13.508
58419W        W30035  26.427  40.302  13.784
58420W        W30036  34.872   7.238   0.355
58421W        W30037  38.311   7.707  14.995
58422W        W30038  28.475  33.121   1.927
58423W        W30039  12.247   7.948   3.753
58424W        W30040   5.753  16.909  11.126
58425W        W30041  36.858  23.674  12.286
58426W        W30042  18.277  21.571   4.082
58427W        W30043  42.823  20.198  11.679
58428W        W30044  11.177  32.605   0.486
58429W        W30045   4.264   3.548   4.469
58430W        W30046  18.691   8.759  14.408
58431W        W30047  29.205   3.355   0.495
58432W        W30048  38.633  36.400  12.967
58433W        W30049  30.016  22.155  14.207
58434W        W30050  23.279  40.457  13.492
58435W        W30051  31.580   3.284   1.156
58436W        W30052  32.101  23.625   2.849
58437W        W30053  20.072  32.190   2.327
58438W        W30054   2.256   2.144   2.388
58439W        W30055  38.185  40.901  11.793
58440W        W30056   6.276  16.653   1.964
58441W        W30057   2.191  17.794  10.755
58442W        W30058  13.589  27.433   3.697
58443W        W30059  35.311  42.109  11.080
58444W        W30060  14.548   6.040  11.054
58445W        W30061  32.087  42.445   3.474
58446W        W30062   0.156  14.892  13.370
58447W        W30063  14.908  28.821   1.419
58448W        W30064  44.428  39.613   0.252
58449W        W30065  15.075  23.477   4.947
58450W        W30066   6.384  28.541  12.040
58451W        W30067  43.331  20.634  12.484
58452W        W30068  41.517  12.655  13.812
58453W        W30069  21.208  32.703  11.287
58454W        W30070  31.585  21.497  13.199
58455W        W30071  31.074   0.769  14.045
58456W        W30072  18.461  41.274   2.100
58457W        W30073  43.214  26.625   1.737
58458W        W30074  11.540  21.681   0.412
58459W        W30075  41.288  12.877   1.260
58460W        W30076  13.349  34.359   0.984
58461W        W30077   8.336  26.608  13.392
58462W        W30078  31.738  32.896  13.588
58463W        W30079  19.642  43.795   0.861
58464W        W30080  33.436  39.336  14.269
58465W        W30081  24.907  11.760   1.896
58466W        W30082  37.372  42.341   4.649
58467W        W30083  21.158  30.864  10.482
58468W        W30084   6.005  14.478   2.137
58469W        W30085  39.407  42.010  12.365
58470W        W30086  44.052  37.762   2.067
58471W        W30087  29.478  20.691  11.374
58472W        W30088  39.909  36.441   0.613
58473W        W30089  21.143   8.430  12.454
58474W        W30090   8.403  28.561  11.173
58475W        W30091  25.620   0.720  13.823
58476W        W30092  20.170  36.364   2.069
58477W        W30093   7.855  26.103  13.118
58478W        W30094  12.199  14.884   4.652
58479W        W30095  12.377  21.856  14.311
58480W        W30096  24.538  14.733   4.627
58481W        W30097  24.150  44.344   0.305
58482W        W30098  19.201  15.046   0.021
58483W        W30099   7.158  29.471   2.279
58484W        W30100  13.384   9.515   1.342
58485W        W30101   4.629   8.557  12.931
58486W        W30102  32.005  28.316   2.955
58487W        W30103  27.103  43.791  14.930
58488W        W30104  31.129  28.524   2.752
58489W        W30105  19.066  20.652  14.854
58490W        W30106  29.454  40.923   1.279
58491W        W30107  31.536  13.532  12.016
58492W        W30108  10.412  11.721   3.280
58493W        W30109  22.260  17.688  12.526
58494W        W30110   8.420  33.982  11.965
58495W        W30111   1.709  39.498   0.351
58496W        W30112  26.423  35.162   2.335
58497W        W30113   0.182  33.736  10.479
58498W        W30114  16.030  11.608   3.194
58499W        W30115  16.750  36.642   3.633
58500W        W30116  24.053   6.988   3.611
58501W        W30117   8.322  11.179   3.850
58502W        W30118  22.562   9.287   1.369
58503W        W30119   2.436  38.849   5.118
58504W        W30120  42.530  22.485   3.187
58505W        W30121   0.481  28.931   0.411
58506W        W30122  14.294  34.944   2.852
58507W        W30123  12.169  19.242  14.481
58508W        W30124   4.958  29.185  10.617
58509W        W30125  38.570  20.061  11.131
58510W        W30126  27.495  41.027   3.238
58511W        W30127   9.764  44.450   3.628
58512W        W30128  24.662  15.059  13.952
58513W        W30129  22.492  33.384  11.190
58514W        W30130   4.695   9.143  14.799
58515W        W30131  18.742  36.084   1.376
58516W        W30132  38.039  14.844  13.566
58517W        W30133  32.114   3.015   0.334
58518W        W30134  18.371  39.900  11.529
58519W        W30135  11.631  37.885  13.852
58520W        W30136   7.236  23.511   1.813
58521W        W30137  39.850   5.284   0.733
58522W        W30138  38.219   6.311  13.903
58523W        W30139  13.445  14.325  10.116
58524W        W30140  19.216  43.945  11.506
58525W        W30141  23.613  41.988  14.472
58526W        W30142  25.687  26.700  10.975
58527W        W30143   9.320  26.934   0.913
58528W        W30144   2.122  21.058  13.950
58529W        W30145  29.092  28.571  14.493
58530W        W30146  20.710  28.638   4.150
58531W        W30147  23.742  40.194  13.499
58532W        W30148  34.934   2.333   3.212
58533W        W30149  33.444  18.738  11.299
58534W        W30150  36.184  38.027   0.698
58535W        W30151  35.055  38.789  12.920
58536W        W30152   4.865  30.881   0.857
58537W        W30153  27.922  26.095   3.426
58538W        W30154  36.633  32.913  11.619
58539W        W30155  37.935  10.154   3.221
58540W        W30156  42.437   2.759  11.239
58541W        W30157   9.281   9.366  14.071
58542W        W30158  22.697  19.280   0.414
58543W        W30159  20.107  43.590   3.360
58544W        W30160  24.117  37.320  11.580
58545W        W30161  27.468  21.632   3.795
58546W        W30162  20.730  27.246   2.904
58547W        W30163  16.681  26.040  13.915
58548W        W30164  28.056  34.322   1.925
58549W        W30165  13.662  42.216   1.217
58550W        W30166  18.264  10.634   0.321
58551W        W30167  21.514  40.430   0.869
58552W        W30168   8.723  29.793  12.095
58553W        W30169  23.223   3.464   2.622
58554W        W30170  41.745  28.453   4.632
58555W        W30171  39.351   4.673   1.451
58556W        W30172   0.806  23.565  13.797
58557W        W30173  12.130   2.785   0.726
58558W        W30174   6.192   4.981   2.760
58559W        W30175  26.845  10.651   3.724
58560W        W30176   1.176  11.209  14.382
58561W        W30177  42.858   5.963  14.049
58562W        W30178   0.930  25.609  10.734
58563W        W30179  28.456  10.702   4.537
58564W        W30180  17.647  19.684   3.280
58565W        W30181   6.894   1.203  14.378
58566W        W30182  17.601  29.473   2.802
58567W        W30183  31.278  14.194  12.442
58568W        W30184  40.556  44.238  12.022
58569W        W30185   6.747  19.205  14.089
58570W        W30186   3.865  23.044  11.595
58571W        W30187  22.418  23.445  13.233
58572W        W30188   4.329  33.317  13.456
58573W        W30189  10.074  13.816  12.309
58574W        W30190  29.679  41.376   1.472
58575W        W30191   6.777  19.318   3.720
58576W        W30192   1.316  10.842  12.070
58577W        W30193  17.847   2.436   3.923
58578W        W30194  17.846  26.673   4.139
58579W        W30195  40.340  11.278   1.695
58580W        W30196  10.261  31.639  12.910
58581W        W30197   8.379  30.448   3.312
58582W        W30198  43.902   2.231  13.322
58583W        W30199  28.993  32.944  10.484
58584W        W30200  33.873  38.127   2.290
58585W        W30201  22.653   1.987  14.903
58586W        W30202   1.324   8.608   3.702
58587W        W30203   3.824  22.032   4.488
58588W        W30204  39.004  13.538  14.713
58589W        W30205  21.246  23.644  14.516
58590W        W30206  26.302  24.385  12.023
58591W        W30207  20.167   3.043  13.643
58592W        W30208  26.041  15.713  12.449
58593W        W30209   0.705  16.238   4.690
58594W        W30210  31.686   5.317   4.558
58595W        W30211  39.568  35.810   1.206
58596W        W30212  43.323  15.716   1.682
58597W        W30213  27.191   2.216  11.691
58598W        W30214  43.537   9.275  12.098
58599W        W30215  18.615   2.225  14.181
58600W        W30216  16.701   4.914  12.775
58601W        W30217  36.701  17.835   2.261
58602W        W30218  15.990  21.621   3.761
58603W        W30219  19.898  25.200   0.523
58604W        W30220  11.387  42.770  11.289
58605W        W30221  16.208  28.194  14.026
58606W        W30222  11.670  41.476  12.609
58607W        W30223  16.493  24.621  14.447
58608W        W30224  25.045  43.434  14.463
58609W        W30225  12.630  31.896  12.140
58610W        W30226  41.737   5.520   3.013
58611W        W30227  29.574  12.750  14.656
58612W        W30228  10.087  18.114   1.523
58613W        W30229   2.972  41.763  12.545
58614W        W30230  14.061  20.175  11.906
58615W        W30231   3.548  21.523  13.360
58616W        W30232  24.668  30.360  11.411
58617W        W30233  38.695  43.597  14.893
58618W        W30234  28.639  18.827  13.122
58619W        W30235  26.884   5.738   2.071
58620W        W30236  17.187  11.887   2.782
58621W        W30237  29.215   3.340   2.501
58622W        W30238  18.759  11.408   0.373
58623W        W30239   0.543   0.309  12.269
58624W        W30240  38.486  40.548  13.873
58625W        W30241  28.669  23.894   0.265
58626W        W30242  35.998  37.101   4.403
58627W        W30243   2.846  22.662  10.711
58628W        W30244   7.918  16.258   3.980
58629W        W30245  25.653  39.022  10.217
58630W        W30246  38.870  29.878   4.190
58631W        W30247  13.902  31.618   2.132
58632W        W30248  15.238  40.569   4.734
58633W        W30249  35.834  41.357   1.695
58634W        W30250  42.267  18.686  12.411
58635W        W30251  39.442   2.969  12.168
58636W        W30252  20.133  32.805   4.467
58637W        W30253  28.549  43.754  14.771
58638W        W30254   5.765   6.775   2.192
58639W        W30255  17.481  34.837  13.965
58640W        W30256  37.166  12.822  14.358
58641W        W30257  24.233  30.522  14.814
58642W        W30258  28.353   9.564   3.719
58643W        W30259  12.344  29.398  11.085
58644W        W30260  29.718  38.326   4.107
58645W        W30261   7.280  36.608  13.357
58646W        W30262   0.653  16.510  13.454
58647W        W30263  40.113  36.863   2.767
58648W        W30264   7.251  36.570   0.110
58649W        W30265  23.633  39.746  14.887
58650W        W30266  40.715  34.345  12.062
58651W        W30267  22.994  41.566  14.967
58652W        W30268  30.946  37.552  14.768
58653W        W30269   1.199  25.448   4.684
58654W        W30270   8.985  43.072   4.041
58655W        W30271  27.166   8.621  12.012
58656W        W30272  21.099   3.377   4.073
58657W        W30273   3.963  24.480   5.049
58658W        W30274  30.649  32.887  14.566
58659W        W30275  28.551  23.218  10.888
58660W        W30276  38.935  14.814   3.914
58661W        W30277  26.652   7.412   2.815
58662W        W30278  35.869  21.529  12.021
58663W        W30279  22.519  40.554  11.574
58664W        W30280  12.875   6.442   9.734
58665W        W30281  17.109  40.695   1.412
58666W        W30282  16.066  10.714  12.632
58667W        W30283  20.267  28.495  10.707
58668W        W30284  42.960  24.767   2.868
58669W        W30285   6.236   4.525  13.976
58670W        W30286  38.184  32.289  12.660
58671W        W30287  32.403  13.694   4.638
58672W        W30288  33.336  21.095   3.132
58673W        W30289  19.176  39.769  13.476
58674W        W30290  41.493  31.582  14.436
58675W        W30291  41.406  41.185   0.834
58676W        W30292  43.727  20.117   2.130
58677W        W30293  20.264   6.738  11.233
58678W        W30294  26.374  35.093  12.961
58679W        W30295   3.305  18.529   2.831
58680W        W30296  36.832  39.033  14.277
58681W        W30297  19.188   0.043  11.091
58682W        W30298  27.418   7.902   1.685
58683W        W30299  36.069  10.850  13.900
58684W        W30300   8.945  19.724  13.573
58685W        W30301  23.706   0.869  14.297
58686W        W30302  10.337  20.500   4.497
58687W        W30303  39.993  13.156  13.241
58688W        W30304  13.820   1.972  14.744
58689W        W30305  11.213   5.495  10.745
58690W        W30306  18.918  29.401  12.656
58691W        W30307  33.352   9.167   2.796
58692W        W30308   6.924  29.184   4.265
58693W        W30309   3.244   7.598  12.963
58694W        W30310   3.746  44.026  13.464
58695W        W30311   5.270  30.006  10.657
58696W        W30312  30.728  23.670   2.170
58697W        W30313  22.498  17.528   4.988
58698W        W30314  30.999  40.598   3.963
58699W        W30315   2.965  18.191   0.999
58700W        W30316  40.436  23.786   1.390
58701W        W30317  18.477   6.688  11.893
58702W        W30318   3.492  33.036   2.202
58703W        W30319   3.641  37.583   2.849
58704W        W30320  23.114  26.223   2.296
58705W        W30321   0.440   3.376  11.449
58706W        W30322   4.715  21.719   2.142
58707W        W30323  31.936  44.927  13.850
58708W        W30324   2.950  44.351   0.097
58709W        W30325   9.128  37.507  12.744
58710W        W30326  26.105  40.408   4.323
58711W        W30327  18.380  28.379  13.304
58712W        W30328  14.051  17.047  14.302
58713W        W30329   4.378   1.822  11.071
58714W        W30330  20.592  16.677   4.070
58715W        W30331  32.329  31.947   2.764
58716W        W30332  20.955  34.083  14.345
58717W        W30333  19.331  44.709   1.391
58718W        W30334  17.403  19.130  14.566
58719W        W30335  30.177   5.607  12.860
58720W        W30336  21.426   4.006  12.011
58721W        W30337  14.378   7.119  12.471
58722W        W30338  36.575  24.988   4.599
58723W        W30339   8.696  22.280  13.407
58724W        W30340  27.752  32.682   3.782
58725W        W30341  28.949   8.176  11.085
58726W        W30342  16.072  36.897   3.977
58727W        W30343  39.226  29.756   4.564
58728W        W30344  43.530   9.652  12.975
58729W        W30345  15.635   2.387   1.919
58730W        W30346  25.712  34.369   0.853
58731W        W30347  30.598  40.400  10.781
58732W        W30348  40.362  25.103  10.840
58733W        W30349  29.345  10.974  12.827
58734W        W30350  44.410   7.575  10.712
58735W        W30351  43.174  38.513   1.955
58736W        W30352  39.513  30.982  11.998
58737W        W30353  18.054  32.853  14.548
58738W        W30354  26.655  40.040  10.239
58739W        W30355  33.271  28.196  13.745
58740W        W30356  15.294  24.243  13.943
58741W        W30357  44.713  41.938  11.098
58742W        W30358   3.388  20.634   2.725
58743W        W30359  38.001  22.355  11.249
58744W        W30360   1.744  17.057   2.603
58745W        W30361  33.464  25.308   2.728
58746W        W30362   0.928  26.701  12.374
58747W        W30363  31.669  28.647   4.648
58748W        W30364  25.714  42.997  11.047
58749W        W30365  38.982  10.649  13.543
58750W        W30366   4.544   8.808   9.884
58751W        W30367   9.439  40.406  12.100
58752W        W30368  42.252   8.638  12.507
58753W        W30369   4.467   1.837   2.719
58754W        W30370   2.447  22.160   5.150
58755W        W30371  30.983   5.323   0.183
58756W        W30372  26.749  13.696  14.015
58757W        W30373  21.072  15.753  11.727
58758W        W30374  31.341  33.138  11.197
58759W        W30375  21.084   5.844  13.455
58760W        W30376   5.205  20.233  13.458
58761W        W30377  16.115  35.316  11.118
58762W        W30378  41.996  20.695   0.097
58763W        W30379  28.251  41.546  11.990
58764W        W30380  36.891  36.617   4.245
58765W        W30381  13.045  25.582  12.982
58766W        W30382  32.369  41.250  14.237
58767W        W30383  33.326  34.619   1.177
58768W        W30384  13.741  36.525  13.569
58769W        W30385   8.572  37.598  11.133
58770W        W30386  29.036   8.425  13.973
58771W        W30387  12.320  22.197  12.773
58772W        W30388  14.276  23.569   0.221
58773W        W30389  43.735  17.205  12.431
58774W        W30390   8.399  35.810  13.473
58775W        W30391  26.965  33.433   9.909
58776W        W30392   9.765  22.021   1.674
58777W        W30393  14.734  27.838  12.916
58778W        W30394  40.116  14.256  12.609
58779W        W30395  32.409  44.436  11.645
58780W        W30396  36.347  34.815   4.158
58781W        W30397   6.833   6.662  11.775
58782W        W30398  38.881  43.038  12.873
58783W        W30399  24.047  23.987  11.466
58784W        W30400  25.612  35.532  10.782
58785W        W30401  25.106  34.562   1.942
58786W        W30402  22.032  39.857  10.708
58787W        W30403  36.628  20.305   2.095
58788W        W30404   6.579  36.615  11.269
58789W        W30405  18.092   1.731  11.189
58790W        W30406  29.968   8.141   0.368
58791W        W30407  26.118  32.618  12.893
58792W        W30408  15.046   3.760  13.629
58793W        W30409  22.408   1.643   2.248
58794W        W30410   7.838  12.398   3.257
58795W        W30411  34.626  10.092   3.175
58796W        W30412   9.830  10.673  10.752
58797W        W30413   8.664  28.174   3.353
58798W        W30414  19.835  43.751   2.809
58799W        W30415  44.232  44.790   1.766
58800W        W30416   4.053  36.803  11.539
58801W        W30417  29.412  36.112  11.947
58802W        W30418  31.488  37.291  12.973
58803W        W30419  10.707  10.576   1.225
58804W        W30420  11.328  21.620   0.891
58805W        W30421  12.277   4.351  14.762
58806W        W30422  33.079   1.744  12.435
58807W        W30423  44.017  13.521  14.300
58808W        W30424  24.500  12.377   2.393
58809W        W30425  11.635   9.694  14.449
58810W        W30426  21.403  15.673  10.332
58811W        W30427   6.644  17.225  12.401
58812W        W30428  12.515  22.688  12.738
58813W        W30429  30.480  14.882   0.340
58814W        W30430  27.467  15.201  13.878
58815W        W30431  39.787  34.876  13.404
58816W        W30432  20.206  21.698   4.368
58817W        W30433   4.188  16.861   3.306
58818W        W30434  40.172  21.251   1.467
58819W        W30435   0.605  34.989   0.079
58820W        W30436  32.091  23.096  14.770
58821W        W30437   9.628  10.429   0.608
58822W        W30438  16.950   9.911  12.589
58823W        W30439   2.885  13.414   4.814
58824W        W30440  32.609  23.706   2.792
58825W        W30441   1.138  33.576  10.773
58826W        W30442  31.388  22.487   1.792
58827W        W30443  13.579  18.722   4.368
58828W        W30444  32.640   8.754  11.264
58829W        W30445  37.307  25.151   1.888
58830W        W30446   8.886   0.496   2.180
58831W        W30447  37.452  33.985  12.026
58832W        W30448  16.240  24.760   0.982
58833W        W30449  10.056  26.494   0.330
58834W        W30450  22.009  25.621   3.436
58835W        W30451  29.609   4.840   2.381
58836W        W30452   3.383  27.412  12.018
58837W        W30453  12.678  44.096  12.957
58838W        W30454  12.204   7.907   5.001
58839W        W30455  35.956   7.453  11.627
58840W        W30456  41.351  20.051   4.177
58841W        W30457  42.419  11.204  10.731
58842W        W30458  22.051  18.278   4.639
58843W        W30459  24.754  10.077  12.926
58844W        W30460   3.949  41.125  12.986
58845W        W30461  32.106  18.743  10.576
58846W        W30462  16.707   2.139  11.033
58847W        W30463  28.966  34.447   1.604
58848W        W30464  10.813  22.690  13.797
58849W        W30465  31.687   2.038   1.858
58850W        W30466   1.675  39.577  11.981
58851W        W30467  44.544  29.530   0.895
58852W        W30468  36.636   8.999  11.871
58853W        W30469  43.354  40.169  12.202
58854W        W30470  14.222  36.239   4.130
58855W        W30471   5.496  39.429   2.765
58856W        W30472   0.806  34.021  11.669
58857W        W30473  35.346   5.579   4.164
58858W        W30474   7.393  16.146   3.869
58859W        W30475   7.915  43.014  14.329
58860W        W30476   0.335   8.327  13.762
58861W        W30477  44.079  17.792   2.814
58862W        W30478  41.918  16.887   1.325
58863W        W30479  16.295  25.680  11.571
58864W        W30480  14.120  25.531   0.043
58865W        W30481   9.333  33.660   2.218
58866W        W30482  34.485  19.758  14.477
58867W        W30483  38.155   0.361  11.461
58868W        W30484   7.889  21.530  12.885
58869W        W30485  37.583  39.283   2.291
58870W        W30486  17.554   1.357   1.996
58871W        W30487  18.840   9.358   2.835
58872W        W30488   4.823  25.928  14.487
58873W        W30489   8.345   5.281   1.899
58874W        W30490  37.438   4.272   2.234
58875W        W30491  14.991  12.466  10.360
58876W        W30492   3.820   0.976   2.496
58877W        W30493  32.443  31.461   1.826
58878W        W30494  14.593  30.165   0.250
58879W        W30495  21.284  27.971  11.222
58880W        W30496  42.576  11.636  11.550
58881W        W30497  44.496  36.343   4.298
58882W        W30498   2.908  27.942  12.557
58883W        W30499   1.403  38.022  11.205
58884W        W30500  22.310  11.759   2.588
58885W        W30501  42.194  12.661   0.135
58886W        W30502  10.878  25.061  13.411
58887W        W30503  35.334  33.495  14.977
58888W        W30504  29.472  30.265   1.309
58889W        W30505  25.189   4.339  11.116
58890W        W30506  39.934   4.118   2.105
58891W        W30507  11.729  34.910   3.055
58892W        W30508  24.748   0.271  10.698
58893W        W30509  16.338  20.209  14.490
58894W        W30510  31.446   9.259  12.494
58895W        W30511  15.339  29.061  14.770
58896W        W30512   6.790  30.489  10.744
58897W        W30513  11.234  28.700  11.661
58898W        W30514  27.479  16.547   1.318
58899W        W30515  21.121  37.793  10.358
58900W        W30516  23.436  17.227  11.704
58901W        W30517  39.989  13.572  11.393
58902W        W30518  30.510  39.148  12.435
58903W        W30519  36.571  17.857  11.068
58904W        W30520   3.167  21.907   9.546
58905W        W30521  24.470  21.537  13.814
58906W        W30522  41.399  26.102  13.299
58907W        W30523  23.083  37.444   3.671
58908W        W30524  23.383  12.699  11.885
58909W        W30525  14.817  25.054   0.475
58910W        W30526  42.738  14.598   3.162
58911W        W30527  34.103  22.967  11.608
58912W        W30528  30.500  43.501   2.839
58913W        W30529  34.494  19.541  11.698
58914W        W30530  15.750  30.204  10.649
58915W        W30531  11.729  30.476  12.454
58916W        W30532  12.206  11.948  14.912
58917W        W30533  29.093  21.240   2.230
58918W        W30534  38.573  31.594  10.630
58919W        W30535  26.005  30.501   1.584
58920W        W30536  37.523  12.406  12.427
58921W        W30537  40.496  40.021  11.200
58922W        W30538  11.461  25.146   4.995
58923W        W30539  30.677  32.647  12.437
58924W        W30540  13.936  24.136   2.172
58925W        W30541  10.364  14.287  13.506
58926W        W30542   9.688  11.695   1.990
58927W        W30543  32.201   7.840  12.397
58928W        W30544  18.849  43.959   2.626
58929W        W30545   7.155  25.548  13.293
58930W        W30546  40.284  44.969  13.740
58931W        W30547  16.806  44.888   1.162
58932W        W30548  24.888  37.256   3.197
58933W        W30549  35.682  43.035   3.580
58934W        W30550  24.283  32.568  13.122
58935W        W30551  18.628  31.771   2.310
58936W        W30552  42.023  40.626   4.822
58937W        W30553   6.402   8.710   2.870
58938W        W30554  40.346  24.748  13.930
58939W        W30555  37.510  33.574   2.321
58940W        W30556   7.347   3.662   4.386
58941W        W30557   9.760  36.143   0.926
58942W        W30558  34.617  32.904  14.000
58943W        W30559  18.584  31.555  13.841
58944W        W30560  16.553  41.131  13.929
58945W        W30561  39.102   1.295  11.067
58946W        W30562  39.311   8.414   2.691
58947W        W30563  16.733  31.995  12.841
58948W        W30564   8.215  24.723  14.601
58949W        W30565  11.184  20.042  12.349
58950W        W30566  21.038  15.637   3.215
58951W        W30567  11.840  21.459   4.129
58952W        W30568  20.075  33.489   1.136
58953W        W30569  42.315  11.990   4.471
58954W        W30570   4.714  14.326   0.709
58955W        W30571  17.023  18.762   4.689
58956W        W30572  33.155  39.977   3.345
58957W        W30573   1.164  39.504  12.014
58958W        W30574  13.361   8.876   2.700
58959W        W30575  37.855  43.559  11.005
58960W        W30576  36.308  38.883   1.362
58961W        W30577  37.418  19.126  12.925
58962W        W30578  41.957  15.046   1.136
58963W        W30579   0.792  32.076  12.132
58964W        W30580   2.713  36.513   0.920
58965W        W30581  17.806   7.859  10.768
58966W        W30582  25.070  28.008  12.533
58967W        W30583  41.403   6.174  13.011
58968W        W30584  13.863  11.423  14.005
58969W        W30585  25.049  30.169  10.620
58970W        W30586  29.928  36.430  11.618
58971W        W30587   0.439   4.650   1.896
58972W        W30588  20.781  28.021  14.762
58973W        W30589   6.896  29.017  10.707
58974W        W30590  44.306  38.111  13.381
58975W        W30591  31.093  41.355  14.986
58976W        W30592  19.958  22.006   3.389
58977W        W30593  40.054  25.428  14.743
58978W        W30594  18.430  33.985   2.125
58979W        W30595   2.041  43.325   2.211
58980W        W30596   3.020  42.435  14.758
58981W        W30597  29.785   8.783  11.617
58982W        W30598   4.181   4.463   3.292
58983W        W30599  17.177  36.345   3.800
58984W        W30600  37.449  42.236  11.067
58985W        W30601   2.153   2.326  14.315
58986W        W30602  11.264  21.709  14.817
58987W        W30603   3.429  22.559   0.426
58988W        W30604   5.355   0.162  10.631
58989W        W30605  20.174  38.925   0.353
58990W        W30606  13.949  14.422   2.806
58991W        W30607   0.908  31.814  14.558
58992W        W30608  15.685  35.608   2.038
58993W        W30609   4.221   8.251  13.740
58994W        W30610   0.168  17.771  13.692
58995W        W30611  12.348  34.141  11.967
58996W        W30612  15.833  37.176  11.947
58997W        W30613  10.129   9.204   0.527
58998W        W30614  41.262   8.292  14.887
58999W        W30615  31.214   6.404  12.693
59000W        W30616  14.239  30.530   1.080
59001W        W30617   4.735   0.269   4.623
59002W        W30618  30.653  32.240  11.574
59003W        W30619  30.572  39.615   0.500
59004W        W30620  39.456   5.655   3.802
59005W        W30621  20.152  11.791  13.860
59006W        W30622  21.622  30.987  12.156
59007W        W30623   1.823  29.950   0.301
59008W        W30624  44.711  28.847   2.573
59009W        W30625  24.647  25.026   0.707
59010W        W30626  41.431  42.074  13.022
59011W        W30627  15.003  16.351  13.246
59012W        W30628  15.610  16.678   1.778
59013W        W30629  10.722  13.105   3.776
59014W        W30630  33.706  24.763  11.490
59015W        W30631  15.517  16.980  12.985
59016W        W30632  23.701  11.752  11.161
59017W        W30633  15.826  15.264  11.255
59018W        W30634  18.822  41.284  13.532
59019W        W30635  22.228  31.997   1.703
59020W        W30636  10.446   6.666   0.583
59021W        W30637  37.425  41.853  12.464
59022W        W30638   7.862   5.504   2.687
59023W        W30639  42.348  32.631   0.441
59024W        W30640  25.528  35.543  13.512
59025W        W30641   1.044  22.681   1.132
59026W        W30642   2.466   9.363  13.930
59027W        W30643  23.260  19.793  12.106
59028W        W30644  36.903  33.438   4.015
59029W        W30645   0.776  12.321  12.477
59030W        W30646   1.321  10.158  14.796
59031W        W30647  13.342  35.141   1.304
59032W        W30648  14.317  30.173  13.940
59033W        W30649  18.886   8.637   4.180
59034W        W30650   7.066  14.716  11.205
59035W        W30651  37.883  12.910   3.335
59036W        W30652  12.124  42.373   2.878
59037W        W30653  11.100  25.598   0.286
59038W        W30654  36.542  42.788  10.213
59039W        W30655  23.313  29.118   2.427
59040W        W30656  10.594   4.284   1.845
59041W        W30657   5.422  44.911   0.677
59042W        W30658  32.439  36.479  10.650
59043W        W30659  31.146  11.769   3.920
59044W        W30660  26.169   2.752  13.330
59045W        W30661   7.080  28.576  13.045
59046W        W30662  11.439  11.713   0.253
59047W        W30663  34.536  38.611   4.072
59048W        W30664  27.410   1.516  14.054
59049W        W30665  39.443  12.666  14.866
59050W        W30666  38.526  20.905   3.769
59051W        W30667  24.619  35.080  14.525
59052W        W30668  14.691  23.268  14.796
59053W        W30669  22.143   5.667  13.389
59054W        W30670   0.315  40.861  12.084
59055W        W30671  10.710  29.631  11.429
59056W        W30672   2.810  13.160   2.882
59057W        W30673   9.252   9.345   0.260
59058W        W30674   0.512  13.263  13.354
59059W        W30675  22.508  14.640   1.683
59060W        W30676  37.620   3.224   2.198
59061W        W30677   4.470   5.106   0.328
59062W        W30678  20.651  41.767   3.724
59063W        W30679   1.184   2.404   4.206
59064W        W30680  25.992  14.793   2.006
59065W        W30681  21.710  28.007   3.695
59066W        W30682  40.750  10.796  14.717
59067W        W30683  24.689  41.118  12.619
59068W        W30684   7.359  19.668   3.731
59069W        W30685  29.093  21.730  14.889
59070W        W30686  24.501  24.927   0.197
59071W        W30687   8.942   4.259  10.716
59072W        W30688  37.521  27.491   2.938
59073W        W30689  34.544   0.985   3.785
59074W        W30690  39.576  30.928   1.874
59075W        W30691  26.890  10.906   2.697
59076W        W30692   0.107  10.110  11.820
59077W        W30693  24.036  20.281   2.661
59078W        W30694  33.919  25.080   2.116
59079W        W30695   8.514  10.169   1.388
59080W        W30696  23.505  33.112  13.346
59081W        W30697  37.523   2.231   2.247
59082W        W30698  32.228  33.154   4.119
59083W        W30699  18.188  13.115  13.839
59084W        W30700  10.124   8.453   1.032
59085W        W30701  31.208  35.761  12.423
59086W        W30702  18.315  39.559   3.540
59087W        W30703   6.048   7.952   1.686
59088W        W30704  33.167  12.351  13.870
59089W        W30705  20.293  39.753  12.081
59090W        W30706  39.912  11.601  10.752
59091W        W30707  14.760  23.134   2.332
59092W        W30708  36.141   3.906   1.025
59093W        W30709  24.659   2.762   1.457
59094W        W30710   0.746  43.416   3.135
59095W        W30711  26.500  20.519  13.588
59096W        W30712   7.482   3.809  12.649
59097W        W30713  33.049  42.359  11.870
59098W        W30714  25.461  23.782  10.921
59099W        W30715  16.024  16.248  13.452
59100W        W30716  33.489  31.819  11.116
59101W        W30717  30.455  10.857  14.011
59102W        W30718  40.500   9.879  14.673
59103W        W30719   9.423  17.894   1.247
59104W        W30720  22.681  17.410  14.257
59105W        W30721  26.234  33.416  11.120
59106W        W30722  44.775   9.063   0.045
59107W        W30723  32.077  18.555   2.231
59108W        W30724  40.117  27.422  14.375
59109W        W30725  23.229  36.337  12.543
59110W        W30726  39.988  38.862   2.558
59111W        W30727  12.107  42.277  12.108
59112W        W30728   6.707  26.818   4.410
59113W        W30729  34.110   0.962  12.360
59114W        W30730  40.229  31.597   2.962
59115W        W30731  30.328   8.300  12.297
59116W        W30732  41.782  33.546   0.683
59117W        W30733  30.933  14.533   3.375
59118W        W30734  15.179  24.391   1.661
59119W        W30735  35.785  35.654  12.477
59120W        W30736   5.009  44.901   0.359
59121W        W30737  20.577  25.063  13.539
59122W        W30738   9.789  27.986  12.203
59123W        W30739  23.466  27.374   4.896
59124W        W30740   5.964   8.744   1.853
59125W        W30741   1.929  24.600  12.631
59126W        W30742  29.771  39.726   4.117
59127W        W30743  32.954  17.278  14.117
59128W        W30744  20.004   9.637  13.640
59129W        W30745  32.450  20.342   3.941
59130W        W30746  18.979   7.298   3.627
59131W        W30747  35.007  22.019  11.298
59132W        W30748   2.256   6.245  13.953
59133W        W30749  18.119  40.294  13.590
59134W        W30750  33.122  16.605   1.321
59135W        W30751  20.011  11.722  11.568
59136W        W30752   6.867   7.124  13.260
59137W        W30753  36.966  14.761   4.899
59138W        W30754   3.449  37.064   5.101
59139W        W30755  14.552  10.634   0.870
59140W        W30756  14.221   4.161  14.337
59141W        W30757  22.626  11.222   4.425
59142W        W30758  32.716  27.605   4.091
59143W        W30759  19.332  44.928   1.860
59144W        W30760   3.560  15.015  11.052
59145W        W30761  31.123  27.957   3.817
59146W        W30762  37.645   1.383  13.943
59147W        W30763  28.541  12.078  13.020
59148W        W30764  21.274   6.362  14.089
59149W        W30765  40.229  16.225  14.927
59150W        W30766  27.132  38.935   1.913
59151W        W30767  33.540  24.206  14.934
59152W        W30768  36.082   2.758   0.206
59153W        W30769  37.328  40.031  12.807
59154W        W30770   0.026   5.699   3.242
59155W        W30771   8.697   8.407  11.878
59156W        W30772   6.673  30.084  11.470
59157W        W30773  39.911  19.763   1.298
59158W        W30774  14.263   2.672  13.890
59159W        W30775  18.002  35.063   4.590
59160W        W30776   3.447  43.238   4.183
59161W        W30777  13.175  26.282  13.988
59162W        W30778   9.748  36.092   3.356
59163W        W30779   3.386   9.730   0.406
59164W        W30780  10.870   3.874  12.070
59165W        W30781  42.279  37.045  11.139
59166W        W30782  38.620  43.471   0.495
59167W        W30783  20.009  24.802   0.226
59168W        W30784  35.897  21.891  11.649
59169W        W30785  13.141  21.065  14.127
59170W        W30786  34.012  20.122   0.308
59171W        W30787  15.713  21.578   0.479
59172W        W30788  34.818  41.957   3.203
59173W        W30789  18.206  16.640  11.492
59174W        W30790  33.169  44.804  11.187
59175W        W30791  17.341  13.450   4.595
59176W        W30792  12.654  20.712   4.792
59177W        W30793  39.907  16.167   3.144
59178W        W30794   4.773  20.705   0.367
59179W        W30795  35.867   4.396  10.716
59180W        W30796  17.203   6.805   1.923
59181W        W30797   3.683  30.031   3.670
59182W        W30798   9.468  13.995  11.590
59183W        W30799  32.720  10.234   3.209
59184W        W30800  31.972  32.039  11.041
59185W        W30801  43.484  13.833  12.041
59186W        W30802  24.679  41.258  14.829
59187W        W30803  16.861  31.952   2.385
59188W        W30804  27.564  34.570  12.850
59189W        W30805  23.681   8.369   1.412
59190W        W30806  10.714  34.534  13.858
59191W        W30807   6.713  29.173  14.889
59192W        W30808   3.839   5.108  12.462
59193W        W30809   7.128  41.748  11.118
59194W        W30810  19.548  41.880  14.613
59195W        W30811   6.607   7.249   2.000
59196W        W30812  18.207  43.766   9.805
59197W        W30813  37.864  29.491   4.046
59198W        W30814  20.492  40.904   0.287
59199W        W30815  19.727  40.777   0.647
59200W        W30816  27.918  36.822   2.734
59201W        W30817   4.786  43.071   0.736
59202W        W30818  41.317  22.759  14.260
59203W        W30819  21.562  43.986   2.391
59204W        W30820  10.862  13.806  11.714
59205W        W30821   0.702   5.854  13.338
59206W        W30822  27.698  30.643  14.521
59207W        W30823   8.189  26.966   4.403
59208W        W30824   1.323  35.527  13.044
59209W        W30825  29.663  37.421   2.848
59210W        W30826  21.281  34.306   4.167
59211W        W30827  41.080  19.526  12.099
59212W        W30828  30.607  43.412  11.790
59213W        W30829  25.190  11.835  12.030
59214W        W30830  43.802  37.761  10.694
59215W        W30831  23.911  18.494  10.608
59216W        W30832   8.746  21.161  11.836
59217W        W30833  15.547  21.989   1.864
59218W        W30834  30.600  23.227   3.134
59219W        W30835   7.182   5.167  13.439
59220W        W30836  28.424  17.484   9.983
59221W        W30837  38.085  26.713  11.504
59222W        W30838  44.068   9.084  12.076
59223W        W30839  16.241  41.229  12.611
59224W        W30840  32.739   0.251   3.185
59225W        W30841  10.549  13.336   2.784
59226W        W30842  29.020  21.068   1.261
59227W        W30843   3.007  23.900   3.649
59228W        W30844  10.109  16.465  11.126
59229W        W30845  30.433  25.926   0.505
59230W        W30846  26.178  11.122  10.798
59231W        W30847  10.061  19.649  14.522
59232W        W30848  36.482  37.970   1.615
59233W        W30849  35.438   1.114  10.658
59234W        W30850   3.354   2.344   3.212
59235W        W30851  19.126  11.382  14.848
59236W        W30852  38.927  22.635   1.946
59237W        W30853  31.960  15.637  12.335
59238W        W30854  27.629  30.185   3.660
59239W        W30855  43.713   6.862   4.436
59240W        W30856   0.198  32.185   2.343
59241W        W30857  38.308  37.375  10.611
59242W        W30858  10.232  24.764  14.258
59243W        W30859  15.666   7.495  13.114
59244W        W30860  24.571  24.311  13.122
59245W        W30861  29.554  41.230  10.386
59246W        W30862   4.131   5.949   4.005
59247W        W30863  19.737  18.493  11.019
59248W        W30864  18.712  14.110   0.423
59249W        W30865   5.717  14.670   1.227
59250W        W30866  24.256   8.759   1.314
59251W        W30867   8.835  23.140   4.293
59252W        W30868  16.658  33.947  13.184
59253W        W30869  32.602  39.360   1.727
59254W        W30870  32.971  25.748   4.538
59255W        W30871   7.626   7.137  10.927
59256W        W30872   7.538  22.701  10.757
59257W        W30873  42.421  13.328  11.857
59258W        W30874  33.843  35.524   4.618
59259W        W30875  14.114   1.265   1.864
59260W        W30876  40.742  15.954  14.037
59261W        W30877  35.967  41.281  11.526
59262W        W30878  21.028  12.381  10.618
59263W        W30879  16.291  30.668  11.640
59264W        W30880  35.821  31.077  10.700
59265W        W30881  13.757  38.838  12.098
59266W        W30882  18.497  22.325   0.842
59267W        W30883  35.635   9.209   4.871
59268W        W30884  34.428  29.126   3.980
59269W        W30885   8.283  30.195  14.396
59270W        W30886  14.236  29.326   1.679
59271W        W30887   9.924  18.143  11.180
59272W        W30888  43.358  23.840   4.001
59273W        W30889  16.673  10.745  12.545
59274W        W30890  30.605   9.205   2.381
59275W        W30891  29.780   1.733   0.985
59276W        W30892   0.472  32.923   1.478
59277W        W30893  16.692  35.797   0.980
59278W        W30894   6.573  17.119  14.242
59279W        W30895  11.874  22.972  13.918
59280W        W30896  35.912  40.828  14.985
59281W        W30897  17.374   4.765  13.812
59282W        W30898   1.763  17.537   4.204
59283W        W30899  16.576  43.729   3.698
59284W        W30900  30.364  35.065   0.820
59285W        W30901  16.051  21.150   0.940
59286W        W30902   1.262  14.667  14.922
59287W        W30903  30.250  22.882  12.105
59288W        W30904  18.041   9.337   2.241
59289W        W30905  36.397  40.512   2.876
59290W        W30906  27.232   9.976   0.289
59291W        W30907   1.887  44.049   5.132
59292W        W30908   0.087  41.458   0.014
59293W        W30909   8.659  18.322   4.942
59294W        W30910  16.501   9.029  10.799
59295W        W30911  15.664   8.261   2.399
59296W        W30912  11.170  23.793  13.260
59297W        W30913  26.437   7.506   0.144
59298W        W30914  29.408  30.546  12.624
59299W        W30915  38.371  38.595  11.968
59300W        W30916  35.510   6.738   4.238
59301W        W30917   5.818  43.821   1.355
59302W        W30918  33.976  44.305   1.764
59303W        W30919  25.633   1.230   0.487
59304W        W30920  16.650  31.601   1.998
59305W        W30921  44.855  32.013   0.874
59306W        W30922  44.915  38.349  12.561
59307W        W30923  25.418  37.298   1.760
59308W        W30924  11.158  11.820  13.374
59309W        W30925  25.591  14.481   2.742
59310W        W30926  36.436  37.112   2.224
59311W        W30927  25.926  35.022   2.359
59312W        W30928  31.780  15.715   3.258
59313W        W30929   9.334  37.411   2.168
59314W        W30930  21.227  28.630   3.264
59315W        W30931  27.481  35.907  12.833
59316W        W30932  31.328  30.907   9.855
59317W        W30933  44.348  20.688  10.760
59318W        W30934  30.641   1.696  14.902
59319W        W30935  36.846  34.430  13.381
59320W        W30936  16.228   3.568  10.877
59321W        W30937   7.727   5.954   4.260
59322W        W30938   9.387  41.982   2.017
59323W        W30939   5.145  17.280  12.493
59324W        W30940   9.593  18.227  12.470
59325W        W30941  29.968  12.755  13.043
59326W        W30942  30.488  15.100   0.817
59327W        W30943   9.668  31.007  10.993
59328W        W30944  22.174  30.469  14.816
59329W        W30945  29.954  23.672   2.306
59330W        W30946   3.053   6.225  14.257
59331W        W30947  12.344  32.139  14.470
59332W        W30948  44.324   2.913   3.675
59333W        W30949  11.842  19.293   0.918
59334W        W30950  20.555   1.712   3.158
59335W        W30951  29.468  11.201   1.411
59336W        W30952  35.790  40.041  11.132
59337W        W30953  15.769  24.580   2.152
59338W        W30954   6.025  15.329   4.101
59339W        W30955  32.369  41.343   4.087
59340W        W30956  20.169  16.283  12.922
59341W        W30957  34.982  15.885   3.237
59342W        W30958  22.798  38.009   1.528
59343W        W30959  39.262   8.985   0.451
59344W        W30960   0.791   4.397  11.158
59345W        W30961  42.070  14.389   1.747
59346W        W30962   5.949   1.335  11.660
59347W        W30963  23.475   9.891   2.307
59348W        W30964  36.940  32.530   4.669
59349W        W30965   3.319  36.266  12.939
59350W        W30966  36.922  20.755   2.156
59351W        W30967  36.264  28.794   1.725
59352W        W30968  19.754  40.462  10.737
59353W        W30969  25.912   5.428  13.778
59354W        W30970  30.886  44.350   0.161
59355W        W30971  27.658  18.210   3.377
59356W        W30972  37.845   7.248   1.516
59357W        W30973  19.589  32.076   0.421
59358W        W30974  30.973  10.818  10.696
59359W        W30975   4.437  31.182   0.829
59360W        W30976  38.499  29.032  14.887
59361W        W30977   4.799  28.775  13.499
59362W        W30978  24.746  41.365   3.609
59363W        W30979  21.960  17.516  12.078
59364W        W30980  40.552  40.043   3.746
59365W        W30981   4.400   4.143  11.189
59366W        W30982  27.981  25.365   5.076
59367W        W30983  25.331  12.059  13.810
59368W        W30984   1.454  15.695   4.622
59369W        W30985   6.775  10.586   3.600
59370W        W30986  38.567  38.833   3.337
59371W        W30987  42.244  28.624  13.573
59372W        W30988  42.212  39.311  13.357
59373W        W30989  13.461  15.194   4.743
59374W        W30990  34.942  19.152  14.443
59375W        W30991  17.549  42.839   3.334
59376W        W30992  43.016  11.159  14.934
59377W        W30993  14.702   0.858   1.271
59378W        W30994  26.661  43.524  11.633
59379W        W30995  24.234   3.798   4.067
59380W        W30996  27.383  44.233  11.535
59381W        W30997  22.623  43.427  14.491
59382W        W30998   9.700  28.157   2.579
59383W        W30999  30.701   1.390   1.902
59384W        W31000  40.827  44.467   0.572
59385W        W31001  10.844   1.702  13.832
59386W        W31002  11.535  37.016  11.135
59387W        W31003  44.352   2.435  14.494
59388W        W31004  14.539  42.360  12.859
59389W        W31005  30.000  24.148   0.284
59390W        W31006  34.473   1.650   3.145
59391W        W31007  15.865   9.306  11.656
59392W        W31008  11.951  33.403   2.244
59393W        W31009  15.285  35.903   3.465
59394W        W31010  40.673  13.666   4.131
59395W        W31011   4.209  38.552  13.397
59396W        W31012   2.306  25.667   3.701
59397W        W31013   3.246  37.152  12.572
59398W        W31014   9.669  17.031  13.925
59399W        W31015  10.706   3.769   1.233
59400W        W31016  42.530  34.823  14.516
59401W        W31017  36.143  29.034   4.580
59402W        W31018  20.511  22.035  11.047
59403W        W31019  34.424  35.717  13.879
59404W        W31020   5.562  22.228   4.129
59405W        W31021   5.267  38.306   0.026
59406W        W31022  41.705   7.352   4.083
59407W        W31023  41.879  17.435  12.554
59408W        W31024   3.383  27.135   4.025
59409W        W31025  22.397   1.795   9.957
59410W        W31026  43.940   8.221   1.471
59411W        W31027   0.387  44.505  13.414
59412W        W31028  38.424  35.014  13.354
59413W        W31029  21.836  33.986  13.067
59414W        W31030   2.249  38.409   0.371
59415W        W31031  28.706  27.726  13.491
59416W        W31032  22.583  26.220  12.807
59417W        W31033   0.542  40.822   0.546
59418W        W31034  36.401   5.906   2.460
59419W        W31035  15.093  36.575   2.176
59420W        W31036  12.601  24.013   3.794
59421W        W31037  23.306  37.230  12.041
59422W        W31038  15.227  20.655  11.655
59423W        W31039  12.253  44.637   3.260
59424W        W31040  42.785  21.269  11.190
59425W        W31041  17.141  19.744  12.954
59426W        W31042  24.058  28.222   4.608
59427W        W31043  37.346  29.446   4.488
59428W        W31044  19.648  22.972   2.105
59429W        W31045   1.903  13.611   3.815
59430W        W31046  19.743  22.906  14.908
59431W        W31047  23.032   2.674   2.387
59432W        W31048  32.586  18.665  13.659
59433W        W31049  10.665  29.949   4.052
59434W        W31050  21.778  17.101  12.924
59435W        W31051  24.476  11.723   0.908
59436W        W31052  23.386  33.927  11.158
59437W        W31053  19.362  23.909   4.100
59438W        W31054  30.573  27.407   5.463
59439W        W31055   8.292  32.381  12.548
59440W        W31056   3.460  27.189   2.245
59441W        W31057  14.084  37.968   4.254
59442W        W31058   6.058  34.463  12.989
59443W        W31059  32.693   1.372  11.077
59444W        W31060   6.721   0.022  10.440
59445W        W31061  19.336   0.995  14.276
59446W        W31062  22.171   1.271  11.410
59447W        W31063  31.591  15.191   3.699
59448W        W31064   1.483  16.021   4.225
59449W        W31065  20.721  19.135   1.186
59450W        W31066  31.912  30.646  12.568
59451W        W31067  15.793  26.723  10.583
59452W        W31068  23.383  17.650  11.441
59453W        W31069  15.317  41.296   0.779
59454W        W31070  26.102   4.308   3.171
59455W        W31071   8.671  18.864   5.067
59456W        W31072  28.127  27.022   0.327
59457W        W31073   9.749  10.568   4.198
59458W        W31074  30.511  21.391   0.076
59459W        W31075  10.363  24.667   2.943
59460W        W31076  27.972  24.721  13.913
59461W        W31077  24.969  10.953   2.355
59462W        W31078   1.175  12.707  12.473
59463W        W31079  10.312  41.102   4.948
59464W        W31080  32.935  37.219   2.467
59465W        W31081   1.669  35.413   1.573
59466W        W31082  43.714  18.211   2.903
59467W        W31083  30.342  15.204  12.840
59468W        W31084  11.771  40.067  14.421
59469W        W31085  30.051   8.844  13.932
59470W        W31086  27.155  39.504  12.709
59471W        W31087   5.651  37.841  14.416
59472W        W31088  31.910  15.168  12.548
59473W        W31089  29.608  17.043   3.207
59474W        W31090   3.756  25.164   1.691
59475W        W31091  17.866  44.314  14.279
59476W        W31092   8.677  10.215  10.300
59477W        W31093   2.520  14.679  14.298
59478W        W31094   7.464  43.151   4.537
59479W        W31095  21.458   4.036   1.217
59480W        W31096   8.356  21.838  12.658
59481W        W31097  23.765   7.416   1.070
59482W        W31098  17.246  19.260   0.456
59483W        W31099  38.011  13.611   4.684
59484W        W31100  17.999  28.063  14.736
59485W        W31101   5.524  34.091   3.268
59486W        W31102  39.086   5.023   3.836
59487W        W31103  26.878  43.931   2.606
59488W        W31104  11.785  39.338  13.423
59489W        W31105  12.826   3.533  12.622
59490W        W31106  16.265  23.715  14.310
59491W        W31107  29.387  17.827  11.162
59492W        W31108  22.764  22.299  10.145
59493W        W31109  41.876  10.810  10.480
59494W        W31110  12.746   6.192  12.363
59495W        W31111  43.919   1.229  13.348
59496W        W31112  22.079   0.799  13.423
59497W        W31113  44.432  41.746  12.047
59498W        W31114   2.463   1.770   0.865
59499W        W31115  10.398  21.646   0.871
59500W        W31116   7.281  25.348  11.110
59501W        W31117  17.574  18.561   1.738
59502W        W31118  15.217  14.204   2.326
59503W        W31119  39.138   2.599  10.717
59504W        W31120  27.944  27.976  12.903
59505W        W31121   3.960  12.323  14.827
59506W        W31122  14.049  28.087  14.403
59507W        W31123   6.603  19.918  11.566
59508W        W31124  11.666  39.816  12.013
59509W        W31125  16.669  42.064  12.105
59510W        W31126  18.567   6.573   5.054
59511W        W31127  43.952   0.759  10.736
59512W        W31128  33.509   7.381   1.211
59513W        W31129  21.135  21.845  14.302
59514W        W31130   8.332  20.218  14.828
59515W        W31131  16.294  38.070   3.599
59516W        W31132  18.734  27.061  11.576
59517W        W31133  24.064   1.569  14.339
59518W        W31134   3.214  11.792   4.608
59519W        W31135   9.240  11.750  12.629
59520W        W31136   4.643  33.937  14.803
59521W        W31137  20.791  29.947   5.068
59522W        W31138   3.669  11.787   0.635
59523W        W31139  44.429   1.153  12.546
59524W        W31140  11.589   8.871  13.171
59525W        W31141  31.484   1.081   2.879
59526W        W31142   9.419   8.221  11.162
59527W        W31143  32.656  20.154   3.434
59528W        W31144   3.374   9.979  11.602
59529W        W31145  42.084   9.638   3.076
59530W        W31146   9.222  37.648   3.581
59531W        W31147  25.435  43.246   1.803
59532W        W31148   3.374  23.890   2.857
59533W        W31149  15.970  19.893  11.121
59534W        W31150  37.101  20.378  12.510
59535W        W31151  35.518  42.411  13.607
59536W        W31152   0.083   2.837   2.442
59537W        W31153  37.042  11.093   4.939
59538W        W31154   1.228  13.772  14.839
59539W        W31155  24.012  40.464  12.590
59540W        W31156  26.308  15.603   5.220
59541W        W31157  21.212  29.374  14.077
59542W        W31158  37.980  17.491  14.212
59543W        W31159  26.468  41.934   4.229
59544W        W31160   3.702   9.511   4.715
59545W        W31161  11.904  39.922   0.786
59546W        W31162   1.679  11.827  11.498
59547W        W31163   9.885  12.851   1.145
59548W        W31164  21.084  35.062  10.985
59549W        W31165   7.805  15.128   4.567
59550W        W31166  41.501  35.903   3.248
59551W        W31167  10.298  42.481  12.340
59552W        W31168  25.609   6.198   4.606
59553W        W31169  41.576   0.798   3.552
59554W        W31170   7.296   1.487  13.960
59555W        W31171  41.488   8.735  12.041
59556W        W31172  36.620  33.633  12.049
59557W        W31173  10.859  29.521   2.375
59558W        W31174  21.218   7.862   4.178
59559W        W31175  37.276  25.646  11.063
59560W        W31176  13.535   5.833   3.681
59561W        W31177  44.244  33.004  11.362
59562W        W31178  28.848  37.129  10.931
59563W        W31179  36.676  23.659   4.568
59564W        W31180  27.439  26.090  14.689
59565W        W31181  19.029   2.809  11.091
59566W        W31182  42.263  34.575   3.412
59567W        W31183   7.105  36.458   2.902
59568W        W31184   9.401  10.389   1.725
59569W        W31185  12.352  20.730  11.602
59570W        W31186  25.705  31.133  14.857
59571W        W31187  12.532  18.598   4.265
59572W        W31188   0.924  29.707  11.220
59573W        W31189  32.991  10.189   4.686
59574W        W31190  35.659  39.255   0.853
59575W        W31191   8.994  21.597  11.978
59576W        W31192   6.828  21.718   4.477
59577W        W31193   6.084  11.256   0.831
59578W        W31194  38.607   2.905   1.296
59579W        W31195  17.576  19.606  11.310
59580W        W31196   0.878  26.686   0.380
59581W        W31197  12.713  31.358   0.832
59582W        W31198  14.673  38.115  10.695
59583W        W31199  16.904   9.384  10.746
59584W        W31200  11.761  20.228  14.081
59585W        W31201  10.309   0.921  12.567
59586W        W31202  21.828  10.894  12.946
59587W        W31203   5.719   2.247   1.258
59588W        W31204  21.608  40.642   1.338
59589W        W31205  34.463   2.865   4.678
59590W        W31206  30.577  23.406  12.404
59591W        W31207   4.788  14.873  14.099
59592W        W31208  28.307  18.691  14.433
59593W        W31209  31.153  43.966  12.936
59594W        W31210  18.740  43.400  14.905
59595W        W31211  36.408   3.333  12.113
59596W        W31212  11.277  42.971   3.696
59597W        W31213   1.964  44.042  12.814
59598W        W31214  24.525  19.346  10.751
59599W        W31215  38.572   3.874   4.360
59600W        W31216  33.826   6.070   4.161
59601W        W31217  32.431   8.790   4.154
59602W        W31218   3.754  12.635   0.570
59603W        W31219  25.257  39.983   4.719
59604W        W31220  24.978  12.868  13.471
59605W        W31221  38.825  16.880   3.233
59606W        W31222  21.053  36.755   4.699
59607W        W31223   0.210  33.980  14.325
59608W        W31224  27.188  34.835   0.652
59609W        W31225  11.799  12.340  12.444
59610W        W31226  36.333  10.784   4.917
59611W        W31227  35.484  16.524  10.685
59612W        W31228  18.060  44.966  13.299
59613W        W31229  29.648  28.994   5.137
59614W        W31230  10.854  18.798   2.177
59615W        W31231  13.113  22.839   4.043
59616W        W31232  28.054   3.159   1.829
59617W        W31233  32.864  33.625   1.337
59618W        W31234  11.433  18.720  13.413
59619W        W31235  33.544  22.299   2.623
59620W        W31236   0.529   7.393  14.187
59621W        W31237   9.200  38.060  13.546
59622W        W31238  11.232  27.068  12.930
59623W        W31239  42.456  30.897   1.710
59624W        W31240  37.851  44.447  14.070
59625W        W31241  27.295  40.219  11.593
59626W        W31242   0.871  27.245  13.863
59627W        W31243  39.115  41.641   4.861
59628W        W31244   2.231  38.910   0.993
59629W        W31245  15.019  38.027   5.142
59630W        W31246  25.523  32.394   2.303
59631W        W31247  18.098  23.367   1.819
59632W        W31248   9.934  11.232   3.750
59633W        W31249  12.413  36.849   2.806
59634W        W31250  17.019   9.331   2.409
59635W        W31251   4.699   7.182  11.484
59636W        W31252   0.330  29.085   3.170
59637W        W31253  14.121  10.892  10.560
59638W        W31254  36.536   1.300   4.154
59639W        W31255  41.944  23.914  12.495
59640W        W31256  41.519  11.349  13.460
59641W        W31257  25.596  37.458  14.265
59642W        W31258   8.854  43.053  12.907
59643W        W31259  15.104  14.290   1.834
59644W        W31260   4.434   2.876  14.029
59645W        W31261  44.886  43.435   4.187
59646W        W31262  33.001   5.777  12.786
59647W        W31263  29.732  24.586  11.114
59648W        W31264   3.204  29.035  10.863
59649W        W31265  14.076  19.530  13.074
59650W        W31266  10.629  32.590   4.031
59651W        W31267   0.717  41.228  14.394
59652W        W31268  13.363  37.227  11.452
59653W        W31269  27.022  40.831   2.996
59654W        W31270   5.218  26.423   3.253
59655W        W31271  11.483   6.758  13.368
59656W        W31272  16.808  30.988   2.756
59657W        W31273  14.566   0.339   0.104
59658W        W31274   3.776  27.952  12.647
59659W        W31275  18.379   8.114  13.390
59660W        W31276  32.509   6.716   1.312
59661W        W31277  40.453  24.962   4.560
59662W        W31278  32.261  15.146  13.382
59663W        W31279  23.626  28.449   0.379
59664W        W31280  14.416  16.321   3.274
59665W        W31281   4.517  34.489   4.175
59666W        W31282  29.001   5.120  13.850
59667W        W31283  24.604  32.895   1.412
59668W        W31284  33.002  18.169  13.921
59669W        W31285  24.818   2.466  11.920
59670W        W31286  18.601  30.909   3.104
59671W        W31287  20.306  31.937  10.444
59672W        W31288  15.427  37.425   3.196
59673W        W31289  43.566  17.122   2.098
59674W        W31290  22.986  36.326   1.850
59675W        W31291  12.108  29.507   2.792
59676W        W31292  15.671  41.192  14.972
59677W        W31293  34.766  13.706   0.819
59678W        W31294  43.816  26.658  14.818
59679W        W31295  33.843   2.898   4.037
59680W        W31296   0.695  19.774  12.054
59681W        W31297  38.539  16.670   2.811
59682W        W31298  40.787  10.620   3.399
59683W        W31299  28.941   3.712   0.767
59684W        W31300   6.409  29.239  14.448
59685W        W31301  44.365  27.468   2.216
59686W        W31302  15.512  30.391   4.100
59687W        W31303  27.715   9.149   1.305
59688W        W31304   4.548  34.464  10.633
59689W        W31305  31.115  37.386   1.812
59690W        W31306   2.366  32.090   1.790
59691W        W31307   0.917  18.208  13.788
59692W        W31308  16.572  21.310  11.085
59693W        W31309   7.352   1.731  14.476
59694W        W31310  23.705  29.445   2.632
59695W        W31311  31.493  31.871   0.378
59696W        W31312   5.244   9.601  14.277
59697W        W31313  13.599  27.696  14.887
59698W        W31314  11.566  39.541  10.615
59699W        W31315  11.786  39.624   3.249
59700W        W31316   2.347  15.208  13.885
59701W        W31317   2.294  17.153   0.924
59702W        W31318   3.978  36.748   4.227
59703W        W31319  14.765  41.507   2.199
59704W        W31320  29.002  23.700  12.442
59705W        W31321  33.502  16.119  10.715
59706W        W31322  35.305   9.554   2.633
59707W        W31323  28.366   6.256   4.131
59708W        W31324  28.044  38.085   3.407
59709W        W31325  38.238  30.633   1.460
59710W        W31326   8.700  16.288  13.059
59711W        W31327  14.521  27.634   4.850
59712W        W31328  39.280  33.113   2.367
59713W        W31329   2.235  13.117   2.129
59714W        W31330   7.688  21.333  12.465
59715W        W31331  34.935   8.590  13.066
59716W        W31332  22.160  38.593  13.223
59717W        W31333   3.331  39.465   4.435
59718W        W31334  28.661   0.819  12.656
59719W        W31335   9.450   1.441  13.516
59720W        W31336  35.700  39.507  13.485
59721W        W31337  15.060  11.286   1.266
59722W        W31338  35.037   9.465  10.442
59723W        W31339   1.255  13.398   2.012
59724W        W31340  43.359   0.028  13.607
59725W        W31341  24.930  15.760  13.421
59726W        W31342   9.137  39.910   3.799
59727W        W31343  38.908  11.149  13.694
59728W        W31344  15.465  27.624   3.235
59729W        W31345  11.403  29.490  14.171
59730W        W31346  16.226   5.040   4.994
59731W        W31347   6.152  43.286   3.206
59732W        W31348   7.414  27.772  14.049
59733W        W31349   3.382   7.868   4.565
59734W        W31350  31.208  42.731   5.347
59735W        W31351  20.488   3.271   2.863
59736W        W31352  26.169  38.479   1.296
59737W        W31353  24.086  39.379   1.677
59738W        W31354  27.692  31.420   3.327
59739W        W31355   6.921   8.887   2.151
59740W        W31356   1.905  39.519  14.871
59741W        W31357  41.317  24.066   3.455
59742W        W31358  22.034  35.089  10.542
59743W        W31359  37.982  35.704  13.688
59744W        W31360  43.009  24.598  13.004
59745W        W31361  25.433  12.279   2.193
59746W        W31362  30.112  44.419  14.522
59747W        W31363  20.517  23.663  12.773
59748W        W31364  38.478   7.295   3.273
59749W        W31365   9.894  39.590   3.638
59750W        W31366  28.128  25.649   0.786
59751W        W31367   3.561  38.095  12.491
59752W        W31368  21.551   4.244   4.066
59753W        W31369   8.291   3.720   3.309
59754W        W31370  18.288  22.753  12.082
59755W        W31371  41.765  29.195   2.957
59756W        W31372  20.776  31.607   4.879
59757W        W31373  19.942  38.859   4.318
59758W        W31374  38.784  42.278  13.924
59759W        W31375  24.193  32.739  11.649
59760W        W31376  16.315  24.714   4.393
59761W        W31377  16.302  30.923  14.708
59762W        W31378  33.191  30.061  11.581
59763W        W31379   5.551  41.633   3.407
59764W        W31380  24.253   9.185  13.062
59765W        W31381   3.404  16.759  11.616
59766W        W31382  32.350  28.617  12.488
59767W        W31383  18.022   0.684   0.870
59768W        W31384  13.325  24.918  13.465
59769W        W31385  23.049  33.321  13.131
59770W        W31386   5.156  22.666  11.807
59771W        W31387  20.175  15.304  11.559
59772W        W31388   9.702  30.509   2.100
59773W        W31389   9.256  16.307   0.338
59774W        W31390  17.934  21.694   1.864
59775W        W31391  17.583  15.800   4.884
59776W        W31392  15.502  37.962   4.658
59777W        W31393   7.755  20.482   2.355
59778W        W31394  35.226  33.001   0.822
59779W        W31395   1.153  12.515   3.803
59780W        W31396  30.265   2.801   2.223
59781W        W31397   6.781  21.226  11.951
59782W        W31398  24.292  26.733  12.075
59783W        W31399  14.352  35.508   4.520
59784W        W31400  39.487  24.738   1.424
59785W        W31401  33.561  21.319   5.113
59786W        W31402  27.874  40.687   1.055
59787W        W31403  35.969  27.900   0.907
59788W        W31404   1.396   3.907   3.286
59789W        W31405   3.241  24.937   0.387
59790W        W31406  10.304  26.967   2.434
59791W        W31407  26.487   2.381  13.172
59792W        W31408  27.239   8.433  11.237
59793W        W31409  41.176  29.467   3.711
59794W        W31410  22.156  14.105  13.623
59795W        W31411  32.930  16.690   3.690
59796W        W31412  36.886  37.890   3.670
59797W        W31413   8.378  24.741  11.611
59798W        W31414  28.630  14.621   3.814
59799W        W31415  20.643   6.197  14.003
59800W        W31416  12.170  15.178  13.979
59801W        W31417  27.188  40.197  10.756
59802W        W31418  30.325   7.146  12.126
59803W        W31419   6.585  25.013   4.087
59804W        W31420   6.224  26.749  11.505
59805W        W31421  17.132  44.787  14.342
59806W        W31422  17.851   5.756   3.208
59807W        W31423  38.870  18.331  10.773
59808W        W31424  33.575   2.447   1.347
59809W        W31425  37.856  18.991  11.627
59810W        W31426  11.576  40.456   2.191
59811W        W31427  36.489  43.790  14.524
59812W        W31428  42.249  26.000  12.033
59813W        W31429  20.897   9.364  13.840
59814W        W31430  27.774  31.042  14.827
59815W        W31431  42.999   4.665   2.245
59816W        W31432   7.222  37.197   4.312
59817W        W31433  42.306  40.357  11.919
59818W        W31434   9.137  39.732   4.532
59819W        W31435   3.896  16.166   1.557
59820W        W31436  18.487  24.980   0.534
59821W        W31437   5.755  17.181   3.043
59822W        W31438  17.161  25.159   1.006
59823W        W31439   6.201  43.445  14.177
59824W        W31440   8.135   0.475   0.863
59825W        W31441   8.244   6.300  13.894
59826W        W31442  43.831  20.192   3.547
59827W        W31443   1.045   4.451  13.904
59828W        W31444  18.548  43.487  13.009
59829W        W31445  25.194  35.081  11.089
59830W        W31446  29.349  29.529   3.197
59831W        W31447   0.672   4.213  12.047
59832W        W31448  17.578  37.715   0.227
59833W        W31449  40.502  24.715  13.049
59834W        W31450  33.022  44.974  14.393
59835W        W31451  21.985  18.105  12.660
59836W        W31452   0.905  26.145   2.208
59837W        W31453   9.277  30.647   3.582
59838W        W31454  37.432  11.137  14.747
59839W        W31455   8.328   5.254  14.045
59840W        W31456  16.820  27.770   1.383
59841W        W31457   5.663   4.432  14.801
59842W        W31458   2.648  35.178   1.425
59843W        W31459  26.096  35.382   0.019
59844W        W31460  24.365  24.915   1.730
59845W        W31461  36.657  33.098   3.723
59846W        W31462  16.810  37.094   1.831
59847W        W31463   8.673  42.043  11.225
59848W        W31464  32.897  41.405  14.364
59849W        W31465  12.230   5.432  11.902
59850W        W31466  24.425  12.667   1.446
59851W        W31467  13.681   2.570  12.512
59852W        W31468  30.087  34.906   3.855
59853W        W31469   1.377  12.782  11.089
59854W        W31470  30.624  24.010  12.910
59855W        W31471   8.274  21.016   2.365
59856W        W31472  19.426  25.426   0.793
59857W        W31473   8.283  42.233  14.520
59858W        W31474   5.774  20.964  11.071
59859W        W31475   3.208  40.758  13.279
59860W        W31476  10.843  23.605   1.789
59861W        W31477  26.886   7.258   2.204
59862W        W31478  16.895   7.404  12.147
59863W        W31479  13.013   7.497   4.251
59864W        W31480  22.502  33.899  11.119
59865W        W31481  34.588  25.014  10.696
59866W        W31482  27.181  43.815   2.185
59867W        W31483  29.537  38.265  13.936
59868W        W31484  32.566  16.605   1.721
59869W        W31485  43.532  29.225   0.498
59870W        W31486  38.435   0.136  14.877
59871W        W31487  14.583  24.627  10.783
59872W        W31488  40.829  42.063  12.426
59873W        W31489  37.202  29.874  12.063
59874W        W31490  31.680  11.245   4.384
59875W        W31491  27.961  19.931   3.648
59876W        W31492   0.010  32.832  10.866
59877W        W31493  31.709   6.037   2.829
59878W        W31494  20.585  33.051   4.620
59879W        W31495  21.098  33.791   2.618
59880W        W31496  14.260   8.228   3.760
59881W        W31497  16.758  31.912   0.739
59882W        W31498  26.936   0.413   4.378
59883W        W31499  30.831  24.200   2.315
59884W        W31500   7.724  17.340  13.465
59885W        W31501  25.479  21.639   0.797
59886W        W31502  41.382  24.920   1.189
59887W        W31503  12.657  28.369  13.587
59888W        W31504  31.574  43.768  13.377
59889W        W31505  21.530  17.072   0.793
59890W        W31506   7.713  20.944   0.487
59891W        W31507  42.808   6.342  12.551
59892W        W31508  33.135  20.267   2.852
59893W        W31509  44.859  35.321  13.909
59894W        W31510  24.560   0.863   4.681
59895W        W31511  40.458  19.078  11.417
59896W        W31512  25.446  24.069   2.928
59897W        W31513  38.454  11.842  14.286
59898W        W31514  33.160   2.219  13.986
59899W        W31515  29.182  15.553  11.060
59900W        W31516  40.873  15.046   1.796
59901W        W31517   3.878   7.658  10.579
59902W        W31518  40.516  34.973  11.123
59903W        W31519  27.158  23.687  13.227
59904W        W31520  27.946  41.002   0.075
59905W        W31521   5.361  34.490   2.345
59906W        W31522  19.110  12.736   4.457
59907W        W31523  29.111  36.351  10.652
59908W        W31524  21.337  11.577   3.723
59909W        W31525   5.929  11.773   1.904
59910W        W31526  13.563  16.805   4.957
59911W        W31527  38.238  15.272  11.968
59912W        W31528   1.010  41.179   4.651
59913W        W31529  44.948  37.857   0.156
59914W        W31530  22.570   9.906   0.335
59915W        W31531  13.744   3.468  12.058
59916W        W31532  17.548  37.069  12.471
59917W        W31533  39.775   2.717  12.483
59918W        W31534   9.375  39.331   1.248
59919W        W31535  17.591  20.005  12.062
59920W        W31536   8.877  14.840  14.484
59921W        W31537  43.856  15.302   4.153
59922W        W31538  19.010   0.142   1.433
59923W        W31539  39.128  42.162   4.503
59924W        W31540  43.548   3.104   4.193
59925W        W31541   7.471   5.394  12.843
59926W        W31542  14.704  29.750  11.284
59927W        W31543  40.853  41.568  10.727
59928W        W31544  32.491  41.559   3.601
59929W        W31545  10.420   7.117   4.369
59930W        W31546   9.985   6.706  11.512
59931W        W31547  21.233  34.081  12.073
59932W        W31548  40.300  31.241  13.376
59933W        W31549  37.463  27.914  14.827
59934W        W31550   0.326   3.052   4.704
59935W        W31551   8.127  17.629   0.341
59936W        W31552  34.470  19.074   0.917
59937W        W31553  20.580   2.300  11.582
59938W        W31554  30.661  36.951   0.290
59939W        W31555  33.931  40.694   1.381
59940W        W31556  37.433   4.727   0.376
59941W        W31557  40.041  25.581   0.769
59942W        W31558   8.172  32.613  14.273
59943W        W31559   0.641   2.643   1.294
59944W        W31560  12.441  22.560   2.787
59945W        W31561   3.507   2.885   2.684
59946W        W31562   8.301  30.528  10.947
59947W        W31563   2.241  21.236   2.292
59948W        W31564   7.669   5.411  14.953
59949W        W31565   9.339   9.399   1.962
59950W        W31566  23.596  35.352   4.117
59951W        W31567  41.044  33.087   2.350
59952W        W31568  22.745  32.418  13.525
59953W        W31569  39.339  15.024   4.876
59954W        W31570  28.713  19.666  11.633
59955W        W31571   2.948  21.074  12.192
59956W        W31572  22.258   4.820   2.109
59957W        W31573  11.334  32.124   3.601
59958W        W31574  27.025  20.035   2.859
59959W        W31575  16.621   5.774   0.022
59960W        W31576  12.631  34.713   4.173
59961W        W31577  20.435  34.476  12.919
59962W        W31578  19.703  15.562  14.451
59963W        W31579   9.813   8.298  10.828
59964W        W31580  27.205  37.069  11.171
59965W        W31581   3.523  11.405  10.549
59966W        W31582   5.153   3.243   4.199
59967W        W31583  17.078  42.329   1.298
59968W        W31584  22.205  40.977   3.854
59969W        W31585   7.242  16.539  14.273
59970W        W31586  26.630  28.639   2.425
59971W        W31587  20.156  20.809   0.522
59972W        W31588  21.320  42.383   0.506
59973W        W31589  36.124  24.943  13.553
59974W        W31590  21.554  31.943   2.442
59975W        W31591  30.481  14.793   4.214
59976W        W31592  10.885  18.280   2.131
59977W        W31593  22.444  38.981   0.481
59978W        W31594  32.277  27.462   5.071
59979W        W31595  14.369  26.649   1.858
59980W        W31596  33.214  35.810  13.434
59981W        W31597  13.784   0.271  14.986
59982W        W31598  44.182  31.612  13.497
59983W        W31599  36.031  12.619   0.563
59984W        W31600  33.552  44.282   4.775
59985W        W31601  18.547  34.065   3.453
59986W        W31602   7.921   4.485  11.603
59987W        W31603  26.778  24.709   2.352
59988W        W31604   5.651  36.044   4.246
59989W        W31605  23.690  10.222  11.140
59990W        W31606  18.841  43.878  14.252
59991W        W31607  41.724  21.163   0.337
59992W        W31608  22.649   4.264   1.333
59993W        W31609  30.184  37.840  13.516
59994W        W31610  42.271  39.203   2.882
59995W        W31611   9.396  32.175  13.940
59996W        W31612   6.039  16.879   3.368
59997W        W31613  42.809  31.960  11.877
59998W        W31614  36.957  12.382   2.886
59999W        W31615  41.298  30.462  13.014
60000W        W31616  39.039  10.223  11.314
60001W        W31617  21.245  29.367  10.921
60002W        W31618  25.835  15.005  14.872
60003W        W31619  37.242  25.402   0.373
60004W        W31620  37.119  27.478   2.601
60005W        W31621  15.263  29.261  14.302
60006W        W31622  22.515  36.017   3.266
60007W        W31623  18.108  26.666  11.620
60008W        W31624  32.429  38.523   3.197
60009W        W31625  35.889  28.596  14.461
60010W        W31626  44.228  12.673  13.464
60011W        W31627  35.542   9.238  12.530
60012W        W31628   5.945  21.828  12.751
60013W        W31629   1.463  25.241   1.515
60014W        W31630   2.860  41.022   1.014
60015W        W31631   6.678  38.661   3.260
60016W        W31632  42.023  19.524   0.700
60017W        W31633  30.521  17.851   3.741
60018W        W31634  17.055   0.394  14.790
60019W        W31635  22.988  26.526  14.866
60020W        W31636  33.433  20.728  14.325
60021W        W31637  21.691   8.102  10.704
60022W        W31638  29.455   0.993  13.396
60023W        W31639   8.929   0.344   0.664
60024W        W31640   8.405  18.980  11.417
60025W        W31641   9.234  21.108   0.395
60026W        W31642  29.989  16.168   4.108
60027W        W31643  27.000  23.082   4.072
60028W        W31644  25.338  13.799  12.907
60029W        W31645  15.173  41.073  13.584
60030W        W31646  19.155  44.440  14.552
60031W        W31647  39.888  16.394   4.103
60032W        W31648  41.514  15.470  14.497
60033W        W31649  42.783   9.417  11.571
60034W        W31650  26.686   1.239   0.946
60035W        W31651   5.204  13.938  13.435
60036W        W31652  19.902  19.903  11.160
60037W        W31653  30.463  26.381   4.149
60038W        W31654   0.137  34.591   3.772
60039W        W31655  39.339   7.945  12.012
60040W        W31656  22.818  44.294   3.566
60041W        W31657  32.886   7.199  10.876
60042W        W31658   7.438  42.791   4.140
60043W        W31659   0.759  13.859   0.761
60044W        W31660  31.172   2.324   3.883
60045W        W31661  23.502  31.415  12.092
60046W        W31662  35.346  31.122   2.261
60047W        W31663  15.315  18.810   9.891
60048W        W31664  19.775  27.033  13.494
60049W        W31665  11.145   9.155  13.792
60050W        W31666  20.263   8.243  13.805
60051W        W31667   9.601  13.643   4.359
60052W        W31668  39.480  17.594   2.839
60053W        W31669  21.755   7.340  11.954
60054W        W31670  43.272  10.134  12.943
60055W        W31671  22.297  13.265   1.784
60056W        W31672   0.710  13.623  12.410
60057W        W31673  27.558   1.857  11.910
60058W        W31674   1.401   6.418  10.766
60059W        W31675  22.228  44.348  13.341
60060W        W31676   4.884  29.017  12.886
60061W        W31677  20.343  35.980   2.435
60062W        W31678  10.202  19.597  14.011
60063W        W31679   7.111  13.906   2.379
60064W        W31680   4.735  22.203  12.427
60065W        W31681   6.157  38.442   1.945
60066W        W31682  41.256  14.912  13.320
60067W        W31683  12.013   9.056   3.269
60068W        W31684  26.168   0.231   0.976
60069W        W31685   8.781  38.004  13.261
60070W        W31686  33.065  24.255  10.686
60071W        W31687  38.661  40.057  14.912
60072W        W31688  33.395  19.481   4.310
60073W        W31689  24.552  12.694  13.665
60074W        W31690   2.278  38.819   0.018
60075W        W31691   1.406  11.820   1.165
60076W        W31692  36.432  40.568  10.668
60077W        W31693   6.302  20.314   0.782
60078W        W31694  14.796  36.394   2.634
60079W        W31695  36.604  16.530   0.769
60080W        W31696  40.382  25.163  10.339
60081W        W31697  44.326  19.590   1.158
60082W        W31698  22.206   5.587   2.748
60083W        W31699  43.769  10.387  11.124
60084W        W31700   7.389  15.160  14.752
60085W        W31701  19.341   7.832   4.272
60086W        W31702   3.409  41.489  12.555
60087W        W31703   8.517  24.670   0.020
60088W        W31704  32.508  44.078  11.249
60089W        W31705  19.225  44.795   9.822
60090W        W31706  21.468  28.536   2.360
60091W        W31707  13.802  17.898  13.895
60092W        W31708  17.737  14.374  11.075
60093W        W31709  37.344  32.428   3.848
60094W        W31710  38.977  31.045  13.847
60095W        W31711  29.508  23.477   0.941
60096W        W31712  21.592  30.460  10.921
60097W        W31713  37.733   4.445  10.508
60098W        W31714  20.466  10.751  13.996
60099W        W31715  43.452  13.180   4.103
60100W        W31716   8.290  24.669  13.030
60101W        W31717  24.786  10.842   3.784
60102W        W31718  12.218  31.014  13.818
60103W        W31719  23.518   9.114  13.446
60104W        W31720  11.392  43.995  12.999
60105W        W31721   7.858  38.439   2.897
60106W        W31722  40.443  14.662  10.818
60107W        W31723  13.261  37.357  11.939
60108W        W31724   5.467  24.762  10.669
60109W        W31725  38.771  27.502   3.768
60110W        W31726   9.701  10.186  10.653
60111W        W31727   5.368   1.515  11.079
60112W        W31728   9.765  32.954   1.690
60113W        W31729  43.546  30.131   2.227
60114W        W31730  33.976  23.469   3.873
60115W        W31731  16.806   9.919  11.669
60116W        W31732  34.333  32.989   3.033
60117W        W31733  15.213   9.693   3.520
60118W        W31734  31.906  41.029  12.453
60119W        W31735  44.648  20.461   0.722
60120W        W31736  25.706  19.836   3.083
60121W        W31737  32.640   6.021  13.629
60122W        W31738  35.646  18.696  11.505
60123W        W31739   5.915  28.796  10.418
60124W        W31740  16.576   0.272  14.973
60125W        W31741  33.153  10.789   1.884
60126W        W31742  17.765  11.650   2.192
60127W        W31743  32.315  35.441   3.856
60128W        W31744  22.281   1.313  14.548
60129W        W31745  30.888  40.173   4.211
60130W        W31746  28.892  20.353  13.321
60131W        W31747  20.222  20.017   2.708
60132W        W31748  38.664  13.094  14.931
60133W        W31749   7.349  32.950  10.652
60134W        W31750  43.433  40.721   2.140
60135W        W31751  42.485  36.896   2.797
60136W        W31752  34.124  10.400   4.139
60137W        W31753  37.387  17.312  10.911
60138W        W31754  38.542  25.541   0.780
60139W        W31755  20.302  10.176   1.802
60140W        W31756  20.783  13.700  10.406
60141W        W31757  29.345   8.211   1.716
60142W        W31758  14.654  26.027   4.370
60143W        W31759  42.228  29.746  13.636
60144W        W31760  13.898  34.869  10.738
60145W        W31761  18.700  41.358   3.091
60146W        W31762  27.672  23.991   1.262
60147W        W31763   8.463  14.539  14.408
60148W        W31764   5.802  16.290  14.302
60149W        W31765  11.779  37.429  13.076
60150W        W31766  34.610  28.490  13.314
60151W        W31767  24.895  14.686  10.447
60152W        W31768  33.087  23.054  14.862
60153W        W31769  22.144  37.048  10.911
60154W        W31770  40.929  39.280  10.982
60155W        W31771  38.064   0.373  10.441
60156W        W31772  35.805  18.872  13.800
60157W        W31773   4.123   3.854   1.079
60158W        W31774  26.164  20.460   3.081
60159W        W31775  13.178  22.718   4.537
60160W        W31776  13.806  16.156   0.616
60161W        W31777  15.054  39.394  11.949
60162W        W31778   0.226   9.538   3.765
60163W        W31779  25.709  32.379   0.784
60164W        W31780  17.267  40.060  10.469
60165W        W31781   2.283  31.115  11.109
60166W        W31782  31.564  20.980  11.516
60167W        W31783   7.388   8.854  14.008
60168W        W31784  10.871  19.505  10.742
60169W        W31785  36.011  33.822   0.941
60170W        W31786  21.289   3.021   2.606
60171W        W31787  21.271  27.583   0.876
60172W        W31788  42.644  25.960   3.531
60173W        W31789  17.347  20.698  11.684
60174W        W31790  22.745  28.794   4.089
60175W        W31791  22.169  34.190   3.172
60176W        W31792  10.405   8.646  11.626
60177W        W31793   9.373   1.824  14.439
60178W        W31794   3.119  35.887  12.055
60179W        W31795  18.788  15.247  13.988
60180W        W31796   9.723   0.285  14.525
60181W        W31797  29.213  11.816  14.749
60182W        W31798  36.001   0.468   4.002
60183W        W31799  21.233  28.628   4.140
60184W        W31800  11.792  18.430  12.198
60185W        W31801  28.195  36.168   2.331
60186W        W31802  34.549   6.922  11.633
60187W        W31803   9.766  36.565  13.950
60188W        W31804   3.465  18.287  10.196
60189W        W31805  42.379  23.638   2.659
60190W        W31806  14.545  13.561  13.393
60191W        W31807  30.493   2.509  11.773
60192W        W31808  31.610  31.866  11.531
60193W        W31809  29.775  30.139   3.824
60194W        W31810  22.653  17.144   4.038
60195W        W31811  29.067  31.010   2.003
60196W        W31812   1.262  18.313  11.527
60197W        W31813  10.613   0.354  11.022
60198W        W31814  41.114  22.681  11.556
60199W        W31815   1.248   3.320   1.246
60200W        W31816  28.582  34.401   2.300
60201W        W31817  39.272   2.614   4.477
60202W        W31818  36.897  13.706   4.042
60203W        W31819  44.353  41.548  12.669
60204W        W31820   2.931  24.563  14.388
60205W        W31821  21.526  14.244  10.415
60206W        W31822  22.466  39.732  11.181
60207W        W31823  41.574   7.685   3.691
60208W        W31824  43.438  38.543   0.960
60209W        W31825  12.219  39.778  14.414
60210W        W31826   2.358  16.690   3.272
60211W        W31827   3.418  13.810  10.497
60212W        W31828  16.468  34.398   0.776
60213W        W31829  42.305  22.081   0.902
60214W        W31830  37.380   1.642   1.288
60215W        W31831   5.750   8.877   4.599
60216W        W31832  30.138   4.863   2.719
60217W        W31833   0.794  18.254  14.408
60218W        W31834  11.290  35.858   3.253
60219W        W31835   1.730  29.776   3.084
60220W        W31836  41.423  32.236   0.294
60221W        W31837   7.678  35.161  11.249
60222W        W31838  25.514  44.458   3.326
60223W        W31839  14.098  38.865  10.615
60224W        W31840  43.480  38.303   3.276
60225W        W31841  41.960  27.196   4.360
60226W        W31842   9.383  13.381  13.415
60227W        W31843   4.067  18.859   3.274
60228W        W31844   5.231  28.644  11.208
60229W        W31845  24.765  20.602   4.027
60230W        W31846  12.631   5.096   5.041
60231W        W31847  18.212  31.406   1.409
60232W        W31848  29.189   1.985  14.876
60233W        W31849   4.786  27.518  12.492
60234W        W31850   9.174   3.402  11.857
60235W        W31851  44.370  31.379  11.960
60236W        W31852  21.093   3.186   3.063
60237W        W31853  24.318  18.750   4.100
60238W        W31854   7.717  29.508  11.960
60239W        W31855  44.814  37.138  13.687
60240W        W31856  19.342  27.051   4.930
60241W        W31857  36.430  37.531   1.894
60242W        W31858  29.369  16.279  13.776
60243W        W31859  25.084  33.304  11.573
60244W        W31860  35.161  44.027  14.324
60245W        W31861  17.287  20.554   2.433
60246W        W31862  22.062  38.697  13.898
60247W        W31863   0.519  10.213  14.351
60248W        W31864  15.923   7.158   4.980
60249W        W31865  24.683  17.104   1.575
60250W        W31866  21.495  41.526  11.887
60251W        W31867  21.725   4.684  13.294
60252W        W31868  22.146   5.376  13.829
60253W        W31869  19.777  37.516  13.767
60254W        W31870  42.762  11.285  11.127
60255W        W31871  14.354   0.911  13.030
60256W        W31872  11.442  12.336   1.314
60257W        W31873   6.898  42.424  10.765
60258W        W31874  24.855  14.442   1.780
60259W        W31875  20.672  35.801  13.563
60260W        W31876  44.311  19.794  13.787
60261W        W31877  36.381  33.966   4.130
60262W        W31878  41.464   8.202  12.089
60263W        W31879   4.839  17.049  14.811
60264W        W31880  35.760  35.264  14.229
60265W        W31881  35.477  17.687  12.018
60266W        W31882  26.599  18.834   2.866
60267W        W31883  44.965   1.199   2.597
60268W        W31884  16.738   2.458  11.881
60269W        W31885  27.595  34.531  10.653
60270W        W31886  26.314  19.757   0.321
60271W        W31887   7.765  16.338   0.807
60272W        W31888  31.206   9.106  13.287
60273W        W31889  44.911   5.846  10.640
60274W        W31890  14.582  22.258  13.883
60275W        W31891  17.205  25.759  11.442
60276W        W31892  32.794   5.900  10.629
60277W        W31893  38.167  41.935  13.058
60278W        W31894  16.341  26.997   3.827
60279W        W31895  10.327  40.964   4.427
60280W        W31896  25.479  24.492  13.259
60281W        W31897  42.745  14.657  13.429
60282W        W31898  37.796  10.785  11.241
60283W        W31899  16.503  20.326  12.612
60284W        W31900  21.112  37.087   4.305
60285W        W31901  44.428  11.637  14.290
60286W        W31902  25.554   8.889   0.673
60287W        W31903  38.591  14.033  11.604
60288W        W31904  19.972  29.576   3.592
60289W        W31905  24.232   3.828   1.739
60290W        W31906  31.547  11.587  10.452
60291W        W31907   2.557   8.132  12.117
60292W        W31908  41.194  37.406   3.258
60293W        W31909  38.981   4.955  14.489
60294W        W31910   7.871  24.745  10.423
60295W        W31911  19.200  12.797  14.524
60296W        W31912  21.582  26.818   2.349
60297W        W31913  20.148  35.353  10.649
60298W        W31914  26.445   1.921  11.184
60299W        W31915  14.216  25.539  13.594
60300W        W31916  12.434  34.345  14.746
60301W        W31917   4.721  17.566  10.386
60302W        W31918   8.516   4.763  12.653
60303W        W31919  23.029   6.420   2.904
60304W        W31920  25.510  43.321  12.921
60305W        W31921   2.434  17.703   1.717
60306W        W31922  27.328  41.740  13.038
60307W        W31923  36.874  34.670  14.925
60308W        W31924  18.330  20.254   2.226
60309W        W31925  25.530   7.890   4.881
60310W        W31926  30.922  43.381  14.062
60311W        W31927  29.653  39.336   4.821
60312W        W31928   4.708  32.912   1.065
60313W        W31929  40.873   6.066   3.246
60314W        W31930  38.590  44.963   1.600
60315W        W31931  39.327  31.804   4.176
60316W        W31932   6.437  39.378  12.123
60317W        W31933  16.244  11.224  10.947
60318W        W31934  33.341   0.360   3.896
60319W        W31935   6.729  42.531   2.822
60320W        W31936  42.366  22.142  11.505
60321W        W31937  40.716  18.739   0.444
60322W        W31938   8.813  30.937   0.960
60323W        W31939  34.142  40.538  10.338
60324W        W31940   9.267  41.608  13.213
60325W        W31941  15.257  30.934   2.455
60326W        W31942  16.274   4.138   4.075
60327W        W31943   5.769  28.287   2.815
60328W        W31944   6.845  27.014   0.045
60329W        W31945   4.626  12.862  10.245
60330W        W31946  13.008   2.982  11.485
60331W        W31947  27.444   5.261   0.402
60332W        W31948  14.711  38.860   2.330
60333W        W31949  11.635  22.256  10.710
60334W        W31950   2.600   5.228   3.736
60335W        W31951  27.620  22.828  13.987
60336W        W31952  34.540   6.454   2.756
60337W        W31953   4.725  11.756   4.565
60338W        W31954  41.856  43.029   1.884
60339W        W31955  25.764  17.601   2.380
60340W        W31956   6.296  34.211  13.804
60341W        W31957  20.819  37.517  10.692
60342W        W31958  22.400  39.486   0.690
60343W        W31959  10.654  44.063   0.327
60344W        W31960  41.737  32.120   5.317
60345W        W31961  12.567  13.608  12.605
60346W        W31962  43.949   2.417   0.808
60347W        W31963  41.333  39.347   1.458
60348W        W31964  17.091   7.646  10.551
60349W        W31965  25.018  23.848   1.291
60350W        W31966  15.444   9.197  12.606
60351W        W31967  36.987  38.234  12.573
60352W        W31968  22.446  16.367  11.498
60353W        W31969  37.377  22.681  12.489
60354W        W31970  17.919   2.024   0.885
60355W        W31971  25.439  27.534  11.739
60356W        W31972  25.679  25.207   4.175
60357W        W31973  43.736  17.722   5.094
60358W        W31974  37.657  22.050  12.965
60359W        W31975  24.982  13.065   0.932
60360W        W31976  15.042  32.549  11.519
60361W        W31977  15.131  12.795  11.186
60362W        W31978   9.135  18.557  12.965
60363W        W31979  33.181   9.001   2.328
60364W        W31980  43.683  30.978  10.949
60365W        W31981  20.686  16.654   1.687
60366W        W31982  28.488   0.297  12.784
60367W        W31983   0.872  42.426   3.711
60368W        W31984  19.213  23.276   0.569
60369W        W31985  13.143  25.285  11.071
60370W        W31986  31.985   4.396  14.450
60371W        W31987  34.403  23.995   2.643
60372W        W31988  43.840  23.608  14.428
60373W        W31989  22.401   8.763  12.919
60374W        W31990  21.645  12.357  14.607
60375W        W31991  35.820  15.761   2.946
60376W        W31992  20.215  11.692  14.370
60377W        W31993  28.489  29.010  13.357
60378W        W31994  35.090  27.064   4.409
60379W        W31995  35.061  37.975  13.383
60380W        W31996  32.370  16.271  12.816
60381W        W31997  42.232   3.672   4.192
60382W        W31998  26.662  43.249   3.738
60383W        W31999  37.929   1.825   0.019
60384W        W32000   3.849  40.993   1.938
60385W        W32001  19.191  27.089   1.250
60386W        W32002   9.230   3.357   1.722
60387W        W32003  22.471  33.948   0.816
60388W        W32004  10.703   9.345  10.653
60389W        W32005  12.668  28.181   4.096
60390W        W32006  28.995  23.565   0.846
60391W        W32007   9.562   6.029   0.006
60392W        W32008  19.975   8.668   3.226
60393W        W32009   2.925  43.293   0.930
60394W        W32010   3.827  17.577   0.778
60395W        W32011   6.750  18.491   2.975
60396W        W32012   2.364  38.362   4.116
60397W        W32013  17.983   4.885   4.604
60398W        W32014  42.815   5.394   2.839
60399W        W32015  12.802  35.148  11.945
60400W        W32016  38.599  27.303   4.227
60401W        W32017  38.111  20.735   4.026
60402W        W32018  38.321  36.519  12.527
60403W        W32019   4.723  10.367   5.074
60404W        W32020  19.626  18.248  13.831
60405W        W32021  25.531  33.271  12.758
60406W        W32022  42.109  10.669   2.261
60407W        W32023  15.797  19.171   5.092
60408W        W32024  43.830  39.033  12.285
60409W        W32025  23.777   2.113   0.923
60410W        W32026   5.790  32.861  14.854
60411W        W32027   4.770  18.090  10.495
60412W        W32028  43.280  16.607  10.982
60413W        W32029  12.193  33.898   4.582
60414W        W32030   7.113  27.985   2.511
60415W        W32031  13.257  44.966  14.843
60416W        W32032  13.262  18.755  10.476
60417W        W32033  42.963  13.979   0.439
60418W        W32034  29.160  29.034   9.816
60419W        W32035  18.271  35.042  11.565
60420W        W32036  27.534   8.612  11.638
60421W        W32037  22.804  40.883   2.809
60422W        W32038   8.818  39.144  14.326
60423W        W32039  41.726  32.449   2.409
60424W        W32040  18.207  32.885   0.939
60425W        W32041  34.753  16.125   1.332
60426W        W32042  18.172  34.697   1.729
60427W        W32043  27.264  25.062   5.204
60428W        W32044  17.164   9.578  10.316
60429W        W32045  38.465  24.305   4.230
60430W        W32046   9.841   5.692   4.665
60431W        W32047  17.150  44.902  12.127
60432W        W32048   7.926  16.075   2.588
60433W        W32049   1.804  44.064   1.248
60434W        W32050   4.790  33.154  11.586
60435W        W32051   7.404  30.347  11.343
60436W        W32052  44.540  37.559   1.313
60437W        W32053   0.977  25.068   3.807
60438W        W32054  42.281   6.531   0.226
60439W        W32055  36.582  35.394   4.451
60440W        W32056  25.113  16.117   0.279
60441W        W32057   4.272  24.320  12.988
60442W        W32058  23.168   1.917   2.924
60443W        W32059  38.117  29.174  13.558
60444W        W32060  44.399  15.174  14.849
60445W        W32061  40.898  42.264  14.513
60446W        W32062  40.356  10.162  11.483
60447W        W32063  11.066   2.269   3.065
60448W        W32064   7.663  42.339   3.291
60449W        W32065  16.694   4.281  14.744
60450W        W32066  14.778  44.174   3.290
60451W        W32067   8.850  22.186  11.174
60452W        W32068  24.999   3.383  12.077
60453W        W32069  30.388  11.805  13.033
60454W        W32070   7.716  14.210  12.480
60455W        W32071  19.663  20.463  12.517
60456W        W32072  38.024  20.219   3.239
60457W        W32073   6.621  21.259   2.281
60458W        W32074  23.286  39.035   4.541
60459W        W32075   6.351   5.667  10.067
60460W        W32076   4.129  11.380  13.729
60461W        W32077  22.523  30.203  11.642
60462W        W32078   2.397  19.497   2.018
60463W        W32079  32.425  25.341  14.812
60464W        W32080  29.153   1.833  14.351
60465W        W32081  16.903   9.245   3.227
60466W        W32082  14.178   1.428  13.018
60467W        W32083   5.431  29.855   3.227
60468W        W32084  25.977  21.705   0.930
60469W        W32085  43.023  19.580   2.806
60470W        W32086   0.204  20.703  13.399
60471W        W32087   1.922  19.462   1.784
60472W        W32088  26.755  35.122  14.883
60473W        W32089   1.277   1.872  14.509
60474W        W32090  30.490   6.025   3.790
60475W        W32091  33.917  10.940  13.514
60476W        W32092   1.371  20.005  12.776
60477W        W32093  38.705  38.123  10.540
60478W        W32094  23.731   1.896   4.180
60479W        W32095  11.078  25.846  12.244
60480W        W32096  40.328  25.208  11.334
60481W        W32097  34.699   0.197  12.032
60482W        W32098   0.958  34.843  14.344
60483W        W32099   3.793   3.845   0.067
60484W        W32100  25.680  39.020  11.628
60485W        W32101  20.200  12.644  13.067
60486W        W32102  26.675  35.609  12.189
60487W        W32103   3.126  13.543  11.056
60488W        W32104  21.165   2.538   2.787
60489W        W32105  13.377  26.277   0.344
60490W        W32106  32.434  40.409   3.234
60491W        W32107  11.233   0.572  13.866
60492W        W32108   3.210  38.899   2.787
60493W        W32109  12.406   3.410  13.521
60494W        W32110  41.870  36.831  14.179
60495W        W32111  36.823  10.601  11.432
60496W        W32112  28.269   6.374  13.988
60497W        W32113  21.639  11.179  12.525
60498W        W32114  11.626  39.296  11.073
60499W        W32115  12.949  30.648   2.273
60500W        W32116  31.517  15.032  12.863
60501W        W32117  34.609  28.449   0.966
60502W        W32118  38.596   7.245  10.134
60503W        W32119  12.178   3.806   2.379
60504W        W32120  22.295  38.324   1.078
60505W        W32121  38.838   6.839  13.002
60506W        W32122  39.446  21.728  11.546
60507W        W32123  19.178  13.240   4.657
60508W        W32124   9.154  11.130  11.510
60509W        W32125   1.332  35.149  12.544
60510W        W32126  23.671  34.689  14.367
60511W        W32127  27.728  40.839   2.809
60512W        W32128  43.759  31.367  14.991
60513W        W32129  38.654   7.151   2.798
60514W        W32130  12.630  23.185   0.383
60515W        W32131   8.291  38.635   4.238
60516W        W32132  22.163   4.422   3.451
60517W        W32133  42.508  33.439  11.161
60518W        W32134  13.862  33.252  12.771
60519W        W32135  31.899  22.734  14.463
60520W        W32136  15.687  33.564  14.841
60521W        W32137  14.102   7.226  12.901
60522W        W32138  20.144   4.926  13.103
60523W        W32139  42.385  31.272  13.951
60524W        W32140  42.518  19.703   1.906
60525W        W32141  18.105   8.574  14.277
60526W        W32142  36.545  44.382  13.600
60527W        W32143  13.012   4.158   5.354
60528W        W32144  11.116  16.485   3.252
60529W        W32145  41.484  17.155   0.388
60530W        W32146   8.364   1.855  12.932
60531W        W32147  28.389  10.798  10.888
60532W        W32148  21.690   2.468   2.750
60533W        W32149  42.406  11.868  12.002
60534W        W32150   2.535  36.676   5.027
60535W        W32151  21.047  10.311   4.178
60536W        W32152  13.345  18.736  12.295
60537W        W32153  24.038  12.159   4.738
60538W        W32154  26.555  23.163   4.810
60539W        W32155   8.380   9.692  13.537
60540W        W32156  42.392   6.097   3.821
60541W        W32157   3.665  36.802   0.918
60542W        W32158   2.992  44.914   4.145
60543W        W32159   5.300  10.215   4.214
60544W        W32160   1.421  43.899  14.687
60545W        W32161  21.055   8.298   3.372
60546W        W32162   1.604  30.500  14.245
60547W        W32163  32.198   7.278  13.279
60548W        W32164  30.339  15.139   3.836
60549W        W32165  18.180  13.318  12.307
60550W        W32166   1.924  16.517  14.050
60551W        W32167  17.756  40.540  12.405
60552W        W32168  34.869  42.897   3.184
60553W        W32169  16.122  27.655  11.979
60554W        W32170  11.858  32.817   9.982
60555W        W32171  29.966  30.089  10.732
60556W        W32172  44.889  27.117   3.195
60557W        W32173  16.260  22.200  12.428
60558W        W32174  38.855   3.993  14.808
60559W        W32175  21.254  29.085   2.161
60560W        W32176   9.079   7.863  12.473
60561W        W32177  41.497  43.425   1.633
60562W        W32178  37.415  13.789  14.807
60563W        W32179  28.510   9.427  11.166
60564W        W32180  21.828  19.788   3.065
60565W        W32181  38.266  26.030   0.053
60566W        W32182  14.220  34.164   2.297
60567W        W32183   2.748   8.881   0.114
60568W        W32184  28.652   4.316  12.148
60569W        W32185  18.635  22.012   2.372
60570W        W32186  31.492  15.572  14.390
60571W        W32187  29.976  40.522   3.847
60572W        W32188   0.299   1.286   1.462
60573W        W32189  43.947  40.577  12.407
60574W        W32190  11.311  40.324  11.237
60575W        W32191  15.785  42.414  10.525
60576W        W32192  27.689  12.284   1.865
60577W        W32193  15.287  25.213   4.226
60578W        W32194  19.691   6.609   2.765
60579W        W32195  14.854  14.066  10.699
60580W        W32196  19.212  33.803   0.983
60581W        W32197  35.371  33.532  10.667
60582W        W32198  19.060  39.383   2.391
60583W        W32199  17.099  44.729  13.433
60584W        W32200  16.592  23.563  11.106
60585W        W32201  43.038  37.122   1.768
60586W        W32202  18.351  32.329  11.094
60587W        W32203  35.478  29.673  11.221
60588W        W32204  40.645  17.168  10.623
60589W        W32205   6.621  11.395   0.927
60590W        W32206  36.408  19.506  13.665
60591W        W32207  29.098  41.445  11.123
60592W        W32208  14.289  42.987   2.662
60593W        W32209  25.605  19.068  12.620
60594W        W32210  42.784   4.671  11.993
60595W        W32211   8.049   0.818  12.033
60596W        W32212   3.573  14.274  14.310
60597W        W32213  23.123   2.478   4.248
60598W        W32214  27.479  22.948   2.326
60599W        W32215  41.275  12.210   2.884
60600W        W32216   6.863  37.076  14.391
60601W        W32217  28.537  34.400   0.305
60602W        W32218  43.868   9.929  12.515
60603W        W32219  21.070   7.731  14.332
60604W        W32220  10.349  30.180   0.933
60605W        W32221  22.571  20.011  13.864
60606W        W32222  26.583  33.078   0.098
60607W        W32223  23.851  28.567  14.879
60608W        W32224  36.431  20.606  11.900
60609W        W32225  25.439  12.267  12.549
60610W        W32226   8.115  43.513   0.941
60611W        W32227   5.685  27.406   1.824
60612W        W32228  44.425  15.529  14.337
60613W        W32229  40.887  13.783  12.953
60614W        W32230  26.534  25.239   0.329
60615W        W32231  30.112  23.515   2.785
60616W        W32232  13.722  26.989   4.675
60617W        W32233   0.443  13.500  12.882
60618W        W32234  22.051  24.699   0.921
60619W        W32235  22.236   0.830  12.567
60620W        W32236  29.038  19.195   4.838
60621W        W32237  16.318   4.033   0.008
60622W        W32238   5.481  35.567  10.679
60623W        W32239  42.392   5.257   0.738
60624W        W32240  15.632  37.371   3.912
60625W        W32241  22.361  21.729   1.202
60626W        W32242  34.982  29.138  12.910
60627W        W32243  29.927  21.264   1.982
60628W        W32244  38.650  25.017  13.030
60629W        W32245  42.940  16.799  10.539
60630W        W32246  20.145   3.938  10.658
60631W        W32247   0.869  27.310   3.526
60632W        W32248  35.033  17.680   4.644
60633W        W32249  35.058   6.371   1.311
60634W        W32250  38.323  40.520   3.090
60635W        W32251  30.611   9.687   1.985
60636W        W32252   8.831  42.207  10.242
60637W        W32253  37.666  12.689   0.165
60638W        W32254   4.334  20.710   2.676
60639W        W32255  13.688   3.479   1.391
60640W        W32256  25.147  14.203   2.633
60641W        W32257   6.246  32.184  13.905
60642W        W32258  18.654  32.240  14.398
60643W        W32259  34.881  37.052  13.078
60644W        W32260  22.957  35.325  10.548
60645W        W32261   8.850   7.886   3.112
60646W        W32262   8.414  32.552  13.391
60647W        W32263  41.921  19.784   4.931
60648W        W32264  18.005  11.871   4.475
60649W        W32265   0.054  37.365   3.800
60650W        W32266  20.168  44.287   2.217
60651W        W32267  25.195  29.058  14.844
60652W        W32268  36.551  31.348   2.510
60653W        W32269  31.558  22.138  11.953
60654W        W32270  16.706   5.363  11.172
60655W        W32271  44.394  20.997   3.168
60656W        W32272  14.545  12.473   1.297
60657W        W32273  10.580  31.014   2.351
60658W        W32274   7.671  28.997  12.045
60659W        W32275   0.838  11.136   4.346
60660W        W32276  42.767  24.279   0.839
60661W        W32277  20.125  44.193   5.002
60662W        W32278  19.795  20.226   5.076
60663W        W32279  36.626  18.116   0.499
60664W        W32280  25.016  20.921  12.933
60665W        W32281  44.061   9.908   0.939
60666W        W32282  26.279   9.876  14.279
60667W        W32283  44.853  40.420   3.725
60668W        W32284  29.387  34.558   3.792
60669W        W32285  32.575  28.884  11.524
60670W        W32286  44.259  35.977   1.713
60671W        W32287  14.550   6.255   0.354
60672W        W32288  26.136  22.160   0.709
60673W        W32289  26.403   0.889   1.907
60674W        W32290  33.060  30.850  11.934
60675W        W32291  27.632  22.751  13.093
60676W        W32292  33.367  25.091   5.022
60677W        W32293  26.647  18.525   4.220
60678W        W32294  39.238  35.984  12.293
60679W        W32295   1.925  33.708   2.352
60680W        W32296  34.821   1.342   3.432
60681W        W32297  37.949  15.683  12.046
60682W        W32298  13.742  29.999  12.341
60683W        W32299  29.676  31.887  14.710
60684W        W32300  31.879   2.724   3.666
60685W        W32301  40.927  44.427   2.270
60686W        W32302  14.852  39.849  13.411
60687W        W32303  16.525  42.737   4.721
60688W        W32304  44.141   3.109   1.704
60689W        W32305  43.693  34.074  12.907
60690W        W32306   7.294  15.669  14.798
60691W        W32307  27.906  20.469  12.815
60692W        W32308  12.092  15.702   3.610
60693W        W32309   1.556  30.623  12.794
60694W        W32310  32.587   6.737  11.614
60695W        W32311  32.557  19.260   1.628
60696W        W32312   7.680  40.618  12.916
60697W        W32313  15.196  11.694   3.603
60698W        W32314  15.488  35.353  14.863
60699W        W32315  11.298  38.080   4.662
60700W        W32316  28.515   9.572   1.408
60701W        W32317   7.616  38.352   3.359
60702W        W32318   8.571   7.281  14.075
60703W        W32319  20.748   4.920   3.220
60704W        W32320   8.163  15.701  11.610
60705W        W32321  25.299   1.923  14.809
60706W        W32322  25.814   8.015  13.193
60707W        W32323   4.948  24.662   0.863
60708W        W32324  43.288  21.332  10.763
60709W        W32325   7.954   7.079  11.298
60710W        W32326  34.887  13.160  14.476
60711W        W32327  37.719  27.675  11.495
60712W        W32328   9.284  16.724  13.761
60713W        W32329   7.162  32.605  12.127
60714W        W32330  27.428  13.746   3.663
60715W        W32331  33.451  21.177  10.232
60716W        W32332  15.287  16.037  13.847
60717W        W32333   6.667  39.943   4.229
60718W        W32334  20.279  28.555   1.002
60719W        W32335  26.907  19.300  12.166
60720W        W32336  34.907  28.671  10.073
60721W        W32337  40.986  34.808  12.557
60722W        W32338  42.369  19.523  11.303
60723W        W32339  20.659  38.801   2.708
60724W        W32340  13.764  13.667  11.645
60725W        W32341  30.477  33.540   0.882
60726W        W32342  44.994  14.183  11.285
60727W        W32343  37.887   6.852  14.403
60728W        W32344  23.624  16.359  11.635
60729W        W32345  28.467  11.365  14.782
60730W        W32346   1.514  42.975  14.337
60731W        W32347  35.016  33.933  14.737
60732W        W32348  28.437  32.257   1.367
60733W        W32349   3.438  15.884  12.017
60734W        W32350   5.352  36.891   2.345
60735W        W32351  41.285  18.569   2.762
60736W        W32352   3.919  41.682  12.099
60737W        W32353  17.213  33.891  14.276
60738W        W32354   1.470  16.038  14.825
60739W        W32355  31.168   8.898  11.341
60740W        W32356  18.354  30.395  13.530
60741W        W32357   0.887  40.487   3.774
60742W        W32358   1.278  24.689   1.205
60743W        W32359  40.472   9.825   4.093
60744W        W32360  15.363  36.357   4.104
60745W        W32361   8.355   7.375  12.528
60746W        W32362   6.716  12.486   2.831
60747W        W32363  44.494  14.158   4.085
60748W        W32364  10.826  32.874   0.958
60749W        W32365  40.481  26.666  11.472
60750W        W32366   8.179  29.632   2.304
60751W        W32367  26.256  19.777  10.708
60752W        W32368  20.938  34.258   0.791
60753W        W32369  27.790   4.229   4.724
60754W        W32370  43.448  22.296   4.285
60755W        W32371  13.920  18.308   2.382
60756W        W32372  37.141  25.502   1.312
60757W        W32373   0.844  19.541   4.636
60758W        W32374  26.644  23.091  11.075
60759W        W32375   4.446  21.085   1.853
60760W        W32376   9.448  21.502   0.646
60761W        W32377  22.579   4.399   3.785
60762W        W32378   1.078  21.771  12.853
60763W        W32379  15.272   2.511   4.880
60764W        W32380  29.065  40.684  13.083
60765W        W32381  23.779  37.025   0.523
60766W        W32382  42.032   5.688   4.392
60767W        W32383  34.831  18.567   1.462
60768W        W32384  40.357  35.508   4.326
60769W        W32385   1.967  39.295   0.736
60770W        W32386  18.200  25.677  11.498
60771W        W32387  35.353  40.305  11.508
60772W        W32388   6.956   9.222   1.308
60773W        W32389  24.215  25.037   3.734
60774W        W32390  21.275  18.641   4.375
60775W        W32391  28.538  28.688   0.391
60776W        W32392   2.715   0.758  14.726
60777W        W32393  24.680   4.581  11.142
60778W        W32394  31.141  40.265   4.666
60779W        W32395  19.857  27.651   2.803
60780W        W32396  16.576  29.027   2.796
60781W        W32397  15.803  33.835   3.126
60782W        W32398  27.249  12.209  13.366
60783W        W32399  14.908  43.564   0.106
60784W        W32400  39.089  14.785  10.686
60785W        W32401  35.590   4.424  14.259
60786W        W32402   3.224  43.081   9.944
60787W        W32403  37.072  11.597   0.682
60788W        W32404  17.079  25.014  12.548
60789W        W32405   5.918  33.579   4.085
60790W        W32406  17.881  14.762  14.428
60791W        W32407  12.211   9.192   0.410
60792W        W32408   7.151  27.546  10.729
60793W        W32409   7.150  32.395  14.982
60794W        W32410  27.851  10.641   1.853
60795W        W32411  28.960   9.470   4.484
60796W        W32412  21.585   8.158   1.795
60797W        W32413  37.452   2.203   4.554
60798W        W32414  24.265  16.625  12.583
60799W        W32415  30.942  20.356   1.308
60800W        W32416  27.144  19.587   2.444
60801W        W32417  34.329  23.205  12.134
60802W        W32418  14.740   1.204  12.853
60803W        W32419   2.010  32.005   3.655
60804W        W32420  35.362  36.490  10.704
60805W        W32421  19.607  23.520  13.743
60806W        W32422  42.353  28.088   1.747
60807W        W32423  37.583   6.627   3.236
60808W        W32424  35.082  13.641  14.394
60809W        W32425   7.052  34.450   2.461
60810W        W32426  21.615  42.895  11.903
60811W        W32427  25.758  20.528  14.000
60812W        W32428  18.317   7.427   2.147
60813W        W32429  14.632   1.361   1.797
60814W        W32430  24.221   3.005  13.372
60815W        W32431   1.937  12.729   4.880
60816W        W32432   4.697  41.419  11.644
60817W        W32433  22.745  38.073  13.436
60818W        W32434   4.800  19.655   0.208
60819W        W32435   6.571  31.428   2.742
60820W        W32436  41.822   8.879  11.672
60821W        W32437  22.769  22.191   1.864
60822W        W32438  29.194   6.892  13.848
60823W        W32439  35.762  38.430  11.416
60824W        W32440  11.327  10.903   1.790
60825W        W32441   9.828  43.548   1.173
60826W        W32442   9.179  30.628   2.169
60827W        W32443  38.558  28.501   0.738
60828W        W32444  17.315  11.364  12.377
60829W        W32445  12.157  18.059  14.053
60830W        W32446  30.419  15.838   4.150
60831W        W32447   6.114  30.875   0.450
60832W        W32448  40.570   4.222   1.480
60833W        W32449   1.146  36.954   4.645
60834W        W32450   2.198  15.659  10.682
60835W        W32451  22.636  22.205  11.953
60836W        W32452  13.942  34.526   2.808
60837W        W32453  12.573  24.942  12.943
60838W        W32454  31.485  33.105   1.876
60839W        W32455   5.840  23.979   1.435
60840W        W32456  23.174  31.141   1.629
60841W        W32457  25.845   8.927  10.146
60842W        W32458  17.898  43.328  10.717
60843W        W32459   0.867  37.608  13.113
60844W        W32460   8.424   1.827  12.079
60845W        W32461  32.279  15.615   3.234
60846W        W32462   5.714  32.074  10.615
60847W        W32463  17.675   2.722   1.363
60848W        W32464  15.057  14.654  11.541
60849W        W32465  31.205  15.710   0.727
60850W        W32466   0.948  34.522  13.901
60851W        W32467   1.866  23.751  11.580
60852W        W32468   0.919  26.875   1.937
60853W        W32469  43.145  32.768  14.367
60854W        W32470  16.911  17.205   1.999
60855W        W32471   5.522  10.636  13.857
60856W        W32472  34.896   5.561   3.913
60857W        W32473  19.517  22.537   0.227
60858W        W32474  43.901   6.636  10.686
60859W        W32475  41.837  28.155   2.297
60860W        W32476  43.771  20.031   0.208
60861W        W32477  34.412  20.712  14.148
60862W        W32478  26.243  30.885   3.693
60863W        W32479  22.081   6.861  11.818
60864W        W32480  23.849  26.841  13.380
60865W        W32481  19.175  10.666   1.920
60866W        W32482   5.490  16.240  10.985
60867W        W32483  14.306  26.579  11.563
60868W        W32484   1.189  19.189  11.533
60869W        W32485   5.618   7.851  12.966
60870W        W32486  10.222  15.387   5.093
60871W        W32487  41.141  22.173  13.237
60872W        W32488  25.677  26.109  12.841
60873W        W32489  22.019  26.382  11.326
60874W        W32490  35.092  28.660  13.117
60875W        W32491   2.499  39.791   2.427
60876W        W32492  42.869  22.904   3.162
60877W        W32493   7.642  31.429   1.190
60878W        W32494  37.283  16.822  11.117
60879W        W32495   1.978  44.208  11.955
60880W        W32496  35.001  17.813   1.853
60881W        W32497  36.973  17.088  14.975
60882W        W32498  25.712  15.922  10.538
60883W        W32499  21.566   0.341   3.686
60884W        W32500  35.592  31.516  12.364
60885W        W32501  13.273  32.629   3.668
60886W        W32502  15.452  34.627   2.682
60887W        W32503  17.777   6.138   2.652
60888W        W32504  29.478  30.724   4.649
60889W        W32505  34.906  17.931  14.536
60890W        W32506  25.075  18.301  13.447
60891W        W32507  18.277  32.048  10.387
60892W        W32508  27.787  32.113  11.141
60893W        W32509  21.282  17.061  11.991
60894W        W32510   8.427  33.750  12.415
60895W        W32511  17.658  32.874   2.180
60896W        W32512  35.567  29.189   4.664
60897W        W32513  26.498  27.854  12.970
60898W        W32514  39.017  27.596  12.456
60899W        W32515  15.423  25.681   0.472
60900W        W32516  33.724   7.755  14.007
60901W        W32517  23.023  40.221  14.482
60902W        W32518   0.411   2.855   2.865
60903W        W32519  30.490  35.030  12.517
60904W        W32520  33.097  11.597   4.035
60905W        W32521  25.634  37.173  13.352
60906W        W32522  30.969  41.975  14.373
60907W        W32523  41.382  11.721   4.752
60908W        W32524   5.678  18.983  12.052
60909W        W32525  20.535  18.605   2.949
60910W        W32526  21.021  32.239   0.363
60911W        W32527  16.326   1.827  10.902
60912W        W32528  35.875   7.150  12.043
60913W        W32529  39.473  15.177   0.268
60914W        W32530  42.715   9.154  14.455
60915W        W32531  37.921  22.897   1.479
60916W        W32532  36.928   1.971  11.147
60917W        W32533  12.136  39.887   4.184
60918W        W32534  22.624  35.455   2.970
60919W        W32535  12.764  10.372  10.723
60920W        W32536  28.309  29.483   2.154
60921W        W32537  33.447  26.402   2.227
60922W        W32538  16.229  16.578   1.073
60923W        W32539   1.802  20.555   1.768
60924W        W32540  25.953   8.714   3.873
60925W        W32541   1.261  15.569  11.638
60926W        W32542  16.559  36.503   3.156
60927W        W32543   5.453  13.675  13.059
60928W        W32544  35.494  43.740  12.013
60929W        W32545  32.605  30.967  13.465
60930W        W32546   3.802   4.895   0.867
60931W        W32547  19.710  23.459   2.232
60932W        W32548   5.310   7.307  13.408
60933W        W32549  35.046  30.285  11.541
60934W        W32550   2.371  10.150   0.214
60935W        W32551   5.938  20.569   1.082
60936W        W32552  32.976  32.680   1.664
60937W        W32553  44.750   1.066   3.559
60938W        W32554  44.814  34.041  10.708
60939W        W32555  43.477   8.286   1.697
60940W        W32556   2.292  32.418  12.151
60941W        W32557   9.648  38.879   0.932
60942W        W32558  38.859   7.641  11.012
60943W        W32559  22.139   9.801   4.936
60944W        W32560  31.678  16.566  12.657
60945W        W32561  31.458  15.097   4.601
60946W        W32562  43.795   6.335  11.121
60947W        W32563  39.391  39.883   2.317
60948W        W32564  17.300  30.705  14.330
60949W        W32565   2.476  43.102  14.629
60950W        W32566  40.970  20.226  11.614
60951W        W32567  19.448  24.004  13.685
60952W        W32568  22.994  41.826   1.987
60953W        W32569  19.605  27.982  13.663
60954W        W32570  15.926  11.620   2.674
60955W        W32571  27.614   8.375   1.285
60956W        W32572  26.668  40.506   3.323
60957W        W32573  10.577   9.884   1.940
60958W        W32574  22.939  28.970  11.212
60959W        W32575   8.694  13.619   3.787
60960W        W32576  33.870  42.917  11.675
60961W        W32577  32.019   3.505  10.328
60962W        W32578  26.852  23.482   2.804
60963W        W32579  23.184  28.438   0.669
60964W        W32580  30.030  38.181   0.893
60965W        W32581  14.813   5.779   0.309
60966W        W32582   1.697  21.706  11.148
60967W        W32583  21.529   9.732  11.405
60968W        W32584  38.884  41.863  13.569
60969W        W32585   1.008  41.221   2.137
60970W        W32586   8.492  41.590  11.045
60971W        W32587  19.306  30.505  13.500
60972W        W32588  26.949  31.856   0.052
60973W        W32589  15.678  23.094   3.368
60974W        W32590  28.825   7.871  14.779
60975W        W32591   0.988  10.072   1.172
60976W        W32592  15.518  23.589   1.105
60977W        W32593  35.064   1.180  12.075
60978W        W32594  34.501   4.871  10.871
60979W        W32595  15.223   8.461   2.243
60980W        W32596  33.289   9.303  14.286
60981W        W32597  37.370  19.507  11.879
60982W        W32598  21.159  14.063   3.978
60983W        W32599  17.583  11.761   0.647
60984W        W32600   6.726  16.529   2.204
60985W        W32601   9.264  15.889  12.372
60986W        W32602  29.809   8.243  12.499
60987W        W32603  40.707  21.044   0.371
60988W        W32604  30.810  38.255  14.396
60989W        W32605   9.796  27.790  11.437
60990W        W32606  25.723  26.595   0.482
60991W        W32607  40.698  33.368   2.669
60992W        W32608  36.394  27.693   2.522
60993W        W32609   0.223  22.517  13.385
60994W        W32610  33.335  20.965  12.035
60995W        W32611   9.076  34.081   2.142
60996W        W32612  34.340  16.814   3.029
60997W        W32613   1.390  43.549   4.412
60998W        W32614  33.087   7.420  13.540
60999W        W32615  12.829  34.790   0.468
61000W        W32616   1.348  18.550  14.892
61001W        W32617  35.255  41.409  12.030
61002W        W32618  44.803  10.599   3.828
61003W        W32619  19.304  42.360  12.049
61004W        W32620   9.725   8.919   3.306
61005W        W32621  14.064   0.774  13.494
61006W        W32622  35.902  29.099  11.599
61007W        W32623  44.848  23.563   2.818
61008W        W32624  19.086  25.969   0.884
61009W        W32625  34.007  10.184   3.681
61010W        W32626  21.202  35.691   4.861
61011W        W32627   7.173   0.538  11.914
61012W        W32628  40.488  24.441   0.861
61013W        W32629   9.131  23.423   0.513
61014W        W32630   2.838   5.151   2.449
61015W        W32631  41.069  29.970   1.962
61016W        W32632  30.678  26.051   2.859
61017W        W32633  17.057  26.528   0.270
61018W        W32634  12.272  11.023   4.917
61019W        W32635  34.120  17.411  14.844
61020W        W32636  16.580  13.746  13.264
61021W        W32637  19.661  18.305   4.381
61022W        W32638   7.493  18.540  12.271
61023W        W32639   6.216  43.751   0.440
61024W        W32640   4.183  12.706   3.368
61025W        W32641  15.325  11.741   1.204
61026W        W32642  24.519   5.854  11.658
61027W        W32643  21.170  33.469   2.187
61028W        W32644  16.275  40.863   3.154
61029W        W32645  29.294  12.350  14.456
61030W        W32646  35.664  32.477  14.875
61031W        W32647  20.120   4.999   4.023
61032W        W32648  32.622  30.838   1.203
61033W        W32649  27.182  36.751   2.206
61034W        W32650  35.533  35.468  14.644
61035W        W32651  15.571  31.428   4.903
61036W        W32652  40.835  34.639   0.665
61037W        W32653   4.162  41.327   4.332
61038W        W32654  33.452  29.321  12.527
61039W        W32655  42.076  21.212  13.410
61040W        W32656  25.184  17.624  14.441
61041W        W32657  32.010   1.173   1.873
61042W        W32658  34.193  22.666  14.288
61043W        W32659   5.387  20.090  12.971
61044W        W32660  18.547  28.939  13.378
61045W        W32661  43.384  43.245  13.015
61046W        W32662  40.781  23.042   4.536
61047W        W32663  39.279  34.858  10.193
61048W        W32664  25.920  37.563  13.068
61049W        W32665  20.778   7.411   3.162
61050W        W32666  27.074  21.764  14.002
61051W        W32667  44.155   3.682   2.842
61052W        W32668  41.036  12.097  11.828
61053W        W32669   1.474  24.800   3.511
61054W        W32670   0.165  44.305  10.722
61055W        W32671   5.291  14.876  10.600
61056W        W32672  19.229  39.924   2.624
61057W        W32673   8.753  33.160  10.650
61058W        W32674  36.921  19.507  13.547
61059W        W32675   3.948  33.105  13.111
61060W        W32676  20.326  13.886  14.786
61061W        W32677  27.729  36.674  14.181
61062W        W32678  28.224  36.049  11.444
61063W        W32679   2.884   0.703   1.431
61064W        W32680  17.212  17.469  11.236
61065W        W32681  35.445  15.725   1.857
61066W        W32682  12.228  42.462  12.580
61067W        W32683  43.752  10.895  11.061
61068W        W32684  18.490  19.944   2.955
61069W        W32685   5.213  22.604  12.328
61070W        W32686   1.327  20.723   3.295
61071W        W32687   2.851  12.256   3.403
61072W        W32688   1.489  32.022   3.695
61073W        W32689   5.696  14.158  12.597
61074W        W32690   5.894  32.092  11.530
61075W        W32691  37.720  14.032  12.931
61076W        W32692   2.540   2.471  11.579
61077W        W32693  37.277   7.767  13.917
61078W        W32694   1.228  40.097   3.622
61079W        W32695  32.913  11.761  13.988
61080W        W32696  25.436  22.702   1.692
61081W        W32697  27.033  12.325   3.780
61082W        W32698   6.225   3.764  13.387
61083W        W32699   1.768  27.572  14.082
61084W        W32700   9.438   4.231  10.610
61085W        W32701   1.868  12.989   3.179
61086W        W32702  37.462  38.680  11.179
61087W        W32703  40.809  44.447   1.242
61088W        W32704  44.432  26.863  13.281
61089W        W32705  41.334   8.432   3.170
61090W        W32706   8.737  15.697   1.114
61091W        W32707  24.217  18.024  11.359
61092W        W32708  31.729  34.495   0.696
61093W        W32709  30.575   9.536   4.971
61094W        W32710  29.015  36.281   0.530
61095W        W32711  12.591  40.516  14.762
61096W        W32712  12.607  28.483   4.899
61097W        W32713  27.621  21.241  12.025
61098W        W32714  39.195  34.164  11.555
61099W        W32715  18.191  35.457  11.944
61100W        W32716  10.664  26.168  12.178
61101W        W32717  28.535  35.857   0.262
61102W        W32718  14.221   6.403   4.641
61103W        W32719   8.768  42.109  13.239
61104W        W32720  17.330  31.483   3.205
61105W        W32721  18.151  13.337   4.291
61106W        W32722   4.842   0.443   1.544
61107W        W32723  18.238  12.599  11.553
61108W        W32724  21.646  10.642  13.398
61109W        W32725  18.192  36.534  11.560
61110W        W32726  18.099  43.364   2.737
61111W        W32727   7.554   1.756   2.032
61112W        W32728  29.839  16.743   1.371
61113W        W32729  34.038  40.536  11.199
61114W        W32730  17.848  44.315   1.149
61115W        W32731  25.875  25.543   1.222
61116W        W32732   2.305  40.314   4.245
61117W        W32733  30.617  15.732   2.735
61118W        W32734  25.196  35.506   4.622
61119W        W32735   7.116   8.140   3.157
61120W        W32736  22.870  24.524   1.935
61121W        W32737  44.249   5.212   0.472
61122W        W32738  10.569   6.370   4.402
61123W        W32739   5.478  30.445  11.029
61124W        W32740  43.486  34.460  11.299
61125W        W32741  11.085  23.057  12.039
61126W        W32742   2.755   2.457   0.423
61127W        W32743  27.060  29.505  10.931
61128W        W32744  36.855  37.245   2.585
61129W        W32745   6.858   1.781  11.166
61130W        W32746  25.462  38.271   1.659
61131W        W32747  14.003   3.414   0.929
61132W        W32748  19.447  37.251   3.806
61133W        W32749   2.702  36.708  12.030
61134W        W32750  26.042  26.494  12.886
61135W        W32751   3.669   1.873   2.390
61136W        W32752  26.213  20.705  11.647
61137W        W32753  33.624  38.673  11.731
61138W        W32754   0.675  43.852   3.793
61139W        W32755  23.169  28.108  10.231
61140W        W32756  12.995  19.040  12.585
61141W        W32757  24.185  16.622   3.622
61142W        W32758  14.766  41.054  12.938
61143W        W32759  32.363  11.895   3.259
61144W        W32760  37.899  24.217   0.913
61145W        W32761  10.666  17.074  13.883
61146W        W32762  34.833  39.655  12.534
61147W        W32763  24.526  15.719   1.889
61148W        W32764  39.412  17.361   2.198
61149W        W32765  34.703   6.665  12.086
61150W        W32766  28.109  17.063  11.174
61151W        W32767  13.005  19.468  12.911
61152W        W32768  14.256   3.564   4.291
61153W        W32769  28.105  43.916  13.921
61154W        W32770  24.479  33.360   3.588
61155W        W32771  24.496  42.070  12.547
61156W        W32772   5.143  21.260  13.438
61157W        W32773  26.135   3.357   0.962
61158W        W32774  14.625  12.090   1.659
61159W        W32775  27.411  23.010   1.321
61160W        W32776  19.867  36.666   0.326
61161W        W32777  38.336  17.584   1.869
61162W        W32778  30.039  25.172  11.832
61163W        W32779   1.723  15.275   2.133
61164W        W32780  21.698   1.745  12.574
61165W        W32781  20.831  18.219   0.688
61166W        W32782  21.525  18.673   4.846
61167W        W32783  19.745  27.934   1.410
61168W        W32784  15.140  14.494  10.641
61169W        W32785   2.906   4.792   3.680
61170W        W32786  26.956  30.959  12.214
61171W        W32787  39.271  33.137   0.697
61172W        W32788  42.822  25.977  14.884
61173W        W32789  23.388  24.541   0.615
61174W        W32790  13.807  32.541   0.848
61175W        W32791   7.837  15.407  10.741
61176W        W32792   3.424  40.564   5.060
61177W        W32793  35.820   7.691   0.808
61178W        W32794  27.076  34.640  13.044
61179W        W32795  38.713  40.966  10.482
61180W        W32796  32.030  41.051   3.782
61181W        W32797  37.655  39.916  14.889
61182W        W32798  35.971  25.474   4.081
61183W        W32799  40.452  18.143  13.169
61184W        W32800  23.833   2.241  13.027
61185W        W32801   0.374   6.917  14.064
61186W        W32802  42.930  15.762   4.141
61187W        W32803  31.923  36.781  11.428
61188W        W32804  42.346   2.759   3.166
61189W        W32805  35.633  10.372  11.100
61190W        W32806  30.953   3.673   1.888
61191W        W32807   5.787  11.522   2.803
61192W        W32808  34.367  15.747  13.063
61193W        W32809  31.168  27.770   3.342
61194W        W32810  24.054  25.178  13.980
61195W        W32811  13.070  39.298  12.011
61196W        W32812  41.516   0.252   3.885
61197W        W32813   8.887   8.891   0.810
61198W        W32814   0.898  19.202  11.090
61199W        W32815  12.852  19.879   1.053
61200W        W32816  31.148  15.992   3.770
61201W        W32817   4.946   3.288   1.718
61202W        W32818  32.575  34.109   1.736
61203W        W32819   6.801  11.322   2.944
61204W        W32820  12.700  21.731  10.660
61205W        W32821  29.976  31.813  13.800
61206W        W32822  32.909   9.296   4.672
61207W        W32823   6.163  21.441   5.146
61208W        W32824  15.827  39.389  12.441
61209W        W32825  20.156  24.131   3.586
61210W        W32826  43.897  16.275  14.760
61211W        W32827  17.345  21.507  11.665
61212W        W32828  22.934  25.262   3.202
61213W        W32829  14.299  26.695   1.335
61214W        W32830  41.919  38.815   2.872
61215W        W32831  33.847  29.149  10.970
61216W        W32832  17.218  20.090   3.671
61217W        W32833  41.883  13.671   0.946
61218W        W32834  37.050  38.089  11.653
61219W        W32835   4.680  25.956   4.147
61220W        W32836  32.785  27.698  12.304
61221W        W32837  14.887  12.533  14.954
61222W        W32838  24.796  25.932   3.835
61223W        W32839  27.686  42.363   0.473
61224W        W32840  41.596  11.686  11.521
61225W        W32841  30.382  37.258   2.349
61226W        W32842  40.496  18.419  14.028
61227W        W32843  19.241   3.415  12.427
61228W        W32844   1.024  26.227  14.257
61229W        W32845  37.466  36.288   1.274
61230W        W32846   1.254  43.749   0.582
61231W        W32847  35.388  27.557   4.465
61232W        W32848  27.153  41.241  10.721
61233W        W32849  37.823   7.860  13.294
61234W        W32850  13.520   7.664   3.859
61235W        W32851  41.909  28.994   1.964
61236W        W32852  43.090   4.837  11.567
61237W        W32853  19.205  11.129   0.320
61238W        W32854  31.457  41.559  14.411
61239W        W32855  36.420  24.864   2.805
61240W        W32856  37.320  11.419  12.496
61241W        W32857  11.234  19.021  12.517
61242W        W32858  27.225   3.146  11.709
61243W        W32859  35.905  19.360  13.054
61244W        W32860  33.943   5.838  13.262
61245W        W32861  15.131  18.497  12.504
61246W        W32862  23.038  18.115   0.571
61247W        W32863   5.739  26.699   1.510
61248W        W32864  40.450  15.149  10.656
61249W        W32865  41.183  35.381  10.527
61250W        W32866  34.198  44.526  13.386
61251W        W32867  16.492  41.339   4.083
61252W        W32868  24.948  39.900   0.043
61253W        W32869  15.101   2.769  13.485
61254W        W32870  14.686  32.474  12.443
61255W        W32871   0.212  29.399  14.488
61256W        W32872  15.551  19.456   2.624
61257W        W32873  12.565  27.142  11.051
61258W        W32874  13.363   7.852   4.330
61259W        W32875  16.122  17.986  10.103
61260W        W32876  24.423  25.249  13.171
61261W        W32877   3.961  30.420  14.663
61262W        W32878  20.472   2.570   0.981
61263W        W32879   3.673  18.936  14.919
61264W        W32880  14.402   8.118   0.266
61265W        W32881  21.948  31.652  13.360
61266W        W32882   4.433  33.737  12.651
61267W        W32883   5.992  18.726   1.891
61268W        W32884   2.977  27.437   4.170
61269W        W32885  33.581  34.970   3.664
61270W        W32886  31.164  37.039   0.494
61271W        W32887   0.081   9.812   0.062
61272W        W32888   6.093  38.287  14.910
61273W        W32889  38.440  37.825  13.546
61274W        W32890  21.997  28.101   0.429
61275W        W32891  18.721  24.856  12.332
61276W        W32892  20.512  13.985  10.015
61277W        W32893   6.403  26.829  12.824
61278W        W32894  12.891   7.326   1.725
61279W        W32895  12.854  18.002   4.940
61280W        W32896  35.621   9.385   3.382
61281W        W32897  13.333  39.112  11.082
61282W        W32898   5.791   2.280   1.754
61283W        W32899  25.926  23.994  11.872
61284W        W32900  12.760  28.723   1.963
61285W        W32901  28.080  11.111  14.435
61286W        W32902  14.327  37.532   4.115
61287W        W32903  25.358  13.803   0.781
61288W        W32904   9.753   5.721  11.195
61289W        W32905  42.433  44.818   3.588
61290W        W32906  14.214  34.715   2.386
61291W        W32907  13.806  36.370  11.502
61292W        W32908  22.618  25.918   1.401
61293W        W32909  17.068  17.436   2.905
61294W        W32910  22.453  35.595  14.917
61295W        W32911  19.023  19.110   0.802
61296W        W32912  17.267  19.235   2.815
61297W        W32913  40.902  16.579  11.996
61298W        W32914  32.002  10.861  10.651
61299W        W32915  23.723  25.684   4.185
61300W        W32916   7.101  25.515   0.798
61301W        W32917  41.040  43.390  14.758
61302W        W32918   3.750  17.215   2.695
61303W        W32919  35.428   6.785  11.385
61304W        W32920  18.298  33.529   2.358
61305W        W32921  26.327  29.937  12.032
61306W        W32922   2.253  25.681   0.867
61307W        W32923  28.415  11.794  11.559
61308W        W32924  29.519  23.630  12.461
61309W        W32925  32.282  16.580  14.661
61310W        W32926  24.586  25.918   0.512
61311W        W32927  31.528  35.698   4.475
61312W        W32928   4.448  28.589  10.658
61313W        W32929  21.028  28.495  12.610
61314W        W32930  42.492  33.388  13.031
61315W        W32931  26.815  40.350   2.838
61316W        W32932  14.998   6.671  11.968
61317W        W32933  26.722  37.245  10.264
61318W        W32934  19.227  42.414  13.426
61319W        W32935   6.295  33.103   1.852
61320W        W32936  21.572  39.963   1.787
61321W        W32937  15.786  25.459  12.386
61322W        W32938  44.519  35.518   0.859
61323W        W32939   7.048  29.011   3.731
61324W        W32940  13.450   9.114  12.452
61325W        W32941  44.793  18.349   3.758
61326W        W32942  38.581  35.960   0.853
61327W        W32943   1.341   0.738  12.510
61328W        W32944  22.739   6.671   3.235
61329W        W32945  35.031  34.027   1.769
61330W        W32946   6.937  12.694  11.924
61331W        W32947   2.501  29.628   4.711
61332W        W32948  15.713   3.214   2.374
61333W        W32949  11.439  27.544   2.282
61334W        W32950  15.883   5.492   1.659
61335W        W32951  24.447  37.988  14.443
61336W        W32952  21.479  18.270  11.548
61337W        W32953  34.113   5.903   1.365
61338W        W32954  19.157  16.182  11.317
61339W        W32955  12.181   7.890  13.859
61340W        W32956  35.349  28.098   0.202
61341W        W32957  32.577  18.570   0.432
61342W        W32958   5.664   4.852  11.947
61343W        W32959  28.067  19.756   0.950
61344W        W32960  21.033   7.135   2.240
61345W        W32961  13.662  28.581  11.961
61346W        W32962  14.051  35.381   3.123
61347W        W32963  26.400  27.165   1.755
61348W        W32964  32.680  33.159  13.373
61349W        W32965  15.633   2.360  12.861
61350W        W32966  35.006   4.430   3.195
61351W        W32967  37.361  24.388  12.887
61352W        W32968  28.067  33.615  11.168
61353W        W32969  32.221  28.012   4.496
61354W        W32970  12.955  15.717  13.082
61355W        W32971  10.650  39.910  12.298
61356W        W32972  11.906  43.836   2.971
61357W        W32973  32.691  30.188   0.393
61358W        W32974  44.646  25.277  14.722
61359W        W32975  26.779   9.031   0.402
61360W        W32976  15.331  43.615  12.897
61361W        W32977  37.981  18.780   2.017
61362W        W32978  29.096  44.797   2.735
61363W        W32979  29.556  13.800   4.576
61364W        W32980  32.061  12.334  13.950
61365W        W32981   7.522  33.912   0.345
61366W        W32982  32.688  12.606  14.563
61367W        W32983   0.496  31.395  12.162
61368W        W32984  19.339  11.628   1.736
61369W        W32985  32.865  34.734   4.214
61370W        W32986  26.176  36.505   4.132
61371W        W32987  18.529   1.456   4.348
61372W        W32988  15.178  30.070  14.953
61373W        W32989  15.910  31.117   1.704
61374W        W32990  33.550  12.595   2.243
61375W        W32991   0.039  36.897  10.606
61376W        W32992  40.089  42.990  11.424
61377W        W32993   7.694   8.327   2.326
61378W        W32994  36.295   4.187   4.369
61379W        W32995   5.891   0.096   0.519
61380W        W32996  15.678   5.972   0.783
61381W        W32997  33.267   4.928  12.800
61382W        W32998  19.038  34.503  14.976
61383W        W32999  14.337   9.696   3.665
61384W        W33000   2.739  19.091   4.175
61385W        W33001   9.578  32.321  13.298
61386W        W33002  11.792  10.411   2.402
61387W        W33003  39.101  31.186   3.620
61388W        W33004  21.325  17.509   0.982
61389W        W33005  40.958  44.783   1.672
61390W        W33006  39.680  24.438  11.213
61391W        W33007   6.399  32.193   4.724
61392W        W33008   9.769  20.203   2.217
61393W        W33009  18.908  37.570   0.050
61394W        W33010  36.261  24.465   4.108
61395W        W33011   0.511   3.126   4.185
61396W        W33012   3.491   5.827   0.118
61397W        W33013   6.858  21.655   1.783
61398W        W33014   5.444  44.486  14.832
61399W        W33015  14.383   6.262  11.482
61400W        W33016  37.191  12.632  14.979
61401W        W33017  29.713   6.685   2.341
61402W        W33018  30.074  37.629   3.250
61403W        W33019  28.517  24.566   2.623
61404W        W33020   2.963  16.321  11.228
61405W        W33021  31.051  40.495   0.483
61406W        W33022  21.730  32.228  10.742
61407W        W33023  16.163   0.324  12.176
61408W        W33024  39.091  31.912   1.317
61409W        W33025  26.471  22.088  11.151
61410W        W33026  36.047  11.743  13.020
61411W        W33027   6.186  33.740   4.519
61412W        W33028  15.588   9.033  10.849
61413W        W33029  18.868  30.483  10.889
61414W        W33030  15.431  10.320   3.209
61415W        W33031  31.184  41.237   1.826
61416W        W33032  32.368   4.917  14.015
61417W        W33033  30.716  39.641  11.076
61418W        W33034  26.188  12.278   2.704
61419W        W33035   6.208  36.349  11.028
61420W        W33036   3.788  32.679  13.967
61421W        W33037   6.275  31.047  14.968
61422W        W33038  17.919  23.234  10.954
61423W        W33039  19.571  17.474   1.855
61424W        W33040  39.776  34.490  13.779
61425W        W33041  36.007  23.401   2.886
61426W        W33042  42.071  11.442   1.860
61427W        W33043  36.186  17.137  13.469
61428W        W33044  11.134   6.986   1.261
61429W        W33045   1.858  25.997   3.045
61430W        W33046  40.468   3.947  12.576
61431W        W33047  36.572  29.860  11.377
61432W        W33048  34.597  38.836  12.632
61433W        W33049  34.676  42.783  13.155
61434W        W33050  15.840  36.042   0.629
61435W        W33051  27.702  34.324   4.041
61436W        W33052  41.008  31.077  11.125
61437W        W33053  41.788  38.375   1.932
61438W        W33054  41.386  20.716   2.175
61439W        W33055  24.521   1.819  11.471
61440W        W33056  35.589   5.204   4.453
61441W        W33057  32.380  44.164   9.869
61442W        W33058  28.084  18.225  14.441
61443W        W33059  11.959  36.085  10.618
61444W        W33060  30.683  22.180   2.937
61445W        W33061  26.583  39.545  11.565
61446W        W33062  16.637  30.953   0.697
61447W        W33063   3.040   5.178   2.916
61448W        W33064  41.857  40.929  13.293
61449W        W33065  10.835  15.579  13.865
61450W        W33066  10.881  13.625  13.836
61451W        W33067  27.144  35.131   3.686
61452W        W33068   3.300  22.028  10.514
61453W        W33069  24.750  31.432  13.333
61454W        W33070  27.093  14.786   4.389
61455W        W33071  27.129  24.381  13.961
61456W        W33072  14.783  39.391  12.396
61457W        W33073  43.033  24.031  14.355
61458W        W33074  39.481  31.558   3.708
61459W        W33075  13.674  26.411   2.240
61460W        W33076   9.153  26.070  14.801
61461W        W33077  12.764   4.400   2.532
61462W        W33078  33.541   3.347   4.093
61463W        W33079  42.483  35.588   3.586
61464W        W33080  29.044   8.331  14.869
61465W        W33081  33.775  28.105   2.911
61466W        W33082   0.742  28.917  14.868
61467W        W33083  41.109  36.230  11.665
61468W        W33084  10.268   7.103   4.873
61469W        W33085  20.052  10.262  11.351
61470W        W33086   4.254  17.552   3.588
61471W        W33087   6.823  37.177  12.522
61472W        W33088  28.560   8.143  13.969
61473W        W33089  39.046  25.771   3.064
61474W        W33090  14.641  24.777  13.519
61475W        W33091  31.371   0.364  13.946
61476W        W33092   9.713  27.674   2.790
61477W        W33093  27.556  30.296  14.891
61478W        W33094  41.561  38.852  10.349
61479W        W33095  20.418  20.155   3.195
61480W        W33096  18.375  33.565   4.483
61481W        W33097   0.225  26.394   2.164
61482W        W33098  28.839  30.161  12.048
61483W        W33099  35.466  44.866   3.769
61484W        W33100  10.894  22.033   0.019
61485W        W33101   4.626  31.444   2.365
61486W        W33102  13.263  34.167   1.475
61487W        W33103  23.458  34.611   1.883
61488W        W33104   1.958  30.569  11.379
61489W        W33105  25.540   3.550   4.195
61490W        W33106  23.216  28.467   1.675
61491W        W33107  30.056  18.259   0.411
61492W        W33108  21.936  21.158  12.421
61493W        W33109   7.858  33.197   2.341
61494W        W33110  44.515   9.373  14.058
61495W        W33111   5.945  17.459  13.222
61496W        W33112  31.949   0.149  14.743
61497W        W33113  44.549  17.645  12.617
61498W        W33114  22.648  33.855   0.040
61499W        W33115  23.978  17.721   2.695
61500W        W33116  43.397  10.875   3.758
61501W        W33117  16.284  17.533   3.123
61502W        W33118  34.093  18.688  13.639
61503W        W33119   5.456  34.120   1.938
61504W        W33120  38.363  39.820   1.882
61505W        W33121  28.372  28.023   2.776
61506W        W33122   3.177  11.026   1.263
61507W        W33123  43.346  10.843  12.587
61508W        W33124  25.634  12.082  12.120
61509W        W33125  38.956  34.885   0.011
61510W        W33126   9.452  42.423   2.814
61511W        W33127  33.351  16.704   2.712
61512W        W33128   0.427  23.261  13.986
61513W        W33129  21.498   0.807   1.870
61514W        W33130  29.630  36.286  10.621
61515W        W33131  31.860  26.977  12.052
61516W        W33132  31.067  26.049  11.531
61517W        W33133  20.737  37.575   4.196
61518W        W33134  15.090  33.656   0.504
61519W        W33135   6.852  17.587   2.762
61520W        W33136   4.918  44.468   4.032
61521W        W33137   1.763  17.320   0.157
61522W        W33138   7.920   1.512   3.674
61523W        W33139  21.167  44.940   3.302
61524W        W33140  29.023  15.343   3.282
61525W        W33141  21.731   8.187  13.590
61526W        W33142  11.066   8.353  14.096
61527W        W33143  25.969  41.828   4.138
61528W        W33144  36.841   7.422  13.781
61529W        W33145   7.821   7.230   0.235
61530W        W33146  19.641   9.708  11.877
61531W        W33147  19.596  25.660   0.314
61532W        W33148  36.406  30.324   2.129
61533W        W33149  39.393  17.827  11.947
61534W        W33150  42.708   5.654  10.670
61535W        W33151  15.192  39.000   3.662
61536W        W33152  10.008   4.663  13.393
61537W        W33153  35.515  26.561  12.162
61538W        W33154  34.988  36.327   3.298
61539W        W33155   2.293   3.338  14.462
61540W        W33156  19.481  16.891   3.266
61541W        W33157  33.744  11.733   3.665
61542W        W33158  25.961   9.817   3.673
61543W        W33159   2.026  42.417   3.030
61544W        W33160  13.185  36.403  14.926
61545W        W33161   9.902  11.226  12.535
61546W        W33162  25.651   0.825  12.959
61547W        W33163   0.877  36.921  10.896
61548W        W33164   4.027  31.783   4.118
61549W        W33165  30.565   8.990   4.153
61550W        W33166  35.963  20.141  14.953
61551W        W33167  37.427   0.765  11.885
61552W        W33168  39.499   7.799   2.140
61553W        W33169  34.690   2.141   4.824
61554W        W33170  14.955  30.994   3.682
61555W        W33171  22.991   7.443   0.694
61556W        W33172  38.387  31.384  14.523
61557W        W33173  17.059  21.761  12.024
61558W        W33174  26.947  25.513  13.965
61559W        W33175   6.889  19.322   2.386
61560W        W33176  22.334  32.802   1.309
61561W        W33177  24.370  16.071  11.253
61562W        W33178  42.948  33.789   0.518
61563W        W33179  31.445   7.444   1.355
61564W        W33180  29.072  29.716  14.580
61565W        W33181  23.606  23.273  14.765
61566W        W33182  40.467   3.238   2.852
61567W        W33183  38.074  26.792   2.910
61568W        W33184   7.898  26.593   2.155
61569W        W33185  16.155  35.865   2.685
61570W        W33186  16.618   5.882  14.212
61571W        W33187  34.315   3.496   1.213
61572W        W33188  37.137  29.507   3.548
61573W        W33189  18.564  21.418   3.163
61574W        W33190  13.301   1.176  13.329
61575W        W33191  22.898  40.635   2.355
61576W        W33192   2.805  44.770   1.609
61577W        W33193  24.588  21.580   2.468
61578W        W33194  30.035   2.830   1.752
61579W        W33195  14.411  40.938   1.681
61580W        W33196  16.471  13.545  14.810
61581W        W33197  10.822  44.429   2.346
61582W        W33198  31.321  43.133   4.521
61583W        W33199   9.595   0.477   1.462
61584W        W33200  24.930  24.003  12.160
61585W        W33201   9.622  29.900  13.965
61586W        W33202  41.224  12.213  14.416
61587W        W33203  12.209  34.995  12.613
61588W        W33204  42.142  10.900  13.970
61589W        W33205  40.321  24.966  12.543
61590W        W33206  41.059  17.149  11.557
61591W        W33207  30.164  11.855  12.394
61592W        W33208  29.908  41.477  14.384
61593W        W33209   3.159  42.489  10.442
61594W        W33210  36.500  12.391   3.141
61595W        W33211  21.719   1.003   4.533
61596W        W33212  15.137  44.060   2.421
61597W        W33213  29.524  18.100  14.012
61598W        W33214  25.216  10.924   2.880
61599W        W33215  20.640  21.618  13.420
61600W        W33216  44.397  22.493   5.192
61601W        W33217   2.713  24.843   2.177
61602W        W33218  12.963  11.548  13.905
61603W        W33219  33.982  36.128  10.342
61604W        W33220  39.923  25.872   3.200
61605W        W33221   3.634  13.664  14.495
61606W        W33222  25.031   3.403   4.110
61607W        W33223  30.689  33.909   1.191
61608W        W33224   7.432  44.111   2.406
61609W        W33225  31.465  18.226  10.429
61610W        W33226   5.767  34.855  10.490
61611W        W33227   4.014  35.593  14.986
61612W        W33228  11.299  40.014  13.078
61613W        W33229   9.050  14.272   4.556
61614W        W33230  25.927   4.405   3.643
61615W        W33231  27.835  39.041  12.999
61616W        W33232   5.863   0.245  14.244
61617W        W33233  41.644  31.489  11.991
61618W        W33234  20.450  28.076   0.800
61619W        W33235   4.315  26.955  12.942
61620W        W33236   6.569  22.228   3.319
61621W        W33237  12.235   6.685  12.384
61622W        W33238   8.040  26.864   3.900
61623W        W33239  37.320  24.275   4.299
61624W        W33240   9.889  22.735  13.881
61625W        W33241  27.143   7.114  10.645
61626W        W33242   5.320  15.622  12.841
61627W        W33243  41.329  31.526  11.572
61628W        W33244  15.577   2.407  13.898
61629W        W33245  25.008  29.601   2.487
61630W        W33246  14.825  34.797  14.733
61631W        W33247  22.811  34.632   0.722
61632W        W33248  28.115  13.071  13.552
61633W        W33249  38.951   6.778   1.224
61634W        W33250  17.492  20.536   1.419
61635W        W33251  27.916  44.724   1.804
61636W        W33252  32.873  40.013  12.437
61637W        W33253   0.018  12.221   1.460
61638W        W33254  27.371  43.802   2.684
61639W        W33255  12.104  34.927  11.616
61640W        W33256  32.119  42.044  14.710
61641W        W33257   8.412  26.587   2.164
61642W        W33258  24.180  28.529   2.035
61643W        W33259  34.552  34.221   0.455
61644W        W33260  18.732  23.493   4.244
61645W        W33261   1.297  32.675   2.819
61646W        W33262  15.242  44.348  11.858
61647W        W33263   0.969   7.435  12.012
61648W        W33264  15.762  21.527   1.984
61649W        W33265  31.601  26.982   2.732
61650W        W33266  25.611  36.888   3.595
61651W        W33267  36.316   0.401  12.948
61652W        W33268   3.420  36.477   3.157
61653W        W33269  43.299  33.049   3.753
61654W        W33270  23.961   3.812  13.919
61655W        W33271  44.916  31.537   5.050
61656W        W33272  23.004  35.810   1.841
61657W        W33273  44.399   5.988  13.967
61658W        W33274   2.925  16.020  12.624
61659W        W33275  39.485  21.236  14.792
61660W        W33276  13.139  23.653  12.021
61661W        W33277  19.111   6.877   0.977
61662W        W33278  43.366  18.414   0.413
61663W        W33279   6.275  10.716  13.309
61664W        W33280   6.151  25.032   1.319
61665W        W33281  35.582  40.978   3.374
61666W        W33282  42.379   3.538  13.417
61667W        W33283  25.835  43.281  13.333
61668W        W33284   0.318  20.762   0.010
61669W        W33285  39.893  22.895   1.862
61670W        W33286  18.097  40.443   4.623
61671W        W33287   9.668  26.511  14.866
61672W        W33288  44.037  27.680  11.771
61673W        W33289  42.292   4.769   3.042
61674W        W33290   2.780  19.356  12.007
61675W        W33291  35.729  34.003  14.267
61676W        W33292  26.196  41.980  13.179
61677W        W33293   7.499  17.623  11.119
61678W        W33294  20.180  36.032   4.266
61679W        W33295  21.309  19.025  10.561
61680W        W33296  28.472  41.380   0.973
61681W        W33297  42.581  21.669  12.275
61682W        W33298  13.862  17.400   3.653
61683W        W33299  28.966  28.998  11.637
61684W        W33300  28.162  31.524  11.646
61685W        W33301  14.170   2.489  10.932
61686W        W33302  14.650  27.995  14.809
61687W        W33303  41.481  44.737   1.383
61688W        W33304   4.093  36.425   3.843
61689W        W33305  20.066  18.156   1.377
61690W        W33306   5.278  35.596   1.925
61691W        W33307  17.865  28.450   3.699
61692W        W33308  32.139  43.067  13.854
61693W        W33309  36.692  22.663   0.522
61694W        W33310  33.975  11.250   4.520
61695W        W33311  23.099  21.877  11.139
61696W        W33312   8.615   8.770  12.232
61697W        W33313  23.599  39.568  10.675
61698W        W33314  38.697  13.563   0.671
61699W        W33315   8.703  18.225   3.680
61700W        W33316  43.350  22.467   3.793
61701W        W33317  26.450   0.325  12.893
61702W        W33318   1.049  24.717   3.204
61703W        W33319  42.797   8.967  14.954
61704W        W33320  11.595  21.746  11.995
61705W        W33321  16.738  21.841   3.038
61706W        W33322  20.004  22.078   2.400
61707W        W33323  27.157  29.974   2.210
61708W        W33324   2.180  12.562   2.714
61709W        W33325  25.516   4.935  11.226
61710W        W33326  40.050  36.459  14.004
61711W        W33327  19.187  22.240  13.598
61712W        W33328  42.266  11.802  13.003
61713W        W33329  36.400  26.311  13.446
61714W        W33330  31.676  26.657   0.319
61715W        W33331  20.345  38.269  10.944
61716W        W33332  37.897  19.721   0.987
61717W        W33333  18.834   1.505   3.936
61718W        W33334  17.648  43.961  12.915
61719W        W33335  40.389  18.415   3.674
61720W        W33336  23.530  12.798   1.902
61721W        W33337  10.019  43.531   2.092
61722W        W33338   0.766  31.386  12.598
61723W        W33339   2.864  34.568  14.725
61724W        W33340  29.952   4.822   0.691
61725W        W33341  39.892  14.844   4.164
61726W        W33342   4.405  27.691   1.387
61727W        W33343  18.301   6.950   1.415
61728W        W33344  24.313  44.427  14.675
61729W        W33345  26.946   8.341  11.658
61730W        W33346  20.326  22.507   2.125
61731W        W33347   6.220  35.901  14.411
61732W        W33348  26.013  12.145  10.775
61733W        W33349  24.257  17.119   5.152
61734W        W33350  17.741  43.404  12.083
61735W        W33351  26.219  26.519  11.957
61736W        W33352  17.827  24.427  13.134
61737W        W33353  13.202  17.260  11.442
61738W        W33354  22.711  13.220  14.056
61739W        W33355   1.201  20.093  11.673
61740W        W33356   6.353  29.729   2.796
61741W        W33357  24.690   5.614  12.658
61742W        W33358  14.342  32.010   4.333
61743W        W33359  36.104  28.535  14.927
61744W        W33360  33.621  28.249  11.522
61745W        W33361  39.472  26.518   2.750
61746W        W33362  21.647  29.926   0.374
61747W        W33363   0.241  17.361   1.911
61748W        W33364  29.473  21.266   3.631
61749W        W33365  19.711  39.398   1.418
61750W        W33366  39.370   1.442   1.931
61751W        W33367  23.681  36.469  14.768
61752W        W33368   7.801  40.921   4.305
61753W        W33369  24.078  28.543   2.545
61754W        W33370  29.903  22.084   0.198
61755W        W33371  36.630  34.878   4.575
61756W        W33372  34.303   2.332   1.831
61757W        W33373  29.435  37.918   3.577
61758W        W33374  12.359  44.133   4.128
61759W        W33375  26.255   2.432   2.877
61760W        W33376   2.326  35.783  14.959
61761W        W33377  40.933  20.029   1.832
61762W        W33378  44.848  12.604  11.892
61763W        W33379   8.961  20.532   1.725
61764W        W33380   3.404  32.311  12.820
61765W        W33381  21.114  14.094   1.507
61766W        W33382   7.739  27.535  12.771
61767W        W33383  16.333  33.162   3.241
61768W        W33384  43.926  28.184   1.149
61769W        W33385  26.694  38.448   1.340
61770W        W33386   0.059  20.133   2.306
61771W        W33387  27.651   4.274   2.278
61772W        W33388  10.098   5.827  11.577
61773W        W33389  32.992  41.301  11.672
61774W        W33390  30.427  30.687  12.843
61775W        W33391  20.996  40.820   0.196
61776W        W33392  29.113   6.515   0.184
61777W        W33393   7.819  43.485  11.851
61778W        W33394  23.633   2.675  10.761
61779W        W33395  10.913  34.004   4.042
61780W        W33396  30.252  18.285   2.735
61781W        W33397   6.435   9.508   3.134
61782W        W33398   8.971  43.926  12.018
61783W        W33399  34.602  22.957  14.030
61784W        W33400   9.651  34.856   4.626
61785W        W33401   6.867  36.358   0.368
61786W        W33402   3.117  34.463   3.858
61787W        W33403  12.616  24.849  13.724
61788W        W33404  24.204  39.104   4.963
61789W        W33405   3.229   7.358   2.028
61790W        W33406  18.360  23.686   2.774
61791W        W33407   5.620  12.815  13.585
61792W        W33408  39.230   7.631  14.306
61793W        W33409  22.989  26.781  13.311
61794W        W33410  27.236  33.883  13.745
61795W        W33411  17.985  32.444  12.855
61796W        W33412  21.737   8.121   0.921
61797W        W33413  33.598  17.421   1.718
61798W        W33414  26.598   0.767   4.962
61799W        W33415  38.829  32.427   4.681
61800W        W33416  32.857  17.325  12.412
61801W        W33417  40.187  30.489   2.655
61802W        W33418  21.902  12.242  10.780
61803W        W33419  13.161  24.750  11.087
61804W        W33420  37.144  26.115   3.854
61805W        W33421  18.466  23.735   1.785
61806W        W33422   8.674  43.032  11.603
61807W        W33423  31.399  13.082  10.653
61808W        W33424  10.862  23.715  10.462
61809W        W33425  23.558  18.096  12.690
61810W        W33426  38.901  16.256  13.826
61811W        W33427  14.833  29.692   3.268
61812W        W33428  34.003   3.019  10.757
61813W        W33429  39.800  26.034   0.909
61814W        W33430  37.648  14.561   0.284
61815W        W33431  34.178  13.382  12.871
61816W        W33432  37.024  13.287   4.364
61817W        W33433   0.856   4.435   2.757
61818W        W33434   6.445  21.660  14.837
61819W        W33435  38.877  14.490   2.241
61820W        W33436  26.704   7.845  14.847
61821W        W33437   4.473   4.734  13.028
61822W        W33438  33.980  40.306   1.780
61823W        W33439  39.814  17.655   4.650
61824W        W33440   2.659  10.864   1.265
61825W        W33441  21.042   5.285  12.278
61826W        W33442  33.061  33.766   4.174
61827W        W33443  17.778  32.470   4.138
61828W        W33444  34.165  41.025  11.101
61829W        W33445  23.550  14.998   2.355
61830W        W33446   6.100  17.841  11.771
61831W        W33447   7.212  43.095  13.439
61832W        W33448  37.593  37.842  13.054
61833W        W33449  26.188  15.827  13.861
61834W        W33450  19.168  38.437   2.379
61835W        W33451   7.372   1.605   0.699
61836W        W33452  15.002  34.329   2.693
61837W        W33453  36.923  35.376   3.487
61838W        W33454  30.355  29.503  11.173
61839W        W33455  17.522  29.168  12.315
61840W        W33456   4.952  18.214   1.844
61841W        W33457  29.648   6.429  11.993
61842W        W33458  43.115  25.671  12.333
61843W        W33459   3.914  29.405   2.921
61844W        W33460  41.872  29.441   0.358
61845W        W33461   3.103  15.762  13.402
61846W        W33462  10.734  26.751   2.241
61847W        W33463  27.050  40.846   3.502
61848W        W33464  17.598  43.678  14.355
61849W        W33465  16.569  16.683   1.966
61850W        W33466   3.214  38.573  12.243
61851W        W33467   5.900   1.803  12.963
61852W        W33468  27.913  33.201  13.454
61853W        W33469  25.770  26.880  13.141
61854W        W33470  27.017  33.095  11.490
61855W        W33471   0.960  28.077   0.050
61856W        W33472  15.677  26.225  10.626
61857W        W33473  27.572   3.813  14.796
61858W        W33474  29.064  34.053   3.525
61859W        W33475  12.706   2.931   2.992
61860W        W33476  32.125   5.297  10.565
61861W        W33477  32.308  36.136   5.005
61862W        W33478   5.297  18.643  11.974
61863W        W33479  14.739  31.048  13.029
61864W        W33480  35.277  34.022  12.862
61865W        W33481  18.129  23.700  13.398
61866W        W33482  29.111  34.463   3.153
61867W        W33483  10.707  20.298   2.282
61868W        W33484  37.047   0.211  14.764
61869W        W33485  40.247  31.992  10.639
61870W        W33486   1.563  36.541  10.724
61871W        W33487  40.140  42.751   1.366
61872W        W33488  44.358   3.704  12.451
61873W        W33489  33.576  42.873   5.033
61874W        W33490  42.578  39.678  13.784
61875W        W33491  41.333  26.435   1.239
61876W        W33492  21.259  20.550  12.013
61877W        W33493  23.974  41.779   1.517
61878W        W33494  39.084  38.941   3.202
61879W        W33495  23.309  28.050  14.393
61880W        W33496  18.712   0.403   4.479
61881W        W33497   6.684  11.867   0.725
61882W        W33498  39.920   6.613  12.153
61883W        W33499  21.134  44.368   1.068
61884W        W33500  39.387  11.772  14.751
61885W        W33501  27.189  15.239   4.610
61886W        W33502   3.947   3.363   1.801
61887W        W33503  31.426  39.741   0.847
61888W        W33504  28.042  41.108   3.218
61889W        W33505  34.787  13.325  14.957
61890W        W33506  32.637  31.526  14.051
61891W        W33507  31.051  26.050  10.496
61892W        W33508   2.133  29.114  10.594
61893W        W33509  42.932  44.550  14.901
61894W        W33510  15.699  36.406   1.920
61895W        W33511  36.237  22.673   5.016
61896W        W33512  43.088  32.467   1.014
61897W        W33513   8.276  25.959   3.420
61898W        W33514  40.088  42.892   0.864
61899W        W33515  33.797  27.116   2.013
61900W        W33516  20.383  31.186  11.913
61901W        W33517   4.891   6.941   0.738
61902W        W33518   4.891  43.975   4.183
61903W        W33519  34.639  12.047  11.193
61904W        W33520  26.622  11.717   4.083
61905W        W33521   4.644  32.816   1.698
61906W        W33522  42.614   8.179   0.981
61907W        W33523   9.216   4.521   0.653
61908W        W33524  42.507  11.140  13.641
61909W        W33525  26.578   5.162   1.119
61910W        W33526  21.790  18.924  14.318
61911W        W33527  20.283  43.875  14.410
61912W        W33528  43.490  39.805   3.105
61913W        W33529   5.187  33.499  13.805
61914W        W33530  21.202  27.368  10.165
61915W        W33531  20.216  42.769  11.854
61916W        W33532  13.230  11.119   2.269
61917W        W33533   1.184  32.152  10.623
61918W        W33534  20.690  17.910   0.287
61919W        W33535   2.788  26.119   1.743
61920W        W33536  22.612  23.911  10.453
61921W        W33537  29.864   0.376   0.825
61922W        W33538  19.539  38.921  11.130
61923W        W33539  23.413  10.227   1.192
61924W        W33540  18.062  19.728   2.232
61925W        W33541  26.734  44.877  12.888
61926W        W33542  42.895  43.674  13.481
61927W        W33543  13.886  12.665  14.254
61928W        W33544  16.412  35.103   1.453
61929W        W33545  16.248  26.984   4.776
61930W        W33546  28.933  11.664  14.358
61931W        W33547  43.032   9.893  11.622
61932W        W33548  33.451  27.252   3.528
61933W        W33549  29.887  37.551  11.137
61934W        W33550   2.869   1.326   3.354
61935W        W33551  31.520  32.776  14.212
61936W        W33552  14.794   0.815   3.874
61937W        W33553   3.763   3.288  14.358
61938W        W33554  19.440  38.024   4.185
61939W        W33555  19.697  25.074  14.523
61940W        W33556  35.086  21.703   3.267
61941W        W33557  41.419  16.863  10.368
61942W        W33558  15.031  18.744  13.508
61943W        W33559   2.169  36.003   1.387
61944W        W33560  31.977  40.867   2.225
61945W        W33561   8.909   6.774  12.953
61946W        W33562  16.098  16.399   3.848
61947W        W33563   5.357  36.957  11.941
61948W        W33564  21.960  39.109   1.236
61949W        W33565  31.490   1.056  11.151
61950W        W33566  13.324   1.955   1.791
61951W        W33567   1.476  31.041  13.527
61952W        W33568  12.307  29.666   3.676
61953W        W33569  42.319  11.139  12.580
61954W        W33570  36.516  41.874  12.400
61955W        W33571  10.192   8.961   0.052
61956W        W33572  35.939  18.619   0.216
61957W        W33573  34.345  39.804   3.537
61958W        W33574  11.633   4.437  11.110
61959W        W33575  18.305  43.451   0.798
61960W        W33576  42.261  25.048   0.363
61961W        W33577  17.704  29.353   4.729
61962W        W33578   5.037  42.117   1.968
61963W        W33579  27.189   5.211  13.365
61964W        W33580  13.852  14.076  10.898
61965W        W33581  11.456   3.284  11.903
61966W        W33582   0.642   0.712   3.214
61967W        W33583  28.115   5.951   0.630
61968W        W33584  15.210  11.425   0.794
61969W        W33585   7.682  40.781   3.275
61970W        W33586  37.013  37.033  12.761
61971W        W33587   0.796  36.389   2.348
61972W        W33588  27.590   2.245  14.815
61973W        W33589   9.414   6.634   1.813
61974W        W33590  26.009  24.195  11.414
61975W        W33591   2.349  14.250  11.241
61976W        W33592  40.059  37.904  12.998
61977W        W33593  42.942  15.851  13.351
61978W        W33594  33.730   7.028   0.894
61979W        W33595   8.945   2.476   4.109
61980W        W33596  42.421  27.533  14.479
61981W        W33597   5.239   3.827   0.464
61982W        W33598  10.301  12.387  12.624
61983W        W33599  23.090  39.448   1.921
61984W        W33600  28.258  22.809  10.154
61985W        W33601  18.380   6.168  14.235
61986W        W33602  30.226  27.665  10.636
61987W        W33603  33.094  24.200  11.206
61988W        W33604  27.517   9.040   2.918
61989W        W33605  11.696  13.759  13.386
61990W        W33606  43.933  34.943   3.048
61991W        W33607  14.710  14.275  13.720
61992W        W33608  42.255  16.776   4.775
61993W        W33609  17.191  32.393   1.219
61994W        W33610   4.918  43.489  11.510
61995W        W33611   3.045  12.123  11.630
61996W        W33612  36.950  33.500  13.390
61997W        W33613  14.550  19.475   2.755
61998W        W33614   5.035  18.641  13.274
61999W        W33615  12.768   5.698  13.614
62000W        W33616  26.254  44.872  13.051
62001W        W33617   5.953   6.927   0.414
62002W        W33618  25.721   6.441  10.746
62003W        W33619  33.978  41.154  12.461
62004W        W33620  16.668   3.929  13.035
62005W        W33621  36.375  22.754  12.401
62006W        W33622  24.243  34.301  14.250
62007W        W33623  35.366   1.170  14.410
62008W        W33624   8.003  26.353   5.043
62009W        W33625  15.104  44.434   4.577
62010W        W33626  16.114   5.778  13.277
62011W        W33627   4.886  27.573   4.861
62012W        W33628  34.612  34.641   3.788
62013W        W33629  40.851  22.075   4.477
62014W        W33630  40.785  43.314  12.769
62015W        W33631  19.679  37.279   1.337
62016W        W33632  20.383   9.642   4.653
62017W        W33633  10.451  34.132   2.728
62018W        W33634   8.511  21.199   2.802
62019W        W33635  40.542  31.698   3.348
62020W        W33636  26.107  15.304   3.665
62021W        W33637   9.610  24.237   1.480
62022W        W33638  25.046  15.828   0.710
62023W        W33639   4.357   4.392  12.134
62024W        W33640  24.367  14.367  13.165
62025W        W33641  24.751  23.999  13.822
62026W        W33642   7.748  25.718   1.659
62027W        W33643  44.260  12.996  11.594
62028W        W33644  30.321  25.699  11.013
62029W        W33645  43.344  35.600   1.633
62030W        W33646  31.094  28.841  12.008
62031W        W33647  41.009  15.717   3.385
62032W        W33648  15.731  42.595  11.877
62033W        W33649   8.067  13.543   0.236
62034W        W33650  37.620   8.840  14.256
62035W        W33651  29.919  29.908   3.189
62036W        W33652  25.247  31.385   3.205
62037W        W33653  33.125  44.461   0.452
62038W        W33654  22.612  26.669   2.652
62039W        W33655  33.070  16.965   3.288
62040W        W33656  10.009  29.184   2.337
62041W        W33657  21.834  41.520   1.237
62042W        W33658  15.547  33.995   4.482
62043W        W33659  19.287  16.070   4.257
62044W        W33660  31.756  40.001   4.081
62045W        W33661  35.995  31.115   5.268
62046W        W33662  36.377  44.849   1.187
62047W        W33663  42.956  30.961   2.202
62048W        W33664  33.081  38.316  13.476
62049W        W33665  19.359  15.348  13.541
62050W        W33666  28.585   0.056  11.726
62051W        W33667  37.946  24.177  13.037
62052W        W33668  44.519  39.094  13.410
62053W        W33669  24.477  42.376  12.975
62054W        W33670   2.397  20.976  14.988
62055W        W33671  26.872   6.321   4.424
62056W        W33672  31.073  10.259  14.435
62057W        W33673  17.026  18.473  12.602
62058W        W33674  42.267  35.065  10.398
62059W        W33675  24.765  24.818   2.142
62060W        W33676  15.283  18.588   1.744
62061W        W33677   4.887  42.913   5.066
62062W        W33678  29.018   2.174   0.395
62063W        W33679  26.525  30.860  14.243
62064W        W33680   7.339  44.202   4.608
62065W        W33681  11.766  30.378   1.196
62066W        W33682  23.830   8.756  13.621
62067W        W33683  43.426  15.730   9.963
62068W        W33684  35.347  28.830  13.925
62069W        W33685   2.568  38.440   2.386
62070W        W33686  41.353  34.899  10.437
62071W        W33687  35.637   7.404  11.174
62072W        W33688  26.983  43.723  12.517
62073W        W33689  43.459  43.527  12.482
62074W        W33690   0.935  19.545  13.385
62075W        W33691  16.209  19.794   2.277
62076W        W33692  14.914  20.302  10.803
62077W        W33693  37.877  42.021   3.166
62078W        W33694  13.655  17.807  11.961
62079W        W33695  22.510  19.453  14.525
62080W        W33696  37.941   9.554  12.457
62081W        W33697  25.174  17.777  13.388
62082W        W33698  38.974  33.145   1.956
62083W        W33699  38.983  44.684   2.840
62084W        W33700  30.594  12.391   2.750
62085W        W33701  34.868  26.954  11.518
62086W        W33702   2.303  25.570  12.022
62087W        W33703  21.000  11.532   4.952
62088W        W33704  40.759   3.987   0.092
62089W        W33705  11.847  27.178   2.009
62090W        W33706   2.360  30.053   4.458
62091W        W33707  19.657  10.858   0.371
62092W        W33708  37.807  22.747   2.807
62093W        W33709   7.369  33.612  13.515
62094W        W33710  30.466  30.170   0.467
62095W        W33711   6.790  41.357   2.819
62096W        W33712  11.925  34.480   2.228
62097W        W33713  24.034  42.194   4.385
62098W        W33714  14.813  35.610   3.698
62099W        W33715   5.511   2.911  12.113
62100W        W33716  44.552  20.510   1.643
62101W        W33717  36.417  12.729   0.239
62102W        W33718  11.884  18.490  14.094
62103W        W33719  32.640   7.789   2.340
62104W        W33720  10.644  17.479  14.866
62105W        W33721  12.145  20.530   4.817
62106W        W33722  33.385  36.773  12.909
62107W        W33723  38.365  12.763  12.608
62108W        W33724  24.602   4.922   4.618
62109W        W33725  10.971  13.601   4.485
62110W        W33726  14.745  20.120  13.019
62111W        W33727  14.516  10.923   3.649
62112W        W33728  26.660  21.090  10.373
62113W        W33729  37.403  17.067  13.160
62114W        W33730   4.504  36.301  12.066
62115W        W33731  27.267   1.421  14.582
62116W        W33732  10.474   2.982  13.624
62117W        W33733  42.125  10.111  14.411
62118W        W33734  29.472  43.449   3.364
62119W        W33735  18.226  36.951   3.480
62120W        W33736  37.023  21.072  14.408
62121W        W33737  12.270  41.412   1.724
62122W        W33738   4.288  13.053  11.981
62123W        W33739   7.228  35.121  13.434
62124W        W33740  43.339  19.557  14.407
62125W        W33741  17.835  15.480   3.633
62126W        W33742   1.423  37.524  10.934
62127W        W33743   1.606  34.897   0.371
62128W        W33744  29.688  15.147  12.210
62129W        W33745  43.331  44.548  10.527
62130W        W33746  28.994  29.357   1.763
62131W        W33747  44.600  38.605   1.006
62132W        W33748  29.161   4.937  12.558
62133W        W33749  13.479   6.227   0.229
62134W        W33750  10.263  17.323  14.511
62135W        W33751  24.614  18.331   4.263
62136W        W33752  15.889  37.937  13.001
62137W        W33753  35.967   0.953  14.378
62138W        W33754  18.300  21.640   2.261
62139W        W33755  34.083  12.918   4.109
62140W        W33756  12.584   0.429   0.226
62141W        W33757  23.207   7.175  12.994
62142W        W33758  15.722  21.365   2.461
62143W        W33759  37.995  16.337   3.327
62144W        W33760  11.707   3.113  13.010
62145W        W33761  20.497  31.514   0.296
62146W        W33762  21.253  28.400   2.810
62147W        W33763  38.482  26.471   4.576
62148W        W33764   2.165  32.121   2.660
62149W        W33765  19.505   9.375   4.168
62150W        W33766  41.490  31.990  11.965
62151W        W33767   2.736   1.221  11.518
62152W        W33768  41.303   2.900   4.688
62153W        W33769  30.159  35.149  11.192
62154W        W33770  32.115  31.001   2.654
62155W        W33771  11.878   9.279  13.132
62156W        W33772  28.410   4.123   1.827
62157W        W33773  25.693  16.524   3.773
62158W        W33774  22.912  19.045  12.080
62159W        W33775  18.599  43.850   1.699
62160W        W33776  21.771  35.770   4.255
62161W        W33777  38.892  30.569  14.376
62162W        W33778  21.141  40.010   2.077
62163W        W33779  15.096   6.928  14.985
62164W        W33780  13.392  18.146   3.173
62165W        W33781  36.289  43.298   4.281
62166W        W33782  22.088  23.705   3.261
62167W        W33783  35.219   0.998   3.341
62168W        W33784  26.965  17.505  11.308
62169W        W33785  19.561  22.444  14.729
62170W        W33786  24.566  37.084  14.873
62171W        W33787  33.652  40.864  11.192
62172W        W33788  28.224  38.131   1.261
62173W        W33789   9.994  14.641   3.335
62174W        W33790  36.134  41.454  13.768
62175W        W33791   1.907   9.350  14.975
62176W        W33792  19.041  27.174   2.787
62177W        W33793   5.020  14.715   2.010
62178W        W33794  22.034  30.537   1.857
62179W        W33795   4.198  19.488   1.049
62180W        W33796  10.226   3.213  11.021
62181W        W33797  21.731  41.956   0.929
62182W        W33798  11.711   4.297  14.858
62183W        W33799  13.425   4.498   1.225
62184W        W33800  24.735  37.965   3.262
62185W        W33801   3.308   3.794  14.913
62186W        W33802  28.936  32.307   4.168
62187W        W33803  12.884  25.223   2.158
62188W        W33804  24.034   4.744   4.751
62189W        W33805  15.086   3.322   3.699
62190W        W33806   2.750  28.705  12.982
62191W        W33807  16.682  12.636   1.811
62192W        W33808  25.568  12.901  10.762
62193W        W33809  10.574  39.162  10.014
62194W        W33810  36.825  11.032   1.688
62195W        W33811  41.382  43.795   2.589
62196W        W33812  20.528  31.956   4.580
62197W        W33813  37.160  44.290   2.785
62198W        W33814  12.751  33.389   0.741
62199W        W33815  35.975   7.116   1.338
62200W        W33816  25.655  32.746   0.404
62201W        W33817  10.677   5.476   3.843
62202W        W33818  42.238  17.615   2.296
62203W        W33819   3.188  40.210  10.256
62204W        W33820  29.097  30.531  11.819
62205W        W33821  40.008  31.673   1.458
62206W        W33822   0.151  37.889   3.832
62207W        W33823  24.946  16.540   3.183
62208W        W33824  26.453  19.899  11.664
62209W        W33825  26.963   0.892  11.539
62210W        W33826   7.632  35.399   4.314
62211W        W33827  10.644  13.931  14.961
62212W        W33828  18.691  15.812   3.342
62213W        W33829  38.743  37.314  14.752
62214W        W33830   9.228   7.952  13.850
62215W        W33831  15.749  17.781  10.674
62216W        W33832   8.268   6.003  13.332
62217W        W33833  40.389   9.191  13.372
62218W        W33834  33.074  19.715  12.868
62219W        W33835  36.111  15.523   4.196
62220W        W33836  23.794  32.368   4.722
62221W        W33837  14.118  34.382  10.777
62222W        W33838  33.047  29.360  12.085
62223W        W33839   3.792  32.166  13.988
62224W        W33840  36.439  36.233  14.467
62225W        W33841  21.889  27.766   2.328
62226W        W33842  13.669  17.793   9.746
62227W        W33843  12.315  32.365  10.687
62228W        W33844  41.872  23.649   2.405
62229W        W33845  13.263  14.822  11.451
62230W        W33846   4.647  18.211  12.445
62231W        W33847  13.173  13.117  13.925
62232W        W33848  20.212   4.781  12.524
62233W        W33849  43.901  36.337  14.888
62234W        W33850  12.657  30.343   1.376
62235W        W33851  34.836  22.576   2.928
62236W        W33852  39.914  25.073   0.582
62237W        W33853  44.504  34.935   4.409
62238W        W33854  29.734  11.869  14.705
62239W        W33855  28.147   8.175   3.695
62240W        W33856  38.867   2.484  12.863
62241W        W33857  26.096   1.146  11.534
62242W        W33858  39.674  28.626   1.766
62243W        W33859  15.605  36.471   0.402
62244W        W33860   2.381  43.879  10.701
62245W        W33861   0.275  32.646   4.594
62246W        W33862   2.507   5.538   4.661
62247W        W33863  35.031   2.990  11.511
62248W        W33864  29.390  14.582  14.426
62249W        W33865  13.586  22.219  14.932
62250W        W33866  33.612  19.170  14.415
62251W        W33867  13.608  20.297  14.076
62252W        W33868  32.061  42.304   4.349
62253W        W33869  27.627  33.863  11.079
62254W        W33870  37.123   7.585   3.351
62255W        W33871  16.997  34.779  13.835
62256W        W33872  27.998  43.688   3.335
62257W        W33873  39.935  24.116   0.535
62258W        W33874  34.679   8.750  12.641
62259W        W33875  31.846  44.925   0.624
62260W        W33876  26.135   9.636   3.175
62261W        W33877  41.924   8.849   0.480
62262W        W33878   3.830  37.901  14.012
62263W        W33879  28.015   2.841   3.745
62264W        W33880  20.280  33.562   2.135
62265W        W33881  18.126  30.186   4.503
62266W        W33882  29.606  23.590   2.692
62267W        W33883  35.516  17.966   4.277
62268W        W33884  16.605  35.637   4.274
62269W        W33885  30.775  20.115   0.834
62270W        W33886  40.522  31.189   3.238
62271W        W33887  10.892  19.670   2.796
62272W        W33888  31.332   8.921  14.844
62273W        W33889  24.541   9.863  12.022
62274W        W33890  17.196  41.924  14.063
62275W        W33891  30.125   7.301   4.540
62276W        W33892  14.479  33.870   0.299
62277W        W33893   2.135   4.611   4.321
62278W        W33894  14.894   7.937  11.568
62279W        W33895  13.807  12.612  12.137
62280W        W33896   9.743   0.314   0.944
62281W        W33897  19.630  27.452  12.912
62282W        W33898   8.059  44.952   0.827
62283W        W33899   6.290   7.311  14.416
62284W        W33900  43.030   0.188  11.536
62285W        W33901  10.305  27.218   0.622
62286W        W33902  29.200   0.311   4.616
62287W        W33903   4.179   7.382   1.715
62288W        W33904   2.912  32.487  13.976
62289W        W33905  44.852   1.041  11.254
62290W        W33906  21.612  37.068  10.745
62291W        W33907  35.406  39.001   2.676
62292W        W33908   1.193  40.311   0.788
62293W        W33909  11.444  14.504  10.912
62294W        W33910   3.390  12.113  11.210
62295W        W33911  14.443  39.320   1.224
62296W        W33912  13.362  23.190  12.039
62297W        W33913   8.579   0.885  11.974
62298W        W33914  30.982   0.935   2.973
62299W        W33915  27.549  25.501   4.790
62300W        W33916  28.087  40.924  13.472
62301W        W33917  13.797  16.350  14.710
62302W        W33918  40.029  26.864   0.992
62303W        W33919  24.542  34.047  11.527
62304W        W33920  20.156  41.285  11.813
62305W        W33921  34.384  29.064   1.811
62306W        W33922  31.446  22.971  14.920
62307W        W33923  41.853  37.257  10.944
62308W        W33924  28.002  10.672  11.921
62309W        W33925   5.087  13.085  11.089
62310W        W33926  22.126  11.182   4.141
62311W        W33927  18.489  21.682  13.990
62312W        W33928  27.064  40.781  12.949
62313W        W33929  36.443  24.258  11.173
62314W        W33930  11.857  28.049   0.936
62315W        W33931  41.935  22.595   2.429
62316W        W33932   1.965  36.671   4.477
62317W        W33933  33.446  44.784   4.937
62318W        W33934   2.528   6.499   4.915
62319W        W33935  40.751  14.557  11.250
62320W        W33936  30.610  28.607  11.158
62321W        W33937  39.403   1.327   2.890
62322W        W33938  10.691   2.881   4.706
62323W        W33939  31.409  18.998  14.533
62324W        W33940   8.254  39.104   4.913
62325W        W33941  23.453  40.042  11.015
62326W        W33942  21.436  13.668  13.937
62327W        W33943  25.499  26.443   3.258
62328W        W33944  20.747  43.089   0.001
62329W        W33945  40.514  31.676   3.858
62330W        W33946  36.724  34.411   2.127
62331W        W33947  10.671  34.843   2.426
62332W        W33948  38.674   6.364   1.386
62333W        W33949  21.294  40.295  12.897
62334W        W33950  39.880  39.250   3.786
62335W        W33951  23.785  16.781  12.503
62336W        W33952  33.319  16.890  14.345
62337W        W33953  32.654  39.328   0.944
62338W        W33954   0.416  19.137  10.924
62339W        W33955   0.179  19.098  14.285
62340W        W33956  17.693  27.040  11.645
62341W        W33957  30.575  34.748   2.573
62342W        W33958  25.771   2.945  13.590
62343W        W33959   3.489  35.696  14.939
62344W        W33960  18.559  26.587   4.747
62345W        W33961  17.303  43.445   3.152
62346W        W33962  27.125   9.969  14.394
62347W        W33963  29.493  39.486  13.453
62348W        W33964  38.672  30.949  12.141
62349W        W33965  40.535  22.709   4.888
62350W        W33966  31.450   4.383   4.231
62351W        W33967  30.883   4.516  12.023
62352W        W33968  22.495  14.690   0.269
62353W        W33969  33.933   3.656   2.787
62354W        W33970  33.153  12.854  14.539
62355W        W33971   7.378  34.053   1.744
62356W        W33972  38.725  43.111  14.644
62357W        W33973  18.782  32.318   3.192
62358W        W33974  14.054  16.543  11.569
62359W        W33975  19.423   9.310  14.824
62360W        W33976  10.790   4.920   2.754
62361W        W33977  21.452  41.833   1.911
62362W        W33978   4.388   4.124  13.134
62363W        W33979  28.959  23.028  14.689
62364W        W33980   5.654  31.552  12.633
62365W        W33981  32.390  21.644  13.473
62366W        W33982  36.553   2.886   0.377
62367W        W33983  14.853  43.488   4.029
62368W        W33984  40.396  34.553   2.433
62369W        W33985   2.281  24.026   1.404
62370W        W33986  10.782   2.289   0.850
62371W        W33987  21.202  42.239  14.090
62372W        W33988   7.331   3.691   1.870
62373W        W33989  22.752   8.920   2.881
62374W        W33990  31.332  37.593   4.181
62375W        W33991  41.450  41.864   1.347
62376W        W33992   3.272  23.215  12.368
62377W        W33993  11.287   3.876   0.937
62378W        W33994   9.298  35.602  13.808
62379W        W33995  44.352   8.260  12.734
62380W        W33996  10.867  39.401   2.339
62381W        W33997  21.181  19.617  12.439
62382W        W33998  36.419  32.666   0.371
62383W        W33999  40.558   7.232   0.460
62384W        W34000  44.468  29.936  12.480
62385W        W34001  30.871  43.745  11.492
62386W        W34002  11.575  44.207  13.458
62387W        W34003  40.303  33.681  13.984
62388W        W34004  20.060  42.404   2.714
62389W        W34005   9.700  43.699  12.564
62390W        W34006  27.077   8.386   3.266
62391W        W34007  44.417  12.864  12.057
62392W        W34008  18.595   2.239   0.265
62393W        W34009  32.015  11.863  14.350
62394W        W34010  41.246  33.864   2.331
62395W        W34011  17.288   6.760   3.423
62396W        W34012  36.940   2.998   0.008
62397W        W34013  12.668  38.638  12.668
62398W        W34014   5.175  13.306  11.542
62399W        W34015  28.273   6.892  13.986
62400W        W34016  34.698  41.046   3.195
62401W        W34017  37.274  33.097   2.373
62402W        W34018  27.168  38.478  14.744
62403W        W34019   0.217  28.583   3.288
62404W        W34020  34.410   2.928  13.135
62405W        W34021  34.113  25.049  10.972
62406W        W34022  15.455  27.245  14.444
62407W        W34023  41.949  41.545   1.802
62408W        W34024  21.772   8.608  13.291
62409W        W34025   6.171   1.276   4.126
62410W        W34026   7.373   0.863   3.360
62411W        W34027   8.577  28.095  12.127
62412W        W34028  38.621   3.837  14.285
62413W        W34029   9.863   9.696   2.412
62414W        W34030  39.587  42.033   4.762
62415W        W34031  25.287  22.127  10.513
62416W        W34032  29.222  43.951   2.266
62417W        W34033  39.103  15.395  14.988
62418W        W34034  20.230   8.419   2.246
62419W        W34035  30.607  21.711  13.042
62420W        W34036  43.072  30.371   3.382
62421W        W34037  33.064  24.631   2.259
62422W        W34038  20.103  18.822  11.209
62423W        W34039  44.324  24.480   0.938
62424W        W34040  28.067   7.692   0.396
62425W        W34041  43.310  32.587  11.789
62426W        W34042  37.538   9.918   2.247
62427W        W34043  21.352  36.050   4.064
62428W        W34044   9.429   0.652  11.574
62429W        W34045  38.852  25.221   1.075
62430W        W34046  35.203  44.727  10.866
62431W        W34047  42.238  13.079  11.442
62432W        W34048  39.603  10.133   3.115
62433W        W34049   0.479  37.148  12.084
62434W        W34050  18.655  40.086   0.841
62435W        W34051  25.985  10.340   4.323
62436W        W34052   3.725  42.259   4.285
62437W        W34053   9.288  12.412   1.805
62438W        W34054  34.236  32.431  14.942
62439W        W34055  38.874  11.311   1.923
62440W        W34056   7.728  25.204  12.508
62441W        W34057  40.538  36.408  13.806
62442W        W34058  26.572  43.868   4.306
62443W        W34059  43.061  32.268  14.414
62444W        W34060  23.708  20.625   1.343
62445W        W34061  34.484  12.666   4.411
62446W        W34062  14.366  44.981   4.017
62447W        W34063  18.651  23.215  14.346
62448W        W34064  17.751   6.128   4.844
62449W        W34065   8.190  42.419   3.463
62450W        W34066  23.817  19.108  12.361
62451W        W34067  18.930  39.534   1.702
62452W        W34068  27.596  12.414  11.636
62453W        W34069  26.563  41.531   2.378
62454W        W34070   3.085  41.483  12.977
62455W        W34071  23.741  43.001   3.253
62456W        W34072  35.159  16.579  12.973
62457W        W34073  35.992  19.374  10.716
62458W        W34074  32.986   1.016   1.574
62459W        W34075  34.578  22.490   0.264
62460W        W34076   1.143  31.738   0.827
62461W        W34077   3.338   0.465  10.749
62462W        W34078   0.310  22.820   1.823
62463W        W34079  17.311  29.122   1.217
62464W        W34080  25.193  28.270   0.780
62465W        W34081  38.889  28.151   5.088
62466W        W34082  11.676   4.552  12.016
62467W        W34083  22.090  28.874  14.972
62468W        W34084   6.548  20.769  11.001
62469W        W34085  12.252  44.557  11.011
62470W        W34086   7.057  17.505   0.419
62471W        W34087  22.179   1.547   3.610
62472W        W34088   7.349  38.510   1.342
62473W        W34089  39.512  41.010  13.268
62474W        W34090  11.834   3.196   0.839
62475W        W34091  41.122  42.482  12.036
62476W        W34092  26.954   4.276  10.662
62477W        W34093   2.163  25.041  12.516
62478W        W34094  12.096  31.703  14.580
62479W        W34095  19.015   0.477  13.917
62480W        W34096  39.961  38.267   3.374
62481W        W34097  14.610   9.864  14.880
62482W        W34098  16.150   3.288  12.980
62483W        W34099   7.899  22.810   1.839
62484W        W34100   7.173  22.499   2.685
62485W        W34101  28.472  31.053   3.148
62486W        W34102  33.448  15.321   0.483
62487W        W34103  38.915  40.814   0.836
62488W        W34104  25.494  18.261  11.086
62489W        W34105  31.931  43.743   2.768
62490W        W34106  25.239  23.212   2.022
62491W        W34107  40.756   5.264   0.665
62492W        W34108  30.760  38.153  12.400
62493W        W34109  15.116  37.037   1.244
62494W        W34110  40.154   4.884  13.863
62495W        W34111  44.489  12.798  13.916
62496W        W34112   8.762  33.732   5.006
62497W        W34113  26.637  42.191   0.659
62498W        W34114  39.694  22.472  11.927
62499W        W34115  28.466  25.095   4.337
62500W        W34116  42.778  35.336  13.797
62501W        W34117  27.048  31.800   2.535
62502W        W34118  18.602  12.249  14.042
62503W        W34119  23.431   6.243  12.021
62504W        W34120  43.542  32.419  14.298
62505W        W34121  11.839  20.956   4.236
62506W        W34122  29.941  41.915   1.143
62507W        W34123  43.037  19.078  11.644
62508W        W34124   2.211   5.180  14.751
62509W        W34125  10.699  31.360   3.580
62510W        W34126  40.604   1.270   4.180
62511W        W34127  39.476   6.507  12.507
62512W        W34128  39.001  37.993  13.378
62513W        W34129  18.086  27.142   4.257
62514W        W34130   9.592  37.997   1.016
62515W        W34131  39.788  40.294  14.595
62516W        W34132  28.034  18.117  11.168
62517W        W34133   2.917  12.227   0.006
62518W        W34134  34.477  37.404   4.937
62519W        W34135  24.645  22.955   4.897
62520W        W34136  19.210  24.097   3.597
62521W        W34137  27.747  21.731  12.772
62522W        W34138  20.108   6.076   1.327
62523W        W34139  32.382  16.354   2.923
62524W        W34140   8.141  44.758  11.525
62525W        W34141   6.287  21.733   3.327
62526W        W34142  40.379   4.809  11.430
62527W        W34143  10.179  10.954   5.039
62528W        W34144   9.213   8.932   1.333
62529W        W34145   0.825  43.577  13.831
62530W        W34146  13.978  28.643  14.908
62531W        W34147   1.951  41.988  14.385
62532W        W34148  33.629  37.330   4.659
62533W        W34149   1.484   8.686   2.822
62534W        W34150  36.003  33.154   2.973
62535W        W34151  33.094  19.823   4.651
62536W        W34152  41.861  37.257  11.943
62537W        W34153   7.708  44.046   0.209
62538W        W34154  14.526  30.144   3.294
62539W        W34155  27.938  13.135   0.809
62540W        W34156  28.130   2.689   1.602
62541W        W34157  20.027  35.448  11.683
62542W        W34158  36.887  10.576  13.524
62543W        W34159  39.989   9.363  14.944
62544W        W34160  31.217  28.056   4.615
62545W        W34161  18.007  43.912  13.981
62546W        W34162   1.482  22.532  12.904
62547W        W34163   6.592   0.780   0.234
62548W        W34164  12.887  10.243  13.463
62549W        W34165  32.644   2.252  14.367
62550W        W34166  19.147   8.413   0.772
62551W        W34167  26.771  29.315   2.135
62552W        W34168  40.137  22.054   1.765
62553W        W34169  38.370  13.619   2.868
62554W        W34170  41.031  24.308   4.178
62555W        W34171  44.925   5.426   4.593
62556W        W34172  24.500  12.849   0.954
62557W        W34173  17.074  17.362  13.898
62558W        W34174  11.832  15.778  14.886
62559W        W34175  33.972   4.167   1.882
62560W        W34176   4.587   0.371  11.047
62561W        W34177  16.771  27.439  14.827
62562W        W34178  23.236  36.616   4.620
62563W        W34179  36.771  28.942   0.835
62564W        W34180  27.710  16.123   4.564
62565W        W34181  29.053  43.238  14.886
62566W        W34182   1.538  44.362   1.764
62567W        W34183  35.371  16.199   3.878
62568W        W34184  13.835   4.369  13.562
62569W        W34185  29.495   7.745  13.390
62570W        W34186  28.919  18.764   3.590
62571W        W34187  24.161  18.262   3.988
62572W        W34188  21.469  23.580  13.302
62573W        W34189  31.144   4.862   0.021
62574W        W34190  32.673  15.740   4.521
62575W        W34191  31.709  16.638   0.032
62576W        W34192   9.447   3.602   3.772
62577W        W34193  26.766  12.562  12.488
62578W        W34194  10.120  16.084  14.949
62579W        W34195  16.176  21.746   4.245
62580W        W34196   0.963  41.099  13.961
62581W        W34197  38.373  25.020  11.642
62582W        W34198  37.170  17.174  11.880
62583W        W34199  24.230   1.896   1.094
62584W        W34200  23.620  38.400   2.222
62585W        W34201  21.995  14.822  14.298
62586W        W34202  22.494   2.148   2.305
62587W        W34203  22.512   4.337  13.491
62588W        W34204  13.313  43.031   3.279
62589W        W34205  13.064  24.618  12.876
62590W        W34206  14.779  29.063   3.272
62591W        W34207  38.621  19.449   5.056
62592W        W34208  27.229  25.182  11.986
62593W        W34209  37.570   0.356  10.267
62594W        W34210   5.161   7.105  12.944
62595W        W34211  32.522  40.325  12.001
62596W        W34212  35.528  18.687   3.781
62597W        W34213   3.408   6.642   0.200
62598W        W34214   0.283  35.636   0.481
62599W        W34215  32.905  14.894  14.400
62600W        W34216   7.806  44.779  13.580
62601W        W34217   0.133  32.556  14.455
62602W        W34218   0.631   3.021   2.421
62603W        W34219  29.440  14.113  12.900
62604W        W34220  10.091  41.927   4.720
62605W        W34221   3.462   7.828   4.055
62606W        W34222   4.677  43.632   2.883
62607W        W34223  19.562   9.866   4.268
62608W        W34224  34.894  31.230   2.666
62609W        W34225  17.242  41.117  10.638
62610W        W34226  35.043  39.805   2.387
62611W        W34227  28.195  31.617  10.147
62612W        W34228  34.819  32.543  12.051
62613W        W34229  38.420  35.723  14.208
62614W        W34230  27.161   2.456   1.017
62615W        W34231  24.570  39.360   3.342
62616W        W34232  23.933  15.829  13.931
62617W        W34233  27.457  18.187  10.630
62618W        W34234  37.770  25.495   3.589
62619W        W34235  37.292  22.652   2.825
62620W        W34236   6.361  42.408  14.978
62621W        W34237  27.476   4.246  10.652
62622W        W34238  15.879  31.787   2.953
62623W        W34239  16.763  39.756   4.854
62624W        W34240  31.351  44.996   0.509
62625W        W34241  39.342   7.141   3.518
62626W        W34242   4.470  32.063   4.960
62627W        W34243   3.823  13.128   3.271
62628W        W34244   8.885   7.300   4.829
62629W        W34245  14.086   7.640   3.202
62630W        W34246  32.214  11.739   3.816
62631W        W34247  29.686  43.706  12.323
62632W        W34248   6.393  28.706  10.208
62633W        W34249  23.153  30.468  14.896
62634W        W34250  30.577   5.331  11.872
62635W        W34251  26.808  38.969   0.860
62636W        W34252  18.230  44.480  12.440
62637W        W34253  19.646   5.779   0.964
62638W        W34254   0.325  21.290   2.739
62639W        W34255  31.477   7.671  10.629
62640W        W34256  38.482  28.007   1.640
62641W        W34257   5.757  31.388  12.130
62642W        W34258  44.852  33.540   1.772
62643W        W34259   0.739  16.239  12.064
62644W        W34260  17.423  22.155  10.203
62645W        W34261  31.692  32.374   0.367
62646W        W34262   4.631   5.173   3.330
62647W        W34263  26.157   6.840   0.140
62648W        W34264   9.797  40.359  12.478
62649W        W34265   6.560  24.045   0.945
62650W        W34266  20.378  30.062   0.894
62651W        W34267   2.512  32.029  13.422
62652W        W34268  20.079  14.718   0.400
62653W        W34269  18.882  22.495   4.112
62654W        W34270  15.355  36.098  14.315
62655W        W34271  28.705  35.437  12.120
62656W        W34272   8.976  33.387   2.649
62657W        W34273  35.167  32.459  13.311
62658W        W34274  20.216  37.816   0.081
62659W        W34275  34.401  41.747  11.324
62660W        W34276  24.027  43.300  12.091
62661W        W34277   5.460   4.292   0.617
62662W        W34278  35.967  37.895  14.238
62663W        W34279  31.934  20.802  14.364
62664W        W34280  33.822  26.380  10.432
62665W        W34281  11.607  29.705  10.707
62666W        W34282  14.110  26.725  12.463
62667W        W34283  41.352  42.234   0.915
62668W        W34284  17.147  40.328   0.032
62669W        W34285  29.415  24.022   3.397
62670W        W34286  21.990  40.890   3.286
62671W        W34287   7.711  14.745   3.682
62672W        W34288  43.271  19.634   3.266
62673W        W34289  13.721  21.289   0.403
62674W        W34290  13.737  21.141  13.459
62675W        W34291   4.280   6.166  10.999
62676W        W34292  12.682  26.030  10.408
62677W        W34293  35.037  13.019  11.110
62678W        W34294  21.492  26.630  11.461
62679W        W34295  38.945  13.239  12.016
62680W        W34296   4.617  12.588   4.200
62681W        W34297  36.386   9.116  13.747
62682W        W34298   3.919  44.839  13.199
62683W        W34299  36.379  16.507   2.396
62684W        W34300  22.261  37.712  11.621
62685W        W34301  34.268  33.565   4.654
62686W        W34302  31.919  24.661  13.819
62687W        W34303  38.993  22.327  10.872
62688W        W34304  30.589  37.329   1.807
62689W        W34305  35.274  44.308  11.157
62690W        W34306  22.289   5.710   4.183
62691W        W34307  33.383   0.901   3.957
62692W        W34308  24.426  43.014  13.421
62693W        W34309  31.513  12.826  11.100
62694W        W34310  36.424  26.070  11.053
62695W        W34311  30.675  16.081   3.619
62696W        W34312  13.823  42.734   3.371
62697W        W34313  38.573   3.255  12.408
62698W        W34314  43.486   7.385  11.987
62699W        W34315  30.948  16.563   4.654
62700W        W34316  35.235  23.615   0.332
62701W        W34317  36.657  28.594  10.928
62702W        W34318  14.597  39.362   2.580
62703W        W34319  13.176   4.138   2.422
62704W        W34320   8.893  44.877   0.424
62705W        W34321  28.152  43.018  10.259
62706W        W34322  26.714  39.586   0.226
62707W        W34323  10.459  20.461  14.439
62708W        W34324   8.747  16.677  12.375
62709W        W34325   0.751  44.232   0.614
62710W        W34326  40.421   9.647  12.957
62711W        W34327  21.056  26.535  14.260
62712W        W34328  44.871  23.756   0.786
62713W        W34329  39.276  14.594  11.500
62714W        W34330  10.921  19.192  12.925
62715W        W34331  22.181  38.370   0.547
62716W        W34332  29.438  13.134   4.246
62717W        W34333  26.991  23.160   2.382
62718W        W34334  44.030  22.219   3.110
62719W        W34335  36.784  18.646   1.263
62720W        W34336  18.039  25.498   2.822
62721W        W34337  23.685  24.597   0.213
62722W        W34338  42.429  30.005   2.782
62723W        W34339  44.474   1.931   3.115
62724W        W34340  13.145   5.972   9.914
62725W        W34341  21.988  35.604  10.611
62726W        W34342  39.275  20.781   0.884
62727W        W34343  36.845  14.296  10.493
62728W        W34344  22.336  29.774   4.533
62729W        W34345  23.113  28.614  12.950
62730W        W34346  29.230  35.369  10.523
62731W        W34347   0.345  21.826  14.978
62732W        W34348  41.304  29.947  13.959
62733W        W34349  12.350   4.783   3.677
62734W        W34350  25.702  10.061  11.999
62735W        W34351  13.843   2.879   0.214
62736W        W34352  43.346  11.596  12.176
62737W        W34353  41.430  43.784  13.950
62738W        W34354   9.126   5.387  12.496
62739W        W34355  19.747  18.789  14.006
62740W        W34356   1.580   6.337   1.976
62741W        W34357   1.754   0.936   3.926
62742W        W34358  31.060   5.849   4.282
62743W        W34359  11.759   3.424   9.942
62744W        W34360  43.012   8.309   4.633
62745W        W34361  10.248  24.628  13.031
62746W        W34362  19.039   4.333  14.437
62747W        W34363  30.578   9.412   2.857
62748W        W34364  26.754  36.357  10.729
62749W        W34365  34.459   3.724  11.523
62750W        W34366  36.943   7.894   4.882
62751W        W34367   4.696  40.110  11.244
62752W        W34368  11.865  16.717   2.200
62753W        W34369  20.257  41.107   1.357
62754W        W34370  32.860   3.410  13.061
62755W        W34371   3.266  26.675   4.249
62756W        W34372  17.716  10.737  14.701
62757W        W34373  37.015  20.852  12.059
62758W        W34374  11.030  18.041   4.957
62759W        W34375   4.417  23.046   3.311
62760W        W34376  24.095  10.189   1.902
62761W        W34377  33.676  40.807   0.726
62762W        W34378  26.143  44.405   4.832
62763W        W34379  34.330  26.359   2.188
62764W        W34380  23.653  30.755   4.753
62765W        W34381  29.095   1.201   2.889
62766W        W34382  17.075   2.713  13.503
62767W        W34383  15.370  35.834   0.795
62768W        W34384   1.440   9.787  14.440
62769W        W34385  18.538  11.257  13.688
62770W        W34386   5.901  35.872  10.714
62771W        W34387  36.813  33.380  10.685
62772W        W34388  22.209   2.415   2.637
62773W        W34389  43.306  18.816  12.024
62774W        W34390  20.328  36.143   3.771
62775W        W34391  21.029  38.973  12.531
62776W        W34392   5.860  31.575  10.696
62777W        W34393  19.565  26.126  13.592
62778W        W34394   1.669  11.590  12.339
62779W        W34395  17.289  34.702   2.851
62780W        W34396  31.076   8.351   2.336
62781W        W34397  40.598   3.923  11.112
62782W        W34398  16.675   1.168  11.368
62783W        W34399   3.022  23.540   0.285
62784W        W34400  10.947  40.230   1.358
62785W        W34401  13.972  10.187   2.234
62786W        W34402  43.977  40.017   3.285
62787W        W34403  37.417  34.347   2.833
62788W        W34404  11.862  13.661  12.889
62789W        W34405  23.352  31.622   1.505
62790W        W34406  14.003  11.985   2.665
62791W        W34407  13.343   9.711  12.055
62792W        W34408  25.770  18.116  13.826
62793W        W34409   5.104   3.853   1.414
62794W        W34410  14.738  44.418   0.399
62795W        W34411  43.547  14.356  10.773
62796W        W34412  23.453  41.448  13.050
62797W        W34413  12.451  19.030  12.589
62798W        W34414  10.738  20.802   0.227
62799W        W34415  26.997  17.085   2.888
62800W        W34416   4.323   7.151   1.244
62801W        W34417  18.091  38.864  13.081
62802W        W34418   1.859  13.194  12.779
62803W        W34419  38.564  18.603   4.655
62804W        W34420  28.634  28.948  14.916
62805W        W34421   7.169  16.203   1.268
62806W        W34422  20.244  36.081  13.487
62807W        W34423  23.865  28.071   3.221
62808W        W34424   6.267  24.192   3.167
62809W        W34425  23.923  33.716   4.380
62810W        W34426   9.305  31.671  11.483
62811W        W34427   7.811  32.493  12.449
62812W        W34428  29.888  22.312   3.313
62813W        W34429  43.198  24.880   2.408
62814W        W34430   0.913  33.669  10.277
62815W        W34431  29.506  41.366  14.061
62816W        W34432  20.467  30.233   3.253
62817W        W34433   5.206  10.427  14.784
62818W        W34434  28.644  17.406   3.220
62819W        W34435  36.928  13.294  14.321
62820W        W34436   4.429  28.037   3.294
62821W        W34437   1.583  22.611  13.799
62822W        W34438  29.586   0.165   3.788
62823W        W34439  23.111  10.684  13.263
62824W        W34440  15.150  12.150   3.314
62825W        W34441  14.152  23.247  11.173
62826W        W34442  17.156  41.925   0.061
62827W        W34443  37.329  15.773  12.627
62828W        W34444  33.230  30.493   0.707
62829W        W34445   6.399  21.717   4.771
62830W        W34446  21.567  43.782   3.767
62831W        W34447  34.963  44.314  10.697
62832W        W34448  39.557  10.099   2.201
62833W        W34449  44.324  16.890   0.283
62834W        W34450   7.605   6.636   4.634
62835W        W34451  30.723   3.537  11.601
62836W        W34452   7.261  34.455  14.802
62837W        W34453  22.328  32.146   1.105
62838W        W34454  17.662  20.846   1.007
62839W        W34455  26.993  18.090   4.513
62840W        W34456  18.167  23.493  13.867
62841W        W34457   7.155  14.306   1.313
62842W        W34458   4.260  40.012  12.542
62843W        W34459  12.524  41.387  12.942
62844W        W34460   2.276   0.666   9.837
62845W        W34461  13.349  27.148   0.357
62846W        W34462  25.975  39.534  12.022
62847W        W34463  18.567  22.124   4.248
62848W        W34464  27.197  35.027   2.780
62849W        W34465  25.890  14.700  10.844
62850W        W34466   4.863  44.977   3.178
62851W        W34467   3.824   7.978  12.029
62852W        W34468  12.513  16.268   0.421
62853W        W34469  42.884  44.259  12.607
62854W        W34470   4.850   9.936  12.713
62855W        W34471  31.763  26.132   1.279
62856W        W34472  43.303  42.554   2.607
62857W        W34473   3.455  44.756   4.209
62858W        W34474  22.215  19.826  12.046
62859W        W34475  43.254  10.694  14.812
62860W        W34476  40.762  25.771   4.772
62861W        W34477  35.587  15.983   0.805
62862W        W34478  34.058   8.732   0.861
62863W        W34479   3.192  40.696   3.102
62864W        W34480  35.956  39.761  10.726
62865W        W34481   1.732  19.234   2.316
62866W        W34482  37.753   7.143   0.312
62867W        W34483  43.773  14.322   0.964
62868W        W34484  39.095   8.234  11.619
62869W        W34485  22.067  10.270   9.756
62870W        W34486  14.274  23.615   2.865
62871W        W34487  22.478  23.420  12.524
62872W        W34488  11.263  15.379   2.830
62873W        W34489  41.975  19.240  12.058
62874W        W34490  21.041  36.171  14.232
62875W        W34491  11.396  22.587  12.363
62876W        W34492  21.630  39.067  10.578
62877W        W34493  13.934   1.822  11.550
62878W        W34494  15.299  31.598  11.542
62879W        W34495  19.127  27.430   3.255
62880W        W34496  10.548  43.172  11.033
62881W        W34497  23.167  14.763  11.211
62882W        W34498  37.901   1.479   4.659
62883W        W34499  21.034  35.917   0.226
62884W        W34500  34.830  37.928   4.153
62885W        W34501  39.787  27.634   2.344
62886W        W34502  42.408  12.871   4.849
62887W        W34503   8.979  43.963   4.143
62888W        W34504   6.085   7.089  12.895
62889W        W34505  41.881  15.252  14.204
62890W        W34506  28.549  43.022  12.099
62891W        W34507  28.257   9.136   1.278
62892W        W34508   7.347  11.645  13.365
62893W        W34509  24.181   5.780  11.260
62894W        W34510  33.266  43.907  10.372
62895W        W34511   4.179  21.200   2.851
62896W        W34512  16.192  17.623  10.485
62897W        W34513  24.553  21.527   1.946
62898W        W34514  23.771  39.674  13.361
62899W        W34515   9.664  15.692  11.605
62900W        W34516  32.317  16.985   1.447
62901W        W34517  34.621  26.194   2.599
62902W        W34518  39.848  28.889   0.817
62903W        W34519   5.807   6.161   2.261
62904W        W34520  16.690  14.239  10.937
62905W        W34521  36.441   7.634   4.657
62906W        W34522  23.579  24.497  13.801
62907W        W34523  27.225  29.644  12.945
62908W        W34524  26.365  38.359  11.620
62909W        W34525  18.555  38.985  11.439
62910W        W34526  22.919  41.548  12.898
62911W        W34527  41.848  31.670  12.894
62912W        W34528   2.810  25.252  11.942
62913W        W34529  35.721  34.637  11.908
62914W        W34530   1.621   3.485   5.013
62915W        W34531  30.614  20.319  12.058
62916W        W34532  27.762  42.154   0.942
62917W        W34533  40.089  35.764   2.399
62918W        W34534  31.860  15.050   1.422
62919W        W34535  20.986  22.345  14.248
62920W        W34536  31.401  10.824  12.987
62921W        W34537  28.025  40.887   3.729
62922W        W34538   6.862  15.681   3.285
62923W        W34539  42.402  19.823   4.068
62924W        W34540  43.948  44.280  11.038
62925W        W34541  21.863  22.287   1.427
62926W        W34542   9.827  37.890   4.370
62927W        W34543  26.141  16.026  10.254
62928W        W34544  38.608  44.380  14.429
62929W        W34545  27.489  16.923   3.865
62930W        W34546  29.471  35.363  14.078
62931W        W34547  22.526  39.568   4.585
62932W        W34548  24.211  10.161  13.805
62933W        W34549  35.913   0.016   4.636
62934W        W34550  15.128  13.277  12.894
62935W        W34551   2.687  14.020   2.934
62936W        W34552  36.174  24.814  12.099
62937W        W34553  20.729  39.413  14.301
62938W        W34554   3.256  43.406  10.730
62939W        W34555   6.218  22.012  14.495
62940W        W34556  35.122   5.110   4.099
62941W        W34557  10.369  25.732  13.882
62942W        W34558   5.417  29.124  12.924
62943W        W34559   3.639   9.187   1.227
62944W        W34560  23.339  23.554  14.418
62945W        W34561  21.542  22.700  10.647
62946W        W34562  38.891  31.252  10.903
62947W        W34563  29.605  30.413   2.512
62948W        W34564  33.676   7.898  14.513
62949W        W34565   7.006   3.578  10.823
62950W        W34566   4.150  35.086  11.982
62951W        W34567  22.266  15.118   1.812
62952W        W34568  14.626   1.282  10.927
62953W        W34569   7.960  44.387  12.456
62954W        W34570  40.803  43.829  12.835
62955W        W34571  18.367   1.948  13.834
62956W        W34572  37.315  15.545  13.557
62957W        W34573  40.723  12.063  12.558
62958W        W34574  10.248   0.178   3.121
62959W        W34575  40.586  19.386  13.736
62960W        W34576  26.716  28.660  13.439
62961W        W34577  24.006  13.656   4.117
62962W        W34578  11.442  12.263   2.750
62963W        W34579   9.650  30.996   3.167
62964W        W34580   7.842   7.380   2.320
62965W        W34581  12.105  35.784  11.061
62966W        W34582  26.260  12.159   4.139
62967W        W34583  24.521  21.617  11.665
62968W        W34584  37.059  22.609   1.471
62969W        W34585  19.747  18.534  11.519
62970W        W34586  34.460  26.588  13.599
62971W        W34587  40.318  25.587   3.351
62972W        W34588   8.887  34.774  14.012
62973W        W34589  33.780   2.489   9.991
62974W        W34590  27.469  19.683   2.831
62975W        W34591  12.252  31.865   3.852
62976W        W34592  44.533  17.119  12.049
62977W        W34593  25.528   5.599   0.162
62978W        W34594  26.139  33.592   3.590
62979W        W34595  24.950  26.491   4.536
62980W        W34596  27.203   9.140  12.051
62981W        W34597  29.814  22.174   4.699
62982W        W34598  21.188  29.122   3.548
62983W        W34599   5.011  23.426   4.634
62984W        W34600  23.945  40.847  11.971
62985W        W34601  34.135  43.383  14.722
62986W        W34602   3.839   9.674   1.262
62987W        W34603   1.227   0.438   0.950
62988W        W34604   7.736  11.228  13.904
62989W        W34605  25.154  27.655  14.901
62990W        W34606  23.261  24.002   3.593
62991W        W34607  23.188   6.675   4.498
62992W        W34608  17.586   5.849  12.593
62993W        W34609  23.183  29.376  12.400
62994W        W34610  17.742  14.554  12.725
62995W        W34611  10.015   0.164  13.483
62996W        W34612  27.148  40.710  10.705
62997W        W34613   4.368  23.118  10.991
62998W        W34614   5.614  20.205   4.686
62999W        W34615  41.440  39.554  11.969
63000W        W34616  22.232  27.728  14.061
63001W        W34617   3.324   1.451  13.258
63002W        W34618  16.771  14.749   4.645
63003W        W34619  38.829  30.629   4.845
63004W        W34620  22.903   5.425  11.164
63005W        W34621  18.846  15.309  13.472
63006W        W34622  40.632  34.073  13.892
63007W        W34623  41.487  18.782  10.564
63008W        W34624   6.354  10.663   1.885
63009W        W34625  33.561  18.073   2.688
63010W        W34626  13.267   5.705  12.828
63011W        W34627  14.068  26.040   0.794
63012W        W34628  23.608  31.493   0.839
63013W        W34629  10.166   5.991  11.085
63014W        W34630  40.504  20.313   1.767
63015W        W34631  25.380   8.186  14.795
63016W        W34632  13.745  39.388  13.471
63017W        W34633  21.769  42.493   0.254
63018W        W34634  37.219  24.736   2.720
63019W        W34635  24.692  34.983   1.459
63020W        W34636  19.022  33.900  13.765
63021W        W34637  29.421  16.007  11.075
63022W        W34638  43.141  23.027  13.102
63023W        W34639  12.892  18.188   0.637
63024W        W34640   0.942  10.173  10.742
63025W        W34641  21.574   0.923  14.509
63026W        W34642  13.709   6.328   0.725
63027W        W34643  31.357  23.051   3.788
63028W        W34644  28.357  38.370  11.651
63029W        W34645  16.656  25.548   0.468
63030W        W34646  35.538   8.923   3.168
63031W        W34647  12.844  30.533  14.407
63032W        W34648  18.941  10.816  11.729
63033W        W34649  11.322  17.718   1.326
63034W        W34650   7.304   9.184   4.262
63035W        W34651  11.307  27.477  13.616
63036W        W34652  37.370  27.407  14.842
63037W        W34653  24.973   7.850  12.968
63038W        W34654  28.653   5.816  10.804
63039W        W34655   8.414  23.441  11.633
63040W        W34656  15.987  32.892   0.830
63041W        W34657  40.976  29.877   4.313
63042W        W34658  31.683  37.122   0.575
63043W        W34659  21.300  12.704  11.478
63044W        W34660  15.048  41.818   1.844
63045W        W34661  21.655  41.312   3.364
63046W        W34662  20.662   1.931   1.815
63047W        W34663  40.367  13.739  12.125
63048W        W34664  21.723  15.418   0.458
63049W        W34665  25.198  22.155   0.519
63050W        W34666   5.142  10.268   2.648
63051W        W34667  37.079   4.177  13.837
63052W        W34668   2.138  26.030   4.041
63053W        W34669  35.120  11.329   4.573
63054W        W34670  13.283  32.529   0.801
63055W        W34671  29.738  27.447  10.573
63056W        W34672  12.234  10.618  14.977
63057W        W34673   4.920   0.980   1.473
63058W        W34674  13.238  37.693  11.323
63059W        W34675   5.441   7.410  14.967
63060W        W34676   3.870  27.482  12.895
63061W        W34677   5.231   7.414   0.801
63062W        W34678  23.236   4.838  12.449
63063W        W34679  35.071   2.264   1.489
63064W        W34680   4.222  26.958  11.817
63065W        W34681  44.330  17.295  11.172
63066W        W34682   8.241   4.242   3.357
63067W        W34683   8.281  42.913   4.570
63068W        W34684   3.208  38.968   4.507
63069W        W34685  28.476  21.947   3.633
63070W        W34686   8.488  42.892  11.128
63071W        W34687   7.176  18.752  14.901
63072W        W34688  38.020  35.298  12.007
63073W        W34689  15.640  42.223  10.074
63074W        W34690   8.861  15.083  11.210
63075W        W34691  23.703  20.778  12.543
63076W        W34692  37.151  44.203  14.771
63077W        W34693  39.603  11.158   9.549
63078W        W34694  30.878  17.470   3.732
63079W        W34695   2.892  42.793   0.840
63080W        W34696   0.289   6.793   4.106
63081W        W34697  10.663  29.547   1.875
63082W        W34698  34.929   4.012  11.386
63083W        W34699  20.662  26.024  10.684
63084W        W34700  13.279  30.618   3.904
63085W        W34701  34.403   3.418  11.926
63086W        W34702  36.092  12.198   4.966
63087W        W34703  30.883   6.282  12.223
63088W        W34704  14.224   2.378  13.429
63089W        W34705   5.277  40.882   2.420
63090W        W34706  22.282   6.315   3.725
63091W        W34707  23.877  26.503  10.753
63092W        W34708  32.660  20.109  12.865
63093W        W34709   0.157   3.098   3.615
63094W        W34710  14.945  29.675  14.313
63095W        W34711  43.499   0.526  10.705
63096W        W34712  21.000  38.906   4.025
63097W        W34713  23.234   7.749   1.945
63098W        W34714  41.984  15.777   2.715
63099W        W34715  32.014  26.978   1.636
63100W        W34716  15.198  40.806  12.040
63101W        W34717  39.762  33.198  13.046
63102W        W34718  18.111  44.718   2.787
63103W        W34719  25.957   7.167  11.171
63104W        W34720  24.992  32.917   0.726
63105W        W34721   0.562  27.689   1.643
63106W        W34722  37.066  25.581  12.411
63107W        W34723  20.659  18.966  14.401
63108W        W34724   6.751  22.747  13.006
63109W        W34725  34.354  20.056  11.614
63110W        W34726  10.340  39.136  11.090
63111W        W34727  36.504  31.173  13.568
63112W        W34728  21.030  12.419  12.634
63113W        W34729   4.244  18.249   0.700
63114W        W34730   1.023  31.661  10.689
63115W        W34731   2.979   1.139   2.355
63116W        W34732  30.092  26.486  13.913
63117W        W34733  42.697   4.476   3.743
63118W        W34734   6.293  25.049   0.775
63119W        W34735   8.202  19.086   2.150
63120W        W34736  26.123  44.767  13.538
63121W        W34737   4.341   1.356  13.900
63122W        W34738  43.727  30.629   1.351
63123W        W34739  34.019  34.928  14.392
63124W        W34740   4.602  20.297   3.758
63125W        W34741  42.741  14.752   2.300
63126W        W34742  34.470  44.388  10.543
63127W        W34743  30.509  30.875  14.912
63128W        W34744  13.583  40.921   1.576
63129W        W34745   5.121  37.879   3.343
63130W        W34746  24.530  16.566  13.837
63131W        W34747  31.606   7.760   0.333
63132W        W34748  20.566  40.770   0.782
63133W        W34749  13.584   0.226   2.326
63134W        W34750  30.206  26.884   3.750
63135W        W34751   3.866  29.244   0.481
63136W        W34752  15.856  18.523  11.949
63137W        W34753   2.950  29.407   1.357
63138W        W34754  31.554  29.434   3.696
63139W        W34755  28.554  15.132   1.710
63140W        W34756   8.047  19.707   0.253
63141W        W34757  15.218   6.414   2.221
63142W        W34758  30.122   9.233   2.699
63143W        W34759  36.108  33.675  12.091
63144W        W34760  11.161  43.930  14.485
63145W        W34761  11.873   0.269   2.797
63146W        W34762  32.450   3.225   1.272
63147W        W34763  19.164   6.953   1.992
63148W        W34764   7.636  12.855  12.523
63149W        W34765   9.941  38.829   0.476
63150W        W34766  41.852  20.291  12.940
63151W        W34767  23.079  25.695  14.528
63152W        W34768  32.594   2.457  12.164
63153W        W34769  28.438  27.847  12.342
63154W        W34770   1.842  32.907  14.068
63155W        W34771   0.321  21.073  14.436
63156W        W34772  21.560   0.429   4.556
63157W        W34773  44.794  27.188   2.159
63158W        W34774  38.489  18.981   1.427
63159W        W34775  37.315   0.177   2.813
63160W        W34776   0.347  26.584  11.575
63161W        W34777  29.264  36.475   4.247
63162W        W34778   7.145  26.345  11.199
63163W        W34779  44.642   8.001  11.022
63164W        W34780   8.706  11.089   4.494
63165W        W34781  40.741  41.097   1.340
63166W        W34782  13.167  35.969  14.023
63167W        W34783  19.014  22.345   2.277
63168W        W34784  44.463  26.477  12.857
63169W        W34785  41.529  40.862  11.576
63170W        W34786  26.086  15.227  10.097
63171W        W34787  41.307  42.493   0.424
63172W        W34788  24.831  32.111  12.173
63173W        W34789  18.281  39.556  12.536
63174W        W34790  42.816  42.868   1.019
63175W        W34791  34.034  33.034   3.563
63176W        W34792  24.098  25.057   4.601
63177W        W34793  21.173  15.151   4.536
63178W        W34794   4.886  31.466   0.871
63179W        W34795  10.241  14.674   4.160
63180W        W34796  10.269  35.190   2.286
63181W        W34797  38.331  37.840  12.619
63182W        W34798  33.880  25.962  12.084
63183W        W34799  42.756  31.827  11.409
63184W        W34800  19.099  41.756   5.042
63185W        W34801  39.944  30.598   1.730
63186W        W34802  32.372  22.938   3.284
63187W        W34803  25.854   0.598  14.845
63188W        W34804  23.486  33.893  12.131
63189W        W34805  38.543  11.174   3.623
63190W        W34806  18.909   4.887  11.092
63191W        W34807  31.118  24.031  13.003
63192W        W34808  12.596  29.167   3.648
63193W        W34809  23.124   5.857  14.731
63194W        W34810   2.673  21.088   4.272
63195W        W34811  28.246  17.870  13.533
63196W        W34812  39.772  12.555   1.361
63197W        W34813  22.384  37.844   1.275
63198W        W34814  18.519  23.206   3.836
63199W        W34815  13.068  44.876  12.877
63200W        W34816  28.693  12.092   1.284
63201W        W34817  30.862  29.155  13.888
63202W        W34818  10.724  20.125  12.131
63203W        W34819  35.172  24.426  11.598
63204W        W34820  42.996  19.661  12.454
63205W        W34821   1.772  22.244   1.680
63206W        W34822  14.704  43.090   1.053
63207W        W34823  10.668  39.811  14.981
63208W        W34824  21.679   8.132   4.073
63209W        W34825  38.971  30.520  10.075
63210W        W34826  32.672  33.813   3.594
63211W        W34827  20.329   5.466   0.701
63212W        W34828   9.446   6.266  13.455
63213W        W34829  23.177  43.561   2.367
63214W        W34830   9.173  13.708   4.054
63215W        W34831  37.390  26.865  11.670
63216W        W34832  14.892  30.272  13.966
63217W        W34833   2.392   1.747   3.826
63218W        W34834  27.547  34.115   1.772
63219W        W34835  44.554  18.609   4.165
63220W        W34836  10.195  18.696   0.430
63221W        W34837  35.433  23.346  13.543
63222W        W34838  30.329  44.381   2.663
63223W        W34839   6.322  39.800   2.253
63224W        W34840  13.715  25.203  14.873
63225W        W34841   2.343  28.918  11.986
63226W        W34842   8.686  31.112   4.954
63227W        W34843  42.041  21.696  12.971
63228W        W34844   6.525  40.084   2.657
63229W        W34845  18.527   2.529  11.074
63230W        W34846   0.377  19.728  13.057
63231W        W34847   2.939   2.664   1.339
63232W        W34848   5.452  22.026  13.016
63233W        W34849  16.329  18.588   4.181
63234W        W34850  16.568  41.106  14.855
63235W        W34851  44.453  31.983   3.894
63236W        W34852  42.934  34.453  12.708
63237W        W34853  22.806   3.501  14.217
63238W        W34854   6.265  23.585   3.607
63239W        W34855  42.788   4.749   5.031
63240W        W34856  26.745  34.437  11.632
63241W        W34857   7.791  41.578   3.807
63242W        W34858   3.105  37.575   2.811
63243W        W34859  41.049  17.200   1.315
63244W        W34860  17.643  29.031  10.509
63245W        W34861  20.319  20.127  12.003
63246W        W34862  29.573  39.519  12.104
63247W        W34863  22.491  16.588  14.497
63248W        W34864   2.251  41.588   1.778
63249W        W34865   9.697  25.281   2.410
63250W        W34866  10.521  29.169   2.210
63251W        W34867   0.271  44.259  12.489
63252W        W34868  15.538   5.219   0.406
63253W        W34869  16.380  40.992  11.370
63254W        W34870   7.604   3.669  11.493
63255W        W34871  32.160  30.419  14.853
63256W        W34872  24.993  12.826   4.620
63257W        W34873  23.130   2.797   3.811
63258W        W34874  16.977   1.775   4.854
63259W        W34875  28.883  37.872   4.305
63260W        W34876   4.220  18.211  14.362
63261W        W34877  32.389  20.728  11.836
63262W        W34878  31.713  22.066   1.614
63263W        W34879   4.038  36.436  12.247
63264W        W34880  14.601  10.596  12.072
63265W        W34881  23.692  25.216  14.732
63266W        W34882   7.930  33.431   3.743
63267W        W34883  28.545  44.673  10.880
63268W        W34884  16.087  28.201  13.394
63269W        W34885   1.002  44.772   3.613
63270W        W34886  31.488  21.494   0.956
63271W        W34887  28.335  42.738  13.462
63272W        W34888  24.456  10.453  13.112
63273W        W34889  33.798  40.188   1.243
63274W        W34890  31.507   0.275   1.336
63275W        W34891  34.451   1.490   1.701
63276W        W34892  28.983  21.145   4.235
63277W        W34893  29.485  42.571  13.064
63278W        W34894  28.701   3.853   1.508
63279W        W34895  42.472   6.248  14.809
63280W        W34896  18.535  34.532  10.790
63281W        W34897  35.315  35.952   0.526
63282W        W34898  24.702  21.459   3.398
63283W        W34899  18.192  16.947  13.736
63284W        W34900  36.814  33.900   2.256
63285W        W34901  43.627  33.684   9.939
63286W        W34902  15.784  30.719  11.713
63287W        W34903   6.268  38.388  11.413
63288W        W34904   1.213   6.100   2.855
63289W        W34905  31.152  43.997  11.111
63290W        W34906   9.375  16.628  10.655
63291W        W34907  20.550  17.401  11.637
63292W        W34908  37.895  23.722  14.628
63293W        W34909  39.417  38.185  13.616
63294W        W34910  13.741  21.105  12.404
63295W        W34911  22.648  16.904  14.123
63296W        W34912  30.944  15.278  14.795
63297W        W34913  25.039  23.362   1.141
63298W        W34914  19.329  25.663  13.627
63299W        W34915  10.823  38.854  10.396
63300W        W34916   2.824  31.845   1.720
63301W        W34917  21.252   8.301  13.432
63302W        W34918  36.717  21.228   5.146
63303W        W34919  20.539  32.368   2.386
63304W        W34920  22.173  10.723   3.369
63305W        W34921  44.255   2.918   2.182
63306W        W34922   7.358  43.536   3.732
63307W        W34923  15.016  24.206   0.443
63308W        W34924  26.918   2.324   1.455
63309W        W34925  37.282   6.447   4.180
63310W        W34926  22.634   4.987   1.754
63311W        W34927  17.305  20.760  11.158
63312W        W34928  39.029  19.113   0.918
63313W        W34929  23.734  27.224   1.422
63314W        W34930   4.578  36.256   3.758
63315W        W34931  34.517  42.230  12.061
63316W        W34932  20.564   5.298   1.902
63317W        W34933   9.182  13.575   1.259
63318W        W34934  38.015  30.260  10.751
63319W        W34935  42.469  34.189   0.346
63320W        W34936  41.243  12.649  11.601
63321W        W34937  31.764   9.811  14.560
63322W        W34938  13.515   1.157  12.545
63323W        W34939  22.699  19.504  10.097
63324W        W34940  26.967  44.778   2.394
63325W        W34941   7.360  31.417   3.607
63326W        W34942  38.045  42.061  14.373
63327W        W34943   5.911  11.936  10.709
63328W        W34944  42.239  29.087   2.675
63329W        W34945  41.665  15.666  13.515
63330W        W34946  10.073  16.080  13.927
63331W        W34947  19.707  38.383  13.390
63332W        W34948  37.355  18.071  14.955
63333W        W34949  43.413  27.182  11.862
63334W        W34950   2.434   6.226   3.963
63335W        W34951  39.935  30.458  10.664
63336W        W34952  19.746  35.517  14.430
63337W        W34953   1.315  14.267   4.624
63338W        W34954  15.297  35.798   1.799
63339W        W34955   1.134   4.344   3.204
63340W        W34956   6.439  31.702  13.850
63341W        W34957   8.349  30.872   1.734
63342W        W34958  14.906  25.138   0.973
63343W        W34959   6.108  10.253   0.320
63344W        W34960  25.250  22.199   2.256
63345W        W34961  39.886  34.735  14.727
63346W        W34962   0.920  26.098  14.788
63347W        W34963  24.036  12.612   0.820
63348W        W34964  32.648  37.893  11.055
63349W        W34965  14.274  22.980  13.486
63350W        W34966   0.078  33.712   4.250
63351W        W34967  32.571  36.130  11.377
63352W        W34968  27.144   6.511  10.126
63353W        W34969  31.615  34.328  10.680
63354W        W34970   9.668  42.181  11.228
63355W        W34971  28.221   8.880  12.023
63356W        W34972  41.906   2.510  13.821
63357W        W34973  24.529  34.687  13.827
63358W        W34974  14.891  41.415  12.606
63359W        W34975  29.514  11.584  11.104
63360W        W34976  37.411  43.729   0.362
63361W        W34977  31.035  38.573  12.170
63362W        W34978   7.737   6.342   2.215
63363W        W34979  43.357  42.758  10.759
63364W        W34980  11.654  34.982   0.862
63365W        W34981  34.570  33.074   3.646
63366W        W34982  20.751  28.807   1.291
63367W        W34983  22.754  24.427   3.365
63368W        W34984  38.010  38.633   0.387
63369W        W34985  36.343   3.042  12.571
63370W        W34986  40.481   8.428  12.319
63371W        W34987   7.644  30.577   4.233
63372W        W34988  24.467   6.171   3.141
63373W        W34989   8.479  30.431   4.658
63374W        W34990  41.100  33.580  12.773
63375W        W34991  30.561   7.534  12.414
63376W        W34992  36.374  28.693   1.220
63377W        W34993  13.726  42.931   1.993
63378W        W34994  17.079  25.697  14.675
63379W        W34995  38.972  36.826   0.676
63380W        W34996  30.632  44.890  11.094
63381W        W34997  10.689  43.846  12.216
63382W        W34998   9.767  43.340  12.999
63383W        W34999   0.696  13.245   3.434
63384W        W35000   5.263  34.205   3.696
63385W        W35001  44.915  23.145   1.661
63386W        W35002  18.630  18.186  14.905
63387W        W35003   8.220   9.200   4.046
63388W        W35004  37.971  15.537   2.170
63389W        W35005  14.029   6.314   0.324
63390W        W35006  33.152   6.702   4.207
63391W        W35007  16.914  30.199  13.968
63392W        W35008   7.327  23.181   3.134
63393W        W35009  12.143  43.839   0.877
63394W        W35010  36.927  37.011  13.285
63395W        W35011   2.853  38.508  11.018
63396W        W35012  36.051  31.941  13.503
63397W        W35013   0.309  13.521   0.864
63398W        W35014  42.108   6.577  11.491
63399W        W35015  31.406  33.619  13.009
63400W        W35016   5.095  11.906   3.631
63401W        W35017  33.549  26.980  14.356
63402W        W35018  19.658  38.181   2.789
63403W        W35019   0.626  26.495   3.977
63404W        W35020   9.427  27.710   4.544
63405W        W35021   0.228  12.030  14.005
63406W        W35022  33.998  31.985  14.873
63407W        W35023  11.341  33.894   4.307
63408W        W35024   3.392  43.423   2.104
63409W        W35025  17.034  32.329  13.697
63410W        W35026   9.283  29.981   4.825
63411W        W35027  30.177  20.268  11.053
63412W        W35028   8.617  32.108   1.243
63413W        W35029  12.684  37.252   5.033
63414W        W35030  16.001  35.091   4.920
63415W        W35031  34.502  28.159  14.235
63416W        W35032   0.308  23.679  14.499
63417W        W35033   4.798  18.794  12.021
63418W        W35034  19.176   0.498  12.418
63419W        W35035  24.468   6.605  11.210
63420W        W35036  14.609  23.068  11.367
63421W        W35037  34.396   4.413   3.636
63422W        W35038  41.623  31.207   5.143
63423W        W35039  41.321  10.127   4.985
63424W        W35040  40.717  27.055  14.052
63425W        W35041  38.284  17.776   4.375
63426W        W35042  16.300  37.869  13.375
63427W        W35043  19.187  33.537  12.419
63428W        W35044  26.031  14.587   1.533
63429W        W35045   8.489  22.009   3.720
63430W        W35046  17.176  40.275   2.844
63431W        W35047  15.442  29.520   4.127
63432W        W35048  16.080   6.912   0.769
63433W        W35049  24.942  23.621   0.276
63434W        W35050  16.663  21.450   3.357
63435W        W35051  28.613  36.645  11.964
63436W        W35052  37.871   7.177   3.790
63437W        W35053  21.147  21.562  13.859
63438W        W35054  11.368  12.853   0.656
63439W        W35055  36.615  23.654   4.060
63440W        W35056  20.950  37.454  14.674
63441W        W35057  12.684  36.825   4.773
63442W        W35058   4.010  13.073  13.990
63443W        W35059  30.563  16.396  11.568
63444W        W35060  37.633   6.144   0.581
63445W        W35061  20.714  34.038  12.047
63446W        W35062  23.520  17.318   1.005
63447W        W35063  29.347  11.542  10.518
63448W        W35064  24.566  40.769   3.366
63449W        W35065  21.739  21.815  12.831
63450W        W35066   9.278   5.569  11.050
63451W        W35067  12.460  13.860   4.954
63452W        W35068  43.869  43.228  12.428
63453W        W35069   2.774  17.542   1.353
63454W        W35070  26.996  32.991   0.413
63455W        W35071  44.899  16.936  14.431
63456W        W35072  24.585  18.609  12.290
63457W        W35073  26.555   6.164   2.099
63458W        W35074  36.305  35.435   1.166
63459W        W35075  40.477   2.476   1.968
63460W        W35076  28.909   7.629   1.476
63461W        W35077   2.269  10.557  14.896
63462W        W35078   7.216  22.005  10.470
63463W        W35079   5.038  24.671  11.635
63464W        W35080  29.083  10.399   2.190
63465W        W35081  39.993  13.297   4.672
63466W        W35082  16.355  31.864   0.271
63467W        W35083  33.663  14.263  12.073
63468W        W35084  19.266  27.148  11.219
63469W        W35085  32.482   1.251   1.675
63470W        W35086   7.437   9.180  12.098
63471W        W35087  24.560  22.788  12.858
63472W        W35088   9.296  15.191   4.180
63473W        W35089  21.503  13.211  14.871
63474W        W35090  28.057  36.489  11.135
63475W        W35091  23.772  41.305  12.597
63476W        W35092  19.405  25.047   4.683
63477W        W35093  23.976  44.051   0.730
63478W        W35094  37.478  10.292   1.899
63479W        W35095  10.111  39.376   2.583
63480W        W35096  18.387  26.057   3.663
63481W        W35097  27.615  29.137  12.412
63482W        W35098  17.528  42.422  12.088
63483W        W35099  38.357  12.680   3.195
63484W        W35100  27.157  43.897  14.345
63485W        W35101  10.698  17.977   0.008
63486W        W35102  13.808  11.862  14.324
63487W        W35103  18.235  22.449   0.399
63488W        W35104  27.107  40.851   2.110
63489W        W35105  23.238   9.687  12.273
63490W        W35106  33.125  37.351  14.509
63491W        W35107  14.090  22.259  11.183
63492W        W35108   5.777  34.431  13.464
63493W        W35109   7.431  32.209  13.273
63494W        W35110  24.458   1.272  12.470
63495W        W35111  34.651  36.951  12.129
63496W        W35112  37.401   1.482  11.060
63497W        W35113  21.113  41.250   2.267
63498W        W35114  10.833  29.961   0.881
63499W        W35115   1.322   8.238  11.666
63500W        W35116  43.826  20.083   1.600
63501W        W35117  41.541  27.441   4.100
63502W        W35118   9.654  17.875   1.708
63503W        W35119  27.579  36.051  13.335
63504W        W35120  23.918  13.769   1.198
63505W        W35121  41.044  13.541  12.530
63506W        W35122  37.965  29.058   4.803
63507W        W35123   2.437   4.772  13.849
63508W        W35124  10.170  39.851   4.587
63509W        W35125  12.712   8.134  10.871
63510W        W35126  40.153  44.740  14.439
63511W        W35127   4.455  39.007  13.515
63512W        W35128  30.165   5.732   0.323
63513W        W35129  11.116  27.499   1.888
63514W        W35130  41.684  21.500   2.733
63515W        W35131   1.256  38.622  13.823
63516W        W35132   4.604  20.162   4.554
63517W        W35133  26.193  24.235   0.317
63518W        W35134  11.156  33.618   1.249
63519W        W35135  36.599  35.360   0.415
63520W        W35136  37.196  23.103  11.646
63521W        W35137  24.986   9.612   0.410
63522W        W35138  10.470  20.979   3.324
63523W        W35139   1.438  24.303  12.906
63524W        W35140  17.218  25.008   2.014
63525W        W35141   7.139   8.229   1.071
63526W        W35142   4.648  28.490  12.577
63527W        W35143  32.369   9.431  13.946
63528W        W35144  30.879  37.628  12.046
63529W        W35145  18.088  20.999   0.202
63530W        W35146  35.147   7.564  11.861
63531W        W35147   7.341   6.309   4.264
63532W        W35148  19.626  36.104  11.889
63533W        W35149  14.650  12.262   3.618
63534W        W35150  42.651  16.912   1.738
63535W        W35151  33.973  25.416   3.786
63536W        W35152  12.476  37.204   0.392
63537W        W35153   5.737   6.426   2.746
63538W        W35154  28.546  28.703   2.274
63539W        W35155  30.626  14.728  14.012
63540W        W35156   6.960  36.962  10.846
63541W        W35157  40.320  44.791   2.232
63542W        W35158  35.988   3.176  14.781
63543W        W35159  23.939  38.354  13.787
63544W        W35160  26.609  12.608   3.695
63545W        W35161  27.410  23.446   2.219
63546W        W35162  24.755  11.181  12.182
63547W        W35163  21.755  30.709  14.995
63548W        W35164   2.106  22.432  13.892
63549W        W35165  27.565  10.438  10.716
63550W        W35166  39.578  11.977  13.720
63551W        W35167  34.086  43.476   0.248
63552W        W35168  27.763   6.796  14.006
63553W        W35169  25.847   5.785   2.384
63554W        W35170  28.630  35.304  11.266
63555W        W35171  17.097  23.627  10.879
63556W        W35172   8.186  28.705   0.945
63557W        W35173  20.343  24.762  13.906
63558W        W35174  40.112   9.676  12.497
63559W        W35175  23.706  42.391  11.135
63560W        W35176  16.802  13.191   4.600
63561W        W35177  11.044  43.377   1.846
63562W        W35178   2.759   1.722  11.490
63563W        W35179   9.492  29.182   0.385
63564W        W35180   2.258  10.643  13.871
63565W        W35181  35.795  44.300  11.199
63566W        W35182  21.499  27.105   0.772
63567W        W35183   6.290  33.170  11.919
63568W        W35184  19.000  18.636  14.928
63569W        W35185   3.476   0.873   1.713
63570W        W35186  18.017  41.860   3.121
63571W        W35187  26.576   1.456  12.137
63572W        W35188  12.313  33.053   3.767
63573W        W35189   6.423  16.631   1.473
63574W        W35190  40.304  42.019  13.280
63575W        W35191  21.175  38.301  10.403
63576W        W35192  20.190   9.200   4.839
63577W        W35193   1.175  38.953  10.958
63578W        W35194   9.688   7.253  10.712
63579W        W35195  23.712   7.804  13.680
63580W        W35196   6.869  12.815   2.036
63581W        W35197  32.623  18.895   2.408
63582W        W35198  19.004  25.588   0.542
63583W        W35199  14.577   2.031   0.957
63584W        W35200   1.012  18.626  11.180
63585W        W35201   3.357  20.039   3.965
63586W        W35202  28.617   0.569  12.001
63587W        W35203  27.997  40.249  11.678
63588W        W35204   0.881  36.455   4.878
63589W        W35205   6.720  36.444   3.258
63590W        W35206  38.879  42.736   1.800
63591W        W35207   5.884  43.147  13.838
63592W        W35208  11.671  15.028   3.804
63593W        W35209  40.806  13.971   2.780
63594W        W35210  37.825  17.795   3.233
63595W        W35211  35.632  14.120   0.730
63596W        W35212  18.955   9.826   3.647
63597W        W35213  32.057  29.889   4.562
63598W        W35214  22.978  41.873  13.520
63599W        W35215  23.408  23.674  13.451
63600W        W35216  42.300  28.954  12.861
63601W        W35217  30.941  41.020  13.888
63602W        W35218   7.445  42.448  10.695
63603W        W35219   2.836  24.622   4.218
63604W        W35220  24.417  27.644  11.557
63605W        W35221  18.125  34.651  14.963
63606W        W35222  26.871  27.697   2.915
63607W        W35223  29.188   5.576  11.548
63608W        W35224  42.420  41.956   1.223
63609W        W35225  43.014   9.675  12.882
63610W        W35226  23.138   7.191   2.236
63611W        W35227  19.875  31.591   5.008
63612W        W35228  31.681   3.334   4.885
63613W        W35229   9.553  39.321   4.422
63614W        W35230  34.456  17.855  11.405
63615W        W35231  18.266  18.283  11.602
63616W        W35232  23.697  37.828   3.264
63617W        W35233  27.376  14.969  14.481
63618W        W35234  16.823  38.142   0.890
63619W        W35235  32.011  18.536   4.624
63620W        W35236  30.836  39.604   2.312
63621W        W35237   4.793  35.888   1.713
63622W        W35238  30.265  19.172   3.815
63623W        W35239   9.615   3.715   4.249
63624W        W35240  20.250  31.414   3.696
63625W        W35241  14.403  27.355   0.280
63626W        W35242   0.769  37.716   9.951
63627W        W35243  29.955  20.916  14.084
63628W        W35244  41.916  12.939  13.483
63629W        W35245   9.157  35.471  11.027
63630W        W35246  40.466  11.144  10.922
63631W        W35247  33.366  11.827   4.717
63632W        W35248  32.152  18.266  14.391
63633W        W35249   5.168  16.203   1.343
63634W        W35250  16.685  37.052  14.164
63635W        W35251  23.563  26.051  10.679
63636W        W35252   8.823  33.170   3.350
63637W        W35253   0.851  14.581  12.573
63638W        W35254   0.378  30.156   0.887
63639W        W35255  11.577  13.366   3.714
63640W        W35256  32.863   9.615  13.887
63641W        W35257  10.371  18.739  11.641
63642W        W35258  12.222   8.498   4.445
63643W        W35259  16.857  34.967  12.537
63644W        W35260  27.470  34.111   2.767
63645W        W35261  33.904  11.698   2.339
63646W        W35262  17.471   5.872  10.572
63647W        W35263   4.842  38.741   2.390
63648W        W35264  29.036  20.551  11.709
63649W        W35265  13.765  34.471  12.012
63650W        W35266  13.816   2.256  10.623
63651W        W35267   1.806  10.359  14.784
63652W        W35268  34.903  21.984  13.391
63653W        W35269   4.859  28.498   0.888
63654W        W35270   7.200  13.738  14.649
63655W        W35271  19.862  24.213   4.732
63656W        W35272  39.979  13.076   3.605
63657W        W35273  28.084   2.265  10.644
63658W        W35274  20.720  19.467  11.465
63659W        W35275  39.242  42.774  11.982
63660W        W35276  25.452  12.934  12.819
63661W        W35277  17.487  35.018   3.658
63662W        W35278  24.476   9.787  10.699
63663W        W35279  44.189  40.324   2.896
63664W        W35280  11.323  33.922   3.098
63665W        W35281  44.368  33.816  10.541
63666W        W35282  23.683  24.168   3.866
63667W        W35283  10.138  21.484   0.447
63668W        W35284  24.988   0.557  14.479
63669W        W35285  20.490  33.181   0.409
63670W        W35286   9.259  20.253  10.558
63671W        W35287  36.058   4.316   3.625
63672W        W35288  22.057  15.577   1.138
63673W        W35289  31.061  35.310  11.243
63674W        W35290  25.196  22.357   1.383
63675W        W35291  13.206  31.172   0.830
63676W        W35292   5.289  21.967  14.537
63677W        W35293   4.858  36.108   3.186
63678W        W35294  10.425  16.167  13.453
63679W        W35295  36.886  17.380   2.479
63680W        W35296  43.927  11.140  11.929
63681W        W35297  17.671  34.783  12.985
63682W        W35298  31.882   7.632  12.956
63683W        W35299  18.217   9.813  12.831
63684W        W35300  25.430  32.648  14.914
63685W        W35301   8.655  12.807   2.828
63686W        W35302  38.400  29.673   1.169
63687W        W35303  32.890   5.739   1.677
63688W        W35304  40.961  16.284   3.146
63689W        W35305  39.904  21.433  11.064
63690W        W35306  34.435  43.757   4.572
63691W        W35307  16.042  31.993  12.488
63692W        W35308  38.308   0.425  11.956
63693W        W35309  42.855   9.915  12.450
63694W        W35310  27.207  32.995   4.175
63695W        W35311   0.397  22.022   3.355
63696W        W35312  20.860  13.570  11.303
63697W        W35313  31.566   5.607   1.896
63698W        W35314   7.000  21.687  12.067
63699W        W35315   9.753   9.428   3.267
63700W        W35316  17.847  34.443   1.426
63701W        W35317  14.322   4.338  12.824
63702W        W35318  37.504  34.420   3.728
63703W        W35319  30.241  14.896  12.446
63704W        W35320  37.269  22.563   4.544
63705W        W35321  24.158   0.953   5.060
63706W        W35322  23.308   6.690   2.115
63707W        W35323  17.782  20.314  14.595
63708W        W35324   6.793   3.964   2.834
63709W        W35325  30.618  33.650   2.454
63710W        W35326   2.285  33.091  11.450
63711W        W35327   7.961  15.521   4.070
63712W        W35328  21.447  24.242   0.146
63713W        W35329  41.432   4.183   3.158
63714W        W35330  21.883  31.052   0.400
63715W        W35331  23.339  39.381  13.411
63716W        W35332  13.053   1.882   0.454
63717W        W35333  29.396   1.815   1.994
63718W        W35334  34.672  40.910  10.946
63719W        W35335  30.258  23.730   4.052
63720W        W35336  35.062   5.796   0.193
63721W        W35337  19.112  37.382  12.050
63722W        W35338  34.032  34.059  12.671
63723W        W35339  26.268  28.179   0.238
63724W        W35340  36.104  41.575   4.879
63725W        W35341  24.455  31.895   4.467
63726W        W35342  21.180  11.233  14.535
63727W        W35343  24.563   0.243  14.426
63728W        W35344  35.103  26.468   0.428
63729W        W35345   6.239  20.483  14.615
63730W        W35346   8.892  13.328  14.606
63731W        W35347   5.173  34.064   0.504
63732W        W35348  14.856  23.090   3.754
63733W        W35349  19.316   0.448  14.363
63734W        W35350  42.372  30.494  12.961
63735W        W35351  34.905   3.843  14.397
63736W        W35352  28.929  28.066  13.038
63737W        W35353  14.698  25.415  11.189
63738W        W35354  24.704   8.885   1.068
63739W        W35355   7.209  42.688   4.597
63740W        W35356  30.115  15.209   3.236
63741W        W35357  36.296   1.782  14.930
63742W        W35358  40.443  35.023   4.172
63743W        W35359  12.962  28.059   0.746
63744W        W35360   1.386  27.273   4.909
63745W        W35361   9.967  18.702   1.301
63746W        W35362   2.995  15.697   4.701
63747W        W35363  32.576  15.238   4.370
63748W        W35364  17.732  33.045   4.804
63749W        W35365   8.547   1.394  10.535
63750W        W35366  20.740  12.689  11.514
63751W        W35367   5.454  26.010   2.675
63752W        W35368  31.039  21.081  12.596
63753W        W35369  41.077   8.903   2.256
63754W        W35370  13.974  40.427   4.097
63755W        W35371  30.886   3.866  12.672
63756W        W35372   9.195   0.275   0.215
63757W        W35373  10.405   3.458   5.240
63758W        W35374  41.312  36.576  13.443
63759W        W35375  35.610  12.397   3.753
63760W        W35376  14.077  12.651   0.899
63761W        W35377  17.348  39.236   2.529
63762W        W35378   4.946   5.167   4.630
63763W        W35379  28.135  18.233  12.162
63764W        W35380  35.158  24.208  13.165
63765W        W35381   5.951  44.480  13.510
63766W        W35382   6.238  39.716  12.611
63767W        W35383  36.820  15.649   3.094
63768W        W35384  10.592  33.964   2.260
63769W        W35385  16.629  43.208   3.589
63770W        W35386  41.289  21.315   0.691
63771W        W35387  43.399  12.042   2.462
63772W        W35388  19.707  16.166  12.697
63773W        W35389  26.639  14.884  13.330
63774W        W35390  24.538  23.743   3.055
63775W        W35391   8.662  14.205   3.129
63776W        W35392  39.791  28.572  12.425
63777W        W35393  40.421   6.917   0.888
63778W        W35394  14.740  11.890  13.952
63779W        W35395  10.766   8.085  14.417
63780W        W35396   3.711  14.321   0.372
63781W        W35397  30.019  37.979   1.372
63782W        W35398  34.798  41.682   0.935
63783W        W35399   4.758  29.640  14.009
63784W        W35400   7.759   1.174  13.070
63785W        W35401  32.647  15.178  11.818
63786W        W35402  33.055   4.588   1.717
63787W        W35403  23.684  23.684   3.614
63788W        W35404   4.692   1.916  10.630
63789W        W35405  39.849  12.292  12.868
63790W        W35406  16.099  39.497  12.006
63791W        W35407  23.936  27.578   3.699
63792W        W35408  32.332   4.859   1.867
63793W        W35409  40.038  44.263   4.247
63794W        W35410   2.497  44.717   0.745
63795W        W35411  11.004  44.455  14.420
63796W        W35412  22.299  38.999  13.535
63797W        W35413  33.924  31.868  11.923
63798W        W35414  30.572  16.730  10.446
63799W        W35415  40.794  17.063   0.861
63800W        W35416  12.137   5.513  11.385
63801W        W35417   3.395  37.635  12.416
63802W        W35418  43.832  35.894  11.160
63803W        W35419  14.850   3.695  11.965
63804W        W35420  21.976   3.381   4.618
63805W        W35421  24.719  29.629   2.930
63806W        W35422   2.522  13.812   1.725
63807W        W35423  16.340  13.734   4.599
63808W        W35424  31.581  38.016  11.022
63809W        W35425  23.723  10.507  12.059
63810W        W35426   5.878   0.497  12.199
63811W        W35427  18.725  17.073  14.621
63812W        W35428   2.426  24.422  13.332
63813W        W35429  41.542  28.001   4.824
63814W        W35430   6.827  38.581  13.874
63815W        W35431  29.536  19.645  12.882
63816W        W35432  23.067  33.460   3.379
63817W        W35433  11.013   0.222  11.839
63818W        W35434  14.004  11.648   2.267
63819W        W35435  29.786   0.868  10.071
63820W        W35436   4.738  34.335   0.745
63821W        W35437   2.119  21.587   9.854
63822W        W35438  41.748  34.986  12.707
63823W        W35439   9.164  23.547   3.594
63824W        W35440  28.751  38.688   0.322
63825W        W35441   7.874  38.978   0.453
63826W        W35442  32.965  40.366  14.379
63827W        W35443  21.281  35.613   4.340
63828W        W35444  25.611   3.055  12.172
63829W        W35445  24.825   7.608   2.750
63830W        W35446  36.768  43.490   4.194
63831W        W35447   1.465  30.065  13.955
63832W        W35448  11.248  31.698  13.556
63833W        W35449  19.611  44.877   3.823
63834W        W35450  42.727   2.814  10.815
63835W        W35451  10.761  24.610   4.586
63836W        W35452  38.607  20.796   2.703
63837W        W35453  33.980  11.925  13.432
63838W        W35454   3.969   3.737  13.127
63839W        W35455  14.062   2.867  13.463
63840W        W35456   7.201  18.282   3.213
63841W        W35457   7.435  25.581   3.536
63842W        W35458  23.982  18.762   0.881
63843W        W35459  34.441  11.747   2.325
63844W        W35460   3.017  23.061   1.940
63845W        W35461  16.403   6.286   2.818
63846W        W35462  44.272   1.356   1.342
63847W        W35463  36.236   0.666  10.274
63848W        W35464   7.585  31.707   0.742
63849W        W35465  18.602  40.413  14.954
63850W        W35466  21.874   3.441  10.208
63851W        W35467  17.030  37.254  12.899
63852W        W35468  38.324  35.029   3.163
63853W        W35469  44.682  26.741  13.744
63854W        W35470  42.325  27.082   4.766
63855W        W35471  22.291  14.396  11.053
63856W        W35472   7.833  22.826  13.345
63857W        W35473  33.559  16.557   0.827
63858W        W35474   7.429  23.715  12.482
63859W        W35475  35.943  17.817   4.623
63860W        W35476   0.828  10.202   2.145
63861W        W35477  32.929  27.861   2.197
63862W        W35478  11.839   8.799   0.348
63863W        W35479  21.766  32.892   3.173
63864W        W35480  26.418  19.770  14.490
63865W        W35481  31.024   2.134  13.045
63866W        W35482  32.935  10.139  13.933
63867W        W35483  20.974  18.721  11.218
63868W        W35484  27.467  43.265   2.613
63869W        W35485  35.377  18.275   2.316
63870W        W35486   4.875  41.463  13.912
63871W        W35487  24.615  38.408   3.617
63872W        W35488  40.588  39.600   0.481
63873W        W35489  37.067  37.362   4.794
63874W        W35490  39.819  28.655  14.992
63875W        W35491  16.514  32.349   2.948
63876W        W35492  34.322  25.350   2.327
63877W        W35493  44.368  21.226  14.422
63878W        W35494  10.573  33.095   3.222
63879W        W35495  36.462  23.930   1.890
63880W        W35496  15.623   0.211  12.935
63881W        W35497   6.233  30.584  14.717
63882W        W35498  43.958  10.748  11.537
63883W        W35499   0.321   3.039   1.491
63884W        W35500  44.755  21.491  14.652
63885W        W35501  10.328  43.438   1.007
63886W        W35502  25.590  16.709  12.696
63887W        W35503   2.837  31.070  12.977
63888W        W35504   6.814  11.728   4.470
63889W        W35505  19.611  34.857  11.073
63890W        W35506   0.743  24.299   3.338
63891W        W35507   6.669  24.458  14.023
63892W        W35508  36.667  40.307  14.037
63893W        W35509  35.610  15.313   0.142
63894W        W35510  12.941  31.115   4.717
63895W        W35511  15.867  36.459   4.216
63896W        W35512  20.154   8.266  13.278
63897W        W35513   1.392   5.786   4.841
63898W        W35514  12.070  14.295  11.166
63899W        W35515  20.724   0.891   0.392
63900W        W35516   5.497   3.212  10.662
63901W        W35517   2.717  25.038   0.344
63902W        W35518  14.106  44.371   2.794
63903W        W35519  36.930  40.886  11.833
63904W        W35520  26.957   5.570  10.609
63905W        W35521  16.641  19.661   4.802
63906W        W35522   6.492   4.832   2.356
63907W        W35523  31.475   5.879   1.443
63908W        W35524  13.246  17.495  11.891
63909W        W35525  26.618  29.046   4.105
63910W        W35526  16.987  22.148  11.152
63911W        W35527  22.145  21.549   0.252
63912W        W35528  13.796  35.005   4.671
63913W        W35529  11.551  27.044  14.317
63914W        W35530   3.451  14.261  12.373
63915W        W35531   7.232  11.632   2.987
63916W        W35532  26.840   3.504   0.460
63917W        W35533  28.324   0.222  13.270
63918W        W35534  36.832  38.953  13.275
63919W        W35535  38.525   1.931  12.708
63920W        W35536  13.101  14.187  14.856
63921W        W35537  12.463  34.599   0.949
63922W        W35538  20.269  44.325   1.278
63923W        W35539  34.784  44.176  11.153
63924W        W35540  26.905  16.316   3.297
63925W        W35541  28.711  14.743  11.115
63926W        W35542   4.274  13.572  11.483
63927W        W35543  33.409   8.351   3.215
63928W        W35544  13.686  37.997  10.639
63929W        W35545   2.557  43.022   4.252
63930W        W35546  34.238   2.967   0.419
63931W        W35547  21.106  35.974  12.748
63932W        W35548  26.980  22.652  14.366
63933W        W35549  24.721  12.865   0.461
63934W        W35550  37.538  14.163   2.967
63935W        W35551   7.343  41.528   1.659
63936W        W35552  13.752  43.813  13.946
63937W        W35553   3.668  34.743  13.968
63938W        W35554  40.331  40.329   4.133
63939W        W35555   3.360  36.024   0.825
63940W        W35556  34.817   1.123   0.889
63941W        W35557  17.039   0.606   2.472
63942W        W35558  25.678  10.103  12.815
63943W        W35559  39.159   4.096  12.465
63944W        W35560   2.236  28.971  14.278
63945W        W35561  26.413  18.517  14.995
63946W        W35562  19.736  35.010   0.159
63947W        W35563  38.592  28.612  10.527
63948W        W35564  18.982   2.829   4.698
63949W        W35565  15.537  44.301   4.251
63950W        W35566  39.582   4.975   1.082
63951W        W35567  15.208  33.019  13.180
63952W        W35568   2.908  24.487  13.506
63953W        W35569  27.200  37.411   2.346
63954W        W35570  12.283  24.284   4.104
63955W        W35571  22.063  35.780   1.808
63956W        W35572  39.390   9.610  12.986
63957W        W35573  37.486  17.567  10.468
63958W        W35574  36.518  40.390   1.945
63959W        W35575   9.656  42.576   4.225
63960W        W35576   6.133  13.559  12.400
63961W        W35577  32.824  13.667   3.465
63962W        W35578  12.536   0.859  13.582
63963W        W35579  29.459  25.689   1.169
63964W        W35580  13.554  18.465   1.671
63965W        W35581  13.782   4.935   1.689
63966W        W35582   9.174  30.040  12.066
63967W        W35583  11.844  17.703   1.322
63968W        W35584  17.094  39.424  12.049
63969W        W35585   0.857  20.093   4.742
63970W        W35586  20.110  16.638   4.359
63971W        W35587   8.860  44.798  10.711
63972W        W35588  42.432  24.154   4.582
63973W        W35589  12.086   4.967   2.273
63974W        W35590   0.926   7.737   2.803
63975W        W35591  32.310  18.835   1.417
63976W        W35592  30.885  29.219   3.301
63977W        W35593  24.811   4.025   1.138
63978W        W35594   3.004  10.735   2.693
63979W        W35595  12.919  26.163  13.575
63980W        W35596  36.950  27.443  13.901
63981W        W35597  28.027  41.961  14.565
63982W        W35598  23.035  40.126   1.296
63983W        W35599  32.353  35.040  11.441
63984W        W35600  22.154  21.635  14.355
63985W        W35601  14.997  40.061  14.504
63986W        W35602  35.372  15.711   0.392
63987W        W35603  36.973  37.531  14.405
63988W        W35604  14.174  21.133   0.853
63989W        W35605  36.077  34.104  10.741
63990W        W35606  43.991  25.452   2.734
63991W        W35607  37.570  14.767  12.217
63992W        W35608  44.520   1.610   0.815
63993W        W35609  43.641   0.925   4.849
63994W        W35610   9.478  20.516  14.786
63995W        W35611   3.731  41.879  12.640
63996W        W35612  16.469  34.791  13.817
63997W        W35613   3.228  34.512   3.340
63998W        W35614   2.414   7.881   0.498
63999W        W35615  19.688  41.005  10.711
64000W        W35616  14.712  37.916  14.006
64001W        W35617  44.275  26.609  14.017
64002W        W35618  27.656  33.558   2.738
64003W        W35619  16.949  26.562  13.373
64004W        W35620  39.972  15.961   3.611
64005W        W35621  21.724   3.258  14.468
64006W        W35622  25.718  26.675   1.354
64007W        W35623  39.855  24.723   3.056
64008W        W35624  25.658  33.485  11.469
64009W        W35625  22.981  35.001  11.511
64010W        W35626   1.941   1.808  12.471
64011W        W35627   4.195  31.917   0.419
64012W        W35628  13.334   4.912   4.601
64013W        W35629  18.789   3.708  12.769
64014W        W35630   0.079  21.369   1.674
64015W        W35631  29.393  18.049  11.644
64016W        W35632   3.581   6.826  14.010
64017W        W35633  16.376  42.439   3.813
64018W        W35634  39.824  39.701   1.843
64019W        W35635  40.609  23.601   0.362
64020W        W35636  20.216  15.212  14.043
64021W        W35637  24.559  35.055  10.624
64022W        W35638  23.091   7.698  14.961
64023W        W35639   6.787  31.531  10.763
64024W        W35640  29.164  39.399  14.166
64025W        W35641  11.160  35.478   0.343
64026W        W35642  35.841  18.872  12.856
64027W        W35643  35.977  27.966  13.889
64028W        W35644  19.005   7.864   4.666
64029W        W35645  35.038  19.213   4.909
64030W        W35646  23.805  22.544  14.924
64031W        W35647  44.977  36.376  11.941
64032W        W35648  16.546  22.623  12.321
64033W        W35649  43.361  31.835   2.576
64034W        W35650  11.477   0.483  10.644
64035W        W35651  31.573  30.180   3.151
64036W        W35652  23.441  37.746  11.998
64037W        W35653  27.651  24.735  11.986
64038W        W35654   3.368  37.905  13.756
64039W        W35655  41.759   2.948   3.003
64040W        W35656  36.904  20.855  12.583
64041W        W35657  32.069  17.892  14.764
64042W        W35658  21.607  27.958   3.163
64043W        W35659  16.096  14.322   1.841
64044W        W35660  27.078  19.064   1.728
64045W        W35661  28.935  36.873   1.161
64046W        W35662  19.045   6.314   2.254
64047W        W35663  35.911  31.951   0.497
64048W        W35664  37.308  12.745   2.809
64049W        W35665  36.403  30.948  12.638
64050W        W35666  42.816  15.850  14.822
64051W        W35667  26.040  29.992  13.407
64052W        W35668  40.008  32.592   0.028
64053W        W35669  30.466   9.952  14.475
64054W        W35670  11.715  22.750   1.497
64055W        W35671   8.636  20.537  12.573
64056W        W35672  20.273  10.795   4.085
64057W        W35673  37.300  28.594  12.863
64058W        W35674  36.005   9.978   5.082
64059W        W35675  20.123  12.474   0.007
64060W        W35676  40.989  12.678   3.201
64061W        W35677  42.828  23.642  11.576
64062W        W35678  42.586  26.417   2.255
64063W        W35679  39.469  24.152  14.239
64064W        W35680  12.164  31.040   2.319
64065W        W35681  12.277  32.575  11.161
64066W        W35682  23.766  30.076   4.065
64067W        W35683   1.089  32.138   2.016
64068W        W35684  20.736  20.831   4.784
64069W        W35685   3.826   3.037   2.255
64070W        W35686  10.317  37.921  10.696
64071W        W35687  29.715  14.185   2.921
64072W        W35688  40.963  37.406  14.416
64073W        W35689  18.255  27.713  13.784
64074W        W35690  12.259  23.316  11.810
64075W        W35691   1.594  29.200  10.566
64076W        W35692  19.824  37.051  12.005
64077W        W35693  28.053  35.402   1.838
64078W        W35694   8.226  18.792  13.954
64079W        W35695  24.497  29.513   3.858
64080W        W35696   2.260  32.869   4.557
64081W        W35697  29.045   5.702   3.073
64082W        W35698  41.086  28.014  12.007
64083W        W35699   9.325   1.396  12.945
64084W        W35700  22.949  14.188   2.172
64085W        W35701  23.656   8.400   3.781
64086W        W35702  34.236  23.079   1.805
64087W        W35703   7.804   1.929  14.701
64088W        W35704  27.452  18.803   4.410
64089W        W35705  32.112  44.684  10.505
64090W        W35706  31.935   5.843  14.289
64091W        W35707  44.487  17.279  13.956
64092W        W35708  30.989  17.992  12.324
64093W        W35709  41.993  42.393   4.272
64094W        W35710  11.684  12.697  10.765
64095W        W35711  11.230   9.362  10.661
64096W        W35712   2.886  33.750  14.315
64097W        W35713  42.827  29.990   3.127
64098W        W35714  15.178  35.953  13.816
64099W        W35715  41.618  22.924  11.582
64100W        W35716   1.153  21.620  12.130
64101W        W35717   9.882  21.986   2.179
64102W        W35718  11.224  11.277  10.810
64103W        W35719  16.642  10.358   4.642
64104W        W35720  27.891  42.517  11.090
64105W        W35721  24.596  20.106   2.320
64106W        W35722   7.370  20.624   0.749
64107W        W35723  44.547  37.379   4.528
64108W        W35724  32.346   8.828   5.124
64109W        W35725  20.072   1.377   1.405
64110W        W35726   4.292  37.566  11.525
64111W        W35727  17.526  19.110   3.977
64112W        W35728  20.962  28.944  13.475
64113W        W35729  28.979   9.537   1.625
64114W        W35730  40.301   1.001  10.608
64115W        W35731  18.160   4.698  10.798
64116W        W35732  36.012   0.013  11.601
64117W        W35733  31.052  14.534   2.846
64118W        W35734  44.108  43.924   0.283
64119W        W35735  42.993  21.075  14.411
64120W        W35736   9.166  17.114  14.057
64121W        W35737  42.336  41.204  10.323
64122W        W35738  12.762  29.122   3.163
64123W        W35739   8.472  28.314   0.437
64124W        W35740   8.090   0.416  10.637
64125W        W35741  21.194  10.087   4.671
64126W        W35742  24.736  24.499   0.439
64127W        W35743  24.208  11.971  10.319
64128W        W35744  34.646  19.303   3.626
64129W        W35745   9.257  22.806  10.704
64130W        W35746  30.173  35.403  14.643
64131W        W35747  30.009  17.354   2.936
64132W        W35748  14.325   6.735   0.458
64133W        W35749  11.147  11.810  10.707
64134W        W35750   4.657  37.586   2.962
64135W        W35751  24.521  27.131  14.399
64136W        W35752   7.909  10.580  11.131
64137W        W35753   0.186  30.924  10.657
64138W        W35754  27.114  25.070   1.154
64139W        W35755  25.222  31.011  13.928
64140W        W35756  29.533  29.193   4.593
64141W        W35757  15.066   6.233   0.382
64142W        W35758  21.729  13.658  13.507
64143W        W35759  14.624   8.162  13.013
64144W        W35760  33.361  21.538  12.939
64145W        W35761  24.709  21.073   4.609
64146W        W35762  41.273  20.467  11.991
64147W        W35763   0.785  15.866  10.577
64148W        W35764   4.926  36.119  10.561
64149W        W35765  28.103  11.782   2.224
64150W        W35766  20.646  33.801   1.297
64151W        W35767  29.262  35.359   0.589
64152W        W35768  14.753   1.805   3.889
64153W        W35769  44.535  20.260   2.401
64154W        W35770   8.243  22.476   4.509
64155W        W35771  10.110  28.959  14.041
64156W        W35772  38.483   8.189   0.264
64157W        W35773   7.718  27.647   4.286
64158W        W35774  21.999  18.894   1.813
64159W        W35775  32.132  31.877  13.316
64160W        W35776  16.680   9.115   2.762
64161W        W35777  44.392  30.453  14.299
64162W        W35778   6.136  15.748  11.534
64163W        W35779  34.406  26.170  13.906
64164W        W35780  33.545   2.834   2.430
64165W        W35781   8.402  44.944   1.360
64166W        W35782   4.176  24.032   0.219
64167W        W35783  22.721  39.271  11.112
64168W        W35784  37.375  15.540   0.812
64169W        W35785  35.864   8.406   2.544
64170W        W35786   4.377  13.686   0.293
64171W        W35787  26.630  36.867  14.943
64172W        W35788   2.303   5.658   3.825
64173W        W35789  30.233   7.762   1.276
64174W        W35790   1.515  30.994  14.420
64175W        W35791  38.485  42.574  13.601
64176W        W35792  40.947  28.683  14.887
64177W        W35793  39.395  13.747   4.970
64178W        W35794   0.578  37.321  10.213
64179W        W35795  34.364  34.390  14.954
64180W        W35796  23.197   0.550   4.497
64181W        W35797  31.868  19.169   0.354
64182W        W35798   1.265  39.994  11.394
64183W        W35799  30.527  15.343  10.985
64184W        W35800   3.521  40.745   1.361
64185W        W35801  25.931   1.867  12.112
64186W        W35802  27.217   2.946   4.212
64187W        W35803  11.244   8.193  10.574
64188W        W35804  42.431  44.413  13.977
64189W        W35805  36.565  40.003  11.499
64190W        W35806  36.977  10.672   4.638
64191W        W35807  18.948  40.016  13.849
64192W        W35808   3.207  41.031  10.398
64193W        W35809  16.010  30.335   0.509
64194W        W35810   2.548  11.290  12.628
64195W        W35811   1.492  33.512   3.908
64196W        W35812  35.534  35.290  11.572
64197W        W35813  22.345  25.861   2.640
64198W        W35814  17.384  19.953  12.530
64199W        W35815   5.044  13.754  14.394
64200W        W35816   3.087  30.541   3.255
64201W        W35817  17.173  17.897   0.346
64202W        W35818  26.070  29.902  12.567
64203W        W35819  31.453  32.008  14.070
64204W        W35820  23.504   1.479  10.608
64205W        W35821   6.932  15.037   1.808
64206W        W35822   7.640  25.947  11.996
64207W        W35823   0.254   8.404   3.221
64208W        W35824  31.048  27.358  12.951
64209W        W35825  34.493  32.565  11.667
64210W        W35826  43.283   3.430  11.198
64211W        W35827   2.456  22.317  14.297
64212W        W35828  35.898  32.823  11.903
64213W        W35829  36.116  31.443  13.272
64214W        W35830  38.943  16.319  13.318
64215W        W35831  38.974  10.582   2.192
64216W        W35832  24.297  42.872  12.091
64217W        W35833  44.700  39.487  12.024
64218W        W35834  11.106  26.085   0.787
64219W        W35835  44.785  24.241  12.317
64220W        W35836  43.689   1.964  13.756
64221W        W35837   6.423   9.374  13.465
64222W        W35838  31.608  20.130  14.843
64223W        W35839  40.798  30.442  11.322
64224W        W35840  38.711  17.763  13.009
64225W        W35841  34.893  28.895   1.851
64226W        W35842   8.256  41.580   1.741
64227W        W35843  42.744  36.644  10.431
64228W        W35844  12.333  13.739   1.268
64229W        W35845   9.128   7.386  14.787
64230W        W35846   0.940  44.287   4.194
64231W        W35847  16.216  16.256  12.955
64232W        W35848  38.581  21.559  11.160
64233W        W35849  16.228   1.020   2.824
64234W        W35850  37.641  41.545  12.120
64235W        W35851  35.903  25.701   3.625
64236W        W35852  40.097  21.813   0.863
64237W        W35853  32.310  11.937  14.781
64238W        W35854  37.407   7.921   4.539
64239W        W35855  42.872  33.769  11.095
64240W        W35856   4.267  33.614   3.203
64241W        W35857  43.992  27.105   1.667
64242W        W35858   3.154  34.877   4.216
64243W        W35859   3.249  11.176   2.871
64244W        W35860  25.019  31.527  10.854
64245W        W35861  28.059  22.004   3.330
64246W        W35862  28.256  13.487   4.637
64247W        W35863   4.417  25.128   0.256
64248W        W35864   3.491  25.191   2.579
64249W        W35865  10.107  14.258   0.821
64250W        W35866  22.739   1.895  12.514
64251W        W35867  23.189  42.654  14.693
64252W        W35868   9.367  40.056   1.713
64253W        W35869  35.328  19.254   1.177
64254W        W35870  15.015  37.584  12.386
64255W        W35871  33.614   1.237   4.790
64256W        W35872  17.069  25.915  11.899
64257W        W35873  43.939  35.762   0.773
64258W        W35874  12.240  17.156   2.021
64259W        W35875  21.592  29.052  12.792
64260W        W35876  26.863  26.364   4.230
64261W        W35877  14.045  41.052  12.467
64262W        W35878  35.944   4.421   2.202
64263W        W35879  12.125   2.887  14.315
64264W        W35880  14.226   5.384  13.376
64265W        W35881  14.779   5.074  11.982
64266W        W35882  44.678  34.861   3.193
64267W        W35883  17.767  32.023  14.286
64268W        W35884  41.277   1.874   0.838
64269W        W35885  27.378  38.794  11.160
64270W        W35886  29.436  26.634  12.124
64271W        W35887  20.058   5.699   1.686
64272W        W35888   5.982  27.578  13.935
64273W        W35889  34.820  35.657  14.224
64274W        W35890  36.003  11.147   2.016
64275W        W35891  15.106  36.783   1.693
64276W        W35892  38.494  30.980  11.643
64277W        W35893   3.385  43.506  12.624
64278W        W35894  24.596  22.950   4.364
64279W        W35895  17.879  34.309  13.017
64280W        W35896   9.612  30.334   5.012
64281W        W35897  35.081  21.865  11.797
64282W        W35898  41.422  10.486  12.795
64283W        W35899  30.670  28.494   1.080
64284W        W35900  29.473  31.694   4.459
64285W        W35901   3.239  40.223   4.625
64286W        W35902  23.960  32.527  13.524
64287W        W35903  40.849   3.227  11.466
64288W        W35904  35.464  22.981  13.199
64289W        W35905   7.976  39.892  11.023
64290W        W35906   5.587  41.227  11.095
64291W        W35907  18.622  32.462  10.305
64292W        W35908  19.785  25.615  10.695
64293W        W35909  26.582   5.791  12.024
64294W        W35910   1.728  44.098  11.171
64295W        W35911  42.807  10.429  12.483
64296W        W35912   4.953   8.603  14.007
64297W        W35913   5.955  34.120   4.220
64298W        W35914   4.626  21.166   0.557
64299W        W35915  24.518  28.620  12.873
64300W        W35916   4.270  36.045   0.001
64301W        W35917  13.306   2.507  10.618
64302W        W35918  40.220   8.729  10.131
64303W        W35919  36.954  25.015  13.626
64304W        W35920  28.339  10.592  13.029
64305W        W35921  24.948  10.108   3.565
64306W        W35922  40.661  32.170   4.073
64307W        W35923   8.238  13.538   0.966
64308W        W35924  36.462   0.447  11.049
64309W        W35925   9.181  27.225   1.348
64310W        W35926   4.474  23.114  13.854
64311W        W35927  21.488  43.852  13.477
64312W        W35928  37.364  34.218   4.209
64313W        W35929  36.122  14.111   3.132
64314W        W35930  43.754  23.508  12.459
64315W        W35931  11.218  39.385  13.956
64316W        W35932  11.818   9.023   2.787
64317W        W35933  38.000  23.723   3.188
64318W        W35934  13.109   1.894  14.065
64319W        W35935  36.179   1.112  13.445
64320W        W35936   1.749  31.583   4.364
64321W        W35937  43.443  26.133   1.877
64322W        W35938  37.361  18.641   2.801
64323W        W35939  28.642  44.809  13.168
64324W        W35940  21.331  28.177  14.276
64325W        W35941  28.895  19.550  14.565
64326W        W35942  27.162   8.007  14.644
64327W        W35943  40.761  28.561  11.231
64328W        W35944  35.033  16.264  13.405
64329W        W35945  32.941   1.718   2.357
64330W        W35946   0.562  35.106  11.012
64331W        W35947   4.729  35.821  14.831
64332W        W35948  28.837  15.431  10.635
64333W        W35949  27.030  42.261  12.464
64334W        W35950  31.965  36.891   1.815
64335W        W35951  16.389  12.507  12.864
64336W        W35952  39.035  44.756  13.361
64337W        W35953  41.588  38.875   2.290
64338W        W35954  18.316  19.519  14.350
64339W        W35955  43.985  29.452   2.643
64340W        W35956  21.248   0.818   2.322
64341W        W35957   4.752  33.618   4.700
64342W        W35958  40.010  28.528   0.473
64343W        W35959   0.609  14.880  12.928
64344W        W35960  14.740  40.541  12.895
64345W        W35961  17.486  13.690  12.863
64346W        W35962  29.913   1.707   2.848
64347W        W35963   6.162  24.239  13.944
64348W        W35964   4.457  21.082  10.157
64349W        W35965  18.012  18.570   3.238
64350W        W35966  18.559  15.330   4.140
64351W        W35967  36.912   4.382   2.419
64352W        W35968  37.768  19.499   3.777
64353W        W35969   4.719  33.054  10.453
64354W        W35970  33.917  24.226   0.823
64355W        W35971  10.669  40.782  13.796
64356W        W35972  25.928  19.884  11.659
64357W        W35973   6.321  20.928  14.308
64358W        W35974  18.447  25.393   3.252
64359W        W35975  11.141  17.768   3.652
64360W        W35976   8.322  38.427  14.362
64361W        W35977   3.790  23.532  10.270
64362W        W35978   6.348  32.886  10.644
64363W        W35979  18.313   8.263  11.217
64364W        W35980   4.938  34.098   4.085
64365W        W35981  15.307   0.747   2.812
64366W        W35982  25.502  16.098  13.935
64367W        W35983   7.303  36.214  12.017
64368W        W35984   4.535  18.760  13.354
64369W        W35985  30.625  40.114   4.643
64370W        W35986   2.858  39.866   4.571
64371W        W35987  33.720  32.533  14.998
64372W        W35988  41.167  24.908  11.847
64373W        W35989   4.682  43.354  14.368
64374W        W35990  10.604   5.189  14.488
64375W        W35991   5.768  13.148  12.363
64376W        W35992  41.494  40.243   1.737
64377W        W35993   2.340  19.723   1.549
64378W        W35994  19.618  10.634  12.828
64379W        W35995  14.565  15.357  12.813
64380W        W35996  19.276  34.888  11.446
64381W        W35997  30.611   1.751  10.670
64382W        W35998  33.134  21.699   0.409
64383W        W35999  29.470  11.244  12.421
64384W        W36000   8.339  36.131   2.350
64385W        W36001  15.741  42.062   3.229
64386W        W36002   0.678   8.679  13.985
64387W        W36003  20.596  35.054  10.739
64388W        W36004  44.159  17.635  13.004
64389W        W36005  38.046  40.240  13.385
64390W        W36006  40.876  28.902   2.950
64391W        W36007  19.627  11.151   0.806
64392W        W36008  44.765   5.382   0.503
64393W        W36009  22.482   3.647   3.276
64394W        W36010  26.263   1.198   0.587
64395W        W36011  42.292  12.147   1.286
64396W        W36012  22.431  40.313   3.600
64397W        W36013   2.944  23.165  10.649
64398W        W36014   4.279  20.283   1.448
64399W        W36015  24.968  38.628   0.884
64400W        W36016  35.471  38.327  10.817
64401W        W36017  36.476  20.646   1.743
64402W        W36018  13.589  19.091   1.239
64403W        W36019  38.890  24.552   4.262
64404W        W36020   1.735  44.885  13.327
64405W        W36021  19.709  28.996  14.994
64406W        W36022   6.408   1.501   0.484
64407W        W36023  25.423  37.432   3.193
64408W        W36024  16.333   3.643  13.314
64409W        W36025   3.738   7.933   0.474
64410W        W36026  39.645   0.392  12.502
64411W        W36027   5.363  24.998   3.115
64412W        W36028   6.189  42.035  13.467
64413W        W36029  23.220   8.943   0.324
64414W        W36030  18.024  23.095  12.902
64415W        W36031  41.359  24.131   0.366
64416W        W36032  27.274  10.929   3.720
64417W        W36033  37.431   9.176   2.895
64418W        W36034   7.762  34.511  14.908
64419W        W36035  14.713   5.147  13.357
64420W        W36036  10.791  27.449  11.711
64421W        W36037   6.760  12.874  12.412
64422W        W36038  19.425  25.061   2.884
64423W        W36039  38.973   0.822  12.629
64424W        W36040  40.069   3.641  12.508
64425W        W36041  16.151  43.350   3.668
64426W        W36042  21.276  29.485  10.408
64427W        W36043  33.211  16.627   4.106
64428W        W36044   6.684  31.489   4.205
64429W        W36045   2.433  29.949  13.496
64430W        W36046  42.613  40.425   2.368
64431W        W36047  25.131  29.914  12.603
64432W        W36048  20.237   7.341  12.999
64433W        W36049   2.868  24.823   5.196
64434W        W36050  40.391  21.396   3.324
64435W        W36051  44.038   3.605  14.512
64436W        W36052   3.712  40.930  13.413
64437W        W36053   0.278  18.160   3.693
64438W        W36054  13.566  22.233  11.261
64439W        W36055  32.129  13.633   4.193
64440W        W36056  12.066   7.687  12.426
64441W        W36057  40.877  11.124  12.715
64442W        W36058  44.675  38.642  13.947
64443W        W36059  21.271   0.376   2.605
64444W        W36060   3.753  11.326   1.775
64445W        W36061  37.229  21.275  12.646
64446W        W36062  30.517   2.925   0.317
64447W        W36063  34.960  36.946  10.761
64448W        W36064   0.047  42.277  10.899
64449W        W36065  28.438  37.312  11.170
64450W        W36066  22.251  33.311   1.384
64451W        W36067  28.274  14.183   0.369
64452W        W36068  26.631  39.293   1.920
64453W        W36069  34.376   6.001  11.610
64454W        W36070  10.189  28.326   4.884
64455W        W36071  41.227  29.542   2.241
64456W        W36072   8.688  23.523   0.757
64457W        W36073  10.705  21.766  13.587
64458W        W36074  30.400   9.646   1.488
64459W        W36075   0.853  29.334   4.988
64460W        W36076  37.185  24.510  14.194
64461W        W36077   5.583   5.143  13.997
64462W        W36078  41.051   5.677   1.427
64463W        W36079  34.439  29.109   0.437
64464W        W36080  37.706   3.182  13.045
64465W        W36081  28.544   5.981  13.094
64466W        W36082   9.725  11.443  13.419
64467W        W36083  40.055  40.283  11.238
64468W        W36084  31.036  11.789  12.095
64469W        W36085  25.655  34.814  14.426
64470W        W36086   5.792  28.713   2.333
64471W        W36087  25.678  20.316  13.506
64472W        W36088   9.393  29.930  14.994
64473W        W36089   7.853  24.462   0.848
64474W        W36090  30.555  12.712   4.529
64475W        W36091   4.235  24.137  12.494
64476W        W36092  24.976  19.644  10.660
64477W        W36093  35.400   0.359   1.821
64478W        W36094  17.490  27.207  13.159
64479W        W36095  14.362  11.717  13.130
64480W        W36096  40.893  15.166  14.202
64481W        W36097  26.027  12.862  12.027
64482W        W36098  17.464  23.867  11.180
64483W        W36099   7.766  17.701  12.410
64484W        W36100  30.097  11.513  14.663
64485W        W36101  26.975   0.363   4.894
64486W        W36102  37.840   5.146  12.950
64487W        W36103  39.830  13.331   4.147
64488W        W36104  41.843  42.542   4.825
64489W        W36105  22.762  20.169   3.679
64490W        W36106   8.613  31.412   0.774
64491W        W36107  15.803  12.361  10.810
64492W        W36108   0.070  14.091  13.932
64493W        W36109  14.931  10.347   2.210
64494W        W36110  18.678   9.224   4.216
64495W        W36111  26.827   0.687  13.360
64496W        W36112  42.643  41.113  10.801
64497W        W36113   2.935  29.936   2.186
64498W        W36114  37.891  23.003  10.534
64499W        W36115  39.510   2.493   3.090
64500W        W36116  27.709  25.088  12.985
64501W        W36117  26.162  35.516  12.075
64502W        W36118   9.805  36.522   3.686
64503W        W36119   4.385  23.264   3.781
64504W        W36120  25.104  37.309  14.420
64505W        W36121  18.183  23.184  13.394
64506W        W36122  31.428  41.988  14.103
64507W        W36123  12.406   6.199   2.291
64508W        W36124  41.527  24.586  11.637
64509W        W36125  33.018  36.391  14.810
64510W        W36126  15.660  33.670   4.871
64511W        W36127  16.767  37.614   0.882
64512W        W36128  12.880  41.581   2.455
64513W        W36129   6.459  41.573  14.870
64514W        W36130   5.335  39.098   1.675
64515W        W36131  29.199  38.497   1.303
64516W        W36132  21.410  17.100   5.204
64517W        W36133   2.803  23.936  12.064
64518W        W36134  35.415  28.527   4.617
64519W        W36135  31.593  36.540   3.288
64520W        W36136  37.573  22.466  13.991
64521W        W36137  36.299   0.259   4.381
64522W        W36138  21.511  16.665   4.572
64523W        W36139  19.348  20.786   0.271
64524W        W36140  17.800  36.615   2.646
64525W        W36141  38.103  27.572  14.397
64526W        W36142   8.131  25.068   1.437
64527W        W36143  20.824  31.169  11.572
64528W        W36144  19.000  24.630   3.644
64529W        W36145  39.224  25.018  14.273
64530W        W36146  31.549  19.277   1.916
64531W        W36147  17.998  39.997   0.262
64532W        W36148  40.330  40.338   3.359
64533W        W36149  40.603  12.158  14.991
64534W        W36150  20.131  27.373   3.637
64535W        W36151  32.146  43.371   0.156
64536W        W36152  30.008  27.562  12.811
64537W        W36153  15.797  16.780  13.928
64538W        W36154  41.667  20.831   3.916
64539W        W36155  41.059  26.965   3.344
64540W        W36156   5.987  32.913   1.292
64541W        W36157  34.520  28.165   3.638
64542W        W36158  37.353  23.859   1.549
64543W        W36159  23.795  28.081   2.427
64544W        W36160  36.316  33.386  10.785
64545W        W36161  38.446  36.425   3.530
64546W        W36162  25.043  18.221   1.894
64547W        W36163  15.604   9.398   0.636
64548W        W36164  11.451   3.883  11.666
64549W        W36165  37.518   3.726   4.648
64550W        W36166  31.409  19.557  14.498
64551W        W36167  36.118   1.934   4.814
64552W        W36168  31.147  32.090  11.548
64553W        W36169  26.132  32.403  11.151
64554W        W36170  44.244  26.790   4.128
64555W        W36171   9.341  26.072   1.456
64556W        W36172   8.073  11.024   3.385
64557W        W36173   8.193  17.597  13.263
64558W        W36174  22.533   4.531  12.925
64559W        W36175  41.098  15.647  14.268
64560W        W36176  25.599  24.504   3.172
64561W        W36177   7.883  23.762  13.804
64562W        W36178  16.970  25.677  14.162
64563W        W36179   5.337  17.648   3.844
64564W        W36180   8.003  33.935  12.691
64565W        W36181   3.371  22.968  10.941
64566W        W36182   7.575   8.925  14.809
64567W        W36183  28.132  34.831   2.726
64568W        W36184  34.076  38.910  11.038
64569W        W36185   4.790  16.119   5.130
64570W        W36186  31.602  16.841  14.047
64571W        W36187  23.142  28.989   3.381
64572W        W36188  17.055   3.874   4.548
64573W        W36189  12.954   1.872   4.403
64574W        W36190  19.564  40.358  14.773
64575W        W36191  15.772  32.311  13.087
64576W        W36192  41.823  39.825  12.907
64577W        W36193   6.509   3.512  10.890
64578W        W36194  26.298  39.592   2.812
64579W        W36195  41.383  16.598  11.829
64580W        W36196  22.914  21.690   3.756
64581W        W36197  14.329  33.752  12.125
64582W        W36198  38.375  40.605   2.580
64583W        W36199  35.352   9.769   0.343
64584W        W36200  14.854   4.607   3.696
64585W        W36201  38.761  28.407   3.526
64586W        W36202  26.022  40.293   3.308
64587W        W36203  16.721  11.957   0.722
64588W        W36204  34.736  21.655  12.090
64589W        W36205   8.650  17.545  14.553
64590W        W36206  28.523  40.416   4.622
64591W        W36207  38.568  43.798  10.688
64592W        W36208  15.575  29.649   1.800
64593W        W36209  20.313  10.714   3.394
64594W        W36210  40.338  11.682   0.236
64595W        W36211  19.978  24.745   1.745
64596W        W36212  30.367  34.471   2.185
64597W        W36213   3.038  43.203   2.427
64598W        W36214  12.866  21.052   1.227
64599W        W36215  26.155  31.962   4.131
64600W        W36216  23.906  11.580  14.951
64601W        W36217   4.403  37.550   4.139
64602W        W36218  32.187   2.786  12.067
64603W        W36219  11.843   7.171  14.968
64604W        W36220  15.832  27.393  14.798
64605W        W36221  32.385  36.935   4.595
64606W        W36222  14.065  32.951   3.293
64607W        W36223  41.352  34.339  11.172
64608W        W36224  21.086  11.044   2.230
64609W        W36225  32.937  36.895   1.680
64610W        W36226  17.706  36.883  14.348
64611W        W36227  10.115  17.716   1.841
64612W        W36228   6.443   4.199   3.158
64613W        W36229   1.440  28.895  13.007
64614W        W36230  12.331  24.891   0.852
64615W        W36231  37.631  31.589   1.167
64616W        W36232  28.255   5.006   2.733
64617W        W36233  11.109  35.302   3.581
64618W        W36234   5.631  40.265   0.293
64619W        W36235  27.440  12.195   0.951
64620W        W36236  31.615  30.404   3.772
64621W        W36237  35.360  20.999  10.307
64622W        W36238   4.378  23.361   1.922
64623W        W36239  26.622   0.030  11.524
64624W        W36240  43.778  12.236   1.274
64625W        W36241  14.489  26.459  12.848
64626W        W36242  41.307   6.685   0.386
64627W        W36243  30.536  44.797  13.941
64628W        W36244  40.819  44.507  10.664
64629W        W36245  34.088  25.603   1.410
64630W        W36246  18.667   9.306  13.080
64631W        W36247   2.151  12.747   4.006
64632W        W36248  21.488  28.106   1.634
64633W        W36249  35.581   5.330  13.095
64634W        W36250  24.007  39.383  14.839
64635W        W36251   5.924   1.392  13.323
64636W        W36252  13.045  17.123   2.893
64637W        W36253  40.400  24.149  13.286
64638W        W36254   1.579   8.477   3.266
64639W        W36255  34.614  11.141   0.325
64640W        W36256  32.792  43.333   1.184
64641W        W36257  13.029  40.440  14.516
64642W        W36258   2.354  39.496  10.661
64643W        W36259   2.450  19.124  12.412
64644W        W36260  43.669   8.138   0.189
64645W        W36261  13.624  26.076   3.384
64646W        W36262  21.520  18.163  13.974
64647W        W36263   3.180  10.500   4.110
64648W        W36264  42.293   5.762  14.869
64649W        W36265   0.725  31.431   0.797
64650W        W36266  16.260   9.027  11.472
64651W        W36267  11.353  37.140   1.248
64652W        W36268  34.388   4.811  10.369
64653W        W36269  38.275  31.063   3.837
64654W        W36270  12.199   9.361  14.003
64655W        W36271  33.940  10.741   2.378
64656W        W36272  33.858   8.239   1.799
64657W        W36273  17.123  32.981  14.979
64658W        W36274  24.114  31.100   3.230
64659W        W36275  44.339  29.393  10.695
64660W        W36276   5.272  11.234  14.411
64661W        W36277  40.182  14.425   4.138
64662W        W36278  22.578   0.099   0.988
64663W        W36279  37.232   7.078   0.373
64664W        W36280  39.780  40.760  12.926
64665W        W36281  41.212  44.480  13.586
64666W        W36282   2.492  16.703   4.358
64667W        W36283  25.427  11.377   1.185
64668W        W36284  20.581  26.773  11.369
64669W        W36285   8.772  42.892  10.687
64670W        W36286   8.118   6.148  10.766
64671W        W36287  22.289   7.580   1.836
64672W        W36288  22.736   5.939  11.173
64673W        W36289  14.212  41.034   3.635
64674W        W36290  20.656  13.091   2.629
64675W        W36291  11.620  38.430  12.132
64676W        W36292  25.402   0.569   0.689
64677W        W36293  36.108  11.892  13.873
64678W        W36294   1.372   3.811  11.532
64679W        W36295  29.053  23.181   1.224
64680W        W36296  30.551  28.149  11.398
64681W        W36297  28.385  33.615   4.624
64682W        W36298   9.198  24.021   3.822
64683W        W36299  15.757   0.933   2.654
64684W        W36300  11.315  10.955  11.674
64685W        W36301  28.491   4.948  13.918
64686W        W36302  41.744  22.384  14.811
64687W        W36303  18.009  33.012   1.416
64688W        W36304   5.783  41.749  10.416
64689W        W36305  33.439  31.430  14.392
64690W        W36306  20.604  19.277  13.987
64691W        W36307  43.455  40.965   2.610
64692W        W36308  28.713  43.811  10.777
64693W        W36309  24.275   3.748   2.298
64694W        W36310   4.859  11.237   4.498
64695W        W36311   0.642  42.951  11.145
64696W        W36312  11.233  32.552   2.927
64697W        W36313  26.091  10.029  11.572
64698W        W36314  34.166  40.999  13.335
64699W        W36315   6.949  31.088   4.006
64700W        W36316  29.662   2.209  14.861
64701W        W36317  22.850  30.983  14.226
64702W        W36318  38.445  36.885  10.580
64703W        W36319  22.522  20.662   3.681
64704W        W36320   7.256  26.501   1.679
64705W        W36321  10.198   0.869   0.968
64706W        W36322  39.352   8.472   0.557
64707W        W36323  32.333  10.391   0.833
64708W        W36324  15.265   4.436   2.459
64709W        W36325  14.672  16.841   3.338
64710W        W36326  22.914  23.169  11.621
64711W        W36327  25.161   2.028   0.771
64712W        W36328   1.474  25.694   1.857
64713W        W36329  34.593  43.194  11.154
64714W        W36330  33.805  30.930  12.435
64715W        W36331  27.664  39.460  11.003
64716W        W36332  34.382   6.999   0.403
64717W        W36333  24.279  16.218   0.256
64718W        W36334  10.377   9.642  12.468
64719W        W36335  17.724  24.602  12.646
64720W        W36336  17.329  15.411   3.626
64721W        W36337  21.057  44.552   2.857
64722W        W36338  40.107   6.435   3.543
64723W        W36339  20.434  25.565   3.161
64724W        W36340  29.928  36.033  12.034
64725W        W36341  11.173  34.947   1.872
64726W        W36342  41.616  31.986   0.726
64727W        W36343  39.064  28.598   0.328
64728W        W36344  19.125  41.491  11.404
64729W        W36345  15.753  21.436  14.962
64730W        W36346  26.103   3.903  11.296
64731W        W36347   3.547   8.686   4.120
64732W        W36348   6.011   2.479   2.181
64733W        W36349  31.173  29.452   1.425
64734W        W36350  31.542  22.648  12.029
64735W        W36351   8.962  44.461  11.558
64736W        W36352  19.530  27.808   0.968
64737W        W36353  36.559   8.620  13.909
64738W        W36354  20.805   9.720   3.437
64739W        W36355  38.995  34.900   1.357
64740W        W36356   6.649  34.545   1.484
64741W        W36357  32.043  34.842  11.042
64742W        W36358  24.490  28.711   2.885
64743W        W36359  23.524  15.404  11.154
64744W        W36360  37.022  25.634  11.519
64745W        W36361   4.824  21.753  11.215
64746W        W36362  18.283   7.751  10.633
64747W        W36363  16.411  37.022   3.629
64748W        W36364  25.586  26.190   4.281
64749W        W36365  29.296  34.922  13.410
64750W        W36366   9.129  19.831  14.328
64751W        W36367  30.679  22.608  12.050
64752W        W36368  27.075  26.687  14.690
64753W        W36369  34.015  21.482  14.413
64754W        W36370  22.978  35.753   3.228
64755W        W36371   1.281   5.407  11.878
64756W        W36372  39.980  26.421  10.738
64757W        W36373  14.814  41.452  13.619
64758W        W36374  41.675  40.120  14.934
64759W        W36375  21.303  13.688  14.833
64760W        W36376  42.872   7.706   4.161
64761W        W36377  29.611   9.092   2.043
64762W        W36378  33.397  34.691   1.741
64763W        W36379  20.120  19.026  13.020
64764W        W36380  21.188  11.416  12.449
64765W        W36381  28.217  31.990   2.569
64766W        W36382  26.932  31.890  14.545
64767W        W36383  34.920  23.180  11.002
64768W        W36384  41.546  16.734   3.795
64769W        W36385   1.770   4.838   2.400
64770W        W36386  21.225  32.994   2.604
64771W        W36387  40.821  29.742  10.721
64772W        W36388  33.732  43.546   2.205
64773W        W36389  18.551   9.191  11.646
64774W        W36390   8.601  38.334   0.280
64775W        W36391  15.296   8.321   3.743
64776W        W36392  27.603  43.499   3.053
64777W        W36393  13.042  39.063  10.228
64778W        W36394  23.955  11.333   3.190
64779W        W36395  44.851   9.676  10.395
64780W        W36396  18.036   4.254  14.205
64781W        W36397   4.392   5.046  14.101
64782W        W36398  44.939  42.285  11.407
64783W        W36399  31.680  34.100   4.592
64784W        W36400  34.118  24.082  12.409
64785W        W36401  28.994  14.250   0.928
64786W        W36402  20.209  37.817   0.887
64787W        W36403   4.392   4.403   4.960
64788W        W36404  27.973  43.565   4.274
64789W        W36405  36.107  28.128  14.553
64790W        W36406   9.592  19.745   3.306
64791W        W36407  19.149  15.863   2.337
64792W        W36408   1.402   1.284   4.060
64793W        W36409   4.320  40.237  12.067
64794W        W36410  29.186   5.792  10.815
64795W        W36411  15.297  16.773   0.790
64796W        W36412  24.708   9.932  13.780
64797W        W36413  24.984   4.156   3.866
64798W        W36414  14.213  21.104   3.771
64799W        W36415  40.925  20.029  12.088
64800W        W36416  28.630  13.690  11.640
64801W        W36417  18.067  30.429   2.179
64802W        W36418  19.539  44.445   3.580
64803W        W36419  42.730  32.594  13.450
64804W        W36420  16.625  43.047  10.711
64805W        W36421  38.308  37.300   4.565
64806W        W36422   3.215  21.666  12.013
64807W        W36423  19.098  11.677  12.384
64808W        W36424  41.556  12.683   0.839
64809W        W36425  32.411  12.244   3.657
64810W        W36426  20.105  25.603   0.312
64811W        W36427   1.780  24.756  14.090
64812W        W36428  10.638  23.051   4.709
64813W        W36429  29.436  23.281  11.436
64814W        W36430  40.933  34.630  11.406
64815W        W36431  42.454   8.525  13.322
64816W        W36432  15.092  16.678  11.477
64817W        W36433   7.597  16.043   4.863
64818W        W36434  12.638  40.701   4.183
64819W        W36435   3.846   6.199   4.393
64820W        W36436   1.878   6.658   2.278
64821W        W36437  32.110  24.174   5.045
64822W        W36438  28.549  20.748   0.338
64823W        W36439  18.216  10.890  12.098
64824W        W36440  22.921  26.257  13.399
64825W        W36441  16.805  28.715   2.356
64826W        W36442  10.235   0.831   2.390
64827W        W36443  44.495  23.557  11.398
64828W        W36444  39.566  21.510  12.024
64829W        W36445   8.781   4.906   5.255
64830W        W36446  24.049  37.368  13.021
64831W        W36447  34.253  27.047  12.903
64832W        W36448  41.953  25.578  11.167
64833W        W36449   8.075  31.012  13.402
64834W        W36450  30.126   7.158  14.066
64835W        W36451  39.784   2.119   3.303
64836W        W36452  30.369  28.258   3.598
64837W        W36453   7.318   5.371   3.687
64838W        W36454  17.216  33.415   3.314
64839W        W36455  19.599  27.475  14.780
64840W        W36456  38.556  37.456  13.900
64841W        W36457  11.697  38.266   4.373
64842W        W36458  26.013  34.648  10.910
64843W        W36459  14.852  44.454   1.472
64844W        W36460  43.978  13.369  10.956
64845W        W36461  25.914   8.908  12.274
64846W        W36462  13.953  13.797   4.927
64847W        W36463  30.494  29.632  14.631
64848W        W36464  12.689   8.390   0.798
64849W        W36465  14.005  18.797   4.638
64850W        W36466  27.965  11.342   9.786
64851W        W36467   8.275  14.391  14.902
64852W        W36468   2.731  21.553  11.136
64853W        W36469  23.122  17.201   2.776
64854W        W36470  44.303  29.503  14.955
64855W        W36471  29.667  41.005   3.862
64856W        W36472  18.702  14.644   1.320
64857W        W36473   1.088  14.228   3.258
64858W        W36474  15.243  43.477  10.992
64859W        W36475  40.767  17.093   2.812
64860W        W36476  41.872  27.411   1.866
64861W        W36477  40.583  37.356  11.135
64862W        W36478  14.663   2.990   4.651
64863W        W36479  35.100  27.932   4.724
64864W        W36480  28.452  14.385  11.963
64865W        W36481  40.519  23.308  14.505
64866W        W36482   3.432   1.036   5.226
64867W        W36483  43.991  39.403  13.929
64868W        W36484   2.322  36.644  11.613
64869W        W36485  43.386  36.065  10.411
64870W        W36486   1.936  16.655   2.906
64871W        W36487  35.927  22.644  13.263
64872W        W36488   5.416  39.466   4.388
64873W        W36489  42.962  21.080   1.618
64874W        W36490  21.618  24.895  14.474
64875W        W36491  39.497  19.558  12.210
64876W        W36492   4.924  20.355   2.388
64877W        W36493  14.809  19.953   2.744
64878W        W36494  28.712  28.439   2.723
64879W        W36495  17.020  22.183  12.849
64880W        W36496   2.831   1.142  13.302
64881W        W36497  30.198  20.001  12.109
64882W        W36498  28.431  40.658   1.829
64883W        W36499  28.145   2.554  12.071
64884W        W36500  17.739  35.079  13.430
64885W        W36501   4.877  34.177  12.531
64886W        W36502  31.695  14.969   4.150
64887W        W36503  41.989   0.661  12.478
64888W        W36504  31.657  20.960  13.337
64889W        W36505  22.223  20.050  13.450
64890W        W36506  30.617   2.256   3.308
64891W        W36507  37.362  22.166  13.391
64892W        W36508  44.697   7.317  14.712
64893W        W36509  38.554  25.633  14.893
64894W        W36510  43.343   8.276  12.961
64895W        W36511  18.514   3.762  13.952
64896W        W36512  20.995  14.114  14.484
64897W        W36513   7.774  12.357  14.505
64898W        W36514   1.236  24.454   9.670
64899W        W36515  36.358  38.269   4.210
64900W        W36516   3.827  37.311   2.418
64901W        W36517  19.706  18.739  13.068
64902W        W36518  44.778  29.714  11.767
64903W        W36519  19.735  42.321   1.488
64904W        W36520  27.895  12.872   4.952
64905W        W36521  15.084   3.838   5.527
64906W        W36522   2.337   0.014   1.706
64907W        W36523  21.468  13.306  10.700
64908W        W36524  29.210  24.616  11.102
64909W        W36525  39.740   5.612  12.508
64910W        W36526  36.881   7.971   1.924
64911W        W36527  43.794  35.444   2.359
64912W        W36528  16.790  12.403   3.956
64913W        W36529  36.877  12.697   5.475
64914W        W36530   3.384  32.023   2.349
64915W        W36531  30.309  16.840   1.222
64916W        W36532   2.406  17.199   2.365
64917W        W36533  29.113  39.871   2.118
64918W        W36534  20.872  24.720  13.307
64919W        W36535   9.426   6.362   0.394
64920W        W36536  24.524  37.364   4.703
64921W        W36537  41.814  15.289  12.038
64922W        W36538  21.195  16.230   4.634
64923W        W36539  29.916   6.392  12.527
64924W        W36540  10.897  34.042  12.954
64925W        W36541   9.585  27.969  13.643
64926W        W36542  22.062  12.759   0.455
64927W        W36543  16.043   7.280   3.375
64928W        W36544  29.124  27.496  13.794
64929W        W36545   7.415  18.300  14.830
64930W        W36546  20.145  37.914  10.568
64931W        W36547   8.407  28.610   3.563
64932W        W36548  18.703  29.519  12.212
64933W        W36549  26.155  18.302  11.629
64934W        W36550  20.283  24.101  13.066
64935W        W36551  26.658   0.743   0.216
64936W        W36552  21.186  44.815   2.387
64937W        W36553  28.601  29.195  12.865
64938W        W36554  33.005  37.918   1.770
64939W        W36555   8.940  44.495   2.354
64940W        W36556  30.581  11.828   3.283
64941W        W36557  39.376   1.791   4.496
64942W        W36558  34.409   4.511  11.304
64943W        W36559  17.240  42.463  10.383
64944W        W36560  30.584   1.191  14.882
64945W        W36561  31.222  23.593   3.815
64946W        W36562  30.697   5.222  12.388
64947W        W36563  28.234  21.364  11.623
64948W        W36564   6.615  40.498   1.267
64949W        W36565  37.869  23.739  11.721
64950W        W36566  20.463  44.005   1.650
64951W        W36567  17.674  24.449   1.400
64952W        W36568  24.690   2.844  10.706
64953W        W36569  38.560  11.705   1.832
64954W        W36570  26.569  18.907  12.064
64955W        W36571   0.700  27.188   4.357
64956W        W36572  38.876  42.335  13.354
64957W        W36573  30.979   0.714  12.002
64958W        W36574   0.428  11.993   2.312
64959W        W36575  36.333   6.199   1.813
64960W        W36576   2.179   0.910  14.779
64961W        W36577  17.139  15.665  13.001
64962W        W36578  11.643  39.071   3.230
64963W        W36579  10.956  40.018  14.299
64964W        W36580  29.983  17.238   0.397
64965W        W36581  17.038  36.746   0.917
64966W        W36582  36.973  34.325   4.650
64967W        W36583  29.971  42.309   1.518
64968W        W36584  42.331  36.349  13.362
64969W        W36585  28.685  11.363   2.736
64970W        W36586  15.699  37.455  13.904
64971W        W36587  25.788  27.947   0.235
64972W        W36588  23.700  14.843   4.589
64973W        W36589  37.585  41.140   0.906
64974W        W36590  13.890  44.033  11.462
64975W        W36591   0.541  27.219   1.855
64976W        W36592  20.045  36.496   4.031
64977W        W36593  28.908   5.241   4.225
64978W        W36594  39.313   8.832   0.961
64979W        W36595  33.828  35.607  14.586
64980W        W36596  40.577   4.671  14.106
64981W        W36597  35.024  30.565  12.131
64982W        W36598  13.207  33.414  13.464
64983W        W36599  31.236   9.671  11.569
64984W        W36600   0.224  37.018  14.978
64985W        W36601  30.437  27.668  14.431
64986W        W36602  28.603   8.793   2.136
64987W        W36603  11.741   2.302  11.627
64988W        W36604  35.135  40.927  13.272
64989W        W36605  44.281   6.828   4.493
64990W        W36606   3.521  36.509   1.668
64991W        W36607   1.825  36.675  11.155
64992W        W36608  32.189   6.500   3.161
64993W        W36609  17.014   4.245   2.837
64994W        W36610  41.098  29.001   1.692
64995W        W36611  28.344  13.211  10.751
64996W        W36612  32.074  16.888  14.323
64997W        W36613  30.608  10.903  11.635
64998W        W36614  39.211  21.958  12.478
64999W        W36615  39.539  11.758   1.760
65000W        W36616   0.018  26.048   0.947
65001W        W36617  29.583  39.563  14.406
65002W        W36618   5.414  27.108   2.861
65003W        W36619  37.055  20.969   0.749
65004W        W36620  41.082  31.454   1.731
65005W        W36621   9.626  22.472  11.521
65006W        W36622  15.019  38.902   4.702
65007W        W36623  32.407  44.796  14.067
65008W        W36624  31.578   6.047  12.592
65009W        W36625   0.187  25.089   4.075
65010W        W36626  16.831  43.542   1.891
65011W        W36627  44.596  42.769   2.174
65012W        W36628  31.896  10.657   2.323
65013W        W36629  31.421  43.534  11.086
65014W        W36630  21.756   5.992   2.875
65015W        W36631  36.427  24.057   4.367
65016W        W36632  40.498  18.921   2.263
65017W        W36633   9.439  26.213  11.483
65018W        W36634  39.465  33.176  12.632
65019W        W36635  44.413  29.919   2.326
65020W        W36636  42.585  32.471  12.554
65021W        W36637  35.488  40.116  13.921
65022W        W36638  39.336  31.426  11.115
65023W        W36639  14.456   9.641   0.343
65024W        W36640   8.052   7.276   0.874
65025W        W36641  10.234   2.310   3.595
65026W        W36642  15.084  34.548   4.266
65027W        W36643  28.415  19.692   1.872
65028W        W36644  28.519  43.431   2.442
65029W        W36645  32.455  14.516   4.784
65030W        W36646  13.130  24.019   1.499
65031W        W36647   1.973   8.892  14.709
65032W        W36648   1.956  23.045  14.323
65033W        W36649  32.286  22.045   0.674
65034W        W36650  44.340  11.186   3.264
65035W        W36651  36.498  42.607  10.697
65036W        W36652  11.264   6.235  14.504
65037W        W36653  23.590   9.824  12.629
65038W        W36654  40.156   0.400  12.511
65039W        W36655   9.581  21.563   4.307
65040W        W36656  27.824  21.233   0.901
65041W        W36657  35.773  21.543  13.326
65042W        W36658  29.606  31.885   2.053
65043W        W36659   1.744  38.496   1.804
65044W        W36660  21.150  12.102  11.146
65045W        W36661  25.609  30.708   0.279
65046W        W36662  43.832  20.424  14.281
65047W        W36663  14.821   1.881   5.302
65048W        W36664  18.275  18.274   2.305
65049W        W36665  11.074   9.184   3.090
65050W        W36666  25.028  28.109   1.799
65051W        W36667  38.792  29.175  14.467
65052W        W36668  25.267  10.582  14.351
65053W        W36669  32.529  43.864   4.768
65054W        W36670  15.652  34.829   3.151
65055W        W36671  25.596  23.602  14.305
65056W        W36672  24.156   5.551   3.789
65057W        W36673  37.809  25.002   0.058
65058W        W36674   0.044  18.591   1.106
65059W        W36675   2.777  25.771  11.987
65060W        W36676   8.949  25.751   2.211
65061W        W36677  18.330   4.225  13.713
65062W        W36678   6.448   3.820  12.464
65063W        W36679   3.092  15.171   4.182
65064W        W36680  32.561  35.095   0.889
65065W        W36681  23.176  42.542   1.260
65066W        W36682   7.739  37.217  14.720
65067W        W36683  11.698  18.614  14.545
65068W        W36684  43.394  27.329  12.383
65069W        W36685  40.604  16.399   1.531
65070W        W36686   8.960  34.121   4.197
65071W        W36687   8.140  21.251  14.568
65072W        W36688   3.395   8.380  10.686
65073W        W36689  19.058   4.789   3.830
65074W        W36690  12.170   9.358   4.879
65075W        W36691  22.248   2.517   3.128
65076W        W36692  26.340  17.987   0.510
65077W        W36693  30.539   1.341   1.429
65078W        W36694  26.762   6.423  12.848
65079W        W36695  43.429  11.606  10.637
65080W        W36696   5.774   0.060   1.868
65081W        W36697  32.198  19.366  14.986
65082W        W36698  41.429   3.870  12.351
65083W        W36699  36.480  19.234  11.445
65084W        W36700   1.549  31.622  10.608
65085W        W36701  44.533  28.963  12.129
65086W        W36702  24.745  31.413   2.327
65087W        W36703   6.014  28.026  13.314
65088W        W36704  23.011  37.831   4.953
65089W        W36705   1.882  43.786  10.685
65090W        W36706  21.166  38.034   0.040
65091W        W36707  29.010  23.679   1.365
65092W        W36708  31.860  20.718   0.396
65093W        W36709  38.795  43.895  14.468
65094W        W36710  21.486   8.394  14.587
65095W        W36711  18.219  24.666  12.430
65096W        W36712  11.104  26.443   2.923
65097W        W36713  37.538  41.213  10.775
65098W        W36714  40.909   7.868   1.023
65099W        W36715  12.290  18.686   0.891
65100W        W36716  17.057  27.033   4.395
65101W        W36717   2.720  20.686  11.032
65102W        W36718  41.459  38.967  14.697
65103W        W36719   5.330  28.113   1.388
65104W        W36720   3.797   0.230  10.642
65105W        W36721  26.530  28.100   1.677
65106W        W36722  15.051  29.029  12.096
65107W        W36723  36.408  43.320  13.056
65108W        W36724  13.180   4.734   3.272
65109W        W36725  27.741  11.242   0.356
65110W        W36726  42.810  31.726   3.697
65111W        W36727  18.130  43.982   1.466
65112W        W36728  21.495  13.223  12.445
65113W        W36729  25.749  35.532   1.314
65114W        W36730   3.554  19.244   2.840
65115W        W36731  10.119  40.909  11.105
65116W        W36732  16.140  19.531  12.970
65117W        W36733  40.135  12.009   5.108
65118W        W36734   8.246  25.042   3.611
65119W        W36735   8.106  37.053   1.317
65120W        W36736  23.640  18.585  11.686
65121W        W36737  24.604  14.040  13.993
65122W        W36738  22.320  27.086  11.058
65123W        W36739  14.876  37.805   3.835
65124W        W36740  19.420  42.976   0.281
65125W        W36741  42.778  24.073  12.983
65126W        W36742   1.444   5.043   3.752
65127W        W36743  14.107  12.150  10.597
65128W        W36744  18.030  42.476   2.698
65129W        W36745  42.903   1.500  12.859
65130W        W36746  39.146  32.307   4.144
65131W        W36747  36.041  11.798  11.602
65132W        W36748   0.228  26.028   3.295
65133W        W36749  20.047   1.785   3.273
65134W        W36750  13.375  15.272   2.839
65135W        W36751  27.051  33.466   2.384
65136W        W36752  34.902  31.661  14.843
65137W        W36753  21.563  12.245  12.350
65138W        W36754  27.707   8.738  14.697
65139W        W36755  10.330  13.249  10.704
65140W        W36756  34.076  34.371   3.570
65141W        W36757  19.046  24.587  14.876
65142W        W36758   6.712  25.939   4.595
65143W        W36759  24.438  10.049   3.275
65144W        W36760  34.353  11.075   4.051
65145W        W36761  35.628   6.243   2.425
65146W        W36762   6.755  33.888  11.994
65147W        W36763  17.893  23.480   2.684
65148W        W36764  15.381   9.697  12.712
65149W        W36765   5.719  31.546   4.405
65150W        W36766  18.883  25.332  12.441
65151W        W36767  15.379  13.359   2.455
65152W        W36768  14.315   7.219  11.570
65153W        W36769  24.376  35.903  12.151
65154W        W36770  29.497  32.180  14.305
65155W        W36771  38.295  19.438   3.808
65156W        W36772  26.921  16.659   2.210
65157W        W36773  22.627  36.004  10.313
65158W        W36774  38.260  39.778  12.256
65159W        W36775  30.280  30.175  12.823
65160W        W36776  31.540   4.821   1.323
65161W        W36777   3.316  16.433   3.786
65162W        W36778  31.015   7.595  11.889
65163W        W36779   5.151  27.677   0.299
65164W        W36780  14.573  26.396   2.431
65165W        W36781  24.657  24.592   2.768
65166W        W36782   3.082  11.287  12.707
65167W        W36783   6.833  39.832   4.725
65168W        W36784  37.247  26.253   0.877
65169W        W36785  22.893   0.349   2.288
65170W        W36786  44.871  28.155   2.175
65171W        W36787  40.271   5.767  12.443
65172W        W36788  11.146  24.432   1.900
65173W        W36789   2.044  20.127  12.093
65174W        W36790  11.869   2.324   0.808
65175W        W36791   5.374  22.182   2.712
65176W        W36792  31.427  29.769  14.959
65177W        W36793  29.932  30.007   2.502
65178W        W36794  21.185   8.292   3.880
65179W        W36795  35.519  38.887  11.614
65180W        W36796  43.984  11.887   0.669
65181W        W36797  44.703  38.802  12.562
65182W        W36798  43.913   2.747   4.314
65183W        W36799  18.325  36.141   0.923
65184W        W36800  29.040  26.797  13.107
65185W        W36801  37.698  20.563   4.311
65186W        W36802  41.382   9.039  12.467
65187W        W36803  26.093  10.917   2.768
65188W        W36804  39.814  37.170   4.684
65189W        W36805   3.780  34.893  10.690
65190W        W36806  14.017  16.211  13.390
65191W        W36807  42.460  16.009  13.489
65192W        W36808   2.364  30.899   4.344
65193W        W36809  41.429   8.341  12.984
65194W        W36810  29.491  14.748   1.283
65195W        W36811   8.181  37.455  14.893
65196W        W36812  35.158  20.209  11.224
65197W        W36813  39.382  26.004  12.319
65198W        W36814  40.347  42.816   1.862
65199W        W36815  32.652  13.230   4.599
65200W        W36816  28.975  31.093  14.532
65201W        W36817  34.534  19.554   3.160
65202W        W36818  10.667  30.864  10.970
65203W        W36819  31.827  37.479   1.144
65204W        W36820   0.278  24.025   0.598
65205W        W36821   4.375   9.711  12.577
65206W        W36822  22.963  28.986  14.792
65207W        W36823  10.819  23.573   4.062
65208W        W36824  35.010  30.108   3.279
65209W        W36825   2.696  23.419  12.010
65210W        W36826  27.784  41.455   4.543
65211W        W36827  12.860  18.170   3.348
65212W        W36828  28.882  22.601  13.375
65213W        W36829  41.952  18.982   3.872
65214W        W36830   6.897  40.504   0.176
65215W        W36831  22.177  34.105   4.669
65216W        W36832  18.750  11.631   4.075
65217W        W36833   4.815  32.391  12.111
65218W        W36834  29.489  43.974  11.890
65219W        W36835   0.460  41.304  13.807
65220W        W36836   0.385  17.088  13.126
65221W        W36837  38.382  32.158   0.811
65222W        W36838  31.679  28.893   2.213
65223W        W36839  11.659  15.640   4.611
65224W        W36840  11.205  43.449   3.878
65225W        W36841  38.684   8.893  10.692
65226W        W36842  29.650   4.731   3.372
65227W        W36843  11.413   6.353   1.339
65228W        W36844  29.710   0.721  11.090
65229W        W36845  44.729   3.788   1.159
65230W        W36846  10.218  19.999   2.304
65231W        W36847  32.028  27.286  11.626
65232W        W36848  10.285  34.895   3.399
65233W        W36849   0.251  26.270   1.407
65234W        W36850  43.250  14.892   2.252
65235W        W36851  10.675  24.110  10.784
65236W        W36852   9.365  25.917  14.356
65237W        W36853  13.135   2.118   2.271
65238W        W36854   0.812  25.759   0.462
65239W        W36855  39.986  16.297  11.488
65240W        W36856  25.524  17.653  11.429
65241W        W36857  30.999  28.927  11.181
65242W        W36858  34.551  30.197  11.579
65243W        W36859  23.744  17.713   2.227
65244W        W36860   4.918  18.687  10.287
65245W        W36861  30.992  43.791  11.994
65246W        W36862  26.542  27.454   3.217
65247W        W36863  44.131  24.661   4.186
65248W        W36864  41.549  17.009  12.566
65249W        W36865  16.096  17.048  10.256
65250W        W36866  16.324   9.529  11.574
65251W        W36867  16.179  21.687   0.203
65252W        W36868  27.223  17.376   5.075
65253W        W36869   3.283   0.578  12.001
65254W        W36870  37.872  35.899  10.717
65255W        W36871  38.270   4.155   3.591
65256W        W36872  10.628  12.789  12.603
65257W        W36873  20.464  23.072  14.424
65258W        W36874  24.944  17.916   4.298
65259W        W36875  23.548   3.442   2.167
65260W        W36876  33.139   0.263  12.109
65261W        W36877  42.357  11.909   0.790
65262W        W36878  43.034   2.601   1.027
65263W        W36879  13.680  30.911   2.673
65264W        W36880  24.040   1.451   4.969
65265W        W36881  40.477  16.008   1.232
65266W        W36882   9.650   6.793   0.193
65267W        W36883  21.731   0.327   2.824
65268W        W36884  34.366  15.427   0.234
65269W        W36885  44.816   6.443   1.929
65270W        W36886  11.934  27.271   0.701
65271W        W36887  11.937   3.483  14.397
65272W        W36888  36.945  41.270  14.017
65273W        W36889   0.874  31.007  14.807
65274W        W36890   3.455  29.467  12.002
65275W        W36891  23.813  18.068   1.375
65276W        W36892  31.536  23.468  12.387
65277W        W36893  17.797  19.676  14.033
65278W        W36894  27.503  33.309  11.863
65279W        W36895   8.658   6.695  11.497
65280W        W36896  34.088  39.655  13.088
65281W        W36897  12.443   1.460  11.493
65282W        W36898   3.933  10.827   2.752
65283W        W36899   3.929  34.970   3.747
65284W        W36900  17.633  19.541  12.302
65285W        W36901  39.023  22.671  13.911
65286W        W36902  23.642  20.000   1.925
65287W        W36903  36.001  43.783  11.966
65288W        W36904  12.638  18.509   1.839
65289W        W36905  10.919   1.739   0.434
65290W        W36906   1.268  32.249   0.914
65291W        W36907   4.749  37.374  12.992
65292W        W36908  20.843  43.306  14.310
65293W        W36909  33.693  24.005   1.279
65294W        W36910  42.886  35.374   1.414
65295W        W36911  25.963  41.299  12.516
65296W        W36912  31.388  41.444  10.494
65297W        W36913  39.250  40.829  11.202
65298W        W36914  24.222  14.090  14.738
65299W        W36915   4.689  28.622   3.789
65300W        W36916  43.839  35.015   1.255
65301W        W36917  35.996  15.440   0.456
65302W        W36918  35.668  25.642   1.360
65303W        W36919  19.242  25.103  14.836
65304W        W36920   2.908   6.141   1.288
65305W        W36921  13.567   6.345  11.062
65306W        W36922  22.108  15.267  12.627
65307W        W36923  15.239  43.019   2.301
65308W        W36924  37.640  29.375  13.442
65309W        W36925  26.523  15.129   1.356
65310W        W36926  42.071  25.233  10.616
65311W        W36927   3.780  25.280  14.002
65312W        W36928  11.016   6.571  13.455
65313W        W36929  25.468  13.685   4.166
65314W        W36930  38.073  34.929  12.949
65315W        W36931   5.819  39.507   0.787
65316W        W36932   4.267  17.032  12.376
65317W        W36933  32.226  41.353   4.637
65318W        W36934  43.769   6.273   2.629
65319W        W36935  43.748  18.519   2.117
65320W        W36936  35.296   2.179   1.933
65321W        W36937   9.633   0.055   2.289
65322W        W36938  44.917  21.231  10.079
65323W        W36939  37.600  29.716   3.641
65324W        W36940  38.586  14.944  11.435
65325W        W36941  14.669  13.231  13.791
65326W        W36942  20.673  23.547   0.768
65327W        W36943  31.176  23.576  11.164
65328W        W36944  44.367  36.361   4.898
65329W        W36945  35.311   0.297  14.434
65330W        W36946  27.222  22.126   1.683
65331W        W36947  34.555  42.427  10.733
65332W        W36948   4.754  35.060   3.193
65333W        W36949  12.762   6.055  10.659
65334W        W36950   0.296   4.173   4.818
65335W        W36951  17.261  32.081   4.557
65336W        W36952  38.858  44.258  13.508
65337W        W36953  12.834  39.217  13.979
65338W        W36954  25.927   8.688   1.476
65339W        W36955  34.468  25.871  13.292
65340W        W36956   1.294  22.950  11.598
65341W        W36957  26.891  13.168   2.967
65342W        W36958  26.730  30.688   3.717
65343W        W36959  12.804   7.468   0.506
65344W        W36960  36.605  36.153   5.110
65345W        W36961  35.800  43.925  14.736
65346W        W36962  11.167  20.015   4.619
65347W        W36963  10.284   7.236  13.137
65348W        W36964  40.463   4.453  12.712
65349W        W36965  39.372  30.609   2.926
65350W        W36966  17.335  44.978  12.593
65351W        W36967  33.969  28.185  12.018
65352W        W36968  44.688  28.586   0.180
65353W        W36969   6.997  23.486  13.813
65354W        W36970  35.618  29.891  14.740
65355W        W36971  27.121  25.537   3.681
65356W        W36972  36.858   0.439  12.963
65357W        W36973   2.956  40.890   1.507
65358W        W36974  20.039  15.736   4.596
65359W        W36975  10.356   4.114  11.967
65360W        W36976  26.605  18.361   1.862
65361W        W36977  28.049  26.776   1.345
65362W        W36978  38.862  17.287   0.697
65363W        W36979  43.504   0.946   2.938
65364W        W36980  28.691   3.732   2.002
65365W        W36981  16.869   0.837  10.150
65366W        W36982  27.471  39.396  13.109
65367W        W36983  31.461  28.519  12.549
65368W        W36984  36.263   0.453  11.518
65369W        W36985  37.345   7.235   3.783
65370W        W36986  33.158   0.979   0.734
65371W        W36987  25.168  27.537  10.209
65372W        W36988  27.841  38.493   0.288
65373W        W36989   8.414   1.940   1.485
65374W        W36990  44.558  38.117   5.485
65375W        W36991  18.317  30.158   1.799
65376W        W36992   9.448  12.095  11.425
65377W        W36993  43.872   0.707   1.675
65378W        W36994  33.445  43.697  12.070
65379W        W36995  28.249  16.272   3.770
65380W        W36996  42.878  17.731  11.492
65381W        W36997  39.212  30.440  11.199
65382W        W36998   7.746  43.194   0.842
65383W        W36999   7.433  34.784  13.080
65384W        W37000  14.336  12.893   1.534
65385W        W37001  22.488  20.787   0.192
65386W        W37002  16.224  33.053  10.866
65387W        W37003   7.764  28.524   4.660
65388W        W37004  36.616  11.701  13.978
65389W        W37005  29.069  17.905   1.563
65390W        W37006  19.640  13.072  14.555
65391W        W37007  23.580  24.648  12.905
65392W        W37008  35.564  42.865   2.419
65393W        W37009  44.795  27.531  14.377
65394W        W37010  23.382  29.073  11.994
65395W        W37011  40.446  33.602  12.162
65396W        W37012  30.601  31.468  12.835
65397W        W37013  35.091  42.057   2.377
65398W        W37014  17.624  40.014   2.917
65399W        W37015  14.240   9.182  13.884
65400W        W37016  33.963  31.192   2.337
65401W        W37017  41.420  13.743  10.543
65402W        W37018  38.824   1.793   4.328
65403W        W37019  37.090  30.999  11.379
65404W        W37020  20.189  16.956  13.473
65405W        W37021  17.368  34.659  13.457
65406W        W37022  18.154  16.342   2.795
65407W        W37023  42.505  42.415   3.102
65408W        W37024  29.083  37.816   2.747
65409W        W37025  30.270  13.277   3.219
65410W        W37026  44.814  11.125   1.956
65411W        W37027  31.822  30.163   0.697
65412W        W37028  19.015  22.178   3.175
65413W        W37029  35.470  29.175  11.317
65414W        W37030  28.686  20.072   3.682
65415W        W37031  11.602  43.242   2.700
65416W        W37032   6.336  31.663   1.663
65417W        W37033  23.685  11.342  13.247
65418W        W37034   8.624  19.552   3.326
65419W        W37035  17.553  17.778   2.289
65420W        W37036  33.623   7.893  11.649
65421W        W37037  24.179  44.838  14.404
65422W        W37038  13.133  18.155   2.725
65423W        W37039   1.902  21.494   0.291
65424W        W37040  20.034  30.462   4.632
65425W        W37041  13.326  31.198  12.657
65426W        W37042  11.902  34.318   3.792
65427W        W37043  41.921  39.039  10.672
65428W        W37044  16.418   5.298  11.605
65429W        W37045  21.332  10.806  13.022
65430W        W37046   9.234  33.390  12.891
65431W        W37047   4.457  22.276  13.539
65432W        W37048   9.424  26.703   1.411
65433W        W37049  32.709   8.194  10.677
65434W        W37050  44.244  17.273   1.851
65435W        W37051  35.848  34.970   4.114
65436W        W37052  23.974   1.708  13.258
65437W        W37053  40.877  23.750   1.100
65438W        W37054  35.356  20.671  14.454
65439W        W37055   2.719   3.387   2.598
65440W        W37056  29.607  34.860  14.856
65441W        W37057  11.892  15.121  13.550
65442W        W37058   0.686  15.307   4.635
65443W        W37059  27.665  17.271  13.943
65444W        W37060   4.341  43.757   0.402
65445W        W37061   9.156  26.669   4.045
65446W        W37062   4.378  11.625   1.371
65447W        W37063  38.829  32.979  12.225
65448W        W37064  34.819  12.107   1.799
65449W        W37065  23.418  41.859   2.275
65450W        W37066  28.647  31.940   0.986
65451W        W37067  36.407  13.874   1.315
65452W        W37068  44.008   4.258   3.310
65453W        W37069   6.669  17.060  10.914
65454W        W37070   5.204  25.468  13.303
65455W        W37071  10.335   3.396   1.238
65456W        W37072  16.798  17.617   5.094
65457W        W37073  40.228  37.118   2.310
65458W        W37074   1.490  32.422   0.041
65459W        W37075  27.970   1.844   0.405
65460W        W37076  26.750  11.078  11.103
65461W        W37077  37.817  41.999   2.271
65462W        W37078   7.847  24.567  14.942
65463W        W37079  37.334  37.702  11.234
65464W        W37080  34.258  35.430  14.316
65465W        W37081  18.140  27.490  14.772
65466W        W37082  17.624   2.748  11.548
65467W        W37083  14.069  16.736   5.082
65468W        W37084  23.038   7.350   2.790
65469W        W37085  29.812   6.269   1.766
65470W        W37086   7.673  14.139   4.626
65471W        W37087   0.218  44.911  13.152
65472W        W37088   2.506  15.160  14.697
65473W        W37089  18.320  18.573  12.707
65474W        W37090  11.753  28.809  10.282
65475W        W37091  14.379  31.830   9.807
65476W        W37092  32.572  21.746  14.935
65477W        W37093   6.186  22.964  10.378
65478W        W37094  19.566  29.203  13.068
65479W        W37095  24.093  26.512   4.992
65480W        W37096   8.452  21.020   0.963
65481W        W37097  39.506  33.441   4.411
65482W        W37098  21.898  44.885  11.548
65483W        W37099  11.570  27.920   2.637
65484W        W37100   0.537  27.399  12.030
65485W        W37101   4.691  36.289  12.992
65486W        W37102  19.056   9.485  13.496
65487W        W37103   0.414  33.404  12.044
65488W        W37104  15.748  40.832  12.010
65489W        W37105  15.514  35.872  14.787
65490W        W37106  17.655  17.166   4.206
65491W        W37107  27.544  44.590   4.563
65492W        W37108   4.849  36.996   2.325
65493W        W37109  13.673  13.084  10.632
65494W        W37110   1.006  13.758   0.313
65495W        W37111  16.180  22.554   3.846
65496W        W37112  13.175   5.024  14.284
65497W        W37113  20.667  12.811   4.559
65498W        W37114   9.905  25.670  11.660
65499W        W37115  38.801  30.559   0.725
65500W        W37116   2.337  34.324  14.918
65501W        W37117  32.400  24.960  13.815
65502W        W37118  39.889  15.054  13.854
65503W        W37119  15.256   8.407   0.755
65504W        W37120   0.315  24.047   2.467
65505W        W37121  12.539  17.066   2.903
65506W        W37122  26.967   2.054   2.357
65507W        W37123   2.439  22.516   1.406
65508W        W37124  27.953  15.176  12.224
65509W        W37125  29.581  24.714   1.624
65510W        W37126  17.653  16.188   4.551
65511W        W37127  17.749  34.923   2.220
65512W        W37128  42.323  12.601   3.971
65513W        W37129  42.988  27.042  12.890
65514W        W37130  43.976  10.413  12.665
65515W        W37131   0.953   7.260   2.210
65516W        W37132  33.519  33.968   3.965
65517W        W37133  44.576   6.069  10.288
65518W        W37134  38.201  24.638  11.077
65519W        W37135  15.786   9.679   2.701
65520W        W37136  33.926  32.450  14.520
65521W        W37137   7.193   6.762   1.404
65522W        W37138  44.301  35.697   1.290
65523W        W37139  33.756   2.348  10.701
65524W        W37140  26.107  11.523   1.437
65525W        W37141   2.814  41.797   0.877
65526W        W37142  27.623  40.032  11.056
65527W        W37143  25.627  22.511  12.414
65528W        W37144  43.926   1.488  13.809
65529W        W37145  43.313   2.436  11.967
65530W        W37146  20.639  44.518   4.179
65531W        W37147   2.757  42.860  14.994
65532W        W37148   4.579  21.296   4.770
65533W        W37149  16.635  15.725   2.948
65534W        W37150   5.220  27.184   4.603
65535W        W37151  41.627  43.766   0.228
65536W        W37152  12.668   7.793   4.020
65537W        W37153  42.821  19.104  12.080
65538W        W37154  30.929  31.211   0.020
65539W        W37155   0.833   6.655  14.085
65540W        W37156  24.768  41.093   2.783
65541W        W37157  34.651  33.184  12.985
65542W        W37158  33.742  34.444   3.193
65543W        W37159  17.581  34.401  11.580
65544W        W37160  11.039  30.662   3.205
65545W        W37161   8.464  43.871  11.962
65546W        W37162   0.751   0.942   4.599
65547W        W37163  34.517  13.764   0.002
65548W        W37164  25.022  18.180   3.442
65549W        W37165  25.291  19.625  11.068
65550W        W37166  14.973  43.032  12.530
65551W        W37167  27.629  38.834  12.540
65552W        W37168  39.954  37.118   3.653
65553W        W37169   5.382  19.194   3.843
65554W        W37170  23.978  15.231   0.424
65555W        W37171  40.579  42.775   1.007
65556W        W37172   2.591  37.522  12.990
65557W        W37173  41.620  25.238   1.845
65558W        W37174   7.364  33.925  10.894
65559W        W37175   3.784  40.329  14.318
65560W        W37176  30.420  44.784   0.229
65561W        W37177   8.334  26.166   0.472
65562W        W37178  20.978   1.859   9.882
65563W        W37179  12.090  19.471   2.123
65564W        W37180  39.001  39.294  12.938
65565W        W37181   7.896   6.159   1.255
65566W        W37182  26.101   9.598  13.885
65567W        W37183  18.126  35.608   1.738
65568W        W37184  21.761  19.811  13.434
65569W        W37185  16.872  11.969  14.406
65570W        W37186  15.658  26.557  13.916
65571W        W37187  20.757   6.828   2.935
65572W        W37188  16.135  34.454  10.617
65573W        W37189  19.131   0.595   3.578
65574W        W37190  29.724   8.226  13.430
65575W        W37191  20.265   2.662   4.289
65576W        W37192  20.627  39.415   0.287
65577W        W37193   1.316  39.555   4.978
65578W        W37194  37.051  14.853  13.438
65579W        W37195   2.182  40.631   4.639
65580W        W37196  43.318   6.581  11.023
65581W        W37197  28.823   2.153  14.562
65582W        W37198   2.903  44.845   2.686
65583W        W37199  37.007  15.185   3.280
65584W        W37200   6.312   5.040  11.267
65585W        W37201  10.650  29.486  13.615
65586W        W37202  12.083   0.748  13.332
65587W        W37203  21.291  38.551   0.065
65588W        W37204   1.210  25.723   2.309
65589W        W37205  21.506  40.793  12.171
65590W        W37206  35.952  32.450   0.313
65591W        W37207  12.376  11.195   1.668
65592W        W37208  29.164  36.365   2.417
65593W        W37209  21.843  37.559  10.607
65594W        W37210   6.874  30.208   1.366
65595W        W37211  15.329   7.647  12.002
65596W        W37212  21.713  36.827  14.432
65597W        W37213   0.285   6.743  12.164
65598W        W37214   2.987  23.927  14.388
65599W        W37215  44.241  38.019  10.534
65600W        W37216   2.041  37.871  14.340
65601W        W37217  42.045  14.248  13.567
65602W        W37218   6.155   7.873  14.451
65603W        W37219  29.163  36.422  13.706
65604W        W37220   1.980  15.142   3.095
65605W        W37221  33.053  29.413   2.468
65606W        W37222  14.801  11.802  13.435
65607W        W37223  30.772   8.563  12.460
65608W        W37224  17.968  44.330   3.726
65609W        W37225  29.999  44.514  10.536
65610W        W37226  18.747  44.429  14.235
65611W        W37227  39.512  40.957   3.702
65612W        W37228  19.829  23.650   2.688
65613W        W37229  26.372  14.486  10.914
65614W        W37230   3.244  20.075   3.448
65615W        W37231   7.453  15.461   3.375
65616W        W37232  20.784  19.084  10.688
65617W        W37233  28.430  43.193   3.372
65618W        W37234  27.094  28.975   1.914
65619W        W37235   0.081  19.470   3.109
65620W        W37236   4.866  18.972  10.772
65621W        W37237   7.152  16.537  11.606
65622W        W37238  37.825  40.748  10.933
65623W        W37239  12.460   9.160  14.403
65624W        W37240   4.543  19.261  13.243
65625W        W37241  35.790  29.580  12.965
65626W        W37242  22.042   2.390   0.415
65627W        W37243  17.539  18.698  13.378
65628W        W37244   3.990  44.597  11.441
65629W        W37245  39.792  18.871  14.485
65630W        W37246  14.562  18.069   4.093
65631W        W37247  41.466  30.844  14.237
65632W        W37248  23.538  21.316  13.484
65633W        W37249   9.372  44.470  14.752
65634W        W37250  16.085   6.541  14.463
65635W        W37251  44.467  22.947   1.849
65636W        W37252  26.507   6.104   1.578
65637W        W37253   0.284   5.123  12.825
65638W        W37254  30.865  18.784  14.304
65639W        W37255  18.982  10.097   4.985
65640W        W37256  22.049   3.449   3.024
65641W        W37257  26.624  33.669   1.853
65642W        W37258  10.899  44.192  13.954
65643W        W37259  12.748   5.783  10.220
65644W        W37260   9.003  20.971  13.068
65645W        W37261  35.905  39.998   0.761
65646W        W37262   4.535  35.416  13.691
65647W        W37263  32.332   9.294   1.214
65648W        W37264  22.513  31.655   0.297
65649W        W37265  19.651  39.439  12.843
65650W        W37266  37.974  23.712  12.692
65651W        W37267  32.124  35.876  14.804
65652W        W37268  18.100  15.900  11.023
65653W        W37269  13.681   1.793  13.787
65654W        W37270  17.567  40.302   3.836
65655W        W37271   7.927   2.218   3.167
65656W        W37272   6.781  26.640  11.976
65657W        W37273   2.696   7.387  11.199
65658W        W37274  36.645  35.306   2.658
65659W        W37275   0.113  43.071   0.037
65660W        W37276   1.812  13.865   2.387
65661W        W37277  25.553   7.039   4.320
65662W        W37278  14.763  27.097   0.623
65663W        W37279  23.065  43.177  14.559
65664W        W37280  27.054  43.048   0.677
65665W        W37281   5.144  12.580  11.084
65666W        W37282  42.413  23.617   3.690
65667W        W37283  26.596   8.042   0.313
65668W        W37284  29.279  22.315   1.695
65669W        W37285   4.505  10.645  13.932
65670W        W37286  27.461   4.648  12.905
65671W        W37287  16.366  10.311   1.501
65672W        W37288  21.772  36.850  11.186
65673W        W37289   9.881  12.879   2.271
65674W        W37290  35.470  34.099  13.828
65675W        W37291   4.711  14.227  10.575
65676W        W37292  21.189  11.175   3.131
65677W        W37293  36.467  20.564   4.451
65678W        W37294  24.973  10.315   4.897
65679W        W37295  22.223  42.566  11.977
65680W        W37296  24.165   4.262   0.465
65681W        W37297  35.593  33.458   0.899
65682W        W37298   1.384  21.470   2.313
65683W        W37299  28.140  25.481  10.733
65684W        W37300  29.626  27.433   0.896
65685W        W37301  39.759  41.068   1.355
65686W        W37302  21.138  11.663   3.257
65687W        W37303  39.937  34.776  10.635
65688W        W37304   1.790  29.472   0.482
65689W        W37305  22.226  34.438  12.625
65690W        W37306  28.617  11.119   2.270
65691W        W37307   6.710  31.152   1.274
65692W        W37308  29.033   8.251   3.123
65693W        W37309  31.612  24.655  14.279
65694W        W37310   9.217   7.178  14.292
65695W        W37311  17.848  22.878   1.796
65696W        W37312  44.607  42.257   0.285
65697W        W37313  35.102  32.975  13.221
65698W        W37314  34.690  37.342   2.605
65699W        W37315  24.162  35.487   4.991
65700W        W37316  14.396  33.416   4.165
65701W        W37317  37.638   8.207  11.463
65702W        W37318   4.974  20.083   1.952
65703W        W37319   2.643  21.693   9.773
65704W        W37320  15.650  11.740   0.704
65705W        W37321  25.604  22.674  11.139
65706W        W37322  34.907  10.322  11.550
65707W        W37323  32.746  18.077   0.330
65708W        W37324  23.501  14.797   1.885
65709W        W37325  32.425  38.777  11.963
65710W        W37326  29.114  28.951   0.821
65711W        W37327  14.574  43.264   1.604
65712W        W37328   0.711  22.279   4.127
65713W        W37329  12.636   6.946  13.744
65714W        W37330  18.842  40.563   0.939
65715W        W37331  14.252  15.545   1.363
65716W        W37332  27.658  26.543   0.860
65717W        W37333  38.094  27.682   1.490
65718W        W37334  27.850   6.183   4.115
65719W        W37335  36.569   9.301   4.601
65720W        W37336  20.153   6.906   2.790
65721W        W37337  14.059   3.743  14.598
65722W        W37338  18.630  21.333  14.364
65723W        W37339  21.067  12.603  13.926
65724W        W37340   1.387   4.128   0.561
65725W        W37341  27.178  37.511  10.436
65726W        W37342  42.776  39.443   4.600
65727W        W37343  34.292  35.485   3.852
65728W        W37344  18.046   1.945   3.823
65729W        W37345  20.215  35.028  11.427
65730W        W37346  43.125  28.574   3.346
65731W        W37347  11.692   3.048  14.013
65732W        W37348  12.789  30.563   0.398
65733W        W37349   2.752  25.953  14.346
65734W        W37350  35.772  14.290   4.428
65735W        W37351  17.965  25.762   3.246
65736W        W37352  34.585  17.616  14.982
65737W        W37353  37.612  26.363   3.779
65738W        W37354  24.148   0.402   1.354
65739W        W37355  28.922  35.081   1.300
65740W        W37356  27.920  24.163   1.729
65741W        W37357  17.101  25.296  10.296
65742W        W37358   1.939   3.736  13.488
65743W        W37359  13.317  15.502   1.426
65744W        W37360  14.153  29.205   2.842
65745W        W37361  26.711  10.720  13.960
65746W        W37362  13.824   0.536  14.423
65747W        W37363  10.015  21.161  12.763
65748W        W37364  13.395  33.795  12.718
65749W        W37365  17.155  18.312  13.979
65750W        W37366  31.925  18.671   1.737
65751W        W37367  37.848  14.353   4.209
65752W        W37368  20.237  37.107  12.962
65753W        W37369  21.109  24.221  14.729
65754W        W37370  11.649  31.519  12.330
65755W        W37371  23.008  29.098  10.670
65756W        W37372  43.528   2.436   1.711
65757W        W37373  15.862  15.164   2.924
65758W        W37374  31.685  35.285  14.371
65759W        W37375   5.160  42.822  10.448
65760W        W37376  40.352   4.287   0.248
65761W        W37377  17.675  12.169  12.153
65762W        W37378  15.874  18.556   2.467
65763W        W37379   9.253  18.654   3.128
65764W        W37380  30.014  10.456  10.047
65765W        W37381  36.025  20.167  12.052
65766W        W37382   2.483  43.073  11.208
65767W        W37383  29.901  26.208  14.821
65768W        W37384   5.823  16.575  13.399
65769W        W37385  36.011  28.734   2.913
65770W        W37386  10.616  16.124  11.949
65771W        W37387  26.454   9.224  12.594
65772W        W37388  13.168  32.357  13.930
65773W        W37389  28.588  15.806   0.988
65774W        W37390   2.309  41.548  10.691
65775W        W37391  23.867  38.532  11.373
65776W        W37392  38.435  10.828  14.496
65777W        W37393  29.514  19.485  11.956
65778W        W37394  41.065  30.949   0.248
65779W        W37395  43.814  31.555   0.480
65780W        W37396  16.190  32.374  13.370
65781W        W37397  41.777  39.933   4.258
65782W        W37398  11.616  11.379  11.709
65783W        W37399  20.848  44.725   1.869
65784W        W37400   6.378   4.974   3.637
65785W        W37401  13.777  19.716   4.601
65786W        W37402  41.036  34.193  14.864
65787W        W37403  41.266  23.689  11.449
65788W        W37404  15.396  17.319   4.551
65789W        W37405  14.887  12.634   4.548
65790W        W37406  10.803  44.696  13.931
65791W        W37407  33.441  30.214   4.556
65792W        W37408  30.810  11.331   3.602
65793W        W37409  41.936   8.337   0.442
65794W        W37410   3.808   1.407  10.608
65795W        W37411  17.019  23.275  12.847
65796W        W37412  43.915  29.190   3.104
65797W        W37413   2.468  20.703  10.591
65798W        W37414  18.252  18.048  12.581
65799W        W37415  42.839  43.417   2.210
65800W        W37416  35.992  25.124  11.164
65801W        W37417   1.239  17.941   1.333
65802W        W37418   7.227  18.771   0.793
65803W        W37419  14.446  21.118  14.442
65804W        W37420  16.303   1.844  11.440
65805W        W37421  22.034   1.735   1.821
65806W        W37422  23.451  32.511   1.277
65807W        W37423  41.789  27.735  13.769
65808W        W37424  20.102  42.452  10.166
65809W        W37425  23.544  43.790   3.759
65810W        W37426  15.047  35.703  12.557
65811W        W37427  27.029  36.618   3.158
65812W        W37428  12.495  31.397   1.303
65813W        W37429  26.640  20.115   4.159
65814W        W37430  25.918  33.477   4.212
65815W        W37431  21.318  41.997  12.801
65816W        W37432  18.132  24.185   3.759
65817W        W37433  17.621  40.916   0.689
65818W        W37434  14.302  32.406  13.807
65819W        W37435  41.109  14.541  12.356
65820W        W37436  30.138  29.980  14.123
65821W        W37437  33.718  34.323  10.761
65822W        W37438   8.800   7.801   3.600
65823W        W37439   1.928  40.022   1.907
65824W        W37440  14.155  16.758  14.714
65825W        W37441  41.758  24.166   3.173
65826W        W37442  44.495  25.045  12.314
65827W        W37443   6.568  35.382   3.030
65828W        W37444  33.017   3.991   4.568
65829W        W37445   5.588  25.138  11.137
65830W        W37446   8.669  41.077   1.002
65831W        W37447  15.824   9.752  12.438
65832W        W37448   7.315  23.249  14.185
65833W        W37449  24.694   8.920  14.825
65834W        W37450  22.951  26.233  11.603
65835W        W37451   4.693  34.450  13.009
65836W        W37452  31.115  11.278  10.973
65837W        W37453  15.589  25.107  10.366
65838W        W37454  18.105   3.006   1.341
65839W        W37455  22.211  26.781  14.053
65840W        W37456  35.641  25.065  12.846
65841W        W37457  19.176  28.139  11.219
65842W        W37458   8.744  40.895   0.117
65843W        W37459  28.987  34.394  14.064
65844W        W37460   4.290   9.614  13.569
65845W        W37461  37.837  20.001   2.814
65846W        W37462  23.229  33.613  11.562
65847W        W37463  18.153   1.414   0.267
65848W        W37464   4.998  27.558  12.986
65849W        W37465  18.766  44.964   5.612
65850W        W37466  14.868  14.599   0.974
65851W        W37467  21.234  39.305  12.029
65852W        W37468  24.628  21.976  12.458
65853W        W37469  10.833   3.689   0.731
65854W        W37470   8.682  40.496   2.764
65855W        W37471   0.778  21.096   0.227
65856W        W37472   4.456  22.707   0.458
65857W        W37473  24.700  44.222   4.638
65858W        W37474  28.112  25.559  14.818
65859W        W37475  18.053  18.572   1.926
65860W        W37476  12.278  21.185   2.581
65861W        W37477  24.295  34.507   4.278
65862W        W37478  21.489  34.108  11.114
65863W        W37479  18.623  20.119  13.672
65864W        W37480  33.257  32.847   2.215
65865W        W37481  17.697  13.511  14.212
65866W        W37482   4.118   1.863  13.101
65867W        W37483  40.278  12.371  11.133
65868W        W37484  33.186  30.345  14.978
65869W        W37485  22.125  32.939   4.472
65870W        W37486   8.930  21.175  14.945
65871W        W37487  23.584  37.558   3.697
65872W        W37488  38.399  20.160  14.872
65873W        W37489   7.139   8.164   1.601
65874W        W37490  10.021  15.913  11.013
65875W        W37491  44.044  35.981  11.601
65876W        W37492  13.748  19.964  13.074
65877W        W37493   0.416  32.627   1.045
65878W        W37494   9.174  18.810  14.326
65879W        W37495  42.922  16.852   3.628
65880W        W37496  26.237  17.220  13.623
65881W        W37497  25.989   6.636  11.990
65882W        W37498  10.655  19.576   3.272
65883W        W37499   8.012  40.095  14.437
65884W        W37500   7.290  12.381   4.062
65885W        W37501   0.118  12.746  12.531
65886W        W37502  35.224  29.068  13.452
65887W        W37503  20.842  19.512   0.836
65888W        W37504  18.648  40.408  13.588
65889W        W37505  21.193  15.073   1.420
65890W        W37506  39.647   8.562  14.480
65891W        W37507  42.742  38.354   1.708
65892W        W37508  39.433  17.548  10.574
65893W        W37509  23.162  37.815   0.846
65894W        W37510  28.505  13.582  14.053
65895W        W37511   2.741  21.276   2.730
65896W        W37512  20.756  33.623   0.435
65897W        W37513  41.986  44.230  13.791
65898W        W37514  15.568  14.759  11.515
65899W        W37515  13.249  35.859   0.882
65900W        W37516   2.674   9.854   2.408
65901W        W37517   5.739  38.308   0.302
65902W        W37518  24.972  37.889  13.258
65903W        W37519  38.325  23.543  13.856
65904W        W37520  14.736   8.790  14.374
65905W        W37521  10.136  18.813  14.328
65906W        W37522  12.872  21.554  13.392
65907W        W37523  23.025  35.888  12.393
65908W        W37524  30.112  24.227  12.260
65909W        W37525   0.372   1.477  12.752
65910W        W37526  16.643  34.638  10.715
65911W        W37527  27.131  28.111  11.210
65912W        W37528  38.528  19.079  13.400
65913W        W37529  16.065  26.935   4.277
65914W        W37530  23.676  43.438   4.711
65915W        W37531  41.371  42.738   2.768
65916W        W37532  18.109   1.791  13.411
65917W        W37533   7.033  25.876   4.192
65918W        W37534  28.406  13.095  14.945
65919W        W37535  36.460  33.090   0.074
65920W        W37536  36.620  28.119  11.199
65921W        W37537  18.422  17.430  11.060
65922W        W37538  31.154  33.908  14.440
65923W        W37539  12.853   9.728   2.749
65924W        W37540   8.250   2.961  11.717
65925W        W37541   0.375  21.070   1.343
65926W        W37542  39.104  15.126   3.109
65927W        W37543  18.631  23.934   3.130
65928W        W37544  40.996   6.016  11.581
65929W        W37545   6.216  41.564  11.115
65930W        W37546  44.119  26.012   9.965
65931W        W37547   1.772   6.805  14.596
65932W        W37548   1.380  41.943   5.012
65933W        W37549  18.619   7.279  12.101
65934W        W37550  33.445  44.847   3.925
65935W        W37551  11.048  32.563   4.417
65936W        W37552   3.217  37.618  14.573
65937W        W37553  21.693  12.945   1.327
65938W        W37554  11.480  43.768   4.171
65939W        W37555   9.045   4.174   0.256
65940W        W37556  29.642   6.261  13.482
65941W        W37557  26.958  43.083  12.784
65942W        W37558   3.407  37.148   2.711
65943W        W37559  22.111  32.495  14.712
65944W        W37560  37.746  44.710   3.621
65945W        W37561  18.178   6.178  12.450
65946W        W37562  22.712  35.750   1.415
65947W        W37563  17.064  32.130  12.470
65948W        W37564  22.539  31.442   2.255
65949W        W37565  23.147  37.598  12.821
65950W        W37566  39.951  11.082  10.774
65951W        W37567  22.097   0.394  10.504
65952W        W37568  23.698  30.658   1.355
65953W        W37569  21.052   0.441   4.725
65954W        W37570  14.154  21.004   4.291
65955W        W37571   7.920   0.303  12.373
65956W        W37572   8.269  18.767   0.239
65957W        W37573  17.121  37.408   9.940
65958W        W37574   4.260  35.254  11.470
65959W        W37575   7.340  42.031  12.446
65960W        W37576  26.262  18.502  12.078
65961W        W37577  34.012  43.026  14.332
65962W        W37578  17.640  15.217  11.965
65963W        W37579   5.200  22.791   3.179
65964W        W37580   4.161  18.370  12.505
65965W        W37581  27.199  44.799  13.895
65966W        W37582  14.795  20.629  12.906
65967W        W37583  27.410  44.588  14.742
65968W        W37584   4.922   9.250  11.974
65969W        W37585   8.762  39.579  14.601
65970W        W37586  21.638   6.299   1.907
65971W        W37587  24.777   9.765  14.264
65972W        W37588  41.546   3.419   0.047
65973W        W37589  37.302  31.243  12.420
65974W        W37590  44.351  11.852  12.238
65975W        W37591  38.049  14.365  13.270
65976W        W37592  31.427   7.361  14.421
65977W        W37593  24.246  39.534  12.473
65978W        W37594  23.657  26.248  13.929
65979W        W37595  28.405   2.935   0.428
65980W        W37596  23.681  44.988   3.208
65981W        W37597  25.964  27.409   1.371
65982W        W37598   7.959  25.129  14.102
65983W        W37599  14.825  39.471  11.490
65984W        W37600  41.160  40.314   0.318
65985W        W37601  36.972  43.021   2.298
65986W        W37602  42.100   8.151  12.373
65987W        W37603  35.840  37.115  11.179
65988W        W37604  16.738   7.880  11.927
65989W        W37605  29.119   8.371  12.618
65990W        W37606   7.717  24.145   4.586
65991W        W37607  36.333  29.983  14.096
65992W        W37608   6.505   1.241   2.351
65993W        W37609   7.669  10.444  14.546
65994W        W37610  20.596  37.089  12.495
65995W        W37611   4.452   3.289   1.884
65996W        W37612  37.103  15.232   1.796
65997W        W37613   8.698  13.347   1.295
65998W        W37614   2.011  17.188  13.390
65999W        W37615  17.625   3.481  11.031
66000W        W37616  11.690  39.099  14.613
66001W        W37617  37.481  27.942  13.454
66002W        W37618  28.083  15.182   1.925
66003W        W37619  41.828  34.587  13.015
66004W        W37620  42.426  15.965  14.414
66005W        W37621  28.432  15.281  12.061
66006W        W37622  36.318   4.319   4.878
66007W        W37623  17.675  37.580  13.348
66008W        W37624  35.893   3.377   4.048
66009W        W37625  24.616  26.931   4.542
66010W        W37626  36.525  22.473  11.915
66011W        W37627  32.400  43.414  10.654
66012W        W37628  39.645  35.967  14.531
66013W        W37629  26.581  41.507  13.760
66014W        W37630  19.239  14.690  11.709
66015W        W37631  12.360  31.408   0.389
66016W        W37632  43.873  14.329   2.418
66017W        W37633  13.415  24.039   2.398
66018W        W37634   3.789  24.359  14.272
66019W        W37635  27.678  27.371  12.468
66020W        W37636  32.844  12.367  11.510
66021W        W37637   3.790  18.174   5.077
66022W        W37638  33.599  31.877   4.992
66023W        W37639  26.631  37.526   1.315
66024W        W37640  41.716  26.017  11.010
66025W        W37641  32.467  30.448  10.281
66026W        W37642  15.145  37.509  11.899
66027W        W37643  31.382   7.704  13.681
66028W        W37644  16.608   1.210  14.960
66029W        W37645  25.519  28.419   2.740
66030W        W37646  30.055   5.682   0.815
66031W        W37647  35.577  27.879  12.571
66032W        W37648   1.777   1.397  13.136
66033W        W37649   7.630   6.678  11.384
66034W        W37650  32.134  36.096   1.251
66035W        W37651  36.774  29.412   1.800
66036W        W37652   5.143  29.134  13.349
66037W        W37653   4.669   2.999   4.277
66038W        W37654  15.617  11.309  13.892
66039W        W37655  40.999  41.886  13.813
66040W        W37656  26.735   5.700   4.610
66041W        W37657  13.658  36.000  12.274
66042W        W37658  24.503  14.369  12.654
66043W        W37659  24.465   4.904  13.952
66044W        W37660  24.693  30.894   2.328
66045W        W37661  31.548  16.194   3.496
66046W        W37662  36.928   7.440   1.193
66047W        W37663  25.854  16.751  10.877
66048W        W37664   9.542  18.214   4.701
66049W        W37665  23.592  23.173  11.063
66050W        W37666  33.737   4.489  12.431
66051W        W37667  19.613  14.110   1.823
66052W        W37668  22.756  10.218  11.247
66053W        W37669   5.520   5.868   2.665
66054W        W37670   8.934  25.438   4.047
66055W        W37671  12.430  31.884  11.094
66056W        W37672  14.453  36.045  12.022
66057W        W37673  27.722  24.099  10.616
66058W        W37674  15.619  31.095   0.687
66059W        W37675  13.920  32.520   4.635
66060W        W37676   0.876  22.090   2.704
66061W        W37677  20.805  42.971   1.315
66062W        W37678   8.857   2.343  13.386
66063W        W37679  17.278  20.055   3.166
66064W        W37680   4.754  28.676   3.286
66065W        W37681  17.662   9.873  14.346
66066W        W37682   5.644   7.095  11.764
66067W        W37683  32.838   3.288  14.899
66068W        W37684  32.557  28.139   4.850
66069W        W37685  34.514   3.422   3.825
66070W        W37686  32.935  36.587   0.286
66071W        W37687  21.646  27.515   0.483
66072W        W37688  21.435   7.261   1.923
66073W        W37689  21.152  42.389  13.596
66074W        W37690  43.556  29.916   4.708
66075W        W37691  15.243  42.911  12.973
66076W        W37692  30.987   0.873   4.870
66077W        W37693  25.972  17.590  12.894
66078W        W37694  22.055  15.081   1.312
66079W        W37695  15.319  27.939  10.811
66080W        W37696   6.085  37.982  13.119
66081W        W37697  43.224  20.719   4.188
66082W        W37698  36.087  40.016  14.372
66083W        W37699   0.893  10.273   3.690
66084W        W37700  21.104  20.797  13.317
66085W        W37701  39.899  37.839   3.054
66086W        W37702  18.039   8.335  11.648
66087W        W37703  35.143  27.599  14.876
66088W        W37704  28.056   7.129  10.682
66089W        W37705  17.310   0.910   0.329
66090W        W37706  34.840  12.867   1.137
66091W        W37707   4.556  18.478   5.060
66092W        W37708  10.991   7.685   3.540
66093W        W37709   1.160   0.956  11.136
66094W        W37710  13.590  33.477   4.594
66095W        W37711  13.524   2.289  11.045
66096W        W37712  15.231  34.452   2.219
66097W        W37713  27.036  34.447  14.371
66098W        W37714  30.469  44.408  10.726
66099W        W37715  10.657   1.334  11.028
66100W        W37716  10.832  40.465   0.442
66101W        W37717  15.691   9.568  10.721
66102W        W37718  22.976   8.952   2.017
66103W        W37719  10.940  16.874  13.029
66104W        W37720   8.268  12.832  13.767
66105W        W37721  26.787  35.152   0.601
66106W        W37722  19.228  44.495   0.539
66107W        W37723   9.099  24.969   3.879
66108W        W37724  31.881  36.962   4.750
66109W        W37725  19.590  34.463  13.367
66110W        W37726  38.331   0.491  13.338
66111W        W37727  13.716  31.156  10.993
66112W        W37728   2.005  18.018   1.837
66113W        W37729  28.562  42.120   0.446
66114W        W37730  42.104  17.107  10.469
66115W        W37731  37.882   3.876   0.444
66116W        W37732   1.337  26.054  13.827
66117W        W37733  20.097  28.081   0.411
66118W        W37734  18.485  21.000   4.977
66119W        W37735  23.254  41.263  11.709
66120W        W37736  23.015  17.240  12.559
66121W        W37737  41.826  30.411   4.528
66122W        W37738  28.163   8.956  13.891
66123W        W37739  19.515   3.548   2.621
66124W        W37740  41.937  37.454   1.849
66125W        W37741  24.609  42.400   2.234
66126W        W37742   3.207  31.628  14.913
66127W        W37743  10.263   8.373  14.340
66128W        W37744  37.804  35.563  12.386
66129W        W37745   7.174  40.801  12.931
66130W        W37746  28.400  22.619   0.912
66131W        W37747  23.107  33.502   3.888
66132W        W37748  42.394  26.076   0.776
66133W        W37749   1.210  29.452  12.076
66134W        W37750  21.152  44.373  10.868
66135W        W37751   5.788   3.765   0.513
66136W        W37752   6.388  26.470   2.225
66137W        W37753   3.123  20.339   4.308
66138W        W37754  34.808  23.119   4.063
66139W        W37755   4.794  33.840  13.906
66140W        W37756  27.938  41.552   4.063
66141W        W37757  28.452  38.078   4.536
66142W        W37758   8.013  22.501  10.867
66143W        W37759  33.398  35.811   4.727
66144W        W37760   0.798  27.487  14.354
66145W        W37761  15.299  12.860  14.864
66146W        W37762  21.568  20.752   4.587
66147W        W37763   2.974  22.174   5.082
66148W        W37764  10.523  13.023   1.241
66149W        W37765   9.750   7.406   3.255
66150W        W37766   2.718  10.219  13.795
66151W        W37767  34.400  15.844   2.698
66152W        W37768  10.336   6.269  13.060
66153W        W37769   6.828  14.428  12.549
66154W        W37770  20.781   7.902  12.100
66155W        W37771  18.862  25.192   0.208
66156W        W37772  38.413  14.805  10.976
66157W        W37773  25.104  22.663   3.206
66158W        W37774  12.926   6.260   2.335
66159W        W37775  44.569  42.431  10.999
66160W        W37776  37.871  37.024   3.168
66161W        W37777  25.608  29.014   1.905
66162W        W37778   2.565   4.215  12.888
66163W        W37779   4.273   7.314  11.745
66164W        W37780  17.251   3.920   1.803
66165W        W37781   4.076  20.001   4.647
66166W        W37782   1.359  18.832   2.289
66167W        W37783  10.014   1.824  11.199
66168W        W37784   0.706   4.299   4.532
66169W        W37785  42.119  30.010   3.750
66170W        W37786  28.494  20.159  12.379
66171W        W37787  23.041  27.614   2.085
66172W        W37788  29.634  23.062  10.990
66173W        W37789  20.998  41.793   1.653
66174W        W37790   1.873  28.651   4.623
66175W        W37791  15.091  30.130   1.493
66176W        W37792  19.641   7.364  11.235
66177W        W37793  13.848   9.683   3.833
66178W        W37794  28.457  25.664  12.065
66179W        W37795   7.446  43.752   3.275
66180W        W37796  16.233  27.714   3.080
66181W        W37797   2.673  12.598  14.718
66182W        W37798  23.218  30.921   0.195
66183W        W37799  28.061  29.635   4.420
66184W        W37800  34.668  18.518   4.864
66185W        W37801  37.553  16.592  13.953
66186W        W37802   3.036  35.278   0.435
66187W        W37803  40.928  29.228  14.345
66188W        W37804  43.434   5.004  12.018
66189W        W37805  21.151  21.132   4.923
66190W        W37806  41.292  24.161  14.845
66191W        W37807  31.572  11.711  12.044
66192W        W37808  33.252  29.681   3.674
66193W        W37809   4.236  20.993   0.064
66194W        W37810  40.442  30.091  12.982
66195W        W37811  12.848   0.527   3.760
66196W        W37812  31.618  27.563   1.323
66197W        W37813  10.617  16.013  14.792
66198W        W37814  17.921   0.914  13.978
66199W        W37815  11.055   0.490   4.110
66200W        W37816   3.759  33.464  12.768
66201W        W37817  31.070  15.180  13.901
66202W        W37818  26.953  18.734   2.277
66203W        W37819  29.944  19.092   2.226
66204W        W37820   3.860  15.756   3.677
66205W        W37821   8.391  36.542  12.994
66206W        W37822  40.310  41.839  14.972
66207W        W37823  42.744   7.026  14.816
66208W        W37824  36.588  43.025   3.673
66209W        W37825   9.930   6.062   2.538
66210W        W37826  21.603   1.018   0.517
66211W        W37827   6.794  32.538  11.767
66212W        W37828  44.459   8.932   2.789
66213W        W37829  34.499  32.693  10.704
66214W        W37830  15.763  36.507   2.922
66215W        W37831   4.299   6.256  13.797
66216W        W37832   4.266  23.293  10.211
66217W        W37833  10.552  17.361   4.045
66218W        W37834  40.405  42.890   3.284
66219W        W37835  28.951   1.451   1.266
66220W        W37836  36.457   1.778   0.962
66221W        W37837  29.247  33.150  12.797
66222W        W37838  43.029  37.394   2.528
66223W        W37839  21.461  17.849   2.611
66224W        W37840  39.148  17.802  11.491
66225W        W37841  34.333  34.909  14.825
66226W        W37842  15.352  34.633  12.495
66227W        W37843  30.684   3.542   1.323
66228W        W37844  44.716  12.806   3.999
66229W        W37845  26.511   1.037  11.825
66230W        W37846   6.691  27.884  12.493
66231W        W37847  20.564  41.789  13.097
66232W        W37848  14.252  44.004  14.851
66233W        W37849  39.081   3.332   1.422
66234W        W37850  28.356  32.578   4.645
66235W        W37851  29.410  21.210  10.656
66236W        W37852  13.783  16.691   4.495
66237W        W37853   4.426  22.924   2.196
66238W        W37854  13.739  33.614  10.942
66239W        W37855  27.573  12.635   1.324
66240W        W37856  21.924  27.644  14.551
66241W        W37857  14.339  34.519   1.937
66242W        W37858   7.981  12.724   2.207
66243W        W37859  36.648  29.007   4.451
66244W        W37860  44.322  42.472   2.517
66245W        W37861   0.462  39.846   0.324
66246W        W37862  31.461   4.626   0.794
66247W        W37863  43.220  44.046   1.578
66248W        W37864   2.582  37.919   3.205
66249W        W37865  33.685  15.862   1.408
66250W        W37866  14.336   1.969  14.811
66251W        W37867  31.874  41.963  12.000
66252W        W37868   8.693  42.011  13.753
66253W        W37869  42.941  21.663   3.438
66254W        W37870  37.746  37.374  11.241
66255W        W37871  37.823   4.212   0.873
66256W        W37872   1.270  36.331   4.060
66257W        W37873  17.793  35.946   4.142
66258W        W37874   5.342  24.167   1.229
66259W        W37875   1.774  34.042  11.960
66260W        W37876   0.454  36.893  12.568
66261W        W37877  17.134  14.315   2.106
66262W        W37878  27.885  22.752   3.701
66263W        W37879  12.925  25.544   4.156
66264W        W37880  16.041  21.150  12.975
66265W        W37881  12.253  26.891   0.851
66266W        W37882  28.708  15.786  12.023
66267W        W37883  27.677  38.817  14.904
66268W        W37884  37.378  32.814  14.873
66269W        W37885  22.188  40.184  12.877
66270W        W37886   9.241  28.257  11.503
66271W        W37887   6.919   9.876   0.380
66272W        W37888  44.337  33.544   0.409
66273W        W37889   3.239   8.681   1.967
66274W        W37890   3.966  38.785   3.419
66275W        W37891  18.164  10.919   1.903
66276W        W37892   3.483  27.641   1.759
66277W        W37893  43.902  11.841  10.699
66278W        W37894  17.206  14.386  13.913
66279W        W37895  44.408  39.632  11.608
66280W        W37896  43.723  34.783   4.998
66281W        W37897  36.577  10.364   4.541
66282W        W37898  25.721  42.508  12.034
66283W        W37899   5.666  35.898   2.160
66284W        W37900   5.469  13.243   4.931
66285W        W37901   8.417  43.182   1.987
66286W        W37902  37.531  40.631   0.797
66287W        W37903   2.953  10.723   0.860
66288W        W37904  27.632  23.756  13.043
66289W        W37905  12.457  16.777  12.999
66290W        W37906  39.485  21.731  11.024
66291W        W37907   8.612   6.911   4.627
66292W        W37908  37.432  33.617  13.070
66293W        W37909  44.268  12.124  11.280
66294W        W37910  27.402  29.254   0.259
66295W        W37911  37.929  31.917  11.892
66296W        W37912  17.149  36.696   4.614
66297W        W37913  11.780  10.187   1.649
66298W        W37914  29.156  11.198  14.268
66299W        W37915  23.107  13.864  13.256
66300W        W37916  17.126  44.001   1.711
66301W        W37917  30.938  17.648  13.175
66302W        W37918  42.941  35.590   9.979
66303W        W37919  29.201  10.305  10.643
66304W        W37920   2.583  43.313   4.997
66305W        W37921  35.803  35.466   1.008
66306W        W37922  36.047  41.820   1.759
66307W        W37923  40.289  39.929   1.914
66308W        W37924   3.272  41.523  10.697
66309W        W37925  15.235  22.851  12.066
66310W        W37926  30.482  15.632  14.495
66311W        W37927  18.862  14.882   0.848
66312W        W37928  29.893   1.696   9.899
66313W        W37929  29.375  13.429   2.633
66314W        W37930  35.827  37.939  14.761
66315W        W37931  30.510  18.722   3.576
66316W        W37932  43.778   4.035  14.833
66317W        W37933  17.410  13.079   4.955
66318W        W37934  40.619  11.795   1.724
66319W        W37935  19.827  17.767  10.558
66320W        W37936  42.496  24.633  11.980
66321W        W37937  35.861  33.599  10.784
66322W        W37938  22.592   5.376  11.602
66323W        W37939  43.733   3.435   2.695
66324W        W37940  33.561  17.308   4.582
66325W        W37941  13.155  40.368  10.688
66326W        W37942  28.529  26.942   1.460
66327W        W37943  23.743  37.199   4.441
66328W        W37944   8.904  33.914   1.259
66329W        W37945   0.760  15.628  12.154
66330W        W37946   3.890   6.992   1.888
66331W        W37947  28.887  32.510   1.379
66332W        W37948  43.222  43.680   1.982
66333W        W37949  37.642  31.026   0.539
66334W        W37950  17.495  29.847   3.641
66335W        W37951   9.273  27.740   1.381
66336W        W37952  24.965  11.539   1.008
66337W        W37953  42.767  34.249  10.942
66338W        W37954  17.593  16.016  13.063
66339W        W37955  44.881  13.041  12.180
66340W        W37956  41.517   2.984  11.630
66341W        W37957  32.400  21.279  10.221
66342W        W37958   0.053  31.497  14.340
66343W        W37959  18.690  30.406   2.946
66344W        W37960  26.980   5.861   4.181
66345W        W37961  43.937  17.752   1.683
66346W        W37962   4.760  22.102   4.734
66347W        W37963  22.451  11.175  12.528
66348W        W37964  28.178  16.551  12.928
66349W        W37965  23.998  17.290   3.657
66350W        W37966  32.406  12.137  10.562
66351W        W37967   7.125  26.439  13.174
66352W        W37968  11.198  36.864  12.484
66353W        W37969  27.955  37.983   0.341
66354W        W37970  36.607  23.573   1.063
66355W        W37971  23.728   9.227  13.905
66356W        W37972  41.277  25.180  10.828
66357W        W37973   1.908  39.413  12.392
66358W        W37974  34.552  26.361  13.139
66359W        W37975  28.768   3.205   9.842
66360W        W37976  15.805  12.949   4.637
66361W        W37977  12.125  34.425  11.457
66362W        W37978  16.776  37.997   3.800
66363W        W37979  44.786   8.491  12.587
66364W        W37980  29.678  33.400  11.565
66365W        W37981   3.305   6.772  11.097
66366W        W37982  35.571  40.432   4.122
66367W        W37983   7.330  33.449  10.720
66368W        W37984  25.529  40.388   3.064
66369W        W37985  37.942  16.879   0.055
66370W        W37986   0.719   1.284  13.103
66371W        W37987  31.531  38.786   1.149
66372W        W37988  41.464  37.921   2.347
66373W        W37989  30.076  35.524   2.741
66374W        W37990  14.631  20.730   1.637
66375W        W37991  39.367  17.116  14.456
66376W        W37992   6.775  24.582   2.385
66377W        W37993  38.777   7.885  14.966
66378W        W37994  19.058  27.050   1.816
66379W        W37995  26.474  15.798   1.824
66380W        W37996  36.293   8.229  14.894
66381W        W37997  15.262  11.630  10.673
66382W        W37998  11.430  24.261  14.868
66383W        W37999  34.941  13.739   2.088
66384W        W38000  27.074  38.713   2.779
66385W        W38001  35.718  36.526  11.081
66386W        W38002   3.409   9.966  14.016
66387W        W38003  25.656  17.678  11.932
66388W        W38004  44.773  16.372  11.969
66389W        W38005  40.032   7.756  14.835
66390W        W38006   1.373   8.714  12.418
66391W        W38007  31.099  34.997   0.349
66392W        W38008  43.011  25.273   2.725
66393W        W38009  29.521  37.732  14.040
66394W        W38010  13.354  26.007   4.361
66395W        W38011  39.345  39.420  10.416
66396W        W38012  43.237  30.022  13.895
66397W        W38013  27.649  43.900   0.448
66398W        W38014   7.353  34.609   3.236
66399W        W38015  12.693  27.415   1.885
66400W        W38016  22.673  43.580  10.641
66401W        W38017  24.498   6.880  13.830
66402W        W38018  27.691  41.376   2.868
66403W        W38019  30.131  32.182  12.491
66404W        W38020  36.912  30.666   2.740
66405W        W38021  36.027  18.610  13.402
66406W        W38022  30.267  29.961   0.955
66407W        W38023  21.530   6.449  13.505
66408W        W38024  39.636  11.388   2.717
66409W        W38025   5.320  32.393  12.397
66410W        W38026  22.936  26.692   3.059
66411W        W38027  17.869  15.595  12.276
66412W        W38028  27.317  40.865  11.539
66413W        W38029  11.608  35.331  13.404
66414W        W38030  42.286  40.107  13.713
66415W        W38031   9.890  33.521   5.005
66416W        W38032  20.269  19.294  13.432
66417W        W38033   3.909  17.791  12.004
66418W        W38034  39.924  20.898  14.772
66419W        W38035  24.032  19.629  14.852
66420W        W38036   3.982  31.927   5.064
66421W        W38037  14.800   8.849   3.205
66422W        W38038  30.861  16.548  12.059
66423W        W38039  13.572  15.760   0.856
66424W        W38040   4.332  19.257  14.225
66425W        W38041  11.277   4.199  12.020
66426W        W38042  10.851  17.023  11.996
66427W        W38043  24.696   8.324   2.396
66428W        W38044   9.011  23.673   1.656
66429W        W38045  44.157   5.620   5.284
66430W        W38046   8.667  36.855   3.787
66431W        W38047  33.525  20.569   2.358
66432W        W38048  11.142  20.526   0.379
66433W        W38049  14.665   3.719  11.488
66434W        W38050   1.453  36.194   2.694
66435W        W38051   6.579  14.593  11.153
66436W        W38052   2.512   9.048  13.086
66437W        W38053   5.351  23.019   0.303
66438W        W38054  40.203  36.900  14.904
66439W        W38055   9.950  12.919   3.223
66440W        W38056  29.191  13.704  10.380
66441W        W38057  24.639  15.582   0.907
66442W        W38058  10.616  42.799  13.264
66443W        W38059  32.930  42.429   0.385
66444W        W38060  17.601  13.001   2.039
66445W        W38061  16.581  15.610  14.081
66446W        W38062  13.262  16.292  12.475
66447W        W38063  32.486  39.543   2.214
66448W        W38064  35.543   3.693   2.352
66449W        W38065  37.624  10.989  12.535
66450W        W38066  20.611   9.467  14.296
66451W        W38067  43.739   7.848   1.164
66452W        W38068  36.676   8.310   0.295
66453W        W38069  39.851  30.524   0.353
66454W        W38070  31.539  25.839   0.015
66455W        W38071  34.836  25.048  13.355
66456W        W38072  39.438  43.849   3.355
66457W        W38073  10.120  17.108   4.212
66458W        W38074  21.106  44.432   3.392
66459W        W38075  39.531  24.125  13.729
66460W        W38076  27.372   8.535   2.813
66461W        W38077  36.383  27.645  13.116
66462W        W38078  24.803  24.347  11.150
66463W        W38079  33.342  27.436   0.815
66464W        W38080  13.464  32.311  11.412
66465W        W38081  13.564  29.890  14.222
66466W        W38082  43.968  33.221  11.003
66467W        W38083  37.855  36.026   0.474
66468W        W38084   7.649  19.687   3.262
66469W        W38085   0.539   8.531  11.146
66470W        W38086  20.054  39.303   0.039
66471W        W38087   0.648  20.532  11.070
66472W        W38088  35.567  29.138   2.394
66473W        W38089  18.270  21.644  13.483
66474W        W38090  38.291  19.625  11.972
66475W        W38091  13.340   6.657   1.424
66476W        W38092  44.428  31.610   4.836
66477W        W38093  15.664  17.628  14.545
66478W        W38094  27.661   6.062   0.879
66479W        W38095  42.007   7.669   3.127
66480W        W38096  44.012  17.655   2.234
66481W        W38097   3.297  33.440  14.367
66482W        W38098   1.935  42.248   2.171
66483W        W38099  21.803  40.983  14.052
66484W        W38100  21.423  27.050  12.378
66485W        W38101  43.340  35.399  13.612
66486W        W38102  20.232  28.861  14.826
66487W        W38103  31.049  26.757   1.475
66488W        W38104  21.273  30.986  11.344
66489W        W38105  33.315  33.438  12.598
66490W        W38106  19.073  22.221  13.097
66491W        W38107  33.429  40.308   4.546
66492W        W38108  17.866   3.703  11.447
66493W        W38109  36.458  27.557  14.623
66494W        W38110  40.076  20.228   4.755
66495W        W38111  20.086  25.872  12.385
66496W        W38112  27.256   2.187  12.209
66497W        W38113  33.156   5.262   0.465
66498W        W38114   3.673  25.906  12.586
66499W        W38115   1.334   5.212  11.386
66500W        W38116  28.128   9.807  14.042
66501W        W38117  44.928  22.882   4.693
66502W        W38118  31.060  26.096  12.550
66503W        W38119   9.343  14.682   3.376
66504W        W38120  11.322  42.579   4.076
66505W        W38121  31.682   8.673   0.626
66506W        W38122  22.288   2.991   2.732
66507W        W38123  44.983  34.416  14.521
66508W        W38124   7.890  23.142  10.799
66509W        W38125  10.661  23.318  11.908
66510W        W38126  36.035   6.979   4.113
66511W        W38127  16.129  15.861   3.806
66512W        W38128  14.109  38.141  12.711
66513W        W38129   6.169  26.550  13.181
66514W        W38130  25.962  16.063  13.456
66515W        W38131   9.422  39.036   2.405
66516W        W38132  31.271  13.732   1.872
66517W        W38133   3.897  41.392   3.199
66518W        W38134  38.125  41.829   0.783
66519W        W38135   7.758  15.844   3.177
66520W        W38136   7.247   3.320  11.626
66521W        W38137  31.007  32.059  14.353
66522W        W38138   5.245   9.418   1.940
66523W        W38139  44.359  37.085   1.431
66524W        W38140  20.329  23.349  14.002
66525W        W38141  42.695  23.711   0.213
66526W        W38142  21.578  24.646  11.600
66527W        W38143  14.816  28.025  10.787
66528W        W38144  26.620  11.357   2.611
66529W        W38145   3.775  11.346   1.017
66530W        W38146  43.582  32.585   1.903
66531W        W38147  13.852  17.388  10.660
66532W        W38148   3.948  29.199  10.710
66533W        W38149  18.280  22.666  13.042
66534W        W38150  21.498  21.677  11.493
66535W        W38151  39.501  25.143   1.751
66536W        W38152  11.127  32.992   4.065
66537W        W38153  15.539  23.927  13.522
66538W        W38154  28.726   7.153  13.841
66539W        W38155  15.517  40.370  11.847
66540W        W38156  26.120   4.303  12.612
66541W        W38157  14.579  10.156   1.044
66542W        W38158  40.082  11.751   1.791
66543W        W38159  17.290  39.361  11.105
66544W        W38160  29.831  26.915   5.078
66545W        W38161  31.389  19.240  12.070
66546W        W38162  34.070   4.965   2.408
66547W        W38163  10.069  32.038   1.395
66548W        W38164  29.636  29.075   0.865
66549W        W38165   5.571  22.101   2.247
66550W        W38166  34.554  35.960   3.860
66551W        W38167  29.806  18.848   0.963
66552W        W38168  16.291  36.049  13.376
66553W        W38169  25.982  39.677   3.720
66554W        W38170  39.826  35.486   3.773
66555W        W38171  29.167  11.646  12.487
66556W        W38172  40.994   5.740   2.863
66557W        W38173  31.194  43.809   3.303
66558W        W38174  10.197  32.916   4.139
66559W        W38175  14.019   5.217  13.895
66560W        W38176  15.671  16.716  14.844
66561W        W38177  32.992  28.913   4.846
66562W        W38178  24.024  44.753  12.884
66563W        W38179  10.055  40.031  13.062
66564W        W38180  17.383  43.892  10.857
66565W        W38181  38.982   0.499   1.135
66566W        W38182   1.054  27.175  11.525
66567W        W38183  33.320  43.515   1.882
66568W        W38184  21.577   5.953  12.676
66569W        W38185  14.845  44.566   2.467
66570W        W38186  44.007  38.085   0.706
66571W        W38187  31.138  36.399   3.091
66572W        W38188  25.214  16.980   3.192
66573W        W38189  13.032  22.636  13.330
66574W        W38190  35.370  38.477   2.349
66575W        W38191  10.039  43.127  10.981
66576W        W38192  41.125  22.633   0.617
66577W        W38193  17.245  37.511  13.853
66578W        W38194  32.123   8.518   3.546
66579W        W38195  30.673  31.430  13.339
66580W        W38196  20.100  13.668  12.978
66581W        W38197  40.948  27.619  14.767
66582W        W38198  22.079   9.258   1.157
66583W        W38199  23.968  41.232  14.313
66584W        W38200  33.228  34.378   3.297
66585W        W38201  16.464   5.726  12.861
66586W        W38202  26.106  36.415   0.931
66587W        W38203  21.506  35.786  12.475
66588W        W38204   1.492  40.505   3.064
66589W        W38205   3.684   7.761  14.553
66590W        W38206  29.954  27.824  14.331
66591W        W38207  24.467  43.506  11.096
66592W        W38208  29.989  23.514  11.536
66593W        W38209  23.655   3.321   1.390
66594W        W38210  23.931   7.028   0.732
66595W        W38211  41.557   5.713  12.812
66596W        W38212   9.224  23.529  12.282
66597W        W38213  21.453   7.802  13.412
66598W        W38214  19.567  34.016   3.708
66599W        W38215  32.602  41.029   4.946
66600W        W38216  11.993  40.350   4.790
66601W        W38217  32.184  11.119   3.292
66602W        W38218   5.612   8.442   3.682
66603W        W38219  35.758  26.461   3.998
66604W        W38220  44.005  23.717   0.738
66605W        W38221  44.614  12.341  10.983
66606W        W38222   7.202  12.604  12.376
66607W        W38223   5.091   3.536   3.773
66608W        W38224  32.471  17.560   2.926
66609W        W38225  41.565  14.333   1.780
66610W        W38226   7.438  33.586   0.943
66611W        W38227  13.222  42.349  12.465
66612W        W38228  15.786  18.679   5.022
66613W        W38229   8.455   5.335  13.104
66614W        W38230  30.147  40.846  13.577
66615W        W38231   2.970  22.999  13.000
66616W        W38232  32.155  13.264  12.904
66617W        W38233  23.823   7.841   2.784
66618W        W38234  12.180   5.268  14.407
66619W        W38235   5.071  36.484   1.660
66620W        W38236   8.169  31.019   3.984
66621W        W38237  36.989   6.159   3.065
66622W        W38238   8.292  42.399  11.119
66623W        W38239   6.548   3.141  13.369
66624W        W38240  34.607  25.694   1.366
66625W        W38241  38.793   0.913  13.916
66626W        W38242  26.759  18.371  12.133
66627W        W38243  33.881  26.899  10.640
66628W        W38244   0.182  44.724  14.121
66629W        W38245  19.172   7.479  10.982
66630W        W38246  36.931  13.060  12.036
66631W        W38247  44.475   3.396   2.559
66632W        W38248  19.840   6.868   3.681
66633W        W38249  36.312  30.737  10.364
66634W        W38250   4.650  13.838   1.397
66635W        W38251  14.573   6.634  12.285
66636W        W38252   6.875  11.422  10.496
66637W        W38253  41.412  38.982   0.681
66638W        W38254  29.660   3.516   4.221
66639W        W38255  42.535  40.313  14.835
66640W        W38256  32.007  39.339   2.312
66641W        W38257   1.260  40.525  13.319
66642W        W38258   1.964  13.137   0.005
66643W        W38259   7.161  22.173  14.313
66644W        W38260  41.981  20.096  13.405
66645W        W38261  18.343  35.921  10.277
66646W        W38262   9.907  10.446   1.936
66647W        W38263  14.747  41.966  14.580
66648W        W38264   3.261  36.045  13.813
66649W        W38265   9.721  37.900   3.408
66650W        W38266  17.774  34.324   0.339
66651W        W38267  28.231   0.471  11.063
66652W        W38268  17.637  34.521  14.795
66653W        W38269  43.355   7.448  10.684
66654W        W38270  13.025   2.436   2.742
66655W        W38271  36.809  13.868   1.647
66656W        W38272  10.637  11.835  13.382
66657W        W38273  10.301  35.988   4.741
66658W        W38274  33.715  16.897   9.887
66659W        W38275   2.776  19.538  13.332
66660W        W38276  29.036  43.789   1.804
66661W        W38277  19.202  22.609  10.753
66662W        W38278   5.480  38.673   1.332
66663W        W38279  32.512   1.874  11.032
66664W        W38280   7.928  30.667   0.785
66665W        W38281  28.957  22.121   0.218
66666W        W38282  37.825   2.370  14.341
66667W        W38283   5.873  10.706   1.686
66668W        W38284  29.114  10.373  13.350
66669W        W38285  24.255  43.027   0.907
66670W        W38286  33.962  24.620   2.353
66671W        W38287  19.111  40.775  12.672
66672W        W38288  25.511   7.117  11.965
66673W        W38289  11.490   3.780  11.183
66674W        W38290   2.963   4.192  12.497
66675W        W38291  43.218   6.332   2.623
66676W        W38292  41.834  24.963  11.496
66677W        W38293  37.321  29.887  11.153
66678W        W38294  42.524  31.161   1.237
66679W        W38295   3.611  35.941   1.272
66680W        W38296  17.686   2.929   3.283
66681W        W38297  43.736  11.132   4.467
66682W        W38298   8.249  43.005   0.206
66683W        W38299   8.938  43.337  13.321
66684W        W38300  21.052  12.768   0.760
66685W        W38301  27.973  36.910  10.770
66686W        W38302  44.888  19.000   0.323
66687W        W38303  42.306   9.300  10.608
66688W        W38304  26.714  32.921   1.386
66689W        W38305   1.454  16.221  13.309
66690W        W38306   2.273   2.989  11.707
66691W        W38307  40.992  33.939   1.872
66692W        W38308  26.392  34.997   0.936
66693W        W38309  35.607  29.447  13.992
66694W        W38310  44.512  42.169   2.880
66695W        W38311  14.901  27.722  14.444
66696W        W38312  27.716  10.749  14.751
66697W        W38313   0.703  30.955  10.874
66698W        W38314   4.820   1.824   3.173
66699W        W38315  15.369  36.026   0.286
66700W        W38316   6.425  44.331  12.553
66701W        W38317   6.191  25.192   2.236
66702W        W38318   7.463   9.742  14.496
66703W        W38319  10.738   5.927   4.667
66704W        W38320   3.780  14.230  11.974
66705W        W38321   2.483  27.004   0.751
66706W        W38322  30.870  40.356  13.425
66707W        W38323  12.688  26.432  12.867
66708W        W38324  22.009  15.802  13.309
66709W        W38325  44.800  12.890  13.089
66710W        W38326  37.411  33.457  14.069
66711W        W38327   1.388  28.207   1.329
66712W        W38328   3.878  39.777   2.287
66713W        W38329  43.266  12.737   3.845
66714W        W38330   0.410  28.487  13.431
66715W        W38331   5.769   4.902   0.393
66716W        W38332  40.307   8.245   1.351
66717W        W38333  32.815  28.948  13.548
66718W        W38334  27.006   9.607  14.049
66719W        W38335  31.620  17.753   1.800
66720W        W38336  14.068  37.515  13.404
66721W        W38337  39.871  11.247   0.275
66722W        W38338  23.119   8.376  11.212
66723W        W38339  19.839  22.656  13.933
66724W        W38340  10.511  44.981  13.556
66725W        W38341  13.883  17.747  11.071
66726W        W38342  23.030  29.066  13.774
66727W        W38343  28.899   1.175   0.215
66728W        W38344  39.514  40.300   1.194
66729W        W38345  28.530  21.519  12.029
66730W        W38346   8.696  43.311   0.086
66731W        W38347  40.592  28.912   1.735
66732W        W38348  16.223  32.497  13.876
66733W        W38349   5.950  18.265   2.749
66734W        W38350  21.185  31.964  12.616
66735W        W38351  27.267  30.882  14.827
66736W        W38352   2.180  39.715  11.230
66737W        W38353  40.426  44.280   2.196
66738W        W38354  22.434   5.903  10.763
66739W        W38355   3.179  31.067   3.661
66740W        W38356  34.075   5.630   0.386
66741W        W38357  38.756  16.711  14.053
66742W        W38358   3.685  12.119  13.017
66743W        W38359  11.218  26.709  14.515
66744W        W38360  41.976   0.431  14.506
66745W        W38361  13.807  20.711  13.790
66746W        W38362   5.781  27.918   1.867
66747W        W38363   1.839  30.533   1.173
66748W        W38364   0.956  26.992  11.031
66749W        W38365  38.510  34.032  12.126
66750W        W38366  44.833  13.850  13.268
66751W        W38367  28.524  31.710   0.144
66752W        W38368  34.087  23.244  13.508
66753W        W38369  36.645  37.276  12.443
66754W        W38370  37.997  43.987   0.990
66755W        W38371  30.725  32.976   1.396
66756W        W38372  36.618  26.758   4.156
66757W        W38373  36.276  25.685  12.097
66758W        W38374  16.054  14.895   0.376
66759W        W38375   3.730   2.419   2.874
66760W        W38376  24.558  25.377  14.082
66761W        W38377  13.215  36.476  14.268
66762W        W38378  17.351   1.963  12.971
66763W        W38379  36.466  13.725   4.393
66764W        W38380  42.397  41.385   4.578
66765W        W38381  14.765  23.518  13.672
66766W        W38382  12.197  27.318  10.651
66767W        W38383  34.868  25.459  10.722
66768W        W38384  40.786  19.344   2.208
66769W        W38385   6.109  11.187  13.389
66770W        W38386  26.354  12.197  12.456
66771W        W38387  26.459  41.520  10.633
66772W        W38388  29.933  15.536   4.185
66773W        W38389  36.676  41.791   0.723
66774W        W38390  44.541  29.556   3.774
66775W        W38391   4.787  23.738   1.809
66776W        W38392  20.880   1.755   1.350
66777W        W38393   0.824   3.581  10.813
66778W        W38394  17.135  16.005   4.688
66779W        W38395  33.808  26.889  11.643
66780W        W38396  27.610  18.633   4.893
66781W        W38397  42.504  29.923   4.645
66782W        W38398   5.910  14.207  12.126
66783W        W38399  13.134   7.030   4.088
66784W        W38400  35.564  12.743   0.732
66785W        W38401  29.803  34.738   1.543
66786W        W38402   2.732   1.284  10.599
66787W        W38403  41.670   6.832  11.480
66788W        W38404  26.976   1.938   1.129
66789W        W38405  29.405  32.444   4.459
66790W        W38406  14.800  35.921   5.305
66791W        W38407  25.891  18.712   3.353
66792W        W38408  13.491  35.874  11.729
66793W        W38409  35.405   8.922   0.159
66794W        W38410  34.945   5.051  11.579
66795W        W38411  34.964  43.533   0.323
66796W        W38412   5.270   7.645   1.285
66797W        W38413  26.973  26.646  10.730
66798W        W38414  21.991  42.580   4.461
66799W        W38415   0.993  38.429   0.901
66800W        W38416  36.139  18.547   3.194
66801W        W38417  34.634  29.646  13.829
66802W        W38418   3.377  35.071  13.299
66803W        W38419  30.091  22.789   4.356
66804W        W38420  34.290   7.471  12.866
66805W        W38421  30.622   3.997   2.764
66806W        W38422  11.396  17.000  11.962
66807W        W38423  40.030  30.987  11.976
66808W        W38424  26.094  36.120   1.371
66809W        W38425   2.670  31.191  12.497
66810W        W38426  11.390  27.515  14.119
66811W        W38427  32.963   8.423  13.347
66812W        W38428  15.115  20.654  12.497
66813W        W38429  22.213  31.045   1.845
66814W        W38430   9.202  15.870   1.282
66815W        W38431  41.781  19.195   2.196
66816W        W38432  28.615  19.114  14.412
66817W        W38433  19.552   2.421  12.676
66818W        W38434  23.020  33.563   1.901
66819W        W38435  14.295   2.003  10.705
66820W        W38436   1.795  14.606   4.074
66821W        W38437  26.564  15.751   2.707
66822W        W38438  22.834  24.972   1.073
66823W        W38439  22.227  44.321  12.431
66824W        W38440  11.101  39.119  12.246
66825W        W38441   4.007  23.973   5.077
66826W        W38442   2.320  16.274  13.776
66827W        W38443  17.843   7.509   3.051
66828W        W38444  38.972  23.530   0.988
66829W        W38445   3.712  39.010  10.660
66830W        W38446  40.348  28.597  11.567
66831W        W38447  37.466  41.577   0.471
66832W        W38448   0.971  32.375  11.624
66833W        W38449  41.843  30.631   3.246
66834W        W38450  29.517  18.146   1.749
66835W        W38451   5.135   8.701   4.117
66836W        W38452  31.540  25.669   1.429
66837W        W38453  34.502  18.907   4.552
66838W        W38454  11.795  36.159  12.223
66839W        W38455  35.514  34.979   1.019
66840W        W38456  30.062  40.340   0.917
66841W        W38457  28.662  12.808  11.600
66842W        W38458  40.814  18.867  13.588
66843W        W38459  15.531  19.153  13.674
66844W        W38460  30.849  37.440   2.253
66845W        W38461  24.698  37.056   2.730
66846W        W38462  24.608  28.590  14.389
66847W        W38463  18.706  12.664   4.146
66848W        W38464   8.996   9.190   4.600
66849W        W38465  24.910  20.187   0.213
66850W        W38466   3.470  29.371   1.442
66851W        W38467  37.354   0.621  12.853
66852W        W38468  32.410  24.430   2.575
66853W        W38469   7.216  44.555   0.779
66854W        W38470   3.332  40.043  12.595
66855W        W38471   3.676  27.998  13.140
66856W        W38472  17.226  36.914  14.574
66857W        W38473   1.505  18.412   0.767
66858W        W38474  36.839  34.831  11.604
66859W        W38475  29.746  36.359   3.304
66860W        W38476  11.346  14.247   0.424
66861W        W38477  39.222   0.033   3.721
66862W        W38478  40.991  10.162  12.331
66863W        W38479  26.163  26.134   0.205
66864W        W38480  31.694  11.378  13.314
66865W        W38481  17.952  41.425   4.759
66866W        W38482  39.088  25.293  12.962
66867W        W38483  37.482   2.847  12.726
66868W        W38484  13.166   8.357  10.696
66869W        W38485  15.758  13.137   0.929
66870W        W38486  36.428  37.623  13.318
66871W        W38487   8.021   1.158  11.636
66872W        W38488  37.588  12.749  12.052
66873W        W38489  33.593  27.368  12.397
66874W        W38490  14.506  30.886   1.977
66875W        W38491  19.287  34.923  14.771
66876W        W38492  29.589  37.440  14.486
66877W        W38493  27.489  11.450  10.579
66878W        W38494  15.790  40.845   1.976
66879W        W38495  32.560  31.195   3.142
66880W        W38496  43.673   7.234  10.282
66881W        W38497  20.310  26.514  13.842
66882W        W38498   4.333   9.826  14.571
66883W        W38499  41.766  43.198   0.269
66884W        W38500  20.471  26.929   4.621
66885W        W38501   3.831   1.457   3.194
66886W        W38502  35.377  13.956   2.251
66887W        W38503  26.002   8.391   4.656
66888W        W38504  30.698  23.800  14.183
66889W        W38505  37.831  32.239   0.546
66890W        W38506  25.478   6.427  11.185
66891W        W38507  38.062  32.090   3.738
66892W        W38508   5.777   8.682   0.875
66893W        W38509  21.598  27.397  12.021
66894W        W38510   0.759  34.996  11.559
66895W        W38511  34.604  10.362  11.966
66896W        W38512  22.260  14.835   3.717
66897W        W38513  33.644  18.641   0.880
66898W        W38514  26.675  19.997  11.137
66899W        W38515  27.071  17.064   1.851
66900W        W38516  43.698  42.980   0.353
66901W        W38517  36.923  30.228  14.732
66902W        W38518  37.314  35.056  12.935
66903W        W38519   3.575  38.431   3.443
66904W        W38520  25.060  43.393   1.467
66905W        W38521  22.035  18.677  10.899
66906W        W38522  42.254  26.070   2.477
66907W        W38523   8.612   4.828  14.101
66908W        W38524   6.837   2.808   4.574
66909W        W38525  35.559   2.667  13.073
66910W        W38526  40.543  10.195   3.587
66911W        W38527  22.087   9.351  12.037
66912W        W38528  16.123  15.786   2.417
66913W        W38529  39.463  19.610  11.701
66914W        W38530  24.964  23.694   4.386
66915W        W38531  13.372  25.426  12.581
66916W        W38532  40.464  34.600   2.961
66917W        W38533  40.424   0.775   3.283
66918W        W38534  36.909  20.369  11.928
66919W        W38535   9.261   7.116   1.708
66920W        W38536  25.765  11.703  13.870
66921W        W38537  26.021   1.731   4.183
66922W        W38538   6.911  13.190  12.040
66923W        W38539  40.521  44.861   1.314
66924W        W38540  33.378  21.199   4.030
66925W        W38541   7.192  22.209   0.239
66926W        W38542   6.632  25.462  12.413
66927W        W38543  15.206  23.676   2.864
66928W        W38544   4.521  35.493   1.406
66929W        W38545  25.122  37.905   1.424
66930W        W38546  31.159  26.932   9.926
66931W        W38547  11.644   7.209  11.199
66932W        W38548   7.179  15.812  12.537
66933W        W38549  32.731  35.753  13.812
66934W        W38550  37.742  22.507  13.495
66935W        W38551  11.908   0.926  10.717
66936W        W38552  40.496  28.097   4.056
66937W        W38553  41.812   8.490  10.684
66938W        W38554  43.332  20.578   3.334
66939W        W38555  17.040  38.939   2.876
66940W        W38556   0.985  18.725  11.697
66941W        W38557  22.471   2.765  13.502
66942W        W38558  12.229  33.653   9.972
66943W        W38559  32.732   0.426  13.030
66944W        W38560  23.614   3.991   2.149
66945W        W38561  36.583   9.586  10.560
66946W        W38562  39.064  37.048   1.672
66947W        W38563  43.028  39.887  10.871
66948W        W38564   0.389  41.745  14.066
66949W        W38565  38.041   3.492   2.302
66950W        W38566  16.176  35.895   3.646
66951W        W38567  15.323  40.333   0.945
66952W        W38568  24.632  27.530   0.923
66953W        W38569   3.398  25.158   1.284
66954W        W38570  37.386  37.815  14.320
66955W        W38571  25.410   5.943  13.946
66956W        W38572  23.005  32.053   3.225
66957W        W38573   2.337   9.220   1.273
66958W        W38574  27.667  37.034  13.234
66959W        W38575  23.137  22.134  10.696
66960W        W38576   0.393  16.534   1.228
66961W        W38577  39.802  40.492  14.108
66962W        W38578  20.052   0.302   2.387
66963W        W38579  22.236  32.759   2.634
66964W        W38580   6.157  31.331  14.108
66965W        W38581  34.411  23.141  14.472
66966W        W38582  38.629  34.611   3.177
66967W        W38583  38.473  39.032   0.821
66968W        W38584  26.420  33.488  12.777
66969W        W38585   7.633  33.483  14.006
66970W        W38586  39.283  36.504   4.130
66971W        W38587  39.416  34.872   0.408
66972W        W38588  13.184  19.165  12.051
66973W        W38589  31.136  13.478  11.578
66974W        W38590  33.945   9.728   3.361
66975W        W38591  27.864  21.873   2.881
66976W        W38592  24.463  22.999   1.806
66977W        W38593  33.263  39.705   5.170
66978W        W38594   0.982  39.016  14.349
66979W        W38595  30.359  21.084   1.489
66980W        W38596  16.684  11.650   4.367
66981W        W38597  34.082  24.342   3.664
66982W        W38598  25.281  13.328  10.817
66983W        W38599  20.793  30.624   3.335
66984W        W38600  41.056  33.041   0.453
66985W        W38601  33.915   1.485   4.453
66986W        W38602  38.854  38.946   4.621
66987W        W38603   2.466  13.148   4.166
66988W        W38604   3.974  41.001   0.252
66989W        W38605  28.373   3.885  14.555
66990W        W38606   1.400  14.132  11.681
66991W        W38607  25.235   5.841   4.524
66992W        W38608  19.751   4.699   4.737
66993W        W38609   6.625  28.345  12.967
66994W        W38610  40.355  37.344   1.829
66995W        W38611   7.920  28.384  10.994
66996W        W38612  34.323  20.318   4.335
66997W        W38613  21.576  29.394   0.460
66998W        W38614   4.713   3.174   3.806
66999W        W38615  38.881  26.668   3.174
67000W        W38616   5.729   1.846  13.466
67001W        W38617  33.987  16.226   1.830
67002W        W38618  26.422  24.230   1.819
67003W        W38619  35.379  22.962  11.158
67004W        W38620  38.278   9.940  13.376
67005W        W38621  42.490  28.510   2.028
67006W        W38622  18.631  40.949   4.312
67007W        W38623  42.226  15.366  12.338
67008W        W38624  21.681  37.271   0.797
67009W        W38625  37.151   1.823   0.522
67010W        W38626  10.929  12.515  12.919
67011W        W38627   6.309  37.534   1.803
67012W        W38628   5.568  16.358   2.707
67013W        W38629  17.633   2.430  13.857
67014W        W38630   9.307  37.409  11.461
67015W        W38631  35.565  15.120   0.697
67016W        W38632   4.810  29.457   4.850
67017W        W38633  21.010  26.190  10.286
67018W        W38634  38.839   9.500   0.900
67019W        W38635  20.000  12.410   2.611
67020W        W38636  32.512  23.462   4.136
67021W        W38637  10.497  39.213   1.633
67022W        W38638  31.657  42.192  11.581
67023W        W38639  13.915  15.711  13.331
67024W        W38640  39.356   1.782  14.895
67025W        W38641  15.766  23.010  14.402
67026W        W38642  25.755  44.935  13.187
67027W        W38643  24.765  31.111  12.084
67028W        W38644  22.569  14.588   2.232
67029W        W38645  14.512  28.953   3.750
67030W        W38646   0.022   4.077   2.384
67031W        W38647  17.943  33.564  12.760
67032W        W38648  39.852  16.107  13.983
67033W        W38649  27.676   5.246   3.716
67034W        W38650  28.194  41.841  11.132
67035W        W38651  15.912  20.610   4.711
67036W        W38652  25.729  34.784   2.802
67037W        W38653   1.615  22.075   5.625
67038W        W38654  22.814  11.373  13.891
67039W        W38655  41.522   1.726  12.996
67040W        W38656  11.314  40.339  13.486
67041W        W38657  19.561   9.878  13.558
67042W        W38658  29.969  11.346   3.276
67043W        W38659  42.319  31.806  13.955
67044W        W38660  26.950   9.304   0.815
67045W        W38661  39.434  16.067   3.381
67046W        W38662  28.485   4.633   2.419
67047W        W38663   9.747   5.173   2.934
67048W        W38664  26.584  28.606   1.462
67049W        W38665  12.960  22.589   2.965
67050W        W38666  19.149  43.556   5.599
67051W        W38667  24.265  38.581  11.027
67052W        W38668  26.082  33.156   1.320
67053W        W38669   7.212  41.726   0.359
67054W        W38670   7.281  21.985   1.867
67055W        W38671  38.514  20.019   3.330
67056W        W38672  23.125  18.232   1.937
67057W        W38673   5.475  21.798   4.462
67058W        W38674  20.201   3.257   1.450
67059W        W38675  24.957  31.456  13.968
67060W        W38676   2.418  27.557  11.485
67061W        W38677  26.020  40.970  11.682
67062W        W38678   3.243  22.617   1.826
67063W        W38679   9.336  29.579   3.351
67064W        W38680   2.408  39.362   4.185
67065W        W38681  18.523  41.290   1.263
67066W        W38682  30.042  22.534   3.749
67067W        W38683  31.120  41.431   1.347
67068W        W38684   7.347  19.073  10.692
67069W        W38685  40.473  15.958  10.277
67070W        W38686  44.414  27.633  11.438
67071W        W38687  40.934   6.910   1.809
67072W        W38688  37.054  15.506   4.218
67073W        W38689  39.052  19.142  11.118
67074W        W38690  14.159  14.148  14.994
67075W        W38691  22.550  21.611  11.174
67076W        W38692   3.280  44.981  11.137
67077W        W38693   0.363  31.566   2.333
67078W        W38694  38.441  21.019   3.259
67079W        W38695   7.485  16.561  12.020
67080W        W38696  31.223   0.408  13.084
67081W        W38697  36.679  10.816   2.803
67082W        W38698  17.268  12.388   2.738
67083W        W38699  30.292  17.077  14.333
67084W        W38700  22.392  43.289   4.165
67085W        W38701  12.276  44.056  10.928
67086W        W38702  31.998  25.008   2.637
67087W        W38703  15.233  24.658  14.316
67088W        W38704  12.747  42.000   3.737
67089W        W38705  24.475   2.382   0.062
67090W        W38706  24.018   4.963  11.640
67091W        W38707  29.192  37.281   2.632
67092W        W38708  39.948  13.424   0.260
67093W        W38709  20.037  14.835  12.944
67094W        W38710   8.461  10.178   4.153
67095W        W38711   3.204  39.390  14.308
67096W        W38712  24.056   4.419  13.375
67097W        W38713  25.194  42.382   2.935
67098W        W38714   9.093  43.849  13.300
67099W        W38715  28.475  22.458  14.530
67100W        W38716  17.625  11.806   4.832
67101W        W38717  16.039  23.074  12.934
67102W        W38718  14.096  24.708  11.387
67103W        W38719  27.035  17.542  13.106
67104W        W38720  38.583  24.106   0.292
67105W        W38721  17.570  37.023  10.965
67106W        W38722  13.388  20.165  12.744
67107W        W38723  21.597  37.918  14.394
67108W        W38724  24.045  30.698  11.725
67109W        W38725   9.654  38.846  13.642
67110W        W38726  30.599   8.156   2.275
67111W        W38727  41.846  44.389   5.117
67112W        W38728  32.159  36.390   1.892
67113W        W38729  27.662  13.593   0.902
67114W        W38730  17.733  20.261  10.602
67115W        W38731  37.859  19.284   2.271
67116W        W38732   7.442  22.083  13.287
67117W        W38733  39.048  11.904  11.008
67118W        W38734   9.282  29.587  12.866
67119W        W38735   5.374  13.167   4.404
67120W        W38736  14.713  43.826   2.253
67121W        W38737  36.232   6.206   0.824
67122W        W38738  20.152  20.602  13.866
67123W        W38739  36.754  20.598  14.404
67124W        W38740  24.740  32.812  12.783
67125W        W38741  22.831  20.222   0.135
67126W        W38742  22.201  42.835   0.955
67127W        W38743   4.038  43.854  14.120
67128W        W38744  26.024  43.432  14.177
67129W        W38745  39.413  22.814   1.231
67130W        W38746  23.742  35.417   0.905
67131W        W38747  26.105   5.346   2.152
67132W        W38748   9.194  22.576   0.841
67133W        W38749  21.755   7.316   1.309
67134W        W38750  35.986   1.490  11.910
67135W        W38751  38.976   6.375  12.388
67136W        W38752   5.378   9.408  11.434
67137W        W38753  28.389   7.711   1.317
67138W        W38754  33.478   3.353   2.730
67139W        W38755  25.049  34.333  10.643
67140W        W38756   8.656  16.315  12.025
67141W        W38757  10.777  16.325  14.408
67142W        W38758  17.320   0.929  12.588
67143W        W38759  27.211   4.949   4.581
67144W        W38760   5.017   8.032   5.191
67145W        W38761  10.668  38.252   1.855
67146W        W38762  18.250  29.921   2.253
67147W        W38763  13.145  44.875  11.862
67148W        W38764  31.650  22.478   1.304
67149W        W38765  16.986  28.391   1.989
67150W        W38766  29.299  21.546  11.551
67151W        W38767  21.617   7.617   3.273
67152W        W38768  28.788   5.483   2.096
67153W        W38769   1.893  39.372  10.461
67154W        W38770  36.477   1.970  10.829
67155W        W38771  19.011   1.304  11.128
67156W        W38772   7.664  34.084   4.667
67157W        W38773  36.677  34.941  12.384
67158W        W38774  18.586  26.176   4.343
67159W        W38775  14.107  10.284  12.461
67160W        W38776  25.143  40.946   4.760
67161W        W38777   4.186  10.558  10.664
67162W        W38778   1.480  18.826   4.480
67163W        W38779  25.476   5.389   0.939
67164W        W38780  16.073  17.073   2.643
67165W        W38781  16.769  43.403   4.051
67166W        W38782  12.072  28.834  10.696
67167W        W38783  44.716  31.924  13.849
67168W        W38784  34.034  17.638  10.676
67169W        W38785  42.685  20.508   4.151
67170W        W38786  15.628  19.770  11.907
67171W        W38787  35.960  15.747   9.939
67172W        W38788  31.989   3.794  13.405
67173W        W38789  32.992  23.783   2.023
67174W        W38790  13.362  41.983   3.263
67175W        W38791  23.263  20.870  14.609
67176W        W38792  33.239  35.529  14.494
67177W        W38793  16.296  34.995  10.569
67178W        W38794  29.655  15.284   0.386
67179W        W38795  30.976  22.290  10.687
67180W        W38796  13.393  24.933   1.409
67181W        W38797  11.677  42.923   0.848
67182W        W38798  15.606  42.415   5.032
67183W        W38799  26.940  17.142  12.434
67184W        W38800  31.192  37.000  11.191
67185W        W38801  42.408  15.233  12.818
67186W        W38802  34.639  13.787  12.199
67187W        W38803   4.784  30.504  10.173
67188W        W38804   4.249   5.364  13.678
67189W        W38805  15.420  13.240  11.150
67190W        W38806  17.268  34.332  13.863
67191W        W38807   8.226   0.344  11.962
67192W        W38808  22.517  42.445  13.035
67193W        W38809  21.794  20.255  14.944
67194W        W38810   5.157  34.031  12.085
67195W        W38811  21.601  43.528   3.319
67196W        W38812   4.775  39.852  12.533
67197W        W38813  42.886  29.403  12.293
67198W        W38814  18.772  21.162  14.903
67199W        W38815  44.784   8.361   5.026
67200W        W38816   8.951  44.840  12.098
67201W        W38817  42.873   3.381  14.430
67202W        W38818   9.889  43.947   4.279
67203W        W38819  38.291  43.686   4.036
67204W        W38820  27.584  18.241  11.521
67205W        W38821  38.052  12.760  14.414
67206W        W38822  31.410   6.312  12.058
67207W        W38823   4.187  29.088  11.153
67208W        W38824   9.878  44.180  13.407
67209W        W38825   0.013  37.008   0.485
67210W        W38826  24.196  34.979  13.540
67211W        W38827  29.394  27.169   4.382
67212W        W38828  25.905  17.812   1.501
67213W        W38829  10.173   2.305   4.608
67214W        W38830  10.327  25.132  10.961
67215W        W38831  40.804  19.242  11.755
67216W        W38832  16.592  44.805  14.320
67217W        W38833  22.957  11.363  10.808
67218W        W38834  36.556  22.504   2.304
67219W        W38835  30.661   5.744  11.552
67220W        W38836  32.512  10.197  14.480
67221W        W38837  42.533  20.829  14.290
67222W        W38838   4.660  13.119   2.823
67223W        W38839   0.793  13.473   4.654
67224W        W38840  32.453   9.665  10.960
67225W        W38841  22.485  31.050   3.593
67226W        W38842   1.517   9.523   1.787
67227W        W38843   5.851  24.274  11.310
67228W        W38844  38.391  35.422  13.786
67229W        W38845  40.198   3.247   4.090
67230W        W38846  15.665  27.579   1.684
67231W        W38847  31.328  24.473  11.470
67232W        W38848  33.964  44.887  12.161
67233W        W38849  12.137  36.243  13.455
67234W        W38850  10.228   0.633   4.579
67235W        W38851  26.611  40.354   0.817
67236W        W38852  28.933   0.852   4.588
67237W        W38853   0.295  16.038  11.824
67238W        W38854  15.126  44.820   0.499
67239W        W38855  11.680  36.064   4.273
67240W        W38856  25.953   6.659  11.171
67241W        W38857   2.988  19.654   0.306
67242W        W38858  20.147  22.095   1.874
67243W        W38859   0.384  24.039  13.475
67244W        W38860  40.628  44.325   2.708
67245W        W38861  28.468   7.976   0.616
67246W        W38862  20.459  21.139   0.950
67247W        W38863  25.411  33.769   0.869
67248W        W38864  35.638   4.330   0.316
67249W        W38865  24.649   0.847  14.199
67250W        W38866  33.166  40.914  14.444
67251W        W38867  32.961  35.532   4.642
67252W        W38868  20.742   9.042   3.932
67253W        W38869  18.700  41.384   2.547
67254W        W38870  24.204  23.009  13.185
67255W        W38871  24.663  10.504   3.378
67256W        W38872   4.814  42.913   3.294
67257W        W38873   2.328  34.766  14.052
67258W        W38874  10.896  25.072  11.161
67259W        W38875   4.318  32.902  10.753
67260W        W38876   1.780  29.608  10.815
67261W        W38877  13.303  13.060   0.246
67262W        W38878  19.991  18.700   2.150
67263W        W38879  40.875   7.301   2.809
67264W        W38880   8.345  28.057  11.033
67265W        W38881  41.001  39.549  11.671
67266W        W38882   8.229  11.093   0.055
67267W        W38883  19.835  26.139   0.234
67268W        W38884   2.392  19.712  12.013
67269W        W38885  25.688  43.420   3.708
67270W        W38886  28.560  27.694   2.417
67271W        W38887  15.071   8.423  11.585
67272W        W38888  11.498  21.806   1.783
67273W        W38889  43.878  18.337  13.332
67274W        W38890  21.996   0.995   3.135
67275W        W38891  15.719   0.719   4.046
67276W        W38892  40.319   5.382  13.669
67277W        W38893   5.514  25.152   2.647
67278W        W38894  39.847  12.886   3.149
67279W        W38895  20.760  40.832   4.917
67280W        W38896  28.071  15.533  13.997
67281W        W38897  36.457  41.311  14.585
67282W        W38898  13.615  12.268  13.117
67283W        W38899  40.884  28.463  10.724
67284W        W38900  34.465  36.825  10.715
67285W        W38901  24.729   6.847   3.430
67286W        W38902  35.377   9.149  10.741
67287W        W38903  28.973  21.487  10.679
67288W        W38904   0.971  27.936  10.168
67289W        W38905  16.041  24.117   0.550
67290W        W38906  13.445  28.808  10.019
67291W        W38907  39.691  14.584   3.720
67292W        W38908  39.342  32.015  13.356
67293W        W38909  27.875  39.387  10.528
67294W        W38910  34.926   4.797  10.183
67295W        W38911  32.670  25.639  14.019
67296W        W38912  21.482  24.428   3.653
67297W        W38913  36.646  35.870  11.983
67298W        W38914  37.997  43.479   3.213
67299W        W38915  26.006  23.060   0.864
67300W        W38916  14.245   7.171  13.911
67301W        W38917  44.467  38.339   4.529
67302W        W38918  18.840  39.304   1.220
67303W        W38919  17.293  30.901  11.159
67304W        W38920  38.998  12.635  14.647
67305W        W38921  14.020  21.487   4.567
67306W        W38922  31.572  38.728   3.563
67307W        W38923  42.372  22.925   2.381
67308W        W38924  15.102   5.081   0.748
67309W        W38925  24.012  26.445   9.898
67310W        W38926  43.455  29.034   3.628
67311W        W38927  22.805  19.787   2.765
67312W        W38928  39.102  43.477  14.604
67313W        W38929   3.010  28.030  14.785
67314W        W38930  40.521   5.755   1.397
67315W        W38931   8.108  26.092  14.990
67316W        W38932  15.274   1.979  12.312
67317W        W38933  19.541   2.044  11.153
67318W        W38934  15.808  31.799  13.231
67319W        W38935  43.425   1.537   1.673
67320W        W38936   4.231  11.231  12.872
67321W        W38937  28.169   4.015  11.148
67322W        W38938   8.885  10.183   2.662
67323W        W38939  21.136  35.403  10.605
67324W        W38940  11.736  31.029  14.973
67325W        W38941  12.440  11.633   2.450
67326W        W38942  10.080  41.978  13.596
67327W        W38943   3.647  39.922   4.479
67328W        W38944   2.016  19.731  10.617
67329W        W38945   0.256  11.340  12.428
67330W        W38946  33.747  12.164   4.964
67331W        W38947   0.895   6.363   2.565
67332W        W38948   5.443  29.978  13.551
67333W        W38949  35.465  29.077   2.905
67334W        W38950  34.978  22.603  14.807
67335W        W38951  35.934  26.941  14.834
67336W        W38952  41.878   4.017  12.874
67337W        W38953  17.767  28.703  12.445
67338W        W38954  10.603  41.286  13.660
67339W        W38955  25.497  27.353  13.113
67340W        W38956  25.203  41.870   2.846
67341W        W38957  44.860  41.458  12.613
67342W        W38958  19.092   3.259   2.731
67343W        W38959  24.675   8.417   1.481
67344W        W38960  28.979   7.491   3.795
67345W        W38961  37.004  19.215  12.190
67346W        W38962  15.725  24.701  10.675
67347W        W38963  35.854  30.766   4.320
67348W        W38964  35.496  12.570   4.829
67349W        W38965   7.933  14.023  14.985
67350W        W38966  15.531   6.751   5.035
67351W        W38967   6.297   7.676   1.300
67352W        W38968   2.339  21.186  12.228
67353W        W38969  44.908  12.818   0.841
67354W        W38970  44.146  42.460   4.812
67355W        W38971  26.742  36.043  14.759
67356W        W38972  12.352  18.613  13.958
67357W        W38973  37.156  30.502  13.091
67358W        W38974  36.064   1.412   4.635
67359W        W38975  26.389  25.045   2.174
67360W        W38976  16.308  22.264   4.334
67361W        W38977  31.443  29.918  11.538
67362W        W38978  15.803  22.109  13.359
67363W        W38979  26.149  33.131  14.296
67364W        W38980   4.238  15.683  12.449
67365W        W38981  38.403  43.315   2.945
67366W        W38982  27.009  24.545  12.537
67367W        W38983   0.304  30.446  14.540
67368W        W38984  28.959  23.062  13.083
67369W        W38985   5.357  12.374  14.768
67370W        W38986   9.781  28.576  14.223
67371W        W38987  17.121  44.053   2.226
67372W        W38988  37.810  26.245   3.283
67373W        W38989  37.909   8.423  14.479
67374W        W38990   3.014  40.627  14.760
67375W        W38991  34.647  13.360  10.501
67376W        W38992  39.571  34.356   0.360
67377W        W38993  34.946  36.506   1.364
67378W        W38994   4.197  22.496   0.883
67379W        W38995  40.765   6.776  11.158
67380W        W38996  30.622  19.710  10.669
67381W        W38997  14.814  33.006  11.653
67382W        W38998  33.591  35.811   3.271
67383W        W38999  27.590   9.922   2.628
67384W        W39000  31.695  13.086   3.623
67385W        W39001  10.571  18.826   4.260
67386W        W39002   9.649   8.977  13.253
67387W        W39003   5.322  13.636   3.084
67388W        W39004  44.337  32.499   1.415
67389W        W39005  12.403  38.658   1.519
67390W        W39006  28.213  22.083  13.617
67391W        W39007  44.295  22.124  12.080
67392W        W39008  10.752  33.489  14.032
67393W        W39009  24.434  21.641  13.314
67394W        W39010  31.429   2.843  12.797
67395W        W39011  32.448  42.332  14.994
67396W        W39012  38.573   4.369   0.483
67397W        W39013  21.333   7.689  13.891
67398W        W39014  40.561  27.184   3.160
67399W        W39015  40.024  11.121   4.694
67400W        W39016  10.161  35.477  14.955
67401W        W39017  44.881  22.799  11.307
67402W        W39018  20.524   1.400   1.124
67403W        W39019   1.764   2.224   1.769
67404W        W39020  31.824  18.683  14.370
67405W        W39021  44.195  16.371   4.641
67406W        W39022  41.264  11.690   0.232
67407W        W39023   8.765  20.547   4.681
67408W        W39024  43.316   0.725  14.686
67409W        W39025  27.717  10.279  12.178
67410W        W39026  23.156  34.653   2.433
67411W        W39027   1.332  18.130  10.716
67412W        W39028  25.450  33.214   0.583
67413W        W39029  37.845  29.039   0.882
67414W        W39030   5.851  17.535  14.916
67415W        W39031   0.857   9.611  13.810
67416W        W39032  37.857  28.761   1.330
67417W        W39033   0.867  21.506   4.957
67418W        W39034   5.897  15.285   4.885
67419W        W39035  25.666  44.833   2.140
67420W        W39036   1.765  10.394   4.978
67421W        W39037   9.761  28.765  11.656
67422W        W39038  15.080  40.531   1.367
67423W        W39039  24.230   1.449   2.242
67424W        W39040  26.284  29.788   4.392
67425W        W39041  43.200  41.245  12.501
67426W        W39042   1.480  13.270   3.810
67427W        W39043  23.252  43.889  11.200
67428W        W39044  22.729  17.421   4.498
67429W        W39045  30.677  24.226   4.446
67430W        W39046  18.644  22.570   4.552
67431W        W39047  30.625  37.390  14.385
67432W        W39048   1.404  35.899   4.307
67433W        W39049  14.156  39.852   3.152
67434W        W39050  22.750  19.063  11.546
67435W        W39051  27.382  29.872   3.966
67436W        W39052  39.271   5.516  12.308
67437W        W39053  19.726  41.475   4.310
67438W        W39054  32.540  32.996  14.001
67439W        W39055  13.124   6.797   0.034
67440W        W39056  22.019  24.959   4.063
67441W        W39057  37.971  31.809   0.271
67442W        W39058  16.351  19.723   1.302
67443W        W39059  44.852  20.084   3.850
67444W        W39060  15.783  11.337   1.622
67445W        W39061  31.915   5.011   0.535
67446W        W39062  31.989  37.801   3.636
67447W        W39063   3.257  43.790  13.493
67448W        W39064  34.162  38.335   1.335
67449W        W39065  31.219  39.677   1.341
67450W        W39066  42.437  26.381   3.251
67451W        W39067  31.954  39.801   0.910
67452W        W39068  18.935   2.742   1.300
67453W        W39069   3.008  24.076   4.128
67454W        W39070  31.348   4.864  10.698
67455W        W39071  19.320  26.729   2.704
67456W        W39072   4.347  39.274  11.006
67457W        W39073   5.823  25.139  10.689
67458W        W39074  27.533  37.565  11.588
67459W        W39075  27.667  25.745  13.447
67460W        W39076   6.006  40.069   2.631
67461W        W39077  16.741   7.275  14.822
67462W        W39078   9.889  18.369  13.301
67463W        W39079  35.347  40.379  13.462
67464W        W39080  29.975  31.102   4.339
67465W        W39081  44.820  21.607  13.293
67466W        W39082  20.549  39.894  14.392
67467W        W39083  21.037  42.870  11.256
67468W        W39084  30.407   0.114  11.498
67469W        W39085  21.418  20.275  14.566
67470W        W39086  21.002  12.400   4.501
67471W        W39087  32.829  14.528   2.391
67472W        W39088  16.031  22.673  12.215
67473W        W39089  43.713   0.852   0.006
67474W        W39090   8.907  11.334  12.558
67475W        W39091  17.266  30.562  10.726
67476W        W39092   2.651  30.377   2.187
67477W        W39093  35.785  27.677  10.530
67478W        W39094  43.073  40.356  12.698
67479W        W39095  18.694   8.165   1.686
67480W        W39096   2.367  12.181   3.200
67481W        W39097  34.463  30.655   0.051
67482W        W39098   2.957  12.709  12.765
67483W        W39099  10.802  31.589  11.384
67484W        W39100   7.733  18.705   2.862
67485W        W39101  11.690  18.996   3.286
67486W        W39102  25.160  10.150  14.017
67487W        W39103   4.990  41.621   0.735
67488W        W39104   8.642  14.582   4.562
67489W        W39105   2.835  18.493  13.214
67490W        W39106  25.164  42.340  12.084
67491W        W39107  15.532  18.289   3.796
67492W        W39108   5.329  13.875  10.775
67493W        W39109   9.096   9.926  10.174
67494W        W39110   6.417  10.232   3.641
67495W        W39111  42.312   1.968  13.404
67496W        W39112   2.392  44.391   3.262
67497W        W39113  41.542  25.614  12.501
67498W        W39114  11.700   5.260   0.742
67499W        W39115  19.807  41.868   3.614
67500W        W39116  25.527  26.983   4.988
67501W        W39117  36.335  28.501   3.694
67502W        W39118  26.396  37.987   2.308
67503W        W39119   9.391   6.351  11.574
67504W        W39120  34.683  15.661   4.545
67505W        W39121  23.470   1.297   3.339
67506W        W39122   9.258   0.510  10.257
67507W        W39123  40.408  43.816   2.887
67508W        W39124  29.672  42.069   3.736
67509W        W39125  43.351  11.345  11.736
67510W        W39126  25.561   1.583   4.431
67511W        W39127   3.226   8.614  13.045
67512W        W39128  42.784   1.211  11.483
67513W        W39129   0.965  25.642  12.564
67514W        W39130  34.013  12.835   3.181
67515W        W39131  20.115  18.422  14.678
67516W        W39132   0.868   3.919   3.348
67517W        W39133  34.548  14.121   4.611
67518W        W39134  31.886  10.391  11.886
67519W        W39135  32.649   7.704   0.321
67520W        W39136  16.648  11.093  14.778
67521W        W39137  18.819  18.114   3.180
67522W        W39138  41.114   2.302   0.567
67523W        W39139  25.157  18.990  12.351
67524W        W39140  43.209  37.000  11.566
67525W        W39141  20.251   7.866   1.944
67526W        W39142  22.242   1.260   0.072
67527W        W39143  29.228  13.454   0.287
67528W        W39144  43.360  42.443  14.379
67529W        W39145  44.402   3.447  13.790
67530W        W39146  44.706   1.515   2.282
67531W        W39147  15.320  17.584  10.932
67532W        W39148  43.576  19.754  11.135
67533W        W39149  40.165  44.542   2.653
67534W        W39150  34.341   0.478   9.813
67535W        W39151  35.488   3.798   0.465
67536W        W39152   1.410   2.742  11.608
67537W        W39153  19.242   1.520   4.719
67538W        W39154  28.578   6.233   4.671
67539W        W39155  42.348  14.202  11.788
67540W        W39156  34.817   6.422   4.589
67541W        W39157  27.601  31.653   2.486
67542W        W39158  13.543  40.382   4.390
67543W        W39159  22.769  37.821   2.857
67544W        W39160   2.364  38.351   1.232
67545W        W39161  14.023  15.341  11.939
67546W        W39162  41.928   7.281   5.089
67547W        W39163  36.757  13.047   5.110
67548W        W39164  26.998   2.849  11.134
67549W        W39165   7.344  15.248   4.366
67550W        W39166  26.633   4.702   1.360
67551W        W39167  34.243  10.325  13.023
67552W        W39168  33.175  42.974  13.992
67553W        W39169  17.157  10.859  13.837
67554W        W39170   8.883   4.735  13.640
67555W        W39171   2.428  26.824  10.130
67556W        W39172  39.516  14.070   0.871
67557W        W39173  41.069  12.183   4.180
67558W        W39174  19.870  38.839  14.883
67559W        W39175  23.032  38.350   0.393
67560W        W39176  28.543   7.666   3.288
67561W        W39177   2.922  39.006  11.041
67562W        W39178  42.515  35.972  14.919
67563W        W39179  30.358   8.151  11.700
67564W        W39180  42.284  17.685   0.535
67565W        W39181  13.267  23.873   3.298
67566W        W39182   6.941  22.964   2.886
67567W        W39183  17.117  28.178  10.366
67568W        W39184  13.586  18.541  11.791
67569W        W39185   3.062  15.817  14.506
67570W        W39186  15.721  13.902  10.721
67571W        W39187  22.529  31.483   4.350
67572W        W39188   0.675   3.807   4.703
67573W        W39189  13.600  37.281  14.373
67574W        W39190  22.087  39.910   1.741
67575W        W39191  11.604  26.350  11.626
67576W        W39192  27.994  44.581  12.516
67577W        W39193   4.791   0.940  11.637
67578W        W39194  13.742  24.664  13.645
67579W        W39195  12.279  11.603   1.967
67580W        W39196  39.036   9.274  10.776
67581W        W39197  15.762  25.216   4.447
67582W        W39198  12.573   8.260   4.183
67583W        W39199  34.531  44.290   0.456
67584W        W39200   8.392  24.182   1.449
67585W        W39201  44.296  33.994   0.657
67586W        W39202  30.205  30.512  10.919
67587W        W39203  29.230  10.828  14.630
67588W        W39204  39.810  18.178   3.471
67589W        W39205   6.362  15.189  14.896
67590W        W39206  36.393  14.257  12.277
67591W        W39207  34.076  30.563  13.681
67592W        W39208   7.932  25.573   4.148
67593W        W39209   0.958  44.164  14.684
67594W        W39210  23.454  44.340  11.966
67595W        W39211  21.084  19.150   4.225
67596W        W39212   5.277  27.662  14.397
67597W        W39213  19.529   7.398  12.225
67598W        W39214  17.214  22.583   0.532
67599W        W39215  41.843  40.566  10.703
67600W        W39216  27.951  28.181   1.205
67601W        W39217  21.340  44.275  13.823
67602W        W39218  33.565  33.061   4.456
67603W        W39219  11.569  34.017  14.617
67604W        W39220  20.683  21.036  14.307
67605W        W39221   2.429   1.646  13.756
67606W        W39222   6.302  20.003  11.178
67607W        W39223  24.678  23.488  13.804
67608W        W39224  27.007  19.834  13.645
67609W        W39225  37.179  36.412  12.205
67610W        W39226  10.166  38.240   2.692
67611W        W39227  22.452  30.104   2.766
67612W        W39228  17.770   7.731   0.392
67613W        W39229  34.321  14.482  14.285
67614W        W39230   3.913  31.378   0.854
67615W        W39231  36.469  11.886   2.326
67616W        W39232  18.768  17.850   1.649
67617W        W39233   9.507  41.398   4.117
67618W        W39234  35.438  34.537   4.669
67619W        W39235  39.505  41.181   3.172
67620W        W39236  38.057  41.422  12.928
67621W        W39237  20.605  36.986  10.715
67622W        W39238  37.424  12.482   0.905
67623W        W39239  31.321   1.512   9.691
67624W        W39240  28.486  25.034  12.416
67625W        W39241  19.593  32.594  12.095
67626W        W39242   3.377  33.709  13.016
67627W        W39243  19.451  43.893   1.937
67628W        W39244  19.771   3.954  14.429
67629W        W39245  41.806   8.926   4.550
67630W        W39246  17.355  17.374  11.734
67631W        W39247  43.668  39.441   2.704
67632W        W39248   8.802   9.688  11.700
67633W        W39249  11.137  14.281   0.889
67634W        W39250  34.337  20.902   3.038
67635W        W39251  18.590  16.490  11.846
67636W        W39252   7.534  24.765   1.218
67637W        W39253   3.822  35.499  11.638
67638W        W39254  23.920  17.835   4.146
67639W        W39255   4.416  42.858   9.949
67640W        W39256  23.766   5.006   5.138
67641W        W39257   2.267  29.652   0.353
67642W        W39258  14.204   1.267   2.707
67643W        W39259  39.443  42.461  14.617
67644W        W39260   6.657  25.144  14.489
67645W        W39261  14.855  18.806   3.804
67646W        W39262  42.289  41.458  13.977
67647W        W39263  26.024   0.388   4.932
67648W        W39264  28.456   8.815   1.650
67649W        W39265  40.646  31.201   1.968
67650W        W39266  23.035  40.744  14.502
67651W        W39267   3.182  43.958  12.463
67652W        W39268  19.220  24.670   3.180
67653W        W39269  17.703  12.747   4.237
67654W        W39270  19.486  35.048  13.792
67655W        W39271   3.751   3.956  11.754
67656W        W39272  23.025  20.742   4.271
67657W        W39273  29.593  16.597   1.799
67658W        W39274  33.800  37.199  13.849
67659W        W39275  34.998  42.306  13.781
67660W        W39276  13.110  40.882  10.768
67661W        W39277   0.378  32.078  11.205
67662W        W39278  14.111  30.086   2.353
67663W        W39279  21.940  22.597   1.869
67664W        W39280  23.048  34.105   4.541
67665W        W39281   1.412  27.625  11.537
67666W        W39282  43.258  11.933  13.933
67667W        W39283  31.666  16.367  12.168
67668W        W39284  44.326  18.799  14.924
67669W        W39285  35.475  15.086  13.750
67670W        W39286  14.751  38.787   0.287
67671W        W39287  40.380   1.284   3.328
67672W        W39288  38.115  17.565  11.607
67673W        W39289  14.276  31.910  11.136
67674W        W39290   5.233  22.480  13.805
67675W        W39291  44.994  23.763  13.247
67676W        W39292   8.291  43.086  14.707
67677W        W39293  23.017  15.182  10.440
67678W        W39294  32.614  13.061  14.361
67679W        W39295   4.317  11.076  10.787
67680W        W39296  23.594  23.789  14.835
67681W        W39297  24.290  10.377   4.334
67682W        W39298  29.703  27.595   5.088
67683W        W39299  28.862  36.481   4.579
67684W        W39300  16.088   5.740  14.886
67685W        W39301  40.315   8.897   1.816
67686W        W39302  44.265  33.555   3.290
67687W        W39303  40.681  33.242  10.217
67688W        W39304   7.230   0.765  10.579
67689W        W39305  13.380   0.836  12.089
67690W        W39306  34.007   0.882   3.098
67691W        W39307  21.214   1.320   4.633
67692W        W39308  34.123  18.605   3.278
67693W        W39309  32.840  24.694  13.935
67694W        W39310  10.357  42.406   0.653
67695W        W39311  11.347  38.075   1.171
67696W        W39312  23.995  42.819  10.735
67697W        W39313   6.006  41.463   3.609
67698W        W39314  37.550   6.850   1.669
67699W        W39315  37.530   0.864  10.398
67700W        W39316  33.025  37.616  12.377
67701W        W39317  18.128  26.242   3.265
67702W        W39318  20.242  24.566   2.480
67703W        W39319  18.217  37.641   1.218
67704W        W39320  33.034   7.599   1.345
67705W        W39321  18.832  33.606   2.307
67706W        W39322   8.823   8.233   3.870
67707W        W39323  11.738  19.502  14.415
67708W        W39324  29.383  20.316  14.929
67709W        W39325  29.597  37.482   3.893
67710W        W39326  20.481  14.174  12.323
67711W        W39327  36.632   3.813  11.944
67712W        W39328  24.313  22.059  10.734
67713W        W39329  22.180  38.717   2.376
67714W        W39330  33.226   7.577  11.787
67715W        W39331   5.818   0.568   1.856
67716W        W39332  29.563  37.927   1.559
67717W        W39333  32.570   7.185  12.936
67718W        W39334  38.395  21.062  11.160
67719W        W39335  34.412  24.498   4.458
67720W        W39336  38.316  27.859  12.851
67721W        W39337   4.318  37.978   3.859
67722W        W39338  22.772  30.164  12.553
67723W        W39339  35.671  43.925   3.999
67724W        W39340  15.142   3.006   4.847
67725W        W39341  19.802  17.845  13.485
67726W        W39342  14.953  28.458  11.455
67727W        W39343   1.184  33.046   1.908
67728W        W39344  12.856  25.933   4.493
67729W        W39345  13.363   0.871  14.317
67730W        W39346  44.718  22.728   0.727
67731W        W39347   4.363  28.799  14.427
67732W        W39348  37.370  23.207   0.289
67733W        W39349  37.820  39.269   4.376
67734W        W39350  18.259  38.314  14.228
67735W        W39351  11.346  33.645   0.759
67736W        W39352  20.214  15.816  11.652
67737W        W39353   3.438  19.175  14.053
67738W        W39354  14.073   8.715   3.768
67739W        W39355  26.599  28.961  13.889
67740W        W39356  41.987  34.472  12.462
67741W        W39357  31.475  12.628  12.870
67742W        W39358   5.365   2.717   2.774
67743W        W39359  34.921   0.834   5.065
67744W        W39360   5.001  27.436   4.181
67745W        W39361  39.499  33.640  14.075
67746W        W39362  34.347  34.511   2.105
67747W        W39363  32.687  19.393   3.785
67748W        W39364  35.058  41.382  14.996
67749W        W39365  16.538  37.538  10.728
67750W        W39366  21.073   3.436  14.240
67751W        W39367  37.991  30.780  12.824
67752W        W39368  36.563   3.976  11.092
67753W        W39369   7.249  36.353  12.909
67754W        W39370  31.455  23.294   3.316
67755W        W39371  18.586   4.800  14.957
67756W        W39372   2.727  32.991   1.726
67757W        W39373  15.623   6.679  13.288
67758W        W39374  35.964  20.340   4.498
67759W        W39375  33.707   2.945   1.372
67760W        W39376  23.451  38.225  14.930
67761W        W39377  29.146  19.471   2.335
67762W        W39378   7.337   0.554  11.025
67763W        W39379  43.255  38.455   1.441
67764W        W39380   8.248  31.676  14.899
67765W        W39381   7.958  35.087  13.980
67766W        W39382   7.297   5.461  13.869
67767W        W39383   7.120  23.739  11.567
67768W        W39384  19.096  23.147  11.573
67769W        W39385  33.823  10.674  13.022
67770W        W39386  18.828  22.939   2.406
67771W        W39387   6.715  41.971  11.869
67772W        W39388  29.760  21.706  12.504
67773W        W39389  13.366  28.268  12.983
67774W        W39390  38.158  31.694  12.986
67775W        W39391   2.141   1.641   5.030
67776W        W39392  36.395  34.111  12.020
67777W        W39393  19.262  19.098  13.359
67778W        W39394  37.434  32.320   2.663
67779W        W39395  16.025  24.892  14.083
67780W        W39396  25.850  12.755   1.448
67781W        W39397   7.388  25.855  11.129
67782W        W39398  34.409  33.884   3.447
67783W        W39399   4.133   3.307   0.843
67784W        W39400  34.390  11.179  11.513
67785W        W39401  42.150  40.461   1.330
67786W        W39402   3.447   9.723  13.002
67787W        W39403  15.105  10.549  12.848
67788W        W39404  39.482  44.897   2.879
67789W        W39405   7.887  22.591   5.049
67790W        W39406  23.517  39.018  11.218
67791W        W39407  12.018  39.066   4.099
67792W        W39408  17.473  28.744  10.899
67793W        W39409  31.427  29.654   5.129
67794W        W39410  22.063  29.533  14.314
67795W        W39411  34.070  20.483  12.389
67796W        W39412  44.278  30.244   2.718
67797W        W39413  17.086  13.513  11.736
67798W        W39414  13.227  33.874  13.222
67799W        W39415   2.676  14.317   0.024
67800W        W39416  23.549  38.311  12.116
67801W        W39417  19.255   5.409   3.230
67802W        W39418  25.268  40.293   4.152
67803W        W39419  40.022  25.138  13.810
67804W        W39420  37.878  10.801   4.021
67805W        W39421  42.819  20.610   1.818
67806W        W39422  16.313  19.917  11.599
67807W        W39423  20.191  41.470  13.278
67808W        W39424  32.674  27.444   2.390
67809W        W39425  28.410  39.931   0.788
67810W        W39426  11.030  15.418   4.146
67811W        W39427  39.054   2.688  12.012
67812W        W39428  31.342  33.073   0.770
67813W        W39429  35.983  40.834  10.815
67814W        W39430   3.753  26.518  13.425
67815W        W39431  24.860  28.658  14.844
67816W        W39432  42.088  42.045  12.671
67817W        W39433   9.054  31.150   2.264
67818W        W39434   8.461  27.465   4.466
67819W        W39435  36.980  13.183   2.266
67820W        W39436  27.195  22.587  11.514
67821W        W39437  15.751  16.009  13.070
67822W        W39438  34.330  44.609   4.000
67823W        W39439   7.832  36.004  11.206
67824W        W39440   8.184  29.190   0.760
67825W        W39441   9.762  14.796  14.527
67826W        W39442   1.490  18.468  11.089
67827W        W39443  19.430  15.020   1.006
67828W        W39444   5.493  12.432  13.265
67829W        W39445  29.264  34.887   4.534
67830W        W39446   9.340  24.556   2.138
67831W        W39447   3.713  28.642   3.904
67832W        W39448  21.688  44.329  14.223
67833W        W39449  35.296  41.573   0.847
67834W        W39450  32.713  26.725  12.114
67835W        W39451  28.235  39.320   2.178
67836W        W39452  43.889  15.202  10.577
67837W        W39453  38.612   7.611  13.992
67838W        W39454   0.954  37.835  11.373
67839W        W39455  34.379  18.364  12.381
67840W        W39456  12.012  18.942   0.518
67841W        W39457  20.523  12.898  11.934
67842W        W39458   1.225   4.853   4.891
67843W        W39459  43.422  25.554  10.982
67844W        W39460  36.423  41.574  10.631
67845W        W39461   5.932  38.033  11.142
67846W        W39462  14.131  24.926   4.307
67847W        W39463  25.696  17.854  13.386
67848W        W39464  18.983  43.488  11.456
67849W        W39465  32.846  35.043  11.307
67850W        W39466  24.883  43.915   0.181
67851W        W39467  44.638   3.220  11.636
67852W        W39468   1.512   8.901  13.862
67853W        W39469  43.943  30.532   3.387
67854W        W39470  10.626  41.420   1.917
67855W        W39471  22.435  19.098   2.395
67856W        W39472  44.441  40.813  11.157
67857W        W39473   1.257  35.077   2.396
67858W        W39474  19.244  33.164   4.211
67859W        W39475  26.138  22.988   4.074
67860W        W39476   5.208  43.955  12.430
67861W        W39477  39.581  38.496  12.349
67862W        W39478  18.496  35.241   4.236
67863W        W39479  30.362  17.494  14.044
67864W        W39480  18.181  22.271   4.567
67865W        W39481  11.879  28.904  13.384
67866W        W39482  27.953  17.257  10.690
67867W        W39483  28.605   2.337   0.683
67868W        W39484   1.952   9.798  11.183
67869W        W39485  24.441  33.473  14.268
67870W        W39486  17.171  40.790   0.904
67871W        W39487  30.099   7.666  14.161
67872W        W39488  31.925  35.451  12.942
67873W        W39489  18.644  34.739   5.062
67874W        W39490  22.493  43.760   0.193
67875W        W39491  24.487  43.981   1.855
67876W        W39492   0.600  19.802  10.348
67877W        W39493   4.324   9.138   2.288
67878W        W39494  21.584  44.728  13.005
67879W        W39495  16.060  31.034  12.542
67880W        W39496  30.934  21.897   4.175
67881W        W39497  40.274  13.390  13.584
67882W        W39498   3.040   0.372  12.608
67883W        W39499  33.818  18.159   4.061
67884W        W39500  14.693  37.857   1.584
67885W        W39501  31.099  44.557  10.017
67886W        W39502  26.070  16.845   1.361
67887W        W39503  42.003  26.749  14.029
67888W        W39504   6.410   1.749  12.048
67889W        W39505  35.967  32.661   2.760
67890W        W39506  35.588  28.506  14.925
67891W        W39507   1.575  10.801   2.169
67892W        W39508  33.096   5.864   4.586
67893W        W39509   7.696  15.996  14.690
67894W        W39510  32.458  10.758   4.190
67895W        W39511  12.673  41.217   4.156
67896W        W39512   1.428   6.343  13.489
67897W        W39513  16.105  20.730  14.324
67898W        W39514  28.438   9.357   4.208
67899W        W39515   0.212  14.730  14.899
67900W        W39516  35.967   6.995  13.513
67901W        W39517  33.556   1.877  12.613
67902W        W39518  23.211  24.520  11.567
67903W        W39519   3.186  23.514  11.943
67904W        W39520   9.592  28.252  14.659
67905W        W39521  26.156   5.500  14.227
67906W        W39522  25.279  18.727  11.183
67907W        W39523  41.980   6.848   0.967
67908W        W39524  29.420   6.439  11.514
67909W        W39525  33.163   7.841  14.529
67910W        W39526  13.721  20.104   3.326
67911W        W39527  16.956  28.448  12.173
67912W        W39528  31.899  37.834   3.124
67913W        W39529  31.645  13.396   1.696
67914W        W39530   8.649  39.487   2.269
67915W        W39531  16.200  23.275   3.393
67916W        W39532  19.827  41.956   1.865
67917W        W39533   7.803   5.945   0.779
67918W        W39534   0.413   6.339   3.642
67919W        W39535  43.776  17.208   1.635
67920W        W39536  12.746  28.536   2.451
67921W        W39537   1.811  19.742  12.823
67922W        W39538  29.556   2.893  11.149
67923W        W39539  31.635  15.524   1.313
67924W        W39540  29.322  10.311   5.090
67925W        W39541  43.560  25.633   0.829
67926W        W39542  15.046  16.425   3.672
67927W        W39543   2.193  22.610  11.023
67928W        W39544  28.622  33.511  11.629
67929W        W39545  19.052  16.856   3.570
67930W        W39546   3.891  11.370  10.908
67931W        W39547  35.893   3.382   1.336
67932W        W39548  19.989  21.111  12.023
67933W        W39549  32.581  23.311  14.807
67934W        W39550  36.912  20.359   4.229
67935W        W39551  13.597  42.523   3.774
67936W        W39552  32.124  20.427  12.145
67937W        W39553   4.995   3.898   3.335
67938W        W39554  10.045   7.756  12.618
67939W        W39555  39.055  11.830   1.949
67940W        W39556  31.682  23.420  14.772
67941W        W39557  23.533  15.602   3.276
67942W        W39558   5.684  41.578   0.397
67943W        W39559  25.054   5.653   4.082
67944W        W39560  10.092   0.663  13.633
67945W        W39561  31.534  16.108  14.379
67946W        W39562  16.757  43.214   2.296
67947W        W39563  34.956  18.538  10.996
67948W        W39564  31.249  39.319   0.573
67949W        W39565   5.218   9.026   4.581
67950W        W39566  17.226  21.519   2.864
67951W        W39567  29.033   0.345  10.700
67952W        W39568  28.478  25.174  14.785
67953W        W39569   0.896  10.220  11.549
67954W        W39570  40.023  16.191  12.484
67955W        W39571   5.123  44.883   3.774
67956W        W39572   8.281  16.837   4.935
67957W        W39573  15.701  28.587   0.667
67958W        W39574  24.996  31.543   0.474
67959W        W39575  41.234  20.026   2.656
67960W        W39576   5.727   9.170   2.039
67961W        W39577  42.743  40.052  13.473
67962W        W39578   3.261  33.828   1.430
67963W        W39579  20.057  21.236  13.517
67964W        W39580  39.771  24.905   3.565
67965W        W39581   5.466   0.973  12.818
67966W        W39582  19.702  39.620   0.241
67967W        W39583  20.098  42.316   3.667
67968W        W39584  17.085  15.878  13.932
67969W        W39585  11.275  22.967   1.703
67970W        W39586   3.200  16.179   0.720
67971W        W39587  29.249  36.912  10.714
67972W        W39588  19.169  18.152   2.730
67973W        W39589   6.128  38.384   0.650
67974W        W39590  36.498  41.018  13.112
67975W        W39591  31.390  13.801  13.982
67976W        W39592  41.910   5.398  13.192
67977W        W39593  42.400  35.644  14.090
67978W        W39594  33.076  37.982   0.203
67979W        W39595  37.290  22.166  12.475
67980W        W39596  20.486  11.603  13.511
67981W        W39597   5.059  11.218   4.023
67982W        W39598  32.691  14.785  11.351
67983W        W39599  30.439  20.846   0.185
67984W        W39600  18.523  32.902  12.568
67985W        W39601   3.736   0.935  12.488
67986W        W39602   4.778  23.461   2.694
67987W        W39603  26.738  18.622   1.408
67988W        W39604  32.598   2.044  11.855
67989W        W39605  38.539  24.606  14.720
67990W        W39606  12.057   6.152   5.423
67991W        W39607   6.433  25.046  11.531
67992W        W39608   8.434  28.800   2.641
67993W        W39609   2.443  43.072   0.910
67994W        W39610  12.249  15.264   0.295
67995W        W39611  40.108  29.123  13.253
67996W        W39612  42.048  33.384   2.270
67997W        W39613  15.488   7.581  10.957
67998W        W39614  30.569   2.193  14.845
67999W        W39615   0.242  21.078   0.405
68000W        W39616   9.177  19.158   1.310
68001W        W39617  38.592   9.775   4.300
68002W        W39618   9.355  37.908  14.521
68003W        W39619   6.816  13.177   2.895
68004W        W39620  32.921  18.281  12.373
68005W        W39621  29.342  13.311   4.706
68006W        W39622  31.824  17.831   3.641
68007W        W39623   9.506  20.935  12.862
68008W        W39624  32.571  26.092   4.510
68009W        W39625  39.237  18.735   1.387
68010W        W39626  33.851  34.994  11.067
68011W        W39627  43.783   8.605   4.123
68012W        W39628  18.898  26.961   4.686
68013W        W39629  27.632  35.426   1.160
68014W        W39630  16.925   3.832  14.031
68015W        W39631  23.520  34.044  14.752
68016W        W39632   7.231  18.080  12.298
68017W        W39633   7.182  13.152  12.533
68018W        W39634  35.586  29.463   0.089
68019W        W39635  12.596   3.264   3.809
68020W        W39636  28.190  17.957  14.875
68021W        W39637  35.442  36.599  14.735
68022W        W39638   5.460  11.619   0.475
68023W        W39639  27.092  43.788   3.579
68024W        W39640  32.472   6.888  12.086
68025W        W39641  44.086   7.889  14.310
68026W        W39642  42.320  14.751  12.979
68027W        W39643  14.960  31.521   3.721
68028W        W39644   6.603  20.579   4.188
68029W        W39645  43.900  34.504  12.602
68030W        W39646  35.669  38.744   0.761
68031W        W39647  36.924  32.561   3.571
68032W        W39648  11.574  28.108   5.119
68033W        W39649  23.043  11.262   4.741
68034W        W39650  29.570  28.607   0.211
68035W        W39651   7.837  41.471   1.429
68036W        W39652  31.571   9.188   0.692
68037W        W39653  40.353   6.460   4.054
68038W        W39654  32.564  28.985  14.991
68039W        W39655  23.018   2.465   4.759
68040W        W39656   6.106  41.972  14.836
68041W        W39657   6.210   3.813  10.590
68042W        W39658  17.085  33.806  12.932
68043W        W39659  32.903  27.159   3.711
68044W        W39660  27.592  39.236   4.250
68045W        W39661  15.072   4.422  13.972
68046W        W39662   3.981   0.141  11.479
68047W        W39663  40.912  41.110   0.484
68048W        W39664  13.642  18.463   4.856
68049W        W39665  44.365  20.890  13.524
68050W        W39666  12.894  17.192  12.901
68051W        W39667   8.227  34.819   4.545
68052W        W39668   7.279  42.663   0.235
68053W        W39669  14.210  39.541  13.269
68054W        W39670  19.092  38.978   0.346
68055W        W39671  16.187   1.393   4.318
68056W        W39672  14.577  40.412   2.424
68057W        W39673  32.406  42.591   4.904
68058W        W39674   6.119  40.318  10.818
68059W        W39675  17.603  42.781  14.947
68060W        W39676  25.689   1.360  12.381
68061W        W39677   5.687  15.845   4.065
68062W        W39678  43.842  39.164   9.992
68063W        W39679   9.764  33.807  13.532
68064W        W39680  29.526  10.721  13.224
68065W        W39681  12.941  34.885   1.458
68066W        W39682  10.195   2.296  10.567
68067W        W39683   3.688  40.863  10.655
68068W        W39684   5.083   5.101  13.728
68069W        W39685  43.248  35.875  14.455
68070W        W39686   5.417  16.792   4.203
68071W        W39687  13.806  28.592  10.932
68072W        W39688  38.059  40.560  14.246
68073W        W39689  42.534  15.488  11.938
68074W        W39690  31.123  43.405   0.797
68075W        W39691  32.852  26.048  12.439
68076W        W39692  12.082  34.153  13.711
68077W        W39693   9.664  18.694   1.822
68078W        W39694  32.028  32.162  10.507
68079W        W39695  18.391  22.795   1.031
68080W        W39696  17.089  22.702   0.006
68081W        W39697  29.109  39.390  12.278
68082W        W39698   4.889  37.018  12.136
68083W        W39699  18.728  26.961   0.245
68084W        W39700  36.263   3.182   4.364
68085W        W39701  33.331  16.236   4.992
68086W        W39702  40.285  26.502  14.303
68087W        W39703  40.282  15.118   2.663
68088W        W39704  25.406  31.093   1.285
68089W        W39705  15.729  35.885   4.999
68090W        W39706  21.697  37.656  13.969
68091W        W39707  22.087  11.341  12.886
68092W        W39708  19.313   1.481  14.521
68093W        W39709  27.512  30.932   4.279
68094W        W39710  34.158  12.164  14.160
68095W        W39711  32.708   2.380  12.657
68096W        W39712  34.643  11.856   3.684
68097W        W39713  42.920  13.019  13.506
68098W        W39714   9.870  29.674  14.891
68099W        W39715  28.460  39.373  12.970
68100W        W39716  22.132  22.141  12.065
68101W        W39717   8.572  14.550   0.296
68102W        W39718  34.452   4.651   4.083
68103W        W39719   9.218  38.084   2.727
68104W        W39720  35.141  41.982   1.270
68105W        W39721   4.994  31.474   1.729
68106W        W39722   2.865  14.077   0.450
68107W        W39723  12.782  34.320   0.171
68108W        W39724  43.405  34.508  13.035
68109W        W39725   5.233  37.312  13.958
68110W        W39726  21.162   2.259  11.706
68111W        W39727   2.362   7.676   2.928
68112W        W39728  39.924  31.962  12.657
68113W        W39729  16.663  36.472   0.344
68114W        W39730   0.883  25.013  13.722
68115W        W39731   2.905  24.117  13.899
68116W        W39732  13.092  16.055   3.702
68117W        W39733  12.390  18.594   1.388
68118W        W39734  32.116  24.734   4.339
68119W        W39735  35.593  15.746   2.440
68120W        W39736  28.694   6.448  13.035
68121W        W39737   6.657  38.824  14.300
68122W        W39738  28.928   9.837  10.544
68123W        W39739  20.588  32.658  12.892
68124W        W39740  17.578  29.216   0.348
68125W        W39741  40.858  11.453   3.893
68126W        W39742   9.410   2.665   3.411
68127W        W39743  15.274  13.332   1.927
68128W        W39744  40.277  12.624  10.681
68129W        W39745  43.874  11.267   3.057
68130W        W39746   7.148   0.432   0.027
68131W        W39747  15.654  36.684   4.662
68132W        W39748  28.493   1.193   1.398
68133W        W39749   8.135  37.320  11.169
68134W        W39750  44.220  27.654  12.351
68135W        W39751  20.769  34.965  13.502
68136W        W39752  43.924  29.208  14.813
68137W        W39753  24.234   3.938   0.862
68138W        W39754  39.544  19.865   0.804
68139W        W39755  17.228  37.577  11.541
68140W        W39756   7.628  26.604   2.579
68141W        W39757  23.213  36.016  12.943
68142W        W39758  41.299  38.058   3.630
68143W        W39759  22.308  19.862  14.296
68144W        W39760  22.138  34.794   3.365
68145W        W39761  23.466   8.201   4.239
68146W        W39762  17.606   9.661  10.586
68147W        W39763  43.830  36.850  11.135
68148W        W39764  36.529  39.262   0.854
68149W        W39765  36.835  17.936  11.482
68150W        W39766  24.495  19.863  10.722
68151W        W39767  39.159  36.534   1.835
68152W        W39768  32.993  41.608  12.925
68153W        W39769  17.759  32.292   0.355
68154W        W39770  10.219  16.748   3.558
68155W        W39771   6.873  31.563   4.680
68156W        W39772  40.059  35.164  14.457
68157W        W39773  17.090  24.406   3.681
68158W        W39774   6.295  12.378  14.890
68159W        W39775   6.001  29.592  13.534
68160W        W39776  39.964  41.686  13.070
68161W        W39777  24.007  40.781   4.844
68162W        W39778  22.523  44.398   3.125
68163W        W39779  27.755   2.887  13.779
68164W        W39780  18.238  29.546   1.305
68165W        W39781  40.981  31.019   3.461
68166W        W39782   6.419  32.969   3.398
68167W        W39783   0.400  10.448   3.861
68168W        W39784  35.998  22.717   0.021
68169W        W39785  19.987   2.730   2.381
68170W        W39786  38.129  11.749   3.122
68171W        W39787  41.061  42.029  10.667
68172W        W39788  28.066   2.209   0.038
68173W        W39789  16.420  33.830  10.396
68174W        W39790  19.780  25.878  14.364
68175W        W39791   6.823   2.952  11.646
68176W        W39792  37.973  39.747  13.525
68177W        W39793  15.082  10.388   0.851
68178W        W39794  38.799   0.010   0.254
68179W        W39795  10.258  44.186  11.041
68180W        W39796  26.019  30.324   0.043
68181W        W39797  16.212  11.416   4.231
68182W        W39798   5.481  25.617   1.740
68183W        W39799   9.441  37.239   3.817
68184W        W39800  42.274  27.547   0.523
68185W        W39801  10.259  31.695   0.868
68186W        W39802   4.525  11.902  10.140
68187W        W39803   0.864  24.542  10.603
68188W        W39804  19.000  17.863   0.738
68189W        W39805  42.989   8.436  11.551
68190W        W39806  41.941  31.083  14.155
68191W        W39807  19.001  25.105   0.726
68192W        W39808   0.831  21.236  14.339
68193W        W39809   6.848  39.316  12.894
68194W        W39810  43.318  31.528  13.844
68195W        W39811  40.583  41.491   4.190
68196W        W39812  24.116  36.483   1.484
68197W        W39813  34.050  40.784   2.739
68198W        W39814   9.917   6.753   0.650
68199W        W39815   9.799  34.793  12.072
68200W        W39816   0.470  17.202  10.596
68201W        W39817  20.522  41.979  14.093
68202W        W39818  29.668   9.032   2.565
68203W        W39819  33.353  42.601   2.184
68204W        W39820   5.766  33.381   4.524
68205W        W39821  31.145  13.137  14.505
68206W        W39822  37.462  42.713  14.366
68207W        W39823   7.549  16.233   2.926
68208W        W39824  27.927  41.373  11.130
68209W        W39825  22.148  15.616   1.678
68210W        W39826   0.399  37.966   2.648
68211W        W39827   2.237   6.838  13.438
68212W        W39828  38.550  16.690  11.698
68213W        W39829   0.389  24.697   3.751
68214W        W39830  33.955  19.746   2.775
68215W        W39831  10.411  23.234   4.247
68216W        W39832  33.856  39.019   3.308
68217W        W39833   2.146  36.989   1.277
68218W        W39834   7.391  36.107  13.352
68219W        W39835  10.275   2.177   0.989
68220W        W39836  38.490  24.959   3.045
68221W        W39837  17.783   0.772  13.492
68222W        W39838   0.209  28.689  13.875
68223W        W39839   3.431  15.801   0.992
68224W        W39840   3.960  34.110   3.378
68225W        W39841   0.200  28.312   0.984
68226W        W39842   3.256  26.425   3.293
68227W        W39843   3.973  38.504   2.928
68228W        W39844  14.860  32.517  13.800
68229W        W39845  35.691  30.607  12.658
68230W        W39846  14.209  11.911  11.735
68231W        W39847  19.192  12.655  12.107
68232W        W39848  31.279  15.809   3.303
68233W        W39849  26.379  23.411  10.305
68234W        W39850  36.046  13.694  10.626
68235W        W39851   7.165  42.977   1.578
68236W        W39852   6.976  18.086   2.759
68237W        W39853  10.395  22.923  14.756
68238W        W39854  14.659   6.281   4.894
68239W        W39855  12.744  30.885  12.058
68240W        W39856  34.247  24.484   2.761
68241W        W39857  20.667  36.329   1.917
68242W        W39858  20.265  30.658  11.224
68243W        W39859   9.235  44.464   2.845
68244W        W39860  39.939  14.033   4.496
68245W        W39861  37.287  20.817   0.321
68246W        W39862  42.418  39.034  10.977
68247W        W39863   0.922  29.704  14.246
68248W        W39864  26.218   4.897   2.882
68249W        W39865   9.900   1.867  11.742
68250W        W39866  43.681  39.955  13.046
68251W        W39867  19.230  12.309  10.910
68252W        W39868  22.193  22.704   3.282
68253W        W39869  17.518   1.687  14.345
68254W        W39870  29.100  33.044  10.983
68255W        W39871   6.932  14.948  12.650
68256W        W39872  21.896   2.099   3.054
68257W        W39873  15.515  21.301  12.974
68258W        W39874  23.784  23.982  12.316
68259W        W39875   5.692  21.130  10.569
68260W        W39876  15.616   4.213   1.228
68261W        W39877  13.450  33.200  11.020
68262W        W39878  24.034   9.128  11.923
68263W        W39879  12.799  28.661  12.166
68264W        W39880  13.679   8.298   3.829
68265W        W39881  44.896   5.708  13.796
68266W        W39882  18.768  41.925  14.175
68267W        W39883  30.134  26.968  14.488
68268W        W39884  10.090  29.957  11.890
68269W        W39885   5.165  44.396   2.951
68270W        W39886  36.598   1.842  14.508
68271W        W39887  34.170   1.364  11.629
68272W        W39888   2.513  42.818   1.401
68273W        W39889  12.011  11.343   4.577
68274W        W39890  26.260  25.656   3.974
68275W        W39891  12.841   1.402   0.331
68276W        W39892  17.813   7.177   1.271
68277W        W39893   9.339  42.391  13.340
68278W        W39894   5.184  28.033  10.231
68279W        W39895  36.975  29.740  14.886
68280W        W39896   2.910  16.581  14.918
68281W        W39897  19.444  34.589  11.875
68282W        W39898   0.960  41.083   2.622
68283W        W39899  10.249   6.746  11.977
68284W        W39900  21.665   2.532   4.956
68285W        W39901  12.672  36.768   0.232
68286W        W39902  18.132  26.499   1.890
68287W        W39903  20.493  21.041  12.588
68288W        W39904  21.882   6.710  12.704
68289W        W39905   1.414   3.758  12.798
68290W        W39906  12.659  17.041  10.768
68291W        W39907   3.157  37.269   1.313
68292W        W39908   2.913  10.690  14.395
68293W        W39909   9.964  19.100   0.766
68294W        W39910  37.901  30.495   2.717
68295W        W39911   3.249  44.866   1.859
68296W        W39912  13.185  19.963   2.507
68297W        W39913  23.157  28.641   2.151
68298W        W39914  30.948  14.062   2.137
68299W        W39915   5.454  26.231  13.465
68300W        W39916  10.780  24.371   1.191
68301W        W39917  13.315  34.793   4.611
68302W        W39918  37.822  21.993  11.609
68303W        W39919  15.532  17.582   0.072
68304W        W39920  10.811  25.417  12.625
68305W        W39921  23.780   0.937   3.085
68306W        W39922   7.289  28.018   0.987
68307W        W39923  34.457  27.499  13.070
68308W        W39924  31.203  26.517  12.190
68309W        W39925  17.726  21.633   2.831
68310W        W39926  18.565  34.503   2.277
68311W        W39927  43.454  13.643   1.079
68312W        W39928  42.091  38.110  13.928
68313W        W39929   6.654  41.791  10.379
68314W        W39930  17.427  17.085  12.571
68315W        W39931   7.469  17.559  10.184
68316W        W39932  28.705  41.909  13.981
68317W        W39933  44.228  12.917   3.755
68318W        W39934  41.859  40.314  11.155
68319W        W39935  26.432  26.097  14.772
68320W        W39936  17.337  33.421  12.006
68321W        W39937  24.556  30.392   4.601
68322W        W39938  30.408  42.062  11.997
68323W        W39939  12.155   4.945   0.687
68324W        W39940  19.802  33.014  11.174
68325W        W39941  30.689   8.298   3.621
68326W        W39942  21.960  41.866  14.484
68327W        W39943   3.598  30.459   2.297
68328W        W39944  15.948  16.480  14.313
68329W        W39945  30.662  33.513   4.863
68330W        W39946   7.897  27.723  12.324
68331W        W39947  12.792  39.216   2.701
68332W        W39948   2.926  41.932   0.381
68333W        W39949  39.785  44.004   1.872
68334W        W39950  18.672  20.777  10.830
68335W        W39951  13.824  22.094   0.863
68336W        W39952  23.824  27.945  14.381
68337W        W39953  39.313  28.417   4.834
68338W        W39954  28.051  32.562  11.167
68339W        W39955   2.448  41.725   0.297
68340W        W39956  10.397   9.896   4.665
68341W        W39957  22.687  33.473  14.701
68342W        W39958  11.522  13.254   2.799
68343W        W39959  35.207  18.421  11.415
68344W        W39960  39.415  13.612   3.690
68345W        W39961  19.889  36.152   1.710
68346W        W39962  37.279  42.635   4.201
68347W        W39963  22.192  12.015  13.547
68348W        W39964  22.750   6.156  13.828
68349W        W39965  11.096   2.474  12.898
68350W        W39966  19.478  21.923   0.886
68351W        W39967   2.082  41.820   3.690
68352W        W39968  21.570  11.807  14.297
68353W        W39969  11.640  17.123  12.398
68354W        W39970   5.814  20.717  14.443
68355W        W39971  39.897  16.855   2.676
68356W        W39972   1.903  42.325   3.519
68357W        W39973  21.494  25.146   4.110
68358W        W39974   8.872  43.953  11.522
68359W        W39975   6.254   7.447  12.481
68360W        W39976  15.996  11.252  12.926
68361W        W39977  40.335  18.944  12.372
68362W        W39978  23.706  13.517  12.190
68363W        W39979   5.273  32.135  11.955
68364W        W39980   8.401  31.251  14.260
68365W        W39981  11.404  32.272  14.714
68366W        W39982  19.643  36.550  14.443
68367W        W39983  19.762   9.679  14.549
68368W        W39984   3.921  34.896   0.975
68369W        W39985  15.613  35.352   4.153
68370W        W39986  12.074  17.688   1.830
68371W        W39987   5.437   0.513  11.014
68372W        W39988  37.917   8.882   0.749
68373W        W39989  15.294  44.595  14.465
68374W        W39990  11.069  38.013   2.658
68375W        W39991  32.503  34.099  14.278
68376W        W39992  43.307  37.302  13.964
68377W        W39993  27.767   9.837   0.770
68378W        W39994  39.457  23.802   4.169
68379W        W39995  20.688  43.514   2.294
68380W        W39996   5.149  31.594   0.411
68381W        W39997  21.468   1.310   1.980
68382W        W39998  13.124  13.669   2.332
68383W        W39999   5.215  23.662  11.363
68384W        W40000  41.455   9.493   2.386
68385W        W40001  17.617  30.234   2.395
68386W        W40002  32.995  25.669   3.692
68387W        W40003  36.052  40.485   2.174
68388W        W40004  35.946  36.491   0.112
68389W        W40005  35.091  11.122  13.458
68390W        W40006  44.963  11.618  11.639
68391W        W40007  28.665  32.824  14.275
68392W        W40008  15.049  27.951   1.263
68393W        W40009  37.893  29.702  12.147
68394W        W40010  13.522   4.097   0.021
68395W        W40011  25.656   0.829   3.253
68396W        W40012   6.396  20.679  10.491
68397W        W40013  40.250  43.668  12.023
68398W        W40014   8.447  34.043   4.177
68399W        W40015  30.589   3.284  12.481
68400W        W40016  39.870  22.683  10.588
68401W        W40017  23.748  11.709   3.889
68402W        W40018  32.235  14.086   1.773
68403W        W40019   9.519  42.260   0.456
68404W        W40020   9.718  41.378  11.609
68405W        W40021  36.901  20.547   4.745
68406W        W40022  14.639  32.118  14.063
68407W        W40023  22.176   6.630   4.618
68408W        W40024  24.272  36.268  13.516
68409W        W40025  13.581   6.875   1.856
68410W        W40026  18.683  24.365   4.479
68411W        W40027   7.160  35.874   0.862
68412W        W40028  15.251  20.474   1.014
68413W        W40029  36.945  17.093   3.409
68414W        W40030  25.494   3.441  11.382
68415W        W40031  30.101  41.949  12.842
68416W        W40032  36.148   3.476   2.327
68417W        W40033  34.069  37.637   4.718
68418W        W40034   1.481   5.183   0.261
68419W        W40035  11.610   5.382  14.315
68420W        W40036  10.261  34.534   2.446
68421W        W40037  40.298  14.431   1.383
68422W        W40038  41.595  16.162   4.674
68423W        W40039   6.348  26.207  11.542
68424W        W40040  37.137  37.397  12.381
68425W        W40041  14.435   1.978  11.661
68426W        W40042  40.528  18.079  10.687
68427W        W40043  27.454  11.082  13.898
68428W        W40044  10.941   4.460   2.938
68429W        W40045  10.443  42.315   4.557
68430W        W40046  37.750  36.376   0.845
68431W        W40047  44.968  43.417   4.741
68432W        W40048  13.259  15.248   4.208
68433W        W40049  17.569   5.133   2.910
68434W        W40050   1.976  17.753   3.772
68435W        W40051  35.848  29.906   1.732
68436W        W40052  20.283  31.208   4.194
68437W        W40053  31.192  28.559  13.394
68438W        W40054   1.253  13.794   1.644
68439W        W40055  31.016  28.693   3.258
68440W        W40056  27.139   8.758  12.854
68441W        W40057  23.305  30.515  12.021
68442W        W40058  35.489   0.251   2.742
68443W        W40059  17.360  26.093   3.765
68444W        W40060  18.071  27.708  11.598
68445W        W40061  38.347  36.883   2.214
68446W        W40062  11.891   0.302  13.552
68447W        W40063  14.084  23.935   1.166
68448W        W40064  33.720  25.710   2.878
68449W        W40065  33.965   6.545   3.243
68450W        W40066  30.522  21.801  11.171
68451W        W40067  30.633  44.767   3.939
68452W        W40068  27.952   3.267   2.348
68453W        W40069  28.560   0.237  14.110
68454W        W40070  20.575  24.473   0.885
68455W        W40071  43.012  42.275  13.613
68456W        W40072  43.053  18.561   2.802
68457W        W40073  31.207  34.531   3.333
68458W        W40074  21.122   8.933  12.386
68459W        W40075  15.866  27.894  13.773
68460W        W40076   2.455   4.026  12.428
68461W        W40077  12.886  15.910  12.210
68462W        W40078  37.259  30.333   2.340
68463W        W40079  19.521  33.927  13.592
68464W        W40080  20.289  29.006   4.186
68465W        W40081  18.748   5.155   1.335
68466W        W40082  28.031   3.627  13.537
68467W        W40083  26.713  34.628  12.202
68468W        W40084  24.693  43.580  14.815
68469W        W40085   5.251  40.835  11.716
68470W        W40086   0.795  42.020  11.919
68471W        W40087   5.002  10.838   2.763
68472W        W40088  30.189  31.429   1.469
68473W        W40089  13.525  38.320  12.142
68474W        W40090  20.119  36.685  14.198
68475W        W40091  22.087  44.748  14.729
68476W        W40092  10.873  42.693  11.140
68477W        W40093  15.073   2.894   3.370
68478W        W40094  13.435  40.509  13.081
68479W        W40095   1.589   3.329   0.401
68480W        W40096  30.872  14.035   4.553
68481W        W40097  43.733  13.226  13.933
68482W        W40098  30.878  22.417   1.703
68483W        W40099  38.918  15.171   1.415
68484W        W40100  18.067  22.627  14.068
68485W        W40101  19.672  20.507  14.646
68486W        W40102  22.036   4.866   2.665
68487W        W40103  35.233  34.680  11.089
68488W        W40104  11.353  25.442  11.660
68489W        W40105  31.941  32.874   2.383
68490W        W40106  26.137  26.714   1.708
68491W        W40107  12.339  34.388   4.521
68492W        W40108  18.790  13.108   2.685
68493W        W40109  35.626   7.730   1.534
68494W        W40110  32.748   7.626  11.615
68495W        W40111   5.524  14.668   2.134
68496W        W40112  16.736  30.139   2.600
68497W        W40113   3.856   2.840   3.824
68498W        W40114  37.434  17.630   1.795
68499W        W40115   5.113   2.791   4.493
68500W        W40116  11.226  42.369  12.327
68501W        W40117  44.802  20.937  14.421
68502W        W40118  16.327  42.775   0.370
68503W        W40119  22.768   7.693  13.986
68504W        W40120   8.365  38.928  11.876
68505W        W40121   4.656  12.818  11.099
68506W        W40122   2.304  18.979   0.345
68507W        W40123  25.685  27.177   3.401
68508W        W40124   5.742  15.618  12.503
68509W        W40125  28.982  11.288   0.715
68510W        W40126  31.938  21.812   1.230
68511W        W40127  18.034  23.973   4.215
68512W        W40128  35.950   7.629   4.930
68513W        W40129   5.129   2.482   0.484
68514W        W40130  14.518  11.256  12.829
68515W        W40131   6.878  38.614  12.516
68516W        W40132   2.244  25.523  14.903
68517W        W40133  36.138  21.475   3.160
68518W        W40134  42.985   2.692  11.236
68519W        W40135  22.406   7.863   3.694
68520W        W40136  34.088   8.403   3.667
68521W        W40137  23.751  20.187   3.403
68522W        W40138  16.760   8.702  14.103
68523W        W40139  31.647  28.522   1.336
68524W        W40140  20.208  34.109   2.872
68525W        W40141  24.696  35.556  11.640
68526W        W40142   8.731  19.011  14.501
68527W        W40143  35.850  37.029   3.433
68528W        W40144  36.168  34.562   1.259
68529W        W40145  17.616  26.523   2.655
68530W        W40146  16.317  12.271  13.580
68531W        W40147   5.668  30.133   3.588
68532W        W40148  25.224  28.437  11.114
68533W        W40149  36.366  21.600  11.660
68534W        W40150  23.869  35.102   3.737
68535W        W40151  23.498  14.372  11.159
68536W        W40152  37.040  17.941  14.543
68537W        W40153   5.683  40.157   3.380
68538W        W40154  12.260  25.085   1.798
68539W        W40155  37.886  36.638   2.823
68540W        W40156  18.353  28.717   3.659
68541W        W40157  23.124  34.939   0.434
68542W        W40158   5.769  40.081   2.173
68543W        W40159  15.250  18.969  10.391
68544W        W40160  16.313  24.447  12.381
68545W        W40161  26.606  39.846  14.755
68546W        W40162  17.407  37.619   3.281
68547W        W40163  29.661  30.559   1.675
68548W        W40164  42.216  30.523   3.606
68549W        W40165  41.325  35.366  12.971
68550W        W40166   3.169  30.811  10.219
68551W        W40167  28.054  17.224  14.343
68552W        W40168  39.229   4.895  12.970
68553W        W40169  19.293  40.965   1.309
68554W        W40170  12.263  37.592  13.249
68555W        W40171   7.106  15.893  11.525
68556W        W40172   0.213  27.316   4.207
68557W        W40173   7.331  14.547  12.562
68558W        W40174   7.009  15.144  10.918
68559W        W40175   6.725  40.123  11.170
68560W        W40176  32.913   5.790  14.776
68561W        W40177  10.151  44.631  13.441
68562W        W40178  35.762  38.340   0.249
68563W        W40179  25.997  29.093   3.233
68564W        W40180  22.714   6.928   2.776
68565W        W40181  41.516   6.510   4.258
68566W        W40182  23.521   1.290  11.093
68567W        W40183  34.342   7.331   3.737
68568W        W40184  33.023   3.176   1.957
68569W        W40185  10.648  11.692   3.813
68570W        W40186   3.351  33.674   5.167
68571W        W40187  11.134   2.887  13.290
68572W        W40188   0.484  21.580  14.543
68573W        W40189  27.748  37.530   3.597
68574W        W40190   5.715  16.200  11.965
68575W        W40191  37.094  15.611  12.044
68576W        W40192  20.038  32.892   3.800
68577W        W40193  43.041  22.540   1.280
68578W        W40194  21.005  14.796  12.042
68579W        W40195   5.269   2.218  12.572
68580W        W40196  26.449  31.765   3.732
68581W        W40197   1.354  38.792  14.936
68582W        W40198  32.410  39.521  13.398
68583W        W40199  11.816  21.978   4.043
68584W        W40200  25.513  27.747   1.211
68585W        W40201  25.094  38.967   2.667
68586W        W40202  15.033  23.489   0.970
68587W        W40203  26.134  30.935   3.175
68588W        W40204   7.733  12.680   4.021
68589W        W40205  37.041  21.747   4.074
68590W        W40206   2.194   7.528   4.127
68591W        W40207  22.145  11.924   2.093
68592W        W40208  38.764  29.568   4.600
68593W        W40209  24.559  31.743   0.973
68594W        W40210   0.969   7.724  11.569
68595W        W40211   3.816  21.480   4.050
68596W        W40212  23.231   4.830  13.349
68597W        W40213  40.287  10.162  12.938
68598W        W40214   2.854  25.153   4.217
68599W        W40215  26.517   3.752   2.201
68600W        W40216  20.698  40.879  14.392
68601W        W40217  13.195  37.301  12.439
68602W        W40218   9.274  13.087  10.843
68603W        W40219  39.235   5.386   4.177
68604W        W40220  36.366   8.926   4.297
68605W        W40221  25.238  16.773   3.663
68606W        W40222  42.379   4.556  13.340
68607W        W40223  17.574  23.665  13.987
68608W        W40224  44.476  23.181   2.316
68609W        W40225   6.938   8.709  14.350
68610W        W40226  36.523  10.418   3.121
68611W        W40227  31.352  14.527   2.364
68612W        W40228  26.126  13.670  10.571
68613W        W40229  10.591  43.879   0.966
68614W        W40230  35.549  39.485   4.672
68615W        W40231   4.529   5.669  12.992
68616W        W40232   5.574  34.583  13.027
68617W        W40233  40.590  16.312   2.033
68618W        W40234  23.237   2.274   2.069
68619W        W40235   4.015  32.631   1.496
68620W        W40236  23.805  18.211   2.685
68621W        W40237   7.972  29.486   3.665
68622W        W40238   2.019  34.012  12.431
68623W        W40239  20.507  33.145  10.715
68624W        W40240  13.984  44.037   1.301
68625W        W40241  15.707   6.521   1.678
68626W        W40242   4.880  35.546   4.347
68627W        W40243  28.624  26.537  13.872
68628W        W40244  33.373   4.278   1.440
68629W        W40245   6.023   4.438   3.424
68630W        W40246  43.869  33.745   0.525
68631W        W40247   6.727   3.625  13.347
68632W        W40248  26.784  12.675   3.143
68633W        W40249   7.095  38.810   2.822
68634W        W40250  27.777  30.239  10.714
68635W        W40251  37.899  38.408  11.102
68636W        W40252  10.915   5.209  13.491
68637W        W40253  33.904  13.563   0.302
68638W        W40254  38.818  36.151   1.456
68639W        W40255   1.210  39.979  10.892
68640W        W40256  40.121  19.260  11.043
68641W        W40257  17.710  44.228   1.633
68642W        W40258  11.074  31.163  11.476
68643W        W40259   9.202   5.886   1.293
68644W        W40260  30.585  24.096   3.937
68645W        W40261  26.917  12.658  10.723
68646W        W40262  16.636  30.667   1.922
68647W        W40263  10.144  32.414   4.193
68648W        W40264  26.245  39.495   4.190
68649W        W40265  18.099  26.116   1.539
68650W        W40266  20.177  18.611   5.058
68651W        W40267  21.638  37.604  12.632
68652W        W40268  41.357   3.661   2.497
68653W        W40269  11.132   7.902   3.973
68654W        W40270  30.625  38.393  12.900
68655W        W40271  16.664  33.844   0.431
68656W        W40272   4.575  20.721   2.212
68657W        W40273  22.355  26.566   0.369
68658W        W40274   7.374  21.200   0.026
68659W        W40275  39.966  20.056  11.207
68660W        W40276  13.218  25.692   0.208
68661W        W40277  29.718  33.786   2.806
68662W        W40278   0.773   4.623  10.682
68663W        W40279  27.077   1.801  14.301
68664W        W40280  37.635  39.710   1.356
68665W        W40281  18.842  16.810   4.818
68666W        W40282  20.831  35.909  11.201
68667W        W40283  31.615  13.226  14.712
68668W        W40284  30.097  13.749   2.203
68669W        W40285  37.431  44.468  13.767
68670W        W40286   2.712  34.925   0.992
68671W        W40287  35.163  18.406   3.582
68672W        W40288   6.537   4.936  13.879
68673W        W40289   2.815  19.768   1.907
68674W        W40290  19.084  28.671   0.049
68675W        W40291  26.145  24.983   4.136
68676W        W40292  10.379   8.083   0.532
68677W        W40293   8.612  38.486   3.387
68678W        W40294  18.534   6.975   2.915
68679W        W40295  25.091   7.681   1.396
68680W        W40296  16.730  43.461  14.731
68681W        W40297  14.102  16.893  12.332
68682W        W40298  31.976  22.784  12.301
68683W        W40299   4.145  33.904   4.947
68684W        W40300  39.593   1.338   4.333
68685W        W40301  38.266  29.137   5.194
68686W        W40302  12.285  38.827   2.134
68687W        W40303  28.410  11.354   3.197
68688W        W40304  20.648  33.502   4.346
68689W        W40305  37.509  18.182   4.242
68690W        W40306  16.843  34.266   4.118
68691W        W40307   5.327   8.954   0.865
68692W        W40308  23.645  36.291  12.890
68693W        W40309  33.191  13.315   0.786
68694W        W40310  33.929   2.079   0.509
68695W        W40311  35.081  25.968  11.566
68696W        W40312  39.372  35.788   4.746
68697W        W40313   3.943  44.454  10.952
68698W        W40314  26.580   4.259   2.176
68699W        W40315  12.774  10.711   4.565
68700W        W40316   8.245  17.796  12.161
68701W        W40317  33.928  19.191  10.728
68702W        W40318  18.331  14.361  14.268
68703W        W40319  32.704  39.119   4.566
68704W        W40320  14.579   2.830  13.439
68705W        W40321  24.043  11.877  12.069
68706W        W40322  32.406   5.900   0.483
68707W        W40323  21.828  21.176   1.883
68708W        W40324  37.973  43.190   3.796
68709W        W40325  41.280  33.095   4.642
68710W        W40326  39.132   2.173   4.070
68711W        W40327  41.526  10.430   0.258
68712W        W40328  31.293   8.626   0.284
68713W        W40329  15.785   1.405  11.508
68714W        W40330  23.274  28.166  13.453
68715W        W40331  13.116  16.664   0.634
68716W        W40332  38.440   9.851   2.231
68717W        W40333  15.249  42.481  12.057
68718W        W40334  23.470  18.258  13.974
68719W        W40335  20.870  39.460   3.244
68720W        W40336  29.496   9.984  14.380
68721W        W40337  31.130  44.808  11.301
68722W        W40338  21.984  20.778   1.300
68723W        W40339  13.758  39.454  12.348
68724W        W40340  27.394  12.076  12.550
68725W        W40341  19.785  12.429   4.228
68726W        W40342  16.754  40.620  14.847
68727W        W40343  15.831  17.222  14.837
68728W        W40344  17.537  17.693  14.722
68729W        W40345  19.688   0.221  10.769
68730W        W40346  16.098  42.562   2.151
68731W        W40347   8.414  26.968  12.938
68732W        W40348  40.109  19.547  13.826
68733W        W40349  40.928   3.420   2.676
68734W        W40350  29.003   8.643   0.442
68735W        W40351  10.168  15.886  11.495
68736W        W40352  14.034  34.111   4.677
68737W        W40353  10.294   8.157   2.240
68738W        W40354  33.311  38.007  13.859
68739W        W40355  36.596  33.827  13.995
68740W        W40356  29.224  23.777  14.246
68741W        W40357  17.010   4.140  11.095
68742W        W40358   4.822   6.478  11.163
68743W        W40359   4.653   5.263  12.365
68744W        W40360  10.058  21.767   4.299
68745W        W40361  28.853  12.191  14.685
68746W        W40362  11.648   7.794  14.778
68747W        W40363  32.883  10.743   0.003
68748W        W40364  24.590  29.077   1.882
68749W        W40365  17.095  38.493   4.862
68750W        W40366  12.336  25.619   1.401
68751W        W40367  17.576  21.425   3.279
68752W        W40368  14.459   7.764   3.656
68753W        W40369  17.229  14.553   3.365
68754W        W40370  41.477  14.848  10.843
68755W        W40371  16.649  43.905  13.954
68756W        W40372  16.678  23.474   0.382
68757W        W40373  20.229  39.207  10.700
68758W        W40374  28.952  38.830   4.152
68759W        W40375  19.971  34.951   4.579
68760W        W40376  33.375  14.116  12.507
68761W        W40377   3.673  21.029   0.349
68762W        W40378  10.045  22.013  11.434
68763W        W40379   6.961  15.730   0.467
68764W        W40380  24.479  44.400   4.162
68765W        W40381  17.973  18.331   1.433
68766W        W40382  32.967  12.605   1.610
68767W        W40383   0.757   0.491  14.226
68768W        W40384   8.142   1.493   1.348
68769W        W40385  40.009  24.574   0.765
68770W        W40386  20.066  16.986   2.235
68771W        W40387  31.967   0.791   2.820
68772W        W40388  11.370  18.722  14.913
68773W        W40389  33.000   5.630  11.017
68774W        W40390   9.497   5.932   2.309
68775W        W40391   4.026  22.726   1.317
68776W        W40392   0.796   8.167  13.968
68777W        W40393  26.679  44.936   4.253
68778W        W40394   6.088  20.096   2.887
68779W        W40395   7.080   7.373  11.973
68780W        W40396  41.278  11.748  14.212
68781W        W40397  44.688   7.163  10.911
68782W        W40398  39.554  14.672   3.161
68783W        W40399  40.903  11.574   0.809
68784W        W40400  16.621  39.142   0.778
68785W        W40401  41.840   9.192   3.221
68786W        W40402   0.757   8.384  14.453
68787W        W40403  19.616  42.375  12.466
68788W        W40404  12.907  27.411   1.397
68789W        W40405  43.480  11.098  12.163
68790W        W40406  24.591  27.848   1.329
68791W        W40407  28.734  23.436  14.399
68792W        W40408  17.576  24.004   0.892
68793W        W40409  40.450   4.199   4.740
68794W        W40410  42.018  12.707  13.940
68795W        W40411  11.135  24.548  11.591
68796W        W40412  18.254  17.081   0.837
68797W        W40413  37.822  41.829  13.926
68798W        W40414   5.305  25.577   2.415
68799W        W40415  29.832  27.891   3.171
68800W        W40416  12.825  29.849   0.920
68801W        W40417  35.458   8.215   4.875
68802W        W40418  31.746  29.389   2.164
68803W        W40419   2.485   7.163   5.053
68804W        W40420  14.321  15.341   2.952
68805W        W40421   3.446   9.498  14.745
68806W        W40422  40.583   6.346   5.070
68807W        W40423  36.591  14.220   3.723
68808W        W40424  23.835   1.678   3.339
68809W        W40425  16.588  24.047   1.784
68810W        W40426  10.377  23.021  11.598
68811W        W40427  29.546  43.975  11.386
68812W        W40428  18.162  15.399  11.909
68813W        W40429   3.692  33.122   0.315
68814W        W40430  30.037  43.336  13.085
68815W        W40431  38.817  43.215   2.655
68816W        W40432  30.554  21.311  11.224
68817W        W40433   1.241  40.735   4.583
68818W        W40434  26.569  26.963  10.642
68819W        W40435  21.825  19.358  14.942
68820W        W40436  10.275  41.812   1.766
68821W        W40437  19.236  13.584   3.428
68822W        W40438   6.144  39.429  13.607
68823W        W40439   4.071  28.095  14.871
68824W        W40440  34.512  10.935  10.517
68825W        W40441  11.001  20.595   3.691
68826W        W40442  33.551  18.025   0.952
68827W        W40443  21.547  39.132   0.889
68828W        W40444   9.144  34.732   2.742
68829W        W40445   1.775  42.343  11.649
68830W        W40446  38.597  30.724  13.974
68831W        W40447   3.792  15.520  12.247
68832W        W40448  13.198  20.823   3.193
68833W        W40449  21.132  10.004   3.746
68834W        W40450   7.120  33.381  13.931
68835W        W40451  33.922  44.901   4.757
68836W        W40452  29.934  41.325  13.509
68837W        W40453  42.190  17.743  12.829
68838W        W40454  43.335  38.754   0.190
68839W        W40455  20.596  27.508  14.357
68840W        W40456  20.934  39.237   2.746
68841W        W40457  28.533  28.857   4.205
68842W        W40458  26.077  35.280  13.339
68843W        W40459   0.316  12.829  14.396
68844W        W40460   2.920  33.957   0.206
68845W        W40461  13.347   0.522   3.727
68846W        W40462  24.490  25.965   2.859
68847W        W40463  18.163   8.782  14.818
68848W        W40464  35.100  38.392  13.707
68849W        W40465  35.501   0.087  11.530
68850W        W40466  17.170   8.415   3.455
68851W        W40467   1.383  43.374   0.942
68852W        W40468   1.949  30.077   4.797
68853W        W40469   1.000  39.774  12.691
68854W        W40470  15.573  30.593   1.237
68855W        W40471  27.374  10.427   1.926
68856W        W40472   2.334  13.245   3.268
68857W        W40473   9.637   6.750  13.412
68858W        W40474   0.719  23.106  13.547
68859W        W40475  38.048   2.653  13.973
68860W        W40476  25.917  15.331   4.136
68861W        W40477  28.658  35.831   3.238
68862W        W40478   2.328  21.688   0.582
68863W        W40479  19.341  22.695  12.998
68864W        W40480  38.468  13.034   4.045
68865W        W40481  14.057  18.753  11.112
68866W        W40482  29.134  42.003   2.794
68867W        W40483  24.800  41.934   2.108
68868W        W40484  11.137   8.868  11.370
68869W        W40485  42.896  43.487   0.678
68870W        W40486  36.487   0.929   3.732
68871W        W40487  17.458  25.126   3.257
68872W        W40488  30.071  29.122  10.702
68873W        W40489   8.325  33.074  11.372
68874W        W40490  31.156  20.514  14.948
68875W        W40491  20.469  24.444   3.835
68876W        W40492  20.780  17.089  12.891
68877W        W40493   7.196   6.257   3.212
68878W        W40494   6.157  30.417   0.210
68879W        W40495  10.657   8.828   1.690
68880W        W40496   4.252  26.533  13.306
68881W        W40497  15.095  20.626  13.354
68882W        W40498  25.644   9.366  13.993
68883W        W40499  41.831  25.931   3.841
68884W        W40500   6.355   5.453  10.583
68885W        W40501   0.763  14.119  12.358
68886W        W40502  42.431  30.814   0.780
68887W        W40503  29.497   1.934   0.279
68888W        W40504  42.816  43.101   4.776
68889W        W40505  22.855  21.800   2.210
68890W        W40506   2.747   4.110   1.023
68891W        W40507  29.547   4.181  12.453
68892W        W40508   1.752  12.692   0.718
68893W        W40509   6.675   9.368   3.581
68894W        W40510  21.430  41.412  12.777
68895W        W40511  44.913  32.378  13.007
68896W        W40512  36.613  39.714   9.890
68897W        W40513  43.805  24.226  12.997
68898W        W40514  22.933  32.082  11.666
68899W        W40515   2.969   6.589  11.455
68900W        W40516  17.769  20.617  11.348
68901W        W40517  15.140   0.519   3.252
68902W        W40518  23.716  31.445   3.198
68903W        W40519   2.834   8.797   3.194
68904W        W40520  35.566   7.244   2.296
68905W        W40521  19.983   3.370   2.810
68906W        W40522  28.147  39.481  12.535
68907W        W40523   1.358  41.266   0.241
68908W        W40524   1.017   8.783  12.786
68909W        W40525  37.993  14.268   2.690
68910W        W40526   2.685   7.652   1.409
68911W        W40527  16.892  16.589   0.472
68912W        W40528  33.320  16.193   2.696
68913W        W40529  21.557  44.533  11.128
68914W        W40530  19.636   0.981   2.404
68915W        W40531  37.491  42.945   2.711
68916W        W40532  21.624  13.598  12.096
68917W        W40533   8.654   0.085  14.026
68918W        W40534  30.509  28.041  14.792
68919W        W40535  20.211  33.590  10.845
68920W        W40536  14.677  44.168   4.712
68921W        W40537  31.853  19.231  12.784
68922W        W40538  15.159   3.198   0.914
68923W        W40539  22.649  23.624   4.661
68924W        W40540  10.914  30.879   3.655
68925W        W40541  35.553  42.821   1.446
68926W        W40542  34.873  34.137   4.652
68927W        W40543  25.040  13.849  14.277
68928W        W40544  41.840  30.474  11.173
68929W        W40545  21.779   3.812   4.277
68930W        W40546   7.911  38.153  14.464
68931W        W40547  38.082   5.779   3.750
68932W        W40548  13.075  23.582   4.799
68933W        W40549  44.757  12.200   3.335
68934W        W40550  27.014   7.848   1.322
68935W        W40551   3.177  38.881  14.086
68936W        W40552  27.575   3.342   1.867
68937W        W40553   9.935   9.150   3.743
68938W        W40554  39.105  21.291   2.061
68939W        W40555  40.207  37.586  10.871
68940W        W40556  18.220  39.110  12.101
68941W        W40557  34.975  29.076  11.911
68942W        W40558   6.453   3.806   4.234
68943W        W40559  41.380   6.479  12.066
68944W        W40560   8.355  40.645   4.072
68945W        W40561  38.811   6.663  11.057
68946W        W40562  44.218  39.084   4.152
68947W        W40563  26.762  17.548   3.691
68948W        W40564  44.360  42.249  13.820
68949W        W40565  16.613  24.918  10.658
68950W        W40566  10.374  40.599  13.295
68951W        W40567  40.048  32.547   1.489
68952W        W40568  41.741  31.383   3.806
68953W        W40569  26.136  23.028  11.883
68954W        W40570  25.808  31.285  12.068
68955W        W40571  24.509   6.281   4.705
68956W        W40572  11.714   2.737  12.567
68957W        W40573  14.049   5.889   0.817
68958W        W40574   0.446  12.069   2.871
68959W        W40575  12.076  26.569  11.615
68960W        W40576   5.937  31.325   1.749
68961W        W40577  19.562  11.473  11.473
68962W        W40578  24.915  16.548  12.011
68963W        W40579  31.580  24.937  11.454
68964W        W40580  37.310  35.040   2.352
68965W        W40581  39.903   5.560   1.941
68966W        W40582  42.507   7.936  10.692
68967W        W40583  15.149  18.078   2.809
68968W        W40584  43.131  20.961   0.616
68969W        W40585  12.792  25.635  13.478
68970W        W40586  36.876  26.917  10.747
68971W        W40587  37.811  33.409   4.179
68972W        W40588  35.731  16.338  14.974
68973W        W40589  17.465  11.923  11.255
68974W        W40590  28.967  11.829  12.906
68975W        W40591  38.267  28.408  12.565
68976W        W40592   1.160   6.212  11.521
68977W        W40593  33.027  14.214   0.775
68978W        W40594  42.944  16.812  14.436
68979W        W40595  38.863  35.063   3.254
68980W        W40596   1.897   6.199  10.756
68981W        W40597  18.801   5.695  11.137
68982W        W40598  21.523  17.393  11.669
68983W        W40599   4.675  13.056   1.804
68984W        W40600   7.419   0.002  12.052
68985W        W40601  33.516  36.850   0.883
68986W        W40602  27.365  16.188   0.961
68987W        W40603  18.546  10.774  13.494
68988W        W40604  29.009  17.312   4.485
68989W        W40605   3.944  14.704   0.028
68990W        W40606  28.764  21.761   2.730
68991W        W40607  15.670  29.384   0.502
68992W        W40608  12.194  44.240  11.947
68993W        W40609  11.174  19.082   4.576
68994W        W40610  23.000   2.982  14.044
68995W        W40611   1.994  35.766  11.120
68996W        W40612  14.150  42.895  10.548
68997W        W40613  29.557  28.656   4.771
68998W        W40614  11.849  40.646   3.164
68999W        W40615  21.558  13.301  14.325
69000W        W40616  18.562  35.186   1.358
69001W        W40617  25.124  19.136  12.836
69002W        W40618  21.337  33.015   1.276
69003W        W40619  37.420  11.649  11.096
69004W        W40620  20.022  21.719   2.782
69005W        W40621  18.658  10.653  14.019
69006W        W40622  37.830  16.583   0.456
69007W        W40623  12.338  28.076  13.864
69008W        W40624   2.318  10.598  11.438
69009W        W40625  21.329  24.425  13.880
69010W        W40626   2.900  11.707   2.715
69011W        W40627  22.665   5.443  10.702
69012W        W40628   8.207  19.546   2.375
69013W        W40629  11.853  30.797   5.057
69014W        W40630  29.353  44.984   1.899
69015W        W40631  13.862   5.519  12.013
69016W        W40632  17.543   6.892   0.925
69017W        W40633  27.134  44.884   3.848
69018W        W40634  19.284  43.438   1.090
69019W        W40635  21.335   2.322  13.006
69020W        W40636  37.101  33.354   3.563
69021W        W40637  12.798   3.926  11.823
69022W        W40638  22.320  36.908  10.450
69023W        W40639  10.642  11.928  10.743
69024W        W40640   3.891  31.675   4.603
69025W        W40641  38.348   9.670   0.830
69026W        W40642  42.494  19.362  10.500
69027W        W40643   5.285  29.715   4.143
69028W        W40644  22.068  17.202  12.501
69029W        W40645  24.995  35.485  12.537
69030W        W40646  27.207  41.340  13.794
69031W        W40647   8.171  22.636   0.842
69032W        W40648  38.499   2.751  11.496
69033W        W40649  21.287  30.497  14.851
69034W        W40650  22.331  23.548  10.703
69035W        W40651   7.828  31.884  12.077
69036W        W40652  26.501  20.381   1.639
69037W        W40653   7.872  33.688  13.610
69038W        W40654  22.204  27.289  13.810
69039W        W40655  33.964  43.998  13.006
69040W        W40656  14.791   9.202  10.993
69041W        W40657  22.029   2.910   1.344
69042W        W40658   8.839  34.923   2.241
69043W        W40659  39.227  10.665   4.585
69044W        W40660   6.632  38.815   0.904
69045W        W40661  42.242  14.233  14.947
69046W        W40662  12.063  44.523  11.499
69047W        W40663  12.342   6.655  14.415
69048W        W40664  22.479  13.204  10.681
69049W        W40665  23.218   4.833  14.708
69050W        W40666  20.603  25.635  12.313
69051W        W40667   3.941  29.750   0.420
69052W        W40668  41.390  30.759  12.568
69053W        W40669  32.597  34.540  14.022
69054W        W40670   4.263  31.037  14.142
69055W        W40671   4.837  24.431  14.322
69056W        W40672  12.270  14.571   2.784
69057W        W40673  43.131  30.541  13.911
69058W        W40674  41.586  35.681  10.647
69059W        W40675  29.901  42.026  11.926
69060W        W40676  27.592  39.459   4.724
69061W        W40677   7.439   4.749   4.579
69062W        W40678  11.819  42.318   4.162
69063W        W40679  41.616   1.513  11.146
69064W        W40680  33.134  14.318  12.075
69065W        W40681  19.586  15.871   3.292
69066W        W40682  35.898  19.608   0.470
69067W        W40683  31.507   7.050  12.550
69068W        W40684   5.149  41.059  10.856
69069W        W40685  14.966   4.933  12.432
69070W        W40686  18.122   2.247  11.236
69071W        W40687  11.317   3.799   4.614
69072W        W40688  22.589   0.204  12.846
69073W        W40689  39.766  28.921  14.157
69074W        W40690  34.609  30.431   2.321
69075W        W40691  44.733  39.788  14.153
69076W        W40692  29.265  16.258   3.788
69077W        W40693  43.288  14.727  12.987
69078W        W40694   9.195  40.786  14.897
69079W        W40695  39.525  27.336  11.075
69080W        W40696  39.300   1.711  12.322
69081W        W40697   4.417   0.747  12.219
69082W        W40698  18.188  21.050   1.778
69083W        W40699   1.205   3.537   2.043
69084W        W40700  37.184  25.041  10.694
69085W        W40701  41.574   9.264  12.063
69086W        W40702  16.018  33.577  10.126
69087W        W40703  10.242  19.647   0.000
69088W        W40704   3.472   8.780  13.469
69089W        W40705   3.029   0.459  11.158
69090W        W40706  13.968  15.290  11.171
69091W        W40707  28.092  29.141  12.613
69092W        W40708  16.936  18.025  10.451
69093W        W40709  12.286  25.125   4.569
69094W        W40710  32.145  23.503   1.845
69095W        W40711   5.640  34.767  11.371
69096W        W40712  19.243  21.063   3.706
69097W        W40713  12.322  41.200   3.717
69098W        W40714  22.935  34.687   0.005
69099W        W40715   2.373  13.619  13.937
69100W        W40716  17.823  38.495   0.825
69101W        W40717  44.793   4.266   1.362
69102W        W40718  39.691   4.004   2.666
69103W        W40719  24.289  15.822   5.059
69104W        W40720  43.075  43.376   3.589
69105W        W40721  43.209  20.978   3.681
69106W        W40722   4.570  39.638   1.279
69107W        W40723  29.196  35.100   3.069
69108W        W40724  37.489  25.847  11.482
69109W        W40725  38.531   5.873  11.945
69110W        W40726  44.833  43.901   4.900
69111W        W40727  16.526  18.264   4.706
69112W        W40728  37.658   6.279   5.098
69113W        W40729  33.985  39.178   0.960
69114W        W40730  31.973  11.578   3.383
69115W        W40731  22.073  17.184  11.599
69116W        W40732   7.024  24.690   1.216
69117W        W40733   3.536  35.983  14.278
69118W        W40734  24.778   3.670   2.456
69119W        W40735   6.692   8.290   1.344
69120W        W40736  20.813   0.767  13.947
69121W        W40737  10.911  27.010   1.828
69122W        W40738   8.601  25.603  13.153
69123W        W40739  39.735  37.358  11.594
69124W        W40740   0.749  38.044   1.371
69125W        W40741  25.184  10.307   3.127
69126W        W40742  39.636  37.901  11.554
69127W        W40743  43.240   2.424  13.482
69128W        W40744  14.423  12.590  12.891
69129W        W40745  14.782   1.773  10.733
69130W        W40746  39.744   4.001   3.185
69131W        W40747   1.797  14.271  10.962
69132W        W40748   2.017  13.105   0.882
69133W        W40749   8.154  42.092   0.079
69134W        W40750  38.826   3.309  14.141
69135W        W40751  10.427  29.201   1.207
69136W        W40752  31.652  18.768  12.050
69137W        W40753  40.128   8.244   0.849
69138W        W40754  30.911  43.523   1.294
69139W        W40755  36.914  24.129   0.511
69140W        W40756  43.026  36.281  13.876
69141W        W40757   0.372  39.981  11.604
69142W        W40758   3.213  32.307   4.424
69143W        W40759  13.672   6.419  12.467
69144W        W40760  39.492  36.390  14.777
69145W        W40761  40.336  34.530   1.429
69146W        W40762  23.104  37.007  11.171
69147W        W40763  21.925  35.306   3.474
69148W        W40764  20.550  29.197   1.017
69149W        W40765  17.811  17.165   3.274
69150W        W40766   1.459  27.125   3.298
69151W        W40767  14.784  24.052   3.394
69152W        W40768  13.123  34.536   4.205
69153W        W40769  32.085  35.364   0.558
69154W        W40770  19.193  38.300  14.195
69155W        W40771  15.376  43.460  14.480
69156W        W40772  14.150  11.248  13.166
69157W        W40773   8.242   4.838  11.093
69158W        W40774  28.494  23.275   4.787
69159W        W40775  41.798  35.764  11.130
69160W        W40776  18.860  39.384  14.533
69161W        W40777  10.519  17.381  12.950
69162W        W40778  27.182  32.004   1.495
69163W        W40779   8.730   2.237  12.894
69164W        W40780  23.161  20.258   1.880
69165W        W40781  35.381   5.644   0.860
69166W        W40782  32.483  22.462   4.238
69167W        W40783  11.914  11.345  13.383
69168W        W40784  18.989  30.029  12.978
69169W        W40785  30.034  28.857  14.928
69170W        W40786  42.670  39.550  13.254
69171W        W40787  41.337  24.434  12.094
69172W        W40788  37.166  13.943   2.176
69173W        W40789  11.854   3.261  12.537
69174W        W40790  39.117  39.129   3.725
69175W        W40791  41.520  43.517   4.484
69176W        W40792  24.726   8.126  12.326
69177W        W40793  31.454  42.225   0.407
69178W        W40794   9.828   5.435   0.179
69179W        W40795  15.371  37.939   3.744
69180W        W40796  15.766  13.186   3.249
69181W        W40797  13.673  39.978   4.086
69182W        W40798  34.098  18.132   2.731
69183W        W40799   9.274  20.686  10.845
69184W        W40800  36.413  30.890   2.301
69185W        W40801  23.426   0.394  11.039
69186W        W40802  38.127   7.473   4.199
69187W        W40803  21.440  18.680  13.984
69188W        W40804  36.556   7.096  10.416
69189W        W40805   7.938  35.366   2.106
69190W        W40806  39.639  16.404   1.446
69191W        W40807  20.636  29.621  12.947
69192W        W40808  42.586   8.409  14.502
69193W        W40809  40.056  17.103  13.954
69194W        W40810   6.614   6.752   1.640
69195W        W40811   7.971  39.590  13.973
69196W        W40812  30.621  41.246   2.300
69197W        W40813   6.773   7.363  12.441
69198W        W40814  41.903  23.442  13.505
69199W        W40815  11.341  24.298   3.944
69200W        W40816   8.431  37.779   1.717
69201W        W40817   9.954  42.363   2.893
69202W        W40818   0.959  31.868  12.586
69203W        W40819  33.184  15.798  14.609
69204W        W40820  35.950  16.574  14.571
69205W        W40821   9.207  11.425  10.687
69206W        W40822  38.802  11.737   1.014
69207W        W40823  39.276  36.811  14.989
69208W        W40824  27.319  21.587   2.870
69209W        W40825  14.766   5.467   0.720
69210W        W40826  21.923  16.305  10.705
69211W        W40827  21.584  39.763  11.968
69212W        W40828  36.363  32.614  12.800
69213W        W40829   5.308  20.030   4.233
69214W        W40830   2.554  14.107   4.279
69215W        W40831  28.570  25.062   2.306
69216W        W40832   6.697  37.833   3.991
69217W        W40833   7.862  19.135  14.056
69218W        W40834  11.858   2.044   3.681
69219W        W40835  26.769  12.205   4.203
69220W        W40836  43.115  43.526   4.517
69221W        W40837  25.437  33.598   1.407
69222W        W40838  12.166  40.571  12.500
69223W        W40839  35.136  24.985  12.908
69224W        W40840  31.583   0.869   0.660
69225W        W40841  12.843  19.596   3.731
69226W        W40842  35.993  10.052  12.201
69227W        W40843   6.910  14.817   4.475
69228W        W40844  36.659  12.825  14.276
69229W        W40845  40.823  27.556  13.844
69230W        W40846  43.494  30.556   3.614
69231W        W40847  34.006  19.978  14.364
69232W        W40848  28.076  39.958  12.650
69233W        W40849   4.788  15.042   2.320
69234W        W40850   1.943   1.113   0.946
69235W        W40851  13.597  22.302   0.452
69236W        W40852  35.116  40.776   1.871
69237W        W40853  27.980  20.355  11.520
69238W        W40854  27.550   4.860  12.031
69239W        W40855   0.067  36.867   1.851
69240W        W40856  44.008  21.050   2.159
69241W        W40857  41.438  35.073  11.401
69242W        W40858  24.450   6.818   3.875
69243W        W40859  44.872  17.221   0.462
69244W        W40860  15.195  41.972   0.401
69245W        W40861  32.688   9.271   2.118
69246W        W40862  35.067   3.469  13.430
69247W        W40863  20.718  37.008   0.915
69248W        W40864  31.990   8.207   3.158
69249W        W40865  44.891  37.689  12.842
69250W        W40866  34.479  19.297  10.880
69251W        W40867  44.520  21.705  14.239
69252W        W40868  23.232  17.859   3.254
69253W        W40869  20.808  10.253  13.608
69254W        W40870  42.308  41.855   0.001
69255W        W40871  30.512  41.012   4.622
69256W        W40872  14.043  17.090   2.753
69257W        W40873   8.348  37.820  14.525
69258W        W40874  18.080  33.999   3.642
69259W        W40875  21.599  19.674   1.227
69260W        W40876   9.777  17.357  13.538
69261W        W40877  23.763  11.690   2.279
69262W        W40878  40.674  33.936   4.517
69263W        W40879   8.279  30.928  10.599
69264W        W40880  34.919  42.042  10.691
69265W        W40881   7.378  44.428   3.777
69266W        W40882   4.827  34.498   3.762
69267W        W40883  17.681  37.082  13.852
69268W        W40884  42.056  35.869  11.611
69269W        W40885  15.203   7.824  14.754
69270W        W40886  10.090   0.674   3.211
69271W        W40887  39.871  43.536   0.225
69272W        W40888  19.637  34.439   3.271
69273W        W40889  33.152  18.492   4.289
69274W        W40890  38.660  12.017   1.419
69275W        W40891   6.896  21.682   2.322
69276W        W40892  18.377  34.337  13.049
69277W        W40893  21.527  12.546   0.849
69278W        W40894  12.758  11.026   3.602
69279W        W40895  34.043  14.655   1.766
69280W        W40896   1.925  27.671  11.594
69281W        W40897  14.286  42.750   0.891
69282W        W40898  36.943  26.007   2.680
69283W        W40899  41.287  12.176   0.438
69284W        W40900   2.407  34.949   1.825
69285W        W40901  24.111  34.291  13.016
69286W        W40902  34.356  34.529  14.459
69287W        W40903  27.555  43.811  11.809
69288W        W40904  25.680  42.483  11.142
69289W        W40905  30.182   8.429   2.138
69290W        W40906  14.171  36.361   1.720
69291W        W40907   5.718  15.148   0.462
69292W        W40908  20.671  20.307   2.744
69293W        W40909  22.155   8.812  13.917
69294W        W40910  38.145  21.938  12.010
69295W        W40911  21.504  37.454   4.643
69296W        W40912  26.988   9.814   1.210
69297W        W40913  37.032  10.113  13.733
69298W        W40914  31.403  31.558   4.640
69299W        W40915  28.718   3.850  14.000
69300W        W40916  31.418  44.404   5.510
69301W        W40917  19.603   0.407   3.645
69302W        W40918  21.199  32.400  11.702
69303W        W40919  35.446  39.123  13.714
69304W        W40920  38.997  20.008  11.421
69305W        W40921  42.535  43.039  12.315
69306W        W40922  33.583  26.419  13.524
69307W        W40923  43.766   3.490  14.950
69308W        W40924   1.098  19.712   0.281
69309W        W40925  19.113  42.103  12.991
69310W        W40926   8.082  29.509  11.593
69311W        W40927  43.999  31.519  11.656
69312W        W40928  18.712  24.785   4.103
69313W        W40929  41.407  31.512   0.886
69314W        W40930  44.618  27.522  13.307
69315W        W40931  27.162  43.495  11.923
69316W        W40932  40.936  14.732  14.454
69317W        W40933  34.680  38.102  11.148
69318W        W40934   3.578  34.183   1.907
69319W        W40935  11.348  19.134   0.849
69320W        W40936   7.984  32.455   1.817
69321W        W40937  15.297  33.999   3.244
69322W        W40938   6.080  26.038  11.959
69323W        W40939  23.466  21.016   2.259
69324W        W40940  13.528  23.822  14.574
69325W        W40941  16.554  44.316   2.923
69326W        W40942  32.559  19.180  11.760
69327W        W40943  29.975  21.947   0.692
69328W        W40944  24.690   7.904  11.476
69329W        W40945  33.844  33.159   0.701
69330W        W40946  32.967  44.805   4.661
69331W        W40947  37.926  43.517  12.135
69332W        W40948  18.322  35.948  12.025
69333W        W40949  22.593  20.745   0.703
69334W        W40950  39.686  24.148  12.644
69335W        W40951  16.084  26.071   4.233
69336W        W40952  17.431   3.800   4.207
69337W        W40953  13.650  32.118   4.933
69338W        W40954  36.347   0.018  10.361
69339W        W40955   2.888   5.116   1.307
69340W        W40956  20.653  14.068   0.118
69341W        W40957   6.500  21.195  13.492
69342W        W40958   8.071  18.312  13.893
69343W        W40959  26.576  39.586  14.321
69344W        W40960  34.851  15.288   2.431
69345W        W40961  42.967  31.802  13.531
69346W        W40962   9.633  15.260   2.381
69347W        W40963  14.220  19.541   1.977
69348W        W40964  43.539  27.553   3.182
69349W        W40965  32.294  20.275  13.521
69350W        W40966  41.050   6.351  14.629
69351W        W40967   1.926  41.253  12.943
69352W        W40968  18.280  39.856   1.210
69353W        W40969  33.451  40.845   1.552
69354W        W40970   5.829  34.886   2.376
69355W        W40971   3.552  44.011   0.685
69356W        W40972  44.017  13.222   4.735
69357W        W40973  42.700   9.706   4.252
69358W        W40974  10.115  12.137  13.031
69359W        W40975  10.592   3.753  11.648
69360W        W40976   1.380  18.318   2.236
69361W        W40977  17.456   9.306   1.364
69362W        W40978  39.675  36.463  10.726
69363W        W40979  36.514   0.915  10.658
69364W        W40980   0.766   0.765   3.717
69365W        W40981  26.185  31.322   4.041
69366W        W40982  26.746   8.847   3.577
69367W        W40983  22.967  17.316   2.221
69368W        W40984  30.981   8.489  14.891
69369W        W40985  39.073  26.572  10.692
69370W        W40986  35.866  18.551  11.072
69371W        W40987  29.011   7.972   2.072
69372W        W40988  13.925  39.216   1.028
69373W        W40989  10.308  39.945  14.014
69374W        W40990  42.563  17.750  12.428
69375W        W40991  30.604  24.058  10.470
69376W        W40992  13.629  23.643   4.631
69377W        W40993  23.265   9.690   4.598
69378W        W40994  18.678  39.159  12.850
69379W        W40995  34.103  32.730   0.365
69380W        W40996  38.096  32.356  12.151
69381W        W40997  32.050  37.318   2.477
69382W        W40998  14.596  43.254   3.619
69383W        W40999  33.737  25.715  11.645
69384W        W41000  13.692  17.975   4.611
69385W        W41001  30.160  13.553  12.018
69386W        W41002  27.597   6.425  10.364
69387W        W41003   8.665  34.029  13.581
69388W        W41004  34.884  29.254   4.137
69389W        W41005  36.375  24.526  13.815
69390W        W41006  20.811  29.068   2.437
69391W        W41007  34.086  35.896   4.076
69392W        W41008  40.522   9.323   2.787
69393W        W41009  33.925  42.089  12.848
69394W        W41010   3.045  17.213  14.331
69395W        W41011  10.144  18.048   2.404
69396W        W41012  30.680  42.463  11.826
69397W        W41013  37.856  38.450   3.797
69398W        W41014  22.248  28.008   3.244
69399W        W41015  22.419  35.604   2.512
69400W        W41016  30.402  34.511   3.971
69401W        W41017   6.435  28.004   5.099
69402W        W41018  44.155  14.242  11.921
69403W        W41019  43.803  11.754   2.232
69404W        W41020   4.744   8.208  10.737
69405W        W41021  28.546  34.073   3.694
69406W        W41022   3.982  41.856   2.835
69407W        W41023  11.854  22.455   4.258
69408W        W41024  20.479  16.368   2.883
69409W        W41025  10.613  26.185  13.915
69410W        W41026  15.689  28.511   4.589
69411W        W41027  11.804  17.233  14.460
69412W        W41028   5.888  38.310  13.520
69413W        W41029  20.834  21.547   3.175
69414W        W41030  18.082   3.945   1.448
69415W        W41031   0.052   9.702   1.896
69416W        W41032  17.277  29.463   3.232
69417W        W41033  31.653  29.720   0.434
69418W        W41034  17.873  24.265  11.172
69419W        W41035   5.267  33.783  13.008
69420W        W41036  18.860  18.035  13.412
69421W        W41037   0.967  16.304  14.006
69422W        W41038   1.698  32.007   3.192
69423W        W41039  33.843  15.435   4.152
69424W        W41040  13.608  12.382  11.251
69425W        W41041  42.371  38.316  12.479
69426W        W41042  34.878  22.727   1.843
69427W        W41043  34.685  30.461  11.171
69428W        W41044  30.861  37.451  10.286
69429W        W41045  15.167   9.609  11.180
69430W        W41046  27.044  10.393   4.112
69431W        W41047  28.455  10.273  12.546
69432W        W41048   3.951  14.255  12.457
69433W        W41049  16.774  26.660  11.156
69434W        W41050  44.508  15.797  12.594
69435W        W41051  29.359  30.173  14.983
69436W        W41052  43.838   3.682   2.197
69437W        W41053  44.770  14.340  12.068
69438W        W41054  10.164  27.189   1.114
69439W        W41055  34.015   5.224   0.695
69440W        W41056  26.257  23.105   1.755
69441W        W41057  19.655   1.671   0.942
69442W        W41058  14.238  38.786  13.878
69443W        W41059  31.209  30.530  11.022
69444W        W41060  13.861   1.872   3.894
69445W        W41061  25.760  36.770  12.007
69446W        W41062  24.608  36.326   2.788
69447W        W41063  44.615  35.658  13.530
69448W        W41064  40.933  27.995   1.864
69449W        W41065  42.497  12.671  13.665
69450W        W41066  15.890  40.928  13.764
69451W        W41067  26.641  17.146  14.339
69452W        W41068  37.844  12.168   4.377
69453W        W41069   9.592   3.387  12.790
69454W        W41070  15.664  23.604   3.132
69455W        W41071  19.262  19.996   2.695
69456W        W41072   7.023   4.285   0.297
69457W        W41073  44.215  16.830   3.787
69458W        W41074  33.591   9.865   4.640
69459W        W41075  11.173  16.280   3.955
69460W        W41076  41.269  23.127  10.601
69461W        W41077  22.828   4.599  11.241
69462W        W41078   4.896  16.056   2.337
69463W        W41079  35.893  17.335  13.847
69464W        W41080  14.521  44.576  10.680
69465W        W41081  40.975   2.455  11.124
69466W        W41082   3.373  30.427  13.090
69467W        W41083  10.779  18.210  13.525
69468W        W41084  44.028  34.346   0.372
69469W        W41085  26.116  10.556  11.595
69470W        W41086   7.442  36.107   3.612
69471W        W41087  29.386  28.017   5.084
69472W        W41088   1.137  26.573   2.349
69473W        W41089  34.031  29.741   0.641
69474W        W41090  25.685  14.510   3.743
69475W        W41091   8.639  24.286   3.693
69476W        W41092  43.871  17.198   3.918
69477W        W41093  10.240  19.490   2.204
69478W        W41094  43.285   8.263   3.204
69479W        W41095   7.694  32.508   1.403
69480W        W41096  23.756  14.289  14.510
69481W        W41097   8.170  31.987   1.692
69482W        W41098  41.848  20.573  11.649
69483W        W41099  35.998  13.036   0.243
69484W        W41100   6.983  25.140   2.615
69485W        W41101  22.486  18.260  13.937
69486W        W41102   8.862  33.390  13.561
69487W        W41103  39.973  13.051  10.634
69488W        W41104  27.105   9.362   2.886
69489W        W41105  34.466   9.166  11.184
69490W        W41106  16.251   6.542  11.589
69491W        W41107  18.650  36.468   0.637
69492W        W41108  25.417  13.742   2.205
69493W        W41109  35.527  34.265   1.870
69494W        W41110   7.860  41.948   0.486
69495W        W41111   4.479  26.691   4.634
69496W        W41112  33.413  21.260   0.494
69497W        W41113   0.892  27.640  11.527
69498W        W41114  39.871  42.307  14.353
69499W        W41115  35.366  16.133  12.442
69500W        W41116  29.050  26.568  11.487
69501W        W41117   5.870  40.597   0.643
69502W        W41118  35.164  17.327   0.819
69503W        W41119  35.480  18.053   3.776
69504W        W41120  34.839   5.373  13.431
69505W        W41121   7.856  26.670  10.767
69506W        W41122  31.677  15.827  13.959
69507W        W41123  40.546   1.232  12.953
69508W        W41124   1.369  16.626   2.920
69509W        W41125  33.904  17.830  12.892
69510W        W41126  24.166   3.089  11.388
69511W        W41127  40.424   2.045   4.642
69512W        W41128   7.769  40.959   1.458
69513W        W41129  23.559  19.507  10.752
69514W        W41130  43.823  37.126  11.587
69515W        W41131  17.497  40.903  12.834
69516W        W41132  13.838   6.776  11.073
69517W        W41133  14.341  26.594  10.618
69518W        W41134  13.229  43.439   1.406
69519W        W41135   2.984  28.413   2.271
69520W        W41136  24.110   5.019  10.644
69521W        W41137  39.674   3.100   4.236
69522W        W41138  13.092  34.763  13.125
69523W        W41139  32.823  33.335   0.898
69524W        W41140  36.337  22.623  11.444
69525W        W41141  11.157  39.853   1.639
69526W        W41142   2.213  29.546   3.279
69527W        W41143  40.604  36.038  10.567
69528W        W41144  22.604  24.475  14.248
69529W        W41145  11.906  26.091  13.463
69530W        W41146  30.036   4.693   1.195
69531W        W41147  19.457  35.475   4.170
69532W        W41148  22.234  20.251   2.834
69533W        W41149  20.321   3.935  14.550
69534W        W41150  36.164  38.007   1.209
69535W        W41151  31.124  28.142   1.907
69536W        W41152   1.894  19.252  14.262
69537W        W41153  14.070  21.435  12.183
69538W        W41154  21.198   6.806  11.811
69539W        W41155  41.825  43.063   4.577
69540W        W41156   7.342   7.223   0.454
69541W        W41157   9.619   4.948   2.250
69542W        W41158   0.207  39.334  11.147
69543W        W41159   7.158   4.585  12.049
69544W        W41160  11.284  37.537   2.735
69545W        W41161  25.508  12.097   3.179
69546W        W41162   9.761  15.887   3.907
69547W        W41163   8.624   1.053   3.204
69548W        W41164   2.005  38.077  10.552
69549W        W41165  23.153   6.307   2.424
69550W        W41166   7.409  37.612  11.515
69551W        W41167  25.989  28.958  14.389
69552W        W41168   5.248  21.223   0.033
69553W        W41169  25.391  16.328   3.299
69554W        W41170  39.866  22.635   1.010
69555W        W41171  25.648   5.790  13.506
69556W        W41172  11.836   9.805  12.093
69557W        W41173  34.531  35.444  10.809
69558W        W41174  23.258   6.258  13.714
69559W        W41175  11.862  20.111   1.344
69560W        W41176  28.067  13.493  13.843
69561W        W41177  37.764  32.869   4.142
69562W        W41178  20.252  21.764  10.674
69563W        W41179   7.781  39.499  10.702
69564W        W41180  13.144  21.100  13.147
69565W        W41181  39.570  11.825  11.108
69566W        W41182  37.350  44.884  11.356
69567W        W41183   5.271  38.829   3.599
69568W        W41184  43.985  38.400   4.716
69569W        W41185  34.388  17.090   3.866
69570W        W41186  44.932  13.194  12.700
69571W        W41187  23.543  24.311  14.310
69572W        W41188  15.857  10.616  11.953
69573W        W41189   5.940  23.396  12.442
69574W        W41190  12.737  23.503   1.929
69575W        W41191  32.049  32.075   1.238
69576W        W41192  14.071  31.075   3.958
69577W        W41193   0.399  14.399  12.729
69578W        W41194  18.761   2.379   2.412
69579W        W41195  37.763  17.546  11.224
69580W        W41196  16.577   4.436  12.979
69581W        W41197  25.476   1.010   0.932
69582W        W41198   5.791  13.711  11.944
69583W        W41199  16.584  25.963  10.660
69584W        W41200  42.403  22.071  10.905
69585W        W41201  38.475  21.727  14.553
69586W        W41202   3.927  28.483  14.457
69587W        W41203   9.679  17.981   3.793
69588W        W41204  26.243  26.986  13.616
69589W        W41205  21.908  27.403   0.027
69590W        W41206   4.822  21.882  12.848
69591W        W41207  18.203  31.958  13.523
69592W        W41208  20.959  14.145   0.529
69593W        W41209  19.137  37.155   0.272
69594W        W41210  33.475  36.452  12.355
69595W        W41211  44.403  13.074   1.276
69596W        W41212  35.604  21.052  13.455
69597W        W41213  29.651   0.794   1.304
69598W        W41214  33.146  43.982   2.700
69599W        W41215  21.156  16.667   3.270
69600W        W41216  24.532  38.394   3.099
69601W        W41217  42.785  43.870   1.780
69602W        W41218  33.753   3.123   0.458
69603W        W41219  44.075  23.734  12.128
69604W        W41220  22.616  32.695  10.614
69605W        W41221  11.325  19.255  14.262
69606W        W41222  43.283  12.318   1.437
69607W        W41223  21.764  22.045   3.275
69608W        W41224  36.377  20.135   1.647
69609W        W41225  41.384   7.897  11.666
69610W        W41226   6.772  23.228  12.118
69611W        W41227   8.226  38.888  12.432
69612W        W41228  39.301   2.155   1.322
69613W        W41229  43.976  22.759  12.876
69614W        W41230  25.868  25.724   0.392
69615W        W41231  19.729  44.307  10.612
69616W        W41232   3.296  22.002   3.879
69617W        W41233  16.406   9.856  14.527
69618W        W41234  16.343  21.041   2.954
69619W        W41235  29.167  38.822   1.736
69620W        W41236  13.699   3.525  13.031
69621W        W41237  41.490  26.882  13.868
69622W        W41238  28.497  22.972   3.801
69623W        W41239  38.733  25.775   0.360
69624W        W41240  21.202   0.038   1.650
69625W        W41241  26.174  11.049   0.847
69626W        W41242  27.069  30.097  13.341
69627W        W41243  44.714  40.721   0.841
69628W        W41244  20.087   7.381  11.907
69629W        W41245  25.668   7.795   2.946
69630W        W41246   7.162  36.965  11.387
69631W        W41247  30.080  36.008  13.958
69632W        W41248   0.518   0.238   4.253
69633W        W41249   8.214  43.545  10.700
69634W        W41250  40.456   1.030  14.956
69635W        W41251   6.814  43.343  12.025
69636W        W41252  13.582  33.925   4.883
69637W        W41253  44.309  38.118   2.366
69638W        W41254  16.005   2.652  13.523
69639W        W41255  12.636  30.110  10.676
69640W        W41256  27.417  15.620   3.681
69641W        W41257  42.894  11.999   1.983
69642W        W41258  31.443   6.858   2.298
69643W        W41259   0.876   7.307   3.464
69644W        W41260  11.711  13.119   0.953
69645W        W41261   4.456  37.805   4.940
69646W        W41262  41.503  37.830   3.220
69647W        W41263  25.737  32.110   3.406
69648W        W41264   5.462   5.782  14.970
69649W        W41265  14.115  42.981  11.574
69650W        W41266  11.083  18.106  12.542
69651W        W41267  34.669   3.452  12.373
69652W        W41268  10.138  39.324  10.252
69653W        W41269  10.066  41.633   0.673
69654W        W41270  37.454  17.053   1.039
69655W        W41271  32.125  29.466  10.666
69656W        W41272  10.766  23.722   2.755
69657W        W41273  36.789  13.281  11.584
69658W        W41274  20.634  40.754   3.781
69659W        W41275  10.233  38.846   1.885
69660W        W41276   2.961  34.199   1.210
69661W        W41277   3.863  38.276   1.905
69662W        W41278   4.036   9.123   0.308
69663W        W41279  41.455  16.369   1.276
69664W        W41280  25.032  41.794   5.105
69665W        W41281   1.420   6.979   2.140
69666W        W41282  30.377   4.744  12.906
69667W        W41283  28.654   1.017  14.709
69668W        W41284  37.026  10.410  10.919
69669W        W41285  17.535  35.024   4.321
69670W        W41286  15.920   7.845   3.772
69671W        W41287  10.349  42.319  13.341
69672W        W41288   7.985   9.600   3.745
69673W        W41289  26.207  36.813  14.384
69674W        W41290   5.796  24.502   0.531
69675W        W41291  43.211  26.645   5.168
69676W        W41292  13.733   5.615  14.888
69677W        W41293   9.176   6.358   5.102
69678W        W41294  12.152  26.571   2.885
69679W        W41295  12.082   2.832   1.706
69680W        W41296   6.894   6.246  11.471
69681W        W41297  15.061  22.760   1.360
69682W        W41298  18.690   1.982   4.992
69683W        W41299  42.532  30.505  10.603
69684W        W41300  25.454   1.702  11.854
69685W        W41301  41.755   3.430  11.527
69686W        W41302  38.117  21.427   2.328
69687W        W41303   3.499  15.999   2.979
69688W        W41304  43.524  11.879   0.932
69689W        W41305  44.393  12.503  11.605
69690W        W41306  24.450   7.761   0.490
69691W        W41307  43.907  17.919   3.714
69692W        W41308  27.931  36.492  13.312
69693W        W41309  29.336  29.483   0.908
69694W        W41310  31.043  19.135   0.687
69695W        W41311  31.388  36.112  11.205
69696W        W41312  40.477   0.864  14.386
69697W        W41313   3.637  34.991   5.116
69698W        W41314  27.951  34.814   4.042
69699W        W41315  44.888   7.100   0.739
69700W        W41316  25.482  35.788   0.729
69701W        W41317  13.212  16.757   4.578
69702W        W41318  11.245  44.900  14.539
69703W        W41319  20.539  44.798  12.176
69704W        W41320   2.272  30.999  14.762
69705W        W41321  36.031  29.356  13.363
69706W        W41322  36.974  41.243  12.989
69707W        W41323  13.314  33.308   1.937
69708W        W41324   1.512  24.668   2.985
69709W        W41325  33.596  27.949   4.111
69710W        W41326  11.100  41.991   1.277
69711W        W41327  16.118  25.008  10.565
69712W        W41328  31.691  23.671   1.520
69713W        W41329  22.520  19.563   0.014
69714W        W41330  35.171  31.909  13.323
69715W        W41331  29.969  33.853  12.931
69716W        W41332  11.408   5.623  13.443
69717W        W41333  44.755   2.485  11.176
69718W        W41334  42.018   7.931   3.566
69719W        W41335  15.572  30.558  12.715
69720W        W41336  31.112   7.744   4.135
69721W        W41337  41.990  26.967  12.061
69722W        W41338   4.249  42.220   2.069
69723W        W41339   5.717  32.963  10.788
69724W        W41340  31.961  19.492  13.789
69725W        W41341  14.838  10.691   4.244
69726W        W41342  29.339  29.429   5.052
69727W        W41343  25.082  28.576   0.372
69728W        W41344  27.132  25.586   1.835
69729W        W41345  19.802  21.311  14.275
69730W        W41346  16.256  18.879   5.081
69731W        W41347  33.496  18.074  13.103
69732W        W41348  16.100  43.475  11.348
69733W        W41349   9.072  37.452  14.621
69734W        W41350  36.338  26.716   3.231
69735W        W41351  30.568  40.560   4.957
69736W        W41352   8.095   6.846   4.543
69737W        W41353  42.369  16.121  12.988
69738W        W41354  26.479  37.038  10.694
69739W        W41355   7.302  22.543  12.092
69740W        W41356  34.050  43.407   4.561
69741W        W41357   7.900   6.677  14.279
69742W        W41358  24.951  11.314  10.640
69743W        W41359  11.225   6.645   2.301
69744W        W41360  31.735  34.594   3.480
69745W        W41361  18.742  28.455  10.543
69746W        W41362  43.195  37.249  10.236
69747W        W41363  15.092  20.731   1.424
69748W        W41364  24.515   2.047  11.949
69749W        W41365  34.034  13.054   0.386
69750W        W41366  13.614   0.715   0.707
69751W        W41367   4.353  23.800  12.993
69752W        W41368  35.106  34.971   1.333
69753W        W41369  32.580  44.507   1.213
69754W        W41370  26.663  10.303  10.759
69755W        W41371  10.918  30.831  13.687
69756W        W41372  21.264  39.585  11.117
69757W        W41373  40.417  43.351  11.230
69758W        W41374  38.938  32.742   2.393
69759W        W41375  14.276   6.318  13.081
69760W        W41376  27.436   1.911  11.097
69761W        W41377  27.265  26.666  11.180
69762W        W41378  44.951  42.281   3.209
69763W        W41379  22.299  39.483   1.960
69764W        W41380  33.842  27.211   0.953
69765W        W41381   0.760   6.137   1.343
69766W        W41382   6.088  26.074  11.121
69767W        W41383   9.964  36.656   5.076
69768W        W41384  44.456  18.617   1.707
69769W        W41385  36.335  32.007  11.642
69770W        W41386  42.032   6.658  10.967
69771W        W41387  23.199   7.447  12.352
69772W        W41388  30.192  25.060   3.162
69773W        W41389  42.179  40.508   3.137
69774W        W41390  25.894  17.379   1.132
69775W        W41391   7.272  15.040   0.643
69776W        W41392  27.478   4.236   0.870
69777W        W41393  44.636   1.463  10.557
69778W        W41394  21.935   3.847   1.384
69779W        W41395  26.772   2.815  13.303
69780W        W41396   6.168  36.352  14.129
69781W        W41397  35.015  29.732   4.248
69782W        W41398   7.871  29.063  10.173
69783W        W41399   5.264  17.719  11.156
69784W        W41400  11.611  31.155   1.419
69785W        W41401  16.364  40.356   3.180
69786W        W41402  34.866  23.449   2.428
69787W        W41403  36.513   2.295  13.044
69788W        W41404   8.367   9.582  14.449
69789W        W41405  13.574  27.160  14.882
69790W        W41406   3.951  38.598  12.925
69791W        W41407  31.898  42.486   4.856
69792W        W41408   1.015  36.480  14.931
69793W        W41409  42.089  23.065  13.853
69794W        W41410  20.512   3.095  11.117
69795W        W41411   6.536  33.902  12.451
69796W        W41412  17.508   4.885  12.188
69797W        W41413  37.389  41.874  11.405
69798W        W41414  17.812  34.515  13.730
69799W        W41415   4.803   3.899  14.950
69800W        W41416  38.532  24.041  13.855
69801W        W41417  25.659  37.851  11.564
69802W        W41418  37.924  22.189   2.181
69803W        W41419  38.541   2.462  11.934
69804W        W41420  13.155  42.988  10.683
69805W        W41421  17.818   9.803   2.152
69806W        W41422  10.280  41.069  13.115
69807W        W41423  22.274  42.347   0.173
69808W        W41424  18.378  20.028  12.391
69809W        W41425  11.365  38.599   4.749
69810W        W41426  15.608  17.255  13.809
69811W        W41427   5.948   0.005  11.982
69812W        W41428  11.004  32.138   3.175
69813W        W41429  33.139  11.958  13.548
69814W        W41430  15.613  41.421  10.869
69815W        W41431  33.579  17.063  12.822
69816W        W41432  29.047  13.290  11.968
69817W        W41433  28.538  27.674   4.980
69818W        W41434  42.500  13.523   4.228
69819W        W41435  35.177  32.604   4.641
69820W        W41436   1.388  23.068   4.800
69821W        W41437  19.219  36.828   3.548
69822W        W41438   5.609  43.004  10.620
69823W        W41439  42.419  30.275  11.040
69824W        W41440   4.212  13.565  12.002
69825W        W41441  41.382  36.311   4.955
69826W        W41442  25.609  39.209   4.199
69827W        W41443  20.303  42.496   3.209
69828W        W41444  39.054  25.903  11.915
69829W        W41445   7.583  41.530  13.926
69830W        W41446  19.294  23.644  13.260
69831W        W41447  23.599   7.219   3.932
69832W        W41448  44.067  36.458   3.509
69833W        W41449  25.552  26.299   3.787
69834W        W41450  12.285  36.598   3.228
69835W        W41451   1.447  39.280   3.753
69836W        W41452  19.026  11.225  13.518
69837W        W41453  44.061  28.651  12.798
69838W        W41454   5.609  25.081  11.965
69839W        W41455  37.360  35.930  10.883
69840W        W41456  12.510  11.407  11.578
69841W        W41457   1.788  18.858   0.970
69842W        W41458  14.081  15.901   4.995
69843W        W41459  20.701  20.634   2.269
69844W        W41460  11.221  20.287  14.904
69845W        W41461   3.531  19.680  11.607
69846W        W41462  21.308  14.413   3.646
69847W        W41463  13.801  23.084   0.689
69848W        W41464   3.646  25.597  13.503
69849W        W41465  34.372  20.025   0.738
69850W        W41466  21.473   6.205  14.998
69851W        W41467  15.370  15.136  10.256
69852W        W41468   8.388   6.203   1.204
69853W        W41469  29.455  10.840  11.642
69854W        W41470  36.371   2.235  11.772
69855W        W41471  28.087  28.868  10.648
69856W        W41472  24.244  42.534  12.515
69857W        W41473  44.848   6.670   1.312
69858W        W41474   3.395   4.318   3.901
69859W        W41475   2.746   1.437  14.125
69860W        W41476  19.708  18.031  14.710
69861W        W41477  28.449  37.849   0.506
69862W        W41478  15.237  24.021  10.709
69863W        W41479  28.147  10.352   4.036
69864W        W41480   3.218  17.872   4.280
69865W        W41481  14.212  44.300  14.425
69866W        W41482  19.331  19.431  11.605
69867W        W41483   1.417   0.403   1.429
69868W        W41484  34.727   2.237  13.481
69869W        W41485  13.183   8.675   4.116
69870W        W41486  42.490   7.452   0.452
69871W        W41487   9.581  14.863  13.105
69872W        W41488   5.739   9.696  11.979
69873W        W41489  33.883  27.913   0.222
69874W        W41490  19.442  44.075   2.817
69875W        W41491  29.449   0.785   4.566
69876W        W41492  37.900   1.470  13.095
69877W        W41493  14.142   7.123   3.151
69878W        W41494   3.797   3.337   4.371
69879W        W41495  24.632   9.362   1.253
69880W        W41496   6.096  35.259   5.119
69881W        W41497  20.493  32.029   0.215
69882W        W41498  41.478  22.614   4.579
69883W        W41499  39.871  27.720   1.156
69884W        W41500  29.642  12.456   2.874
69885W        W41501  18.100  38.781  14.412
69886W        W41502  34.146  22.111   2.318
69887W        W41503  18.190  21.226  11.633
69888W        W41504  15.163  16.633  12.845
69889W        W41505  39.052  31.219  11.919
69890W        W41506  36.501  34.839   2.854
69891W        W41507  38.692  15.481   3.194
69892W        W41508  43.302  40.453  14.444
69893W        W41509   5.808  28.265  11.827
69894W        W41510  30.661  38.740   2.259
69895W        W41511  22.182  26.994  12.911
69896W        W41512  37.403  24.140  14.694
69897W        W41513  11.680  17.350  13.533
69898W        W41514  24.941  13.825   1.455
69899W        W41515  43.037   5.512  12.831
69900W        W41516  34.425  17.840   3.620
69901W        W41517  33.102   9.738   4.445
69902W        W41518  22.179  22.029   0.472
69903W        W41519  15.579   4.952   0.837
69904W        W41520  44.397  31.588   0.325
69905W        W41521  15.342   9.394  11.623
69906W        W41522  12.534   6.822   3.719
69907W        W41523  11.877  43.984  10.632
69908W        W41524   2.978   8.809  14.664
69909W        W41525   6.462  13.085   0.678
69910W        W41526  22.243  41.919  14.054
69911W        W41527  10.262  42.937   5.051
69912W        W41528  33.899  23.498   2.114
69913W        W41529  27.030  42.897   1.176
69914W        W41530  10.744  26.147   4.573
69915W        W41531  13.615  36.164   3.351
69916W        W41532  14.130  13.864   2.217
69917W        W41533  18.220   0.891   1.327
69918W        W41534  35.358  14.084  11.549
69919W        W41535  41.440  27.144  11.627
69920W        W41536  39.466  25.678   1.858
69921W        W41537  24.120  30.364  10.279
69922W        W41538  42.447  19.254   1.235
69923W        W41539  38.120  41.384  11.973
69924W        W41540  38.908  26.207   3.396
69925W        W41541  11.790  27.182  10.983
69926W        W41542   7.961  15.054  11.140
69927W        W41543  24.197  35.519  11.826
69928W        W41544  25.524   5.363   3.303
69929W        W41545   0.229  33.106   2.410
69930W        W41546   8.900   7.630   1.217
69931W        W41547  38.566  27.563  13.508
69932W        W41548  18.248  44.448   2.364
69933W        W41549  15.213  29.468   4.597
69934W        W41550  20.717  28.343  14.304
69935W        W41551  34.940  15.297  11.645
69936W        W41552  36.138  20.168   2.285
69937W        W41553   1.465   0.332  13.520
69938W        W41554  33.535  27.279  11.855
69939W        W41555  39.550  25.983  12.814
69940W        W41556   7.006   6.944   2.336
69941W        W41557  34.905  10.907   1.169
69942W        W41558  13.280  14.916  12.433
69943W        W41559   0.223  32.483  12.132
69944W        W41560  36.438  11.712  12.648
69945W        W41561   5.884  41.410  11.485
69946W        W41562  32.138   2.146   5.255
69947W        W41563  44.499  43.709  14.054
69948W        W41564  25.203  26.645   3.658
69949W        W41565  42.495  22.337  14.949
69950W        W41566  37.208  35.462  14.793
69951W        W41567  26.686  41.890   5.214
69952W        W41568  24.329  34.593   0.715
69953W        W41569   5.636  31.000   3.571
69954W        W41570  43.008  15.414  13.078
69955W        W41571  29.215  29.547   0.399
69956W        W41572  31.638  23.245   4.201
69957W        W41573  36.570   8.697   1.525
69958W        W41574  38.575   5.812  11.444
69959W        W41575  28.942  32.612   3.725
69960W        W41576  44.696  20.588   4.572
69961W        W41577  11.250  43.476   1.366
69962W        W41578   4.237  29.512  10.416
69963W        W41579  38.559  15.411  11.594
69964W        W41580   5.903   0.365  11.193
69965W        W41581  21.835  11.650   3.694
69966W        W41582  26.468  29.142   3.610
69967W        W41583  16.610  30.205  12.488
69968W        W41584  22.259  34.811  10.157
69969W        W41585  42.250  39.646   2.618
69970W        W41586   5.279  27.584   0.777
69971W        W41587  34.858  22.984   0.632
69972W        W41588  12.875  17.655   4.125
69973W        W41589  19.205  19.199   4.527
69974W        W41590   9.133  22.271  12.616
69975W        W41591  14.878  18.290  10.570
69976W        W41592  14.710  17.243   2.361
69977W        W41593  35.334  10.613   2.529
69978W        W41594  12.045  13.265  14.664
69979W        W41595  33.237  11.866   3.610
69980W        W41596   4.032  30.862   0.980
69981W        W41597  15.273  24.682   2.352
69982W        W41598  22.541  29.343   4.105
69983W        W41599   6.362  14.653  12.532
69984W        W41600   5.146  33.942   4.538
69985W        W41601  41.349  16.710  10.855
69986W        W41602  25.621  15.530   2.883
69987W        W41603  15.859   8.989   0.888
69988W        W41604  24.665  43.975   2.335
69989W        W41605  16.369  18.603   5.494
69990W        W41606  27.656   8.172  11.407
69991W        W41607  33.074  43.788  12.424
69992W        W41608   5.378  26.072   4.880
69993W        W41609  16.047  19.084   4.105
69994W        W41610  14.510   0.402   1.047
69995W        W41611   4.824  42.551  13.953
69996W        W41612   4.351  41.070  12.534
69997W        W41613  16.557   7.459   0.382
69998W        W41614  14.356   2.814   5.572
69999W        W41615  16.586  28.682   4.094
70000W        W41616  14.545  25.567  12.911
70001W        W41617   0.067   4.675   1.516
70002W        W41618  16.940  11.123   3.165
70003W        W41619  40.935  24.689  11.434
70004W        W41620  10.684  38.969   2.076
70005W        W41621  25.974  16.768   1.874
70006W        W41622  24.986  29.745  12.142
70007W        W41623  29.973  30.441   1.275
70008W        W41624  10.858  15.726   0.575
70009W        W41625  36.625   8.149   4.533
70010W        W41626  25.565   7.959   3.853
70011W        W41627  20.327  10.174   3.224
70012W        W41628   9.543  30.090   2.354
70013W        W41629  24.159  26.240   1.380
70014W        W41630   6.884  10.405  12.046
70015W        W41631  31.089   9.389  12.869
70016W        W41632  13.528  39.074  11.667
70017W        W41633  29.234  44.927  14.782
70018W        W41634  21.172  36.640  14.367
70019W        W41635  29.546  18.639  10.547
70020W        W41636  30.460   2.929   4.573
70021W        W41637  15.619  16.301  11.911
70022W        W41638  35.994   6.303  13.450
70023W        W41639  37.621  41.373  11.278
70024W        W41640  13.549  11.193  11.650
70025W        W41641  30.643  43.542   4.827
70026W        W41642  37.327  11.702   4.746
70027W        W41643  30.945  35.291   1.282
70028W        W41644  21.545  43.896  11.688
70029W        W41645  21.067   6.790   1.350
70030W        W41646  37.490  36.581  13.873
70031W        W41647  22.944  32.627  11.006
70032W        W41648   2.870  37.185  12.067
70033W        W41649  24.707   0.213  11.582
70034W        W41650  12.213  42.814   3.724
70035W        W41651   3.833  39.416  11.622
70036W        W41652  20.849  22.096   3.770
70037W        W41653  23.545  27.655   2.246
70038W        W41654   6.729  13.081   0.246
70039W        W41655  35.554   6.337  11.126
70040W        W41656  44.677   7.260  10.393
70041W        W41657  43.885  37.373   0.732
70042W        W41658   6.213  19.816  13.430
70043W        W41659  21.582  42.186   4.533
70044W        W41660  30.413  42.166   2.287
70045W        W41661  33.387  19.277  10.671
70046W        W41662   0.870  35.972  11.170
70047W        W41663  14.520  24.928  11.202
70048W        W41664   8.277  12.652   4.630
70049W        W41665  18.200   3.233   2.705
70050W        W41666  37.969  38.021   2.284
70051W        W41667   6.759  16.871   1.811
70052W        W41668  17.553   3.502   1.818
70053W        W41669  33.112  44.430   2.311
70054W        W41670  24.501  26.517  10.178
70055W        W41671  32.815  22.485  11.458
70056W        W41672  29.511  27.654  14.515
70057W        W41673   1.605  37.398   0.349
70058W        W41674  27.020  22.208  12.526
70059W        W41675  25.499  26.167  11.119
70060W        W41676  39.247  11.837  11.504
70061W        W41677  23.529  30.736  13.502
70062W        W41678  42.007  13.235   3.557
70063W        W41679  13.054   6.330  11.190
70064W        W41680  40.419  25.591   1.989
70065W        W41681  22.406   3.908  12.058
70066W        W41682  32.127  44.942   3.271
70067W        W41683   3.170  15.209  11.508
70068W        W41684  12.193  41.730  12.076
70069W        W41685  14.633  27.853   2.738
70070W        W41686  23.653  29.179  12.460
70071W        W41687  11.849   3.641  12.916
70072W        W41688  27.481   9.216   4.144
70073W        W41689  11.977   2.372  12.948
70074W        W41690  41.343  13.383  12.104
70075W        W41691   8.682  11.710   0.024
70076W        W41692   6.361  24.754  14.298
70077W        W41693  11.737   5.549  12.000
70078W        W41694  15.537  21.059   1.882
70079W        W41695  36.460  19.290   3.448
70080W        W41696  18.669  17.186  13.649
70081W        W41697  43.020   5.093   4.744
70082W        W41698  34.837  38.437   2.339
70083W        W41699   9.852   1.207   3.129
70084W        W41700  24.480   3.412  12.069
70085W        W41701  43.757   1.544   1.270
70086W        W41702  30.116  28.093  12.791
70087W        W41703   2.733  41.806   1.800
70088W        W41704  11.584  14.119   3.144
70089W        W41705  33.985  13.846  10.445
70090W        W41706  16.647  23.942   4.242
70091W        W41707  27.639  44.669  11.623
70092W        W41708   1.781  41.771   0.681
70093W        W41709  39.314   9.502   0.303
70094W        W41710  11.796  14.535   1.347
70095W        W41711  26.697  28.653  11.061
70096W        W41712  35.877  39.017  13.443
70097W        W41713  19.652  38.872   1.198
70098W        W41714  17.317  34.660  12.361
70099W        W41715  30.936  24.805   4.637
70100W        W41716   1.364  25.122  13.466
70101W        W41717   5.902  41.963   3.170
70102W        W41718  30.373  28.174  14.290
70103W        W41719  42.398  32.710  12.125
70104W        W41720  37.032  40.526   2.037
70105W        W41721   3.449  44.332   0.261
70106W        W41722  12.559  15.340  13.013
70107W        W41723   2.340  37.969   2.280
70108W        W41724  21.218   1.985  12.545
70109W        W41725  18.750  39.993  13.284
70110W        W41726  25.787  12.853  14.382
70111W        W41727  12.098  27.040  11.853
70112W        W41728   3.111  31.998  10.597
70113W        W41729  41.647  18.595  13.516
70114W        W41730  30.582   2.375  12.827
70115W        W41731  25.973  11.344   3.179
70116W        W41732  36.357  13.748  13.057
70117W        W41733  39.457  39.860  11.576
70118W        W41734  39.459  25.055   2.785
70119W        W41735  12.613   7.312  12.994
70120W        W41736  18.984  35.983   3.238
70121W        W41737  27.731  14.209   3.728
70122W        W41738  36.068  27.134   4.492
70123W        W41739  44.324   5.675   2.699
70124W        W41740  26.136  35.570  12.906
70125W        W41741  44.924  25.625   0.684
70126W        W41742  12.276  26.605   1.329
70127W        W41743   8.793  30.097  12.928
70128W        W41744  10.257   3.851   1.972
70129W        W41745  31.956  16.740   0.486
70130W        W41746  19.037  22.464  12.637
70131W        W41747  26.761  38.411   3.995
70132W        W41748  30.927  29.008  13.365
70133W        W41749  14.574  38.282  14.367
70134W        W41750  38.040  41.791   1.788
70135W        W41751  22.127  30.268  14.332
70136W        W41752  30.250   6.416   2.745
70137W        W41753   2.250  16.366  12.824
70138W        W41754  30.577   0.894  10.714
70139W        W41755  16.728  29.033  13.270
70140W        W41756  25.758   8.353  13.904
70141W        W41757  24.765  31.103   0.321
70142W        W41758   8.108  36.461  12.569
70143W        W41759   3.754  12.802   3.663
70144W        W41760  19.074   6.650  14.429
70145W        W41761  14.375  25.379   2.130
70146W        W41762  37.888   2.440   4.300
70147W        W41763  23.119  10.145  10.420
70148W        W41764   7.004   3.970  13.075
70149W        W41765  12.352  41.138  13.359
70150W        W41766   3.144   4.833   2.177
70151W        W41767   4.758  27.170  10.480
70152W        W41768  35.140  19.356  14.882
70153W        W41769  21.013  23.974  11.223
70154W        W41770  27.172  13.734   9.881
70155W        W41771   3.360  28.147  10.972
70156W        W41772  38.457   3.002   0.378
70157W        W41773   2.445   9.285  10.803
70158W        W41774  12.055  27.988   2.809
70159W        W41775  25.351  44.881   3.035
70160W        W41776  28.421  39.844   3.891
70161W        W41777  14.404  29.473  12.453
70162W        W41778  12.053  15.604  13.524
70163W        W41779  15.558  24.089  12.436
70164W        W41780  18.693  22.451   5.036
70165W        W41781  11.931  30.598   2.575
70166W        W41782  13.095   5.887  11.460
70167W        W41783  42.118  22.722  12.994
70168W        W41784  37.773  26.661   0.165
70169W        W41785  43.828   0.758  14.513
70170W        W41786   4.369   9.774  14.061
70171W        W41787   4.596   6.913   3.158
70172W        W41788  20.492  44.885   3.669
70173W        W41789  43.113   6.790   0.417
70174W        W41790  42.980   8.753   3.881
70175W        W41791  11.599   8.144   1.750
70176W        W41792  29.923  17.662  13.113
70177W        W41793   5.730  32.278   2.038
70178W        W41794   6.107   3.886  11.597
70179W        W41795  28.979  37.145  13.455
70180W        W41796  23.647  38.374   4.207
70181W        W41797  29.940  30.327  13.239
70182W        W41798  44.322  22.545   3.711
70183W        W41799   5.251  12.728  13.956
70184W        W41800  39.176  28.208   3.230
70185W        W41801  17.229  32.176   2.749
70186W        W41802  15.541  28.903  12.141
70187W        W41803  19.202  23.740  14.046
70188W        W41804  37.819  36.486  12.566
70189W        W41805  42.070  29.156  12.401
70190W        W41806   1.835  11.296  14.922
70191W        W41807  29.119   6.004   0.325
70192W        W41808  11.544  40.371   4.541
70193W        W41809  41.578  33.961  10.383
70194W        W41810   3.035   1.400  13.708
70195W        W41811  11.496  15.998   0.249
70196W        W41812  22.344  16.710   0.837
70197W        W41813  30.543  27.220  12.993
70198W        W41814  43.994  28.417   1.607
70199W        W41815  42.705   0.828   0.197
70200W        W41816  16.319  21.136   1.454
70201W        W41817   4.642  36.698  11.763
70202W        W41818  31.407  30.922   4.008
70203W        W41819  22.581   4.175   3.274
70204W        W41820  31.278  42.539  13.050
70205W        W41821  28.221  24.123  10.496
70206W        W41822  15.607  35.525   1.467
70207W        W41823  43.265  34.390   4.596
70208W        W41824   4.729   1.484  12.461
70209W        W41825   9.723  15.229  11.424
70210W        W41826  34.932  43.756  14.714
70211W        W41827  27.469  22.538  13.564
70212W        W41828  28.596   3.658   3.731
70213W        W41829  18.761  19.736   5.272
70214W        W41830  36.901  25.420   0.830
70215W        W41831  43.099  19.783  14.035
70216W        W41832  23.365  35.085   3.699
70217W        W41833  28.931   2.355  14.107
70218W        W41834  39.730   3.437   3.831
70219W        W41835  30.538  38.894  12.894
70220W        W41836   3.309  34.689   2.812
70221W        W41837  43.982  43.812  10.863
70222W        W41838  15.194  28.597  11.888
70223W        W41839  35.965  32.797   1.215
70224W        W41840  41.585  41.410  14.853
70225W        W41841  41.987  19.516  11.621
70226W        W41842  23.088  33.544  10.076
70227W        W41843  11.121  14.198  10.591
70228W        W41844  39.956  24.964   1.516
70229W        W41845  17.318  20.497  14.293
70230W        W41846  22.224  24.946  14.839
70231W        W41847   8.516  22.731  13.813
70232W        W41848   5.155  13.414   2.032
70233W        W41849   1.799  21.483  13.769
70234W        W41850   3.643   4.007   1.248
70235W        W41851  21.794  24.547  13.352
70236W        W41852  12.024   1.415   3.445
70237W        W41853  44.948  43.972  14.164
70238W        W41854   4.155   3.454   2.288
70239W        W41855  20.232   7.821  14.444
70240W        W41856  22.694  43.400   3.751
70241W        W41857  17.603  14.222  14.523
70242W        W41858  38.200  43.003  14.632
70243W        W41859  12.388  22.723   2.261
70244W        W41860   1.832  13.616  12.432
70245W        W41861   6.182  28.572   0.504
70246W        W41862  25.608  35.144   3.741
70247W        W41863  37.111  29.048   3.350
70248W        W41864  23.317  30.587   0.987
70249W        W41865   6.444  27.182   3.018
70250W        W41866   7.494  35.637   3.854
70251W        W41867  31.194   3.722  11.910
70252W        W41868  40.039  41.401  14.852
70253W        W41869  22.185   8.613   4.911
70254W        W41870  13.393  40.822  13.498
70255W        W41871   9.457  41.836  11.627
70256W        W41872  44.501  14.162  11.119
70257W        W41873  33.850  37.429   1.489
70258W        W41874   9.299   1.510   1.744
70259W        W41875  14.219  35.524  11.176
70260W        W41876  23.975  30.607   4.081
70261W        W41877  26.383  14.642  11.436
70262W        W41878  35.026  34.493   4.105
70263W        W41879  37.507  19.004   0.910
70264W        W41880  17.388   8.265  12.588
70265W        W41881  33.834  15.737  12.892
70266W        W41882  35.872  34.408  14.546
70267W        W41883  36.457  13.798   2.803
70268W        W41884  25.483  22.675  14.341
70269W        W41885   4.843   2.520  12.580
70270W        W41886  24.588  10.197   2.807
70271W        W41887  21.479  20.171   2.343
70272W        W41888  20.162  35.339  14.678
70273W        W41889   8.901  38.928  13.363
70274W        W41890  25.004  29.572  11.181
70275W        W41891   2.433  29.716   2.812
70276W        W41892   7.921  32.115   5.055
70277W        W41893  17.665  32.186  10.784
70278W        W41894  17.825  16.761   5.587
70279W        W41895  24.637  11.288   1.387
70280W        W41896  33.520  36.313   3.356
70281W        W41897  23.626  43.808   2.549
70282W        W41898  13.162  29.904   1.353
70283W        W41899   2.656  30.748   0.934
70284W        W41900  25.040   6.887  11.160
70285W        W41901  34.133  21.875  11.496
70286W        W41902   9.288  15.655   3.968
70287W        W41903  34.697  41.890  12.395
70288W        W41904  22.560  21.230   2.403
70289W        W41905  17.072   0.362  11.912
70290W        W41906  24.569  33.819  14.681
70291W        W41907  43.992   1.700  11.109
70292W        W41908  23.565  36.918   0.020
70293W        W41909   8.092  32.586  13.786
70294W        W41910  41.991  11.889  13.452
70295W        W41911  16.170  25.049   0.048
70296W        W41912   8.807  41.865   3.800
70297W        W41913  33.430  34.422  14.790
70298W        W41914  31.569  32.328   3.719
70299W        W41915   9.161  31.082  11.127
70300W        W41916   3.739   1.318   3.689
70301W        W41917  16.270   3.225   0.343
70302W        W41918  28.942   6.116  13.438
70303W        W41919   8.343  34.560   2.590
70304W        W41920  32.930   0.674  12.390
70305W        W41921   9.467  15.282  11.929
70306W        W41922  26.326  38.159  13.613
70307W        W41923  21.956   6.635   0.325
70308W        W41924   1.947  11.999  12.786
70309W        W41925  31.665  19.989  14.317
70310W        W41926  27.462  22.149  13.986
70311W        W41927  39.109   8.985   3.832
70312W        W41928  40.932  41.308  12.033
70313W        W41929  14.737  28.485   4.933
70314W        W41930  29.406  23.563   3.161
70315W        W41931   8.620  27.959   1.883
70316W        W41932   2.173  20.692   2.180
70317W        W41933  39.984  21.084  10.669
70318W        W41934  35.695  22.141  12.959
70319W        W41935  14.598  26.247   3.813
70320W        W41936  18.954  34.610  11.094
70321W        W41937  21.548  24.635  12.910
70322W        W41938  33.105  32.953  12.410
70323W        W41939  38.762  44.446   3.767
70324W        W41940  19.796  42.330  14.799
70325W        W41941  42.535  12.461  11.204
70326W        W41942  40.474  11.534  13.693
70327W        W41943  44.011  37.600   4.179
70328W        W41944  34.280  40.285  11.591
70329W        W41945  34.900  18.282  13.517
70330W        W41946  40.941  40.257   3.323
70331W        W41947   5.610  22.220  12.523
70332W        W41948  14.688   6.661  14.417
70333W        W41949  41.600  32.193   3.779
70334W        W41950  38.441  25.692  14.395
70335W        W41951  24.034  35.625  10.422
70336W        W41952  30.659  36.885   1.416
70337W        W41953  14.725  40.042   4.291
70338W        W41954  12.293  28.950   2.915
70339W        W41955  39.336  31.795  14.450
70340W        W41956  30.858  12.329   1.101
70341W        W41957  13.190  42.495   0.492
70342W        W41958  13.427   8.024   1.491
70343W        W41959  44.623  34.424  13.780
70344W        W41960  33.012  29.273  10.935
70345W        W41961   2.327   3.795  11.961
70346W        W41962  33.030  20.477   0.942
70347W        W41963  11.678  44.778  13.341
70348W        W41964  18.065  25.766   4.514
70349W        W41965  23.465   7.462   4.950
70350W        W41966   2.787  40.435   4.436
70351W        W41967  11.543  38.150   3.284
70352W        W41968  34.913  14.403  11.430
70353W        W41969   8.605  30.930   3.178
70354W        W41970  10.848  27.024  14.932
70355W        W41971   8.942  36.941  14.651
70356W        W41972  23.419   3.414   4.159
70357W        W41973   8.917   5.386  11.616
70358W        W41974   2.964  23.164  13.505
70359W        W41975  27.501   4.761   0.202
70360W        W41976  24.949  30.979  13.496
70361W        W41977  21.191  24.609  14.356
70362W        W41978  27.423   3.531   3.229
70363W        W41979  43.508  25.713  11.924
70364W        W41980  33.642  12.405  11.972
70365W        W41981  17.571   0.854   1.820
70366W        W41982  17.713   0.257  13.553
70367W        W41983  17.785  21.660   4.124
70368W        W41984  40.380   3.430  11.434
70369W        W41985  31.988   4.647   3.678
70370W        W41986  39.908  38.509  10.632
70371W        W41987  25.242  22.712  11.501
70372W        W41988   5.635  10.129  14.978
70373W        W41989   3.033  37.864  10.713
70374W        W41990  43.343  28.511  14.295
70375W        W41991  28.144   4.975   3.693
70376W        W41992  20.097   9.398  11.493
70377W        W41993  22.920  41.023  14.927
70378W        W41994  26.260  12.282  13.616
70379W        W41995  13.165  18.973  11.048
70380W        W41996  19.247   1.984   0.805
70381W        W41997  41.094  41.089  13.259
70382W        W41998  35.887  39.264  13.960
70383W        W41999  19.271  22.107  11.523
70384W        W42000  13.467  30.615  11.573
70385W        W42001  10.761  42.459  11.590
70386W        W42002   2.166  43.340  12.031
70387W        W42003  34.898  11.941  12.926
70388W        W42004  34.113   8.859  11.419
70389W        W42005   7.389   3.421   1.449
70390W        W42006  42.713  35.265  14.316
70391W        W42007   7.370  34.377  11.668
70392W        W42008  43.824  19.693  13.590
70393W        W42009  30.916  23.175  13.963
70394W        W42010  18.682  42.379   0.992
70395W        W42011  21.241  40.370   0.253
70396W        W42012  21.100  22.402   4.074
70397W        W42013  31.649   9.323   2.246
70398W        W42014  28.402  20.745   2.150
70399W        W42015  34.480   1.373   0.243
70400W        W42016   5.413  32.023   0.236
70401W        W42017  25.884  38.889   5.097
70402W        W42018   1.367  44.048   5.013
70403W        W42019  13.865  15.829  12.043
70404W        W42020  29.588  37.289  11.588
70405W        W42021   3.672  38.818   4.693
70406W        W42022  36.122  36.631   1.436
70407W        W42023  11.647  17.005   4.008
70408W        W42024  20.176   0.787   2.594
70409W        W42025  28.031   9.160   1.736
70410W        W42026  16.064  44.008  11.102
70411W        W42027  33.441  38.982   2.771
70412W        W42028  12.271  33.471  13.422
70413W        W42029   8.535  37.041  13.066
70414W        W42030  20.765   6.475   4.665
70415W        W42031  44.603  44.738  13.106
70416W        W42032   1.331  23.741   1.723
70417W        W42033  30.660  37.635  10.738
70418W        W42034   7.093  40.731  11.925
70419W        W42035  39.849  27.662  12.106
70420W        W42036  24.502  44.214  12.850
70421W        W42037  33.309  40.966   1.069
70422W        W42038   5.311  26.578  14.801
70423W        W42039  17.743  33.179  14.319
70424W        W42040  24.756  11.257   1.924
70425W        W42041   6.793  39.619   0.755
70426W        W42042  40.845  20.718  11.665
70427W        W42043  17.212  38.883  13.718
70428W        W42044  26.471  30.607   1.826
70429W        W42045  19.183   8.325   4.515
70430W        W42046   3.499  25.410   0.289
70431W        W42047   4.982   8.141  13.009
70432W        W42048  10.338  13.177   4.636
70433W        W42049  14.846  42.475  13.424
70434W        W42050  22.521   6.331  10.484
70435W        W42051  44.321   1.983  12.098
70436W        W42052  33.957  38.136   0.921
70437W        W42053   6.133  19.707  11.580
70438W        W42054  20.301  38.316  11.924
70439W        W42055  30.405  16.588   2.271
70440W        W42056  35.407  41.941  13.791
70441W        W42057  24.083  10.449   3.291
70442W        W42058   6.262  42.573  11.165
70443W        W42059  18.719  40.874  11.798
70444W        W42060   9.705  12.688   2.755
70445W        W42061  32.003  37.309  11.436
70446W        W42062  11.615  41.004  10.188
70447W        W42063  42.461  26.080   0.246
70448W        W42064   1.496  11.154   4.768
70449W        W42065  10.693  15.719  13.353
70450W        W42066   2.902  28.683   4.495
70451W        W42067  44.820  25.665   1.228
70452W        W42068  27.490  26.253   1.673
70453W        W42069   0.327   1.941  11.597
70454W        W42070  12.124  28.956   4.301
70455W        W42071   3.379  44.460   1.064
70456W        W42072   4.310  21.357  10.999
70457W        W42073  21.037   2.940  14.846
70458W        W42074  11.685  12.253  14.960
70459W        W42075  33.660   1.828   0.974
70460W        W42076  13.141  30.625   4.868
70461W        W42077  36.248   2.578   0.721
70462W        W42078  16.205  41.793   4.828
70463W        W42079  24.197  11.665  12.545
70464W        W42080  32.612  37.045   2.108
70465W        W42081   1.979  26.082  10.558
70466W        W42082  14.159  22.072   2.710
70467W        W42083   8.873  19.404   2.864
70468W        W42084  27.696  11.453   2.274
70469W        W42085  30.620  13.671   2.147
70470W        W42086  10.725  37.934  10.370
70471W        W42087  31.618  17.158  11.649
70472W        W42088  30.375  39.980   2.910
70473W        W42089  33.857  14.858  12.848
70474W        W42090  17.228  11.346   1.893
70475W        W42091  35.576  37.587   1.341
70476W        W42092  15.300  22.692  13.049
70477W        W42093   2.304  41.294   1.285
70478W        W42094  31.928  23.361  11.616
70479W        W42095  16.160   8.234  10.723
70480W        W42096  21.988  41.984   3.877
70481W        W42097  19.774  19.149  13.416
70482W        W42098  18.073  39.090   1.439
70483W        W42099  40.583  20.607   3.587
70484W        W42100  37.968  19.237  12.080
70485W        W42101  13.425  29.446  14.522
70486W        W42102   4.614  43.801   4.590
70487W        W42103  13.839  13.863  14.060
70488W        W42104  42.154  39.974  14.994
70489W        W42105  16.696  20.083  10.542
70490W        W42106   3.349   2.419  13.105
70491W        W42107  35.939  21.037   1.437
70492W        W42108  38.050  36.835   0.885
70493W        W42109  40.278  26.105   2.879
70494W        W42110  40.894  25.626   1.265
70495W        W42111  34.974  44.560  13.651
70496W        W42112  38.819  29.423  14.939
70497W        W42113  21.592  23.959  10.718
70498W        W42114  34.565  34.997  14.375
70499W        W42115  12.786  24.578   0.845
70500W        W42116  28.119  27.104  12.335
70501W        W42117   0.426  15.364  12.478
70502W        W42118  38.837   0.501  14.790
70503W        W42119  38.367  11.371  10.714
70504W        W42120  25.615  10.214  14.411
70505W        W42121  16.688  38.445   4.091
70506W        W42122  34.165   3.849   0.896
70507W        W42123  30.189   4.789   3.261
70508W        W42124  36.150  37.878   5.016
70509W        W42125  20.066  36.417  10.887
70510W        W42126   6.910   4.723  12.531
70511W        W42127   4.241  21.546   2.233
70512W        W42128   4.046  36.545  14.158
70513W        W42129  36.459  39.548   1.311
70514W        W42130  36.793  30.420   3.573
70515W        W42131   9.175   8.758   2.678
70516W        W42132  43.343  28.530   3.791
70517W        W42133  13.274  38.142   1.966
70518W        W42134   1.508  16.506   0.003
70519W        W42135  36.528   0.758  13.280
70520W        W42136   8.277   2.313   3.858
70521W        W42137   9.114  31.384   3.584
70522W        W42138  27.221   8.808  14.940
70523W        W42139  31.594  32.638  12.422
70524W        W42140   5.853  27.977   3.217
70525W        W42141  11.906  11.966   0.342
70526W        W42142  15.757   9.561   4.109
70527W        W42143  14.051  36.031  13.783
70528W        W42144  29.373  24.615   1.153
70529W        W42145  12.140  37.600   0.429
70530W        W42146  43.529  44.666   3.790
70531W        W42147   7.742  21.469   1.413
70532W        W42148   9.754  37.949   2.883
70533W        W42149   8.899  20.419  13.019
70534W        W42150  19.812   8.381  11.486
70535W        W42151   7.406  35.281  11.669
70536W        W42152  35.129  24.082   0.552
70537W        W42153   3.422  27.134  10.714
70538W        W42154  21.500  16.230   2.754
70539W        W42155  16.176  43.549  10.852
70540W        W42156  21.039  26.048   0.346
70541W        W42157  40.974  17.821   3.240
70542W        W42158  35.191  20.119  11.710
70543W        W42159  39.891  42.410  13.385
70544W        W42160  32.176   6.355   0.347
70545W        W42161  17.435  19.614   3.763
70546W        W42162   1.208   4.024  11.992
70547W        W42163  25.682  42.121   4.459
70548W        W42164  15.179  42.378  11.115
70549W        W42165  14.100  31.931  13.818
70550W        W42166   4.721  42.544   1.868
70551W        W42167  18.982  13.044  12.363
70552W        W42168  14.929  25.579   0.671
70553W        W42169  20.766  38.331  13.577
70554W        W42170  23.638  25.482  11.612
70555W        W42171   8.759  28.579  10.343
70556W        W42172  25.570  23.286   4.447
70557W        W42173  37.061  14.419   2.400
70558W        W42174  27.978  41.165   5.000
70559W        W42175  39.591  23.621  13.547
70560W        W42176  22.395  33.351   4.659
70561W        W42177   2.524  27.592   5.153
70562W        W42178   9.305  31.897   4.181
70563W        W42179  33.543  24.517  14.525
70564W        W42180  35.881  13.253  14.298
70565W        W42181  36.039  13.522   0.433
70566W        W42182  32.442  24.047  10.475
70567W        W42183  23.038  43.069  11.476
70568W        W42184  18.680  44.860   4.343
70569W        W42185  19.250  43.303   2.794
70570W        W42186  21.010   5.858   1.494
70571W        W42187  38.352  33.888   2.752
70572W        W42188  34.507   0.746   5.395
70573W        W42189  32.512   9.430  14.949
70574W        W42190   1.792   4.877   4.619
70575W        W42191  44.439  24.787  14.852
70576W        W42192   6.291  35.527   0.769
70577W        W42193  40.433  11.287   0.861
70578W        W42194  20.985  15.450  10.852
70579W        W42195  36.154  24.953   0.752
70580W        W42196  34.489   7.803   3.547
70581W        W42197  16.131  44.016   1.725
70582W        W42198  17.726  29.177  14.329
70583W        W42199  21.737  10.308   1.866
70584W        W42200  19.519  26.517   3.582
70585W        W42201  13.847  19.014  10.546
70586W        W42202  39.026  32.939   0.302
70587W        W42203  35.954  19.825   4.588
70588W        W42204  41.906   5.384   1.492
70589W        W42205  44.881  39.523   3.237
70590W        W42206   6.321  13.799   3.746
70591W        W42207   8.623  12.756  11.521
70592W        W42208   3.367  18.882  12.581
70593W        W42209  13.413  28.065   2.927
70594W        W42210  33.837  41.101   2.391
70595W        W42211  28.555  15.105   4.052
70596W        W42212  43.531  21.238  12.026
70597W        W42213  38.895   1.189   2.679
70598W        W42214  36.074  22.219  12.020
70599W        W42215  24.561  41.026   0.272
70600W        W42216   8.354   0.784   4.338
70601W        W42217  43.653  38.854  14.707
70602W        W42218  17.335  26.521   0.712
70603W        W42219  34.984  13.631   4.107
70604W        W42220  22.958  27.712   4.084
70605W        W42221   9.601  22.230  13.463
70606W        W42222   1.887  24.685  10.581
70607W        W42223  39.858  14.216   2.356
70608W        W42224  39.400  27.264  14.343
70609W        W42225  38.575   0.013   2.920
70610W        W42226  29.702  32.024   4.768
70611W        W42227  31.615  41.531   1.498
70612W        W42228   6.772  39.136  11.205
70613W        W42229  16.543  12.813   2.298
70614W        W42230  26.483  23.354   2.384
70615W        W42231   0.770   2.413  14.805
70616W        W42232   8.787  19.318   0.032
70617W        W42233   3.724  17.347  12.901
70618W        W42234  24.054  36.002   4.543
70619W        W42235  26.091  43.022   3.763
70620W        W42236  20.656  22.739   4.706
70621W        W42237  13.360  19.206   0.147
70622W        W42238   4.865  11.718   1.616
70623W        W42239  35.295  21.329   2.193
70624W        W42240  38.318   5.359  11.381
70625W        W42241  28.429   6.131  11.353
70626W        W42242   6.737   5.525  12.535
70627W        W42243  37.316  17.272  11.402
70628W        W42244  14.746  38.361   2.455
70629W        W42245  37.052  13.341  10.691
70630W        W42246  12.261  34.102   4.092
70631W        W42247  29.004  15.794  14.243
70632W        W42248  41.802  35.037   1.844
70633W        W42249   0.202  41.291  14.262
70634W        W42250  11.745  19.151  13.381
70635W        W42251  28.009  29.849  13.723
70636W        W42252  17.386   5.640  13.781
70637W        W42253  10.913  36.086  10.630
70638W        W42254   6.267  16.972   3.819
70639W        W42255  10.331  44.922   3.570
70640W        W42256  27.032  20.554   4.161
70641W        W42257   5.161  30.984   3.788
70642W        W42258  14.747  31.020  14.693
70643W        W42259   5.341  21.469   4.833
70644W        W42260   8.206  39.827   1.217
70645W        W42261  11.440  11.635  11.101
70646W        W42262  37.699  23.089  12.387
70647W        W42263  40.982  11.730   1.329
70648W        W42264  28.528   2.371   2.281
70649W        W42265  39.053   5.435   3.489
70650W        W42266  42.507   5.744   0.823
70651W        W42267   7.448  32.870  11.500
70652W        W42268   7.684  42.572   2.827
70653W        W42269  24.247  17.497   0.963
70654W        W42270  21.986  33.294  14.006
70655W        W42271  28.158  36.950  13.341
70656W        W42272  41.928  39.496   3.243
70657W        W42273  19.099  40.334   2.326
70658W        W42274   4.460   3.327   4.885
70659W        W42275  24.711   7.699  13.400
70660W        W42276   3.991  23.786   1.471
70661W        W42277  25.967  39.561  13.755
70662W        W42278  33.864  41.600  12.682
70663W        W42279  43.529  41.421   1.841
70664W        W42280  27.573   3.817   2.058
70665W        W42281  39.483  11.803  14.241
70666W        W42282   8.299  43.910   2.392
70667W        W42283  17.250  10.850   2.819
70668W        W42284  43.281  11.140   4.186
70669W        W42285  28.421   9.635  14.950
70670W        W42286  31.058  11.213  14.470
70671W        W42287  36.686  12.930   1.597
70672W        W42288  29.700   1.171  13.977
70673W        W42289   7.215   4.405  11.091
70674W        W42290  29.196   3.909   2.905
70675W        W42291  27.537  19.555  12.455
70676W        W42292  30.653  35.162   2.263
70677W        W42293  16.036  16.730   0.237
70678W        W42294  30.947  13.167   1.444
70679W        W42295   9.584  38.577  10.730
70680W        W42296   9.016   3.533  13.765
70681W        W42297   9.684   0.327   0.039
70682W        W42298  24.077  20.157  11.236
70683W        W42299  32.695  38.389   0.742
70684W        W42300   4.867  32.048   4.565
70685W        W42301  24.973  36.449  12.622
70686W        W42302   8.261  43.763   3.377
70687W        W42303   7.572  31.948  14.276
70688W        W42304  21.803  20.588  14.423
70689W        W42305  33.545   9.311   0.372
70690W        W42306  27.227  12.844   4.594
70691W        W42307  15.315  10.173   4.797
70692W        W42308  19.218   4.676  11.471
70693W        W42309   1.943  37.564   0.735
70694W        W42310  20.153  18.768  12.570
70695W        W42311  29.062  36.889   3.874
70696W        W42312  30.633  12.787   1.294
70697W        W42313  22.241  23.132   0.011
70698W        W42314  12.349  37.619  11.401
70699W        W42315  38.875  20.198  13.856
70700W        W42316  44.498  24.498   2.760
70701W        W42317  27.847  38.989  11.207
70702W        W42318  34.357  26.097  12.284
70703W        W42319  30.808   9.867  14.916
70704W        W42320  31.628   4.919  11.158
70705W        W42321  20.850  19.220   0.339
70706W        W42322  32.675  12.834  13.547
70707W        W42323  33.544  28.549   1.902
70708W        W42324  30.818  30.010   2.683
70709W        W42325  14.685  39.717   3.875
70710W        W42326  20.772  28.134  11.318
70711W        W42327  28.134   7.190   1.835
70712W        W42328   2.821  12.720   3.192
70713W        W42329  35.829   3.230   2.640
70714W        W42330  38.378  11.218  13.743
70715W        W42331  36.769  26.270   4.286
70716W        W42332  10.327   4.143  10.721
70717W        W42333  21.386  11.790  13.323
70718W        W42334  44.400   1.464   3.344
70719W        W42335  38.479  25.520   2.305
70720W        W42336  24.986  37.303   0.436
70721W        W42337   5.464  10.976  12.866
70722W        W42338  11.775   9.898   2.562
70723W        W42339  31.672   3.233  11.241
70724W        W42340  35.327  38.630  11.208
70725W        W42341   7.524  27.025   3.837
70726W        W42342   9.814  30.918   3.641
70727W        W42343  17.342  40.122  11.717
70728W        W42344  40.938  13.831   1.437
70729W        W42345  23.249  32.058   1.823
70730W        W42346  25.551  30.184   1.668
70731W        W42347  29.681  29.651  12.089
70732W        W42348  31.097   4.020   4.375
70733W        W42349  16.845  39.885   1.308
70734W        W42350  27.199  37.545  10.941
70735W        W42351  38.573  32.985  14.344
70736W        W42352   3.678   1.520   4.489
70737W        W42353  33.845   8.845   5.036
70738W        W42354  18.841  10.163   3.090
70739W        W42355  32.547  37.892   1.477
70740W        W42356  20.383  24.963  14.893
70741W        W42357  29.279  10.958   0.989
70742W        W42358   3.049  23.082   5.053
70743W        W42359  13.210  30.214  12.893
70744W        W42360  28.379  14.964   2.639
70745W        W42361  11.236   0.595   4.701
70746W        W42362  21.533  41.506   0.029
70747W        W42363  33.659  16.709  13.995
70748W        W42364  27.528   0.438   2.179
70749W        W42365  18.490  43.459   3.833
70750W        W42366   8.601  18.711  11.029
70751W        W42367  26.055  27.483   4.025
70752W        W42368  29.237   2.877  12.876
70753W        W42369   6.801  29.193   3.299
70754W        W42370  16.134   0.450  11.685
70755W        W42371   2.560  41.409  14.745
70756W        W42372  11.119  30.574  14.481
70757W        W42373  16.321  40.802  10.912
70758W        W42374   5.831   2.189   2.645
70759W        W42375  32.517  25.911   2.281
70760W        W42376  17.878   2.924  12.981
70761W        W42377  24.516  22.721  12.025
70762W        W42378  11.661  26.881  11.585
70763W        W42379  23.007   5.032  11.474
70764W        W42380  29.895  22.605  14.456
70765W        W42381   7.631  20.105   3.646
70766W        W42382   2.966  37.826   2.272
70767W        W42383  32.459  40.531  10.633
70768W        W42384   4.375  34.204  12.423
70769W        W42385  39.967  39.979   0.933
70770W        W42386   4.638  42.847  10.405
70771W        W42387  25.276  26.979  13.568
70772W        W42388  21.062  41.935   4.534
70773W        W42389  40.562  26.058   3.305
70774W        W42390  29.966  40.900   2.892
70775W        W42391  12.585  11.952  10.683
70776W        W42392   1.875  40.466   1.113
70777W        W42393  18.676  18.246   2.673
70778W        W42394  39.418  13.148   4.677
70779W        W42395   1.813  40.545  13.383
70780W        W42396  15.629   8.440  12.903
70781W        W42397   0.443  27.455  12.543
70782W        W42398   3.793  36.068  13.832
70783W        W42399  30.962  22.926   1.733
70784W        W42400   1.733  41.533   1.141
70785W        W42401  33.935  40.298  11.988
70786W        W42402  15.874  28.636  14.282
70787W        W42403  34.406  25.994  12.782
70788W        W42404  23.318   0.666   2.295
70789W        W42405  22.080  26.229  10.833
70790W        W42406  13.990  18.242  11.991
70791W        W42407   0.771   1.979  14.474
70792W        W42408  12.236  15.084  14.804
70793W        W42409  34.722  43.806   3.640
70794W        W42410  41.102   1.470  10.950
70795W        W42411  37.584  44.368   4.284
70796W        W42412  34.242  29.548  14.789
70797W        W42413  15.303  24.182   2.638
70798W        W42414  16.905  41.864  12.573
70799W        W42415  21.196  19.233   1.705
70800W        W42416  19.142  26.318  12.920
70801W        W42417   4.255  33.576  11.018
70802W        W42418   5.375  35.794   4.676
70803W        W42419  11.169  16.220  12.794
70804W        W42420  10.206  38.645  11.473
70805W        W42421   6.206  42.546   2.871
70806W        W42422   5.773   9.064  12.358
70807W        W42423   1.841  26.642   4.479
70808W        W42424  23.792  31.582  12.514
70809W        W42425  21.186   8.313   1.313
70810W        W42426  35.180  24.161  12.575
70811W        W42427  25.692  29.276   1.479
70812W        W42428  43.315  16.222  13.930
70813W        W42429  16.034  17.652  13.033
70814W        W42430   0.738  40.795   2.266
70815W        W42431  29.889   2.182   4.877
70816W        W42432  37.898  27.002   1.409
70817W        W42433  40.457  12.785   0.703
70818W        W42434  28.055  29.191   1.403
70819W        W42435  22.773  38.523  12.551
70820W        W42436  16.538  30.188  10.456
70821W        W42437  11.566  17.560  13.050
70822W        W42438  11.221  42.796   4.563
70823W        W42439   2.992  26.102   0.857
70824W        W42440  31.114  26.822   4.594
70825W        W42441  28.493   3.742  10.591
70826W        W42442   2.989  37.464  13.829
70827W        W42443  26.497   6.339  11.920
70828W        W42444   2.850  26.671  13.821
70829W        W42445  37.845   1.432   1.443
70830W        W42446  34.769   8.388   0.211
70831W        W42447  33.437  20.688   0.687
70832W        W42448  31.037  31.995  10.713
70833W        W42449   6.857   6.598  14.945
70834W        W42450  18.094  33.468   3.631
70835W        W42451  16.136  21.386  13.876
70836W        W42452  42.992  40.116  13.992
70837W        W42453  22.354  12.363  13.887
70838W        W42454   5.223  36.091  11.850
70839W        W42455  25.003  32.392  14.802
70840W        W42456   9.883  35.022  14.990
70841W        W42457  20.141  17.376  10.567
70842W        W42458  25.027   7.186   2.264
70843W        W42459  27.031  26.029  12.578
70844W        W42460  22.730  10.444   2.724
70845W        W42461   6.017  14.451  12.901
70846W        W42462  12.300  12.509  11.531
70847W        W42463  27.826  36.109   5.107
70848W        W42464  44.893  40.767   1.309
70849W        W42465  20.553  33.399   0.909
70850W        W42466  14.580  22.756  14.809
70851W        W42467  31.020  27.106   4.163
70852W        W42468  11.971   7.183  11.605
70853W        W42469  31.681   1.529  11.157
70854W        W42470  31.473  44.650   4.166
70855W        W42471  13.689  18.786   0.829
70856W        W42472  12.933  10.710  13.813
70857W        W42473   1.353  27.919  12.809
70858W        W42474   4.834  12.557  14.746
70859W        W42475  34.973  41.045   2.276
70860W        W42476   4.323  34.436  13.392
70861W        W42477  29.515  31.217   4.576
70862W        W42478  13.697  34.483   4.857
70863W        W42479  41.726   3.760   4.303
70864W        W42480  44.867  26.908   0.788
70865W        W42481  36.597  15.876  14.229
70866W        W42482  28.181  35.609   2.312
70867W        W42483   6.168  18.104   0.418
70868W        W42484  13.430  22.523   3.203
70869W        W42485  12.701  36.130  12.274
70870W        W42486  28.480   9.701   3.230
70871W        W42487  17.544  44.285   4.948
70872W        W42488  19.807   8.075  14.054
70873W        W42489  41.446  12.217   4.659
70874W        W42490  44.204  17.488  14.387
70875W        W42491   8.691  26.550   0.355
70876W        W42492  40.472  43.561   1.458
70877W        W42493   2.819  20.724  12.859
70878W        W42494   5.923  36.446   4.434
70879W        W42495   8.635  12.864  13.373
70880W        W42496  30.170  44.657  11.631
70881W        W42497   6.127  35.607  14.828
70882W        W42498  37.757  30.999  12.430
70883W        W42499   8.703  35.348  14.906
70884W        W42500  43.842  36.597  12.393
70885W        W42501  36.377  27.726  13.651
70886W        W42502  28.297  38.373   3.758
70887W        W42503  34.144   4.922  12.551
70888W        W42504   9.380  12.556  13.887
70889W        W42505  10.197   8.542   0.373
70890W        W42506  44.870  29.974   1.783
70891W        W42507  20.715  35.694  14.901
70892W        W42508  14.420   3.289   1.205
70893W        W42509   5.292  31.669   4.145
70894W        W42510  33.163   4.398   3.285
70895W        W42511  25.463  30.648   3.398
70896W        W42512  42.930  10.193  12.023
70897W        W42513   1.426  20.691   0.799
70898W        W42514  27.884  42.917  14.415
70899W        W42515  19.371  44.021   0.461
70900W        W42516  20.320  30.646  14.550
70901W        W42517   4.318   1.010   3.849
70902W        W42518  36.040   5.655   1.665
70903W        W42519  25.301  15.245  14.243
70904W        W42520   8.805   8.922  13.600
70905W        W42521  16.106  26.496   1.429
70906W        W42522  37.416  41.416   4.063
70907W        W42523   2.571  28.482   1.003
70908W        W42524   4.345  24.303   3.732
70909W        W42525   2.266  18.589  11.071
70910W        W42526  27.416  17.466  11.032
70911W        W42527  34.204  10.782   4.486
70912W        W42528  25.347  17.783   3.277
70913W        W42529   2.397  17.158  13.778
70914W        W42530  35.276  31.627  11.986
70915W        W42531  30.002  19.297   2.736
70916W        W42532  16.305   6.487   3.755
70917W        W42533  18.303  28.100   0.151
70918W        W42534  40.014  18.382  10.752
70919W        W42535  39.832  39.083  13.935
70920W        W42536  37.484  23.600  10.931
70921W        W42537  11.181  36.836   3.673
70922W        W42538   5.336  19.691   0.218
70923W        W42539  44.214  40.966   3.485
70924W        W42540  21.287  11.066   1.748
70925W        W42541  30.138  24.715  12.062
70926W        W42542   7.174  10.220  14.673
70927W        W42543  26.707  10.209  12.046
70928W        W42544  26.294  40.454   2.896
70929W        W42545  16.775  44.806   4.081
70930W        W42546  10.813   3.373   4.521
70931W        W42547   1.900   2.214  13.391
70932W        W42548   1.581  28.879   0.988
70933W        W42549   7.072  25.151   4.162
70934W        W42550  42.503  43.415  10.685
70935W        W42551   4.454  16.696  14.963
70936W        W42552  26.904  24.088   4.212
70937W        W42553  23.507  32.890   2.289
70938W        W42554  30.665   4.955  13.273
70939W        W42555  44.222  22.145   4.697
70940W        W42556  14.015  36.439   3.169
70941W        W42557   8.426  42.272   4.933
70942W        W42558  16.512   9.365   0.459
70943W        W42559  22.483  18.635  12.535
70944W        W42560  24.772   4.703  12.479
70945W        W42561  41.759  26.436  12.489
70946W        W42562  13.012  28.210  11.104
70947W        W42563  34.482  10.194   4.589
70948W        W42564   5.643  15.701  13.524
70949W        W42565  34.748  41.316  13.038
70950W        W42566  25.548  33.443  10.116
70951W        W42567   6.437   8.497  13.235
70952W        W42568   0.643   7.642  12.468
70953W        W42569   4.948  10.643  11.141
70954W        W42570  12.308  22.121  11.872
70955W        W42571  39.088   1.874  14.457
70956W        W42572  12.843  12.290  12.399
70957W        W42573   3.832   9.518  13.326
70958W        W42574  21.506  24.157  11.189
70959W        W42575  14.354  41.848  12.846
70960W        W42576  24.202  18.276   1.686
70961W        W42577  30.497  39.607   1.904
70962W        W42578  14.645   9.666  11.081
70963W        W42579   0.427  40.378  10.394
70964W        W42580  24.222  26.474   3.610
70965W        W42581  11.586  18.252  14.896
70966W        W42582   5.811   2.757   0.935
70967W        W42583  43.897  33.319   1.342
70968W        W42584  36.462  19.908  14.812
70969W        W42585  22.878  40.362   1.882
70970W        W42586  36.650  36.703  14.436
70971W        W42587  10.312  29.125   3.242
70972W        W42588  18.522   0.907   3.076
70973W        W42589  36.088  20.263  14.129
70974W        W42590   3.647   2.191  13.546
70975W        W42591  17.726  38.524  13.125
70976W        W42592  15.793  24.996   4.989
70977W        W42593   4.359  34.003   0.925
70978W        W42594  30.808  12.872  14.856
70979W        W42595  30.545  17.569   0.832
70980W        W42596   4.145  16.335   0.345
70981W        W42597   5.580   4.084   0.163
70982W        W42598  11.662  17.859  13.473
70983W        W42599  30.613   0.789  11.214
70984W        W42600  41.177  44.935   4.145
70985W        W42601  34.246  19.279  13.247
70986W        W42602  39.985  10.322   2.438
70987W        W42603  39.423  39.553   3.670
70988W        W42604  40.476  21.070   2.467
70989W        W42605  41.526  13.329  13.408
70990W        W42606  13.870   3.675   3.717
70991W        W42607  33.511  19.629   0.779
70992W        W42608   4.289   8.876  10.387
70993W        W42609   6.955  36.526  13.763
70994W        W42610  30.995  30.478   1.336
70995W        W42611  41.088  17.830  12.510
70996W        W42612  11.423  11.694  13.813
70997W        W42613  23.675   3.855   4.144
70998W        W42614  42.413  10.700   2.850
70999W        W42615  42.944  30.140  14.311
71000W        W42616   3.322  35.066  14.236
71001W        W42617  11.260   5.224   0.437
71002W        W42618  19.801  13.362   3.425
71003W        W42619  15.569  38.967  11.587
71004W        W42620  30.900  32.068   0.268
71005W        W42621  31.053  41.788  12.279
71006W        W42622   6.560  41.793  13.158
71007W        W42623  10.470  15.719   0.221
71008W        W42624  44.560  10.224   2.176
71009W        W42625   4.353  29.513   2.630
71010W        W42626  23.423  26.475  13.375
71011W        W42627  14.635  32.551  10.889
71012W        W42628  14.799   9.446  13.364
71013W        W42629  12.747   0.220  11.928
71014W        W42630  11.148  36.164   1.668
71015W        W42631  42.845  35.239   3.753
71016W        W42632   4.457  13.405   0.799
71017W        W42633  22.304  17.579  14.743
71018W        W42634  33.891  33.407  13.448
71019W        W42635   5.910  31.975   4.655
71020W        W42636  32.459  36.077   4.497
71021W        W42637  40.118  11.391  11.173
71022W        W42638  16.180  12.196   4.796
71023W        W42639  24.807  14.289   4.511
71024W        W42640  17.111  16.168  13.111
71025W        W42641  10.110  44.813   4.568
71026W        W42642  44.702  26.437   0.871
71027W        W42643  16.818  36.339  10.637
71028W        W42644  43.762  33.541  14.934
71029W        W42645   7.682   4.442   1.847
71030W        W42646  44.787  31.609   4.058
71031W        W42647  28.406   3.486  14.213
71032W        W42648  34.199  14.894  10.479
71033W        W42649  31.606  25.487  11.471
71034W        W42650  31.973  30.197   4.154
71035W        W42651   0.943  36.972  12.833
71036W        W42652   0.962  23.476  11.396
71037W        W42653  25.696  12.635  11.198
71038W        W42654   6.523  14.284  12.926
71039W        W42655  33.918   3.728  12.830
71040W        W42656  20.097  21.753  11.204
71041W        W42657  37.834  17.775  12.959
71042W        W42658  18.384  43.589   4.313
71043W        W42659  36.869  43.849   2.708
71044W        W42660  22.954  12.460  12.693
71045W        W42661  30.445  32.107   0.555
71046W        W42662   5.929  35.592  11.999
71047W        W42663  14.171   1.032  14.811
71048W        W42664  31.181  32.496  10.728
71049W        W42665  36.579  44.918   4.063
71050W        W42666  44.475  35.698  11.615
71051W        W42667   4.502  39.589   4.781
71052W        W42668  27.615  43.506  13.372
71053W        W42669  41.204  25.356  14.415
71054W        W42670  24.090   7.846   3.250
71055W        W42671   2.229  23.751  10.956
71056W        W42672  39.216  10.910  11.233
71057W        W42673   9.739  42.851   2.774
71058W        W42674  33.462  33.567  12.111
71059W        W42675  27.418  18.717   0.027
71060W        W42676  31.224   9.287   3.204
71061W        W42677  17.723  43.748  10.499
71062W        W42678  23.239   3.355  14.467
71063W        W42679  30.970   7.667  11.031
71064W        W42680  31.496  15.741  12.105
71065W        W42681   7.168  24.458   1.665
71066W        W42682  14.147  25.975   1.689
71067W        W42683  25.703  31.894   4.388
71068W        W42684  14.295  28.570  10.780
71069W        W42685  20.550   8.920   3.452
71070W        W42686  15.910  12.764  12.839
71071W        W42687  30.925  29.599  12.601
71072W        W42688  19.134  33.285   1.100
71073W        W42689   4.771   4.713  13.906
71074W        W42690  24.510   1.368   1.302
71075W        W42691  30.397  16.661   4.739
71076W        W42692  26.089  18.200  13.382
71077W        W42693   2.904  21.721   0.445
71078W        W42694   1.476  14.545  12.975
71079W        W42695  14.801  23.032  13.475
71080W        W42696  28.828  26.135   1.246
71081W        W42697  12.447  34.849  14.856
71082W        W42698  17.179   8.828  13.816
71083W        W42699  24.657  39.914   2.114
71084W        W42700  10.922  15.064   3.281
71085W        W42701   0.241  40.368  10.875
71086W        W42702  15.762  23.907  14.234
71087W        W42703  34.539   2.244  11.166
71088W        W42704  33.594  44.569  12.493
71089W        W42705  22.188  35.194  14.010
71090W        W42706  37.327  13.079  12.961
71091W        W42707  34.591  10.825   0.756
71092W        W42708  38.526  28.598  11.557
71093W        W42709  23.923  32.815  14.222
71094W        W42710   1.057  41.954   3.618
71095W        W42711  25.675   6.683  13.341
71096W        W42712  17.102  30.678  13.859
71097W        W42713  28.087  19.751  12.305
71098W        W42714   0.068  36.717  12.891
71099W        W42715  18.641  40.480   4.534
71100W        W42716  22.450  10.688   2.360
71101W        W42717  19.240   1.395  13.520
71102W        W42718  23.513  22.157  11.087
71103W        W42719  22.264   1.875   1.342
71104W        W42720  21.755   3.746  13.329
71105W        W42721  27.473   0.531   4.906
71106W        W42722  11.362  13.277  10.713
71107W        W42723   7.425  43.294  13.007
71108W        W42724  13.527  20.404  10.924
71109W        W42725  25.053  12.282   4.590
71110W        W42726  36.094  22.128  13.974
71111W        W42727  22.243  13.592  13.541
71112W        W42728  21.199  14.649   3.215
71113W        W42729   0.774  11.899   1.721
71114W        W42730   8.700  29.035  11.123
71115W        W42731  15.534  18.341   9.825
71116W        W42732  15.107  37.351  13.531
71117W        W42733  17.230  37.998  11.189
71118W        W42734   6.433  19.189   4.121
71119W        W42735   5.816  15.564  13.020
71120W        W42736  29.329  10.062   4.589
71121W        W42737  40.036   0.680  11.649
71122W        W42738  25.145   7.704  14.944
71123W        W42739  25.946   7.171  10.661
71124W        W42740  35.059  20.293  12.154
71125W        W42741  30.213  26.494  12.541
71126W        W42742   8.282  31.636  13.357
71127W        W42743  33.440  23.958   0.792
71128W        W42744  34.611  14.698  10.693
71129W        W42745  27.068  14.141  13.289
71130W        W42746  18.653  43.805   5.356
71131W        W42747  31.158  44.955   0.014
71132W        W42748  40.974  32.499   3.780
71133W        W42749  36.773  17.817   3.200
71134W        W42750  29.912  34.639  14.485
71135W        W42751  24.638  18.556   1.747
71136W        W42752  42.321  34.012  12.460
71137W        W42753  27.942  43.900  12.120
71138W        W42754  35.958   3.412  13.822
71139W        W42755  23.216  41.425  14.029
71140W        W42756  32.641  15.373   2.655
71141W        W42757  41.445  16.610   0.683
71142W        W42758  26.652   7.899  10.744
71143W        W42759  24.588  43.437   3.246
71144W        W42760   3.529  42.266  13.535
71145W        W42761  38.319  20.456   3.605
71146W        W42762  24.111  14.636   4.339
71147W        W42763   5.810  24.269  10.770
71148W        W42764  19.719   8.854  13.461
71149W        W42765  41.186  44.153  10.755
71150W        W42766  17.066   9.276  12.984
71151W        W42767  17.621  30.007  14.782
71152W        W42768  44.619   8.504  11.145
71153W        W42769  26.488   4.387  13.888
71154W        W42770   6.477   3.235  12.078
71155W        W42771  21.030  36.260  14.772
71156W        W42772  40.456  22.596   4.392
71157W        W42773   8.467   9.252  13.187
71158W        W42774  33.016  30.186  13.196
71159W        W42775  42.369  16.720  11.459
71160W        W42776  23.106  29.591  13.890
71161W        W42777  26.518   1.649   0.375
71162W        W42778   9.671  21.918  13.056
71163W        W42779  42.244   0.836   0.807
71164W        W42780  16.201  34.594  14.437
71165W        W42781  30.997   9.204  14.379
71166W        W42782   3.913  35.445   3.183
71167W        W42783  24.415   9.671  12.931
71168W        W42784  16.528  39.065  11.117
71169W        W42785  11.568   6.441  11.019
71170W        W42786  13.443   5.695   1.872
71171W        W42787   6.598   3.347   3.762
71172W        W42788   6.022   3.839   2.262
71173W        W42789  38.335  11.524   4.266
71174W        W42790  35.182  32.353   1.731
71175W        W42791  21.710  28.434   3.311
71176W        W42792  38.061  43.754  11.616
71177W        W42793  29.733  29.515  11.590
71178W        W42794  24.660  27.761  12.937
71179W        W42795  27.086   0.310   2.470
71180W        W42796   9.309  17.523   1.578
71181W        W42797  23.139   7.460   4.210
71182W        W42798  37.851  29.649   1.181
71183W        W42799  35.079  25.960  14.572
71184W        W42800   7.692  30.651  14.856
71185W        W42801  10.388  12.770   2.390
71186W        W42802  44.832   5.643   1.460
71187W        W42803  14.264  39.265  13.681
71188W        W42804  26.985  37.522   4.599
71189W        W42805  17.385   6.994  13.367
71190W        W42806   6.320  35.948  11.931
71191W        W42807  15.406  17.850   2.445
71192W        W42808  35.245  35.044   4.755
71193W        W42809  10.173  19.261   1.209
71194W        W42810  17.144  27.667   0.121
71195W        W42811   2.474   0.069  14.875
71196W        W42812  16.589  40.838  12.574
71197W        W42813  14.334  41.455   3.365
71198W        W42814  28.606  28.943   1.732
71199W        W42815  30.503  39.282  14.733
71200W        W42816  40.905  31.968   3.620
71201W        W42817  35.085  17.368   3.360
71202W        W42818  36.332  22.253   4.546
71203W        W42819  23.682   3.190  10.803
71204W        W42820   5.827   5.679  11.204
71205W        W42821   8.716  18.507  10.570
71206W        W42822  41.089  33.394   5.037
71207W        W42823  40.858  39.761  12.110
71208W        W42824  21.154  38.198   3.246
71209W        W42825  24.409  30.986   2.767
71210W        W42826  30.574   0.949   0.339
71211W        W42827   6.106  20.497  11.127
71212W        W42828  41.268  34.840  13.850
71213W        W42829  32.091  27.164  12.501
71214W        W42830  24.499  15.313   3.272
71215W        W42831  33.796  16.307   1.199
71216W        W42832  42.844   2.000   4.494
71217W        W42833   7.653  11.675   4.655
71218W        W42834  21.746  29.690   0.894
71219W        W42835  13.794  23.257   3.659
71220W        W42836  21.984  33.471   1.812
71221W        W42837  44.121  20.483  11.165
71222W        W42838   2.539   4.809   4.069
71223W        W42839  29.637  20.019   2.239
71224W        W42840  37.544  42.059  10.597
71225W        W42841  43.493  32.295   2.717
71226W        W42842  30.020  17.479   2.393
71227W        W42843  35.158  41.548  14.024
71228W        W42844  20.683  42.831  12.101
71229W        W42845  10.561  28.329   1.209
71230W        W42846  35.771  41.327   0.742
71231W        W42847  24.057  33.024  13.378
71232W        W42848  39.294   3.631  11.025
71233W        W42849  25.697  12.301  13.521
71234W        W42850  32.381  15.910   4.961
71235W        W42851   0.568  43.719   2.137
71236W        W42852  20.453  33.313   2.937
71237W        W42853  33.948  31.953   3.680
71238W        W42854   5.396  16.179   0.884
71239W        W42855  32.141   0.891   0.805
71240W        W42856  17.221  39.064  12.489
71241W        W42857  22.007  17.769   3.398
71242W        W42858  15.752   6.844   4.557
71243W        W42859  23.556  10.364  14.369
71244W        W42860  43.233   7.428  13.340
71245W        W42861  18.902  14.876   4.864
71246W        W42862  16.814  34.054  11.667
71247W        W42863  24.199  21.289   3.716
71248W        W42864  18.102  16.867   1.289
71249W        W42865   5.817  12.134  14.954
71250W        W42866  22.773  37.171  10.501
71251W        W42867  15.834  11.522   0.232
71252W        W42868  15.664  44.235   2.409
71253W        W42869  27.630  16.965  10.988
71254W        W42870  40.315  28.086   1.135
71255W        W42871  30.980  41.251  12.169
71256W        W42872  38.955  44.271   1.888
71257W        W42873  23.002  25.511   1.930
71258W        W42874  28.456  43.400  10.954
71259W        W42875  30.415   7.997  13.945
71260W        W42876   8.430   3.967   3.757
71261W        W42877  32.881   8.704  13.925
71262W        W42878  23.239  32.681  12.383
71263W        W42879   4.107  14.801   2.228
71264W        W42880  44.632  18.893   5.136
71265W        W42881  18.842  29.889   0.075
71266W        W42882   6.435  27.371  12.936
71267W        W42883   7.794   0.252  13.795
71268W        W42884  27.194  25.508  13.515
71269W        W42885  44.835  39.896  10.889
71270W        W42886   0.905  44.582  11.093
71271W        W42887  31.869  23.072   1.916
71272W        W42888  20.513  13.283  11.568
71273W        W42889  41.164  31.759   2.683
71274W        W42890  37.038  22.075  12.026
71275W        W42891  32.505   0.015  10.414
71276W        W42892  17.584  34.028   1.635
71277W        W42893  15.304  15.077  11.152
71278W        W42894  44.668  42.762  10.167
71279W        W42895  31.581  41.608   2.526
71280W        W42896   7.813  28.098  13.955
71281W        W42897   2.196  39.637  14.471
71282W        W42898  10.254  33.428   4.161
71283W        W42899  23.094  44.989   0.947
71284W        W42900  14.269  38.927  12.080
71285W        W42901  15.656   6.543  12.778
71286W        W42902  20.721  26.060   3.106
71287W        W42903  22.618  33.396  12.869
71288W        W42904  17.305  28.119   0.337
71289W        W42905  24.082   2.327  14.415
71290W        W42906   1.796  14.167   4.647
71291W        W42907  13.626  30.624  13.596
71292W        W42908  37.691  25.836   0.287
71293W        W42909  29.531  41.056   4.365
71294W        W42910  32.919  41.847   3.677
71295W        W42911  24.819  27.627   1.766
71296W        W42912  44.567  35.777   2.911
71297W        W42913  36.784  30.813  12.300
71298W        W42914  43.387  34.608  14.829
71299W        W42915  33.535   1.763  14.582
71300W        W42916   7.526  10.078  12.396
71301W        W42917   5.673  30.009  12.579
71302W        W42918  39.250  33.483  11.877
71303W        W42919   9.580  22.305   2.426
71304W        W42920  28.881   6.979  11.914
71305W        W42921  37.904  10.446   0.930
71306W        W42922  12.063  12.973   1.720
71307W        W42923  30.379  43.015  12.450
71308W        W42924  13.536  27.000  14.375
71309W        W42925   7.837  15.759   2.188
71310W        W42926  28.056   8.700   1.967
71311W        W42927  20.179  32.038   1.830
71312W        W42928  23.794   0.407  14.528
71313W        W42929  35.171  36.018   1.383
71314W        W42930  28.381  16.801  14.289
71315W        W42931  20.329   3.513  10.436
71316W        W42932  37.908   1.074   4.321
71317W        W42933  12.275  22.035   4.598
71318W        W42934  29.103  37.741   0.823
71319W        W42935  31.941  26.725  11.561
71320W        W42936  37.302   5.340   0.813
71321W        W42937  23.620  24.703  14.680
71322W        W42938   3.423  25.562  10.328
71323W        W42939  14.324  43.349  10.703
71324W        W42940  23.377   6.629  11.414
71325W        W42941  17.921  33.785  13.540
71326W        W42942   7.722  23.806   1.646
71327W        W42943  35.070   6.773  11.752
71328W        W42944  26.207   2.926   3.072
71329W        W42945  23.254  26.649  11.501
71330W        W42946  43.436  10.679  10.508
71331W        W42947  32.190   5.927  11.498
71332W        W42948  32.160  10.758   2.782
71333W        W42949  22.182  10.258  13.915
71334W        W42950  32.198  28.242   1.875
71335W        W42951  13.476  41.005   0.794
71336W        W42952  41.645  43.929   2.174
71337W        W42953  31.944  25.026   3.876
71338W        W42954  12.218   1.804  10.727
71339W        W42955  36.388  23.795   0.657
71340W        W42956  18.304  28.402   2.418
71341W        W42957  27.212  44.964   4.366
71342W        W42958   3.572  27.145  14.852
71343W        W42959  17.405  14.652  14.285
71344W        W42960  40.128  13.836  10.972
71345W        W42961   7.458  23.394   0.014
71346W        W42962   2.993  36.795   2.371
71347W        W42963   3.328   8.727  12.137
71348W        W42964  23.234   1.373   0.723
71349W        W42965   1.228  32.462   3.781
71350W        W42966  33.099  13.544   2.610
71351W        W42967  11.179  37.836  11.106
71352W        W42968  11.812  12.347   2.362
71353W        W42969  42.509  34.376   2.277
71354W        W42970  11.821  39.860   2.746
71355W        W42971  36.398  13.733   3.849
71356W        W42972  42.023  35.949  10.698
71357W        W42973  20.209   6.681  10.715
71358W        W42974  32.720  16.665  12.926
71359W        W42975  27.956  10.289  14.520
71360W        W42976  43.039  18.201   3.760
71361W        W42977  25.001  35.951   4.886
71362W        W42978  27.070  39.197   0.231
71363W        W42979  28.956   9.822   1.190
71364W        W42980  21.171   3.779   0.345
71365W        W42981  26.023  26.024  12.459
71366W        W42982   7.878  10.785   4.547
71367W        W42983   0.833  23.641   0.763
71368W        W42984  27.945  44.843  14.520
71369W        W42985  10.242  22.665   0.200
71370W        W42986  25.661  43.923  14.059
71371W        W42987  36.378  27.886   0.017
71372W        W42988  24.857  21.209  11.578
71373W        W42989  33.035  28.631   2.002
71374W        W42990  29.964  44.616   0.371
71375W        W42991  44.493  39.520   0.741
71376W        W42992  27.985  44.296  12.960
71377W        W42993  13.294  19.090  13.855
71378W        W42994  19.050   8.764  11.175
71379W        W42995  37.297   4.816  14.844
71380W        W42996  36.836  33.683   1.708
71381W        W42997  34.358   9.377  12.996
71382W        W42998  14.275  44.854   1.746
71383W        W42999  15.080  16.205  10.902
71384W        W43000  23.583  26.088   2.479
71385W        W43001  12.962  28.580   3.948
71386W        W43002  13.032   5.895   2.818
71387W        W43003  27.214  20.785  11.198
71388W        W43004  23.078  20.954  11.263
71389W        W43005  22.337  32.701  14.241
71390W        W43006  33.098  22.223   1.221
71391W        W43007  42.238   5.236  14.951
71392W        W43008  32.899  42.418  13.946
71393W        W43009  26.654  43.112  10.695
71394W        W43010  25.960  42.275   1.311
71395W        W43011  32.737  13.171   2.665
71396W        W43012  12.878  19.167  10.411
71397W        W43013   7.272  41.400   3.765
71398W        W43014  25.456   4.178   3.658
71399W        W43015   3.580  43.311  12.186
71400W        W43016  20.146  38.374   2.811
71401W        W43017  34.108  21.630   4.222
71402W        W43018  41.334  44.821  13.971
71403W        W43019  31.897  12.195   1.990
71404W        W43020  38.094  23.985   0.473
71405W        W43021  42.042  44.847   0.321
71406W        W43022  21.343  29.287   4.999
71407W        W43023  44.683   0.220  14.806
71408W        W43024  33.917  42.932  14.866
71409W        W43025  21.467  40.959   0.019
71410W        W43026  17.258  31.454   1.195
71411W        W43027  44.734  26.033  13.001
71412W        W43028  41.327  33.105   3.350
71413W        W43029   4.863  19.591   5.077
71414W        W43030  17.081  25.950   3.343
71415W        W43031   2.408   0.143  11.972
71416W        W43032  11.343  36.025  10.964
71417W        W43033  25.691  15.623  14.052
71418W        W43034  30.003  18.096  12.828
71419W        W43035   5.218   9.899  13.343
71420W        W43036  36.382  39.089  13.479
71421W        W43037   7.246  14.232   4.944
71422W        W43038  40.019  21.597  12.963
71423W        W43039  21.486  30.224  13.028
71424W        W43040  44.287   5.906  12.958
71425W        W43041  39.813  37.093   1.407
71426W        W43042  23.048  44.737   4.362
71427W        W43043   0.552  34.031   1.714
71428W        W43044  37.358  38.573   3.917
71429W        W43045   9.505  43.588  14.750
71430W        W43046  10.179  17.805   0.780
71431W        W43047   0.648  39.116   2.956
71432W        W43048  39.891   3.629   2.365
71433W        W43049  44.723  17.079  10.918
71434W        W43050  33.383  15.230   3.991
71435W        W43051  32.502  12.289   0.820
71436W        W43052   8.986  44.396   3.826
71437W        W43053  13.242  26.974   4.125
71438W        W43054   7.408   8.928   5.030
71439W        W43055  37.074  33.047   0.706
71440W        W43056  10.868  31.315  13.432
71441W        W43057  42.483   6.888  14.379
71442W        W43058   2.121  42.743   3.783
71443W        W43059  41.752   5.094  14.779
71444W        W43060  38.269  30.071   0.025
71445W        W43061  16.307   6.068  14.563
71446W        W43062   0.594  31.816  10.362
71447W        W43063   2.416  22.587   5.472
71448W        W43064  10.439  16.877  13.061
71449W        W43065  37.507  12.341   3.082
71450W        W43066  33.052   0.387  14.038
71451W        W43067  31.067  18.356  11.022
71452W        W43068  21.568  33.096   0.800
71453W        W43069  35.481  33.226   0.426
71454W        W43070  20.192  18.739  11.693
71455W        W43071  34.183  37.437   2.690
71456W        W43072   1.763  22.577  14.285
71457W        W43073  13.580   0.444   4.174
71458W        W43074  18.041  28.509  12.054
71459W        W43075  24.132   0.282  14.140
71460W        W43076   4.260  43.302   9.737
71461W        W43077  11.840  31.504   3.086
71462W        W43078   8.825  17.010  13.653
71463W        W43079   3.853  16.028  12.290
71464W        W43080  24.845   1.443  12.751
71465W        W43081  41.834   9.316  10.397
71466W        W43082  14.553  43.920   0.278
71467W        W43083  25.132  15.685  12.363
71468W        W43084   4.458   5.446  11.514
71469W        W43085  12.701   8.972   0.258
71470W        W43086  44.997  38.657   3.204
71471W        W43087  24.701  36.707   3.136
71472W        W43088  18.629  12.195   1.007
71473W        W43089  41.273  22.995   4.291
71474W        W43090  28.537  11.087   1.434
71475W        W43091   4.318   7.946  10.928
71476W        W43092   1.000  23.489   3.682
71477W        W43093  11.763  16.309   2.927
71478W        W43094  27.133  36.089   3.205
71479W        W43095  35.372  26.137   3.961
71480W        W43096   5.654  17.729  10.813
71481W        W43097  25.194   4.860   0.913
71482W        W43098  33.056  34.875  13.546
71483W        W43099  26.281  21.536  10.639
71484W        W43100  44.666  29.858   3.350
71485W        W43101  11.770  37.600   5.218
71486W        W43102   0.238  10.551  13.027
71487W        W43103   1.511   8.807   1.537
71488W        W43104   5.945   9.756   4.795
71489W        W43105  37.095  40.439   1.540
71490W        W43106  13.055  35.898  13.516
71491W        W43107  31.997   1.763  13.581
71492W        W43108   1.333  19.345   4.407
71493W        W43109  36.357   7.600   3.699
71494W        W43110  30.973   7.150   0.287
71495W        W43111  20.704  43.561  13.841
71496W        W43112  20.752  22.579   3.627
71497W        W43113  30.538  35.478   1.508
71498W        W43114  15.029   7.204   3.264
71499W        W43115  34.581  10.139  12.487
71500W        W43116  11.518  33.108  14.983
71501W        W43117  14.025  35.966   2.768
71502W        W43118  29.759   0.884   4.965
71503W        W43119  12.575  19.394  13.399
71504W        W43120   8.890  42.917  12.044
71505W        W43121   7.810   2.791   4.774
71506W        W43122  34.798   7.676  12.838
71507W        W43123  44.420  17.763   1.922
71508W        W43124  41.920   0.705  11.087
71509W        W43125  25.190  35.298  14.818
71510W        W43126  39.472   0.253   3.331
71511W        W43127   8.106  25.703  13.344
71512W        W43128  25.361   2.427  10.675
71513W        W43129  23.421  42.919  13.499
71514W        W43130  32.695  12.616  11.068
71515W        W43131  31.217  17.645   0.042
71516W        W43132  15.241  37.299  11.039
71517W        W43133  25.005  24.986   0.340
71518W        W43134   3.627  13.334   0.257
71519W        W43135  19.668   0.002  14.909
71520W        W43136  18.218   6.343  10.631
71521W        W43137  39.125   2.065   0.441
71522W        W43138  31.408  13.506  12.876
71523W        W43139  10.656  35.449  14.780
71524W        W43140  19.469   3.747  14.880
71525W        W43141  27.447  35.903   1.090
71526W        W43142  23.002   4.354  14.459
71527W        W43143  16.072  35.402   1.756
71528W        W43144  23.806  24.633  13.364
71529W        W43145  36.951  38.504   2.427
71530W        W43146  19.384  24.798  13.547
71531W        W43147  33.922  29.090   3.853
71532W        W43148  42.838  18.632  11.887
71533W        W43149  21.987  20.858  13.088
71534W        W43150  13.850  14.157   3.265
71535W        W43151  13.363   6.407  14.370
71536W        W43152  25.013   1.933  12.646
71537W        W43153  35.244   2.361  13.364
71538W        W43154  12.857  38.437  11.207
71539W        W43155  25.660   6.625   0.288
71540W        W43156   6.444  18.731  12.796
71541W        W43157  13.776  17.427  14.095
71542W        W43158  18.231  44.434  10.691
71543W        W43159  40.498   4.918  13.478
71544W        W43160  26.278  42.741   2.854
71545W        W43161  42.192   0.871   0.288
71546W        W43162  14.008   5.151  12.365
71547W        W43163  24.034  18.160   0.221
71548W        W43164  28.730  14.338   4.671
71549W        W43165  29.482  37.687   2.451
71550W        W43166   4.292  32.416  10.601
71551W        W43167  36.048  25.048  14.074
71552W        W43168  24.603  38.509  12.518
71553W        W43169  41.311  21.642  11.612
71554W        W43170  37.864  11.925  11.692
71555W        W43171  13.747   5.904  10.832
71556W        W43172  13.274  34.886   3.217
71557W        W43173  13.649  22.121   2.498
71558W        W43174  32.945  12.398  13.338
71559W        W43175  29.871  11.162   3.758
71560W        W43176  42.703  20.169   2.066
71561W        W43177  21.999  28.515  13.309
71562W        W43178   3.952  20.528   4.537
71563W        W43179  34.370   1.831   4.558
71564W        W43180   6.142  42.726   4.623
71565W        W43181  24.437  44.726   0.068
71566W        W43182  38.314  22.704   1.864
71567W        W43183  30.023  17.732   3.837
71568W        W43184  15.652  41.414  14.336
71569W        W43185  16.182   9.605   3.159
71570W        W43186  39.645  42.912   2.172
71571W        W43187  18.651   4.820  10.649
71572W        W43188  38.791   9.255  11.668
71573W        W43189   7.981  40.375   4.989
71574W        W43190  40.291  44.705  11.499
71575W        W43191  23.655  41.394  11.413
71576W        W43192   2.335   5.916  10.617
71577W        W43193  41.505  10.922  11.317
71578W        W43194  10.572  27.983  13.861
71579W        W43195  34.652  16.742   0.732
71580W        W43196   5.646   5.392  12.547
71581W        W43197  31.533  39.561   3.188
71582W        W43198  20.366  30.797  14.061
71583W        W43199  36.064   2.438   4.885
71584W        W43200   3.404  21.244   4.358
71585W        W43201  31.688  44.472   3.321
71586W        W43202  33.350  32.147   2.696
71587W        W43203  30.526  34.456   4.473
71588W        W43204  12.334  11.666   3.725
71589W        W43205  20.601  27.983   3.201
71590W        W43206  43.171  34.361   1.705
71591W        W43207  44.083   3.593  11.528
71592W        W43208  33.547  22.549  13.866
71593W        W43209  29.820  12.849  10.562
71594W        W43210  30.091  20.764   1.857
71595W        W43211  37.448  27.240   3.926
71596W        W43212  14.409   0.352   4.686
71597W        W43213   7.969  28.911   3.608
71598W        W43214  37.441  35.951  13.053
71599W        W43215  18.808  12.366   0.017
71600W        W43216  13.736   5.864  10.321
71601W        W43217  27.552  35.860   3.438
71602W        W43218  29.061  17.153  14.301
71603W        W43219  39.004   7.904   2.021
71604W        W43220  30.148  21.468   0.745
71605W        W43221   6.798   0.611   1.292
71606W        W43222  14.808  31.529  11.658
71607W        W43223  35.813  32.604  12.785
71608W        W43224  18.314  11.778   2.275
71609W        W43225  30.867  25.037  10.810
71610W        W43226  26.133  16.646  13.453
71611W        W43227  39.179   0.116  11.628
71612W        W43228  16.497  42.826   5.568
71613W        W43229  22.863  26.172  14.521
71614W        W43230  44.630   0.752   1.769
71615W        W43231  39.292  14.882   3.554
71616W        W43232  32.170  27.470  12.096
71617W        W43233  25.161  18.890   4.601
71618W        W43234  33.896   4.361  13.362
71619W        W43235   3.297  13.046  13.002
71620W        W43236   5.694  31.881  12.070
71621W        W43237  19.782  11.253   2.278
71622W        W43238  21.191  33.694  11.184
71623W        W43239  25.673  22.527  14.806
71624W        W43240  15.292  26.012   2.665
71625W        W43241   6.262  36.585  13.126
71626W        W43242  30.900  41.422  13.552
71627W        W43243  34.001  41.430   3.319
71628W        W43244  18.094  35.496  14.316
71629W        W43245   3.428  22.650  12.173
71630W        W43246  34.884  11.795   4.469
71631W        W43247   2.323   3.698  12.925
71632W        W43248   7.054  38.483  14.874
71633W        W43249   9.682  10.869   0.331
71634W        W43250   3.460   1.312   2.259
71635W        W43251  25.041  17.192  14.694
71636W        W43252  25.557  42.385   1.627
71637W        W43253  31.120  42.074   3.557
71638W        W43254  11.739  24.994   4.545
71639W        W43255  31.176  38.310   2.671
71640W        W43256  29.745  10.801   1.214
71641W        W43257  36.818  16.605  11.094
71642W        W43258  36.496  13.705  11.523
71643W        W43259  11.382  36.831  13.378
71644W        W43260  23.741   8.285  14.857
71645W        W43261  30.059  12.650   3.945
71646W        W43262  38.456  15.370  14.389
71647W        W43263  29.098  35.336   3.588
71648W        W43264  32.979  42.121  12.852
71649W        W43265  39.660  44.526  11.099
71650W        W43266  30.114   2.452  14.858
71651W        W43267  32.656  25.064   3.207
71652W        W43268  21.582   4.011   0.595
71653W        W43269  21.265  39.608   2.885
71654W        W43270  19.020  15.290  12.159
71655W        W43271  37.546  43.430   2.954
71656W        W43272  42.287   6.403  12.493
71657W        W43273   9.235  39.839  11.884
71658W        W43274   8.180  37.532  13.853
71659W        W43275  43.424  35.815  13.973
71660W        W43276  34.930  42.006  14.198
71661W        W43277  40.537  21.030  10.573
71662W        W43278   4.778  21.748  12.073
71663W        W43279  44.235  41.339   0.390
71664W        W43280  19.052  16.372  12.120
71665W        W43281  28.190   6.314  12.151
71666W        W43282  10.608  32.768   1.441
71667W        W43283  34.029  20.812   2.148
71668W        W43284  17.206  20.601   0.996
71669W        W43285  44.735  22.584   4.287
71670W        W43286   8.930  21.699   3.688
71671W        W43287  26.721   3.122  11.582
71672W        W43288  19.558  36.620  13.510
71673W        W43289  15.754  34.667  13.296
71674W        W43290   1.349  21.434  14.468
71675W        W43291  27.410   9.261  12.511
71676W        W43292  10.219   9.127  10.333
71677W        W43293  36.002  23.798  11.935
71678W        W43294  12.138   9.880   4.161
71679W        W43295  21.975   9.163  12.516
71680W        W43296  25.435   6.855  13.765
71681W        W43297   4.583  34.579   3.286
71682W        W43298  18.086   7.316   3.481
71683W        W43299  20.733  37.853   3.707
71684W        W43300  29.513  26.894   3.072
71685W        W43301   3.209  32.098   2.840
71686W        W43302  39.894   7.181   2.593
71687W        W43303  22.269  17.196  11.061
71688W        W43304   2.056  35.732   3.759
71689W        W43305  25.100   3.373  10.305
71690W        W43306   5.691  27.893  11.447
71691W        W43307  11.437  30.865   3.472
71692W        W43308  44.788   7.863   2.240
71693W        W43309   5.251  28.614  12.945
71694W        W43310  36.614  32.498   1.424
71695W        W43311  35.188  21.859   2.318
71696W        W43312  15.411  13.129  13.297
71697W        W43313  43.772  41.026   3.219
71698W        W43314   1.695  41.923   4.579
71699W        W43315  10.858  23.210  10.675
71700W        W43316  42.558   1.928   2.406
71701W        W43317  37.493  13.155   3.060
71702W        W43318  21.250  20.716   0.833
71703W        W43319  29.126  23.130   3.132
71704W        W43320   4.182   8.786  11.941
71705W        W43321   4.717  13.298   3.789
71706W        W43322  39.429  24.041   4.632
71707W        W43323  41.903  19.795   1.582
71708W        W43324  38.093  34.380  14.504
71709W        W43325  38.123  31.571   3.733
71710W        W43326  31.978  35.379   2.741
71711W        W43327  44.447  14.318   3.585
71712W        W43328   4.709  37.868  14.432
71713W        W43329   6.226   6.435  10.705
71714W        W43330  32.495  31.878   1.426
71715W        W43331   4.964  28.446  13.867
71716W        W43332  26.042  26.969  12.163
71717W        W43333  42.481   7.301  12.159
71718W        W43334  19.395  25.186   0.321
71719W        W43335  13.270   2.204   3.148
71720W        W43336  15.051  20.110  13.898
71721W        W43337  30.452   0.785  13.044
71722W        W43338  13.761   2.902  13.873
71723W        W43339  28.499  28.858   1.232
71724W        W43340  18.457  32.919  14.883
71725W        W43341   9.808  19.444  10.578
71726W        W43342  31.970  43.785   4.120
71727W        W43343  40.401  12.613   0.218
71728W        W43344  14.568  39.542  12.849
71729W        W43345  44.846  27.856  14.770
71730W        W43346  34.777   2.945  12.375
71731W        W43347  24.191  21.545   5.269
71732W        W43348   1.740  21.804   4.774
71733W        W43349   9.005   2.873   0.037
71734W        W43350  25.180  35.596  11.095
71735W        W43351  21.449  39.114   2.766
71736W        W43352   9.425  14.362   2.274
71737W        W43353   4.084  11.597   3.234
71738W        W43354  40.546  21.622  12.880
71739W        W43355  16.597  42.443   5.160
71740W        W43356   5.387  36.839   1.056
71741W        W43357   5.425  42.461   0.355
71742W        W43358  40.105  12.155  14.974
71743W        W43359  30.428  18.314  12.600
71744W        W43360  10.809  20.603   1.829
71745W        W43361  15.977   4.321  11.443
71746W        W43362  32.911  38.592  11.091
71747W        W43363  30.607  25.763   1.904
71748W        W43364  43.425   1.938  11.723
71749W        W43365  34.412  35.528  11.791
71750W        W43366   0.239   5.224   4.093
71751W        W43367  12.332  19.721   4.873
71752W        W43368  42.412  26.748  13.576
71753W        W43369  16.200  20.222   4.871
71754W        W43370   1.586  39.997  12.365
71755W        W43371  34.321   9.765   0.246
71756W        W43372  17.649  12.268   3.971
71757W        W43373  25.542  22.021  12.537
71758W        W43374  32.372  21.254  11.929
71759W        W43375  11.128  16.825   2.860
71760W        W43376  34.045  34.803  11.953
71761W        W43377   8.603   2.713   1.807
71762W        W43378  17.422   8.922  12.999
71763W        W43379  10.721  21.779   2.129
71764W        W43380  28.146  33.771   1.015
71765W        W43381  14.270  39.920  11.216
71766W        W43382  32.349  44.767   2.013
71767W        W43383  23.900  28.964   0.776
71768W        W43384  19.575  17.125  11.183
71769W        W43385   7.408   7.590  10.756
71770W        W43386   7.315  12.647  10.950
71771W        W43387  35.052  16.531   1.869
71772W        W43388  20.716  43.698  13.288
71773W        W43389   9.712   9.615   4.361
71774W        W43390  39.448  31.876   3.292
71775W        W43391   0.293  33.056  11.449
71776W        W43392  40.928   8.132  12.521
71777W        W43393  34.043   7.821   4.716
71778W        W43394  11.145  17.344  14.698
71779W        W43395  18.752  39.351  11.116
71780W        W43396   5.164  24.537   2.898
71781W        W43397  10.883  32.395  12.982
71782W        W43398   6.322   7.394  11.276
71783W        W43399  44.499  22.199   2.293
71784W        W43400  21.662  35.286  12.393
71785W        W43401  32.529   7.772   1.394
71786W        W43402  33.861   6.152   1.770
71787W        W43403  27.458  27.987   1.620
71788W        W43404  37.971  12.143  10.813
71789W        W43405  44.935  39.735   0.457
71790W        W43406  39.565   4.738  10.174
71791W        W43407  26.636   9.627   2.910
71792W        W43408   8.636  12.918   4.304
71793W        W43409   8.382   7.669   3.325
71794W        W43410  13.646  37.542  10.950
71795W        W43411  43.767  38.451   2.746
71796W        W43412  14.075  14.941  11.529
71797W        W43413  39.025  44.472   4.227
71798W        W43414   4.015  18.612  10.640
71799W        W43415   6.861   7.987   0.698
71800W        W43416  31.983  28.136  11.152
71801W        W43417  32.310  44.587  13.292
71802W        W43418  21.053  32.972   2.117
71803W        W43419  36.527  12.212  14.023
71804W        W43420   6.718   4.747  11.442
71805W        W43421  10.102  17.290   0.007
71806W        W43422  44.934   8.194  11.403
71807W        W43423  44.861  23.630  14.232
71808W        W43424  44.754  34.121  13.363
71809W        W43425  23.716  19.136   4.726
71810W        W43426  41.894  33.040   0.670
71811W        W43427  38.244  16.840   3.220
71812W        W43428  28.213  16.814   0.610
71813W        W43429  13.663  27.210  12.421
71814W        W43430   6.455   1.944   0.811
71815W        W43431   1.073  17.991  13.337
71816W        W43432  37.039   5.969  11.552
71817W        W43433  33.001  15.777  10.661
71818W        W43434  28.194  41.960  14.054
71819W        W43435  41.786  40.324  11.986
71820W        W43436  14.372  41.484  11.918
71821W        W43437  38.982   3.421  13.638
71822W        W43438   9.261   0.423   2.970
71823W        W43439  14.817  35.671   4.703
71824W        W43440  37.302  24.971  14.939
71825W        W43441  34.994   8.429   4.713
71826W        W43442  21.557  25.532  10.650
71827W        W43443  28.695  25.503   1.937
71828W        W43444  29.649  15.181   5.090
71829W        W43445   7.312  39.440   4.735
71830W        W43446  27.683   6.184  12.878
71831W        W43447  26.126  24.536   4.414
71832W        W43448  14.510  33.842   1.167
71833W        W43449  15.132  30.048  13.087
71834W        W43450  29.004   8.271  11.592
71835W        W43451  39.872  28.308   0.942
71836W        W43452  20.999  33.353   2.896
71837W        W43453  28.529   4.913   0.978
71838W        W43454  31.104  40.172  14.994
71839W        W43455  42.915   5.735  13.307
71840W        W43456   4.348   7.705   4.119
71841W        W43457   3.199  43.836  10.314
71842W        W43458  29.197  11.677   4.049
71843W        W43459  41.033  32.928  11.618
71844W        W43460   8.756   6.715   0.003
71845W        W43461  31.913  24.236  12.140
71846W        W43462  37.513  13.190   3.578
71847W        W43463   7.618  44.714   1.497
71848W        W43464  12.157  23.052   0.192
71849W        W43465  22.944  15.151  13.008
71850W        W43466  14.204  27.213   2.585
71851W        W43467  24.976  43.689   1.978
71852W        W43468   0.832  30.137  11.980
71853W        W43469  18.826  22.131  14.801
71854W        W43470  30.180  17.615   0.038
71855W        W43471  42.590  36.053   4.317
71856W        W43472  44.316   4.412   2.410
71857W        W43473   7.332  19.169   2.168
71858W        W43474  28.637  25.561  10.693
71859W        W43475  31.481  18.026   2.267
71860W        W43476   5.265  29.992  11.167
71861W        W43477  12.765   6.587  10.620
71862W        W43478  38.661  26.570  11.981
71863W        W43479  31.071   1.418  14.784
71864W        W43480  39.469   3.909   2.187
71865W        W43481   7.020  41.775  13.384
71866W        W43482  33.704  40.275  14.865
71867W        W43483  40.356  35.614  14.330
71868W        W43484   8.887  37.970  12.768
71869W        W43485   1.375  21.648  14.965
71870W        W43486   3.063  13.157   0.803
71871W        W43487  42.067  39.552  13.801
71872W        W43488  30.558   2.874  13.043
71873W        W43489   2.364  14.167  11.748
71874W        W43490   1.396  19.082  14.996
71875W        W43491  18.089   2.781  11.264
71876W        W43492  15.109   5.986  14.907
71877W        W43493   8.933  10.855  11.132
71878W        W43494  11.653  31.344   0.866
71879W        W43495  13.133  25.848   1.702
71880W        W43496   3.887  21.017   4.276
71881W        W43497  13.469  17.256  13.024
71882W        W43498  19.344  19.145  12.014
71883W        W43499  21.775  41.870  12.135
71884W        W43500  29.085  30.963   4.392
71885W        W43501   6.700  40.851  13.156
71886W        W43502  26.678  44.784  11.054
71887W        W43503   3.475  29.529   4.738
71888W        W43504   5.945  18.288   3.681
71889W        W43505   7.661   4.652   4.112
71890W        W43506  28.473  22.689   2.908
71891W        W43507  32.021   7.224   0.224
71892W        W43508  40.795  34.555  14.049
71893W        W43509  33.382   6.498  11.021
71894W        W43510   7.728   0.957   2.298
71895W        W43511   2.397  43.578  14.763
71896W        W43512   7.059   0.439   1.709
71897W        W43513  28.113  21.063  12.020
71898W        W43514  37.134  44.932   1.084
71899W        W43515  43.269  40.961   0.729
71900W        W43516   7.760  42.533   0.064
71901W        W43517  38.500   3.949  12.908
71902W        W43518  38.096  18.501   3.758
71903W        W43519  21.605  42.884  14.816
71904W        W43520  15.152  34.623   1.224
71905W        W43521  21.939  18.353   1.831
71906W        W43522  23.578  31.878   0.476
71907W        W43523  36.112  16.133  11.253
71908W        W43524  39.106  11.335   0.954
71909W        W43525  11.255   3.287   2.459
71910W        W43526  12.759  33.931   2.453
71911W        W43527  19.512  12.318   3.777
71912W        W43528  33.450   4.923   3.681
71913W        W43529  37.588  17.609  13.852
71914W        W43530  38.407  27.022  11.850
71915W        W43531  33.988   2.543  14.154
71916W        W43532  31.416   5.298   2.359
71917W        W43533  25.066  21.617   4.147
71918W        W43534  16.820   5.366   1.155
71919W        W43535   0.233  14.230   1.196
71920W        W43536  30.759  13.583  11.234
71921W        W43537   8.779  18.630   2.404
71922W        W43538  20.584  30.133  12.885
71923W        W43539   4.420  13.278  14.952
71924W        W43540  30.900  10.808   3.141
71925W        W43541   2.915  29.000  12.588
71926W        W43542  43.529  32.393   0.748
71927W        W43543  36.127  20.801  12.491
71928W        W43544  15.371  28.467  12.369
71929W        W43545   5.198  18.053   3.227
71930W        W43546  32.006   6.794   1.459
71931W        W43547  15.711  10.454  11.066
71932W        W43548   4.078   0.412  11.057
71933W        W43549  28.894  16.847  10.552
71934W        W43550   4.591  10.871   1.101
71935W        W43551  16.999  11.759  13.903
71936W        W43552  29.101  17.382   0.737
71937W        W43553  28.389  31.532   5.086
71938W        W43554  30.246  18.652   2.210
71939W        W43555   4.126  38.779  13.862
71940W        W43556  23.586  16.743  10.636
71941W        W43557  15.016   4.198   3.442
71942W        W43558   8.293  16.505  13.321
71943W        W43559  14.881   0.777  13.143
71944W        W43560   1.278  17.115  14.390
71945W        W43561  23.454   5.830  13.922
71946W        W43562   5.238  28.845   3.209
71947W        W43563  28.870  37.503   1.225
71948W        W43564   7.738   5.773  14.561
71949W        W43565   5.511  34.750   4.366
71950W        W43566  14.636   3.852  10.504
71951W        W43567  24.660  15.791   4.605
71952W        W43568  38.055  15.011   0.357
71953W        W43569   9.720  27.241  14.415
71954W        W43570  15.511   5.735   1.923
71955W        W43571  41.504  17.800  14.751
71956W        W43572  33.143   8.991   3.243
71957W        W43573  44.399  38.423   1.436
71958W        W43574  36.940  36.305  14.687
71959W        W43575   5.089  36.531  11.561
71960W        W43576  23.926  34.911   2.482
71961W        W43577  40.833  26.097  14.983
71962W        W43578  10.720  26.464  12.605
71963W        W43579  32.056  32.799  12.241
71964W        W43580  13.284  18.084  14.502
71965W        W43581  21.764  25.022   0.638
71966W        W43582  11.596  14.544   3.917
71967W        W43583   5.243  36.414   0.814
71968W        W43584  28.357  26.980  14.838
71969W        W43585   5.248  27.702  11.643
71970W        W43586   0.248  37.697   3.056
71971W        W43587  30.504   7.537  11.817
71972W        W43588  34.643  44.382   3.400
71973W        W43589  39.724  21.778  12.574
71974W        W43590   7.862  41.471   2.377
71975W        W43591  29.443  40.863  11.860
71976W        W43592  37.706  16.575   3.752
71977W        W43593   7.619  39.410   0.325
71978W        W43594  32.906  32.078  11.106
71979W        W43595  26.119  41.762   2.625
71980W        W43596   0.255   3.113  12.860
71981W        W43597  15.237  14.325  12.440
71982W        W43598  21.490  42.108  14.503
71983W        W43599  12.405  16.033  12.410
71984W        W43600  40.466   7.736   0.257
71985W        W43601  42.809  44.993   3.178
71986W        W43602  37.492  16.571  10.676
71987W        W43603  18.109  37.948  10.623
71988W        W43604  24.477  39.652   4.321
71989W        W43605  22.681  10.329  11.745
71990W        W43606  22.596   7.742   0.538
71991W        W43607  16.585   1.870   4.500
71992W        W43608  16.378  27.790   0.425
71993W        W43609  25.084  35.983  13.376
71994W        W43610   3.327   6.250  10.723
71995W        W43611   2.766  16.495  12.483
71996W        W43612  43.887  23.909   3.682
71997W        W43613  25.422  16.558   5.134
71998W        W43614  30.705  12.200   4.597
71999W        W43615  10.857   8.895   4.186
72000W        W43616  22.208  26.890  14.667
72001W        W43617  38.531  30.609   3.144
72002W        W43618   2.255   8.280   4.632
72003W        W43619   7.641  31.717  10.324
72004W        W43620  23.026   7.862   1.009
72005W        W43621  17.095  26.210  10.563
72006W        W43622  20.179  26.770  12.165
72007W        W43623   6.810  32.522   4.712
72008W        W43624  37.412   9.743   0.884
72009W        W43625  38.469  10.571   2.767
72010W        W43626   5.703  43.386  13.410
72011W        W43627   6.956   1.318  12.564
72012W        W43628  19.732   2.296  13.692
72013W        W43629  44.321  26.271  11.035
72014W        W43630  20.747  28.634  13.020
72015W        W43631   9.754   2.240  10.985
72016W        W43632   2.512  11.635  13.884
72017W        W43633  24.756  19.240  13.830
72018W        W43634   5.240  24.477   3.912
72019W        W43635  37.311  14.821  14.417
72020W        W43636  21.193  44.075   2.750
72021W        W43637  26.992  21.170  12.478
72022W        W43638  35.050  10.173   3.850
72023W        W43639  32.638  24.117  11.445
72024W        W43640  43.885  41.621  11.103
72025W        W43641  26.478   4.912  13.889
72026W        W43642  23.045   6.007  14.233
72027W        W43643   1.774  38.057  14.770
72028W        W43644  26.005  16.274   0.237
72029W        W43645   0.291   9.282   1.790
72030W        W43646  40.089  36.081   3.745
72031W        W43647  44.840   5.187   2.385
72032W        W43648  28.238   9.142   2.246
72033W        W43649  13.240   6.293   3.590
72034W        W43650  15.206  41.561   3.756
72035W        W43651   9.251   2.108  12.545
72036W        W43652  31.989  23.733  12.389
72037W        W43653  33.945   9.718   3.899
72038W        W43654   8.044  18.011   4.162
72039W        W43655  18.708  36.748   1.496
72040W        W43656   5.304  36.857   0.543
72041W        W43657   2.293  24.049  11.604
72042W        W43658  23.836  38.572  12.520
72043W        W43659   0.273   4.366  13.363
72044W        W43660  32.427  44.614  10.115
72045W        W43661  21.464  40.531  10.290
72046W        W43662   3.730  44.603  14.421
72047W        W43663  37.557  30.789   2.446
72048W        W43664   5.474  18.212   1.847
72049W        W43665  41.077   0.487  12.738
72050W        W43666  26.593  17.683  14.129
72051W        W43667  23.999  16.000  14.858
72052W        W43668  28.638  18.653  14.024
72053W        W43669  40.451  23.650  13.465
72054W        W43670  12.894  36.721   2.970
72055W        W43671  28.885  27.921  14.838
72056W        W43672   6.752  18.522  10.668
72057W        W43673  28.684  35.538   1.435
72058W        W43674  19.536  13.510  10.747
72059W        W43675  13.194  35.631   1.348
72060W        W43676  35.252   1.026  13.907
72061W        W43677   9.696  37.824  11.502
72062W        W43678  34.176  25.482  13.979
72063W        W43679  31.448  30.219  10.574
72064W        W43680   5.858  36.303  13.301
72065W        W43681  15.546  25.690  13.708
72066W        W43682  32.741  31.148   3.653
72067W        W43683   3.199  35.665  14.502
72068W        W43684   7.365  32.559   1.992
72069W        W43685  36.340   6.249   3.819
72070W        W43686  24.711  10.474   2.374
72071W        W43687   2.349  11.943  11.136
72072W        W43688  33.638  24.039  13.975
72073W        W43689  27.128   6.960   4.722
72074W        W43690   8.094  20.227   2.655
72075W        W43691  14.109  35.708   2.293
72076W        W43692  22.996  23.495  12.486
72077W        W43693  30.009  14.796  12.007
72078W        W43694   5.122  17.023   0.248
72079W        W43695  31.973  19.694  11.618
72080W        W43696  13.788  34.351   1.270
72081W        W43697   4.913  17.559  14.888
72082W        W43698  15.220  42.838  11.635
72083W        W43699  30.531  30.120  11.976
72084W        W43700  42.455   9.395  11.100
72085W        W43701  41.879  34.944  11.184
72086W        W43702  24.782  38.861  14.047
72087W        W43703  28.470  14.249   4.219
72088W        W43704  40.975   2.547   1.006
72089W        W43705  42.843   7.839  14.008
72090W        W43706  41.526  20.576  14.052
72091W        W43707   0.423  37.393   2.541
72092W        W43708   0.494  14.150   4.113
72093W        W43709  24.556  32.049   3.243
72094W        W43710  10.132  12.228  12.109
72095W        W43711  39.089  34.622  14.542
72096W        W43712  17.487  19.062   1.409
72097W        W43713   3.333  29.219  12.823
72098W        W43714  13.015  44.507  13.785
72099W        W43715   9.953  35.281   1.792
72100W        W43716  18.240  20.718  11.527
72101W        W43717  26.970  22.807   9.889
72102W        W43718   0.508  25.890  10.551
72103W        W43719   0.466  28.556   1.364
72104W        W43720  43.328   0.726  11.625
72105W        W43721  38.515  35.084  12.100
72106W        W43722  37.018  43.132   1.444
72107W        W43723  16.775  26.189   1.897
72108W        W43724  10.400  33.975  13.048
72109W        W43725  27.245  43.418  13.020
72110W        W43726  14.869  25.543   2.131
72111W        W43727   8.807   8.259  14.937
72112W        W43728  38.978  10.047  13.032
72113W        W43729  42.081  32.496  14.450
72114W        W43730   6.742  38.628  11.235
72115W        W43731  41.706   1.886   1.201
72116W        W43732   3.669  31.843   1.827
72117W        W43733  38.314  16.022   0.051
72118W        W43734  11.173   3.338   3.716
72119W        W43735   2.267  29.604  13.894
72120W        W43736   3.544  44.457   2.066
72121W        W43737  42.487  24.766  14.380
72122W        W43738  24.565   1.376  14.296
72123W        W43739   3.266  13.680  14.016
72124W        W43740  36.758  31.506  14.854
72125W        W43741  14.351  32.945   4.483
72126W        W43742  34.357  23.691  13.347
72127W        W43743  32.607  21.011   4.713
72128W        W43744  30.887  28.525   2.239
72129W        W43745  23.254   8.697   1.619
72130W        W43746  21.700   4.228   1.659
72131W        W43747  28.181  19.338   4.934
72132W        W43748  25.636  43.301  10.615
72133W        W43749  14.323  16.309  14.560
72134W        W43750  34.543  20.293  12.282
72135W        W43751  35.086  26.780  11.962
72136W        W43752   6.636  41.341   0.622
72137W        W43753  24.615  14.220   1.350
72138W        W43754  15.085   5.395   4.607
72139W        W43755  25.449  21.474  14.035
72140W        W43756   6.989  38.429  14.343
72141W        W43757  34.140  36.414   1.785
72142W        W43758  29.603  35.306   0.130
72143W        W43759  39.529  38.013  13.112
72144W        W43760  34.933  16.671  12.111
72145W        W43761  44.001  24.131   1.239
72146W        W43762  33.174  39.071   4.864
72147W        W43763   1.230   6.781  12.540
72148W        W43764  37.264  22.680  13.448
72149W        W43765  41.506  23.320   2.792
72150W        W43766  27.736  16.302   3.616
72151W        W43767  12.456  28.626   3.765
72152W        W43768  38.547  10.372  13.158
72153W        W43769  25.994  26.942   4.758
72154W        W43770  10.346  29.964   1.831
72155W        W43771  36.733  12.562   1.196
72156W        W43772  41.300  21.688  13.421
72157W        W43773  40.967   9.348  11.556
72158W        W43774  19.239  17.674  11.680
72159W        W43775   8.405  11.414  12.038
72160W        W43776  17.983  39.957  11.188
72161W        W43777   1.302   2.452  13.287
72162W        W43778  27.153  11.047   4.630
72163W        W43779  13.401   1.963   3.640
72164W        W43780  12.288   1.383  14.484
72165W        W43781  38.430   9.898  13.912
72166W        W43782  10.912  24.765  14.093
72167W        W43783  33.392   2.318   0.848
72168W        W43784  42.213   7.010  13.827
72169W        W43785  43.412  13.898  12.547
72170W        W43786   5.676  17.285  14.474
72171W        W43787  36.936  22.215   3.921
72172W        W43788   8.720  16.941   1.709
72173W        W43789  21.079  18.755   0.334
72174W        W43790  44.729  11.300  10.639
72175W        W43791  29.686   3.257  14.946
72176W        W43792  43.591  11.658   2.867
72177W        W43793   2.443   0.115   3.618
72178W        W43794   7.750  34.453   1.829
72179W        W43795   5.799  10.831  14.516
72180W        W43796   1.740  17.067  12.953
72181W        W43797  38.850  11.133   5.351
72182W        W43798   9.388  38.623  12.503
72183W        W43799  26.412   4.878  10.956
72184W        W43800  33.645  18.551  13.878
72185W        W43801  22.341  35.156   0.488
72186W        W43802  38.036  21.045   3.604
72187W        W43803   2.942  30.690  13.341
72188W        W43804  44.715  15.682   4.359
72189W        W43805   0.717  32.147  12.944
72190W        W43806   8.272   7.276   4.846
72191W        W43807  24.045  23.648  12.609
72192W        W43808   7.461  11.132   4.638
72193W        W43809  36.812  39.508  11.570
72194W        W43810   6.630  28.534  11.055
72195W        W43811   9.978  27.379   3.138
72196W        W43812  14.138  41.933  13.303
72197W        W43813   4.909   7.460   3.828
72198W        W43814  20.577  39.809  13.354
72199W        W43815   5.488  40.946   1.415
72200W        W43816  19.175   6.295   3.805
72201W        W43817  20.250  35.052   2.916
72202W        W43818  32.390  24.265   3.482
72203W        W43819  10.809  19.645   4.685
72204W        W43820  10.610  24.831   3.740
72205W        W43821  33.773  34.787  11.520
72206W        W43822  30.912  39.540   0.907
72207W        W43823   2.305   2.219   3.669
72208W        W43824  12.556   6.695   2.704
72209W        W43825  40.495  35.257   1.321
72210W        W43826  36.064  31.027  11.162
72211W        W43827   6.197   1.382   3.621
72212W        W43828   6.548   6.307  12.964
72213W        W43829  38.319   2.250  11.493
72214W        W43830   1.888  18.576   3.313
72215W        W43831  36.081  20.405  11.581
72216W        W43832   2.514   6.000  12.525
72217W        W43833  30.652  20.022  11.597
72218W        W43834  36.742   0.004   4.527
72219W        W43835  29.527  19.373   4.829
72220W        W43836  33.358  25.574  10.902
72221W        W43837  15.636  42.295   2.208
72222W        W43838  39.085   0.750  14.354
72223W        W43839  13.598  25.698   1.474
72224W        W43840  22.707   5.312  14.874
72225W        W43841  11.633  37.601  10.011
72226W        W43842   3.306  41.771   2.225
72227W        W43843  38.313  32.429  13.138
72228W        W43844  24.642  16.848  12.331
72229W        W43845  14.183  44.037  12.235
72230W        W43846  38.068  11.744  10.478
72231W        W43847  18.686  17.066   4.132
72232W        W43848  18.270  10.241   2.674
72233W        W43849  35.598  32.459   3.852
72234W        W43850  34.431  22.750  14.805
72235W        W43851  35.082  12.527   0.215
72236W        W43852  11.079   2.428   4.064
72237W        W43853  28.609  16.730   1.951
72238W        W43854  22.997  27.086   1.898
72239W        W43855  11.647  28.419  11.567
72240W        W43856  32.579   3.512   4.299
72241W        W43857  28.029  16.874   1.145
72242W        W43858  14.000  11.268   0.542
72243W        W43859  12.788   6.219  13.570
72244W        W43860  11.830  31.457  10.615
72245W        W43861   4.833   4.776   3.109
72246W        W43862  16.157   9.661   3.671
72247W        W43863  36.592  20.442  12.383
72248W        W43864  23.616  21.619   0.274
72249W        W43865  10.525   1.260   2.231
72250W        W43866  21.042  15.272   2.328
72251W        W43867  24.231   0.445  11.576
72252W        W43868  23.505   2.710   4.579
72253W        W43869  14.054  30.657   1.572
72254W        W43870   9.769  31.447   5.030
72255W        W43871  30.738   0.076  10.070
72256W        W43872  29.195  12.163   2.848
72257W        W43873  37.446  38.574  13.860
72258W        W43874   7.449  31.953   4.919
72259W        W43875  14.729   6.197   2.437
72260W        W43876  36.490   9.872   0.915
72261W        W43877   8.421  32.307   2.047
72262W        W43878  30.625  22.850  14.653
72263W        W43879  37.091  21.887   1.883
72264W        W43880  11.159  37.050   4.561
72265W        W43881  24.067  42.270   2.173
72266W        W43882  12.019  25.609  10.428
72267W        W43883  32.659  31.012   2.137
72268W        W43884  32.007  28.667   0.497
72269W        W43885  31.146  23.496  12.034
72270W        W43886  36.127  10.191  13.420
72271W        W43887  32.400  13.662  14.778
72272W        W43888   6.665   3.981  10.766
72273W        W43889  35.605  42.258  12.713
72274W        W43890  32.119   6.698  12.504
72275W        W43891   4.894  19.293   2.724
72276W        W43892  34.880  37.453  11.974
72277W        W43893  21.721  20.693   1.747
72278W        W43894  33.927  26.723   2.333
72279W        W43895  19.058  21.600  14.803
72280W        W43896  12.283  29.645   0.996
72281W        W43897  33.821   1.163   3.525
72282W        W43898  33.986  27.409   0.259
72283W        W43899  42.524  22.693   1.937
72284W        W43900   7.396  15.534   0.690
72285W        W43901  36.611   1.447   3.642
72286W        W43902  12.150  43.044  10.657
72287W        W43903   7.764  10.209   4.584
72288W        W43904  38.616  43.725   3.188
72289W        W43905  30.536  17.320   1.293
72290W        W43906  10.784  25.101  10.674
72291W        W43907  30.532  19.266  14.571
72292W        W43908  14.686   8.829  12.456
72293W        W43909  16.172  39.086   0.435
72294W        W43910  35.347  28.587  14.415
72295W        W43911   6.017   3.500   5.008
72296W        W43912  13.382  33.708  12.181
72297W        W43913   7.152  21.596   2.769
72298W        W43914  33.928  10.818   3.189
72299W        W43915  38.781   4.692  13.032
72300W        W43916  20.745  44.463   1.404
72301W        W43917  11.203   7.138   2.219
72302W        W43918  10.415  37.378  14.685
72303W        W43919  28.342  41.951  14.986
72304W        W43920  44.686  16.861   2.373
72305W        W43921  25.709   4.855  14.973
72306W        W43922  17.557   2.333   2.027
72307W        W43923  13.068   0.335  13.132
72308W        W43924  41.255  29.109  14.937
72309W        W43925  26.096  25.195   3.220
72310W        W43926  21.798  27.970  14.163
72311W        W43927  16.302  26.179   1.067
72312W        W43928  12.838  16.793  14.876
72313W        W43929  35.179   7.211  11.042
72314W        W43930   7.701  30.666  13.955
72315W        W43931  32.144  38.043   0.254
72316W        W43932   3.744   2.674  13.396
72317W        W43933   2.444  17.996  14.348
72318W        W43934  31.407  15.876   4.205
72319W        W43935  29.671   0.853  12.412
72320W        W43936   7.971  42.442  12.068
72321W        W43937   6.985  12.807  10.568
72322W        W43938   3.527  24.010   4.202
72323W        W43939   8.841  40.856   3.194
72324W        W43940  28.534  17.404   3.733
72325W        W43941  35.493  44.542   0.039
72326W        W43942  23.760  39.522  14.410
72327W        W43943  29.841  35.913   1.957
72328W        W43944  44.966  27.146   0.334
72329W        W43945  14.900  44.927  14.402
72330W        W43946  34.397  18.772   3.688
72331W        W43947  19.340  34.000   3.142
72332W        W43948  21.996  38.608   1.915
72333W        W43949  30.195  14.789  14.898
72334W        W43950  23.662  41.680  11.835
72335W        W43951  40.988  20.503   2.831
72336W        W43952  40.096  37.091  11.906
72337W        W43953  39.305  36.412  13.833
72338W        W43954  19.570   1.000   3.690
72339W        W43955  22.670   8.350   1.397
72340W        W43956  21.026   0.017  12.123
72341W        W43957  19.995  36.075   3.378
72342W        W43958   0.869   7.179  13.338
72343W        W43959  13.357  10.833   1.856
72344W        W43960  11.368  40.864  11.164
72345W        W43961  42.084  35.239   1.417
72346W        W43962   9.328  11.633   2.347
72347W        W43963  32.564  43.590  13.471
72348W        W43964  33.578  22.532  12.934
72349W        W43965   8.415  34.022   1.374
72350W        W43966  34.821  32.846  11.106
72351W        W43967   3.243   9.121   3.194
72352W        W43968  33.821  44.270  11.148
72353W        W43969  34.579  22.743   5.134
72354W        W43970   3.957  30.048  11.575
72355W        W43971   3.521  42.734   4.262
72356W        W43972  18.237  14.840   1.447
72357W        W43973  40.763  12.874  14.831
72358W        W43974  44.046  42.341   1.580
72359W        W43975  24.436   0.426  13.424
72360W        W43976   0.813  38.742  10.668
72361W        W43977  26.261  34.226  11.660
72362W        W43978  18.619   3.373   0.996
72363W        W43979   1.951  12.797  12.002
72364W        W43980  27.519  20.558   4.667
72365W        W43981  21.287   1.030  11.003
72366W        W43982  17.499  38.602   0.420
72367W        W43983   7.435   2.465   1.295
72368W        W43984  17.587  39.897   1.710
72369W        W43985  19.815  39.355  10.376
72370W        W43986  41.374  20.029   3.385
72371W        W43987  31.925  10.683   3.222
72372W        W43988  42.945   3.842   0.330
72373W        W43989  12.711  22.055   1.589
72374W        W43990  44.481  27.752   4.204
72375W        W43991   5.381   2.736  12.615
72376W        W43992  24.250  30.628  11.262
72377W        W43993  24.891  40.491  12.403
72378W        W43994  27.898  14.318   2.247
72379W        W43995   0.927  28.898  12.871
72380W        W43996   2.620  21.192  14.101
72381W        W43997   2.746   1.831  11.002
72382W        W43998  11.299   8.306   3.676
72383W        W43999  23.995  35.123  10.617
72384W        W44000  44.559   3.860   0.683
72385W        W44001   9.390  13.918   1.594
72386W        W44002  14.583  37.397  12.582
72387W        W44003  32.466   8.355   4.488
72388W        W44004  33.730  37.039   2.199
72389W        W44005   7.673  40.032  14.015
72390W        W44006  36.639   4.177  12.885
72391W        W44007   3.801   3.820   4.583
72392W        W44008  14.103  33.583   4.581
72393W        W44009  42.868  14.988   1.861
72394W        W44010   2.276  30.846   2.347
72395W        W44011  28.180  38.478  10.923
72396W        W44012  26.653   6.153   4.850
72397W        W44013  26.612  29.181  11.096
72398W        W44014  28.974  42.940   0.344
72399W        W44015  17.365   0.900   2.791
72400W        W44016  33.633  15.754   2.298
72401W        W44017  20.259  33.190   2.492
72402W        W44018  41.741  34.852   4.548
72403W        W44019  23.315   6.438  10.663
72404W        W44020  13.215  18.594  12.774
72405W        W44021  41.006  40.338   3.831
72406W        W44022  43.545  35.015  14.453
72407W        W44023  29.476  24.733  11.550
72408W        W44024  16.010  32.365   4.843
72409W        W44025  29.022  27.980  11.602
72410W        W44026  12.917  21.205  11.863
72411W        W44027  34.839  40.075  13.419
72412W        W44028  33.148  22.786   3.766
72413W        W44029  24.918   0.187  14.842
72414W        W44030  35.117   3.828   1.383
72415W        W44031  35.798  35.168  12.628
72416W        W44032  33.360  41.343   3.796
72417W        W44033  35.303  10.321  12.986
72418W        W44034  42.976   9.418  10.827
72419W        W44035   6.946  20.761  12.000
72420W        W44036  17.545  41.445  14.400
72421W        W44037  20.951  31.074   3.116
72422W        W44038  18.134  13.367   1.492
72423W        W44039   3.999  19.312   3.088
72424W        W44040  19.345  13.201   2.175
72425W        W44041  10.296  24.281  13.412
72426W        W44042   4.866  36.610   3.514
72427W        W44043  33.324  23.120   0.370
72428W        W44044   2.986   5.704  13.819
72429W        W44045   6.670  28.816  12.774
72430W        W44046  29.798  25.722   2.891
72431W        W44047   4.031   4.712   1.840
72432W        W44048  42.417  40.767   2.736
72433W        W44049  26.342   3.348   0.445
72434W        W44050   8.456  30.497  13.568
72435W        W44051  42.841  15.229  14.034
72436W        W44052  36.656   7.644  12.014
72437W        W44053  18.304  22.282  14.767
72438W        W44054  34.464  16.665   0.225
72439W        W44055  29.613  20.570   1.842
72440W        W44056   7.932  29.612   0.996
72441W        W44057   8.237  30.995  11.171
72442W        W44058  32.300  21.695  10.559
72443W        W44059  43.703  42.277   1.942
72444W        W44060  27.872  38.450  11.887
72445W        W44061  42.471  27.883  12.001
72446W        W44062   1.259  23.507  14.098
72447W        W44063  35.470  18.550  14.065
72448W        W44064  25.921  28.068   3.314
72449W        W44065  16.792   1.474  12.239
72450W        W44066   7.103  28.385   0.153
72451W        W44067  30.358  20.338   1.023
72452W        W44068  13.007  37.650   4.998
72453W        W44069  16.752  26.993  14.523
72454W        W44070  17.770   1.234  14.328
72455W        W44071  40.402  43.864   4.297
72456W        W44072  13.622  20.213   3.824
72457W        W44073  18.553  27.541   2.411
72458W        W44074  44.431  25.800   2.821
72459W        W44075  21.968  27.030  11.880
72460W        W44076  42.997  22.428   4.958
72461W        W44077  29.699  43.335  11.973
72462W        W44078  35.692  35.981   1.508
72463W        W44079  14.253  31.466  10.798
72464W        W44080  35.314   0.280  12.802
72465W        W44081  34.320  21.255   1.802
72466W        W44082  28.200   7.853  14.886
72467W        W44083  18.154   7.853   3.329
72468W        W44084   0.766  29.166   4.150
72469W        W44085  33.569  34.781  12.956
72470W        W44086  24.086  42.360   2.710
72471W        W44087   7.683   0.448  11.947
72472W        W44088  28.595  41.286   1.462
72473W        W44089  13.081  26.908   0.900
72474W        W44090   8.922  32.021  11.467
72475W        W44091   9.113  44.400   0.291
72476W        W44092  27.143  36.324   0.897
72477W        W44093  36.016   1.479   4.116
72478W        W44094  41.992  15.128  13.231
72479W        W44095  14.159  24.370  14.528
72480W        W44096   0.169  22.190   2.869
72481W        W44097  17.739   8.866  14.528
72482W        W44098  16.280  21.188   0.395
72483W        W44099  14.971  19.740  10.126
72484W        W44100  26.742  22.360  12.956
72485W        W44101  31.483  37.604  14.741
72486W        W44102   7.648  18.046   2.100
72487W        W44103  25.395  11.742   0.786
72488W        W44104  25.161  32.922   0.253
72489W        W44105  19.291  41.619   0.871
72490W        W44106  23.314   3.098  10.440
72491W        W44107  12.064   8.399  13.840
72492W        W44108  41.804  13.732   3.420
72493W        W44109  42.024  15.147   1.657
72494W        W44110   2.729  21.132  13.585
72495W        W44111   1.460  25.611  10.874
72496W        W44112  23.111  28.529   2.639
72497W        W44113  44.755  37.639   2.951
72498W        W44114  12.610  44.301   0.073
72499W        W44115  14.116  21.946  12.057
72500W        W44116  31.712  30.631  10.460
72501W        W44117   6.618  33.514  13.056
72502W        W44118   7.771  18.493   3.333
72503W        W44119  14.730   8.631   2.257
72504W        W44120  18.118  15.224  11.040
72505W        W44121  36.413  13.273  14.368
72506W        W44122  44.496  36.417   1.810
72507W        W44123  34.529  10.614  10.925
72508W        W44124  24.685  30.213  14.102
72509W        W44125  26.694  36.565   0.365
72510W        W44126  38.145   7.799   2.262
72511W        W44127  43.495  32.449   4.158
72512W        W44128   8.324  22.883   2.446
72513W        W44129   9.103   0.009   2.217
72514W        W44130  29.153  16.835   3.273
72515W        W44131  22.073  25.088   2.572
72516W        W44132   4.127  34.023   2.254
72517W        W44133  43.721  20.233  11.337
72518W        W44134   7.159  30.569   2.607
72519W        W44135  35.009  30.071   2.347
72520W        W44136  37.444   8.882   1.987
72521W        W44137  21.965  11.869   0.400
72522W        W44138  33.023   7.483   0.012
72523W        W44139  36.969   3.361  14.176
72524W        W44140  20.370  11.172   3.631
72525W        W44141  25.177  13.242   2.315
72526W        W44142  10.185  25.539  11.248
72527W        W44143   1.490   4.444  14.201
72528W        W44144   5.383   8.782  12.576
72529W        W44145  31.178  34.590  10.699
72530W        W44146  13.242  37.687  10.654
72531W        W44147  36.398   7.624   2.867
72532W        W44148   7.732   7.805   1.543
72533W        W44149  19.727  13.276  12.882
72534W        W44150  29.036  39.525  14.663
72535W        W44151  40.046  23.448  13.757
72536W        W44152  20.093  29.153   2.263
72537W        W44153  36.166  36.581  12.992
72538W        W44154  25.266  19.183  13.882
72539W        W44155  32.189  31.490   0.033
72540W        W44156  43.849  19.803  12.673
72541W        W44157  15.536  15.528  13.132
72542W        W44158  10.526  10.437   3.521
72543W        W44159  11.648  26.441   4.238
72544W        W44160  40.825  38.639   3.774
72545W        W44161  14.072  36.836  11.619
72546W        W44162  23.068  18.715  12.581
72547W        W44163  19.130  15.769  10.615
72548W        W44164  34.608  33.901  11.035
72549W        W44165   9.406   5.126  12.867
72550W        W44166  37.037  18.208  11.863
72551W        W44167   8.380  10.168   2.744
72552W        W44168  41.959  30.675   1.755
72553W        W44169   1.887   4.800   3.909
72554W        W44170   1.448  17.673   3.797
72555W        W44171  20.517  30.737  11.674
72556W        W44172  24.237   5.923  14.472
72557W        W44173  19.558  31.562   0.290
72558W        W44174   9.677   6.807   4.477
72559W        W44175  29.668   9.266   1.161
72560W        W44176  27.683  11.226  10.999
72561W        W44177  13.213  36.978  14.024
72562W        W44178  29.036  11.202   3.871
72563W        W44179  19.736  20.181   2.802
72564W        W44180  42.296  44.421   2.375
72565W        W44181   8.911  14.586   2.236
72566W        W44182  41.717   4.464   4.054
72567W        W44183   7.416  22.238   0.713
72568W        W44184  43.414   5.885  13.327
72569W        W44185  38.946  23.065   1.232
72570W        W44186   7.431  43.384  13.876
72571W        W44187  35.907  41.711  10.776
72572W        W44188  15.649  34.126   2.259
72573W        W44189  29.897   8.625  13.056
72574W        W44190  28.511  34.409  14.777
72575W        W44191  14.927  20.033   4.148
72576W        W44192  32.857  12.511   4.174
72577W        W44193  21.738  33.664   0.375
72578W        W44194  37.837  43.083  14.221
72579W        W44195  41.880   9.185  11.275
72580W        W44196  13.726  27.672   1.346
72581W        W44197  42.959  26.697  10.553
72582W        W44198   1.322  30.731   1.886
72583W        W44199  13.355  26.594  10.687
72584W        W44200  10.182  15.174  13.985
72585W        W44201  26.105   8.209   0.302
72586W        W44202  44.115  19.689   4.616
72587W        W44203   9.101  11.810   2.782
72588W        W44204   9.670   6.212  10.376
72589W        W44205  38.940  15.918   9.662
72590W        W44206  13.055  32.179   1.112
72591W        W44207  41.468   3.932  13.439
72592W        W44208  31.006  20.699  12.967
72593W        W44209  31.235  20.240  14.204
72594W        W44210  25.561  40.711  13.364
72595W        W44211   2.202   2.351  12.998
72596W        W44212  14.387   8.409  13.439
72597W        W44213  31.896   3.704  11.145
72598W        W44214  10.615  36.047  11.957
72599W        W44215  29.755   1.190   4.532
72600W        W44216  36.180   5.894  12.131
72601W        W44217   5.366  41.835   2.398
72602W        W44218  26.968  30.864   5.125
72603W        W44219  41.078   3.422  12.382
72604W        W44220   3.474  11.645  11.026
72605W        W44221  29.520  16.846  13.621
72606W        W44222  37.050  41.481   2.576
72607W        W44223  41.809  34.116  12.821
72608W        W44224  35.035  43.940  11.908
72609W        W44225  10.761   5.184   0.850
72610W        W44226  39.036  20.936   1.359
72611W        W44227  18.797  36.192  11.976
72612W        W44228  34.910  29.411   1.925
72613W        W44229   9.383  29.119   1.717
72614W        W44230  23.554  37.469   0.756
72615W        W44231   3.309  31.031  10.689
72616W        W44232   6.751  19.813  10.975
72617W        W44233  17.155  32.994  10.670
72618W        W44234  19.571  36.404  14.927
72619W        W44235  43.305  21.232   4.135
72620W        W44236  27.097  33.033  13.232
72621W        W44237  42.382  38.775   3.191
72622W        W44238  24.213  38.620   1.403
72623W        W44239  44.003   1.444   5.046
72624W        W44240  17.817  25.002  11.907
72625W        W44241   5.818   5.983   0.296
72626W        W44242  33.361  35.025   2.712
72627W        W44243  44.186  40.099  13.315
72628W        W44244   9.571  16.591  12.053
72629W        W44245  16.554   0.787  11.020
72630W        W44246  25.177  25.959   2.691
72631W        W44247  24.084  10.609  12.816
72632W        W44248  25.678  15.556  10.167
72633W        W44249  16.299   1.377  11.664
72634W        W44250   4.152  30.025  11.104
72635W        W44251  33.565   5.650  12.200
72636W        W44252   5.824  17.748   2.594
72637W        W44253   6.049  35.123   2.800
72638W        W44254  23.236   0.433  11.515
72639W        W44255  23.023  43.388  11.926
72640W        W44256  12.679  31.900  11.642
72641W        W44257  38.073  30.564  14.995
72642W        W44258  24.764  40.872  10.789
72643W        W44259  41.859   1.178  13.438
72644W        W44260  25.676   2.945   3.344
72645W        W44261  36.391  32.342   2.753
72646W        W44262  38.457  29.063  12.334
72647W        W44263  10.369  14.382   0.381
72648W        W44264  37.852  37.402  13.098
72649W        W44265  30.703  13.204   3.494
72650W        W44266  30.259  38.829  14.540
72651W        W44267  27.567   1.968   4.916
72652W        W44268  28.946  42.865   4.070
72653W        W44269  24.041  37.802   3.644
72654W        W44270  20.268  20.987   1.852
72655W        W44271  10.505  34.920   2.921
72656W        W44272  18.734   8.335  11.498
72657W        W44273  44.891  29.235  11.399
72658W        W44274  23.722  34.082   3.660
72659W        W44275  23.626  24.203   4.768
72660W        W44276  12.229   6.793  11.869
72661W        W44277  13.676  10.453  11.185
72662W        W44278   6.411   8.635  11.369
72663W        W44279  42.786  32.827  11.517
72664W        W44280   7.874  37.059  11.997
72665W        W44281   7.474  13.577  11.019
72666W        W44282  22.188   5.773   0.336
72667W        W44283  27.085  20.531  11.657
72668W        W44284   3.226  21.998  13.324
72669W        W44285   6.316   9.264  14.457
72670W        W44286  13.357  32.794   2.817
72671W        W44287  24.228   8.132  12.135
72672W        W44288  27.971  35.169  11.337
72673W        W44289  22.139  26.029  12.556
72674W        W44290  15.244  39.325   1.924
72675W        W44291  14.156  25.196   4.966
72676W        W44292   8.845  21.224   2.387
72677W        W44293   6.228  13.638   4.604
72678W        W44294  31.153   0.197  14.414
72679W        W44295  34.372  11.675  12.674
72680W        W44296   9.915   2.990   1.501
72681W        W44297  37.085  33.704  10.989
72682W        W44298   3.339   0.110  14.884
72683W        W44299  32.019  34.991  14.709
72684W        W44300  14.567   3.292   1.716
72685W        W44301  32.645   3.801  10.632
72686W        W44302  20.618  40.155   1.335
72687W        W44303   6.201  11.739  12.862
72688W        W44304  36.207   3.698   4.288
72689W        W44305   8.204   8.702   2.868
72690W        W44306   3.924  28.467  13.845
72691W        W44307   2.734  28.100   0.249
72692W        W44308  41.276   9.807   4.300
72693W        W44309  24.609  33.074   0.381
72694W        W44310  31.737  18.020   3.147
72695W        W44311  26.172  31.449   2.008
72696W        W44312  35.934  19.403  14.490
72697W        W44313  15.600  10.315  14.340
72698W        W44314   0.858  16.284   1.090
72699W        W44315  44.807  36.063   5.202
72700W        W44316  29.547  30.396  11.608
72701W        W44317  22.693   2.501   0.010
72702W        W44318  44.868  19.586   4.076
72703W        W44319  19.815  10.258  13.306
72704W        W44320  27.119  38.602  13.889
72705W        W44321  31.816  21.524   4.965
72706W        W44322  36.444   4.685  14.982
72707W        W44323  15.357  19.924  14.797
72708W        W44324  29.674  15.852   4.594
72709W        W44325  32.557  22.082   1.132
72710W        W44326  23.648   0.497   4.026
72711W        W44327  17.757  26.895  14.799
72712W        W44328   1.307  42.579  14.727
72713W        W44329  12.626  44.767   0.331
72714ION    NA+44330  11.242  20.801  14.465
72715ION    NA+44331  21.231  27.868   4.497
72716ION    NA+44332   6.325  18.137  13.367
72717ION    NA+44333  18.625  34.487  13.490
72718ION    NA+44334  14.344  44.947  13.363
72719ION    NA+44335  43.393  19.286   2.475
72720ION    NA+44336  16.234  41.492  13.114
72721ION    NA+44337  39.679  20.642  10.752
72722ION    NA+44338   7.516  12.222  11.180
72723ION    NA+44339  15.569  31.149  14.365
72724ION    NA+44340  19.788  34.807  11.577
72725ION    NA+44341   2.912  17.664  11.085
72726ION    NA+44342  14.657  20.079   0.277
72727ION    NA+44343   5.407  41.138   3.258
72728ION    NA+44344  39.622  12.754  11.940
72729ION    NA+44345  14.858  35.947   1.606
72730ION    NA+44346   9.619  29.678   0.378
72731ION    NA+44347  39.630  33.635  12.798
72732ION    NA+44348   2.398  35.319   0.869
72733ION    NA+44349  11.920  11.802   1.189
72734ION    NA+44350   6.259   4.686   5.011
72735ION    NA+44351  24.831  36.204  13.877
72736ION    NA+44352  42.507  40.063  14.180
72737ION    NA+44353  33.921  34.974  13.346
72738ION    NA+44354  22.597   3.190  12.658
72739ION    NA+44355   4.361  17.712  13.860
72740ION    NA+44356  35.592  15.768  12.938
72741ION    NA+44357  27.122   7.254   2.678
72742ION    NA+44358  26.382  36.390  14.956
72743ION    NA+44359  26.495  22.528   0.322
72744ION    NA+44360  33.801   6.327  11.750
72745ION    NA+44361  26.566  33.011  14.586
72746ION    NA+44362   6.402  11.425  10.696
72747ION    NA+44363  27.162  31.446  14.809
72748ION    NA+44364  30.946   8.652  13.330
72749ION    NA+44365  22.539  21.305  10.514
72750ION    NA+44366  34.699  44.139  12.563
72751ION    NA+44367  25.489  13.160   4.131
72752ION    NA+44368  36.283  18.831  11.169
72753ION    NA+44369  15.952   8.119  11.553
72754ION    NA+44370  13.855  37.772  12.983
72755ION    NA+44371   1.836   9.722   4.056
72756ION    NA+44372   6.232  26.650  13.686
72757ION    NA+44373  26.418  27.780  10.853
72758ION    NA+44374  13.828  26.430  11.504
72759ION    NA+44375  21.925  36.128  10.694
72760ION    NA+44376  39.385   8.574   0.035
72761ION    NA+44377  36.516  28.203  13.552
72762ION    NA+44378  23.641  34.824   4.113
72763ION    NA+44379  18.243   3.224   4.326
72764ION    NA+44380   7.357  31.946  10.726
72765ION    NA+44381  10.976  38.915  13.849
72766ION    NA+44382  18.993  20.012  14.499
72767ION    NA+44383  35.072   7.711  13.292
72768ION    NA+44384   9.828   5.874   3.020
72769ION    NA+44385  38.388   8.394  12.462
72770ION    NA+44386  43.763   1.720   1.990
72771ION    NA+44387  20.491  14.384   0.515
72772ION    NA+44388   9.952   2.281  11.447
72773ION    NA+44389  40.142  30.929  14.233
72774ION    NA+44390  23.284  40.202  13.027
72775ION    NA+44391  40.488  38.045  11.627
72776ION    NA+44392  37.831  38.550  13.036
72777ION    NA+44393  18.262  32.682   1.760
72778ION    NA+44394  27.389  42.569   0.940
72779ION    NA+44395  28.677  26.002  10.436
72780ION    NA+44396  10.333  29.574  13.194
72781ION    NA+44397  21.528  35.018  11.230
72782ION    NA+44398  41.239  36.389   3.325
72783ION    NA+44399  21.362  25.758   2.321
72784ION    NA+44400  20.945  39.567   0.706
72785ION    NA+44401   7.233  13.685  13.197
72786ION    NA+44402   5.792  13.876  10.533
72787ION    NA+44403  30.295  40.498   3.387
72788ION    NA+44404  30.826  44.504   2.634
72789ION    NA+44405  26.185  12.568   1.856
72790ION    NA+44406  15.463  26.453   4.826
72791ION    NA+44407   1.728  16.870  14.378
72792ION    NA+44408  17.238  12.558   4.153
72793ION    NA+44409  33.076   4.658  12.198
72794ION    NA+44410  28.591  13.909  12.101
72795ION    NA+44411  42.077  38.320   2.836
72796ION    NA+44412  44.279  18.718   3.176
72797ION    NA+44413  26.056  25.702  14.918
72798ION    NA+44414   2.757   7.451   1.869
72799ION    NA+44415  27.965  31.664  12.584
72800ION    NA+44416  23.921  19.034  11.866
72801ION    NA+44417  38.609  35.485   3.132
72802ION    NA+44418  43.888  29.339  14.296
72803ION    NA+44419  35.864   4.985  10.914
72804ION    NA+44420  43.764  35.115   5.456
72805ION    NA+44421   0.181   5.385  13.305
72806ION    NA+44422  28.303   4.287  10.748
72807ION    NA+44423  32.754  43.704   2.513
72808ION    NA+44424  40.055  15.106   2.204
72809ION    NA+44425  15.149  33.353  14.963
72810ION    NA+44426  11.231  16.387  14.759
72811ION    NA+44427  29.447  29.972  10.912
72812ION    NA+44428  39.075   5.295   1.224
72813ION    NA+44429  10.595   7.707   3.857
72814ION    NA+44430  34.042  16.430   3.880
72815ION    NA+44431  30.056  31.958   3.352
72816ION    NA+44432   2.988  25.492   0.316
72817ION    NA+44433  28.418  10.262  11.612
72818ION    NA+44434  35.830  21.861  14.643
72819ION    NA+44435  43.414   0.418   0.654
72820ION    NA+44436  38.422  22.576  12.753
72821ION    NA+44437  19.662  42.731  10.177
72822ION    NA+44438  40.286  19.389   2.317
72823ION    NA+44439  42.252  25.636   2.199
72824ION    NA+44440  42.152  24.417  13.618
72825ION    NA+44441  36.787  38.787   0.084
72826ION    NA+44442   4.661  23.081  11.444
72827ION    NA+44443  32.027  23.325   3.265
72828ION    NA+44444  28.100   1.321  13.791
72829ION    NA+44445   0.990  22.274   5.352
72830ION    NA+44446  18.653   2.984   2.799
72831ION    NA+44447  43.148   2.227   1.433
72832ION    NA+44448  22.419  44.682   0.126
72833ION    NA+44449  43.840   2.701   1.978
72834ION    NA+44450  14.420  41.641   2.559
72835ION    NA+44451   0.295   1.104   4.797
72836ION    NA+44452  44.778  40.412  12.140
72837ION    NA+44453   0.838   4.289  12.554
72838ION    NA+44454  27.875  23.417   0.687
72839ION    NA+44455  18.594   2.004  11.141
72840ION    NA+44456  39.132  24.558   0.975
72841ION    NA+44457  32.796  10.046  10.877
72842ION    NA+44458  19.504  32.641  12.970
72843ION    NA+44459  32.515   1.656   2.048
72844ION    NA+44460  17.559   4.449  12.921
72845ION    NA+44461   2.100  34.373   1.043
72846ION    NA+44462  39.645  40.542   2.840
72847ION    NA+44463  18.272  39.496  11.238
72848ION    NA+44464   3.321  14.091  13.002
72849ION    NA+44465  22.881  28.276   4.102
72850ION    NA+44466  28.930  14.880  12.876
72851ION    NA+44467  26.598  15.753  11.049
72852ION    NA+44468  23.784  40.434   2.265
72853ION    NA+44469  39.381  28.130  14.477
72854ION    NA+44470  16.989   3.105   1.179
72855ION    NA+44471  39.119   0.549   0.587
72856ION    NA+44472  19.266  11.077  14.428
72857ION    NA+44473  13.357  20.294   4.244
72858ION    NA+44474   1.433  14.403  13.502
72859ION    NA+44475  36.465  40.810  12.083
72860ION    NA+44476  33.071  36.575   3.386
72861ION    NA+44477   1.543  33.745   0.695
72862ION    NA+44478  27.710  19.373   3.696
72863ION    NA+44479  16.584  28.116   3.745
72864ION    NA+44480  36.793  23.266  11.959
72865ION    NA+44481  13.913  27.662  12.307
72866ION    NA+44482  12.481  20.500  11.164
72867ION    NA+44483   6.036  41.165   2.121
72868ION    NA+44484   6.772  39.325  14.335
72869ION    NA+44485   5.880  37.009   1.192
72870ION    NA+44486   2.105  44.550   1.081
72871ION    NA+44487  30.535  26.633   1.237
72872ION    NA+44488  14.546   5.732  14.429
72873ION    NA+44489  24.340   6.721  14.352
72874ION    NA+44490  27.013  28.267   1.404
72875ION    NA+44491  23.972   2.657   0.244
72876ION    NA+44492  44.956  13.682   2.565
72877ION    NA+44493   9.510  32.666  11.503
72878ION    NA+44494  22.514  41.299  11.959
72879ION    NA+44495  13.756   3.647  11.277
72880ION    NA+44496  28.749  28.554   0.871
72881ION    NA+44497  21.521   2.872   3.039
72882ION    NA+44498  39.819  35.087  12.080
72883ION    NA+44499  31.697  39.381   1.875
72884ION    NA+44500  42.102  28.581  11.766
72885ION    NA+44501  21.979  22.171   4.582
72886ION    NA+44502  30.093  16.080   9.969
72887ION    NA+44503  44.054   7.465  11.376
72888ION    NA+44504  26.881  26.279  13.440
72889ION    NA+44505  10.940  11.591   1.388
72890ION    NA+44506  24.097  29.026  10.747
72891ION    NA+44507  19.813  28.685  13.178
72892ION    NA+44508  37.718  35.551   3.640
72893ION    NA+44509  13.245  33.818   3.031
72894ION    NA+44510   2.222   4.524   9.827
72895ION    NA+44511  21.613   5.399  14.293
72896ION    NA+44512  38.403  26.613  12.829
72897ION    NA+44513  41.502  34.305   2.405
72898ION    NA+44514   0.750  18.779  13.002
72899ION    NA+44515  44.604  44.137  10.979
72900ION    NA+44516  43.944  25.482  12.720
72901ION    NA+44517   3.195  21.096  12.643
72902ION    NA+44518   4.645   2.827   1.717
72903ION    NA+44519  42.220   8.430   0.004
72904ION    NA+44520  39.308  44.531   3.810
72905ION    NA+44521  37.590  22.230   0.405
72906ION    NA+44522  24.752  42.748   4.086
72907ION    NA+44523  34.173  11.474  13.625
72908ION    NA+44524  11.419  31.993   0.303
72909ION    NA+44525  16.410   5.987   4.666
72910ION    NA+44526   8.892  24.277  14.526
72911ION    NA+44527   1.851  16.569  12.534
72912ION    NA+44528  11.347  13.135  13.865
72913ION    NA+44529  19.062  36.067  10.715
72914ION    NA+44530  17.513   6.046   4.034
72915ION    NA+44531  34.880  13.903  11.541
72916ION    NA+44532  22.774   8.975  11.692
72917ION    NA+44533  41.797  12.778   1.301
72918ION    NA+44534  34.272   1.383  13.704
72919ION    NA+44535  25.554   7.392  10.906
72920ION    NA+44536  41.012   1.467   1.697
72921ION    NA+44537  29.493  37.873   3.056
72922ION    NA+44538  13.325  27.742  13.112
72923ION    NA+44539  37.187  40.570   2.540
72924ION    NA+44540  18.288  35.466   3.239
72925ION    NA+44541  35.331  38.332   0.521
72926ION    NA+44542  12.116  44.690  13.092
72927ION    NA+44543  17.931  37.325  11.165
72928ION    NA+44544  28.568   7.147  14.326
72929ION    NA+44545  20.717   5.316  10.621
72930ION    NA+44546  36.218  14.583  13.711
72931ION    NA+44547  11.108  39.379   0.963
72932ION    NA+44548   5.121   0.934   0.217
72933ION    NA+44549  10.041  42.817  14.898
72934ION    NA+44550  37.506  28.162  14.355
72935ION    NA+44551  24.102  25.013  14.465
72936ION    NA+44552   3.366  24.441  11.061
72937ION    NA+44553  21.709  17.249   2.834
72938ION    NA+44554  41.396  41.013   3.957
72939ION    NA+44555  26.536  42.939  13.033
72940ION    NA+44556  16.678  36.199   1.740
72941ION    NA+44557  35.498   4.685   4.325
72942ION    NA+44558  32.542  33.876   0.100
72943ION    NA+44559  18.828  12.777  13.348
72944ION    NA+44560   0.375  38.827   0.361
72945ION    NA+44561  35.886  10.575   9.893
72946ION    NA+44562  12.325  14.025   1.939
72947ION    NA+44563   7.008  23.245   4.146
72948ION    NA+44564   4.606   0.232   0.293
72949ION    NA+44565  27.739   0.382  11.845
72950ION    NA+44566  37.456   8.668  11.706
72951ION    NA+44567  13.662   3.970  13.290
72952ION    NA+44568  22.396  39.342  14.596
72953ION    NA+44569   9.601  20.253  13.469
72954ION    NA+44570  12.145  10.297  13.960
72955ION    NA+44571  15.616   3.320   4.915
72956ION    NA+44572   5.055   8.324   3.717
72957ION    NA+44573  31.557   5.931   4.851
72958ION    NA+44574  22.435  21.196  12.412
72959ION    NA+44575  25.485  18.659   3.025
72960ION    NA+44576  28.052   3.172  13.307
72961ION    NA+44577  28.545  25.895   1.587
72962ION    NA+44578   6.623  21.444  12.396
72963ION    NA+44579  21.589  12.624   3.687
72964ION    NA+44580  33.503  43.146  11.398
72965ION    NA+44581  43.845  24.228  13.854
72966ION    NA+44582  18.892  28.244  14.839
72967ION    NA+44583   4.265  21.087  12.579
72968ION    NA+44584  38.454   8.473   4.100
72969ION    NA+44585  32.594  34.910   0.370
72970ION    NA+44586  25.637  25.401   0.784
72971ION    NA+44587  18.654  39.211   3.199
72972ION    NA+44588  40.926  23.647   1.612
72973ION    NA+44589  18.813  23.355   4.754
72974ION    NA+44590   6.779  34.263  14.472
72975ION    NA+44591  37.556  16.564   1.755
72976ION    NA+44592  39.815   6.442  10.949
72977ION    NA+44593   2.254  40.548   1.855
72978ION    NA+44594  19.589  19.793   2.305
72979ION    NA+44595  39.941  37.279  14.629
72980ION    NA+44596  41.538  23.595   3.619
72981ION    NA+44597  11.066  39.033  11.732
72982ION    NA+44598  37.214  19.609  10.848
72983ION    NA+44599   8.899  15.807  14.267
72984ION    NA+44600  31.399  14.399   3.203
72985ION    NA+44601  12.273   1.446   0.974
72986ION    NA+44602  26.184  35.855  12.449
72987ION    NA+44603   3.873  34.528   1.621
72988ION    NA+44604  19.633  10.418  13.771
72989ION    NA+44605  12.187  33.889  10.628
72990ION    NA+44606  30.080  18.787   2.682
72991ION    NA+44607  24.134  38.307   3.817
72992ION    NA+44608   6.730   6.664  13.519
72993ION    NA+44609  40.988  12.572  11.149
72994ION    NA+44610  33.133  24.772  10.584
72995ION    NA+44611  22.571  11.050  10.659
72996ION    NA+44612   1.663   3.112  12.395
72997ION    NA+44613   6.582  17.467   4.085
72998ION    NA+44614  42.225   0.270   0.027
72999ION    NA+44615  24.256  41.895  12.966
73000ION    NA+44616   2.735  43.123  10.668
73001ION    NA+44617  26.433   9.271  11.676
73002ION    NA+44618  19.764   7.344   0.248
73003ION    NA+44619  33.276   1.343  13.786
73004ION    NA+44620  14.315  24.677   3.290
73005ION    NA+44621  43.349  19.167   3.511
73006ION    NA+44622  20.001   0.638   3.923
73007ION    NA+44623  26.061  38.711  10.460
73008ION    NA+44624  22.907   3.935   1.623
73009ION    NA+44625  33.652  35.902   1.217
73010ION    NA+44626  16.445   5.204   0.820
73011ION    NA+44627  36.038  16.975  14.261
73012ION    NA+44628  30.842   6.895  13.332
73013ION    NA+44629  33.325  26.919  12.537
73014ION    NA+44630  32.396   7.951  11.887
73015ION    NA+44631  15.806  36.493  12.483
73016ION    NA+44632  34.946   1.906  14.286
73017ION    NA+44633  19.225  19.175   3.559
73018ION    NA+44634  18.470  31.703  12.167
73019ION    NA+44635  19.528  30.173   1.837
73020ION    NA+44636   1.688  28.694  13.973
73021ION    NA+44637  30.961  34.626  13.069
73022ION    NA+44638  39.461  15.608   0.915
73023ION    NA+44639   1.021  32.932   4.523
73024ION    NA+44640  24.352  36.549   4.459
73025ION    NA+44641   3.881  30.686   0.095
73026ION    NA+44642   1.967  34.853   3.552
73027ION    NA+44643   4.238  12.568  12.857
73028ION    NA+44644   1.711   0.508  14.524
73029ION    NA+44645  38.398  43.237   0.087
73030ION    NA+44646   9.307   0.769  13.777
73031ION    NA+44647  26.442  17.231  10.470
73032ION    NA+44648  39.894  35.123   5.012
73033ION    NA+44649  19.271  43.222   4.780
73034ION    NA+44650  37.212  10.392  12.689
73035ION    NA+44651  30.100  20.646   1.347
73036ION    NA+44652  16.967  43.119  12.463
73037ION    NA+44653  11.689  34.885  13.778
73038ION    NA+44654   2.102   7.900  12.353
73039ION    NA+44655  22.143  17.509   1.327
73040ION    NA+44656  13.568  11.144  14.977
73041ION    NA+44657   9.373  18.578  14.753
73042ION    NA+44658  18.759  29.165  14.467
73043ION    NA+44659  33.399  21.690  11.540
73044ION    NA+44660  18.031   4.179   4.114
73045ION    NA+44661  33.550  21.276  14.971
73046ION    NA+44662  26.965  28.938   0.211
73047ION    NA+44663  17.585  28.981   4.073
73048ION    NA+44664  39.915   3.136   0.085
73049ION    NA+44665  33.100  11.036  10.527
73050ION    NA+44666  31.799  41.216  11.770
73051ION    NA+44667  12.467  31.055   4.918
73052ION    NA+44668   0.900  34.634   2.696
73053ION    NA+44669   4.813   6.381   4.398
73054ION    NA+44670  26.110  33.938   0.326
73055ION    NA+44671  41.609  35.955  13.881
73056ION    NA+44672  25.523  16.694  12.196
73057ION    NA+44673  37.946   9.775  14.790
73058ION    NA+44674  29.086  28.838   1.929
73059ION    NA+44675  37.853  29.416  11.734
73060ION    NA+44676  12.037  43.647  14.926
73061ION    NA+44677  28.123  38.564  14.843
73062ION    NA+44678  25.958   4.428   0.855
73063ION    NA+44679  37.138   7.476  12.591
73064ION    NA+44680  16.599  41.790  14.419
73065ION    NA+44681   0.021   8.840   0.484
73066ION    NA+44682  35.645  44.731  13.894
73067ION    NA+44683  14.135   3.599   0.448
73068ION    NA+44684  30.518   2.207  10.925
73069ION    NA+44685  42.746  22.336  11.176
73070ION    NA+44686   4.506  20.250  11.986
73071ION    NA+44687  36.940   0.562  11.939
73072ION    NA+44688  28.391  27.191   2.117
73073ION    NA+44689  16.278  26.098  14.318
73074ION    NA+44690  33.396  33.242  11.336
73075ION    NA+44691   1.223  21.509  11.112
73076ION    NA+44692  22.586   4.797  11.674
73077ION    NA+44693  22.022  36.156   3.268
73078ION    NA+44694   3.840   1.952  12.675
73079ION    NA+44695  40.809  44.520  11.542
73080ION    NA+44696  38.795  29.174  10.999
73081ION    NA+44697  14.165   0.138   0.393
73082ION    NA+44698  18.602  36.311   3.435
73083ION    NA+44699  40.793  31.904  11.576
73084ION    NA+44700  14.444  10.295   2.432
73085ION    NA+44701  20.340  30.023  13.869
73086ION    NA+44702  26.022  21.326  12.364
73087ION    NA+44703  12.732  24.693   3.631
73088ION    NA+44704   9.846  21.061   1.677
73089ION    NA+44705  34.290   6.670  14.619
73090ION    NA+44706   6.666   9.106  11.205
73091ION    NA+44707  28.760   5.436   3.416
73092ION    NA+44708  16.437  19.704  11.153
73093ION    NA+44709   1.565   1.103   2.354
73094ION    NA+44710  14.781   4.052  12.323
73095ION    NA+44711   8.807   7.770   4.096
73096ION    NA+44712   9.935  31.422   3.040
73097ION    NA+44713  14.253  28.969  12.398
73098ION    NA+44714  10.401  16.540   0.630
73099ION    NA+44715  30.676  10.999   1.720
73100ION    NA+44716  14.145  30.698   0.065
73101ION    NA+44717  33.941  25.664   2.424
73102ION    NA+44718  15.991  39.499  13.719
73103ION    NA+44719  39.830  36.082  12.930
73104ION    NA+44720  25.630  31.044   3.118
73105ION    NA+44721  17.657  41.865  12.715
73106ION    NA+44722  36.782  12.891   4.620
73107ION    NA+44723   8.663  11.691   3.726
73108ION    NA+44724  35.966   9.927  12.689
73109ION    NA+44725  17.239   2.087   1.302
73110ION    NA+44726  39.227  27.708   2.380
73111ION    NA+44727  14.236  20.015  12.873
73112ION    NA+44728  33.753  23.251   1.677
73113ION    NA+44729  32.769  40.678   4.040
73114ION    NA+44730  18.061  30.845  12.478
73115ION    NA+44731  34.904  19.574   1.379
73116ION    NA+44732  43.767  15.875   1.945
73117ION    NA+44733  36.838  22.437  12.331
73118ION    NA+44734   0.397  15.493  14.642
73119ION    NA+44735   2.541  38.442   3.105
73120ION    NA+44736  26.842   3.044  12.541
73121ION    NA+44737  27.472  22.850   4.108
73122ION    NA+44738   2.982  31.595  12.660
73123ION    NA+44739  25.291   3.548  10.754
73124ION    NA+44740  10.430   5.967   1.093
73125ION    NA+44741  33.640  25.034   3.139
73126ION    NA+44742   3.078  32.679   3.508
73127ION    NA+44743  19.447  10.423   3.571
73128ION    NA+44744   1.303  23.415   3.232
73129ION    NA+44745  34.554   8.374   2.830
73130ION    NA+44746   6.858   5.058  12.099
73131ION    NA+44747  37.473   9.513  12.241
73132ION    NA+44748   8.340  29.942  11.602
73133ION    NA+44749  22.076  40.781  12.694
73134ION    NA+44750  19.626  35.167   0.626
73135ION    NA+44751  23.920  27.583  11.726
73136ION    NA+44752  35.129  19.831   0.074
73137ION    NA+44753  11.015  37.693  13.376
73138ION    NA+44754  16.979  41.549   4.825
73139ION    NA+44755  35.816  14.846   1.560
73140ION    NA+44756  12.098  23.802  13.326
73141ION    NA+44757  25.614  19.113   4.773
73142ION    NA+44758   5.194  23.694  14.028
73143ION    NA+44759  10.369  26.087   0.466
73144ION    NA+44760   0.310  27.792  12.913
73145ION    NA+44761  24.496  37.145  13.916
73146ION    NA+44762  30.570   6.767   2.244
73147ION    NA+44763  20.161  16.044   0.652
73148ION    NA+44764  34.978   5.940   4.248
73149ION    NA+44765   3.355   9.868   4.924
73150ION    NA+44766  40.173  41.973  11.735
73151ION    NA+44767  28.860  38.162   0.387
73152ION    NA+44768   2.209   2.177  10.675
73153ION    NA+44769  23.168  11.744  13.932
73154ION    NA+44770  38.080  12.569  12.977
73155ION    NA+44771  17.356  24.627  11.276
73156ION    NA+44772   5.772  39.098  11.487
73157ION    NA+44773   7.981  18.508  14.371
73158ION    NA+44774  14.954   6.031   4.166
73159ION    NA+44775  12.418  12.228  13.338
73160ION    NA+44776   2.045  34.349   4.191
73161ION    NA+44777   1.043  41.698   4.707
73162ION    NA+44778   4.522  37.060   1.034
73163ION    NA+44779  38.792   4.348  10.698
73164ION    NA+44780  34.652   0.782  11.541
73165ION    NA+44781   2.817  24.494   2.551
73166ION    NA+44782  31.081  19.256   2.140
73167ION    NA+44783   1.819   1.725   2.943
73168ION    NA+44784  39.006  33.513   0.943
73169ION    NA+44785  35.070  41.566  10.832
73170ION    NA+44786  13.906  40.908   2.403
73171ION    NA+44787   4.871  29.490  12.128
73172ION    NA+44788  10.030  34.445   3.445
73173ION    NA+44789  39.263  30.814  14.697
73174ION    NA+44790  23.424   4.343   0.862
73175ION    NA+44791   5.736  17.409  11.213
73176ION    NA+44792  32.888   8.470  14.821
73177ION    NA+44793  30.071  38.650   3.307
73178ION    NA+44794   7.664  19.191  12.897
73179ION    NA+44795   6.734  21.765  11.087
73180ION    NA+44796  32.612  14.309  12.024
73181ION    NA+44797   1.877  35.125   4.332
73182ION    NA+44798   3.504   8.716  11.066
73183ION    NA+44799  24.132  16.479   0.688
73184ION    NA+44800   6.388  21.713   1.463
73185ION    NA+44801  19.366  20.943   4.615
73186ION    NA+44802  16.577   6.142   0.501
73187ION    NA+44803  36.530  34.379  11.557
73188ION    NA+44804  17.606  44.925   0.506
73189ION    NA+44805   4.826  35.046   1.408
73190ION    NA+44806  40.374   6.707  12.440
73191ION    NA+44807  28.734   0.832   2.936
73192ION    NA+44808  40.646  41.220   3.328
73193ION    NA+44809  34.096  42.339   1.514
73194ION    NA+44810   2.807  14.681   3.319
73195ION    NA+44811  38.614  10.243   4.030
73196ION    NA+44812  13.123  13.624  10.583
73197ION    NA+44813  29.330  20.954  13.412
73198ION    NA+44814  12.005  37.788   2.318
73199ION    NA+44815  38.810   2.329  10.318
73200ION    NA+44816  33.900   1.597  11.150
73201ION    NA+44817   2.534  16.157   1.745
73202ION    NA+44818  21.696  12.212   1.188
73203ION    NA+44819  25.859   1.781  14.795
73204ION    NA+44820  42.386  20.745  11.933
73205ION    NA+44821  42.975  42.729  12.391
73206ION    NA+44822  10.647  25.230   0.900
73207ION    NA+44823   6.180  25.575   4.439
73208ION    NA+44824  20.213  26.234  14.863
73209ION    NA+44825  40.959  39.337   4.850
73210ION    NA+44826  14.749  42.956   2.446
73211ION    NA+44827  11.057  29.306  11.268
73212ION    NA+44828  15.662  32.506   0.624
73213ION    NA+44829   8.742   3.571   3.047
73214ION    NA+44830   4.467  21.820  10.869
73215ION    NA+44831   6.968   4.998   3.040
73216ION    NA+44832  27.421  44.145  13.288
73217ION    NA+44833   0.562  12.961  13.801
73218ION    NA+44834  34.452  44.733  14.494
73219ION    NA+44835  30.898   9.898   4.180
73220ION    NA+44836  13.349  19.439   1.888
73221ION    NA+44837  28.896  12.414   2.186
73222ION    NA+44838  37.709  20.638  13.745
73223ION    NA+44839  31.130  32.907  12.366
73224ION    NA+44840   9.354  11.122  14.979
73225ION    NA+44841  20.530  13.909   1.291
73226ION    NA+44842  34.098  25.657  12.481
73227ION    NA+44843  33.257  39.228  13.240
73228ION    NA+44844  24.288  11.111  12.406
73229ION    NA+44845  31.824  24.269  14.562
73230ION    NA+44846  41.844   3.021  13.826
73231ION    NA+44847  34.546  40.766   0.195
73232ION    NA+44848  19.817  33.607  13.854
73233ION    NA+44849  11.569  23.353  14.046
73234ION    NA+44850  35.898  32.717  14.454
73235ION    NA+44851  44.558  29.533  12.822
73236ION    NA+44852  19.067  12.336   3.034
73237ION    NA+44853  38.840  19.362  12.809
73238ION    NA+44854  35.883  15.050  14.529
73239ION    NA+44855  32.066  18.501   0.703
73240ION    NA+44856  12.941  26.030   4.007
73241ION    NA+44857  24.707  30.874  11.262
73242ION    NA+44858  36.581  24.738  13.380
73243ION    NA+44859  16.728  33.403  12.812
73244ION    NA+44860   1.505   3.832   2.341
73245ION    NA+44861   8.262  27.001  10.727
73246ION    NA+44862  24.669  10.734   4.819
73247ION    NA+44863  30.805  24.870  14.558
73248ION    NA+44864   9.034   1.956  11.220
73249ION    NA+44865  34.075  16.374  12.900
73250ION    NA+44866  14.329  40.703  13.596
73251ION    NA+44867  22.864  29.565  13.093
73252ION    NA+44868  44.966  37.332  11.887
73253ION    NA+44869  40.195  44.069   3.818
73254ION    NA+44870  20.068   7.421  12.439
73255ION    NA+44871  37.364  32.044  13.023
73256ION    NA+44872  17.837   5.251   1.505
73257ION    NA+44873  23.609  12.801  12.834
73258ION    NA+44874   0.670  22.608   0.794
73259ION    NA+44875  21.146  35.205   2.789
73260ION    NA+44876  29.395  21.769  12.997
73261ION    NA+44877  10.754  21.282  11.667
73262ION    NA+44878  27.276  18.478   3.595
73263ION    NA+44879  14.818   3.409  14.546
73264ION    NA+44880   4.882  42.972   4.163
73265ION    NA+44881  32.108   2.880   4.261
73266ION    NA+44882   1.624  37.124  11.206
73267ION    NA+44883  18.615  40.463   2.697
73268ION    NA+44884  31.146  38.860   0.009
73269ION    NA+44885  25.548  20.086  12.607
73270ION    NA+44886  18.677  31.247   1.621
73271ION    NA+44887  33.024  22.330  13.973
73272ION    NA+44888   3.204  12.771   2.843
73273ION    NA+44889  21.142  14.688   2.329
73274ION    NA+44890  44.456  28.618   5.175
73275ION    NA+44891  30.855  15.194  10.577
73276ION    NA+44892  20.090  43.518   0.950
73277ION    NA+44893  39.845   1.927   3.767
73278ION    NA+44894  40.646  37.767   1.841
73279ION    NA+44895  39.075  39.942  12.468
73280ION    NA+44896  28.084   0.102  12.501
73281ION    NA+44897  34.354  10.393  14.863
73282ION    NA+44898  28.727  17.758  13.364
73283ION    NA+44899  44.469  43.391   5.057
73284ION    NA+44900  23.048  40.005   2.789
73285ION    NA+44901  14.810   9.945   3.740
73286ION    NA+44902  14.180  26.108  10.766
73287ION    NA+44903  33.527  42.492   4.256
73288ION    NA+44904  42.264  38.224   1.513
73289ION    NA+44905   1.854   3.924  11.707
73290ION    NA+44906  27.703  30.054   1.484
73291ION    NA+44907   2.846  43.114   0.449
73292ION    NA+44908  24.162  33.944  13.395
73293ION    NA+44909  10.333  39.335   2.114
73294ION    NA+44910  32.972  40.116  14.873
73295ION    NA+44911  21.572   6.823   1.162
73296ION    NA+44912  32.839  32.178   2.747
73297ION    NA+44913   8.878  23.727  13.803
73298ION    NA+44914  19.698  41.546  13.107
73299ION    NA+44915  26.585  41.249  11.062
73300ION    NA+44916  44.933  16.387  14.544
73301ION    NA+44917  28.949  33.771  12.070
73302ION    NA+44918   4.893  14.560  14.999
73303ION    NA+44919  23.079  32.966   3.581
73304ION    NA+44920  25.471  19.332   3.776
73305ION    NA+44921  41.862  16.158  12.879
73306ION    NA+44922  36.377  27.273  11.571
73307ION    NA+44923  40.152  18.156   1.947
73308ION    NA+44924  26.190   5.773  13.508
73309ION    NA+44925  20.528  43.343  12.039
73310ION    NA+44926   5.177  14.840  13.246
73311ION    NA+44927  11.355  10.643   2.240
73312ION    NA+44928  37.656  11.766  13.963
73313ION    NA+44929  27.675  26.238   0.243
73314ION    NA+44930   1.490  27.928   3.246
73315ION    NA+44931  40.462  15.894   1.742
73316ION    NA+44932  31.537  14.471   4.191
73317ION    NA+44933  21.840  16.660   0.847
73318ION    NA+44934  17.131  11.568   4.063
73319ION    NA+44935  16.509   5.778   2.833
73320ION    NA+44936  29.974  37.961  11.866
73321ION    NA+44937  12.441  27.822  12.651
73322ION    NA+44938  41.721  31.081   2.945
73323ION    NA+44939  21.240  25.621  13.540
73324ION    NA+44940  17.775  44.592   3.174
73325ION    NA+44941  23.177   1.228   3.792
73326ION    NA+44942  20.870  42.610   0.336
73327ION    NA+44943  17.068  16.712   1.807
73328ION    NA+44944   6.016   3.307  10.784
73329ION    NA+44945  31.688  29.202  10.550
73330ION    NA+44946   3.566  31.739  11.172
73331ION    NA+44947  10.444  41.240   0.937
73332ION    NA+44948   3.334  17.174   1.809
73333ION    NA+44949  33.791  36.187   2.180
73334ION    NA+44950  14.584   7.794   2.340
73335ION    NA+44951  20.585  36.731  12.899
73336ION    NA+44952   1.760   4.352  10.808
73337ION    NA+44953  42.171  24.869   1.546
73338ION    NA+44954  27.816   9.976  13.229
73339ION    NA+44955  10.112  29.866   2.755
73340ION    NA+44956  32.664   1.670   2.903
73341ION    NA+44957  31.771  40.239  13.007
73342ION    NA+44958   9.528   4.132   0.404
73343ION    NA+44959  37.872   2.392   3.800
73344ION    NA+44960  43.287  20.810   1.968
73345ION    NA+44961  16.834  20.334  14.367
73346ION    NA+44962  13.220  34.036   4.068
73347ION    NA+44963  33.240   0.229   3.368
73348ION    NA+44964   6.810   7.806   1.180
73349ION    NA+44965  17.361  35.530  12.990
73350ION    NA+44966  20.739  16.695  13.531
73351ION    NA+44967  31.836  36.312   0.896
73352ION    NA+44968  41.448  13.301   0.338
73353ION    NA+44969   7.679  33.255  13.371
73354ION    NA+44970   1.932  33.477   2.906
73355ION    NA+44971   1.437  24.326  11.394
73356ION    NA+44972   0.727  39.876   4.910
73357ION    NA+44973  33.113  39.563   3.661
73358ION    NA+44974  44.859   6.083   4.471
73359ION    NA+44975   1.107  28.018  13.262
73360ION    NA+44976  39.064  19.649   0.854
73361ION    NA+44977  38.472  20.928   0.823
73362ION    NA+44978  22.895  35.823  10.733
73363ION    NA+44979   9.656  43.783   2.920
73364ION    NA+44980  31.982   8.856   1.775
73365ION    NA+44981  15.017  12.144   1.335
73366ION    NA+44982  19.181  29.964  11.592
73367ION    NA+44983  36.982  30.244   4.541
73368ION    NA+44984   3.892   2.955   0.069
73369ION    NA+44985  25.281  31.181  12.055
73370ION    NA+44986  20.755  23.452   4.068
73371ION    NA+44987  36.739  44.481   4.325
73372ION    NA+44988   8.904  36.075  12.614
73373ION    NA+44989  27.049   8.895   2.624
73374ION    NA+44990  14.582  11.396   1.053
73375ION    NA+44991  41.060  30.727   4.156
73376ION    NA+44992   0.026   1.354   1.910
73377ION    NA+44993  41.336  30.106   1.413
73378ION    NA+44994  38.517  42.171   3.674
73379ION    NA+44995  33.844   0.614  10.977
73380ION    NA+44996  18.957  21.297  12.033
73381ION    NA+44997  41.863  42.390  12.372
73382ION    NA+44998   8.252  12.226   0.943
73383ION    NA+44999  39.998  15.509  12.925
73384ION    NA+45000  44.350   1.866  10.705
73385ION    NA+45001  10.652  13.635   2.376
73386ION    NA+45002  10.351  37.582   2.308
73387ION    NA+45003  41.656  17.354   9.802
73388ION    NA+45004   6.913  24.638   4.353
73389ION    NA+45005  35.690   1.181   3.463
73390ION    NA+45006   8.253  15.565   2.457
73391ION    NA+45007  28.440  35.791  13.238
73392ION    NA+45008   7.956  28.699  11.399
73393ION    NA+45009  36.700  18.698   5.391
73394ION    NA+45010  31.533  20.404   1.975
73395ION    NA+45011  25.986  24.939  10.778
73396ION    NA+45012  27.838  28.004   4.275
73397ION    NA+45013  41.258  34.903   0.508
73398ION    NA+45014  31.414  42.294   4.115
73399ION    NA+45015   4.437  25.124   3.339
73400ION    NA+45016  21.367  36.925  13.588
73401ION    NA+45017   1.313   1.751  11.629
73402ION    NA+45018  42.383  42.384   2.612
73403ION    NA+45019  15.463   1.388  11.070
73404ION    NA+45020  31.843  29.517  12.939
73405ION    NA+45021   9.717   9.034   0.259
73406ION    NA+45022  16.782  16.586  13.909
73407ION    NA+45023  32.349  15.605   4.062
73408ION    NA+45024  37.679  44.324   2.865
73409ION    NA+45025  31.121  40.447   2.158
73410ION    NA+45026  30.464  17.231  13.385
73411ION    NA+45027  25.081  41.498   2.032
73412ION    NA+45028  17.333  13.087   3.291
73413ION    NA+45029   8.350  33.722   1.870
73414ION    NA+45030   9.772  27.995   0.814
73415ION    NA+45031  43.664  24.945  11.493
73416ION    NA+45032  23.011  21.497  13.441
73417ION    NA+45033  28.110  23.382  13.587
73418ION    NA+45034  22.433  26.272   4.910
73419ION    NA+45035  35.338  29.492   3.208
73420ION    NA+45036  34.404  44.045   2.732
73421ION    NA+45037   8.783  16.490  13.545
73422ION    NA+45038  40.919  25.927  13.122
73423ION    NA+45039  30.316  42.462   0.468
73424ION    NA+45040  15.665  17.711  13.511
73425ION    NA+45041  25.351   4.472  14.898
73426ION    NA+45042   3.460  37.771   0.431
73427ION    NA+45043  33.133   8.851  11.115
73428ION    NA+45044  32.922  19.607   4.191
73429ION    NA+45045   5.350   9.555  13.743
73430ION    NA+45046  19.059  32.556   2.805
73431ION    NA+45047  22.451   5.467   1.903
73432ION    NA+45048   5.730  11.014   4.466
73433ION    NA+45049   0.206  38.681  11.861
73434ION    NA+45050  44.283  35.224  10.905
73435ION    NA+45051  37.399  18.296  11.125
73436ION    NA+45052   6.819  15.491  12.778
73437ION    NA+45053  14.058   4.491   0.679
73438ION    NA+45054  28.411  36.133   1.705
73439ION    NA+45055  27.311   0.429  12.550
73440ION    NA+45056  19.512  44.062  13.754
73441ION    NA+45057  30.006  16.791   3.796
73442ION    NA+45058  34.967   4.653  12.963
73443ION    NA+45059  42.226  10.645   5.028
73444ION    NA+45060  43.747  43.825  13.314
73445ION    NA+45061  11.787  18.355  13.569
73446ION    NA+45062  18.340  41.891   3.568
73447ION    NA+45063  43.853  21.858  12.261
73448ION    NA+45064   7.012  36.022  13.945
73449ION    NA+45065  14.731  38.590   0.955
73450ION    NA+45066  38.967  17.254   1.942
73451ION    NA+45067  34.949  20.130   2.251
73452ION    NA+45068  31.047   3.684   2.890
73453ION    NA+45069  34.458  26.453   5.284
73454ION    NA+45070  41.952   3.227  12.427
73455ION    NA+45071  14.126  26.597  14.974
73456ION    NA+45072  36.755  18.748   2.192
73457ION    NA+45073   1.067  39.970  12.220
73458ION    NA+45074   9.921  40.070   1.576
73459ION    NA+45075  26.564   7.163   1.803
73460ION    NA+45076  36.896  23.529  14.793
73461ION    NA+45077  17.124  28.177   2.822
73462ION    NA+45078  19.138  11.216  10.644
73463ION    NA+45079  37.721   3.454  11.801
73464ION    NA+45080  12.707   9.565   1.463
73465ION    NA+45081  10.320  23.220   2.018
73466ION    NA+45082  17.640  26.598  10.626
73467ION    NA+45083  22.288   9.219   0.188
73468ION    NA+45084  16.018  20.413  11.157
73469ION    NA+45085  11.947  29.731  11.105
73470ION    NA+45086  23.644  36.568  10.640
73471ION    NA+45087  33.912  43.892  11.998
73472ION    NA+45088  39.247  38.461  11.906
73473ION    NA+45089  43.737  39.980   0.125
73474ION    NA+45090  30.437   2.727   1.291
73475ION    NA+45091  12.764  31.808   3.990
73476ION    NA+45092  31.127  31.574  13.583
73477ION    NA+45093  25.040  22.656   5.076
73478ION    NA+45094   9.153  41.662  12.022
73479ION    NA+45095  29.064  37.098  11.860
73480ION    NA+45096  35.959  44.445  14.800
73481ION    NA+45097  39.255  40.915   4.161
73482ION    NA+45098  39.875   0.857   4.337
73483ION    NA+45099  44.792  35.464   1.314
73484ION    NA+45100  11.616  15.134   2.492
73485ION    NA+45101   6.494  18.170   1.809
73486ION    NA+45102   9.890  44.973  13.937
73487ION    NA+45103  18.675   7.516  12.542
73488ION    NA+45104  43.125  29.419  11.573
73489ION    NA+45105  17.213   0.180  13.769
73490ION    NA+45106  35.456  43.638  12.984
73491ION    NA+45107  10.263  40.819  14.113
73492ION    NA+45108  13.166   2.633   2.264
73493ION    NA+45109  38.112  13.986  10.981
73494ION    NA+45110  29.204  26.807   4.686
73495ION    NA+45111  22.675  44.959   5.028
73496ION    NA+45112  13.825  23.577   0.483
73497ION    NA+45113   8.862   4.217   3.669
73498ION    NA+45114  13.984  26.056   2.526
73499ION    NA+45115  15.923  22.888   1.623
73500ION    NA+45116  11.996   3.952  11.113
73501ION    NA+45117  25.434   0.320  13.518
73502ION    NA+45118  41.305  16.474  14.406
73503ION    NA+45119  24.154  24.246   1.649
73504ION    NA+45120  26.688  11.824   3.196
73505ION    NA+45121  32.766  36.664   0.783
73506ION    NA+45122  38.937  24.487  10.724
73507ION    NA+45123   6.159  25.527  10.688
73508ION    NA+45124  43.280  31.989   4.482
73509ION    NA+45125   3.712  31.619  14.777
73510ION    NA+45126  21.219  36.196   2.673
73511ION    NA+45127  39.579   0.483  13.728
73512ION    NA+45128   1.716  16.157  11.173
73513ION    NA+45129  32.217  15.968  11.549
73514ION    NA+45130  37.064  25.211   2.906
73515ION    NA+45131  35.200  28.062  11.004
73516ION    NA+45132  29.104   9.053  14.469
73517ION    NA+45133  26.609  31.957   4.698
73518ION    NA+45134  37.662  42.280  14.622
73519ION    NA+45135  22.520  14.891  14.800
73520ION    NA+45136  23.786   1.887   1.412
73521ION    NA+45137  29.949   8.440  11.039
73522ION    NA+45138  30.431  35.878  12.117
73523ION    NA+45139  19.690  26.305   2.650
73524ION    NA+45140  37.387  18.982  11.890
73525ION    NA+45141  27.938  42.519  13.711
73526ION    NA+45142  38.360  35.091  11.608
73527ION    NA+45143   7.740  41.288   3.369
73528ION    NA+45144  13.360  35.438   3.575
73529ION    NA+45145   2.978  33.715  12.253
73530ION    NA+45146  10.696   3.311  11.363
73531ION    NA+45147  33.336   4.075   0.271
73532ION    NA+45148   3.476  25.982  14.762
73533ION    NA+45149   4.368   9.090  13.493
73534ION    NA+45150  30.118  28.175  10.665
73535ION    NA+45151  19.161  41.149  10.686
73536ION    NA+45152   8.547  32.909   5.122
73537ION    NA+45153  27.215  30.944  10.765
73538ION    NA+45154  31.670  13.087  12.816
73539ION    NA+45155  35.896  44.391   4.084
73540ION    NA+45156   1.548   0.880   1.228
73541ION    NA+45157  39.467  20.476  14.140
73542ION    NA+45158  36.191  41.760   3.089
73543ION    NA+45159  32.272  23.965   0.867
73544ION    NA+45160  10.457  21.958   2.822
73545ION    NA+45161  38.604  11.646   3.332
73546ION    NA+45162   9.816   0.544  13.119
73547ION    NA+45163   5.445  24.350   4.702
73548ION    NA+45164  15.080  15.967  10.425
73549ION    NA+45165  22.997  20.718   0.051
73550ION    NA+45166  38.631   8.923  14.092
73551ION    NA+45167  31.058   5.934  12.547
73552ION    NA+45168  25.288  41.762  12.827
73553ION    NA+45169   5.836  32.690   0.811
73554ION    NA+45170   3.515   6.638  12.601
73555ION    NA+45171   9.812  19.938   0.335
73556ION    NA+45172  39.127  13.392  12.529
73557ION    NA+45173  43.325  25.968   3.308
73558ION    NA+45174  39.782  32.101   1.654
73559ION    NA+45175  24.673  25.475   2.939
73560ION    NA+45176  12.942   5.721  12.425
73561ION    NA+45177  37.462  35.222   4.551
73562ION    NA+45178   2.382   4.434   1.398
73563ION    NA+45179   7.465  36.377   2.542
73564ION    NA+45180  42.124   4.938   4.847
73565ION    NA+45181   9.211  27.304  12.552
73566ION    NA+45182  11.353   9.610  13.770
73567ION    NA+45183  13.152  13.104   3.502
73568ION    NA+45184  42.854  21.022  10.729
73569ION    NA+45185  21.817   3.861   3.768
73570ION    NA+45186  44.079   7.922  14.885
73571ION    NA+45187  16.330  16.401   0.577
73572ION    NA+45188   7.055  37.406   0.930
73573ION    NA+45189  25.867  42.537  12.572
73574ION    NA+45190  36.584   3.190  14.511
73575ION    NA+45191  30.417  26.719  12.988
73576ION    NA+45192  40.398  23.563  11.540
73577ION    NA+45193  17.728  22.663  12.916
73578ION    NA+45194  16.452   1.801  11.959
73579ION    NA+45195   0.125  30.941   1.224
73580ION    NA+45196   5.262   5.120   9.833
73581ION    NA+45197  10.762  35.839   2.517
73582ION    NA+45198  27.677  28.397   0.175
73583ION    NA+45199  17.145  14.996   4.923
73584ION    NA+45200  39.383  26.705   3.307
73585ION    NA+45201  17.100  16.558   5.405
73586ION    NA+45202  30.884  22.070  12.779
73587ION    NA+45203  23.653  13.597   1.644
73588ION    NA+45204  35.448   7.919  11.093
73589ION    NA+45205  23.299  11.258  12.381
73590ION    NA+45206  29.873  23.746   3.264
73591ION    NA+45207  36.429   3.407   3.914
73592ION    NA+45208  39.599  13.311   3.309
73593ION    NA+45209   7.162  25.923  13.959
73594ION    NA+45210  44.441  17.376   4.619
73595ION    NA+45211  29.703  40.833   0.524
73596ION    NA+45212   8.709  19.688  12.085
73597ION    NA+45213  34.942   2.509  11.635
73598ION    NA+45214   2.912  44.015   0.505
73599ION    NA+45215  33.208  16.627  14.855
73600ION    NA+45216  40.566  26.544  13.878
73601ION    NA+45217  22.881   4.834  14.280
73602ION    NA+45218   2.299   0.266  12.588
73603ION    NA+45219   7.011  12.752  12.857
73604ION    NA+45220  32.155  11.948  12.724
73605ION    NA+45221  13.509   0.589   1.925
73606ION    NA+45222   9.698   5.777  13.485
73607ION    NA+45223  24.478  34.552  12.135
73608ION    NA+45224  14.335  39.323  14.175
73609ION    NA+45225  33.124  11.114   0.784
73610ION    NA+45226  14.529  13.370   1.465
73611ION    NA+45227  40.480  37.887   4.199
73612ION    NA+45228  31.416  25.923  13.292
73613ION    NA+45229  14.350  16.727  13.996
73614ION    NA+45230  19.616  39.055   2.867
73615ION    NA+45231  40.914  25.248   2.955
73616ION    NA+45232  11.135  31.506   4.131
73617ION    NA+45233  44.613  39.873  14.654
73618ION    NA+45234   9.567  10.313  11.499
73619ION    NA+45235  40.824   1.273  11.824
73620ION    NA+45236   0.008   2.619   4.405
73621ION    NA+45237  21.118  18.111   4.163
73622ION    NA+45238  15.254  15.745   2.336
73623ION    NA+45239  33.134  30.161  14.145
73624ION    NA+45240  22.188  18.257   0.607
73625ION    NA+45241  31.966  35.942   4.586
73626ION    NA+45242   8.033   8.860  11.047
73627ION    NA+45243  29.691  35.620   0.540
73628ION    NA+45244  10.102   4.526  14.326
73629ION    NA+45245  34.128   9.168   4.153
73630ION    NA+45246  15.892  35.071   1.398
73631ION    NA+45247  29.141  12.049  12.118
73632ION    NA+45248   9.152  39.459   2.155
73633ION    NA+45249  30.211  30.866  12.295
73634ION    NA+45250  22.390   0.429   0.641
73635ION    NA+45251  34.598  17.872  12.295
73636ION    NA+45252  12.867  34.611  10.828
73637ION    NA+45253  12.311  18.767   5.295
73638ION    NA+45254  16.671  28.044  13.296
73639ION    NA+45255  26.968   2.173   3.285
73640ION    NA+45256  21.894  33.613   9.708
73641ION    NA+45257  10.554  30.472   3.288
73642ION    NA+45258  26.949  22.204   1.268
73643ION    NA+45259  40.473  11.538   2.151
73644ION    NA+45260  34.712  29.000  13.357
73645ION    NA+45261  24.418   1.973   0.624
73646ION    NA+45262  15.340  10.270   0.377
73647ION    NA+45263  18.725  14.432   4.534
73648ION    NA+45264   3.416   6.220   4.123
73649ION    NA+45265  28.990   6.116   2.442
73650ION    NA+45266  27.309   2.627  13.322
73651ION    NA+45267   7.103   2.691  13.176
73652ION    NA+45268  42.863   9.398  12.435
73653ION    NA+45269  35.652   1.698   4.418
73654ION    NA+45270  29.831  11.521  10.709
73655ION    NA+45271  41.674  31.142  14.624
73656ION    NA+45272   2.448  25.691   2.433
73657ION    NA+45273  33.026  27.569  14.526
73658ION    NA+45274  23.569  11.610   0.444
73659ION    NA+45275  27.389  33.320  10.283
73660ION    NA+45276  39.082  17.952   4.214
73661ION    NA+45277  41.299  24.910   2.067
73662ION    NA+45278  12.192  36.514  12.978
73663ION    NA+45279  13.606  29.367  11.584
73664ION    NA+45280  27.166  36.989  14.796
73665ION    NA+45281  30.920   4.675  12.917
73666ION    NA+45282  19.948  21.244  11.220
73667ION    NA+45283  21.759  14.750   4.736
73668ION    NA+45284  38.933  14.603  13.156
73669ION    NA+45285  14.066   1.528  14.898
73670ION    NA+45286  33.985  28.434   1.645
73671ION    NA+45287  29.447  12.959   1.554
73672ION    NA+45288  13.734   9.515  10.903
73673ION    NA+45289   1.720  27.469  11.119
73674ION    NA+45290  43.746  36.000  12.029
73675ION    NA+45291  13.569   3.628  10.394
73676ION    NA+45292  14.778  12.754  13.601
73677ION    NA+45293   6.384  28.120   4.235
73678ION    NA+45294   6.210  43.055  10.970
73679ION    NA+45295   7.575  31.142   0.020
73680ION    NA+45296  12.931   3.905   2.797
73681ION    NA+45297   3.831  30.484  13.728
73682ION    NA+45298   0.716  25.487   2.957
73683ION    NA+45299  28.578  44.779   4.649
73684ION    NA+45300   5.994   1.012  14.734
73685ION    NA+45301  37.943  42.665   3.741
73686ION    NA+45302  26.454  42.631  14.902
73687ION    NA+45303  22.101   9.537  12.874
73688ION    NA+45304  43.732  11.963  14.318
73689ION    NA+45305  41.495  26.376  11.433
73690ION    NA+45306  42.262  43.707  12.115
73691ION    NA+45307  18.819  17.951  11.694
73692ION    NA+45308  10.355  10.194   1.282
73693ION    NA+45309  37.491  32.292  14.795
73694ION    NA+45310  20.766  26.273   1.232
73695ION    NA+45311  17.316  23.804  11.670
73696ION    NA+45312  16.283  30.798   1.594
73697ION    NA+45313  10.138   4.469   3.666
73698ION    NA+45314  33.362  31.978  12.954
73699ION    NA+45315  42.247  31.871  10.694
73700ION    NA+45316   2.956   3.832   2.391
73701ION    NA+45317  22.079  12.215   2.524
73702ION    NA+45318  16.852  23.950   1.144
73703ION    NA+45319  33.885   0.749   0.929
73704ION    NA+45320  15.648  36.879   1.606
73705ION    NA+45321  31.926  26.936  12.944
73706ION    NA+45322  40.770  14.281   1.210
73707ION    NA+45323  20.667  23.126  12.115
73708ION    NA+45324  41.461  42.884  10.893
73709ION    NA+45325  26.836  16.241  13.978
73710ION    NA+45326   3.920  32.752   3.827
73711ION    NA+45327  33.313  14.485  10.853
73712ION    NA+45328   3.658  42.990   5.153
73713ION    NA+45329  24.302  31.361  12.148
73714ION    NA+45330  29.124   2.438  13.146
73715ION    NA+45331  27.949   2.876   0.675
73716ION    NA+45332   8.414  44.427   2.428
73717ION    NA+45333  22.440   6.785   0.373
73718ION    NA+45334  43.043   2.027   2.228
73719ION    NA+45335  10.176  27.442  14.936
73720ION    NA+45336  32.613  29.665  10.733
73721ION    NA+45337   2.204  19.190   0.819
73722ION    NA+45338  36.918  40.318  10.679
73723ION    NA+45339   8.101  38.805  11.266
73724ION    NA+45340  23.710   9.749  11.410
73725ION    NA+45341  40.985  28.534  12.107
73726ION    NA+45342  17.491  43.199   4.773
73727ION    NA+45343   5.248   0.859   2.352
73728ION    NA+45344  30.154  41.293   1.718
73729ION    NA+45345  10.948  26.670  11.113
73730ION    NA+45346  25.631   0.242  10.694
73731ION    NA+45347   7.632  42.436   0.594
73732ION    NA+45348  29.425  12.961   0.152
73733ION    NA+45349  40.380   3.471   5.397
73734ION    NA+45350  27.182  12.842   3.737
73735ION    NA+45351  11.949  19.363  12.522
73736ION    NA+45352  21.816  11.102   1.908
73737ION    NA+45353  41.780   3.115  10.423
73738ION    NA+45354  17.024  39.505   4.223
73739ION    NA+45355  41.980  34.470   4.818
73740ION    NA+45356  39.413   9.367   5.186
73741ION    NA+45357  38.544  12.845  11.747
73742ION    NA+45358  27.072  24.036   3.213
73743ION    NA+45359  34.220   7.004   1.026
73744ION    NA+45360  18.291   7.919   2.835
73745ION    NA+45361  36.893   3.124   2.433
73746ION    NA+45362  33.475  20.955   1.495
73747ION    NA+45363  10.181  28.752   9.437
73748ION    NA+45364  14.323  26.002  14.333
73749ION    NA+45365  33.546  11.949  14.913
73750ION    NA+45366  34.425  39.672   0.823
73751ION    NA+45367  40.806   7.152   3.842
73752ION    NA+45368   3.703  10.288  13.761
73753ION    NA+45369  28.567  26.012  13.015
73754ION    NA+45370   8.210  11.256  11.571
73755ION    NA+45371  33.297  29.483   5.387
73756ION    NA+45372  12.268   0.837   3.234
73757ION    NA+45373   1.025  16.308   0.053
73758ION    NA+45374  22.993  21.403   3.319
73759ION    NA+45375   5.437  42.164   1.102
73760ION    NA+45376  37.100  19.037  13.717
73761ION    NA+45377  38.744  37.956   1.753
73762ION    NA+45378  13.943  22.402   3.311
73763ION    NA+45379  35.349  24.452   4.610
73764ION    NA+45380  25.093   8.496  12.314
73765ION    NA+45381  40.365  20.456  11.820
73766ION    NA+45382  34.540  43.209   5.162
73767ION    NA+45383  38.700   7.198   1.902
73768ION    NA+45384  31.723  30.642  14.480
73769ION    NA+45385  41.833  26.902   1.793
73770ION    NA+45386  36.143  33.570  12.974
73771ION    NA+45387  13.682   1.278   3.283
73772ION    NA+45388  26.128  16.323   2.672
73773ION    NA+45389  16.692   7.100   2.812
73774ION    NA+45390  27.461  18.565  12.480
73775ION    NA+45391  20.689  37.413   3.335
73776ION    NA+45392   0.893  20.472  11.532
73777ION    NA+45393  31.551  21.815   4.636
73778ION    NA+45394  34.182  39.403  13.578
73779ION    NA+45395   6.704  42.036  14.855
73780ION    NA+45396  19.114   0.200  11.958
73781ION    NA+45397  35.120  43.042   2.155
73782ION    NA+45398  12.595   9.466   3.601
73783ION    NA+45399  40.577  28.916   2.542
73784ION    NA+45400  28.274  19.992  14.040
73785ION    NA+45401  44.769  33.523  10.710
73786ION    NA+45402   5.837  39.259   1.687
73787ION    NA+45403  27.993  32.307  14.806
73788ION    NA+45404  39.692  32.837  11.275
73789ION    NA+45405   3.104  14.542  14.622
73790ION    NA+45406  12.765  26.876  12.631
73791ION    NA+45407  28.167  14.241   2.753
73792ION    NA+45408  21.711  13.559   2.167
73793ION    NA+45409  26.597  41.533   4.612
73794ION    NA+45410  28.262  42.526   2.856
73795ION    NA+45411  40.549  11.276  14.912
73796ION    NA+45412  18.781  18.806  12.626
73797ION    NA+45413  25.436   1.558  10.961
73798ION    NA+45414  15.828   0.384   4.430
73799ION    NA+45415  20.077  42.857   2.443
73800ION    NA+45416  11.727  40.289  11.823
73801ION    NA+45417  23.219  24.293   4.084
73802ION    NA+45418   9.993  41.306   4.230
73803ION    NA+45419  27.486  42.111   3.331
73804ION    NA+45420  10.625  15.034  12.911
73805ION    NA+45421   1.208   6.674   2.882
73806ION    NA+45422  32.711  17.288   0.055
73807ION    NA+45423   1.941   3.667   0.899
73808ION    NA+45424  19.032  33.562  14.570
73809ION    NA+45425  20.372   3.588  10.979
73810ION    NA+45426  31.918  23.170  13.510
73811ION    NA+45427   0.284  23.066   3.215
73812ION    NA+45428  23.524  38.641   1.787
73813ION    NA+45429  12.192   2.335  13.482
73814ION    NA+45430  39.059  11.929  11.989
73815ION    NA+45431  18.751  31.361  11.270
73816ION    NA+45432  15.411  42.960   3.060
73817ION    NA+45433  18.018  28.494  14.421
73818ION    NA+45434  26.722  14.736   4.045
73819ION    NA+45435  40.521  10.984  13.357
73820ION    NA+45436  20.226  40.496   0.470
73821ION    NA+45437  27.673  29.463  12.011
73822ION    NA+45438  15.121   2.373   4.374
73823ION    NA+45439   9.635  29.235  11.162
73824ION    NA+45440  20.777  30.929  13.132
73825ION    NA+45441  28.380  33.016   0.214
73826ION    NA+45442  15.880   6.804   3.736
73827ION    NA+45443  17.369   5.557   0.677
73828ION    NA+45444  25.085  31.508   0.993
73829ION    NA+45445  30.561  26.728  11.501
73830ION    NA+45446  24.744  44.852   4.121
73831ION    NA+45447   7.271  42.893   2.081
73832ION    NA+45448  38.496  37.868   3.962
73833ION    NA+45449  25.909  35.800   4.286
73834ION    NA+45450  32.027  44.063   0.230
73835ION    NA+45451  32.416   2.974   2.685
73836ION    NA+45452  19.643  12.648  14.844
73837ION    NA+45453  29.808  13.772   1.737
73838ION    NA+45454  10.205  39.186  11.574
73839ION    NA+45455  33.419  13.041  13.233
73840ION    NA+45456   2.560  14.078   1.316
73841ION    NA+45457   9.916   1.323   0.941
73842ION    NA+45458  14.048  20.867   0.367
73843ION    NA+45459  43.762  30.114  12.989
73844ION    NA+45460  11.088   5.670   3.438
73845ION    NA+45461  27.708  35.551   2.614
73846ION    NA+45462  28.544  22.788  11.184
73847ION    NA+45463  28.166   0.528   3.018
73848ION    NA+45464  35.011  34.993   3.899
73849ION    NA+45465  14.333  23.722  10.218
73850ION    NA+45466  19.179  28.586  13.944
73851ION    NA+45467   7.832   0.513  11.075
73852ION    NA+45468   5.290  10.679  12.448
73853ION    NA+45469  38.966  36.087  12.739
73854ION    NA+45470  39.408  12.772   5.036
73855ION    NA+45471  12.228  27.607   4.685
73856ION    NA+45472  12.861  22.690  12.363
73857ION    NA+45473  44.750  28.185   4.070
73858ION    NA+45474  41.901   5.737  13.601
73859ION    NA+45475  21.428  40.381  11.288
73860ION    NA+45476  39.265   5.344   2.570
73861ION    NA+45477  39.150  33.324  11.402
73862ION    NA+45478  28.720   5.087   2.479
73863ION    NA+45479  27.067  20.126   2.347
73864ION    NA+45480  35.024  42.296   4.377
73865ION    NA+45481  40.791  10.209   3.076
73866ION    NA+45482   0.086   9.885   0.994
73867ION    NA+45483  44.527  41.857   2.426
73868ION    NA+45484  24.105  12.971  11.313
73869ION    NA+45485  33.940  32.465  11.895
73870ION    NA+45486  27.304  13.247   0.064
73871ION    NA+45487  16.555  18.901  10.855
73872ION    NA+45488  11.282  39.824  13.568
73873ION    NA+45489  20.293  40.543  14.399
73874ION    NA+45490   6.738  21.089   4.200
73875ION    NA+45491  23.189  38.494   4.433
73876ION    NA+45492  10.489   7.822  10.833
73877ION    NA+45493   6.459  44.400   4.278
73878ION    NA+45494  37.846  19.315  12.714
73879ION    NA+45495   6.211  40.485   4.631
73880ION    NA+45496   3.178  14.543   1.703
73881ION    NA+45497  44.358  27.899   3.196
73882ION    NA+45498  20.750  24.967   2.289
73883ION    NA+45499  13.641  24.525  11.151
73884ION    NA+45500   3.846   0.729   1.041
73885ION    NA+45501  39.903   1.767  11.052
73886ION    NA+45502  17.761  14.277  11.565
73887ION    NA+45503  39.856  33.679  11.093
73888ION    NA+45504  34.602  15.460  14.342
73889ION    NA+45505  31.385  37.200   0.983
73890ION    NA+45506  19.745  35.636   1.818
73891ION    NA+45507   8.658   8.793   2.667
73892ION    NA+45508   5.387   4.632  13.237
73893ION    NA+45509  24.403   6.694   3.046
73894ION    NA+45510  25.234  42.003   4.147
73895ION    NA+45511  33.295  33.537  14.537
73896ION    NA+45512  13.448  40.169  14.444
73897ION    NA+45513  38.632  30.191   2.296
73898ION    NA+45514  26.920  36.826   1.749
73899ION    NA+45515   1.870  17.833   0.001
73900ION    NA+45516  16.733  25.935  11.470
73901ION    NA+45517  41.226  14.016  14.592
73902ION    NA+45518  42.880   3.939   2.948
73903ION    NA+45519  29.827  39.792   3.555
73904ION    NA+45520  17.131   7.886  13.816
73905ION    NA+45521  27.855  36.832  12.789
73906ION    NA+45522  14.705   6.433   2.915
73907ION    NA+45523   1.713  43.251   2.682
73908ION    NA+45524  44.265   6.553  11.025
73909ION    NA+45525  21.747  39.638  13.896
73910ION    NA+45526  39.196   3.913   3.108
73911ION    NA+45527  14.827  32.137   1.431
73912ION    NA+45528  28.664  27.241   0.418
73913ION    NA+45529  34.428  20.773   2.509
73914ION    NA+45530  20.073  10.993   1.034
73915ION    NA+45531  25.219  29.220  13.062
73916ION    NA+45532   5.835   0.838   0.920
73917ION    NA+45533  24.794  38.831   0.459
73918ION    NA+45534  29.703   8.739   0.839
73919ION    NA+45535  37.421   9.398   3.351
73920ION    NA+45536   2.863  10.783  11.458
73921ION    NA+45537  35.482  32.081   2.130
73922ION    NA+45538  41.834  40.641  14.144
73923ION    NA+45539   8.073  30.462  12.414
73924ION    NA+45540  27.084  24.380  11.083
73925ION    NA+45541  23.291  17.703   0.739
73926ION    NA+45542   5.908  21.933  12.168
73927ION    NA+45543  36.122  38.544  12.388
73928ION    NA+45544  10.649  13.764  14.454
73929ION    NA+45545  23.647  36.279   1.333
73930ION    NA+45546  13.559  14.355   4.259
73931ION    NA+45547  39.460  35.934   5.341
73932ION    NA+45548   5.240   4.772  14.121
73933ION    NA+45549   8.799  25.585   3.164
73934ION    NA+45550  15.950   6.433  13.605
73935ION    NA+45551  44.377  19.264  13.835
73936ION    NA+45552  30.507  19.744   4.789
73937ION    NA+45553   8.331  22.593  12.113
73938ION    NA+45554  43.944  14.456  14.250
73939ION    NA+45555  39.849  28.058   4.343
73940ION    NA+45556   0.328  13.073   3.122
73941ION    NA+45557  31.496  21.312   2.036
73942ION    NA+45558   1.931   4.673  14.424
73943ION    NA+45559  12.127  26.588  12.158
73944ION    NA+45560  14.357  37.801   0.862
73945ION    NA+45561  20.443  25.820   2.711
73946ION    NA+45562  40.946   9.669   3.903
73947ION    NA+45563  18.754  13.255   9.761
73948ION    NA+45564  41.376   4.374  14.247
73949ION    NA+45565  33.081  32.809  10.619
73950ION    NA+45566  21.322   8.320   4.370
73951ION    NA+45567   1.675  34.187   2.250
73952ION    NA+45568  36.450  44.692  11.792
73953ION    NA+45569   9.351  31.454  12.347
73954ION    NA+45570  43.477  16.108  11.878
73955ION    NA+45571  38.448   1.218   0.901
73956ION    NA+45572  27.103  37.673   3.875
73957ION    NA+45573   3.811   0.009  13.701
73958ION    NA+45574  21.546   4.520  12.821
73959ION    NA+45575   7.404  28.871  10.714
73960ION    NA+45576  42.326  29.903   3.284
73961ION    NA+45577  11.833  14.422  11.598
73962ION    NA+45578  17.441  28.391  11.252
73963ION    NA+45579  22.815  26.587  10.652
73964ION    NA+45580  30.575   4.134  13.684
73965ION    NA+45581  36.084   1.788  14.457
73966ION    NA+45582  31.733   6.113   1.830
73967ION    NA+45583  43.385  38.052   2.804
73968ION    NA+45584  38.858  39.962  10.725
73969ION    NA+45585  23.647  42.517   4.267
73970ION    NA+45586  43.496   1.249  13.033
73971ION    NA+45587   0.818  42.451  14.650
73972ION    NA+45588  23.626   0.377   3.521
73973ION    NA+45589  15.344  35.796   3.967
73974ION    NA+45590  32.388  33.650   4.179
73975ION    NA+45591  42.515   2.919   2.312
73976ION    NA+45592  16.596  12.410  11.223
73977ION    NA+45593  31.017  14.979   2.052
73978ION    NA+45594   8.272   5.865   4.703
73979ION    NA+45595  27.382  14.638   0.254
73980ION    NA+45596  21.119  30.689  10.971
73981ION    NA+45597   5.909  27.092   4.229
73982ION    NA+45598  27.435  30.659   3.828
73983ION    NA+45599  38.248  19.027   2.460
73984ION    NA+45600   9.534  18.709  11.107
73985ION    NA+45601  38.171   7.036  12.462
73986ION    NA+45602  30.115  37.532  14.584
73987ION    NA+45603  44.956  22.603   1.494
73988ION    NA+45604  40.924  40.303  11.120
73989ION    NA+45605  15.618   0.363   3.117
73990ION    NA+45606  38.042  44.797   0.897
73991ION    NA+45607  44.223  11.450  10.630
73992ION    NA+45608   7.534  35.719   3.292
73993ION    NA+45609  21.157  39.016   1.890
73994ION    NA+45610  44.191   3.255   4.984
73995ION    NA+45611  34.657  13.587  13.554
73996ION    NA+45612  37.354  19.961  14.705
73997ION    NA+45613   7.266  29.783   5.010
73998ION    NA+45614   7.257  11.569  12.508
73999ION    NA+45615  40.711  22.303   3.931
74000ION    NA+45616  14.135  44.429  11.926
74001ION    NA+45617   2.689  31.561  14.949
74002ION    NA+45618  40.619   9.217   4.733
74003ION    NA+45619  36.916  33.933   3.265
74004ION    NA+45620  20.125  41.373   3.999
74005ION    NA+45621  37.974  26.260   0.439
74006ION    NA+45622  31.021   1.896   0.230
74007ION    NA+45623  34.326  23.440  11.684
74008ION    NA+45624  11.954  34.904   1.261
74009ION    NA+45625  16.536   6.310  10.870
74010ION    NA+45626  32.184  30.557   0.958
74011ION    NA+45627  13.899  28.013   3.196
74012ION    NA+45628  40.028  33.924   3.856
74013ION    NA+45629  12.810  19.325  13.872
74014ION    NA+45630   8.756  32.114   4.193
74015ION    NA+45631  13.767  40.750  12.771
74016ION    NA+45632  20.712  34.746  14.621
74017ION    NA+45633  22.010  10.313  12.424
74018ION    NA+45634  35.078  40.439   2.278
74019ION    NA+45635   9.953  23.540   0.679
74020ION    NA+45636  29.037  24.230   0.531
74021ION    NA+45637  15.249  26.434   1.723
74022ION    NA+45638  39.990  10.569  11.600
74023ION    NA+45639   5.644   3.795  11.355
74024ION    NA+45640  21.502  12.741  12.114
74025ION    NA+45641   4.382  10.181  11.042
74026ION    NA+45642   9.365   5.811   3.904
74027ION    NA+45643   4.644   5.409  14.930
74028ION    NA+45644  11.079  27.500  12.621
74029ION    NA+45645  28.537  40.248   2.595
74030ION    NA+45646  41.326  35.325  14.604
74031ION    NA+45647  25.238  42.771   1.750
74032ION    NA+45648   5.418   9.161   4.128
74033ION    NA+45649  10.665  20.591  12.384
74034ION    NA+45650  36.156  36.504  14.100
74035ION    NA+45651  34.102  37.961  13.525
74036ION    NA+45652  44.229  31.869  10.698
74037ION    NA+45653   9.722  34.944  14.465
74038ION    NA+45654  33.890   2.862  11.266
74039ION    NA+45655  13.166  41.240   3.954
74040ION    NA+45656   1.500  10.714   1.016
74041ION    NA+45657  28.741  43.056   2.155
74042ION    NA+45658  24.241  10.932   3.034
74043ION    NA+45659   1.809  32.953  11.612
74044ION    NA+45660  36.271  14.459   4.530
74045ION    NA+45661  41.112  40.799   0.109
74046ION    NA+45662  40.495  17.164  12.533
74047ION    NA+45663  11.351  10.957   3.578
74048ION    NA+45664  34.633  37.134  11.614
74049ION    NA+45665   6.340  29.495   1.851
74050ION    NA+45666  43.097  27.881   1.389
74051ION    NA+45667  39.370  29.048   3.931
74052ION    NA+45668  42.689  16.843   5.065
74053ION    NA+45669  17.288  40.558   3.296
74054ION    NA+45670  12.720  24.363  14.574
74055ION    NA+45671  24.151  28.355  14.472
74056ION    NA+45672  39.404  30.411  11.663
74057ION    NA+45673  29.090   7.668   0.194
74058ION    NA+45674  34.204  31.500  13.208
74059ION    NA+45675  28.941   2.258   4.643
74060ION    NA+45676  14.415  21.086   2.901
74061ION    NA+45677  16.357   4.797  12.384
74062ION    NA+45678  19.675  16.142   3.744
74063ION    NA+45679  27.477  10.797  13.256
74064ION    NA+45680  14.331  33.029   9.781
74065ION    NA+45681   1.313  34.402  14.939
74066ION    NA+45682  28.519  10.554   3.680
74067ION    NA+45683  44.266  23.783   4.078
74068ION    NA+45684   5.600  19.592   4.145
74069ION    NA+45685   5.054  17.154  13.949
74070ION    NA+45686   2.710  11.263   1.962
74071ION    NA+45687  37.452  25.336  11.485
74072ION    NA+45688  13.715  22.902  10.498
74073ION    NA+45689  17.130  42.052   2.169
74074ION    NA+45690  23.971   2.614  11.456
74075ION    NA+45691  22.231  24.429  11.682
74076ION    NA+45692   5.049  33.107   2.358
74077ION    NA+45693  29.724   4.468   5.171
74078ION    NA+45694  41.228   1.700   2.580
74079ION    NA+45695  23.154  13.429  11.155
74080ION    NA+45696  23.548  33.664  14.385
74081ION    NA+45697  10.476  27.780   2.202
74082ION    NA+45698  23.412   8.859  10.627
74083ION    NA+45699  29.646  34.584  11.060
74084ION    NA+45700  37.448   0.231   0.219
74085ION    NA+45701  41.418  24.566  13.107
74086ION    NA+45702  19.551  10.127  14.724
74087ION    NA+45703  27.244  43.238  13.672
74088ION    NA+45704  14.227  13.925  11.652
74089ION    NA+45705  26.770  28.573  10.550
74090ION    NA+45706  11.781  42.038  14.393
74091ION    NA+45707  12.506  39.114  12.726
74092ION    NA+45708   2.452  41.399   5.415
74093ION    NA+45709  21.150  31.993  13.123
74094ION    NA+45710  34.972  40.368   3.673
74095ION    NA+45711   7.293  35.459   2.526
74096ION    NA+45712  15.773  17.735   0.941
74097ION    NA+45713   5.615  40.232   1.635
74098ION    NA+45714  35.706  26.442  14.014
74099ION    NA+45715   3.440  20.003  14.528
74100ION    NA+45716  38.042  27.671  13.567
74101ION    NA+45717  18.284  27.016   1.410
74102ION    NA+45718   7.457  37.643   4.586
74103ION    NA+45719  25.585  10.996  14.457
74104ION    NA+45720   7.821  40.795  11.282
74105ION    NA+45721  42.049  42.354  14.849
74106ION    NA+45722  34.765  32.603  12.568
74107ION    NA+45723   7.244  27.383   4.154
74108ION    NA+45724   6.164   8.797   2.390
74109ION    NA+45725  24.750  31.939  14.126
74110ION    NA+45726  18.501   1.722  14.303
74111ION    NA+45727   5.193   6.749  14.474
74112ION    NA+45728  10.244   4.625  12.029
74113ION    NA+45729   7.279  21.479   4.945
74114ION    NA+45730   6.931  32.127  13.251
74115ION    NA+45731   2.860  39.248  13.505
74116ION    NA+45732  37.112  42.971   0.092
74117ION    NA+45733  24.810  23.001  10.853
74118ION    NA+45734  13.600  29.928  14.733
74119ION    NA+45735  40.423  28.660  10.878
74120ION    NA+45736  18.705  44.052  10.641
74121ION    NA+45737  18.586  31.904   4.422
74122ION    NA+45738   6.932   5.656   0.570
74123ION    NA+45739  38.012  17.996  14.322
74124ION    NA+45740  24.809  44.622   0.936
74125ION    NA+45741  43.521  28.066  12.829
74126ION    NA+45742  38.714  42.945   4.277
74127ION    NA+45743  26.953  24.441  14.477
74128ION    NA+45744  44.785  12.340  14.050
74129ION    NA+45745  35.624  25.014   3.242
74130ION    NA+45746  40.036  12.179   0.921
74131ION    NA+45747  33.849   9.072   2.707
74132ION    NA+45748  21.857   2.501   3.905
74133ION    NA+45749   0.822  26.684  10.558
74134ION    NA+45750  30.222  36.129   3.299
74135ION    NA+45751  38.743  24.078   3.525
74136ION    NA+45752  10.864  33.221   3.623
74137ION    NA+45753  11.238  42.970  10.244
74138ION    NA+45754   2.783  15.292  11.126
74139ION    NA+45755   2.152  26.487  12.867
74140ION    NA+45756  31.895  44.578   3.794
74141ION    NA+45757   0.567   7.596   3.151
74142ION    NA+45758  18.675  21.284  10.781
74143ION    NA+45759  35.681  36.943  12.001
74144ION    NA+45760  27.265  27.762  13.749
74145ION    NA+45761   0.751  39.241  11.055
74146ION    NA+45762  41.643   0.710   1.430
74147ION    NA+45763   4.926  33.640   1.446
74148ION    NA+45764  44.234  35.913  14.302
74149ION    NA+45765   7.659  17.855   1.075
74150ION    NA+45766  16.158  16.195   5.474
74151ION    NA+45767  43.430  15.371   0.249
74152ION    NA+45768  39.606  21.099  11.720
74153ION    NA+45769  11.943   1.196   5.100
74154ION    NA+45770   8.856  23.836   2.620
74155ION    NA+45771   0.741  14.666  14.989
74156ION    NA+45772   7.861  37.387  11.605
74157ION    NA+45773  22.081  29.371  11.944
74158ION    NA+45774  34.293   2.386  13.183
74159ION    NA+45775   5.851  42.325  12.939
74160ION    NA+45776  41.602  41.049   3.088
74161ION    NA+45777  21.004  28.668  11.772
74162ION    NA+45778  12.793  11.921   3.606
74163ION    NA+45779  23.647   1.291   4.673
74164ION    NA+45780  14.021  22.386   5.187
74165ION    NA+45781  28.832  39.362  13.784
74166ION    NA+45782  13.793  35.601   0.073
74167ION    NA+45783  39.686  37.463   5.119
74168ION    NA+45784  23.524  26.837   2.627
74169ION    NA+45785   1.265  14.623   4.079
74170ION    NA+45786   0.798  22.019   3.694
74171ION    NA+45787  15.114  11.587   3.103
74172ION    NA+45788  42.657  30.910   2.636
74173ION    NA+45789  18.381   3.254  10.594
74174ION    NA+45790  38.004  12.798   4.199
74175ION    NA+45791   5.618   4.121   4.405
74176ION    NA+45792   4.168  37.605   2.700
74177ION    NA+45793   1.781  15.714   1.258
74178ION    NA+45794  38.918  12.587   3.203
74179ION    NA+45795  25.210  23.664   0.759
74180ION    NA+45796  32.545  41.371  11.243
74181ION    NA+45797   9.667  27.472   4.153
74182ION    NA+45798  29.988  22.444   0.860
74183ION    NA+45799  11.302  18.003  11.486
74184ION    NA+45800  38.921   3.020   0.137
74185ION    NA+45801  39.558  23.002  12.538
74186ION    NA+45802  30.722  17.781  11.322
74187ION    NA+45803   8.941  24.766   1.359
74188ION    NA+45804  40.797  32.112   9.733
74189ION    NA+45805  44.431   5.724  10.783
74190ION    NA+45806  22.360   1.592   4.628
74191ION    NA+45807  39.098  22.634   3.268
74192ION    NA+45808  37.723   8.940  10.999
74193ION    NA+45809   6.886  20.965  14.929
74194ION    NA+45810  10.866   0.296  12.782
74195ION    NA+45811  37.073  26.419   0.410
74196ION    NA+45812  34.909   4.152   3.716
74197ION    NA+45813  17.760  42.147   5.008
74198ION    NA+45814  32.904  13.037   4.180
74199ION    NA+45815  17.296  10.049   4.051
74200ION    NA+45816  37.312  16.871   3.073
74201ION    NA+45817   6.390  16.795  12.844
74202ION    NA+45818  43.182  23.443  12.338
74203ION    NA+45819  27.749  14.704   3.943
74204ION    NA+45820   0.793  28.387   4.884
74205ION    NA+45821   0.898  21.728   1.357
74206ION    NA+45822  44.487  31.910   2.560
74207ION    NA+45823  35.307   6.925   2.971
74208ION    NA+45824  14.923  19.066   4.226
74209ION    NA+45825  12.234   0.113   1.356
74210ION    NA+45826  31.700  21.819   3.054
74211ION    NA+45827  10.390  30.429  11.149
74212ION    NA+45828  22.753  11.686   3.535
74213ION    NA+45829  19.838  24.738   4.650
74214ION    NA+45830  19.005  37.847  11.352
74215ION    NA+45831  11.081  29.509   0.158
74216ION    NA+45832  23.157  17.340  14.437
74217ION    NA+45833  36.768  28.204   3.237
74218ION    NA+45834  25.920  29.441   4.125
74219ION    NA+45835  24.768  28.897   1.397
74220ION    NA+45836  33.411  14.357   3.108
74221ION    NA+45837  40.134  12.682  13.063
74222ION    NA+45838  36.818  19.469   0.391
74223ION    NA+45839  33.988  38.009   0.423
74224ION    NA+45840   0.402  31.477  12.983
74225ION    NA+45841   8.980  26.015  11.212
74226ION    NA+45842  39.729  43.694  11.953
74227ION    NA+45843  10.415   2.772  12.186
74228ION    NA+45844  15.142  27.424  13.572
74229ION    NA+45845  24.383  28.224   3.255
74230ION    NA+45846  13.058  10.428   0.234
74231ION    NA+45847   8.918  43.476   0.595
74232ION    NA+45848  23.522  19.277  13.296
74233ION    NA+45849  28.136  44.281   0.829
74234ION    NA+45850   1.560  39.664  11.116
74235ION    NA+45851  30.378  33.915   1.712
74236ION    NA+45852  41.270  28.299   4.501
74237ION    NA+45853  24.660  21.442  14.294
74238ION    NA+45854  20.886  27.370  12.374
74239ION    NA+45855   0.814  23.779  12.812
74240ION    NA+45856  34.431  20.458   0.476
74241ION    NA+45857  31.031   5.230  14.638
74242ION    NA+45858  38.133  26.754  10.600
74243ION    NA+45859  27.590  14.252  12.915
74244ION    NA+45860  29.906  10.078   3.759
74245ION    NA+45861  36.194  11.161   2.808
74246ION    NA+45862  38.875  14.291   1.370
74247ION    NA+45863   7.191  41.416  14.236
74248ION    NA+45864  27.452  39.227  11.920
74249ION    NA+45865  31.625  23.259   2.352
74250ION    NA+45866  37.716  38.255   4.262
74251ION    NA+45867  19.783   5.642   4.630
74252ION    NA+45868  27.205  17.322   4.231
74253ION    NA+45869  31.153  25.584  14.121
74254ION    NA+45870   1.013  12.105   0.330
74255ION    NA+45871  26.056   6.299   3.363
74256ION    NA+45872  16.049  25.049   1.879
74257ION    NA+45873  21.685  44.445  14.753
74258ION    NA+45874  23.824  31.612   1.298
74259ION    NA+45875  27.588  10.726   3.358
74260ION    NA+45876   9.172  21.696  14.607
74261ION    NA+45877  23.770  22.777   2.334
74262ION    NA+45878  42.759  32.149   1.814
74263ION    NA+45879  13.155  41.353   5.315
74264ION    NA+45880   8.176  11.491   5.207
74265ION    NA+45881   6.499  34.227  11.694
74266ION    NA+45882  23.639  29.317   4.868
74267ION    NA+45883  13.592  21.619   2.704
74268ION    NA+45884  31.239  22.062  11.527
74269ION    NA+45885  23.572  17.960   3.657
74270ION    NA+45886  35.339   7.888  14.913
74271ION    NA+45887  15.854  36.995  11.442
74272ION    NA+45888   6.316  26.921   2.597
74273ION    NA+45889  31.262  30.257   0.089
74274ION    NA+45890  14.331  15.887  13.667
74275ION    NA+45891   5.223   8.192  13.772
74276ION    NA+45892  40.294  19.677   0.504
74277ION    NA+45893   3.685  30.394   1.032
74278ION    NA+45894   7.402  28.375   5.009
74279ION    NA+45895  28.451  27.273   3.921
74280ION    NA+45896   7.634  39.476  13.525
74281ION    NA+45897   2.095  37.486  12.951
74282ION    NA+45898  29.030  44.335   0.382
74283ION    NA+45899  17.875   6.206  14.304
74284ION    NA+45900   6.276   6.438   4.457
74285ION    NA+45901  38.717  25.277   4.632
74286ION    NA+45902  41.681   3.441   2.131
74287ION    NA+45903  40.100  41.946   0.511
74288ION    NA+45904  28.983  18.762  11.951
74289ION    NA+45905  36.209   8.116   2.774
74290ION    NA+45906  20.280  10.159   0.408
74291ION    NA+45907  39.279  32.150   0.734
74292ION    NA+45908  20.303  12.546  13.565
74293ION    NA+45909  21.477   6.412  10.934
74294ION    NA+45910  40.251   9.691  13.456
74295ION    NA+45911  44.674  41.279   4.048
74296ION    NA+45912  10.734  24.324   3.612
74297ION    NA+45913  12.907  26.143  12.326
74298ION    NA+45914   9.576  16.919   0.821
74299ION    NA+45915  43.143  37.883  12.721
74300ION    NA+45916  33.928  43.869   4.757
74301ION    NA+45917  26.583   7.113   0.451
74302ION    NA+45918   9.636  36.322  10.999
74303ION    NA+45919  38.459  19.088  10.529
74304ION    NA+45920  38.430  24.528  11.511
74305ION    NA+45921   7.134   9.095   0.045
74306ION    NA+45922  43.238  37.839   4.563
74307ION    NA+45923  20.113  18.756   0.636
74308ION    NA+45924  23.209  37.698   3.142
74309ION    NA+45925   8.557  37.296  14.528
74310ION    NA+45926  19.244   6.789  13.097
74311ION    NA+45927  16.858  34.050   0.877
74312ION    NA+45928  44.771   4.161  13.494
74313ION    NA+45929  12.685   7.077   4.342
74314ION    NA+45930  38.213   8.238   1.467
74315ION    NA+45931  17.470   3.314   3.602
74316ION    NA+45932   5.304  24.561   3.395
74317ION    NA+45933   1.433  21.265   0.351
74318ION    NA+45934  22.796  14.775  11.569
74319ION    NA+45935   2.396   4.723  11.983
74320ION    NA+45936  20.014  17.122  12.458
74321ION    NA+45937  34.917  38.958  10.979
74322ION    NA+45938  24.174  39.126   1.186
74323ION    NA+45939   7.864  34.812   9.792
74324ION    NA+45940  21.882  29.387  13.034
74325ION    NA+45941   0.178  41.781  11.013
74326ION    NA+45942  12.920  15.389   3.396
74327ION    NA+45943   6.888  23.642  12.904
74328ION    NA+45944  12.543  27.058  13.589
74329ION    NA+45945   0.189  23.022  13.523
74330ION    NA+45946   2.601  40.991   4.986
74331ION    NA+45947   1.238  42.783   3.437
74332ION    NA+45948  35.782   6.145  14.105
74333ION    NA+45949  19.884  28.614   0.660
74334ION    NA+45950  14.470  22.924   9.843
74335ION    NA+45951  10.597  18.788  12.949
74336ION    NA+45952  41.615   5.216   3.961
74337ION    NA+45953  11.310  44.259   2.204
74338ION    NA+45954  10.998   1.012  13.282
74339ION    NA+45955  22.830  18.344   4.049
74340ION    NA+45956  13.883  10.585   1.331
74341ION    NA+45957  17.455  35.893   4.588
74342ION    NA+45958   5.771  37.565  12.999
74343ION    NA+45959  44.003  25.843  11.770
74344ION    NA+45960   8.690  13.783   0.998
74345ION    NA+45961  33.467  19.509  13.645
74346ION    NA+45962  12.806  36.207  10.659
74347ION    NA+45963  30.260  12.488   4.980
74348ION    NA+45964   6.487  35.151  14.880
74349ION    NA+45965  10.258  26.204  12.543
74350ION    NA+45966   3.605   5.454  14.763
74351ION    NA+45967  17.985  29.970   0.572
74352ION    NA+45968  18.072  33.441   2.828
74353ION    NA+45969  44.219  31.822   1.693
74354ION    NA+45970  10.752  26.878  14.344
74355ION    NA+45971  43.965   5.192   3.559
74356ION    NA+45972  37.146  10.986  13.382
74357ION    NA+45973   5.014  18.716   1.781
74358ION    NA+45974  41.470  12.874  12.061
74359ION    NA+45975  21.922  26.910  11.400
74360ION    NA+45976  40.623  20.390  12.784
74361ION    NA+45977   5.844   9.834  10.657
74362ION    NA+45978  17.008  11.620  11.180
74363ION    NA+45979  30.600  18.404  10.672
74364ION    NA+45980   5.624  27.789   2.713
74365ION    NA+45981  35.993  39.314   4.393
74366ION    NA+45982   1.941  44.184   3.064
74367ION    NA+45983  37.031   6.860   3.857
74368ION    NA+45984  27.444  27.126   1.804
74369ION    NA+45985  31.397  26.066   2.317
74370ION    NA+45986  26.046  29.958  10.760
74371ION    NA+45987  41.927  12.646   3.121
74372ION    NA+45988   2.736  28.930  13.471
74373ION    NA+45989  10.126  23.985   2.703
74374ION    NA+45990  12.847  38.012   2.809
74375ION    NA+45991  11.421  34.095   1.012
74376ION    NA+45992   8.263  32.092  13.615
74377ION    NA+45993   5.582   8.051  11.858
74378ION    NA+45994  28.079  33.100  11.062
74379ION    NA+45995   8.679  12.189  12.735
74380ION    NA+45996  15.597  28.591  10.956
74381ION    NA+45997  34.777  11.892  11.970
74382ION    NA+45998  16.202   0.455  13.990
74383ION    NA+45999  34.438  17.269   0.370
74384ION    NA+46000   3.104  35.733   1.264
74385ION    NA+46001  38.524   1.854  13.609
74386ION    NA+46002  16.248  40.248   2.680
74387ION    NA+46003  37.185   5.836  12.083
74388ION    NA+46004  38.939  26.057   3.926
74389ION    NA+46005  38.809  35.142  13.705
74390ION    NA+46006  28.840   8.600   3.961
74391ION    NA+46007  23.353  28.070   3.245
74392ION    NA+46008  13.693  24.907   4.038
74393ION    NA+46009   4.755   1.046   9.659
74394ION    NA+46010  10.310   1.232  14.893
74395ION    NA+46011  39.758  37.945   1.807
74396ION    NA+46012  35.765  23.128  10.880
74397ION    NA+46013  11.734  34.022  14.082
74398ION    NA+46014  29.727  24.808   0.829
74399ION    NA+46015  17.479   4.615   0.992
74400ION    NA+46016  39.347  30.860   4.188
74401ION    NA+46017  39.794  39.448  14.364
74402ION    NA+46018   0.756   5.603  14.132
74403ION    NA+46019  40.935  23.410   2.480
74404ION    NA+46020   6.926   7.688   2.166
74405ION    NA+46021  36.299  28.982  10.884
74406ION    NA+46022   5.138  14.984   4.665
74407ION    NA+46023  40.443  12.075  13.796
74408ION    NA+46024  17.957  35.029  14.015
74409ION    NA+46025   5.546   0.397   2.655
74410ION    NA+46026  14.262  12.657   0.417
74411ION    NA+46027  44.733  20.281  11.645
74412ION    NA+46028   1.444  26.114   0.871
74413ION    NA+46029  37.522  19.969  11.729
74414ION    NA+46030  42.878  16.540   4.044
74415ION    NA+46031  40.766   4.973   3.279
74416ION    NA+46032  13.203  41.484  12.392
74417ION    NA+46033  14.450   8.371   0.726
74418ION    NA+46034  24.003  18.837  10.966
74419ION    NA+46035  38.910  29.524  12.713
74420ION    NA+46036  44.889  43.556   0.006
74421ION    NA+46037  41.393  42.987   0.580
74422ION    NA+46038  42.997  35.621  12.382
74423ION    NA+46039  20.608  36.468  14.225
74424ION    NA+46040   6.921   1.755   0.993
74425ION    NA+46041  30.373  24.885   5.042
74426ION    NA+46042  24.786  13.302  10.651
74427ION    NA+46043   4.548  32.166   0.081
74428ION    NA+46044  30.468  33.959  13.629
74429ION    NA+46045  32.633   6.547   1.818
74430ION    NA+46046  30.565   5.985   0.110
74431ION    NA+46047  34.508   9.888   0.717
74432ION    NA+46048  24.864  36.359   1.136
74433ION    NA+46049  28.086  33.946  11.596
74434ION    NA+46050  20.254  38.306  12.801
74435ION    NA+46051   4.572  25.604  12.662
74436ION    NA+46052  13.156  21.263  14.588
74437ION    NA+46053  36.467   4.741  11.772
74438ION    NA+46054   0.289  15.328   0.489
74439ION    NA+46055   1.668  39.106   1.133
74440ION    NA+46056  33.351  28.605   5.356
74441ION    NA+46057   8.244  32.851   2.439
74442ION    NA+46058  42.799  28.777   1.719
74443ION    NA+46059  12.689   5.901   1.447
74444ION    NA+46060  40.064  28.488   3.373
74445ION    NA+46061  18.180  43.678   3.151
74446ION    NA+46062  38.219   6.435   4.282
74447ION    NA+46063  34.007  29.194   0.714
74448ION    NA+46064  17.585  27.076   4.359
74449ION    NA+46065  43.440  21.751  11.083
74450ION    NA+46066  25.755  21.194  13.394
74451ION    NA+46067   3.783  27.292  13.691
74452ION    NA+46068  10.249   9.129  12.474
74453ION    NA+46069  14.156   5.134   4.126
74454ION    NA+46070  20.929  32.604   3.980
74455ION    NA+46071  23.348   3.199  11.276
74456ION    NA+46072  43.607  26.156   0.943
74457ION    NA+46073  23.722   3.217  14.055
74458ION    NA+46074  20.325  18.719   4.111
74459ION    NA+46075  25.345   2.308   1.798
74460ION    NA+46076  20.694  29.119   3.870
74461ION    NA+46077   3.282   6.432   2.445
74462ION    NA+46078  26.645  32.539  10.305
74463ION    NA+46079  31.446   2.347  12.052
74464ION    NA+46080  22.274   6.417  11.537
74465ION    NA+46081  15.179  32.653  12.398
74466ION    NA+46082  10.710  40.840  12.346
74467ION    NA+46083  16.530   8.069   1.851
74468ION    NA+46084  18.477  33.077  13.567
74469ION    NA+46085  42.036  20.476   3.848
74470ION    NA+46086   7.680  24.964  12.034
74471ION    NA+46087  43.790  33.261   3.688
74472ION    NA+46088   1.220  12.186  12.673
74473ION    NA+46089  20.407  34.564   2.996
74474ION    NA+46090   6.635  30.532   0.051
74475ION    NA+46091  16.899  21.622  11.323
74476ION    NA+46092  26.288   2.601   2.012
74477ION    NA+46093  33.521   3.069  13.551
74478ION    NA+46094  11.519  15.814   9.954
74479ION    NA+46095  30.450   8.335   4.885
74480ION    NA+46096  42.149  42.068   3.845
74481ION    NA+46097  30.295  28.373  13.816
74482ION    NA+46098   5.587   2.773   3.516
74483ION    NA+46099  20.769  30.503  14.789
74484ION    NA+46100   1.286   0.231   4.067
74485ION    NA+46101  11.135  24.028  11.636
74486ION    NA+46102  23.929  10.495   3.908
74487ION    NA+46103  34.803  38.669   3.092
74488ION    NA+46104   1.432  32.350   2.378
74489ION    NA+46105  21.280   5.506  11.876
74490ION    NA+46106  19.070  38.725   4.443
74491ION    NA+46107  35.483   7.936   3.263
74492ION    NA+46108   9.606  41.468   0.840
74493ION    NA+46109  11.446  22.741   0.726
74494ION    NA+46110   0.463  27.127   0.157
74495ION    NA+46111   6.353  20.257   3.352
74496ION    NA+46112  13.196  37.282  10.973
74497ION    NA+46113   6.142  24.937   3.790
74498ION    NA+46114  11.349  10.129   1.372
74499ION    NA+46115  19.728   2.930  11.470
74500ION    NA+46116  29.366  36.779   2.696
74501ION    NA+46117  39.399  11.834   2.754
74502ION    NA+46118  16.588  28.692  11.043
74503ION    NA+46119  12.599  12.002   4.494
74504ION    NA+46120  13.656   7.175  10.794
74505ION    NA+46121  36.833   8.013  11.279
74506ION    NA+46122   8.763  40.027  14.861
74507ION    NA+46123  27.611  19.101   0.448
74508ION    NA+46124  10.904  10.637  14.845
74509ION    NA+46125  21.728  36.538  14.900
74510ION    NA+46126  25.049  28.556   4.633
74511ION    NA+46127  36.883  11.537   2.388
74512ION    NA+46128  38.103  10.834  11.643
74513ION    NA+46129  26.481  42.323  11.121
74514ION    NA+46130  30.090  21.180  11.413
74515ION    NA+46131  16.784  14.764   3.641
74516ION    NA+46132  15.689  31.297   2.939
74517ION    NA+46133  10.602  16.577   3.253
74518ION    NA+46134  29.442  13.930   5.481
74519ION    NA+46135  44.760   2.932   1.176
74520ION    NA+46136  23.496   2.066   3.349
74521ION    NA+46137  19.860  19.817   3.417
74522ION    NA+46138  28.283  30.526   1.976
74523ION    NA+46139  28.952  29.205  12.092
74524ION    NA+46140  23.804   7.377  11.731
74525ION    NA+46141  37.017  23.935   0.989
74526ION    NA+46142  15.177  20.107  12.180
74527ION    NA+46143  37.295  41.435  10.086
74528ION    NA+46144  29.106  32.011   4.547
74529ION    NA+46145  14.278  14.223  12.498
74530ION    NA+46146   7.733  15.569   5.109
74531ION    NA+46147  30.215  23.367  12.000
74532ION    NA+46148  12.275   2.932   1.213
74533ION    NA+46149  25.613  29.695   0.228
74534ION    NA+46150  12.605  31.384   2.701
74535ION    NA+46151   0.849  37.794  10.867
74536ION    NA+46152  14.595  11.413  11.122
74537ION    NA+46153  27.193  32.115   3.901
74538ION    NA+46154   0.196  23.126   5.489
74539ION    NA+46155  10.826   7.290  13.862
74540ION    NA+46156  11.401  41.720  13.524
74541ION    NA+46157  16.204  18.461   9.854
74542ION    NA+46158   4.911  18.851  14.541
74543ION    NA+46159  34.176  42.072  13.319
74544ION    NA+46160  35.748  13.617   4.965
74545ION    NA+46161  36.264  29.283   1.876
74546ION    NA+46162  21.120   7.633   2.315
74547ION    CL-46163  40.921  20.106  12.956
74548ION    CL-46164  42.890  32.618  12.942
74549ION    CL-46165  28.467  16.613  10.418
74550ION    CL-46166   4.710  17.431  13.783
74551ION    CL-46167  25.766  29.692  10.984
74552ION    CL-46168   6.575  29.351   1.494
74553ION    CL-46169   4.415  19.579  10.352
74554ION    CL-46170  34.189   7.422   1.205
74555ION    CL-46171  13.241  33.746   2.589
74556ION    CL-46172  24.078  30.526   5.178
74557ION    CL-46173  38.120  24.598  11.840
74558ION    CL-46174  34.853  29.422  13.397
74559ION    CL-46175  19.496  42.866   4.959
74560ION    CL-46176  44.271  35.615  11.123
74561ION    CL-46177  36.476  27.613   0.506
74562ION    CL-46178  13.312  30.233  14.577
74563ION    CL-46179  11.245  23.037   3.114
74564ION    CL-46180   1.327  13.783   3.137
74565ION    CL-46181  33.193  19.118  14.735
74566ION    CL-46182  19.356  10.729   3.896
74567ION    CL-46183  41.147   1.533   2.167
74568ION    CL-46184  40.660  34.941   2.642
74569ION    CL-46185  24.003  12.713  13.881
74570ION    CL-46186  21.372  32.590   3.924
74571ION    CL-46187  21.226  19.771  14.368
74572ION    CL-46188   4.345  32.806   3.978
74573ION    CL-46189  40.514  17.942   2.104
74574ION    CL-46190  12.826   9.699   1.881
74575ION    CL-46191   0.722   8.006   4.223
74576ION    CL-46192  16.156  12.448   2.307
74577ION    CL-46193  32.983  15.258   1.333
74578ION    CL-46194  39.510  29.100  14.906
74579ION    CL-46195  34.038  22.327  13.898
74580ION    CL-46196   1.690  37.387  13.103
74581ION    CL-46197  36.645   3.065   1.308
74582ION    CL-46198  36.795  22.846  12.131
74583ION    CL-46199  17.646   5.040   1.146
74584ION    CL-46200   3.916  31.860  12.152
74585ION    CL-46201  35.066  21.680   1.843
74586ION    CL-46202  26.401  14.176   0.008
74587ION    CL-46203  34.132  37.575  13.747
74588ION    CL-46204  21.982   2.006   2.277
74589ION    CL-46205  17.556   4.887  12.832
74590ION    CL-46206   7.405  11.689  12.103
74591ION    CL-46207  30.186  23.862   3.562
74592ION    CL-46208  21.891  27.312  11.209
74593ION    CL-46209   2.654   0.364  13.773
74594ION    CL-46210   7.186  41.982  10.671
74595ION    CL-46211  29.997   4.875   5.054
74596ION    CL-46212   7.308  26.718   2.151
74597ION    CL-46213  18.124  24.401  13.886
74598ION    CL-46214  30.720  39.286   2.753
74599ION    CL-46215  14.926   2.763   4.284
74600ION    CL-46216  24.825  43.187   4.181
74601ION    CL-46217  37.789  20.206  13.834
74602ION    CL-46218  32.065   6.120  11.020
74603ION    CL-46219  35.684  42.354   1.245
74604ION    CL-46220  43.725  21.056   3.793
74605ION    CL-46221  17.050  41.206   1.277
74606ION    CL-46222  28.417  43.174  13.686
74607ION    CL-46223  32.135   3.310   2.593
74608ION    CL-46224  11.953  19.726  12.249
74609ION    CL-46225  22.137  27.007   5.145
74610ION    CL-46226   3.979  27.127  13.313
74611ION    CL-46227  37.999  22.645  12.621
74612ION    CL-46228  16.696  18.196   0.288
74613ION    CL-46229  40.609  43.018   2.330
74614ION    CL-46230   9.498  16.127   5.096
74615ION    CL-46231  37.713  37.690  11.626
74616ION    CL-46232  18.119  32.948   0.407
74617ION    CL-46233  25.899   1.335  14.760
74618ION    CL-46234  43.768   9.201  13.037
74619ION    CL-46235  20.036  10.851  12.044
74620ION    CL-46236  44.804  42.600  14.107
74621ION    CL-46237  33.023  12.874  13.106
74622ION    CL-46238  12.112  29.200   3.833
74623ION    CL-46239  37.116  28.285  12.071
74624ION    CL-46240   1.394   7.050   4.761
74625ION    CL-46241  31.856  13.208  12.430
74626ION    CL-46242  28.149  22.986  11.123
74627ION    CL-46243  36.004  18.850   3.613
74628ION    CL-46244  31.777  13.237   2.737
74629ION    CL-46245  21.535  44.752  14.450
74630ION    CL-46246   0.981   5.733   2.322
74631ION    CL-46247   0.992  32.814   3.333
74632ION    CL-46248   4.797  44.688   2.743
74633ION    CL-46249  12.528  33.870  14.988
74634ION    CL-46250  20.657  30.373   1.937
74635ION    CL-46251  38.943  24.395  10.232
74636ION    CL-46252   4.623   8.405   3.627
74637ION    CL-46253  36.925   3.418  14.691
74638ION    CL-46254  37.358  40.823  12.602
74639ION    CL-46255  33.597   3.454  13.322
74640ION    CL-46256   9.397  28.878  11.291
74641ION    CL-46257  21.057  24.455  12.910
74642ION    CL-46258  13.175   6.828   9.584
74643ION    CL-46259  25.659  24.643  10.717
74644ION    CL-46260  10.708  32.889   0.457
74645ION    CL-46261  42.709  22.901   4.964
74646ION    CL-46262  38.539  42.609   3.995
74647ION    CL-46263   8.933  39.062   2.217
74648ION    CL-46264  37.167  10.693  13.032
74649ION    CL-46265   2.509   0.471  11.109
74650ION    CL-46266  32.487   1.570   2.496
74651ION    CL-46267  34.373  43.016   3.240
74652ION    CL-46268  14.159  38.915   1.397
74653ION    CL-46269   3.524  24.722  10.739
74654ION    CL-46270  25.717  38.680   3.785
74655ION    CL-46271  15.631  16.849   3.389
74656ION    CL-46272  10.352  36.504   4.773
74657ION    CL-46273  12.633  26.519  12.362
74658ION    CL-46274   8.161  43.166  11.621
74659ION    CL-46275  30.900  39.183   0.219
74660ION    CL-46276  28.237  32.626   0.022
74661ION    CL-46277  44.183   6.083  10.635
74662ION    CL-46278  42.854   0.570   3.192
74663ION    CL-46279  28.414   8.330  12.923
74664ION    CL-46280  17.091  13.855   5.058
74665ION    CL-46281  31.917  26.299  14.518
74666ION    CL-46282  11.831  21.203   1.136
74667ION    CL-46283  30.733  40.211   2.112
74668ION    CL-46284  37.670  25.108   4.828
74669ION    CL-46285  34.838   5.166   0.057
74670ION    CL-46286  40.353  33.619   3.899
74671ION    CL-46287   2.419  23.188  14.521
74672ION    CL-46288  34.249  42.563  14.219
74673ION    CL-46289  12.321   7.131   4.077
74674ION    CL-46290  36.591  19.114   1.994
74675ION    CL-46291  30.049  30.515  12.075
74676ION    CL-46292  14.114  25.192  12.217
74677ION    CL-46293  10.114  17.622  11.193
74678ION    CL-46294  12.723  31.414  10.993
74679ION    CL-46295  41.335  20.812   0.761
74680ION    CL-46296  23.311  29.544   3.352
74681ION    CL-46297  43.879  15.751  13.469
74682ION    CL-46298  35.157  12.121  10.994
74683ION    CL-46299  37.312  13.676   3.636
74684ION    CL-46300  18.569  43.790  10.304
74685ION    CL-46301  15.386   3.463   9.975
74686ION    CL-46302  32.490  22.590   9.935
74687ION    CL-46303   4.883  19.045   3.194
74688ION    CL-46304  38.825  43.124   0.169
74689ION    CL-46305  40.261   4.852  11.969
74690ION    CL-46306   4.870  23.402   3.733
74691ION    CL-46307  29.310  24.576   0.644
74692ION    CL-46308  43.519  31.104   1.268
74693ION    CL-46309  44.171  35.506  14.476
74694ION    CL-46310  20.604  37.161  11.649
74695ION    CL-46311  39.377  44.446   1.615
74696ION    CL-46312  20.764  40.503   1.692
74697ION    CL-46313  41.288   5.436  11.914
74698ION    CL-46314  43.073  22.042  11.049
74699ION    CL-46315  25.434  29.528  12.824
74700ION    CL-46316  16.648  30.651   1.385
74701ION    CL-46317  39.962  39.348  12.993
74702ION    CL-46318   9.089  22.741   3.194
74703ION    CL-46319  16.597  28.069  12.857
74704ION    CL-46320  27.903   4.402  10.913
74705ION    CL-46321  44.417  37.426   1.853
74706ION    CL-46322  44.115   1.491  10.655
74707ION    CL-46323  19.914   9.494   4.446
74708ION    CL-46324  27.287  28.630   0.113
74709ION    CL-46325   3.534  30.810   1.096
74710ION    CL-46326  39.416  36.139  12.754
74711ION    CL-46327  17.035  13.782   1.072
74712ION    CL-46328   0.956  15.823   3.750
74713ION    CL-46329  35.927  23.645  12.815
74714ION    CL-46330  16.638  12.929  14.591
74715ION    CL-46331   5.085  22.058   0.993
74716ION    CL-46332  30.750  24.433  14.679
74717ION    CL-46333   0.178  37.498   0.461
74718ION    CL-46334  27.155  15.884   0.578
74719ION    CL-46335  22.340  37.268   5.062
74720ION    CL-46336  21.728   3.337   0.002
74721ION    CL-46337  11.836   6.447  10.564
74722ION    CL-46338  16.003   3.901   1.327
74723ION    CL-46339   7.460  42.751  14.322
74724ION    CL-46340  16.208  30.075  14.991
74725ION    CL-46341  37.083   0.650   2.776
74726ION    CL-46342  38.507  43.207  11.133
74727ION    CL-46343  12.745  24.917   1.714
74728ION    CL-46344  13.564  26.894   1.613
74729ION    CL-46345  37.194   2.872   2.670
74730ION    CL-46346   8.273  36.126   3.292
74731ION    CL-46347   2.233  31.501   9.964
74732ION    CL-46348   0.747  27.873  13.023
74733ION    CL-46349  26.746  25.240   3.822
74734ION    CL-46350   0.167   2.997   0.997
74735ION    CL-46351  16.421  19.731   3.663
74736ION    CL-46352   3.481  27.459  13.988
74737ION    CL-46353   2.698   2.783   0.842
74738ION    CL-46354  32.148  33.723  11.064
74739ION    CL-46355   1.236   9.654  13.436
74740ION    CL-46356  35.354  10.447  11.786
74741ION    CL-46357  18.776  18.335  11.449
74742ION    CL-46358  13.646  11.522  14.734
74743ION    CL-46359  15.635   4.433   3.171
74744ION    CL-46360  38.555  17.300   3.147
74745ION    CL-46361  21.958   9.949  12.693
74746ION    CL-46362  39.040   4.060   3.501
74747ION    CL-46363  20.722  41.085  11.629
74748ION    CL-46364   0.466  18.507  14.825
74749ION    CL-46365   3.045  15.615  12.912
74750ION    CL-46366   6.196  21.597  12.316
74751ION    CL-46367  21.751  36.356  11.036
74752ION    CL-46368  13.896  25.304   3.999
74753ION    CL-46369  14.229  26.219  14.723
74754ION    CL-46370   7.939  40.050   9.962
74755ION    CL-46371  40.986  23.519   2.042
74756ION    CL-46372  25.082  23.680   2.225
74757ION    CL-46373  24.422  14.178  11.026
74758ION    CL-46374   9.140  17.056   0.865
74759ION    CL-46375  35.953  37.454   3.719
74760ION    CL-46376  28.224  27.249   2.528
74761ION    CL-46377  37.548  22.678   3.260
74762ION    CL-46378  26.808   9.076  14.454
74763ION    CL-46379   4.877  30.325   2.565
74764ION    CL-46380  16.426  10.335   5.115
74765ION    CL-46381  26.585  41.075   1.381
74766ION    CL-46382  44.092  35.951   3.657
74767ION    CL-46383  11.874  29.982   0.874
74768ION    CL-46384  10.356   4.379   3.287
74769ION    CL-46385  35.275  17.656  13.010
74770ION    CL-46386   3.913   9.770   3.141
74771ION    CL-46387   5.440   0.471   2.209
74772ION    CL-46388  36.444  20.626   3.736
74773ION    CL-46389  35.530   0.716  14.236
74774ION    CL-46390  32.978  30.111  14.568
74775ION    CL-46391  18.712  36.723   3.602
74776ION    CL-46392  31.771  38.125   5.129
74777ION    CL-46393  13.564  25.592  13.033
74778ION    CL-46394  37.709  16.784   3.280
74779ION    CL-46395  23.731   5.814   4.424
74780ION    CL-46396  10.004  16.748   0.722
74781ION    CL-46397  26.439  33.478   5.042
74782ION    CL-46398  28.905  15.647   3.689
74783ION    CL-46399   8.793   3.930   3.323
74784ION    CL-46400  25.586  37.784   2.842
74785ION    CL-46401   2.137  38.937   9.649
74786ION    CL-46402  16.607  43.919  14.501
74787ION    CL-46403   7.091  29.080  12.952
74788ION    CL-46404  13.668   7.076  10.355
74789ION    CL-46405  12.232  32.127  11.494
74790ION    CL-46406  43.461  17.296  11.703
74791ION    CL-46407  35.860  22.988   3.699
74792ION    CL-46408  37.568   9.999  14.859
74793ION    CL-46409  38.776   0.964   1.075
74794ION    CL-46410   7.344  36.021  14.243
74795ION    CL-46411  34.115   6.670   0.734
74796ION    CL-46412  41.964  32.393  11.961
74797ION    CL-46413   9.717  34.316   3.151
74798ION    CL-46414  35.716  29.744   4.323
74799ION    CL-46415  33.667  33.709  10.067
74800ION    CL-46416  18.786  17.531  11.878
74801ION    CL-46417   9.980  41.264   1.005
74802ION    CL-46418   1.142  39.477  11.093
74803ION    CL-46419   3.122  39.587  13.360
74804ION    CL-46420  16.132  37.329  11.557
74805ION    CL-46421  33.315  11.333  10.780
74806ION    CL-46422  11.194   9.491  14.174
74807ION    CL-46423  32.419  33.097   2.468
74808ION    CL-46424  21.131   4.430   1.332
74809ION    CL-46425  37.244   7.684   4.040
74810ION    CL-46426  28.149   2.544  11.077
74811ION    CL-46427   5.218  29.853  14.008
74812ION    CL-46428  11.763  23.160  14.400
74813ION    CL-46429  34.832  12.162   0.893
74814ION    CL-46430  26.530  30.497  13.829
74815ION    CL-46431   6.014  21.921   1.338
74816ION    CL-46432  22.085  13.332   2.262
74817ION    CL-46433  13.801  26.405   2.755
74818ION    CL-46434  12.228   8.122   2.315
74819ION    CL-46435  38.975  43.718   2.693
74820ION    CL-46436  33.876  36.323   2.598
74821ION    CL-46437   8.919  34.246  13.976
74822ION    CL-46438  19.992  33.905   1.868
74823ION    CL-46439  23.855  16.150   0.571
74824ION    CL-46440  11.535  23.982  11.833
74825ION    CL-46441   2.261  37.006  13.839
74826ION    CL-46442  38.244  14.872   3.920
74827ION    CL-46443  34.425  38.730   2.844
74828ION    CL-46444  34.404   5.715   0.791
74829ION    CL-46445  30.002  40.850  12.119
74830ION    CL-46446   9.640   2.829  13.505
74831ION    CL-46447  43.726  35.312   4.333
74832ION    CL-46448  17.983  19.175  11.541
74833ION    CL-46449  16.755  43.715   2.391
74834ION    CL-46450  23.763  43.560  13.581
74835ION    CL-46451  28.424   5.414   1.120
74836ION    CL-46452  18.736  20.904   3.747
74837ION    CL-46453  40.817  15.676   0.477
74838ION    CL-46454  23.053   6.336  12.408
74839ION    CL-46455  20.747  29.489   0.174
74840ION    CL-46456  31.588  40.646  13.032
74841ION    CL-46457  32.100  21.685   2.908
74842ION    CL-46458  14.107  22.375  14.798
74843ION    CL-46459  41.811  37.649  14.014
74844ION    CL-46460  28.208  25.874   1.285
74845ION    CL-46461  22.867  44.942  11.866
74846ION    CL-46462  18.205  33.704   3.167
74847ION    CL-46463   0.707  10.786   0.950
74848ION    CL-46464  31.790   4.603   4.955
74849ION    CL-46465   4.633  26.313  11.916
74850ION    CL-46466  10.624  27.621   1.808
74851ION    CL-46467  16.086  15.607  14.335
74852ION    CL-46468  22.997  29.738  11.428
74853ION    CL-46469  29.618  44.937  13.395
74854ION    CL-46470  34.561  20.378   2.324
74855ION    CL-46471  44.868  40.834  14.331
74856ION    CL-46472  39.729  39.572  13.939
74857ION    CL-46473   9.890  15.539   3.281
74858ION    CL-46474  40.812  39.875  12.951
74859ION    CL-46475  15.527   5.803  12.469
74860ION    CL-46476  23.208  18.189   3.818
74861ION    CL-46477  31.289  25.760  13.699
74862ION    CL-46478  33.226   5.082  12.223
74863ION    CL-46479  33.082  12.298   2.257
74864ION    CL-46480   0.884   5.836  12.318
74865ION    CL-46481  13.753  35.972  12.774
74866ION    CL-46482  27.114   4.014  14.722
74867ION    CL-46483  18.487  39.840  11.032
74868ION    CL-46484  16.309  20.670   2.141
74869ION    CL-46485  31.080  13.711  10.677
74870ION    CL-46486   1.652   1.477   2.599
74871ION    CL-46487  36.622   4.428  14.313
74872ION    CL-46488   9.917   3.599   4.937
74873ION    CL-46489  22.513  24.571   1.228
74874ION    CL-46490  31.407  22.589  14.557
74875ION    CL-46491  29.270   8.710   4.063
74876ION    CL-46492  38.058   9.252  11.034
74877ION    CL-46493  43.007  27.088   4.991
74878ION    CL-46494  14.119  26.293  11.176
74879ION    CL-46495   9.917   2.929   4.034
74880ION    CL-46496   7.982  28.598  14.018
74881ION    CL-46497  17.340  32.902   3.300
74882ION    CL-46498  26.332  26.076  11.513
74883ION    CL-46499  36.716  42.541   1.515
74884ION    CL-46500  19.187  38.480   4.090
74885ION    CL-46501   5.665  36.754   1.504
74886ION    CL-46502  41.791  17.205   2.708
74887ION    CL-46503  34.212  36.779  12.781
74888ION    CL-46504   7.123   8.684  14.852
74889ION    CL-46505  17.000  28.873  11.066
74890ION    CL-46506  36.108  28.381  13.583
74891ION    CL-46507  17.975  15.830   5.316
74892ION    CL-46508   7.974   0.083  12.827
74893ION    CL-46509  29.324  40.949   0.751
74894ION    CL-46510   4.791  30.706   3.486
74895ION    CL-46511  30.716  43.395  12.293
74896ION    CL-46512  23.193  14.619   2.399
74897ION    CL-46513  26.700  16.136   4.574
74898ION    CL-46514  38.708  24.531  11.130
74899ION    CL-46515  32.676  20.717   4.243
74900ION    CL-46516  36.314  18.123  13.614
74901ION    CL-46517   0.246   1.061   2.167
74902ION    CL-46518  14.603  20.753   3.134
74903ION    CL-46519  11.296  16.344  14.308
74904ION    CL-46520  33.937  21.996   0.905
74905ION    CL-46521  16.963  39.371   1.480
74906ION    CL-46522  38.596  13.680   2.408
74907ION    CL-46523  43.529   6.404  11.983
74908ION    CL-46524  18.719   0.853   0.082
74909ION    CL-46525  40.039  19.708   2.507
74910ION    CL-46526  17.786  18.799   3.640
74911ION    CL-46527  13.703  32.051   1.701
74912ION    CL-46528  43.427   0.461   4.187
74913ION    CL-46529  37.385  30.994   1.528
74914ION    CL-46530  40.519  11.093   2.187
74915ION    CL-46531   9.461  37.863  10.787
74916ION    CL-46532   5.152  35.972  14.566
74917ION    CL-46533  39.842  32.426  11.412
74918ION    CL-46534  30.361  40.921   3.230
74919ION    CL-46535   7.242  32.748   1.524
74920ION    CL-46536  38.365  38.096  14.942
74921ION    CL-46537  19.627  21.536  14.732
74922ION    CL-46538   5.593   8.419  11.590
74923ION    CL-46539  20.084  35.065  13.069
74924ION    CL-46540  26.880  36.378   3.595
74925ION    CL-46541  32.740  26.439   1.458
74926ION    CL-46542  17.959   6.598  14.501
74927ION    CL-46543  28.588  31.959   3.377
74928ION    CL-46544  10.506  36.210   2.453
74929ION    CL-46545   9.132  10.292   2.205
74930ION    CL-46546  36.523  17.514  10.708
74931ION    CL-46547  25.321   8.577  12.693
74932ION    CL-46548  12.248  16.582   0.734
74933ION    CL-46549  11.691  26.656  12.055
74934ION    CL-46550   4.416  24.413   0.893
74935ION    CL-46551  17.255  34.826  11.592
74936ION    CL-46552  27.332  24.208  14.416
74937ION    CL-46553  39.547   0.479   0.469
74938ION    CL-46554   1.196  40.249  12.546
74939ION    CL-46555  11.977  19.020  12.819
74940ION    CL-46556  25.111  19.031  14.793
74941ION    CL-46557  43.050   4.048  12.994
74942ION    CL-46558  33.269  30.212  13.714
74943ION    CL-46559  43.943  37.947  11.153
74944ION    CL-46560   6.758  44.546   4.594
74945ION    CL-46561  20.638  35.263   3.827
74946ION    CL-46562   1.173  37.576   0.527
74947ION    CL-46563  11.700  42.754   2.856
74948ION    CL-46564  14.760   1.621   3.390
74949ION    CL-46565  14.808  43.741  11.049
74950ION    CL-46566  33.696  28.147   1.464
74951ION    CL-46567  30.086  28.729  13.995
74952ION    CL-46568  37.517  26.303   0.438
74953ION    CL-46569  18.816   7.640   2.003
74954ION    CL-46570  20.747  30.886  11.119
74955ION    CL-46571  26.278  34.538  12.831
74956ION    CL-46572  44.339  44.227  11.340
74957ION    CL-46573  19.294  17.645   4.344
74958ION    CL-46574   7.882  27.624  13.771
74959ION    CL-46575  19.995  22.466   0.029
74960ION    CL-46576  43.569  10.596  12.968
74961ION    CL-46577  30.441  36.228   3.675
74962ION    CL-46578  24.464   3.179  12.953
74963ION    CL-46579  24.389  28.695   1.584
74964ION    CL-46580   7.266   7.842  12.823
74965ION    CL-46581  17.897  28.473  11.211
74966ION    CL-46582  23.445  11.570   0.902
74967ION    CL-46583  39.202  33.635  12.668
74968ION    CL-46584  17.135  28.051  11.181
74969ION    CL-46585   3.099   6.481  12.537
74970ION    CL-46586  24.194  26.220  12.999
74971ION    CL-46587  39.000  33.543   3.267
74972ION    CL-46588   5.631   7.622  12.006
74973ION    CL-46589  18.275  13.587   3.847
74974ION    CL-46590  43.316   0.656   5.162
74975ION    CL-46591  12.683  10.692   2.681
74976ION    CL-46592  29.052   8.133   2.586
74977ION    CL-46593  25.021   8.252  13.590
74978ION    CL-46594  42.851  10.865  10.838
74979ION    CL-46595  18.974  28.807  14.288
74980ION    CL-46596  17.111  26.120  13.569
74981ION    CL-46597  43.505  39.408   1.807
74982ION    CL-46598  32.926   4.445  11.514
74983ION    CL-46599  39.014  31.702  11.676
74984ION    CL-46600  35.745  11.191   2.742
74985ION    CL-46601  14.325  38.565   3.653
74986ION    CL-46602   1.991  37.043  11.462
74987ION    CL-46603  20.199   1.998  10.729
74988ION    CL-46604   9.014  35.477   3.722
74989ION    CL-46605  27.475   2.834  10.321
74990ION    CL-46606  19.047   8.994   1.541
74991ION    CL-46607   2.720  27.878   2.807
74992ION    CL-46608  18.983  22.741   3.222
74993ION    CL-46609  18.752  39.260   3.640
74994ION    CL-46610  42.517  25.563   4.383
74995ION    CL-46611  32.255  15.548  11.407
74996ION    CL-46612   5.241   6.375  10.703
74997ION    CL-46613  35.252  38.741   3.126
74998ION    CL-46614  37.011  36.908  12.258
74999ION    CL-46615  22.163  36.953  12.959
75000ION    CL-46616  18.263  41.489   3.366
75001ION    CL-46617  16.017  24.666  14.666
75002ION    CL-46618  14.568  42.758  14.258
75003ION    CL-46619  20.306  34.889  14.470
75004ION    CL-46620  24.171   6.816  14.752
75005ION    CL-46621  39.254  19.120  13.739
75006ION    CL-46622  20.961  27.519  14.727
75007ION    CL-46623  44.675  40.424   2.099
75008ION    CL-46624  38.696  24.687   1.023
75009ION    CL-46625  14.008  44.925  13.068
75010ION    CL-46626  39.358  28.537  13.289
75011ION    CL-46627   8.397  17.083  14.587
75012ION    CL-46628  28.480  23.761  11.661
75013ION    CL-46629  41.393  41.080   3.500
75014ION    CL-46630   8.640  15.100  13.192
75015ION    CL-46631   3.296   7.134   0.379
75016ION    CL-46632  36.092  16.795  13.858
75017ION    CL-46633   1.381  13.898   2.123
75018ION    CL-46634  22.287   6.867  14.960
75019ION    CL-46635  24.713  23.015  12.386
75020ION    CL-46636  33.419  19.269  12.118
75021ION    CL-46637   5.871  25.475  14.056
75022ION    CL-46638   6.026  28.705  11.606
75023ION    CL-46639  12.163  11.708  12.470
75024ION    CL-46640   8.993  27.651   3.251
75025ION    CL-46641   6.427   6.962  12.509
75026ION    CL-46642  41.057   0.737   3.669
75027ION    CL-46643  26.234  41.418   0.415
75028ION    CL-46644  27.105  24.646   1.453
75029ION    CL-46645  15.943  38.146   2.318
75030ION    CL-46646  26.024  42.590   0.041
75031ION    CL-46647  42.217   9.232   0.788
75032ION    CL-46648  27.134  24.822  11.095
75033ION    CL-46649   0.163  13.367   2.817
75034ION    CL-46650  34.851   8.800   1.483
75035ION    CL-46651  30.731   9.105   3.249
75036ION    CL-46652  34.228   0.460   0.911
75037ION    CL-46653  23.240  22.697   3.911
75038ION    CL-46654  24.037  28.865  12.563
75039ION    CL-46655  25.751   3.289  12.596
75040ION    CL-46656  31.961  10.615  14.803
75041ION    CL-46657  26.995   5.284   1.740
75042ION    CL-46658  26.693  15.825  13.857
75043ION    CL-46659  24.466  28.181  14.740
75044ION    CL-46660  26.636  22.602  13.856
75045ION    CL-46661  44.319  26.950   4.630
75046ION    CL-46662  38.020  34.156   3.677
75047ION    CL-46663   8.269   2.025  14.949
75048ION    CL-46664   5.578  11.150   4.070
75049ION    CL-46665  33.268  28.291   5.007
75050ION    CL-46666   0.708   4.711   2.346
75051ION    CL-46667   5.632  43.341   0.578
75052ION    CL-46668   8.157  26.437   1.705
75053ION    CL-46669  40.587  36.403  10.922
75054ION    CL-46670  15.302  44.259   1.188
75055ION    CL-46671  16.516  41.352  14.403
75056ION    CL-46672  40.077  10.840   5.115
75057ION    CL-46673   8.093   6.377  13.023
75058ION    CL-46674   4.653  21.221   1.328
75059ION    CL-46675  24.532  20.521   3.579
75060ION    CL-46676  42.809  44.215   9.943
75061ION    CL-46677  10.583  22.938   3.856
75062ION    CL-46678   3.194  19.189   0.493
75063ION    CL-46679  26.083   2.400  12.022
75064ION    CL-46680  21.005  38.028   4.166
75065ION    CL-46681  16.317  23.450  13.831
75066ION    CL-46682  31.690   6.853   4.197
75067ION    CL-46683  27.383  38.010  10.717
75068ION    CL-46684  24.733  26.429   3.657
75069ION    CL-46685  16.195   7.801   1.726
75070ION    CL-46686  11.243  11.977   4.648
75071ION    CL-46687  25.099   8.737   4.344
75072ION    CL-46688   1.440  38.347   4.066
75073ION    CL-46689  42.603  25.708  11.610
75074ION    CL-46690   1.978  34.784   4.023
75075ION    CL-46691   0.581  19.167   3.642
75076ION    CL-46692  16.247  18.072   2.943
75077ION    CL-46693   9.653  20.054   0.734
75078ION    CL-46694  42.380  17.469  12.022
75079ION    CL-46695  14.637  12.408  13.846
75080ION    CL-46696  38.483  14.344   0.313
75081ION    CL-46697  34.358  37.921   0.663
75082ION    CL-46698   6.926  38.097   2.258
75083ION    CL-46699  38.585  25.971   2.107
75084ION    CL-46700   9.851  39.247  11.295
75085ION    CL-46701   1.455  36.775  14.855
75086ION    CL-46702  32.833  41.321  10.893
75087ION    CL-46703  41.785  24.444  13.350
75088ION    CL-46704  13.011  31.565   3.690
75089ION    CL-46705  43.392   2.010   1.921
75090ION    CL-46706  41.393  28.459   4.099
75091ION    CL-46707   5.955  31.285   0.743
75092ION    CL-46708  22.379  15.322  14.823
75093ION    CL-46709   5.131  20.758   3.204
75094ION    CL-46710  17.715  33.481  10.320
75095ION    CL-46711  11.368   6.162   2.201
75096ION    CL-46712  35.650  11.309  12.196
75097ION    CL-46713  10.244  12.234  13.522
75098ION    CL-46714   4.366  30.641  11.933
75099ION    CL-46715   5.310  23.484   2.423
75100ION    CL-46716  27.989   4.606   1.517
75101ION    CL-46717   2.702  23.064   3.748
75102ION    CL-46718  39.487  31.112  12.864
75103ION    CL-46719  30.681  43.336  10.584
75104ION    CL-46720  42.073  18.925   1.353
75105ION    CL-46721  42.533  11.386  12.057
75106ION    CL-46722  14.644  23.432   1.589
75107ION    CL-46723  43.100  23.341  11.910
75108ION    CL-46724  22.465  18.346   4.321
75109ION    CL-46725  41.057   9.382   1.605
75110ION    CL-46726   0.398   0.654   4.823
75111ION    CL-46727  38.812  41.860   3.478
75112ION    CL-46728  32.517  15.383  13.796
75113ION    CL-46729  25.200  23.023  11.073
75114ION    CL-46730  22.458   0.115   0.300
75115ION    CL-46731  35.872   9.796   2.006
75116ION    CL-46732   2.517  36.545   0.406
75117ION    CL-46733  14.495  38.239   0.741
75118ION    CL-46734  12.390   6.222   3.236
75119ION    CL-46735   2.938  37.744  12.112
75120ION    CL-46736  38.300   3.527   1.849
75121ION    CL-46737  19.154  37.415   4.884
75122ION    CL-46738  28.757  44.450  13.545
75123ION    CL-46739  43.227  25.070  14.022
75124ION    CL-46740  40.987  26.679  13.814
75125ION    CL-46741   6.715  29.725   2.395
75126ION    CL-46742  30.068  16.965   2.004
75127ION    CL-46743   2.373  43.366  10.764
75128ION    CL-46744   7.147   3.566   3.132
75129ION    CL-46745  36.590  26.400   2.865
75130ION    CL-46746  34.364   8.850   3.944
75131ION    CL-46747  29.113   1.332   1.775
75132ION    CL-46748  27.062  19.135   4.915
75133ION    CL-46749  29.378  39.708  13.003
75134ION    CL-46750  12.874   7.164   4.775
75135ION    CL-46751  23.753   4.921  12.484
75136ION    CL-46752  12.326   4.096   1.963
75137ION    CL-46753   5.143   4.356   3.123
75138ION    CL-46754  23.489  36.032  12.222
75139ION    CL-46755   6.130  25.256   4.116
75140ION    CL-46756   4.391  40.272   4.442
75141ION    CL-46757  36.827  20.527  11.087
75142ION    CL-46758  24.517  15.951  14.848
75143ION    CL-46759  37.394   3.788  13.723
75144ION    CL-46760  18.117  31.863  12.390
75145ION    CL-46761  37.394  38.494   1.627
75146ION    CL-46762   5.781  13.456  10.687
75147ION    CL-46763  13.627   0.664  12.513
75148ION    CL-46764  36.450  34.922  14.749
75149ION    CL-46765  37.091  16.795  13.824
75150ION    CL-46766  19.289   5.503   9.892
75151ION    CL-46767   4.765  15.450  12.072
75152ION    CL-46768  14.548   3.759  14.438
75153ION    CL-46769  43.400  16.047  10.371
75154ION    CL-46770  39.897   9.443  13.570
75155ION    CL-46771  13.857  31.782   9.992
75156ION    CL-46772  35.613  27.140  13.108
75157ION    CL-46773  42.339  35.048   3.696
75158ION    CL-46774  22.711   6.371  11.470
75159ION    CL-46775  24.011  22.024  11.146
75160ION    CL-46776  28.392   3.456  13.196
75161ION    CL-46777  23.291  28.079  12.926
75162ION    CL-46778  29.695  25.152   1.153
75163ION    CL-46779  15.442  40.979  11.624
75164ION    CL-46780  37.912  31.610  11.246
75165ION    CL-46781   4.785  25.375  12.341
75166ION    CL-46782  23.652   7.289  12.144
75167ION    CL-46783   9.690   8.582   0.293
75168ION    CL-46784  38.444  17.038   4.954
75169ION    CL-46785   3.252  14.873   2.011
75170ION    CL-46786  35.612  10.219   0.258
75171ION    CL-46787   5.547  35.982  13.648
75172ION    CL-46788  17.696  44.983   4.538
75173ION    CL-46789   4.788  38.282  14.830
75174ION    CL-46790  38.056  42.254   3.584
75175ION    CL-46791  27.906  13.200  11.444
75176ION    CL-46792   1.226   8.868   3.236
75177ION    CL-46793   0.687  37.728  14.574
75178ION    CL-46794  24.167   7.413   9.949
75179ION    CL-46795  27.694  23.054   0.876
75180ION    CL-46796   1.988  12.297  13.689
75181ION    CL-46797  26.348  29.454   4.003
75182ION    CL-46798  29.981  14.802   4.948
75183ION    CL-46799  25.101  28.668   1.163
75184ION    CL-46800   3.498  19.799  12.881
75185ION    CL-46801  31.970  36.604  12.077
75186ION    CL-46802  22.533  35.606   1.954
75187ION    CL-46803  16.413  20.164  11.138
75188ION    CL-46804  36.362  11.206   4.042
75189ION    CL-46805  26.611   1.458   2.619
75190ION    CL-46806   6.886  37.574  14.200
75191ION    CL-46807  43.443  43.526  13.455
75192ION    CL-46808  32.957  19.858   3.815
75193ION    CL-46809  27.644  29.913   1.057
75194ION    CL-46810  19.366  32.232   2.837
75195ION    CL-46811  33.010  14.540   3.185
75196ION    CL-46812   1.845  38.346  14.308
75197ION    CL-46813  42.841   6.725  10.834
75198ION    CL-46814  35.643  25.118  10.787
75199ION    CL-46815  32.058  42.291  14.254
75200ION    CL-46816  34.291  28.119   2.842
75201ION    CL-46817  24.089  20.408  12.021
75202ION    CL-46818   2.903  43.562   0.485
75203ION    CL-46819  10.367   5.565   0.901
75204ION    CL-46820  38.775  24.007  12.581
75205ION    CL-46821   6.120   7.616   9.568
75206ION    CL-46822  40.866  36.211   3.490
75207ION    CL-46823  10.285  31.846   1.840
75208ION    CL-46824  26.801  37.331   3.923
75209ION    CL-46825   9.645  11.089   4.915
75210ION    CL-46826  14.913   9.695  12.921
75211ION    CL-46827  15.638  17.954  13.138
75212ION    CL-46828  24.778  27.037  13.463
75213ION    CL-46829  15.907   8.396  11.186
75214ION    CL-46830  24.145   2.285   0.437
75215ION    CL-46831  25.376  28.579  14.950
75216ION    CL-46832  16.196  38.041   1.295
75217ION    CL-46833   8.301  37.258   0.817
75218ION    CL-46834   1.638  10.729   0.589
75219ION    CL-46835  43.519  23.302  10.945
75220ION    CL-46836  41.589  25.937  11.506
75221ION    CL-46837  40.550  32.883   2.618
75222ION    CL-46838   2.517   6.668  13.822
75223ION    CL-46839   4.891  11.607  14.826
75224ION    CL-46840  10.469   3.643  11.164
75225ION    CL-46841   4.682   1.453   4.752
75226ION    CL-46842  29.890  10.113   1.710
75227ION    CL-46843  41.359  39.351   3.360
75228ION    CL-46844  39.134  12.899  10.161
75229ION    CL-46845  28.577  21.281   1.386
75230ION    CL-46846  44.328  34.147   1.163
75231ION    CL-46847  30.156  24.627   0.756
75232ION    CL-46848   6.805  33.877  14.702
75233ION    CL-46849  43.797  14.834   2.324
75234ION    CL-46850  30.892   6.224  11.388
75235ION    CL-46851  16.461  43.954  10.709
75236ION    CL-46852  13.041  25.732   2.212
75237ION    CL-46853   0.752  39.969   1.163
75238ION    CL-46854   4.195  22.054  13.139
75239ION    CL-46855   1.088   8.354  13.096
75240ION    CL-46856  22.675   8.139   2.360
75241ION    CL-46857   2.041  30.058  13.961
75242ION    CL-46858   3.880  12.425  12.631
75243ION    CL-46859  22.102  32.254   5.158
75244ION    CL-46860  19.793   4.887  11.248
75245ION    CL-46861  35.091  10.268  13.453
75246ION    CL-46862  38.231  29.953  14.529
75247ION    CL-46863  10.893   4.710  13.280
75248ION    CL-46864   5.298   2.539   3.766
75249ION    CL-46865  14.048  27.034   0.060
75250ION    CL-46866  20.077  43.911   4.304
75251ION    CL-46867  17.165  43.038  12.854
75252ION    CL-46868  15.620  38.638   9.910
75253ION    CL-46869  34.847  39.793   0.907
75254ION    CL-46870   7.154  38.808   0.939
75255ION    CL-46871   0.396  15.850  11.355
75256ION    CL-46872  14.096   4.040   0.564
75257ION    CL-46873  25.129  27.172  12.144
75258ION    CL-46874  30.714  18.552   4.991
75259ION    CL-46875  41.309   9.373  12.878
75260ION    CL-46876  27.249  21.355  14.987
75261ION    CL-46877   2.654  25.809   2.811
75262ION    CL-46878   9.832  23.434  12.904
75263ION    CL-46879  42.795  27.959   4.968
75264ION    CL-46880   4.948  28.108   1.932
75265ION    CL-46881  17.312  24.230  11.498
75266ION    CL-46882   5.864  22.255  11.851
75267ION    CL-46883  25.891  11.245  14.671
75268ION    CL-46884   3.559   1.055   4.715
75269ION    CL-46885   5.660   8.746  14.936
75270ION    CL-46886   6.008  30.354   3.242
75271ION    CL-46887  21.375  22.254  10.430
75272ION    CL-46888  28.853   6.031   2.026
75273ION    CL-46889   5.827  39.299  13.211
75274ION    CL-46890  12.697  13.092   0.364
75275ION    CL-46891  15.948   4.623  12.338
75276ION    CL-46892  38.487  29.309   0.339
75277ION    CL-46893  32.447  24.206  12.158
75278ION    CL-46894  30.733   3.058   1.188
75279ION    CL-46895   8.846  23.947  14.205
75280ION    CL-46896  41.957  32.877   2.237
75281ION    CL-46897  43.139  26.231   3.616
75282ION    CL-46898  28.258  31.452   4.187
75283ION    CL-46899  16.572  19.262  11.127
75284ION    CL-46900   7.614  18.254  14.367
75285ION    CL-46901   4.888  38.293   5.040
75286ION    CL-46902  14.767   2.481  10.359
75287ION    CL-46903   1.977   5.269   2.626
75288ION    CL-46904  27.313  21.302  11.142
75289ION    CL-46905  40.665   1.175   1.591
75290ION    CL-46906   4.426  21.014  12.989
75291ION    CL-46907  42.811  13.737  10.332
75292ION    CL-46908  10.126  39.292   0.257
75293ION    CL-46909  42.057  28.058   1.313
75294ION    CL-46910  18.604   8.160   1.166
75295ION    CL-46911  29.765  11.157  10.961
75296ION    CL-46912  27.268   7.891  13.500
75297ION    CL-46913  21.060  24.002   0.420
75298ION    CL-46914  44.500  43.407   2.391
75299ION    CL-46915  37.728  16.788   1.399
75300ION    CL-46916  19.632   1.789   0.439
75301ION    CL-46917   0.261  16.430  12.159
75302ION    CL-46918  11.784  26.104  11.103
75303ION    CL-46919   2.491  22.048  13.841
75304ION    CL-46920  20.226  15.325  12.607
75305ION    CL-46921   3.009  25.298   5.327
75306ION    CL-46922   7.816  11.827   5.151
75307ION    CL-46923  19.610  26.736   9.769
75308ION    CL-46924  43.354  40.374  10.891
75309ION    CL-46925  37.443   8.651  11.251
75310ION    CL-46926  13.840  11.924   4.484
75311ION    CL-46927  19.084  12.778   2.966
75312ION    CL-46928  43.415  31.001  13.731
75313ION    CL-46929  17.877  25.049  14.913
75314ION    CL-46930  26.425   2.741   0.763
75315ION    CL-46931   6.464  34.299  12.135
75316ION    CL-46932  24.902  42.308   4.109
75317ION    CL-46933  36.331  16.804   0.411
75318ION    CL-46934  39.593  33.310  11.206
75319ION    CL-46935  43.399  44.351   2.787
75320ION    CL-46936  26.314  24.499   2.244
75321ION    CL-46937   7.056  19.613  14.119
75322ION    CL-46938   6.124  29.000   9.831
75323ION    CL-46939   0.522  26.702   0.023
75324ION    CL-46940   8.159  32.627  11.193
75325ION    CL-46941  20.098  37.311   0.952
75326ION    CL-46942   6.833  12.187   4.267
75327ION    CL-46943  36.419  16.773  12.516
75328ION    CL-46944  38.900  43.180   4.630
75329ION    CL-46945  21.138  27.129   2.267
75330ION    CL-46946  37.430   1.420  13.406
75331ION    CL-46947  26.344  27.336  10.916
75332ION    CL-46948  11.667  34.280   5.037
75333ION    CL-46949  26.204  42.737  12.800
75334ION    CL-46950   0.590  26.681  13.632
75335ION    CL-46951  43.699   7.524  11.103
75336ION    CL-46952  42.362  22.945  11.364
75337ION    CL-46953  40.910   6.767   4.047
75338ION    CL-46954  31.465  41.049  13.938
75339ION    CL-46955  27.547  34.608  14.395
75340ION    CL-46956  39.070  39.444   0.437
75341ION    CL-46957  37.808  30.700   3.693
75342ION    CL-46958  24.453  25.134  14.712
75343ION    CL-46959  41.420  37.406   5.218
75344ION    CL-46960  44.149  38.514  14.043
75345ION    CL-46961  19.514  11.449  14.436
75346ION    CL-46962  17.614  22.705  14.852
75347ION    CL-46963  29.837  13.028  14.990
75348ION    CL-46964  25.194  38.763   0.271
75349ION    CL-46965  20.516  32.342   1.533
75350ION    CL-46966   8.408  38.949  10.961
75351ION    CL-46967  34.522  18.222  14.338
75352ION    CL-46968  43.371  25.993  13.524
75353ION    CL-46969  37.194  38.618   0.018
75354ION    CL-46970  28.463   4.446   4.173
75355ION    CL-46971  19.246   4.815  13.076
75356ION    CL-46972  39.553  21.345  12.977
75357ION    CL-46973  36.925  16.946   2.849
75358ION    CL-46974  10.425  15.840  10.014
75359ION    CL-46975  38.806  20.869   0.531
75360ION    CL-46976  11.025  13.703  14.688
75361ION    CL-46977   3.547   2.285  12.643
75362ION    CL-46978  27.893  17.936   1.636
75363ION    CL-46979  11.797  36.190  11.175
75364ION    CL-46980  20.765  18.178   2.196
75365ION    CL-46981  13.159  17.505   0.897
75366ION    CL-46982  25.585  25.839   0.851
75367ION    CL-46983   7.864   0.723  13.967
75368ION    CL-46984  39.141   7.240   1.840
75369ION    CL-46985  10.281  44.760  13.947
75370ION    CL-46986  31.580  43.014  11.963
75371ION    CL-46987   0.559  37.728  10.521
75372ION    CL-46988  34.947  15.432  14.057
75373ION    CL-46989  33.111  27.311  12.562
75374ION    CL-46990  33.855  28.981  10.472
75375ION    CL-46991  20.490  14.192   0.931
75376ION    CL-46992  35.291   6.702   3.356
75377ION    CL-46993   1.411   9.616  14.951
75378ION    CL-46994  20.014  15.637   0.538
75379ION    CL-46995  41.973  14.785  10.698
75380ION    CL-46996  26.643  18.202   5.017
75381ION    CL-46997   4.833   0.593   0.143
75382ION    CL-46998  23.377  43.717  11.671
75383ION    CL-46999  27.169  16.499   5.394
75384ION    CL-47000  14.780   9.311   4.549
75385ION    CL-47001  37.491   1.147   1.191
75386ION    CL-47002  20.379  41.053   4.179
75387ION    CL-47003   4.238  21.447   3.710
75388ION    CL-47004  19.580  25.950   5.130
75389ION    CL-47005  42.002  28.224  12.015
75390ION    CL-47006  31.106  42.085  10.325
75391ION    CL-47007  24.199  23.508  13.088
75392ION    CL-47008   6.928  10.370  13.925
75393ION    CL-47009  14.659  32.369   1.776
75394ION    CL-47010  14.784  11.761   1.242
75395ION    CL-47011  29.626  36.444  13.429
75396ION    CL-47012   0.500  12.186   4.354
75397ION    CL-47013   8.790  17.610  11.400
75398ION    CL-47014  33.413   4.403  14.964
75399ION    CL-47015   5.890  40.433   5.021
75400ION    CL-47016  16.792  31.033  14.820
75401ION    CL-47017  38.743  37.688   3.611
75402ION    CL-47018   2.967  17.626  14.893
75403ION    CL-47019   6.238  41.788  11.630
75404ION    CL-47020  23.701  29.673   1.227
75405ION    CL-47021   4.667  29.308   2.241
75406ION    CL-47022  22.922  21.004   0.388
75407ION    CL-47023   4.871  20.776  10.872
75408ION    CL-47024  17.577  10.572  12.522
75409ION    CL-47025  43.692  21.618  11.441
75410ION    CL-47026   4.546  21.654  14.761
75411ION    CL-47027  17.343  24.514  13.009
75412ION    CL-47028  20.124  24.867  12.406
75413ION    CL-47029  29.786  24.488   9.877
75414ION    CL-47030   1.898  44.461   4.648
75415ION    CL-47031  34.510  17.044   4.835
75416ION    CL-47032  21.460   5.299  14.702
75417ION    CL-47033  34.259   1.325  13.261
75418ION    CL-47034  24.415  44.769   1.094
75419ION    CL-47035  22.531  20.988  10.172
75420ION    CL-47036   8.835  36.466   4.149
75421ION    CL-47037  19.712  24.895   4.244
75422ION    CL-47038  10.369   2.357   0.497
75423ION    CL-47039  13.816  37.121   0.671
75424ION    CL-47040  36.830  31.146   2.904
75425ION    CL-47041  25.982  17.651   0.269
75426ION    CL-47042  43.132   0.362   0.999
75427ION    CL-47043  39.050  41.362   1.962
75428ION    CL-47044  42.985  11.843  10.519
75429ION    CL-47045   9.735  36.438   1.764
75430ION    CL-47046  23.307   2.238  13.044
75431ION    CL-47047  41.454  33.411  14.588
75432ION    CL-47048  44.952   0.286  11.492
75433ION    CL-47049  14.640  27.528   1.874
75434ION    CL-47050  30.231  38.809   1.827
75435ION    CL-47051  23.428  21.386   3.218
75436ION    CL-47052  15.238   3.241  14.540
75437ION    CL-47053   4.849  10.454  14.394
75438ION    CL-47054   3.869  32.069  11.175
75439ION    CL-47055  27.510  13.138   3.659
75440ION    CL-47056  15.598  20.244  11.181
75441ION    CL-47057  41.077  18.681  12.771
75442ION    CL-47058  15.594  27.608   4.251
75443ION    CL-47059   6.966  16.769  11.189
75444ION    CL-47060  16.415  16.835   0.623
75445ION    CL-47061   3.405  10.496   3.630
75446ION    CL-47062  11.029  25.320  12.135
75447ION    CL-47063  14.329  16.771  11.917
75448ION    CL-47064  15.828  39.393  14.122
75449ION    CL-47065  14.341  14.164   2.580
75450ION    CL-47066  22.980  28.454  14.779
75451ION    CL-47067   6.878   5.665   0.118
75452ION    CL-47068  33.331   3.838   0.659
75453ION    CL-47069   5.400  17.260  10.954
75454ION    CL-47070  42.540  42.731   2.377
75455ION    CL-47071  16.161  39.792  11.021
75456ION    CL-47072  11.805  41.787   4.094
75457ION    CL-47073  44.427  24.220  10.468
75458ION    CL-47074  25.273  24.923  14.084
75459ION    CL-47075  28.253   9.859  11.715
75460ION    CL-47076  34.982  17.316  14.036
75461ION    CL-47077  11.878  32.433  12.999
75462ION    CL-47078  17.117  10.401  10.755
75463ION    CL-47079  15.559   1.566   5.176
75464ION    CL-47080  29.713  10.136   3.361
75465ION    CL-47081  14.400  36.916  14.881
75466ION    CL-47082   7.725   4.870  14.816
75467ION    CL-47083  25.527  42.725   3.144
75468ION    CL-47084  37.837  13.543   1.727
75469ION    CL-47085  41.887  14.780   4.392
75470ION    CL-47086  40.281  27.579   2.902
75471ION    CL-47087  42.763  36.837   1.411
75472ION    CL-47088  19.561  24.274  12.981
75473ION    CL-47089  20.617  27.044  12.201
75474ION    CL-47090  26.336   2.964   1.754
75475ION    CL-47091   4.377  36.483  10.806
75476ION    CL-47092  28.423  28.630   3.709
75477ION    CL-47093   0.863  36.930   5.072
75478ION    CL-47094  13.006  12.142   0.324
75479ION    CL-47095  15.059  42.976   2.775
75480ION    CL-47096  24.097  20.549  13.422
75481ION    CL-47097  37.910  44.393   3.243
75482ION    CL-47098  37.972  28.554   3.539
75483ION    CL-47099   6.655  15.636   3.763
75484ION    CL-47100  10.796   3.606   0.211
75485ION    CL-47101   2.417  23.072   0.860
75486ION    CL-47102  39.817   6.268  11.359
75487ION    CL-47103   2.536  17.738  12.625
75488ION    CL-47104  17.710  10.908  14.177
75489ION    CL-47105  16.869   1.950  12.039
75490ION    CL-47106   2.088   8.322  12.183
75491ION    CL-47107  15.028  38.018   1.934
75492ION    CL-47108  39.323   7.779  12.912
75493ION    CL-47109   1.962  43.281  12.496
75494ION    CL-47110  44.820   4.278   4.963
75495ION    CL-47111  17.772  17.150   4.915
75496ION    CL-47112   3.021  34.156  12.312
75497ION    CL-47113   0.620  40.315   2.408
75498ION    CL-47114  35.875  31.126   2.284
75499ION    CL-47115  28.757  17.616   1.248
75500ION    CL-47116  43.464  22.074  12.301
75501ION    CL-47117  38.632   2.614  10.630
75502ION    CL-47118  42.068  28.008  12.989
75503ION    CL-47119  23.074   7.826   4.987
75504ION    CL-47120  25.131  21.311   3.712
75505ION    CL-47121  33.774  42.054   1.387
75506ION    CL-47122  15.353  39.445  11.533
75507ION    CL-47123  15.399   1.772  10.848
75508ION    CL-47124  32.586  36.111  14.742
75509ION    CL-47125  32.468  23.128  12.481
75510ION    CL-47126   1.850  34.030   0.875
75511ION    CL-47127  27.518  40.073   1.890
75512ION    CL-47128  38.417  18.546   0.762
75513ION    CL-47129  28.013  24.524  10.725
75514ION    CL-47130  13.632   9.596  11.333
75515ION    CL-47131   0.192  43.695   0.304
75516ION    CL-47132  31.494  40.652   2.315
75517ION    CL-47133   1.886  13.362  13.821
75518ION    CL-47134   9.863  29.685   2.422
75519ION    CL-47135  30.181  40.045   3.416
75520ION    CL-47136   9.323  39.884   2.174
75521ION    CL-47137  11.901   0.708   5.150
75522ION    CL-47138  16.164   9.369   4.411
75523ION    CL-47139  13.662   3.613  10.837
75524ION    CL-47140  24.464  25.158   4.187
75525ION    CL-47141  10.969  39.027   0.725
75526ION    CL-47142  28.104   7.263   4.234
75527ION    CL-47143   5.707  28.509  12.646
75528ION    CL-47144  13.797  23.241   0.189
75529ION    CL-47145  41.020  16.398  14.072
75530ION    CL-47146  26.676  27.138  12.322
75531ION    CL-47147   7.498  10.545   4.288
75532ION    CL-47148  14.339  14.611   0.867
75533ION    CL-47149  32.685  44.143   2.412
75534ION    CL-47150  14.081  39.537   0.617
75535ION    CL-47151  31.635  10.856  13.473
75536ION    CL-47152   4.212   3.035   0.371
75537ION    CL-47153  39.329  14.540  13.352
75538ION    CL-47154  31.355  30.504  14.715
75539ION    CL-47155  38.904   0.050  11.159
75540ION    CL-47156  33.571   8.176   4.557
75541ION    CL-47157  16.177  26.356  10.705
75542ION    CL-47158  30.647  18.083  10.991
75543ION    CL-47159  24.697  18.166  11.476
75544ION    CL-47160  42.223  20.290   4.207
75545ION    CL-47161  27.437  39.641  11.748
75546ION    CL-47162  15.940   3.827  10.534
75547ION    CL-47163  30.133   6.113  13.367
75548ION    CL-47164  30.122  43.044   3.640
75549ION    CL-47165  20.842  17.480   1.152
75550ION    CL-47166  37.584  42.044   2.725
75551ION    CL-47167   3.889  23.074  13.568
75552ION    CL-47168  15.308  16.102  10.060
75553ION    CL-47169  39.075  32.996  11.711
75554ION    CL-47170  16.543   3.077   1.156
75555ION    CL-47171  42.019   4.843  12.458
75556ION    CL-47172  30.075  21.552  11.168
75557ION    CL-47173  33.454  27.705  10.711
75558ION    CL-47174  38.354   1.348   3.698
75559ION    CL-47175  18.864   8.321  10.340
75560ION    CL-47176  20.314  34.552   2.559
75561ION    CL-47177   2.534  41.833  13.481
75562ION    CL-47178  32.723  36.907  11.137
75563ION    CL-47179  32.025  34.838   2.703
75564ION    CL-47180  21.310  23.115  13.962
75565ION    CL-47181  40.971  20.060   1.311
75566ION    CL-47182  34.056  31.456  14.958
75567ION    CL-47183  12.832  14.264  13.859
75568ION    CL-47184  37.100  18.929  14.150
75569ION    CL-47185   7.397  23.000   1.787
75570ION    CL-47186  12.847  15.795   2.297
75571ION    CL-47187  28.476  15.486   0.590
75572ION    CL-47188  24.638  32.192   1.930
75573ION    CL-47189   5.346  14.911  13.652
75574ION    CL-47190   3.331  24.727  12.927
75575ION    CL-47191  34.270  31.494  13.649
75576ION    CL-47192  13.259  33.164   1.387
75577ION    CL-47193  32.145   4.350   1.938
75578ION    CL-47194  31.522  20.855   2.033
75579ION    CL-47195  22.868  33.049  10.326
75580ION    CL-47196  43.904  19.372   0.931
75581ION    CL-47197  35.405  30.555   1.216
75582ION    CL-47198  34.396  34.894   1.719
75583ION    CL-47199   6.667  35.557  14.819
75584ION    CL-47200  30.797  22.176  13.206
75585ION    CL-47201  40.281  14.660  13.798
75586ION    CL-47202  29.179   8.606  14.443
75587ION    CL-47203   3.929  36.096   2.833
75588ION    CL-47204  14.452  43.539  14.873
75589ION    CL-47205  11.753   8.311  14.580
75590ION    CL-47206  15.236  19.924  12.584
75591ION    CL-47207  24.986  41.592   2.459
75592ION    CL-47208  18.503   0.507   9.989
75593ION    CL-47209   0.406  24.773  14.812
75594ION    CL-47210  39.540  10.908   1.396
75595ION    CL-47211  28.827  20.476   2.381
75596ION    CL-47212  29.200  34.537  11.049
75597ION    CL-47213  16.253   1.376   3.188
75598ION    CL-47214  25.503  12.783  14.841
75599ION    CL-47215  43.656  18.040  11.064
75600ION    CL-47216  23.074  23.901  14.716
75601ION    CL-47217  37.653  36.461  13.046
75602ION    CL-47218  24.149  18.969  10.556
75603ION    CL-47219  40.684  40.922   0.063
75604ION    CL-47220  36.181  36.876  14.349
75605ION    CL-47221  35.868  21.417  14.600
75606ION    CL-47222   7.973   9.272  10.886
75607ION    CL-47223  16.938  16.340  13.567
75608ION    CL-47224  36.303  15.007  11.768
75609ION    CL-47225  30.181  27.942  11.693
75610ION    CL-47226  25.156  42.466  14.463
75611ION    CL-47227   1.158  35.240   1.902
75612ION    CL-47228  32.341   8.968   3.678
75613ION    CL-47229  19.355  42.562  10.462
75614ION    CL-47230  31.419  32.541   4.192
75615ION    CL-47231  44.508  31.176   3.277
75616ION    CL-47232   5.381   0.808   2.785
75617ION    CL-47233  10.170  20.947   0.332
75618ION    CL-47234  30.109  40.757   0.330
75619ION    CL-47235  23.001  30.712  11.658
75620ION    CL-47236  20.169  40.411   3.335
75621ION    CL-47237  13.055   7.063  12.115
75622ION    CL-47238  41.174  32.081   4.055
75623ION    CL-47239  31.670  37.352   3.702
75624ION    CL-47240  14.081   4.906   0.864
75625ION    CL-47241  12.155  37.106  14.578
75626ION    CL-47242   3.133  12.587  13.856
75627ION    CL-47243  16.971  24.845  14.392
75628ION    CL-47244  43.031  11.610   4.233
75629ION    CL-47245  38.320   9.352   2.359
75630ION    CL-47246  36.639  37.197   4.458
75631ION    CL-47247  37.866  17.515  12.509
75632ION    CL-47248   5.167  32.879  14.207
75633ION    CL-47249  41.066  21.226  13.369
75634ION    CL-47250  35.704  38.240   0.753
75635ION    CL-47251  23.158  35.066  13.545
75636ION    CL-47252  41.984  25.885   0.215
75637ION    CL-47253  14.613  42.071   0.968
75638ION    CL-47254   6.163  37.302   3.253
75639ION    CL-47255   8.680  38.596   5.170
75640ION    CL-47256  15.260  41.064   4.543
75641ION    CL-47257  32.070  29.544   2.894
75642ION    CL-47258   1.774   7.766  14.252
75643ION    CL-47259  41.476  18.721   3.773
75644ION    CL-47260  43.828  39.046   4.897
75645ION    CL-47261  35.292  32.781   4.116
75646ION    CL-47262  19.048  18.024   1.226
75647ION    CL-47263  36.760  30.002   4.229
75648ION    CL-47264  30.935  17.199   0.031
75649ION    CL-47265  42.489  15.537   0.648
75650ION    CL-47266  42.476   7.340   2.371
75651ION    CL-47267  44.122  41.960   2.587
75652ION    CL-47268  44.423   6.880  11.302
75653ION    CL-47269   8.663  26.633   3.384
75654ION    CL-47270  29.459  27.193  11.107
75655ION    CL-47271   9.747   9.485   0.299
75656ION    CL-47272  23.648  12.034   0.247
75657ION    CL-47273   4.591   1.511   9.690
75658ION    CL-47274  23.289  42.648   4.496
75659ION    CL-47275  22.324  21.289   1.939
75660ION    CL-47276  28.586  13.463  12.129
75661ION    CL-47277   9.107  25.837   2.958
75662ION    CL-47278  39.989   1.648   3.436
75663ION    CL-47279   1.478  31.958  13.379
75664ION    CL-47280   7.909  44.398   3.725
75665ION    CL-47281   7.459  35.766   2.835
75666ION    CL-47282  18.045   1.688  14.298
75667ION    CL-47283   5.110  34.594   3.338
75668ION    CL-47284  27.658   2.918  13.290
75669ION    CL-47285  21.709  31.851  11.954
75670ION    CL-47286  19.553  19.482   3.478
75671ION    CL-47287  11.686  34.436  13.867
75672ION    CL-47288  18.558  42.167   3.857
75673ION    CL-47289  31.496  32.617   2.344
75674ION    CL-47290  23.701   2.915  11.228
75675ION    CL-47291  17.505  19.686   2.781
75676ION    CL-47292  39.182  32.437   0.403
75677ION    CL-47293   4.721   6.678   4.066
75678ION    CL-47294  36.147  26.442  13.941
75679ION    CL-47295  39.111  11.398  11.076
75680ION    CL-47296  14.188  41.256   2.481
75681ION    CL-47297   0.056  39.891  14.609
75682ION    CL-47298  24.191  14.158   5.076
75683ION    CL-47299  22.537   0.010  13.589
75684ION    CL-47300  11.647  44.183  11.981
75685ION    CL-47301   8.339   3.399  13.442
75686ION    CL-47302  12.546  32.177   4.154
75687ION    CL-47303  40.055  28.608  10.630
75688ION    CL-47304   1.618   6.713   3.058
75689ION    CL-47305  17.768  30.079   0.945
75690ION    CL-47306  12.663   9.440   1.029
75691ION    CL-47307   7.550   2.654   3.215
75692ION    CL-47308  33.086  17.029   0.064
75693ION    CL-47309  40.822  34.551  12.970
75694ION    CL-47310  41.389  26.780  11.249
75695ION    CL-47311   0.687  36.177   1.764
75696ION    CL-47312  38.853   2.152  13.671
75697ION    CL-47313  39.323   0.994  11.433
75698ION    CL-47314  11.827   7.825  11.987
75699ION    CL-47315  13.026   2.257  10.974
75700ION    CL-47316   7.742  38.669  11.513
75701ION    CL-47317   1.799  15.838  13.472
75702ION    CL-47318  31.153   4.103   2.780
75703ION    CL-47319  19.870   0.868   4.285
75704ION    CL-47320  32.890  19.846   0.493
75705ION    CL-47321  34.034  16.784  12.727
75706ION    CL-47322   3.032  17.295   3.191
75707ION    CL-47323  37.448  16.962   4.916
75708ION    CL-47324  35.603   1.850   4.851
75709ION    CL-47325  10.453  14.154   9.894
75710ION    CL-47326  28.245  40.711  11.555
75711ION    CL-47327   8.729  39.308   3.298
75712ION    CL-47328  14.349  16.330  13.775
75713ION    CL-47329   7.452  11.552  14.449
75714ION    CL-47330  11.240  34.766   2.929
75715ION    CL-47331  10.350  30.144   3.050
75716ION    CL-47332  36.032   5.937  13.792
75717ION    CL-47333  41.355  43.149   0.996
75718ION    CL-47334  28.368  20.577  12.073
75719ION    CL-47335  27.631  14.761  14.903
75720ION    CL-47336   4.819  31.206  10.830
75721ION    CL-47337  24.543  26.000   1.032
75722ION    CL-47338  19.633  43.864   3.271
75723ION    CL-47339  13.311  16.047   1.391
75724ION    CL-47340  36.089   0.887  12.961
75725ION    CL-47341  18.191  30.000   3.130
75726ION    CL-47342  35.058  20.711   4.037
75727ION    CL-47343  12.500  36.216  10.316
75728ION    CL-47344  27.185  23.527   1.756
75729ION    CL-47345  38.130  38.066   4.191
75730ION    CL-47346  24.208  24.262   1.206
75731ION    CL-47347   2.523  31.401  14.566
75732ION    CL-47348  32.985  16.275  14.669
75733ION    CL-47349   1.268  35.709   2.779
75734ION    CL-47350  31.345  19.005   2.397
75735ION    CL-47351  39.959   2.856   0.446
75736ION    CL-47352  23.328  20.391   3.204
75737ION    CL-47353  30.578   4.611   1.891
75738ION    CL-47354  38.190  43.396  12.591
75739ION    CL-47355  23.631  42.740  14.951
75740ION    CL-47356  29.151  33.408  13.774
75741ION    CL-47357  43.849   8.218  12.876
75742ION    CL-47358  10.256  14.134   4.226
75743ION    CL-47359   8.981  38.061   3.353
75744ION    CL-47360  34.081  19.994   3.221
75745ION    CL-47361  28.457  24.500   1.605
75746ION    CL-47362   6.637  44.253  14.273
75747ION    CL-47363  24.541  15.239  11.624
75748ION    CL-47364  35.378  41.601  11.151
75749ION    CL-47365   9.466  39.525   3.950
75750ION    CL-47366  43.117  36.516   3.799
75751ION    CL-47367  12.648  26.309   2.928
75752ION    CL-47368  24.481  12.760   4.691
75753ION    CL-47369  34.215  27.929  13.799
75754ION    CL-47370  34.664  34.797  10.125
75755ION    CL-47371  25.535  20.805  13.395
75756ION    CL-47372  18.550   1.759  11.511
75757ION    CL-47373   5.307   4.654  13.685
75758ION    CL-47374  33.117  35.181  12.047
75759ION    CL-47375   2.178  15.115  12.895
75760ION    CL-47376  19.732  28.767   2.416
75761ION    CL-47377  39.038  18.312   3.952
75762ION    CL-47378  32.873   2.997   0.373
75763ION    CL-47379  22.990   7.026   4.877
75764ION    CL-47380  23.657  42.393   1.468
75765ION    CL-47381   0.508  25.593   3.338
75766ION    CL-47382  20.445   2.498  12.539
75767ION    CL-47383   5.732  32.256   0.825
75768ION    CL-47384  35.901  18.620   1.465
75769ION    CL-47385  34.436  31.514   1.288
75770ION    CL-47386  11.456  12.771   2.628
75771ION    CL-47387   7.696  28.844  11.059
75772ION    CL-47388  43.262   1.266  11.666
75773ION    CL-47389  42.430  40.874   4.564
75774ION    CL-47390  39.226   0.747  13.615
75775ION    CL-47391  36.613  40.276   0.855
75776ION    CL-47392  44.373  40.810   3.007
75777ION    CL-47393  10.914  20.586  14.256
75778ION    CL-47394  11.041  41.875  13.739
75779ION    CL-47395  17.828  26.618   3.114
75780ION    CL-47396  35.829   5.236  14.937
75781ION    CL-47397  11.086  17.909  11.106
75782ION    CL-47398  32.174  41.359  11.551
75783ION    CL-47399  21.757  36.142   3.631
75784ION    CL-47400   9.670  34.411  11.192
75785ION    CL-47401   0.011  23.464  12.028
75786ION    CL-47402   6.179   8.565   9.844
75787ION    CL-47403  14.656  40.358  11.579
75788ION    CL-47404  28.661  39.124  13.448
75789ION    CL-47405  23.584  18.197  10.849
75790ION    CL-47406  33.606  42.742  11.237
75791ION    CL-47407  14.501  30.704   3.230
75792ION    CL-47408  18.602  38.958   2.826
75793ION    CL-47409  36.641  21.625   0.891
75794ION    CL-47410   2.313  18.923   1.160
75795ION    CL-47411  31.237  31.614   3.249
75796ION    CL-47412   7.936  29.613  12.940
75797ION    CL-47413  30.324   8.639  10.900
75798ION    CL-47414  28.653  40.329   4.133
75799ION    CL-47415  43.808  33.809   5.074
75800ION    CL-47416  44.601   6.025   4.103
75801ION    CL-47417  37.860  33.423  10.024
75802ION    CL-47418   7.721  35.587   0.718
75803ION    CL-47419  29.024   1.489  14.750
75804ION    CL-47420  41.505   2.383  14.799
75805ION    CL-47421   0.438  15.257   0.052
75806ION    CL-47422   9.309  27.205   4.124
75807ION    CL-47423  37.359  20.905   2.884
75808ION    CL-47424   7.994  31.100  14.869
75809ION    CL-47425  37.653   7.240   2.001
75810ION    CL-47426  13.536  35.312   3.181
75811ION    CL-47427   6.723  19.130  11.455
75812ION    CL-47428  23.632  42.848  12.892
75813ION    CL-47429  39.869   0.205  13.941
75814ION    CL-47430   0.826  11.088  10.725
75815ION    CL-47431  36.934  44.606   4.775
75816ION    CL-47432  16.950   1.940   1.611
75817ION    CL-47433  10.880  37.267  13.404
75818ION    CL-47434  28.914   7.514   0.576
75819ION    CL-47435  18.065   8.758   1.760
75820ION    CL-47436  33.849  28.457   4.415
75821ION    CL-47437  17.580  25.241  13.705
75822ION    CL-47438  15.691  26.410  11.578
75823ION    CL-47439   2.783  35.502   1.031
75824ION    CL-47440  15.342  21.149  14.699
75825ION    CL-47441  10.337  41.254  14.211
75826ION    CL-47442  27.752  29.884   2.789
75827ION    CL-47443  32.197  33.824   3.812
75828ION    CL-47444  37.145   6.119  12.428
75829ION    CL-47445   7.071  12.012  13.646
75830ION    CL-47446   6.876  23.012  14.120
75831ION    CL-47447  34.305  33.395   5.142
75832ION    CL-47448  36.669  33.306   0.953
75833ION    CL-47449  17.907  20.804  12.393
75834ION    CL-47450  36.224   8.931   4.834
75835ION    CL-47451  33.436   2.684  13.784
75836ION    CL-47452  23.951   2.377  11.847
75837ION    CL-47453  32.668  16.262  13.345
75838ION    CL-47454  16.590   7.790  10.453
75839ION    CL-47455   7.346   0.419   2.137
75840ION    CL-47456  16.912   8.671   4.214
75841ION    CL-47457  12.147   1.185   2.965
75842ION    CL-47458  17.082   9.074  14.295
75843ION    CL-47459  40.807  25.636   3.152
75844ION    CL-47460  31.581  23.508   1.985
75845ION    CL-47461  40.450  30.607  14.228
75846ION    CL-47462  32.006  40.823   0.548
75847ION    CL-47463  23.722  34.710   4.543
75848ION    CL-47464  22.042  17.519   2.962
75849ION    CL-47465  17.966  30.762  12.905
75850ION    CL-47466   1.881  32.723   1.409
75851ION    CL-47467  10.862  41.236   0.742
75852ION    CL-47468  14.120  31.366  11.278
75853ION    CL-47469  36.113  23.304  10.665
75854ION    CL-47470  32.457  11.721   4.719
75855ION    CL-47471  44.733   3.159   2.180
75856ION    CL-47472  31.067   1.420   2.261
75857ION    CL-47473  24.036  26.097   4.318
75858ION    CL-47474  43.367  35.812  12.195
75859ION    CL-47475  37.356  30.478   9.602
75860ION    CL-47476  42.213  33.662  12.072
75861ION    CL-47477  33.524  33.933  14.493
75862ION    CL-47478   1.523   0.122  14.659
75863ION    CL-47479  12.451   0.480   3.453
75864ION    CL-47480  22.287  21.550  12.180
75865ION    CL-47481  36.036  29.033   2.169
75866ION    CL-47482  18.280  33.435  13.752
75867ION    CL-47483  13.129  15.548   3.757
75868ION    CL-47484  14.551  35.665   1.449
75869ION    CL-47485   0.601  21.492   1.595
75870ION    CL-47486   1.982  31.949   5.152
75871ION    CL-47487  33.174  33.487   1.891
75872ION    CL-47488  22.863   4.134   2.023
75873ION    CL-47489  39.386   0.195   2.413
75874ION    CL-47490  36.981  34.931   1.303
75875ION    CL-47491  38.514  34.684  11.714
75876ION    CL-47492  32.089  39.101   3.866
75877ION    CL-47493  26.094  42.294   2.122
75878ION    CL-47494   6.689  13.944  12.365
75879ION    CL-47495  17.331  20.226  12.971
75880ION    CL-47496  35.659  21.593   4.847
75881ION    CL-47497  31.633  38.164  12.592
75882ION    CL-47498   6.290   1.153   0.039
75883ION    CL-47499  17.689  37.363  11.539
75884ION    CL-47500  41.416  39.288  12.410
75885ION    CL-47501  11.891  37.564  12.590
75886ION    CL-47502  18.590  13.566   1.375
75887ION    CL-47503   0.247   1.808  14.007
75888ION    CL-47504  37.727   6.199   1.133
75889ION    CL-47505  18.946   1.814  14.265
75890ION    CL-47506  38.970   2.937   0.573
75891ION    CL-47507  34.246  37.107  11.837
75892ION    CL-47508   7.378  24.844  12.343
75893ION    CL-47509  16.497  26.451  12.452
75894ION    CL-47510  23.606  33.475  12.447
75895ION    CL-47511  18.536  41.991  14.989
75896ION    CL-47512  39.496  36.951   3.889
75897ION    CL-47513  38.323  40.869  12.861
75898ION    CL-47514  10.157   2.070   2.562
75899ION    CL-47515  36.126  43.070  14.216
75900ION    CL-47516  30.722  38.851  11.600
75901ION    CL-47517  15.892  21.278   2.941
75902ION    CL-47518  21.054  36.272   4.996
75903ION    CL-47519  11.744  33.632  14.316
75904ION    CL-47520   1.402  34.891  10.487
75905ION    CL-47521  30.690  42.331  11.321
75906ION    CL-47522  17.832  16.512   4.147
75907ION    CL-47523  11.791  44.400  12.980
75908ION    CL-47524  25.065  35.961   2.473
75909ION    CL-47525   5.171   0.493  13.559
75910ION    CL-47526  25.990  10.308   4.877
75911ION    CL-47527  36.671   3.476   2.240
75912ION    CL-47528   5.189  43.739  10.009
75913ION    CL-47529   8.316  39.928   1.764
75914ION    CL-47530   3.206  24.155  11.375
75915ION    CL-47531  43.025  37.428  11.211
75916ION    CL-47532  40.200  37.842   1.786
75917ION    CL-47533  23.557  11.221   0.175
75918ION    CL-47534  37.450   3.527  12.149
75919ION    CL-47535  32.350  40.816   4.116
75920ION    CL-47536   9.304   3.221   2.232
75921ION    CL-47537  31.971  44.818   4.161
75922ION    CL-47538  13.114  35.411  13.299
75923ION    CL-47539  19.097  36.738   5.006
75924ION    CL-47540  38.349  13.787   5.485
75925ION    CL-47541  11.329  40.015   2.086
75926ION    CL-47542  10.444   2.964   2.907
75927ION    CL-47543   9.616   1.374   4.770
75928ION    CL-47544  38.530   7.689  14.513
75929ION    CL-47545   3.214  40.573  11.171
75930ION    CL-47546  44.415  24.198   0.519
75931ION    CL-47547  41.922   8.761  14.957
75932ION    CL-47548  41.067  30.058  11.583
75933ION    CL-47549   1.956  38.120   1.482
75934ION    CL-47550  11.530  31.051  13.056
75935ION    CL-47551   3.628  13.919  12.727
75936ION    CL-47552  23.771   2.153   3.691
75937ION    CL-47553  22.112  44.344   0.014
75938ION    CL-47554  35.609  30.153  13.404
75939ION    CL-47555  27.715   0.328  12.306
75940ION    CL-47556  33.876  39.903  12.369
75941ION    CL-47557  24.307   6.542   3.456
75942ION    CL-47558  25.303  15.337   1.949
75943ION    CL-47559  38.990   2.494   2.295
75944ION    CL-47560   5.894   9.118   2.548
75945ION    CL-47561  40.660  22.490   3.526
75946ION    CL-47562   9.820  22.293   3.710
75947ION    CL-47563  32.936  14.725  10.882
75948ION    CL-47564  10.924  29.130   0.352
75949ION    CL-47565   1.376   5.010   1.663
75950ION    CL-47566  25.506  43.481  11.902
75951ION    CL-47567  14.038  25.776   2.168
75952ION    CL-47568  26.658  10.503  14.946
75953ION    CL-47569  42.193  37.794   1.412
75954ION    CL-47570  33.723  16.555   3.581
75955ION    CL-47571   0.823  42.575  14.218
75956ION    CL-47572   3.280   7.931  12.551
75957ION    CL-47573   4.690  42.307   2.332
75958ION    CL-47574  25.184   7.252   3.644
75959ION    CL-47575  29.706  38.257  11.662
75960ION    CL-47576  31.844  31.925  12.880
75961ION    CL-47577  22.452  14.439  14.814
75962ION    CL-47578  25.054  40.853  14.027
75963ION    CL-47579  44.839   0.208   1.129
75964ION    CL-47580  14.115   7.139   4.118
75965ION    CL-47581  34.362  16.304   4.179
75966ION    CL-47582  17.920  39.783  12.877
75967ION    CL-47583  12.347   6.870  11.368
75968ION    CL-47584  26.745  16.651  14.154
75969ION    CL-47585  29.056   9.503  14.432
75970ION    CL-47586  27.145  17.582   4.596
75971ION    CL-47587  35.915  29.029  10.662
75972ION    CL-47588   0.725  29.528  13.666
75973ION    CL-47589  44.500  30.169   0.496
75974ION    CL-47590   8.611  13.304   3.142
75975ION    CL-47591  27.471  13.294  14.649
75976ION    CL-47592  27.928  30.314   1.796
75977ION    CL-47593  20.291   3.487  14.842
75978ION    CL-47594  15.091  13.577   4.073
75979ION    CL-47595  21.294  27.560  12.436
75980ION    CL-47596   1.212  33.620  13.429
75981ION    CL-47597  32.724   2.408  10.941
75982ION    CL-47598  39.637  22.086   1.652
75983ION    CL-47599  18.466  35.871   3.351
75984ION    CL-47600  29.644  13.363   1.622
75985ION    CL-47601  27.800  19.501   0.384
75986ION    CL-47602  20.662  15.252   4.313
75987ION    CL-47603  29.261  42.379   3.688
75988ION    CL-47604   1.757   3.139   4.588
75989ION    CL-47605  30.952  25.309  14.445
75990ION    CL-47606  13.478  44.260   5.415
75991ION    CL-47607   5.698   3.431  11.088
75992ION    CL-47608  38.519  16.142  13.033
75993ION    CL-47609  39.914  43.348  11.738
75994ION    CL-47610  13.107   8.287  14.897
75995ION    CL-47611  28.570   0.414   2.840
75996ION    CL-47612  36.958  30.500  13.556
75997ION    CL-47613  10.796  22.052   2.546
75998ION    CL-47614  11.658  28.002  10.619
75999ION    CL-47615  36.665  22.499   4.232
76000ION    CL-47616  43.382  42.479   0.321
76001ION    CL-47617  37.058  39.231   2.407
76002ION    CL-47618  34.161  30.442  14.685
76003ION    CL-47619  15.111  38.692   1.185
76004ION    CL-47620  32.558  33.746  14.670
76005ION    CL-47621  39.211  38.795  11.613
76006ION    CL-47622   5.062   6.204   4.733
76007ION    CL-47623  34.379  11.859  13.732
76008ION    CL-47624  43.286  38.239   4.367
76009ION    CL-47625  37.376   4.011   3.730
76010ION    CL-47626  20.869  14.517  11.596
76011ION    CL-47627   5.751  27.187   3.824
76012ION    CL-47628  42.224  40.415  14.109
76013ION    CL-47629  25.430  35.380   1.707
76014ION    CL-47630  23.679  32.806   1.647
76015ION    CL-47631  16.766  11.993  11.288
76016ION    CL-47632  24.636  14.057   2.724
76017ION    CL-47633  44.346  31.859   2.131
76018ION    CL-47634  11.281  29.899   0.042
76019ION    CL-47635  26.174  42.602  11.288
76020ION    CL-47636  10.647  33.119   4.009
76021ION    CL-47637  39.617  14.291  11.738
76022ION    CL-47638  31.984  44.054   0.676
76023ION    CL-47639  39.484  24.312   0.811
76024ION    CL-47640  43.801  26.889  14.347
76025ION    CL-47641   7.854  39.864  13.545
76026ION    CL-47642  40.565  23.835  14.479
76027ION    CL-47643  17.373  38.331  14.404
76028ION    CL-47644   6.619  23.027   4.121
76029ION    CL-47645  20.231  43.418   1.364
76030ION    CL-47646  33.757  19.462  13.983
76031ION    CL-47647  40.754  23.357  11.714
76032ION    CL-47648  10.637   8.368   1.918
76033ION    CL-47649  35.152  42.305  14.565
76034ION    CL-47650  14.793  22.446   1.671
76035ION    CL-47651   0.123   7.611   3.185
76036ION    CL-47652  22.562  31.120   0.941
76037ION    CL-47653  37.365  16.358   2.115
76038ION    CL-47654  33.196  33.071  10.970
76039ION    CL-47655  18.576  40.276   1.340
76040ION    CL-47656   8.415   6.928   1.790
76041ION    CL-47657  41.279  42.287  13.568
76042ION    CL-47658  35.876  43.270  10.628
76043ION    CL-47659  32.523  32.619   0.843
76044ION    CL-47660   2.061  44.569   2.873
76045ION    CL-47661  38.173  13.743  11.350
76046ION    CL-47662  30.265  11.091   1.872
76047ION    CL-47663   1.332   4.024   1.974
76048ION    CL-47664  41.152   6.866  13.826
76049ION    CL-47665  23.489  40.398  12.682
76050ION    CL-47666   8.910  21.219   0.800
76051ION    CL-47667  12.325  12.848  14.468
76052ION    CL-47668  44.015  26.254   0.788
76053ION    CL-47669  26.571  28.143  12.526
76054ION    CL-47670  41.720  38.358   5.158
76055ION    CL-47671  22.799  36.892   1.337
76056ION    CL-47672  32.940  19.332   4.568
76057ION    CL-47673   4.489   4.428  11.633
76058ION    CL-47674  19.801  26.289  14.696
76059ION    CL-47675   4.198  12.270   4.220
76060ION    CL-47676  41.324  30.872  14.737
76061ION    CL-47677  29.363  21.396  13.262
76062ION    CL-47678  11.053   0.616  13.062
76063ION    CL-47679   2.925   9.688   3.286
76064ION    CL-47680   8.860  10.092   0.328
76065ION    CL-47681  33.277  33.087  14.449
76066ION    CL-47682  27.696  10.411  13.152
76067ION    CL-47683  37.419  21.506   2.087
76068ION    CL-47684  33.421  24.050   4.202
76069ION    CL-47685  23.002  25.109  11.579
76070ION    CL-47686  29.406  20.511  13.337
76071ION    CL-47687  41.852   2.005  13.853
76072ION    CL-47688  23.669  42.224  14.014
76073ION    CL-47689   8.253   8.790   4.363
76074ION    CL-47690  22.574  28.843   9.833
76075ION    CL-47691  37.340  41.469  11.714
76076ION    CL-47692  22.380   9.243  13.083
76077ION    CL-47693  43.371  35.622  10.687
76078ION    CL-47694  16.160   5.501   2.808
76079ION    CL-47695  36.066  17.780   2.660
76080ION    CL-47696  42.801  17.786  10.612
76081ION    CL-47697  42.916  36.474   2.346
76082ION    CL-47698  34.740  29.560  14.786
76083ION    CL-47699  13.273  30.708  12.773
76084ION    CL-47700  18.059  39.113  11.368
76085ION    CL-47701  14.805   8.319   0.991
76086ION    CL-47702  28.465  20.769  14.790
76087ION    CL-47703  38.246  44.406   0.828
76088ION    CL-47704   4.143  39.338   1.312
76089ION    CL-47705   0.731  36.813   3.972
76090ION    CL-47706   8.675   5.339   2.316
76091ION    CL-47707  29.751  12.738  13.902
76092ION    CL-47708  42.111  31.267  14.638
76093ION    CL-47709  27.019  39.696  10.373
76094ION    CL-47710   7.763  15.836   0.899
76095ION    CL-47711   1.140  43.956   0.122
76096ION    CL-47712  30.842  44.652   3.056
76097ION    CL-47713  35.787   8.030   2.934
76098ION    CL-47714  22.643   2.346  13.784
76099ION    CL-47715  37.723  26.651  10.740
76100ION    CL-47716  12.637  24.580  14.191
76101ION    CL-47717   9.707   7.422  12.054
76102ION    CL-47718   5.413  12.246  13.748
76103ION    CL-47719  34.943  13.157   3.882
76104ION    CL-47720  25.292  20.891   5.129
76105ION    CL-47721  21.184   9.316  13.401
76106ION    CL-47722   4.159  36.891   0.834
76107ION    CL-47723  39.614  40.847  11.562
76108ION    CL-47724  15.792   7.905  11.920
76109ION    CL-47725  43.588  37.951  12.659
76110ION    CL-47726  39.275  39.979  12.070
76111ION    CL-47727  35.965   6.162   0.366
76112ION    CL-47728  44.693  36.950  13.191
76113ION    CL-47729  21.958  24.626  11.977
76114ION    CL-47730   6.590  23.948  13.918
76115ION    CL-47731  27.445  37.940   3.733
76116ION    CL-47732  17.845   2.890  13.979
76117ION    CL-47733  27.468   9.851  14.818
76118ION    CL-47734  18.708   7.844   2.977
76119ION    CL-47735   0.450  42.903   9.929
76120ION    CL-47736  32.455  16.039   4.048
76121ION    CL-47737  26.426  34.924   3.207
76122ION    CL-47738  20.042  38.084   1.814
76123ION    CL-47739  22.260  21.582  10.732
76124ION    CL-47740   3.530  32.691   3.568
76125ION    CL-47741  39.830   3.543  14.890
76126ION    CL-47742  40.028   0.873  14.684
76127ION    CL-47743   5.484  28.431  13.983
76128ION    CL-47744   4.297  23.322  11.530
76129ION    CL-47745  36.351  44.419   4.066
76130ION    CL-47746  43.277  39.352  12.434
76131ION    CL-47747  12.652  39.472  14.419
76132ION    CL-47748   9.934  10.530  11.628
76133ION    CL-47749  29.680   5.238  11.562
76134ION    CL-47750  38.628  13.963   3.758
76135ION    CL-47751  12.574   8.765  12.454
76136ION    CL-47752  35.731  24.608   3.092
76137ION    CL-47753  14.799  15.789  10.730
76138ION    CL-47754  14.492  37.555   1.223
76139ION    CL-47755   3.223  25.822   0.107
76140ION    CL-47756  25.638  23.082   2.898
76141ION    CL-47757  35.594  36.038  10.570
76142ION    CL-47758  19.576  14.676   1.752
76143ION    CL-47759  25.575  24.052  14.573
76144ION    CL-47760  15.295  30.839  11.915
76145ION    CL-47761  38.010   8.377   0.020
76146ION    CL-47762  11.097  16.393   0.200
76147ION    CL-47763  29.576   4.431   3.809
76148ION    CL-47764  14.760  22.978   0.256
76149ION    CL-47765  11.531   7.274   9.765
76150ION    CL-47766  21.131  40.287   4.212
76151ION    CL-47767   4.667  10.378   3.387
76152ION    CL-47768  28.715  15.888  14.706
76153ION    CL-47769  18.034   6.811   3.362
76154ION    CL-47770   0.195  39.192   9.988
76155ION    CL-47771  10.497   4.719  14.244
76156ION    CL-47772  33.866  14.681  14.346
76157ION    CL-47773   1.439  12.518  12.881
76158ION    CL-47774   6.462  30.492   9.776
76159ION    CL-47775  35.682   0.870   3.140
76160ION    CL-47776  44.357  44.028   0.742
76161ION    CL-47777  19.186  10.903  10.957
76162ION    CL-47778  42.175  42.088  14.512
76163ION    CL-47779   1.952   7.479  12.271
76164ION    CL-47780   0.050   6.068   4.896
76165ION    CL-47781  40.089  42.334  12.001
76166ION    CL-47782  23.958  18.920  11.428
76167ION    CL-47783  34.279  12.994  10.551
76168ION    CL-47784  13.578  21.312  14.458
76169ION    CL-47785  38.647  41.796  13.119
76170ION    CL-47786  31.020  15.427   2.012
76171ION    CL-47787  23.335  32.352   4.941
76172ION    CL-47788   7.983  30.606  12.830
76173ION    CL-47789  11.707  11.140   4.951
76174ION    CL-47790  32.420  37.112  14.925
76175ION    CL-47791  35.119  12.175  11.992
76176ION    CL-47792  37.295  39.632  12.477
76177ION    CL-47793   8.441  36.982  14.824
76178ION    CL-47794  41.789  33.924   3.776
76179ION    CL-47795   6.433  40.411   4.244
76180ION    CL-47796  25.253   4.176   2.909
76181ION    CL-47797  12.240  39.170  13.084
76182ION    CL-47798  26.592  35.868  12.630
76183ION    CL-47799  41.696   3.091   9.926
76184ION    CL-47800  26.485  26.697   4.074
76185ION    CL-47801   9.618   0.537  13.531
76186ION    CL-47802  41.694  13.118  13.939
76187ION    CL-47803  17.935  30.597   3.907
76188ION    CL-47804  26.020  35.385   4.160
76189ION    CL-47805   0.388  42.095  11.252
76190ION    CL-47806   2.788   1.463   4.762
76191ION    CL-47807   5.693  42.463  12.543
76192ION    CL-47808  24.557  17.568  13.673
76193ION    CL-47809  30.186  27.486   3.182
76194ION    CL-47810  37.270   7.415  13.014
76195ION    CL-47811  33.657   0.158   3.512
76196ION    CL-47812  39.270  31.295   4.134
76197ION    CL-47813   1.211  37.143  13.947
76198ION    CL-47814  11.191  35.683   2.534
76199ION    CL-47815   4.029  19.081   5.080
76200ION    CL-47816  31.606  36.070   4.842
76201ION    CL-47817  18.500   2.827   1.018
76202ION    CL-47818  22.973  16.012  14.131
76203ION    CL-47819  20.123  37.811  11.060
76204ION    CL-47820   7.371  36.506   3.930
76205ION    CL-47821   8.851   1.709  13.769
76206ION    CL-47822  24.798  29.544   1.426
76207ION    CL-47823   8.159  10.588  12.412
76208ION    CL-47824  39.731  40.798   2.483
76209ION    CL-47825   7.736  41.785  12.205
76210ION    CL-47826  36.620  11.320   2.689
76211ION    CL-47827  14.035   2.216  11.883
76212ION    CL-47828   3.327  14.900  14.776
76213ION    CL-47829  28.946  25.960   1.789
76214ION    CL-47830  19.220   6.889   4.527
76215ION    CL-47831  28.321   0.961   3.102
76216ION    CL-47832  17.083   4.384   4.924
76217ION    CL-47833  12.060  22.303  10.413
76218ION    CL-47834  35.390  11.661  14.842
76219ION    CL-47835  22.322  19.200  10.569
76220ION    CL-47836  33.421  44.029  13.343
76221ION    CL-47837  21.118  34.542  14.578
76222ION    CL-47838  18.095  24.935   4.079
76223ION    CL-47839  26.673  17.176  13.297
76224ION    CL-47840   0.646  32.907   4.266
76225ION    CL-47841  29.989  42.381   2.869
76226ION    CL-47842  42.762  37.640  12.664
76227ION    CL-47843  42.428  44.689   2.987
76228ION    CL-47844   8.275  16.872  12.345
76229ION    CL-47845  37.801  41.894  14.800
76230ION    CL-47846  41.254   1.670   1.345
76231ION    CL-47847  25.300  36.459   1.127
76232ION    CL-47848  37.096  21.552   3.599
76233ION    CL-47849   6.938  21.994   3.620
76234ION    CL-47850  22.310   0.570   1.068
76235ION    CL-47851  44.470  15.905  10.840
76236ION    CL-47852   5.856  42.235   1.239
76237ION    CL-47853  23.810  37.389  12.019
76238ION    CL-47854  35.832  26.471   2.215
76239ION    CL-47855   2.869   2.486   4.095
76240ION    CL-47856   7.039   9.389   0.377
76241ION    CL-47857   1.569  39.447   1.407
76242ION    CL-47858  23.946   0.264  11.093
76243ION    CL-47859   8.043  13.108  11.403
76244ION    CL-47860   1.736  13.312   4.758
76245ION    CL-47861   9.098  27.672  12.777
76246ION    CL-47862   3.370  26.976   2.770
76247ION    CL-47863  44.941  43.857  10.852
76248ION    CL-47864  30.402   2.277   1.323
76249ION    CL-47865  27.071  33.875   3.635
76250ION    CL-47866  24.988   4.621   0.113
76251ION    CL-47867   6.945   5.644   1.023
76252ION    CL-47868   3.426   5.829  14.595
76253ION    CL-47869  38.771  26.207   5.005
76254ION    CL-47870  43.200  35.363  14.123
76255ION    CL-47871   7.432   2.752  14.898
76256ION    CL-47872  10.024   1.665   1.210
76257ION    CL-47873  14.212  14.036  12.089
76258ION    CL-47874  34.247  24.634   0.740
76259ION    CL-47875  17.849   1.849  12.960
76260ION    CL-47876  12.815  13.786   1.074
76261ION    CL-47877  28.475   8.588   3.690
76262ION    CL-47878   9.151   4.601  10.388
76263ION    CL-47879   0.746  30.150  14.525
76264ION    CL-47880   7.710   1.161   1.432
76265ION    CL-47881  23.611  20.491   1.818
76266ION    CL-47882  11.031  33.516   3.318
76267ION    CL-47883  16.757  31.877  11.103
76268ION    CL-47884  35.829  14.495  13.508
76269ION    CL-47885   2.515  41.810   4.006
76270ION    CL-47886  21.531  41.280   3.872
76271ION    CL-47887  27.431  16.018  11.939
76272ION    CL-47888  17.361   4.174   0.946
76273ION    CL-47889  10.170  40.403  14.261
76274ION    CL-47890   4.003  34.423  10.597
76275ION    CL-47891   2.747  38.826  13.627
76276ION    CL-47892   1.116  26.847   4.743
76277ION    CL-47893  19.337  10.033   3.359
76278ION    CL-47894   4.263  16.006  14.357
76279ION    CL-47895  35.342  17.791   1.451
76280ION    CL-47896  44.936  23.111  13.881
76281ION    CL-47897  32.772  43.248   2.523
76282ION    CL-47898  25.897  26.513  12.377
76283ION    CL-47899  42.493  16.621   3.806
76284ION    CL-47900   0.504  22.169   4.778
76285ION    CL-47901  14.326   2.513   3.262
76286ION    CL-47902   5.414  16.955  14.148
76287ION    CL-47903   1.227  31.123  11.446
76288ION    CL-47904  18.833   9.727   2.236
76289ION    CL-47905  28.119   8.429  13.889
76290ION    CL-47906  27.629  38.799   2.809
76291ION    CL-47907  26.872  27.699  13.540
76292ION    CL-47908  26.603  28.194  10.735
76293ION    CL-47909   8.184  42.471   2.909
76294ION    CL-47910   0.387  24.242   1.459
76295ION    CL-47911   3.533   1.371  11.071
76296ION    CL-47912  21.051  20.543  13.758
76297ION    CL-47913  39.405  23.528   2.466
76298ION    CL-47914   1.251  22.252  14.916
76299ION    CL-47915  13.370  10.742   0.119
76300ION    CL-47916  10.628  39.142  11.755
76301ION    CL-47917   6.165   2.426  13.864
76302ION    CL-47918  32.543   8.519   0.100
76303ION    CL-47919  44.795  36.827  14.179
76304ION    CL-47920  21.650   3.731   1.823
76305ION    CL-47921   6.054  37.381   0.992
76306ION    CL-47922  11.857  21.210   9.728
76307ION    CL-47923   3.502  43.931  13.950
76308ION    CL-47924  33.879  23.426  11.651
76309ION    CL-47925  29.396  42.902  11.611
76310ION    CL-47926  38.059  36.729  11.763
76311ION    CL-47927  39.431  16.813   5.067
76312ION    CL-47928   6.832   6.307   2.350
76313ION    CL-47929  20.077  26.066   2.599
76314ION    CL-47930  18.330  43.302  13.945
76315ION    CL-47931   3.146  41.467  12.106
76316ION    CL-47932   2.909  25.632  12.870
76317ION    CL-47933  41.643  34.654   2.163
76318ION    CL-47934  14.221  22.295   3.642
76319ION    CL-47935  14.099  38.030  14.771
76320ION    CL-47936  40.150  37.398   0.006
76321ION    CL-47937   6.240  18.665  10.084
76322ION    CL-47938  42.349  41.674   3.758
76323ION    CL-47939  25.546  13.218  12.096
76324ION    CL-47940  21.298  13.269   0.443
76325ION    CL-47941  18.173  12.228  12.479
76326ION    CL-47942   4.526  44.277  11.365
76327ION    CL-47943  16.025  42.704  10.193
76328ION    CL-47944  21.243  40.392   3.224
76329ION    CL-47945  28.010  21.385  14.023
76330ION    CL-47946   7.927   0.801  14.962
76331ION    CL-47947   7.742  12.873  14.476
76332ION    CL-47948  33.786   6.211  12.182
76333ION    CL-47949  31.260  38.656  14.614
76334ION    CL-47950   7.194  25.021  14.556
76335ION    CL-47951   2.968  14.164   1.517
76336ION    CL-47952  44.762  34.084   4.960
76337ION    CL-47953  37.416  26.878  12.182
76338ION    CL-47954  31.633  28.021   3.677
76339ION    CL-47955  14.654   1.013   2.604
76340ION    CL-47956  29.288  38.074   0.485
76341ION    CL-47957  37.223  20.751   4.376
76342ION    CL-47958  44.057  15.047   4.929
76343ION    CL-47959  15.564  37.253   1.372
76344ION    CL-47960  22.077  10.740   1.884
76345ION    CL-47961  28.726   1.425  11.928
76346ION    CL-47962  26.293   9.237  12.098
76347ION    CL-47963  40.956  35.193   4.185
76348ION    CL-47964  40.951  22.497  14.008
76349ION    CL-47965  25.151   7.200   0.435
76350ION    CL-47966  29.454  23.471  10.689
76351ION    CL-47967   5.211  20.466   1.673
76352ION    CL-47968  20.189  39.242  12.076
76353ION    CL-47969   5.416  16.299   0.006
76354ION    CL-47970  41.587   6.340   1.842
76355ION    CL-47971   4.819   1.226   3.788
76356ION    CL-47972   2.468  44.966  12.874
76357ION    CL-47973  43.258  16.542   4.298
76358ION    CL-47974  15.725  14.019   2.916
76359ION    CL-47975  15.406  40.335  10.617
76360ION    CL-47976   6.115  44.484   3.986
76361ION    CL-47977   0.604  10.802   2.684
76362ION    CL-47978   7.644   0.306   0.917
76363ION    CL-47979  12.682  11.943   4.048
76364ION    CL-47980   3.872  35.908  10.004
76365ION    CL-47981  27.750  36.487   4.083
76366ION    CL-47982  38.565  37.180  11.028
76367ION    CL-47983  25.713  22.810   4.298
76368ION    CL-47984   0.322  35.536   3.396
76369ION    CL-47985  39.654   2.184   4.095
76370ION    CL-47986   9.915  42.461  14.662
76371ION    CL-47987  40.248  41.619  11.453
76372ION    CL-47988  18.685  21.109   2.765
76373ION    CL-47989  15.682  25.427   3.175
76374ION    CL-47990   7.215  19.773   0.323
76375ION    CL-47991  25.534  38.104   1.156
76376ION    CL-47992  28.114  42.968  14.884
76377ION    CL-47993  32.663  11.395   2.152
76378ION    CL-47994  20.255  12.979  13.470
76379ION    CL-47995   3.872  27.541  12.378
  45.00000  45.00000  15.00000
